
     Program PWSCF v.5.0.2 (svn rev. 9656) starts on 11Feb2014 at 13: 3:25 

     This program is part of the open-source Quantum ESPRESSO suite
     for quantum simulation of materials; please cite
         "P. Giannozzi et al., J. Phys.:Condens. Matter 21 395502 (2009);
          URL http://www.quantum-espresso.org", 
     in publications or presentations arising from this work. More details at
     http://www.quantum-espresso.org/quote.php

     Parallel version (MPI), running on    16 processors
     R & G space division:  proc/nbgrp/npool/nimage =      16

     Current dimensions of program PWSCF are:
     Max number of different atomic species (ntypx) = 10
     Max number of k-points (npk) =  40000
     Max angular momentum in pseudopotentials (lmaxx) =  3
     Reading input from alpha_0.15/alpha_0.15.in
Warning: card &IONS ignored
Warning: card / ignored
Warning: card &CELL ignored
Warning: card / ignored

     Subspace diagonalization in iterative solution of the eigenvalue problem:
     a serial algorithm will be used


     Parallelization info
     --------------------
     sticks:   dense  smooth     PW     G-vecs:    dense   smooth      PW
     Min         728     233     65                40771     7373    1095
     Max         730     234     66                40773     7387    1096
     Sum       11661    3729   1041               652351   118087   17521



     bravais-lattice index     =            0
     lattice parameter (alat)  =      17.1209  a.u.
     unit-cell volume          =    3456.5082 (a.u.)^3
     number of atoms/cell      =           48
     number of atomic types    =            3
     number of electrons       =       448.00
     number of Kohn-Sham states=          648
     kinetic-energy cutoff     =      40.0000  Ry
     charge density cutoff     =     500.0000  Ry
     convergence threshold     =      1.0E-06
     mixing beta               =       0.7000
     number of iterations used =            8  plain     mixing
     Exchange-correlation      = SLA  PW   PBE  PBE ( 1 4 3 4 0)
     EXX-fraction              =        0.00

     celldm(1)=  17.120919  celldm(2)=   0.000000  celldm(3)=   0.000000
     celldm(4)=   0.000000  celldm(5)=   0.000000  celldm(6)=   0.000000

     crystal axes: (cart. coord. in units of alat)
               a(1) = (   1.000000   0.000000   0.000000 )  
               a(2) = (   0.000000   1.000000   0.000000 )  
               a(3) = (   0.000000   0.000000   0.688742 )  

     reciprocal axes: (cart. coord. in units 2 pi/alat)
               b(1) = (  1.000000  0.000000  0.000000 )  
               b(2) = (  0.000000  1.000000  0.000000 )  
               b(3) = (  0.000000  0.000000  1.451923 )  


     PseudoPot. # 1 for Ru read from file:
     /home/camp/zhonxu/pseudo/ru_pbe_v1.uspp.F.UPF
     MD5 check sum: df00be1c11b23341d9806d8f1dfa10cf
     Pseudo is Ultrasoft + core correction, Zval = 16.0
     Generated by new atomic code, or converted to UPF format
     Using radial grid of  967 points,  6 beta functions with: 
                l(1) =   0
                l(2) =   0
                l(3) =   1
                l(4) =   1
                l(5) =   2
                l(6) =   2
     Q(r) pseudized with  8 coefficients,  rinner =    1.300   1.300   1.300
                                                       1.300   1.300

     PseudoPot. # 2 for O  read from file:
     /home/camp/zhonxu/pseudo/o_pbe_v1.01.uspp.F.UPF
     MD5 check sum: 2bcb18d16ea4b960afae9ec6d52f22d2
     Pseudo is Ultrasoft + core correction, Zval =  6.0
     Generated by new atomic code, or converted to UPF format
     Using radial grid of  737 points,  5 beta functions with: 
                l(1) =   0
                l(2) =   0
                l(3) =   1
                l(4) =   1
                l(5) =   2
     Q(r) pseudized with  8 coefficients,  rinner =    0.900   0.900   0.900
                                                       0.900   0.900

     PseudoPot. # 3 for O  read from file:
     /home/camp/zhonxu/pseudo/o_pbe_v1.01.uspp.F.UPF
     MD5 check sum: 2bcb18d16ea4b960afae9ec6d52f22d2
     Pseudo is Ultrasoft + core correction, Zval =  6.0
     Generated by new atomic code, or converted to UPF format
     Using radial grid of  737 points,  5 beta functions with: 
                l(1) =   0
                l(2) =   0
                l(3) =   1
                l(4) =   1
                l(5) =   2
     Q(r) pseudized with  8 coefficients,  rinner =    0.900   0.900   0.900
                                                       0.900   0.900

     atomic species   valence    mass     pseudopotential
        Ru0           16.00   101.07000     Ru( 1.00)
        O1             6.00    15.99940     O ( 1.00)
        O2             6.00    15.99940     O ( 1.00)

     Starting magnetic structure 
     atomic species   magnetization
        Ru0          0.000
        O1           0.000
        O2           0.000


     Simplified LDA+U calculation (l_max = 2) with parameters (eV):
     atomic species    L          U    alpha       J0     beta
        Ru0            2     0.0000   0.0000   0.0000   0.0000
        O1             1     0.0000   0.1500   0.0000   0.0000
        O2             1     0.0000   0.0000   0.0000   0.0000



      4 Sym. Ops. (no inversion) found



   Cartesian axes

     site n.     atom                  positions (alat units)
         1           Ru0 tau(   1) = (  -0.1550000  -0.1550000   0.0000000  )
         2           Ru0 tau(   2) = (   0.0950000   0.0950000   0.1721854  )
         3           Ru0 tau(   3) = (  -0.1550000  -0.1550000   0.3443709  )
         4           Ru0 tau(   4) = (   0.0950000   0.0950000   0.5165563  )
         5           Ru0 tau(   5) = (  -0.1550000   0.3450000   0.0000000  )
         6           Ru0 tau(   6) = (   0.0950000   0.5950000   0.1721854  )
         7           Ru0 tau(   7) = (  -0.1550000   0.3450000   0.3443709  )
         8           Ru0 tau(   8) = (   0.0950000   0.5950000   0.5165563  )
         9           Ru0 tau(   9) = (   0.3450000  -0.1550000   0.0000000  )
        10           Ru0 tau(  10) = (   0.5950000   0.0950000   0.1721854  )
        11           Ru0 tau(  11) = (   0.3450000  -0.1550000   0.3443709  )
        12           Ru0 tau(  12) = (   0.5950000   0.0950000   0.5165563  )
        13           Ru0 tau(  13) = (   0.3450000   0.3450000   0.0000000  )
        14           Ru0 tau(  14) = (   0.5950000   0.5950000   0.1721854  )
        15           Ru0 tau(  15) = (   0.3450000   0.3450000   0.3443709  )
        16           Ru0 tau(  16) = (   0.5950000   0.5950000   0.5165563  )
        17           O1  tau(  17) = (   0.0000000   0.0000000   0.0000000  )
        18           O2  tau(  18) = (  -0.3100000  -0.3100000   0.0000000  )
        19           O2  tau(  19) = (   0.2500000  -0.0600000   0.1721854  )
        20           O2  tau(  20) = (  -0.0600000   0.2500000   0.1721854  )
        21           O2  tau(  21) = (   0.0000000   0.0000000   0.3443709  )
        22           O2  tau(  22) = (  -0.3100000  -0.3100000   0.3443709  )
        23           O2  tau(  23) = (   0.2500000  -0.0600000   0.5165563  )
        24           O2  tau(  24) = (  -0.0600000   0.2500000   0.5165563  )
        25           O2  tau(  25) = (   0.0000000   0.5000000   0.0000000  )
        26           O2  tau(  26) = (  -0.3100000   0.1900000   0.0000000  )
        27           O2  tau(  27) = (   0.2500000   0.4400000   0.1721854  )
        28           O2  tau(  28) = (  -0.0600000   0.7500000   0.1721854  )
        29           O2  tau(  29) = (   0.0000000   0.5000000   0.3443709  )
        30           O2  tau(  30) = (  -0.3100000   0.1900000   0.3443709  )
        31           O2  tau(  31) = (   0.2500000   0.4400000   0.5165563  )
        32           O2  tau(  32) = (  -0.0600000   0.7500000   0.5165563  )
        33           O2  tau(  33) = (   0.5000000   0.0000000   0.0000000  )
        34           O2  tau(  34) = (   0.1900000  -0.3100000   0.0000000  )
        35           O2  tau(  35) = (   0.7500000  -0.0600000   0.1721854  )
        36           O2  tau(  36) = (   0.4400000   0.2500000   0.1721854  )
        37           O2  tau(  37) = (   0.5000000   0.0000000   0.3443709  )
        38           O2  tau(  38) = (   0.1900000  -0.3100000   0.3443709  )
        39           O2  tau(  39) = (   0.7500000  -0.0600000   0.5165563  )
        40           O2  tau(  40) = (   0.4400000   0.2500000   0.5165563  )
        41           O2  tau(  41) = (   0.5000000   0.5000000   0.0000000  )
        42           O2  tau(  42) = (   0.1900000   0.1900000   0.0000000  )
        43           O2  tau(  43) = (   0.7500000   0.4400000   0.1721854  )
        44           O2  tau(  44) = (   0.4400000   0.7500000   0.1721854  )
        45           O2  tau(  45) = (   0.5000000   0.5000000   0.3443709  )
        46           O2  tau(  46) = (   0.1900000   0.1900000   0.3443709  )
        47           O2  tau(  47) = (   0.7500000   0.4400000   0.5165563  )
        48           O2  tau(  48) = (   0.4400000   0.7500000   0.5165563  )

     number of k points=    42  Methfessel-Paxton smearing, width (Ry)=  0.0100
                       cart. coord. in units 2pi/alat
        k(    1) = (   0.0000000   0.0000000   0.0000000), wk =   0.0156250
        k(    2) = (   0.0000000   0.0000000   0.3629808), wk =   0.0312500
        k(    3) = (   0.0000000   0.0000000  -0.7259615), wk =   0.0156250
        k(    4) = (   0.0000000   0.2500000   0.0000000), wk =   0.0625000
        k(    5) = (   0.0000000   0.2500000   0.3629808), wk =   0.1250000
        k(    6) = (   0.0000000   0.2500000  -0.7259615), wk =   0.0625000
        k(    7) = (   0.0000000  -0.5000000   0.0000000), wk =   0.0312500
        k(    8) = (   0.0000000  -0.5000000   0.3629808), wk =   0.0625000
        k(    9) = (   0.0000000  -0.5000000  -0.7259615), wk =   0.0312500
        k(   10) = (   0.2500000   0.2500000   0.0000000), wk =   0.0312500
        k(   11) = (   0.2500000   0.2500000   0.3629808), wk =   0.0625000
        k(   12) = (   0.2500000   0.2500000  -0.7259615), wk =   0.0312500
        k(   13) = (   0.2500000  -0.5000000   0.0000000), wk =   0.0625000
        k(   14) = (   0.2500000  -0.5000000   0.3629808), wk =   0.1250000
        k(   15) = (   0.2500000  -0.5000000  -0.7259615), wk =   0.0625000
        k(   16) = (  -0.5000000  -0.5000000   0.0000000), wk =   0.0156250
        k(   17) = (  -0.5000000  -0.5000000   0.3629808), wk =   0.0312500
        k(   18) = (  -0.5000000  -0.5000000  -0.7259615), wk =   0.0156250
        k(   19) = (   0.2500000  -0.2500000   0.0000000), wk =   0.0312500
        k(   20) = (   0.2500000  -0.2500000   0.3629808), wk =   0.0625000
        k(   21) = (   0.2500000  -0.2500000  -0.7259615), wk =   0.0312500
        k(   22) = (   0.0000000   0.0000000   0.0000000), wk =   0.0156250
        k(   23) = (   0.0000000   0.0000000   0.3629808), wk =   0.0312500
        k(   24) = (   0.0000000   0.0000000  -0.7259615), wk =   0.0156250
        k(   25) = (   0.0000000   0.2500000   0.0000000), wk =   0.0625000
        k(   26) = (   0.0000000   0.2500000   0.3629808), wk =   0.1250000
        k(   27) = (   0.0000000   0.2500000  -0.7259615), wk =   0.0625000
        k(   28) = (   0.0000000  -0.5000000   0.0000000), wk =   0.0312500
        k(   29) = (   0.0000000  -0.5000000   0.3629808), wk =   0.0625000
        k(   30) = (   0.0000000  -0.5000000  -0.7259615), wk =   0.0312500
        k(   31) = (   0.2500000   0.2500000   0.0000000), wk =   0.0312500
        k(   32) = (   0.2500000   0.2500000   0.3629808), wk =   0.0625000
        k(   33) = (   0.2500000   0.2500000  -0.7259615), wk =   0.0312500
        k(   34) = (   0.2500000  -0.5000000   0.0000000), wk =   0.0625000
        k(   35) = (   0.2500000  -0.5000000   0.3629808), wk =   0.1250000
        k(   36) = (   0.2500000  -0.5000000  -0.7259615), wk =   0.0625000
        k(   37) = (  -0.5000000  -0.5000000   0.0000000), wk =   0.0156250
        k(   38) = (  -0.5000000  -0.5000000   0.3629808), wk =   0.0312500
        k(   39) = (  -0.5000000  -0.5000000  -0.7259615), wk =   0.0156250
        k(   40) = (   0.2500000  -0.2500000   0.0000000), wk =   0.0312500
        k(   41) = (   0.2500000  -0.2500000   0.3629808), wk =   0.0625000
        k(   42) = (   0.2500000  -0.2500000  -0.7259615), wk =   0.0312500

     Dense  grid:   652351 G-vectors     FFT dimensions: ( 125, 125,  90)

     Smooth grid:   118087 G-vectors     FFT dimensions: (  72,  72,  48)

     Largest allocated arrays     est. size (Mb)     dimensions
        Kohn-Sham Wavefunctions         9.17 Mb     (    927,  648)
        Atomic wavefunctions            4.75 Mb     (    927,  336)
        NL pseudopotentials             9.96 Mb     (    927,  704)
        Each V/rho on FFT grid          2.86 Mb     (  93750,   2)
        Each G-vector array             0.31 Mb     (  40772)
        G-vector shells                 0.12 Mb     (  15344)
     Largest temporary arrays     est. size (Mb)     dimensions
        Auxiliary wavefunctions        36.66 Mb     (    927, 2592)
        Each subspace H/S matrix      102.52 Mb     (2592,2592)
        Each <psi_i|beta_j> matrix      6.96 Mb     (    704,  648)
        Arrays for rho mixing          11.44 Mb     (  93750,   8)

     Check: negative/imaginary core charge=   -0.000008    0.000000

     The initial density is read from file :
     alpha_0.15/pwscf.save/charge-density.dat


     negative rho (up, down):  0.577E+00 0.577E+00
     Number of +U iterations with fixed ns =  0
     Starting occupations:
 --- enter write_ns ---
 LDA+U parameters:
U( 1)     =  0.00000000
alpha( 1) =  0.00000000
U( 2)     =  0.00000000
alpha( 2) =  0.15000000
U( 3)     =  0.00000000
alpha( 3) =  0.00000000
atom    1   Tr[ns(na)] (up, down, total) =   3.57697  3.57697  7.15394
   spin  1
    eigenvalues: 
  0.553  0.589  0.716  0.781  0.937
    eigenvectors:
  0.000  0.334  0.000  0.000  0.666
  0.500  0.000  0.000  0.500  0.000
  0.500  0.000  0.000  0.500  0.000
  0.000  0.000  1.000  0.000  0.000
  0.000  0.666  0.000  0.000  0.334
    occupations:
  0.821 -0.000 -0.000 -0.000  0.164
 -0.000  0.667  0.114  0.000  0.000
 -0.000  0.114  0.667  0.000  0.000
 -0.000  0.000  0.000  0.716 -0.000
  0.164  0.000  0.000 -0.000  0.706
   spin  2
    eigenvalues: 
  0.553  0.589  0.716  0.781  0.937
    eigenvectors:
  0.000  0.334  0.000  0.000  0.666
  0.500  0.000  0.000  0.500  0.000
  0.500  0.000  0.000  0.500  0.000
  0.000  0.000  1.000  0.000  0.000
  0.000  0.666  0.000  0.000  0.334
    occupations:
  0.821 -0.000 -0.000 -0.000  0.164
 -0.000  0.667  0.114  0.000  0.000
 -0.000  0.114  0.667  0.000  0.000
 -0.000  0.000  0.000  0.716 -0.000
  0.164  0.000  0.000 -0.000  0.706
atomic mag. moment =    -0.000002
atom    2   Tr[ns(na)] (up, down, total) =   3.57701  3.57701  7.15402
   spin  1
    eigenvalues: 
  0.553  0.589  0.716  0.781  0.937
    eigenvectors:
  0.000  0.334  0.000  0.000  0.666
  0.500  0.000  0.000  0.500  0.000
  0.500  0.000  0.000  0.500  0.000
  0.000  0.000  1.000  0.000  0.000
  0.000  0.666  0.000  0.000  0.334
    occupations:
  0.821  0.000  0.000  0.000 -0.164
  0.000  0.667 -0.114 -0.000 -0.000
  0.000 -0.114  0.667  0.000 -0.000
  0.000 -0.000  0.000  0.716 -0.000
 -0.164 -0.000 -0.000 -0.000  0.706
   spin  2
    eigenvalues: 
  0.553  0.589  0.716  0.781  0.937
    eigenvectors:
  0.000  0.334  0.000  0.000  0.666
  0.500  0.000  0.000  0.500  0.000
  0.500  0.000  0.000  0.500  0.000
  0.000  0.000  1.000  0.000  0.000
  0.000  0.666  0.000  0.000  0.334
    occupations:
  0.821  0.000  0.000  0.000 -0.164
  0.000  0.667 -0.114 -0.000 -0.000
  0.000 -0.114  0.667  0.000 -0.000
  0.000 -0.000  0.000  0.716 -0.000
 -0.164 -0.000 -0.000 -0.000  0.706
atomic mag. moment =     0.000002
atom    3   Tr[ns(na)] (up, down, total) =   3.57736  3.57736  7.15472
   spin  1
    eigenvalues: 
  0.553  0.589  0.716  0.781  0.937
    eigenvectors:
  0.000  0.334  0.000  0.000  0.666
  0.500  0.000  0.000  0.500  0.000
  0.500  0.000  0.000  0.500  0.000
  0.000  0.000  1.000  0.000  0.000
  0.000  0.666  0.000  0.000  0.334
    occupations:
  0.821 -0.000 -0.000 -0.000  0.164
 -0.000  0.667  0.114  0.000  0.000
 -0.000  0.114  0.667  0.000  0.000
 -0.000  0.000  0.000  0.716 -0.000
  0.164  0.000  0.000 -0.000  0.706
   spin  2
    eigenvalues: 
  0.553  0.589  0.716  0.781  0.937
    eigenvectors:
  0.000  0.334  0.000  0.000  0.666
  0.500  0.000  0.000  0.500  0.000
  0.500  0.000  0.000  0.500  0.000
  0.000  0.000  1.000  0.000  0.000
  0.000  0.666  0.000  0.000  0.334
    occupations:
  0.821 -0.000 -0.000 -0.000  0.164
 -0.000  0.667  0.114  0.000  0.000
 -0.000  0.114  0.667  0.000  0.000
 -0.000  0.000  0.000  0.716 -0.000
  0.164  0.000  0.000 -0.000  0.706
atomic mag. moment =    -0.000000
atom    4   Tr[ns(na)] (up, down, total) =   3.57701  3.57701  7.15402
   spin  1
    eigenvalues: 
  0.553  0.589  0.716  0.781  0.937
    eigenvectors:
  0.000  0.334  0.000  0.000  0.666
  0.500  0.000  0.000  0.500  0.000
  0.500  0.000  0.000  0.500  0.000
  0.000  0.000  1.000  0.000  0.000
  0.000  0.666  0.000  0.000  0.334
    occupations:
  0.821 -0.000 -0.000  0.000 -0.164
 -0.000  0.667 -0.114  0.000  0.000
 -0.000 -0.114  0.667 -0.000  0.000
  0.000  0.000 -0.000  0.716 -0.000
 -0.164  0.000  0.000 -0.000  0.706
   spin  2
    eigenvalues: 
  0.553  0.589  0.716  0.781  0.937
    eigenvectors:
  0.000  0.334  0.000  0.000  0.666
  0.500  0.000  0.000  0.500  0.000
  0.500  0.000  0.000  0.500  0.000
  0.000  0.000  1.000  0.000  0.000
  0.000  0.666  0.000  0.000  0.334
    occupations:
  0.821 -0.000 -0.000  0.000 -0.164
 -0.000  0.667 -0.114  0.000  0.000
 -0.000 -0.114  0.667 -0.000  0.000
  0.000  0.000 -0.000  0.716 -0.000
 -0.164  0.000  0.000 -0.000  0.706
atomic mag. moment =     0.000002
atom    5   Tr[ns(na)] (up, down, total) =   3.57700  3.57700  7.15400
   spin  1
    eigenvalues: 
  0.553  0.589  0.716  0.781  0.937
    eigenvectors:
  0.000  0.334  0.000  0.000  0.666
  0.500  0.000  0.000  0.500  0.000
  0.500  0.000  0.000  0.500  0.000
  0.000  0.000  1.000  0.000  0.000
  0.000  0.666  0.000  0.000  0.334
    occupations:
  0.821 -0.000 -0.000  0.000  0.164
 -0.000  0.667  0.114  0.000  0.000
 -0.000  0.114  0.667  0.000  0.000
  0.000  0.000  0.000  0.716  0.000
  0.164  0.000  0.000  0.000  0.706
   spin  2
    eigenvalues: 
  0.553  0.589  0.716  0.781  0.937
    eigenvectors:
  0.000  0.334  0.000  0.000  0.666
  0.500  0.000  0.000  0.500  0.000
  0.500  0.000  0.000  0.500  0.000
  0.000  0.000  1.000  0.000  0.000
  0.000  0.666  0.000  0.000  0.334
    occupations:
  0.821 -0.000 -0.000  0.000  0.164
 -0.000  0.667  0.114  0.000  0.000
 -0.000  0.114  0.667  0.000  0.000
  0.000  0.000  0.000  0.716  0.000
  0.164  0.000  0.000  0.000  0.706
atomic mag. moment =     0.000001
atom    6   Tr[ns(na)] (up, down, total) =   3.57693  3.57693  7.15386
   spin  1
    eigenvalues: 
  0.553  0.589  0.716  0.781  0.937
    eigenvectors:
  0.000  0.334  0.000  0.000  0.666
  0.500  0.000  0.000  0.500  0.000
  0.500  0.000  0.000  0.500  0.000
  0.000  0.000  1.000  0.000  0.000
  0.000  0.666  0.000  0.000  0.334
    occupations:
  0.821  0.000 -0.000  0.000 -0.164
  0.000  0.667 -0.114  0.000  0.000
 -0.000 -0.114  0.667  0.000 -0.000
  0.000  0.000  0.000  0.716  0.000
 -0.164  0.000 -0.000  0.000  0.706
   spin  2
    eigenvalues: 
  0.553  0.589  0.716  0.781  0.937
    eigenvectors:
  0.000  0.334  0.000  0.000  0.666
  0.500  0.000  0.000  0.500  0.000
  0.500  0.000  0.000  0.500  0.000
  0.000  0.000  1.000  0.000  0.000
  0.000  0.666  0.000  0.000  0.334
    occupations:
  0.821  0.000 -0.000  0.000 -0.164
  0.000  0.667 -0.114  0.000  0.000
 -0.000 -0.114  0.667  0.000 -0.000
  0.000  0.000  0.000  0.716 -0.000
 -0.164  0.000 -0.000 -0.000  0.706
atomic mag. moment =     0.000001
atom    7   Tr[ns(na)] (up, down, total) =   3.57714  3.57714  7.15429
   spin  1
    eigenvalues: 
  0.553  0.589  0.716  0.781  0.937
    eigenvectors:
  0.000  0.334  0.000  0.000  0.666
  0.500  0.000  0.000  0.500  0.000
  0.500  0.000  0.000  0.500  0.000
  0.000  0.000  1.000  0.000  0.000
  0.000  0.666  0.000  0.000  0.334
    occupations:
  0.821 -0.000 -0.000  0.000  0.164
 -0.000  0.667  0.114  0.000  0.000
 -0.000  0.114  0.667  0.000  0.000
  0.000  0.000  0.000  0.716 -0.000
  0.164  0.000  0.000 -0.000  0.706
   spin  2
    eigenvalues: 
  0.553  0.589  0.716  0.781  0.937
    eigenvectors:
  0.000  0.334  0.000  0.000  0.666
  0.500  0.000  0.000  0.500  0.000
  0.500  0.000  0.000  0.500  0.000
  0.000  0.000  1.000  0.000  0.000
  0.000  0.666  0.000  0.000  0.334
    occupations:
  0.821 -0.000 -0.000  0.000  0.164
 -0.000  0.667  0.114  0.000  0.000
 -0.000  0.114  0.667  0.000  0.000
  0.000  0.000  0.000  0.716  0.000
  0.164  0.000  0.000  0.000  0.706
atomic mag. moment =    -0.000002
atom    8   Tr[ns(na)] (up, down, total) =   3.57693  3.57693  7.15386
   spin  1
    eigenvalues: 
  0.553  0.589  0.716  0.781  0.937
    eigenvectors:
  0.000  0.334  0.000  0.000  0.666
  0.500  0.000  0.000  0.500  0.000
  0.500  0.000  0.000  0.500  0.000
  0.000  0.000  1.000  0.000  0.000
  0.000  0.666  0.000  0.000  0.334
    occupations:
  0.821 -0.000  0.000  0.000 -0.164
 -0.000  0.667 -0.114 -0.000 -0.000
  0.000 -0.114  0.667 -0.000  0.000
  0.000 -0.000 -0.000  0.716  0.000
 -0.164 -0.000  0.000  0.000  0.706
   spin  2
    eigenvalues: 
  0.553  0.589  0.716  0.781  0.937
    eigenvectors:
  0.000  0.334  0.000  0.000  0.666
  0.500  0.000  0.000  0.500  0.000
  0.500  0.000  0.000  0.500  0.000
  0.000  0.000  1.000  0.000  0.000
  0.000  0.666  0.000  0.000  0.334
    occupations:
  0.821 -0.000  0.000  0.000 -0.164
 -0.000  0.667 -0.114 -0.000 -0.000
  0.000 -0.114  0.667 -0.000  0.000
  0.000 -0.000 -0.000  0.716 -0.000
 -0.164 -0.000  0.000 -0.000  0.706
atomic mag. moment =     0.000001
atom    9   Tr[ns(na)] (up, down, total) =   3.57700  3.57700  7.15400
   spin  1
    eigenvalues: 
  0.553  0.589  0.716  0.781  0.937
    eigenvectors:
  0.000  0.334  0.000  0.000  0.666
  0.500  0.000  0.000  0.500  0.000
  0.500  0.000  0.000  0.500  0.000
  0.000  0.000  1.000  0.000  0.000
  0.000  0.666  0.000  0.000  0.334
    occupations:
  0.821 -0.000 -0.000 -0.000  0.164
 -0.000  0.667  0.114  0.000  0.000
 -0.000  0.114  0.667  0.000  0.000
 -0.000  0.000  0.000  0.716 -0.000
  0.164  0.000  0.000 -0.000  0.706
   spin  2
    eigenvalues: 
  0.553  0.589  0.716  0.781  0.937
    eigenvectors:
  0.000  0.334  0.000  0.000  0.666
  0.500  0.000  0.000  0.500  0.000
  0.500  0.000  0.000  0.500  0.000
  0.000  0.000  1.000  0.000  0.000
  0.000  0.666  0.000  0.000  0.334
    occupations:
  0.821 -0.000 -0.000 -0.000  0.164
 -0.000  0.667  0.114  0.000  0.000
 -0.000  0.114  0.667  0.000  0.000
 -0.000  0.000  0.000  0.716 -0.000
  0.164  0.000  0.000 -0.000  0.706
atomic mag. moment =     0.000001
atom   10   Tr[ns(na)] (up, down, total) =   3.57693  3.57693  7.15386
   spin  1
    eigenvalues: 
  0.553  0.589  0.716  0.781  0.937
    eigenvectors:
  0.000  0.334  0.000  0.000  0.666
  0.500  0.000  0.000  0.500  0.000
  0.500  0.000  0.000  0.500  0.000
  0.000  0.000  1.000  0.000  0.000
  0.000  0.666  0.000  0.000  0.334
    occupations:
  0.821 -0.000  0.000 -0.000 -0.164
 -0.000  0.667 -0.114 -0.000 -0.000
  0.000 -0.114  0.667 -0.000  0.000
 -0.000 -0.000 -0.000  0.716 -0.000
 -0.164 -0.000  0.000 -0.000  0.706
   spin  2
    eigenvalues: 
  0.553  0.589  0.716  0.781  0.937
    eigenvectors:
  0.000  0.334  0.000  0.000  0.666
  0.500  0.000  0.000  0.500  0.000
  0.500  0.000  0.000  0.500  0.000
  0.000  0.000  1.000  0.000  0.000
  0.000  0.666  0.000  0.000  0.334
    occupations:
  0.821 -0.000  0.000 -0.000 -0.164
 -0.000  0.667 -0.114 -0.000 -0.000
  0.000 -0.114  0.667 -0.000  0.000
 -0.000 -0.000 -0.000  0.716  0.000
 -0.164 -0.000  0.000  0.000  0.706
atomic mag. moment =     0.000001
atom   11   Tr[ns(na)] (up, down, total) =   3.57714  3.57714  7.15429
   spin  1
    eigenvalues: 
  0.553  0.589  0.716  0.781  0.937
    eigenvectors:
  0.000  0.334  0.000  0.000  0.666
  0.500  0.000  0.000  0.500  0.000
  0.500  0.000  0.000  0.500  0.000
  0.000  0.000  1.000  0.000  0.000
  0.000  0.666  0.000  0.000  0.334
    occupations:
  0.821 -0.000 -0.000 -0.000  0.164
 -0.000  0.667  0.114  0.000  0.000
 -0.000  0.114  0.667  0.000  0.000
 -0.000  0.000  0.000  0.716  0.000
  0.164  0.000  0.000  0.000  0.706
   spin  2
    eigenvalues: 
  0.553  0.589  0.716  0.781  0.937
    eigenvectors:
  0.000  0.334  0.000  0.000  0.666
  0.500  0.000  0.000  0.500  0.000
  0.500  0.000  0.000  0.500  0.000
  0.000  0.000  1.000  0.000  0.000
  0.000  0.666  0.000  0.000  0.334
    occupations:
  0.821 -0.000 -0.000 -0.000  0.164
 -0.000  0.667  0.114  0.000  0.000
 -0.000  0.114  0.667  0.000  0.000
 -0.000  0.000  0.000  0.716 -0.000
  0.164  0.000  0.000 -0.000  0.706
atomic mag. moment =    -0.000002
atom   12   Tr[ns(na)] (up, down, total) =   3.57693  3.57693  7.15386
   spin  1
    eigenvalues: 
  0.553  0.589  0.716  0.781  0.937
    eigenvectors:
  0.000  0.334  0.000  0.000  0.666
  0.500  0.000  0.000  0.500  0.000
  0.500  0.000  0.000  0.500  0.000
  0.000  0.000  1.000  0.000  0.000
  0.000  0.666  0.000  0.000  0.334
    occupations:
  0.821  0.000 -0.000 -0.000 -0.164
  0.000  0.667 -0.114  0.000  0.000
 -0.000 -0.114  0.667  0.000 -0.000
 -0.000  0.000  0.000  0.716 -0.000
 -0.164  0.000 -0.000 -0.000  0.706
   spin  2
    eigenvalues: 
  0.553  0.589  0.716  0.781  0.937
    eigenvectors:
  0.000  0.334  0.000  0.000  0.666
  0.500  0.000  0.000  0.500  0.000
  0.500  0.000  0.000  0.500  0.000
  0.000  0.000  1.000  0.000  0.000
  0.000  0.666  0.000  0.000  0.334
    occupations:
  0.821  0.000 -0.000 -0.000 -0.164
  0.000  0.667 -0.114  0.000  0.000
 -0.000 -0.114  0.667  0.000 -0.000
 -0.000  0.000  0.000  0.716  0.000
 -0.164  0.000 -0.000  0.000  0.706
atomic mag. moment =     0.000001
atom   13   Tr[ns(na)] (up, down, total) =   3.57692  3.57692  7.15385
   spin  1
    eigenvalues: 
  0.553  0.589  0.716  0.781  0.937
    eigenvectors:
  0.000  0.334  0.000  0.000  0.666
  0.500  0.000  0.000  0.500  0.000
  0.500  0.000  0.000  0.500  0.000
  0.000  0.000  1.000  0.000  0.000
  0.000  0.666  0.000  0.000  0.334
    occupations:
  0.821 -0.000 -0.000 -0.000  0.164
 -0.000  0.667  0.114  0.000  0.000
 -0.000  0.114  0.667  0.000  0.000
 -0.000  0.000  0.000  0.716 -0.000
  0.164  0.000  0.000 -0.000  0.706
   spin  2
    eigenvalues: 
  0.553  0.589  0.716  0.781  0.937
    eigenvectors:
  0.000  0.334  0.000  0.000  0.666
  0.500  0.000  0.000  0.500  0.000
  0.500  0.000  0.000  0.500  0.000
  0.000  0.000  1.000  0.000  0.000
  0.000  0.666  0.000  0.000  0.334
    occupations:
  0.821 -0.000 -0.000 -0.000  0.164
 -0.000  0.667  0.114  0.000  0.000
 -0.000  0.114  0.667  0.000  0.000
 -0.000  0.000  0.000  0.716 -0.000
  0.164  0.000  0.000 -0.000  0.706
atomic mag. moment =    -0.000002
atom   14   Tr[ns(na)] (up, down, total) =   3.57703  3.57703  7.15406
   spin  1
    eigenvalues: 
  0.553  0.589  0.716  0.781  0.937
    eigenvectors:
  0.000  0.334  0.000  0.000  0.666
  0.500  0.000  0.000  0.500  0.000
  0.500  0.000  0.000  0.500  0.000
  0.000  0.000  1.000  0.000  0.000
  0.000  0.666  0.000  0.000  0.334
    occupations:
  0.821 -0.000 -0.000  0.000 -0.164
 -0.000  0.667 -0.114  0.000  0.000
 -0.000 -0.114  0.667 -0.000  0.000
  0.000  0.000 -0.000  0.716 -0.000
 -0.164  0.000  0.000 -0.000  0.706
   spin  2
    eigenvalues: 
  0.553  0.589  0.716  0.781  0.937
    eigenvectors:
  0.000  0.334  0.000  0.000  0.666
  0.500  0.000  0.000  0.500  0.000
  0.500  0.000  0.000  0.500  0.000
  0.000  0.000  1.000  0.000  0.000
  0.000  0.666  0.000  0.000  0.334
    occupations:
  0.821 -0.000 -0.000  0.000 -0.164
 -0.000  0.667 -0.114  0.000  0.000
 -0.000 -0.114  0.667 -0.000  0.000
  0.000  0.000 -0.000  0.716 -0.000
 -0.164  0.000  0.000 -0.000  0.706
atomic mag. moment =     0.000002
atom   15   Tr[ns(na)] (up, down, total) =   3.57695  3.57695  7.15390
   spin  1
    eigenvalues: 
  0.553  0.589  0.716  0.781  0.937
    eigenvectors:
  0.000  0.334  0.000  0.000  0.666
  0.500  0.000  0.000  0.500  0.000
  0.500  0.000  0.000  0.500  0.000
  0.000  0.000  1.000  0.000  0.000
  0.000  0.666  0.000  0.000  0.334
    occupations:
  0.821 -0.000 -0.000 -0.000  0.164
 -0.000  0.667  0.114  0.000  0.000
 -0.000  0.114  0.667  0.000  0.000
 -0.000  0.000  0.000  0.716 -0.000
  0.164  0.000  0.000 -0.000  0.706
   spin  2
    eigenvalues: 
  0.553  0.589  0.716  0.781  0.937
    eigenvectors:
  0.000  0.334  0.000  0.000  0.666
  0.500  0.000  0.000  0.500  0.000
  0.500  0.000  0.000  0.500  0.000
  0.000  0.000  1.000  0.000  0.000
  0.000  0.666  0.000  0.000  0.334
    occupations:
  0.821 -0.000 -0.000 -0.000  0.164
 -0.000  0.667  0.114  0.000  0.000
 -0.000  0.114  0.667  0.000  0.000
 -0.000  0.000  0.000  0.716 -0.000
  0.164  0.000  0.000 -0.000  0.706
atomic mag. moment =     0.000000
atom   16   Tr[ns(na)] (up, down, total) =   3.57703  3.57703  7.15406
   spin  1
    eigenvalues: 
  0.553  0.589  0.716  0.781  0.937
    eigenvectors:
  0.000  0.334  0.000  0.000  0.666
  0.500  0.000  0.000  0.500  0.000
  0.500  0.000  0.000  0.500  0.000
  0.000  0.000  1.000  0.000  0.000
  0.000  0.666  0.000  0.000  0.334
    occupations:
  0.821  0.000  0.000  0.000 -0.164
  0.000  0.667 -0.114 -0.000 -0.000
  0.000 -0.114  0.667  0.000 -0.000
  0.000 -0.000  0.000  0.716 -0.000
 -0.164 -0.000 -0.000 -0.000  0.706
   spin  2
    eigenvalues: 
  0.553  0.589  0.716  0.781  0.937
    eigenvectors:
  0.000  0.334  0.000  0.000  0.666
  0.500  0.000  0.000  0.500  0.000
  0.500  0.000  0.000  0.500  0.000
  0.000  0.000  1.000  0.000  0.000
  0.000  0.666  0.000  0.000  0.334
    occupations:
  0.821  0.000  0.000  0.000 -0.164
  0.000  0.667 -0.114 -0.000 -0.000
  0.000 -0.114  0.667  0.000 -0.000
  0.000 -0.000  0.000  0.716 -0.000
 -0.164 -0.000 -0.000 -0.000  0.706
atomic mag. moment =     0.000002
atom   17   Tr[ns(na)] (up, down, total) =   2.65808  2.65808  5.31616
   spin  1
    eigenvalues: 
  0.878  0.886  0.894
    eigenvectors:
  0.000  0.000  1.000
  0.500  0.500  0.000
  0.500  0.500  0.000
    occupations:
  0.894 -0.000 -0.000
 -0.000  0.882  0.004
 -0.000  0.004  0.882
   spin  2
    eigenvalues: 
  0.878  0.886  0.894
    eigenvectors:
  0.000  0.000  1.000
  0.500  0.500  0.000
  0.500  0.500  0.000
    occupations:
  0.894 -0.000 -0.000
 -0.000  0.882  0.004
 -0.000  0.004  0.882
atomic mag. moment =     0.000000
atom   18   Tr[ns(na)] (up, down, total) =   2.65809  2.65809  5.31618
   spin  1
    eigenvalues: 
  0.878  0.886  0.894
    eigenvectors:
  0.000  0.000  1.000
  0.500  0.500  0.000
  0.500  0.500  0.000
    occupations:
  0.894 -0.000 -0.000
 -0.000  0.882  0.004
 -0.000  0.004  0.882
   spin  2
    eigenvalues: 
  0.878  0.886  0.894
    eigenvectors:
  0.000  0.000  1.000
  0.500  0.500  0.000
  0.500  0.500  0.000
    occupations:
  0.894 -0.000 -0.000
 -0.000  0.882  0.004
 -0.000  0.004  0.882
atomic mag. moment =     0.000000
atom   19   Tr[ns(na)] (up, down, total) =   2.65809  2.65809  5.31618
   spin  1
    eigenvalues: 
  0.878  0.886  0.894
    eigenvectors:
  0.000  0.000  1.000
  0.500  0.500  0.000
  0.500  0.500  0.000
    occupations:
  0.894  0.000 -0.000
  0.000  0.882 -0.004
 -0.000 -0.004  0.882
   spin  2
    eigenvalues: 
  0.878  0.886  0.894
    eigenvectors:
  0.000  0.000  1.000
  0.500  0.500  0.000
  0.500  0.500  0.000
    occupations:
  0.894  0.000 -0.000
  0.000  0.882 -0.004
 -0.000 -0.004  0.882
atomic mag. moment =    -0.000000
atom   20   Tr[ns(na)] (up, down, total) =   2.65809  2.65809  5.31618
   spin  1
    eigenvalues: 
  0.878  0.886  0.894
    eigenvectors:
  0.000  0.000  1.000
  0.500  0.500  0.000
  0.500  0.500  0.000
    occupations:
  0.894 -0.000  0.000
 -0.000  0.882 -0.004
  0.000 -0.004  0.882
   spin  2
    eigenvalues: 
  0.878  0.886  0.894
    eigenvectors:
  0.000  0.000  1.000
  0.500  0.500  0.000
  0.500  0.500  0.000
    occupations:
  0.894 -0.000  0.000
 -0.000  0.882 -0.004
  0.000 -0.004  0.882
atomic mag. moment =    -0.000000
atom   21   Tr[ns(na)] (up, down, total) =   2.65808  2.65808  5.31617
   spin  1
    eigenvalues: 
  0.878  0.886  0.894
    eigenvectors:
  0.000  0.000  1.000
  0.500  0.500  0.000
  0.500  0.500  0.000
    occupations:
  0.894 -0.000 -0.000
 -0.000  0.882  0.004
 -0.000  0.004  0.882
   spin  2
    eigenvalues: 
  0.878  0.886  0.894
    eigenvectors:
  0.000  0.000  1.000
  0.500  0.500  0.000
  0.500  0.500  0.000
    occupations:
  0.894 -0.000 -0.000
 -0.000  0.882  0.004
 -0.000  0.004  0.882
atomic mag. moment =    -0.000000
atom   22   Tr[ns(na)] (up, down, total) =   2.65809  2.65809  5.31617
   spin  1
    eigenvalues: 
  0.878  0.886  0.894
    eigenvectors:
  0.000  0.000  1.000
  0.500  0.500  0.000
  0.500  0.500  0.000
    occupations:
  0.894 -0.000 -0.000
 -0.000  0.882  0.004
 -0.000  0.004  0.882
   spin  2
    eigenvalues: 
  0.878  0.886  0.894
    eigenvectors:
  0.000  0.000  1.000
  0.500  0.500  0.000
  0.500  0.500  0.000
    occupations:
  0.894 -0.000 -0.000
 -0.000  0.882  0.004
 -0.000  0.004  0.882
atomic mag. moment =     0.000000
atom   23   Tr[ns(na)] (up, down, total) =   2.65809  2.65809  5.31618
   spin  1
    eigenvalues: 
  0.878  0.886  0.894
    eigenvectors:
  0.000  0.000  1.000
  0.500  0.500  0.000
  0.500  0.500  0.000
    occupations:
  0.894 -0.000  0.000
 -0.000  0.882 -0.004
  0.000 -0.004  0.882
   spin  2
    eigenvalues: 
  0.878  0.886  0.894
    eigenvectors:
  0.000  0.000  1.000
  0.500  0.500  0.000
  0.500  0.500  0.000
    occupations:
  0.894 -0.000  0.000
 -0.000  0.882 -0.004
  0.000 -0.004  0.882
atomic mag. moment =    -0.000000
atom   24   Tr[ns(na)] (up, down, total) =   2.65809  2.65809  5.31618
   spin  1
    eigenvalues: 
  0.878  0.886  0.894
    eigenvectors:
  0.000  0.000  1.000
  0.500  0.500  0.000
  0.500  0.500  0.000
    occupations:
  0.894  0.000 -0.000
  0.000  0.882 -0.004
 -0.000 -0.004  0.882
   spin  2
    eigenvalues: 
  0.878  0.886  0.894
    eigenvectors:
  0.000  0.000  1.000
  0.500  0.500  0.000
  0.500  0.500  0.000
    occupations:
  0.894  0.000 -0.000
  0.000  0.882 -0.004
 -0.000 -0.004  0.882
atomic mag. moment =    -0.000000
atom   25   Tr[ns(na)] (up, down, total) =   2.65809  2.65809  5.31618
   spin  1
    eigenvalues: 
  0.878  0.886  0.894
    eigenvectors:
  0.000  0.000  1.000
  0.500  0.500  0.000
  0.500  0.500  0.000
    occupations:
  0.894 -0.000 -0.000
 -0.000  0.882  0.004
 -0.000  0.004  0.882
   spin  2
    eigenvalues: 
  0.878  0.886  0.894
    eigenvectors:
  0.000  0.000  1.000
  0.500  0.500  0.000
  0.500  0.500  0.000
    occupations:
  0.894 -0.000 -0.000
 -0.000  0.882  0.004
 -0.000  0.004  0.882
atomic mag. moment =     0.000000
atom   26   Tr[ns(na)] (up, down, total) =   2.65806  2.65806  5.31612
   spin  1
    eigenvalues: 
  0.878  0.886  0.894
    eigenvectors:
  0.000  0.000  1.000
  0.500  0.500  0.000
  0.500  0.500  0.000
    occupations:
  0.894 -0.000 -0.000
 -0.000  0.882  0.004
 -0.000  0.004  0.882
   spin  2
    eigenvalues: 
  0.878  0.886  0.894
    eigenvectors:
  0.000  0.000  1.000
  0.500  0.500  0.000
  0.500  0.500  0.000
    occupations:
  0.894 -0.000 -0.000
 -0.000  0.882  0.004
 -0.000  0.004  0.882
atomic mag. moment =     0.000000
atom   27   Tr[ns(na)] (up, down, total) =   2.65806  2.65806  5.31613
   spin  1
    eigenvalues: 
  0.878  0.886  0.894
    eigenvectors:
  0.000  0.000  1.000
  0.500  0.500  0.000
  0.500  0.500  0.000
    occupations:
  0.894  0.000 -0.000
  0.000  0.882 -0.004
 -0.000 -0.004  0.882
   spin  2
    eigenvalues: 
  0.878  0.886  0.894
    eigenvectors:
  0.000  0.000  1.000
  0.500  0.500  0.000
  0.500  0.500  0.000
    occupations:
  0.894  0.000 -0.000
  0.000  0.882 -0.004
 -0.000 -0.004  0.882
atomic mag. moment =    -0.000000
atom   28   Tr[ns(na)] (up, down, total) =   2.65809  2.65809  5.31617
   spin  1
    eigenvalues: 
  0.878  0.886  0.894
    eigenvectors:
  0.000  0.000  1.000
  0.500  0.500  0.000
  0.500  0.500  0.000
    occupations:
  0.894 -0.000  0.000
 -0.000  0.882 -0.004
  0.000 -0.004  0.882
   spin  2
    eigenvalues: 
  0.878  0.886  0.894
    eigenvectors:
  0.000  0.000  1.000
  0.500  0.500  0.000
  0.500  0.500  0.000
    occupations:
  0.894 -0.000  0.000
 -0.000  0.882 -0.004
  0.000 -0.004  0.882
atomic mag. moment =    -0.000000
atom   29   Tr[ns(na)] (up, down, total) =   2.65809  2.65809  5.31617
   spin  1
    eigenvalues: 
  0.878  0.886  0.894
    eigenvectors:
  0.000  0.000  1.000
  0.500  0.500  0.000
  0.500  0.500  0.000
    occupations:
  0.894 -0.000 -0.000
 -0.000  0.882  0.004
 -0.000  0.004  0.882
   spin  2
    eigenvalues: 
  0.878  0.886  0.894
    eigenvectors:
  0.000  0.000  1.000
  0.500  0.500  0.000
  0.500  0.500  0.000
    occupations:
  0.894 -0.000 -0.000
 -0.000  0.882  0.004
 -0.000  0.004  0.882
atomic mag. moment =     0.000000
atom   30   Tr[ns(na)] (up, down, total) =   2.65806  2.65806  5.31611
   spin  1
    eigenvalues: 
  0.878  0.886  0.894
    eigenvectors:
  0.000  0.000  1.000
  0.500  0.500  0.000
  0.500  0.500  0.000
    occupations:
  0.894 -0.000 -0.000
 -0.000  0.882  0.004
 -0.000  0.004  0.882
   spin  2
    eigenvalues: 
  0.878  0.886  0.894
    eigenvectors:
  0.000  0.000  1.000
  0.500  0.500  0.000
  0.500  0.500  0.000
    occupations:
  0.894 -0.000 -0.000
 -0.000  0.882  0.004
 -0.000  0.004  0.882
atomic mag. moment =     0.000000
atom   31   Tr[ns(na)] (up, down, total) =   2.65806  2.65806  5.31613
   spin  1
    eigenvalues: 
  0.878  0.886  0.894
    eigenvectors:
  0.000  0.000  1.000
  0.500  0.500  0.000
  0.500  0.500  0.000
    occupations:
  0.894 -0.000  0.000
 -0.000  0.882 -0.004
  0.000 -0.004  0.882
   spin  2
    eigenvalues: 
  0.878  0.886  0.894
    eigenvectors:
  0.000  0.000  1.000
  0.500  0.500  0.000
  0.500  0.500  0.000
    occupations:
  0.894 -0.000  0.000
 -0.000  0.882 -0.004
  0.000 -0.004  0.882
atomic mag. moment =    -0.000000
atom   32   Tr[ns(na)] (up, down, total) =   2.65809  2.65809  5.31617
   spin  1
    eigenvalues: 
  0.878  0.886  0.894
    eigenvectors:
  0.000  0.000  1.000
  0.500  0.500  0.000
  0.500  0.500  0.000
    occupations:
  0.894  0.000 -0.000
  0.000  0.882 -0.004
 -0.000 -0.004  0.882
   spin  2
    eigenvalues: 
  0.878  0.886  0.894
    eigenvectors:
  0.000  0.000  1.000
  0.500  0.500  0.000
  0.500  0.500  0.000
    occupations:
  0.894  0.000 -0.000
  0.000  0.882 -0.004
 -0.000 -0.004  0.882
atomic mag. moment =    -0.000000
atom   33   Tr[ns(na)] (up, down, total) =   2.65809  2.65809  5.31618
   spin  1
    eigenvalues: 
  0.878  0.886  0.894
    eigenvectors:
  0.000  0.000  1.000
  0.500  0.500  0.000
  0.500  0.500  0.000
    occupations:
  0.894 -0.000 -0.000
 -0.000  0.882  0.004
 -0.000  0.004  0.882
   spin  2
    eigenvalues: 
  0.878  0.886  0.894
    eigenvectors:
  0.000  0.000  1.000
  0.500  0.500  0.000
  0.500  0.500  0.000
    occupations:
  0.894 -0.000 -0.000
 -0.000  0.882  0.004
 -0.000  0.004  0.882
atomic mag. moment =     0.000000
atom   34   Tr[ns(na)] (up, down, total) =   2.65806  2.65806  5.31612
   spin  1
    eigenvalues: 
  0.878  0.886  0.894
    eigenvectors:
  0.000  0.000  1.000
  0.500  0.500  0.000
  0.500  0.500  0.000
    occupations:
  0.894 -0.000 -0.000
 -0.000  0.882  0.004
 -0.000  0.004  0.882
   spin  2
    eigenvalues: 
  0.878  0.886  0.894
    eigenvectors:
  0.000  0.000  1.000
  0.500  0.500  0.000
  0.500  0.500  0.000
    occupations:
  0.894 -0.000 -0.000
 -0.000  0.882  0.004
 -0.000  0.004  0.882
atomic mag. moment =     0.000000
atom   35   Tr[ns(na)] (up, down, total) =   2.65809  2.65809  5.31617
   spin  1
    eigenvalues: 
  0.878  0.886  0.894
    eigenvectors:
  0.000  0.000  1.000
  0.500  0.500  0.000
  0.500  0.500  0.000
    occupations:
  0.894  0.000 -0.000
  0.000  0.882 -0.004
 -0.000 -0.004  0.882
   spin  2
    eigenvalues: 
  0.878  0.886  0.894
    eigenvectors:
  0.000  0.000  1.000
  0.500  0.500  0.000
  0.500  0.500  0.000
    occupations:
  0.894  0.000 -0.000
  0.000  0.882 -0.004
 -0.000 -0.004  0.882
atomic mag. moment =    -0.000000
atom   36   Tr[ns(na)] (up, down, total) =   2.65806  2.65806  5.31613
   spin  1
    eigenvalues: 
  0.878  0.886  0.894
    eigenvectors:
  0.000  0.000  1.000
  0.500  0.500  0.000
  0.500  0.500  0.000
    occupations:
  0.894 -0.000  0.000
 -0.000  0.882 -0.004
  0.000 -0.004  0.882
   spin  2
    eigenvalues: 
  0.878  0.886  0.894
    eigenvectors:
  0.000  0.000  1.000
  0.500  0.500  0.000
  0.500  0.500  0.000
    occupations:
  0.894 -0.000  0.000
 -0.000  0.882 -0.004
  0.000 -0.004  0.882
atomic mag. moment =    -0.000000
atom   37   Tr[ns(na)] (up, down, total) =   2.65809  2.65809  5.31617
   spin  1
    eigenvalues: 
  0.878  0.886  0.894
    eigenvectors:
  0.000  0.000  1.000
  0.500  0.500  0.000
  0.500  0.500  0.000
    occupations:
  0.894 -0.000 -0.000
 -0.000  0.882  0.004
 -0.000  0.004  0.882
   spin  2
    eigenvalues: 
  0.878  0.886  0.894
    eigenvectors:
  0.000  0.000  1.000
  0.500  0.500  0.000
  0.500  0.500  0.000
    occupations:
  0.894 -0.000 -0.000
 -0.000  0.882  0.004
 -0.000  0.004  0.882
atomic mag. moment =     0.000000
atom   38   Tr[ns(na)] (up, down, total) =   2.65806  2.65806  5.31611
   spin  1
    eigenvalues: 
  0.878  0.886  0.894
    eigenvectors:
  0.000  0.000  1.000
  0.500  0.500  0.000
  0.500  0.500  0.000
    occupations:
  0.894 -0.000 -0.000
 -0.000  0.882  0.004
 -0.000  0.004  0.882
   spin  2
    eigenvalues: 
  0.878  0.886  0.894
    eigenvectors:
  0.000  0.000  1.000
  0.500  0.500  0.000
  0.500  0.500  0.000
    occupations:
  0.894 -0.000 -0.000
 -0.000  0.882  0.004
 -0.000  0.004  0.882
atomic mag. moment =     0.000000
atom   39   Tr[ns(na)] (up, down, total) =   2.65809  2.65809  5.31617
   spin  1
    eigenvalues: 
  0.878  0.886  0.894
    eigenvectors:
  0.000  0.000  1.000
  0.500  0.500  0.000
  0.500  0.500  0.000
    occupations:
  0.894 -0.000  0.000
 -0.000  0.882 -0.004
  0.000 -0.004  0.882
   spin  2
    eigenvalues: 
  0.878  0.886  0.894
    eigenvectors:
  0.000  0.000  1.000
  0.500  0.500  0.000
  0.500  0.500  0.000
    occupations:
  0.894 -0.000  0.000
 -0.000  0.882 -0.004
  0.000 -0.004  0.882
atomic mag. moment =    -0.000000
atom   40   Tr[ns(na)] (up, down, total) =   2.65806  2.65806  5.31613
   spin  1
    eigenvalues: 
  0.878  0.886  0.894
    eigenvectors:
  0.000  0.000  1.000
  0.500  0.500  0.000
  0.500  0.500  0.000
    occupations:
  0.894  0.000 -0.000
  0.000  0.882 -0.004
 -0.000 -0.004  0.882
   spin  2
    eigenvalues: 
  0.878  0.886  0.894
    eigenvectors:
  0.000  0.000  1.000
  0.500  0.500  0.000
  0.500  0.500  0.000
    occupations:
  0.894  0.000 -0.000
  0.000  0.882 -0.004
 -0.000 -0.004  0.882
atomic mag. moment =    -0.000000
atom   41   Tr[ns(na)] (up, down, total) =   2.65807  2.65807  5.31615
   spin  1
    eigenvalues: 
  0.878  0.886  0.894
    eigenvectors:
  0.000  0.000  1.000
  0.500  0.500  0.000
  0.500  0.500  0.000
    occupations:
  0.894 -0.000 -0.000
 -0.000  0.882  0.004
 -0.000  0.004  0.882
   spin  2
    eigenvalues: 
  0.878  0.886  0.894
    eigenvectors:
  0.000  0.000  1.000
  0.500  0.500  0.000
  0.500  0.500  0.000
    occupations:
  0.894 -0.000 -0.000
 -0.000  0.882  0.004
 -0.000  0.004  0.882
atomic mag. moment =     0.000000
atom   42   Tr[ns(na)] (up, down, total) =   2.65809  2.65809  5.31617
   spin  1
    eigenvalues: 
  0.878  0.886  0.894
    eigenvectors:
  0.000  0.000  1.000
  0.500  0.500  0.000
  0.500  0.500  0.000
    occupations:
  0.894 -0.000 -0.000
 -0.000  0.882  0.004
 -0.000  0.004  0.882
   spin  2
    eigenvalues: 
  0.878  0.886  0.894
    eigenvectors:
  0.000  0.000  1.000
  0.500  0.500  0.000
  0.500  0.500  0.000
    occupations:
  0.894 -0.000 -0.000
 -0.000  0.882  0.004
 -0.000  0.004  0.882
atomic mag. moment =     0.000000
atom   43   Tr[ns(na)] (up, down, total) =   2.65809  2.65809  5.31618
   spin  1
    eigenvalues: 
  0.878  0.886  0.894
    eigenvectors:
  0.000  0.000  1.000
  0.500  0.500  0.000
  0.500  0.500  0.000
    occupations:
  0.894  0.000 -0.000
  0.000  0.882 -0.004
 -0.000 -0.004  0.882
   spin  2
    eigenvalues: 
  0.878  0.886  0.894
    eigenvectors:
  0.000  0.000  1.000
  0.500  0.500  0.000
  0.500  0.500  0.000
    occupations:
  0.894  0.000 -0.000
  0.000  0.882 -0.004
 -0.000 -0.004  0.882
atomic mag. moment =     0.000000
atom   44   Tr[ns(na)] (up, down, total) =   2.65809  2.65809  5.31618
   spin  1
    eigenvalues: 
  0.878  0.886  0.894
    eigenvectors:
  0.000  0.000  1.000
  0.500  0.500  0.000
  0.500  0.500  0.000
    occupations:
  0.894 -0.000  0.000
 -0.000  0.882 -0.004
  0.000 -0.004  0.882
   spin  2
    eigenvalues: 
  0.878  0.886  0.894
    eigenvectors:
  0.000  0.000  1.000
  0.500  0.500  0.000
  0.500  0.500  0.000
    occupations:
  0.894 -0.000  0.000
 -0.000  0.882 -0.004
  0.000 -0.004  0.882
atomic mag. moment =     0.000000
atom   45   Tr[ns(na)] (up, down, total) =   2.65808  2.65808  5.31615
   spin  1
    eigenvalues: 
  0.878  0.886  0.894
    eigenvectors:
  0.000  0.000  1.000
  0.500  0.500  0.000
  0.500  0.500  0.000
    occupations:
  0.894 -0.000 -0.000
 -0.000  0.882  0.004
 -0.000  0.004  0.882
   spin  2
    eigenvalues: 
  0.878  0.886  0.894
    eigenvectors:
  0.000  0.000  1.000
  0.500  0.500  0.000
  0.500  0.500  0.000
    occupations:
  0.894 -0.000 -0.000
 -0.000  0.882  0.004
 -0.000  0.004  0.882
atomic mag. moment =     0.000000
atom   46   Tr[ns(na)] (up, down, total) =   2.65809  2.65809  5.31618
   spin  1
    eigenvalues: 
  0.878  0.886  0.894
    eigenvectors:
  0.000  0.000  1.000
  0.500  0.500  0.000
  0.500  0.500  0.000
    occupations:
  0.894 -0.000 -0.000
 -0.000  0.882  0.004
 -0.000  0.004  0.882
   spin  2
    eigenvalues: 
  0.878  0.886  0.894
    eigenvectors:
  0.000  0.000  1.000
  0.500  0.500  0.000
  0.500  0.500  0.000
    occupations:
  0.894 -0.000 -0.000
 -0.000  0.882  0.004
 -0.000  0.004  0.882
atomic mag. moment =     0.000000
atom   47   Tr[ns(na)] (up, down, total) =   2.65809  2.65809  5.31618
   spin  1
    eigenvalues: 
  0.878  0.886  0.894
    eigenvectors:
  0.000  0.000  1.000
  0.500  0.500  0.000
  0.500  0.500  0.000
    occupations:
  0.894 -0.000  0.000
 -0.000  0.882 -0.004
  0.000 -0.004  0.882
   spin  2
    eigenvalues: 
  0.878  0.886  0.894
    eigenvectors:
  0.000  0.000  1.000
  0.500  0.500  0.000
  0.500  0.500  0.000
    occupations:
  0.894 -0.000  0.000
 -0.000  0.882 -0.004
  0.000 -0.004  0.882
atomic mag. moment =     0.000000
atom   48   Tr[ns(na)] (up, down, total) =   2.65809  2.65809  5.31618
   spin  1
    eigenvalues: 
  0.878  0.886  0.894
    eigenvectors:
  0.000  0.000  1.000
  0.500  0.500  0.000
  0.500  0.500  0.000
    occupations:
  0.894  0.000 -0.000
  0.000  0.882 -0.004
 -0.000 -0.004  0.882
   spin  2
    eigenvalues: 
  0.878  0.886  0.894
    eigenvectors:
  0.000  0.000  1.000
  0.500  0.500  0.000
  0.500  0.500  0.000
    occupations:
  0.894  0.000 -0.000
  0.000  0.882 -0.004
 -0.000 -0.004  0.882
atomic mag. moment =     0.000000
N of occupied +U levels = 284.5817261
 --- exit write_ns ---
 Atomic wfc used for LDA+U Projector are NOT orthogonalized
     Starting wfc from file

     total cpu time spent up to now is       87.5 secs

     per-process dynamical memory:    98.5 Mb

     Self-consistent Calculation

     iteration #  1     ecut=    40.00 Ry     beta=0.70
     Davidson diagonalization with overlap
     ethr =  3.78E-10,  avg # of iterations =  6.9
 --- enter write_ns ---
 LDA+U parameters:
U( 1)     =  0.00000000
alpha( 1) =  0.00000000
U( 2)     =  0.00000000
alpha( 2) =  0.15000000
U( 3)     =  0.00000000
alpha( 3) =  0.00000000
atom    1   Tr[ns(na)] (up, down, total) =   3.58003  3.58003  7.16006
   spin  1
    eigenvalues: 
  0.553  0.591  0.717  0.781  0.938
    eigenvectors:
  0.000  0.334  0.000  0.000  0.666
  0.500  0.000  0.000  0.500  0.000
  0.500  0.000  0.000  0.500  0.000
  0.000  0.000  1.000  0.000  0.000
  0.000  0.666  0.000  0.000  0.334
    occupations:
  0.822 -0.000 -0.000 -0.000  0.164
 -0.000  0.667  0.114  0.000  0.000
 -0.000  0.114  0.667  0.000  0.000
 -0.000  0.000  0.000  0.717 -0.000
  0.164  0.000  0.000 -0.000  0.707
   spin  2
    eigenvalues: 
  0.553  0.591  0.717  0.781  0.938
    eigenvectors:
  0.000  0.334  0.000  0.000  0.666
  0.500  0.000  0.000  0.500  0.000
  0.500  0.000  0.000  0.500  0.000
  0.000  0.000  1.000  0.000  0.000
  0.000  0.666  0.000  0.000  0.334
    occupations:
  0.822 -0.000 -0.000 -0.000  0.164
 -0.000  0.667  0.114  0.000  0.000
 -0.000  0.114  0.667  0.000  0.000
 -0.000  0.000  0.000  0.717 -0.000
  0.164  0.000  0.000 -0.000  0.707
atomic mag. moment =    -0.000002
atom    2   Tr[ns(na)] (up, down, total) =   3.57770  3.57770  7.15539
   spin  1
    eigenvalues: 
  0.554  0.590  0.716  0.781  0.936
    eigenvectors:
  0.000  0.334  0.000  0.000  0.666
  0.500  0.000  0.000  0.500  0.000
  0.500  0.000  0.000  0.500  0.000
  0.000  0.000  1.000  0.000  0.000
  0.000  0.666  0.000  0.000  0.334
    occupations:
  0.820 -0.000 -0.000  0.000 -0.163
 -0.000  0.668 -0.113 -0.000 -0.000
 -0.000 -0.113  0.668  0.000 -0.000
  0.000 -0.000  0.000  0.716 -0.000
 -0.163 -0.000 -0.000 -0.000  0.705
   spin  2
    eigenvalues: 
  0.554  0.590  0.716  0.781  0.936
    eigenvectors:
  0.000  0.334  0.000  0.000  0.666
  0.500  0.000  0.000  0.500  0.000
  0.500  0.000  0.000  0.500  0.000
  0.000  0.000  1.000  0.000  0.000
  0.000  0.666  0.000  0.000  0.334
    occupations:
  0.820 -0.000 -0.000  0.000 -0.163
 -0.000  0.668 -0.113 -0.000 -0.000
 -0.000 -0.113  0.668  0.000 -0.000
  0.000 -0.000  0.000  0.716 -0.000
 -0.163 -0.000 -0.000 -0.000  0.705
atomic mag. moment =     0.000001
atom    3   Tr[ns(na)] (up, down, total) =   3.57095  3.57095  7.14189
   spin  1
    eigenvalues: 
  0.553  0.589  0.714  0.779  0.936
    eigenvectors:
  0.000  0.334  0.000  0.000  0.666
  0.500  0.000  0.000  0.500  0.000
  0.500  0.000  0.000  0.500  0.000
  0.000  0.000  1.000  0.000  0.000
  0.000  0.666  0.000  0.000  0.334
    occupations:
  0.820 -0.000 -0.000 -0.000  0.164
 -0.000  0.666  0.113  0.000  0.000
 -0.000  0.113  0.666  0.000  0.000
 -0.000  0.000  0.000  0.714 -0.000
  0.164  0.000  0.000 -0.000  0.705
   spin  2
    eigenvalues: 
  0.553  0.589  0.714  0.779  0.936
    eigenvectors:
  0.000  0.334  0.000  0.000  0.666
  0.500  0.000  0.000  0.500  0.000
  0.500  0.000  0.000  0.500  0.000
  0.000  0.000  1.000  0.000  0.000
  0.000  0.666  0.000  0.000  0.334
    occupations:
  0.820 -0.000 -0.000 -0.000  0.164
 -0.000  0.666  0.113  0.000  0.000
 -0.000  0.113  0.666  0.000  0.000
 -0.000  0.000  0.000  0.714 -0.000
  0.164  0.000  0.000 -0.000  0.705
atomic mag. moment =    -0.000000
atom    4   Tr[ns(na)] (up, down, total) =   3.57770  3.57770  7.15539
   spin  1
    eigenvalues: 
  0.554  0.590  0.716  0.781  0.936
    eigenvectors:
  0.000  0.334  0.000  0.000  0.666
  0.500  0.000  0.000  0.500  0.000
  0.500  0.000  0.000  0.500  0.000
  0.000  0.000  1.000  0.000  0.000
  0.000  0.666  0.000  0.000  0.334
    occupations:
  0.820  0.000  0.000  0.000 -0.163
  0.000  0.668 -0.113  0.000  0.000
  0.000 -0.113  0.668 -0.000  0.000
  0.000  0.000 -0.000  0.716 -0.000
 -0.163  0.000  0.000 -0.000  0.705
   spin  2
    eigenvalues: 
  0.554  0.590  0.716  0.781  0.936
    eigenvectors:
  0.000  0.334  0.000  0.000  0.666
  0.500  0.000  0.000  0.500  0.000
  0.500  0.000  0.000  0.500  0.000
  0.000  0.000  1.000  0.000  0.000
  0.000  0.666  0.000  0.000  0.334
    occupations:
  0.820  0.000  0.000  0.000 -0.163
  0.000  0.668 -0.113  0.000  0.000
  0.000 -0.113  0.668 -0.000  0.000
  0.000  0.000 -0.000  0.716 -0.000
 -0.163  0.000  0.000 -0.000  0.705
atomic mag. moment =     0.000001
atom    5   Tr[ns(na)] (up, down, total) =   3.57777  3.57777  7.15554
   spin  1
    eigenvalues: 
  0.553  0.589  0.716  0.781  0.938
    eigenvectors:
  0.000  0.334  0.000  0.000  0.666
  0.500  0.000  0.000  0.500  0.000
  0.500  0.000  0.000  0.500  0.000
  0.000  0.000  1.000  0.000  0.000
  0.000  0.666  0.000  0.000  0.334
    occupations:
  0.821 -0.000 -0.000 -0.000  0.164
 -0.000  0.667  0.114  0.000  0.000
 -0.000  0.114  0.667  0.000  0.000
 -0.000  0.000  0.000  0.716  0.000
  0.164  0.000  0.000  0.000  0.706
   spin  2
    eigenvalues: 
  0.553  0.589  0.716  0.781  0.938
    eigenvectors:
  0.000  0.334  0.000  0.000  0.666
  0.500  0.000  0.000  0.500  0.000
  0.500  0.000  0.000  0.500  0.000
  0.000  0.000  1.000  0.000  0.000
  0.000  0.666  0.000  0.000  0.334
    occupations:
  0.821 -0.000 -0.000 -0.000  0.164
 -0.000  0.667  0.114  0.000  0.000
 -0.000  0.114  0.667  0.000  0.000
 -0.000  0.000  0.000  0.716  0.000
  0.164  0.000  0.000  0.000  0.706
atomic mag. moment =     0.000001
atom    6   Tr[ns(na)] (up, down, total) =   3.57948  3.57948  7.15896
   spin  1
    eigenvalues: 
  0.553  0.589  0.717  0.781  0.938
    eigenvectors:
  0.000  0.334  0.000  0.000  0.666
  0.500  0.000  0.000  0.500  0.000
  0.500  0.000  0.000  0.500  0.000
  0.000  0.000  1.000  0.000  0.000
  0.000  0.666  0.000  0.000  0.334
    occupations:
  0.822 -0.000  0.000 -0.000 -0.165
 -0.000  0.667 -0.114 -0.000 -0.000
  0.000 -0.114  0.667  0.000  0.000
 -0.000 -0.000  0.000  0.717 -0.000
 -0.165 -0.000  0.000 -0.000  0.706
   spin  2
    eigenvalues: 
  0.553  0.589  0.717  0.781  0.938
    eigenvectors:
  0.000  0.334  0.000  0.000  0.666
  0.500  0.000  0.000  0.500  0.000
  0.500  0.000  0.000  0.500  0.000
  0.000  0.000  1.000  0.000  0.000
  0.000  0.666  0.000  0.000  0.334
    occupations:
  0.822 -0.000  0.000 -0.000 -0.165
 -0.000  0.667 -0.114 -0.000 -0.000
  0.000 -0.114  0.667  0.000  0.000
 -0.000 -0.000  0.000  0.717 -0.000
 -0.165 -0.000  0.000 -0.000  0.706
atomic mag. moment =     0.000001
atom    7   Tr[ns(na)] (up, down, total) =   3.57494  3.57494  7.14987
   spin  1
    eigenvalues: 
  0.553  0.589  0.715  0.781  0.937
    eigenvectors:
  0.000  0.334  0.000  0.000  0.666
  0.500  0.000  0.000  0.500  0.000
  0.500  0.000  0.000  0.500  0.000
  0.000  0.000  1.000  0.000  0.000
  0.000  0.666  0.000  0.000  0.334
    occupations:
  0.821 -0.000 -0.000 -0.000  0.164
 -0.000  0.667  0.114  0.000  0.000
 -0.000  0.114  0.667  0.000  0.000
 -0.000  0.000  0.000  0.715  0.000
  0.164  0.000  0.000  0.000  0.705
   spin  2
    eigenvalues: 
  0.553  0.589  0.715  0.781  0.937
    eigenvectors:
  0.000  0.334  0.000  0.000  0.666
  0.500  0.000  0.000  0.500  0.000
  0.500  0.000  0.000  0.500  0.000
  0.000  0.000  1.000  0.000  0.000
  0.000  0.666  0.000  0.000  0.334
    occupations:
  0.821 -0.000 -0.000 -0.000  0.164
 -0.000  0.667  0.114  0.000  0.000
 -0.000  0.114  0.667  0.000  0.000
 -0.000  0.000  0.000  0.715  0.000
  0.164  0.000  0.000  0.000  0.705
atomic mag. moment =    -0.000002
atom    8   Tr[ns(na)] (up, down, total) =   3.57948  3.57948  7.15896
   spin  1
    eigenvalues: 
  0.553  0.589  0.717  0.781  0.938
    eigenvectors:
  0.000  0.334  0.000  0.000  0.666
  0.500  0.000  0.000  0.500  0.000
  0.500  0.000  0.000  0.500  0.000
  0.000  0.000  1.000  0.000  0.000
  0.000  0.666  0.000  0.000  0.334
    occupations:
  0.822  0.000 -0.000 -0.000 -0.165
  0.000  0.667 -0.114  0.000  0.000
 -0.000 -0.114  0.667 -0.000 -0.000
 -0.000  0.000 -0.000  0.717 -0.000
 -0.165  0.000 -0.000 -0.000  0.706
   spin  2
    eigenvalues: 
  0.553  0.589  0.717  0.781  0.938
    eigenvectors:
  0.000  0.334  0.000  0.000  0.666
  0.500  0.000  0.000  0.500  0.000
  0.500  0.000  0.000  0.500  0.000
  0.000  0.000  1.000  0.000  0.000
  0.000  0.666  0.000  0.000  0.334
    occupations:
  0.822  0.000 -0.000 -0.000 -0.165
  0.000  0.667 -0.114  0.000  0.000
 -0.000 -0.114  0.667 -0.000 -0.000
 -0.000  0.000 -0.000  0.717 -0.000
 -0.165  0.000 -0.000 -0.000  0.706
atomic mag. moment =     0.000001
atom    9   Tr[ns(na)] (up, down, total) =   3.57777  3.57777  7.15554
   spin  1
    eigenvalues: 
  0.553  0.589  0.716  0.781  0.938
    eigenvectors:
  0.000  0.334  0.000  0.000  0.666
  0.500  0.000  0.000  0.500  0.000
  0.500  0.000  0.000  0.500  0.000
  0.000  0.000  1.000  0.000  0.000
  0.000  0.666  0.000  0.000  0.334
    occupations:
  0.821 -0.000 -0.000  0.000  0.164
 -0.000  0.667  0.114  0.000  0.000
 -0.000  0.114  0.667  0.000  0.000
  0.000  0.000  0.000  0.716 -0.000
  0.164  0.000  0.000 -0.000  0.706
   spin  2
    eigenvalues: 
  0.553  0.589  0.716  0.781  0.938
    eigenvectors:
  0.000  0.334  0.000  0.000  0.666
  0.500  0.000  0.000  0.500  0.000
  0.500  0.000  0.000  0.500  0.000
  0.000  0.000  1.000  0.000  0.000
  0.000  0.666  0.000  0.000  0.334
    occupations:
  0.821 -0.000 -0.000  0.000  0.164
 -0.000  0.667  0.114  0.000  0.000
 -0.000  0.114  0.667  0.000  0.000
  0.000  0.000  0.000  0.716 -0.000
  0.164  0.000  0.000 -0.000  0.706
atomic mag. moment =     0.000001
atom   10   Tr[ns(na)] (up, down, total) =   3.57948  3.57948  7.15896
   spin  1
    eigenvalues: 
  0.553  0.589  0.717  0.781  0.938
    eigenvectors:
  0.000  0.334  0.000  0.000  0.666
  0.500  0.000  0.000  0.500  0.000
  0.500  0.000  0.000  0.500  0.000
  0.000  0.000  1.000  0.000  0.000
  0.000  0.666  0.000  0.000  0.334
    occupations:
  0.822  0.000 -0.000  0.000 -0.165
  0.000  0.667 -0.114 -0.000  0.000
 -0.000 -0.114  0.667  0.000 -0.000
  0.000 -0.000  0.000  0.717  0.000
 -0.165  0.000 -0.000  0.000  0.706
   spin  2
    eigenvalues: 
  0.553  0.589  0.717  0.781  0.938
    eigenvectors:
  0.000  0.334  0.000  0.000  0.666
  0.500  0.000  0.000  0.500  0.000
  0.500  0.000  0.000  0.500  0.000
  0.000  0.000  1.000  0.000  0.000
  0.000  0.666  0.000  0.000  0.334
    occupations:
  0.822  0.000 -0.000  0.000 -0.165
  0.000  0.667 -0.114 -0.000  0.000
 -0.000 -0.114  0.667  0.000 -0.000
  0.000 -0.000  0.000  0.717  0.000
 -0.165  0.000 -0.000  0.000  0.706
atomic mag. moment =     0.000001
atom   11   Tr[ns(na)] (up, down, total) =   3.57494  3.57494  7.14987
   spin  1
    eigenvalues: 
  0.553  0.589  0.715  0.781  0.937
    eigenvectors:
  0.000  0.334  0.000  0.000  0.666
  0.500  0.000  0.000  0.500  0.000
  0.500  0.000  0.000  0.500  0.000
  0.000  0.000  1.000  0.000  0.000
  0.000  0.666  0.000  0.000  0.334
    occupations:
  0.821 -0.000 -0.000  0.000  0.164
 -0.000  0.667  0.114  0.000  0.000
 -0.000  0.114  0.667  0.000  0.000
  0.000  0.000  0.000  0.715 -0.000
  0.164  0.000  0.000 -0.000  0.705
   spin  2
    eigenvalues: 
  0.553  0.589  0.715  0.781  0.937
    eigenvectors:
  0.000  0.334  0.000  0.000  0.666
  0.500  0.000  0.000  0.500  0.000
  0.500  0.000  0.000  0.500  0.000
  0.000  0.000  1.000  0.000  0.000
  0.000  0.666  0.000  0.000  0.334
    occupations:
  0.821 -0.000 -0.000  0.000  0.164
 -0.000  0.667  0.114  0.000  0.000
 -0.000  0.114  0.667  0.000  0.000
  0.000  0.000  0.000  0.715 -0.000
  0.164  0.000  0.000 -0.000  0.705
atomic mag. moment =    -0.000002
atom   12   Tr[ns(na)] (up, down, total) =   3.57948  3.57948  7.15896
   spin  1
    eigenvalues: 
  0.553  0.589  0.717  0.781  0.938
    eigenvectors:
  0.000  0.334  0.000  0.000  0.666
  0.500  0.000  0.000  0.500  0.000
  0.500  0.000  0.000  0.500  0.000
  0.000  0.000  1.000  0.000  0.000
  0.000  0.666  0.000  0.000  0.334
    occupations:
  0.822 -0.000  0.000  0.000 -0.165
 -0.000  0.667 -0.114  0.000 -0.000
  0.000 -0.114  0.667 -0.000  0.000
  0.000  0.000 -0.000  0.717  0.000
 -0.165 -0.000  0.000  0.000  0.706
   spin  2
    eigenvalues: 
  0.553  0.589  0.717  0.781  0.938
    eigenvectors:
  0.000  0.334  0.000  0.000  0.666
  0.500  0.000  0.000  0.500  0.000
  0.500  0.000  0.000  0.500  0.000
  0.000  0.000  1.000  0.000  0.000
  0.000  0.666  0.000  0.000  0.334
    occupations:
  0.822 -0.000  0.000  0.000 -0.165
 -0.000  0.667 -0.114  0.000 -0.000
  0.000 -0.114  0.667 -0.000  0.000
  0.000  0.000 -0.000  0.717  0.000
 -0.165 -0.000  0.000  0.000  0.706
atomic mag. moment =     0.000001
atom   13   Tr[ns(na)] (up, down, total) =   3.58010  3.58010  7.16020
   spin  1
    eigenvalues: 
  0.553  0.589  0.717  0.781  0.939
    eigenvectors:
  0.000  0.334  0.000  0.000  0.666
  0.500  0.000  0.000  0.500  0.000
  0.500  0.000  0.000  0.500  0.000
  0.000  0.000  1.000  0.000  0.000
  0.000  0.666  0.000  0.000  0.334
    occupations:
  0.822 -0.000 -0.000 -0.000  0.165
 -0.000  0.667  0.114  0.000  0.000
 -0.000  0.114  0.667  0.000  0.000
 -0.000  0.000  0.000  0.717 -0.000
  0.165  0.000  0.000 -0.000  0.706
   spin  2
    eigenvalues: 
  0.553  0.589  0.717  0.781  0.939
    eigenvectors:
  0.000  0.334  0.000  0.000  0.666
  0.500  0.000  0.000  0.500  0.000
  0.500  0.000  0.000  0.500  0.000
  0.000  0.000  1.000  0.000  0.000
  0.000  0.666  0.000  0.000  0.334
    occupations:
  0.822 -0.000 -0.000 -0.000  0.165
 -0.000  0.667  0.114  0.000  0.000
 -0.000  0.114  0.667  0.000  0.000
 -0.000  0.000  0.000  0.717 -0.000
  0.165  0.000  0.000 -0.000  0.706
atomic mag. moment =    -0.000002
atom   14   Tr[ns(na)] (up, down, total) =   3.57634  3.57634  7.15268
   spin  1
    eigenvalues: 
  0.553  0.589  0.716  0.781  0.937
    eigenvectors:
  0.000  0.334  0.000  0.000  0.666
  0.500  0.000  0.000  0.500  0.000
  0.500  0.000  0.000  0.500  0.000
  0.000  0.000  1.000  0.000  0.000
  0.000  0.666  0.000  0.000  0.334
    occupations:
  0.821 -0.000 -0.000  0.000 -0.164
 -0.000  0.667 -0.114 -0.000  0.000
 -0.000 -0.114  0.667  0.000  0.000
  0.000 -0.000  0.000  0.716 -0.000
 -0.164  0.000  0.000 -0.000  0.705
   spin  2
    eigenvalues: 
  0.553  0.589  0.716  0.781  0.937
    eigenvectors:
  0.000  0.334  0.000  0.000  0.666
  0.500  0.000  0.000  0.500  0.000
  0.500  0.000  0.000  0.500  0.000
  0.000  0.000  1.000  0.000  0.000
  0.000  0.666  0.000  0.000  0.334
    occupations:
  0.821 -0.000 -0.000  0.000 -0.164
 -0.000  0.667 -0.114 -0.000  0.000
 -0.000 -0.114  0.667  0.000  0.000
  0.000 -0.000  0.000  0.716 -0.000
 -0.164  0.000  0.000 -0.000  0.705
atomic mag. moment =     0.000002
atom   15   Tr[ns(na)] (up, down, total) =   3.57897  3.57897  7.15794
   spin  1
    eigenvalues: 
  0.553  0.589  0.717  0.781  0.938
    eigenvectors:
  0.000  0.334  0.000  0.000  0.666
  0.500  0.000  0.000  0.500  0.000
  0.500  0.000  0.000  0.500  0.000
  0.000  0.000  1.000  0.000  0.000
  0.000  0.666  0.000  0.000  0.334
    occupations:
  0.821 -0.000 -0.000 -0.000  0.164
 -0.000  0.667  0.114  0.000  0.000
 -0.000  0.114  0.667  0.000  0.000
 -0.000  0.000  0.000  0.717 -0.000
  0.164  0.000  0.000 -0.000  0.706
   spin  2
    eigenvalues: 
  0.553  0.589  0.717  0.781  0.938
    eigenvectors:
  0.000  0.334  0.000  0.000  0.666
  0.500  0.000  0.000  0.500  0.000
  0.500  0.000  0.000  0.500  0.000
  0.000  0.000  1.000  0.000  0.000
  0.000  0.666  0.000  0.000  0.334
    occupations:
  0.821 -0.000 -0.000 -0.000  0.164
 -0.000  0.667  0.114  0.000  0.000
 -0.000  0.114  0.667  0.000  0.000
 -0.000  0.000  0.000  0.717 -0.000
  0.164  0.000  0.000 -0.000  0.706
atomic mag. moment =    -0.000000
atom   16   Tr[ns(na)] (up, down, total) =   3.57634  3.57634  7.15268
   spin  1
    eigenvalues: 
  0.553  0.589  0.716  0.781  0.937
    eigenvectors:
  0.000  0.334  0.000  0.000  0.666
  0.500  0.000  0.000  0.500  0.000
  0.500  0.000  0.000  0.500  0.000
  0.000  0.000  1.000  0.000  0.000
  0.000  0.666  0.000  0.000  0.334
    occupations:
  0.821  0.000  0.000  0.000 -0.164
  0.000  0.667 -0.114  0.000 -0.000
  0.000 -0.114  0.667 -0.000 -0.000
  0.000  0.000 -0.000  0.716 -0.000
 -0.164 -0.000 -0.000 -0.000  0.705
   spin  2
    eigenvalues: 
  0.553  0.589  0.716  0.781  0.937
    eigenvectors:
  0.000  0.334  0.000  0.000  0.666
  0.500  0.000  0.000  0.500  0.000
  0.500  0.000  0.000  0.500  0.000
  0.000  0.000  1.000  0.000  0.000
  0.000  0.666  0.000  0.000  0.334
    occupations:
  0.821  0.000  0.000  0.000 -0.164
  0.000  0.667 -0.114  0.000 -0.000
  0.000 -0.114  0.667 -0.000 -0.000
  0.000  0.000 -0.000  0.716 -0.000
 -0.164 -0.000 -0.000 -0.000  0.705
atomic mag. moment =     0.000002
atom   17   Tr[ns(na)] (up, down, total) =   2.64217  2.64217  5.28434
   spin  1
    eigenvalues: 
  0.869  0.883  0.891
    eigenvectors:
  0.000  0.000  1.000
  0.500  0.500  0.000
  0.500  0.500  0.000
    occupations:
  0.891 -0.000 -0.000
 -0.000  0.876  0.007
 -0.000  0.007  0.876
   spin  2
    eigenvalues: 
  0.869  0.883  0.891
    eigenvectors:
  0.000  0.000  1.000
  0.500  0.500  0.000
  0.500  0.500  0.000
    occupations:
  0.891 -0.000 -0.000
 -0.000  0.876  0.007
 -0.000  0.007  0.876
atomic mag. moment =     0.000000
atom   18   Tr[ns(na)] (up, down, total) =   2.65879  2.65879  5.31758
   spin  1
    eigenvalues: 
  0.879  0.886  0.894
    eigenvectors:
  0.000  0.000  1.000
  0.500  0.500  0.000
  0.500  0.500  0.000
    occupations:
  0.894 -0.000 -0.000
 -0.000  0.882  0.004
 -0.000  0.004  0.882
   spin  2
    eigenvalues: 
  0.879  0.886  0.894
    eigenvectors:
  0.000  0.000  1.000
  0.500  0.500  0.000
  0.500  0.500  0.000
    occupations:
  0.894 -0.000 -0.000
 -0.000  0.882  0.004
 -0.000  0.004  0.882
atomic mag. moment =     0.000000
atom   19   Tr[ns(na)] (up, down, total) =   2.65825  2.65825  5.31650
   spin  1
    eigenvalues: 
  0.878  0.886  0.894
    eigenvectors:
  0.000  0.000  1.000
  0.499  0.501  0.000
  0.501  0.499  0.000
    occupations:
  0.894 -0.000  0.000
 -0.000  0.882 -0.004
  0.000 -0.004  0.882
   spin  2
    eigenvalues: 
  0.878  0.886  0.894
    eigenvectors:
  0.000  0.000  1.000
  0.499  0.501  0.000
  0.501  0.499  0.000
    occupations:
  0.894 -0.000  0.000
 -0.000  0.882 -0.004
  0.000 -0.004  0.882
atomic mag. moment =    -0.000000
atom   20   Tr[ns(na)] (up, down, total) =   2.65825  2.65825  5.31650
   spin  1
    eigenvalues: 
  0.878  0.886  0.894
    eigenvectors:
  0.000  0.000  1.000
  0.501  0.499  0.000
  0.499  0.501  0.000
    occupations:
  0.894  0.000 -0.000
  0.000  0.882 -0.004
 -0.000 -0.004  0.882
   spin  2
    eigenvalues: 
  0.878  0.886  0.894
    eigenvectors:
  0.000  0.000  1.000
  0.501  0.499  0.000
  0.499  0.501  0.000
    occupations:
  0.894  0.000 -0.000
  0.000  0.882 -0.004
 -0.000 -0.004  0.882
atomic mag. moment =    -0.000000
atom   21   Tr[ns(na)] (up, down, total) =   2.65797  2.65797  5.31594
   spin  1
    eigenvalues: 
  0.878  0.886  0.894
    eigenvectors:
  0.000  0.000  1.000
  0.500  0.500  0.000
  0.500  0.500  0.000
    occupations:
  0.894 -0.000 -0.000
 -0.000  0.882  0.004
 -0.000  0.004  0.882
   spin  2
    eigenvalues: 
  0.878  0.886  0.894
    eigenvectors:
  0.000  0.000  1.000
  0.500  0.500  0.000
  0.500  0.500  0.000
    occupations:
  0.894 -0.000 -0.000
 -0.000  0.882  0.004
 -0.000  0.004  0.882
atomic mag. moment =     0.000000
atom   22   Tr[ns(na)] (up, down, total) =   2.65786  2.65786  5.31572
   spin  1
    eigenvalues: 
  0.878  0.886  0.894
    eigenvectors:
  0.000  0.000  1.000
  0.500  0.500  0.000
  0.500  0.500  0.000
    occupations:
  0.894 -0.000 -0.000
 -0.000  0.882  0.004
 -0.000  0.004  0.882
   spin  2
    eigenvalues: 
  0.878  0.886  0.894
    eigenvectors:
  0.000  0.000  1.000
  0.500  0.500  0.000
  0.500  0.500  0.000
    occupations:
  0.894 -0.000 -0.000
 -0.000  0.882  0.004
 -0.000  0.004  0.882
atomic mag. moment =     0.000000
atom   23   Tr[ns(na)] (up, down, total) =   2.65825  2.65825  5.31650
   spin  1
    eigenvalues: 
  0.878  0.886  0.894
    eigenvectors:
  0.000  0.000  1.000
  0.499  0.501  0.000
  0.501  0.499  0.000
    occupations:
  0.894  0.000 -0.000
  0.000  0.882 -0.004
 -0.000 -0.004  0.882
   spin  2
    eigenvalues: 
  0.878  0.886  0.894
    eigenvectors:
  0.000  0.000  1.000
  0.499  0.501  0.000
  0.501  0.499  0.000
    occupations:
  0.894  0.000 -0.000
  0.000  0.882 -0.004
 -0.000 -0.004  0.882
atomic mag. moment =    -0.000000
atom   24   Tr[ns(na)] (up, down, total) =   2.65825  2.65825  5.31650
   spin  1
    eigenvalues: 
  0.878  0.886  0.894
    eigenvectors:
  0.000  0.000  1.000
  0.501  0.499  0.000
  0.499  0.501  0.000
    occupations:
  0.894 -0.000  0.000
 -0.000  0.882 -0.004
  0.000 -0.004  0.882
   spin  2
    eigenvalues: 
  0.878  0.886  0.894
    eigenvectors:
  0.000  0.000  1.000
  0.501  0.499  0.000
  0.499  0.501  0.000
    occupations:
  0.894 -0.000  0.000
 -0.000  0.882 -0.004
  0.000 -0.004  0.882
atomic mag. moment =    -0.000000
atom   25   Tr[ns(na)] (up, down, total) =   2.65838  2.65838  5.31677
   spin  1
    eigenvalues: 
  0.878  0.886  0.894
    eigenvectors:
  0.000  0.000  1.000
  0.500  0.500  0.000
  0.500  0.500  0.000
    occupations:
  0.894 -0.000 -0.000
 -0.000  0.882  0.004
 -0.000  0.004  0.882
   spin  2
    eigenvalues: 
  0.878  0.886  0.894
    eigenvectors:
  0.000  0.000  1.000
  0.500  0.500  0.000
  0.500  0.500  0.000
    occupations:
  0.894 -0.000 -0.000
 -0.000  0.882  0.004
 -0.000  0.004  0.882
atomic mag. moment =     0.000000
atom   26   Tr[ns(na)] (up, down, total) =   2.65845  2.65845  5.31690
   spin  1
    eigenvalues: 
  0.878  0.886  0.894
    eigenvectors:
  0.000  0.000  1.000
  0.499  0.501  0.000
  0.501  0.499  0.000
    occupations:
  0.894 -0.000 -0.000
 -0.000  0.882  0.004
 -0.000  0.004  0.882
   spin  2
    eigenvalues: 
  0.878  0.886  0.894
    eigenvectors:
  0.000  0.000  1.000
  0.499  0.501  0.000
  0.501  0.499  0.000
    occupations:
  0.894 -0.000 -0.000
 -0.000  0.882  0.004
 -0.000  0.004  0.882
atomic mag. moment =     0.000000
atom   27   Tr[ns(na)] (up, down, total) =   2.65856  2.65856  5.31712
   spin  1
    eigenvalues: 
  0.878  0.886  0.894
    eigenvectors:
  0.000  0.000  1.000
  0.500  0.500  0.000
  0.500  0.500  0.000
    occupations:
  0.894 -0.000  0.000
 -0.000  0.882 -0.004
  0.000 -0.004  0.882
   spin  2
    eigenvalues: 
  0.878  0.886  0.894
    eigenvectors:
  0.000  0.000  1.000
  0.500  0.500  0.000
  0.500  0.500  0.000
    occupations:
  0.894 -0.000  0.000
 -0.000  0.882 -0.004
  0.000 -0.004  0.882
atomic mag. moment =    -0.000000
atom   28   Tr[ns(na)] (up, down, total) =   2.65810  2.65810  5.31620
   spin  1
    eigenvalues: 
  0.878  0.886  0.894
    eigenvectors:
  0.000  0.000  1.000
  0.501  0.499  0.000
  0.499  0.501  0.000
    occupations:
  0.894  0.000 -0.000
  0.000  0.882 -0.004
 -0.000 -0.004  0.882
   spin  2
    eigenvalues: 
  0.878  0.886  0.894
    eigenvectors:
  0.000  0.000  1.000
  0.501  0.499  0.000
  0.499  0.501  0.000
    occupations:
  0.894  0.000 -0.000
  0.000  0.882 -0.004
 -0.000 -0.004  0.882
atomic mag. moment =    -0.000000
atom   29   Tr[ns(na)] (up, down, total) =   2.65831  2.65831  5.31663
   spin  1
    eigenvalues: 
  0.878  0.886  0.894
    eigenvectors:
  0.000  0.000  1.000
  0.498  0.502  0.000
  0.502  0.498  0.000
    occupations:
  0.894 -0.000 -0.000
 -0.000  0.882  0.004
 -0.000  0.004  0.882
   spin  2
    eigenvalues: 
  0.878  0.886  0.894
    eigenvectors:
  0.000  0.000  1.000
  0.498  0.502  0.000
  0.502  0.498  0.000
    occupations:
  0.894 -0.000 -0.000
 -0.000  0.882  0.004
 -0.000  0.004  0.882
atomic mag. moment =     0.000000
atom   30   Tr[ns(na)] (up, down, total) =   2.65842  2.65842  5.31684
   spin  1
    eigenvalues: 
  0.878  0.886  0.894
    eigenvectors:
  0.000  0.000  1.000
  0.500  0.500  0.000
  0.500  0.500  0.000
    occupations:
  0.894 -0.000 -0.000
 -0.000  0.882  0.004
 -0.000  0.004  0.882
   spin  2
    eigenvalues: 
  0.878  0.886  0.894
    eigenvectors:
  0.000  0.000  1.000
  0.500  0.500  0.000
  0.500  0.500  0.000
    occupations:
  0.894 -0.000 -0.000
 -0.000  0.882  0.004
 -0.000  0.004  0.882
atomic mag. moment =     0.000000
atom   31   Tr[ns(na)] (up, down, total) =   2.65856  2.65856  5.31712
   spin  1
    eigenvalues: 
  0.878  0.886  0.894
    eigenvectors:
  0.000  0.000  1.000
  0.500  0.500  0.000
  0.500  0.500  0.000
    occupations:
  0.894  0.000 -0.000
  0.000  0.882 -0.004
 -0.000 -0.004  0.882
   spin  2
    eigenvalues: 
  0.878  0.886  0.894
    eigenvectors:
  0.000  0.000  1.000
  0.500  0.500  0.000
  0.500  0.500  0.000
    occupations:
  0.894  0.000 -0.000
  0.000  0.882 -0.004
 -0.000 -0.004  0.882
atomic mag. moment =    -0.000000
atom   32   Tr[ns(na)] (up, down, total) =   2.65810  2.65810  5.31620
   spin  1
    eigenvalues: 
  0.878  0.886  0.894
    eigenvectors:
  0.000  0.000  1.000
  0.501  0.499  0.000
  0.499  0.501  0.000
    occupations:
  0.894 -0.000  0.000
 -0.000  0.882 -0.004
  0.000 -0.004  0.882
   spin  2
    eigenvalues: 
  0.878  0.886  0.894
    eigenvectors:
  0.000  0.000  1.000
  0.501  0.499  0.000
  0.499  0.501  0.000
    occupations:
  0.894 -0.000  0.000
 -0.000  0.882 -0.004
  0.000 -0.004  0.882
atomic mag. moment =    -0.000000
atom   33   Tr[ns(na)] (up, down, total) =   2.65838  2.65838  5.31677
   spin  1
    eigenvalues: 
  0.878  0.886  0.894
    eigenvectors:
  0.000  0.000  1.000
  0.500  0.500  0.000
  0.500  0.500  0.000
    occupations:
  0.894 -0.000 -0.000
 -0.000  0.882  0.004
 -0.000  0.004  0.882
   spin  2
    eigenvalues: 
  0.878  0.886  0.894
    eigenvectors:
  0.000  0.000  1.000
  0.500  0.500  0.000
  0.500  0.500  0.000
    occupations:
  0.894 -0.000 -0.000
 -0.000  0.882  0.004
 -0.000  0.004  0.882
atomic mag. moment =     0.000000
atom   34   Tr[ns(na)] (up, down, total) =   2.65845  2.65845  5.31690
   spin  1
    eigenvalues: 
  0.878  0.886  0.894
    eigenvectors:
  0.000  0.000  1.000
  0.501  0.499  0.000
  0.499  0.501  0.000
    occupations:
  0.894 -0.000 -0.000
 -0.000  0.882  0.004
 -0.000  0.004  0.882
   spin  2
    eigenvalues: 
  0.878  0.886  0.894
    eigenvectors:
  0.000  0.000  1.000
  0.501  0.499  0.000
  0.499  0.501  0.000
    occupations:
  0.894 -0.000 -0.000
 -0.000  0.882  0.004
 -0.000  0.004  0.882
atomic mag. moment =     0.000000
atom   35   Tr[ns(na)] (up, down, total) =   2.65810  2.65810  5.31620
   spin  1
    eigenvalues: 
  0.878  0.886  0.894
    eigenvectors:
  0.000  0.000  1.000
  0.499  0.501  0.000
  0.501  0.499  0.000
    occupations:
  0.894 -0.000  0.000
 -0.000  0.882 -0.004
  0.000 -0.004  0.882
   spin  2
    eigenvalues: 
  0.878  0.886  0.894
    eigenvectors:
  0.000  0.000  1.000
  0.499  0.501  0.000
  0.501  0.499  0.000
    occupations:
  0.894 -0.000  0.000
 -0.000  0.882 -0.004
  0.000 -0.004  0.882
atomic mag. moment =    -0.000000
atom   36   Tr[ns(na)] (up, down, total) =   2.65856  2.65856  5.31712
   spin  1
    eigenvalues: 
  0.878  0.886  0.894
    eigenvectors:
  0.000  0.000  1.000
  0.500  0.500  0.000
  0.500  0.500  0.000
    occupations:
  0.894  0.000 -0.000
  0.000  0.882 -0.004
 -0.000 -0.004  0.882
   spin  2
    eigenvalues: 
  0.878  0.886  0.894
    eigenvectors:
  0.000  0.000  1.000
  0.500  0.500  0.000
  0.500  0.500  0.000
    occupations:
  0.894  0.000 -0.000
  0.000  0.882 -0.004
 -0.000 -0.004  0.882
atomic mag. moment =    -0.000000
atom   37   Tr[ns(na)] (up, down, total) =   2.65831  2.65831  5.31663
   spin  1
    eigenvalues: 
  0.878  0.886  0.894
    eigenvectors:
  0.000  0.000  1.000
  0.502  0.498  0.000
  0.498  0.502  0.000
    occupations:
  0.894 -0.000 -0.000
 -0.000  0.882  0.004
 -0.000  0.004  0.882
   spin  2
    eigenvalues: 
  0.878  0.886  0.894
    eigenvectors:
  0.000  0.000  1.000
  0.502  0.498  0.000
  0.498  0.502  0.000
    occupations:
  0.894 -0.000 -0.000
 -0.000  0.882  0.004
 -0.000  0.004  0.882
atomic mag. moment =     0.000000
atom   38   Tr[ns(na)] (up, down, total) =   2.65842  2.65842  5.31684
   spin  1
    eigenvalues: 
  0.878  0.886  0.894
    eigenvectors:
  0.000  0.000  1.000
  0.500  0.500  0.000
  0.500  0.500  0.000
    occupations:
  0.894 -0.000 -0.000
 -0.000  0.882  0.004
 -0.000  0.004  0.882
   spin  2
    eigenvalues: 
  0.878  0.886  0.894
    eigenvectors:
  0.000  0.000  1.000
  0.500  0.500  0.000
  0.500  0.500  0.000
    occupations:
  0.894 -0.000 -0.000
 -0.000  0.882  0.004
 -0.000  0.004  0.882
atomic mag. moment =     0.000000
atom   39   Tr[ns(na)] (up, down, total) =   2.65810  2.65810  5.31620
   spin  1
    eigenvalues: 
  0.878  0.886  0.894
    eigenvectors:
  0.000  0.000  1.000
  0.499  0.501  0.000
  0.501  0.499  0.000
    occupations:
  0.894  0.000 -0.000
  0.000  0.882 -0.004
 -0.000 -0.004  0.882
   spin  2
    eigenvalues: 
  0.878  0.886  0.894
    eigenvectors:
  0.000  0.000  1.000
  0.499  0.501  0.000
  0.501  0.499  0.000
    occupations:
  0.894  0.000 -0.000
  0.000  0.882 -0.004
 -0.000 -0.004  0.882
atomic mag. moment =    -0.000000
atom   40   Tr[ns(na)] (up, down, total) =   2.65856  2.65856  5.31712
   spin  1
    eigenvalues: 
  0.878  0.886  0.894
    eigenvectors:
  0.000  0.000  1.000
  0.500  0.500  0.000
  0.500  0.500  0.000
    occupations:
  0.894 -0.000  0.000
 -0.000  0.882 -0.004
  0.000 -0.004  0.882
   spin  2
    eigenvalues: 
  0.878  0.886  0.894
    eigenvectors:
  0.000  0.000  1.000
  0.500  0.500  0.000
  0.500  0.500  0.000
    occupations:
  0.894 -0.000  0.000
 -0.000  0.882 -0.004
  0.000 -0.004  0.882
atomic mag. moment =    -0.000000
atom   41   Tr[ns(na)] (up, down, total) =   2.65824  2.65824  5.31647
   spin  1
    eigenvalues: 
  0.878  0.886  0.894
    eigenvectors:
  0.000  0.000  1.000
  0.500  0.500  0.000
  0.500  0.500  0.000
    occupations:
  0.894 -0.000 -0.000
 -0.000  0.882  0.004
 -0.000  0.004  0.882
   spin  2
    eigenvalues: 
  0.878  0.886  0.894
    eigenvectors:
  0.000  0.000  1.000
  0.500  0.500  0.000
  0.500  0.500  0.000
    occupations:
  0.894 -0.000 -0.000
 -0.000  0.882  0.004
 -0.000  0.004  0.882
atomic mag. moment =     0.000000
atom   42   Tr[ns(na)] (up, down, total) =   2.65849  2.65848  5.31697
   spin  1
    eigenvalues: 
  0.878  0.886  0.894
    eigenvectors:
  0.000  0.000  1.000
  0.500  0.500  0.000
  0.500  0.500  0.000
    occupations:
  0.894 -0.000 -0.000
 -0.000  0.882  0.004
 -0.000  0.004  0.882
   spin  2
    eigenvalues: 
  0.878  0.886  0.894
    eigenvectors:
  0.000  0.000  1.000
  0.500  0.500  0.000
  0.500  0.500  0.000
    occupations:
  0.894 -0.000 -0.000
 -0.000  0.882  0.004
 -0.000  0.004  0.882
atomic mag. moment =     0.000000
atom   43   Tr[ns(na)] (up, down, total) =   2.65810  2.65810  5.31620
   spin  1
    eigenvalues: 
  0.878  0.886  0.894
    eigenvectors:
  0.000  0.000  1.000
  0.501  0.499  0.000
  0.499  0.501  0.000
    occupations:
  0.894 -0.000  0.000
 -0.000  0.882 -0.004
  0.000 -0.004  0.882
   spin  2
    eigenvalues: 
  0.878  0.886  0.894
    eigenvectors:
  0.000  0.000  1.000
  0.501  0.499  0.000
  0.499  0.501  0.000
    occupations:
  0.894 -0.000  0.000
 -0.000  0.882 -0.004
  0.000 -0.004  0.882
atomic mag. moment =    -0.000000
atom   44   Tr[ns(na)] (up, down, total) =   2.65810  2.65810  5.31620
   spin  1
    eigenvalues: 
  0.878  0.886  0.894
    eigenvectors:
  0.000  0.000  1.000
  0.499  0.501  0.000
  0.501  0.499  0.000
    occupations:
  0.894  0.000 -0.000
  0.000  0.882 -0.004
 -0.000 -0.004  0.882
   spin  2
    eigenvalues: 
  0.878  0.886  0.894
    eigenvectors:
  0.000  0.000  1.000
  0.499  0.501  0.000
  0.501  0.499  0.000
    occupations:
  0.894  0.000 -0.000
  0.000  0.882 -0.004
 -0.000 -0.004  0.882
atomic mag. moment =    -0.000000
atom   45   Tr[ns(na)] (up, down, total) =   2.65794  2.65794  5.31588
   spin  1
    eigenvalues: 
  0.878  0.886  0.894
    eigenvectors:
  0.000  0.000  1.000
  0.500  0.500  0.000
  0.500  0.500  0.000
    occupations:
[...]
     8.2677   8.3087   8.3121   8.3309   8.4725   8.4743   8.4792   8.4941
     8.5007   8.5122   8.5911   8.5913   8.6035   8.8981   9.0021   9.0030
     9.0545   9.0549   9.0571   9.0641   9.0896   9.1521   9.2785   9.3074
     9.4350   9.4358   9.4392   9.6351   9.7398   9.7447   9.7560   9.7581
     9.7779   9.8450  10.0704  10.1083  10.1527  10.2826  10.2860  10.7708
    11.2558  11.2565  11.3930  11.3966  11.4144  11.4165  11.5048  11.6559
    11.6561  11.8584  11.8588  11.8666  11.8760  11.8801  11.9547  11.9551
    11.9924  12.0359  12.0549  12.0861  12.0862  12.0912  12.0980  12.0989
    12.1050  12.1059  12.1819  12.2832  12.2836  12.3032  12.3970  12.3976
    12.5134  12.7161  12.7171  12.9826  13.2546  13.4176  13.5377  13.5668
    13.5670  13.5878  13.6051  13.6057  13.8636  13.8727  13.8737  14.2029
    14.4322  14.5961  14.5978  14.8672  14.9712  14.9987  14.9990  15.6857
    15.6863  15.7847  15.8060  15.8080  15.9324  16.2104  16.4917  16.8672
    16.9038  16.9038  17.0358  17.0557  17.0560  17.1345  17.1404  17.1405
    17.1424  17.2271  17.2273  17.3495  17.3590  17.4772  17.4775  18.1474
    19.0693  20.3663  20.3692  21.4271  21.8314  21.8347  22.3199  22.4656
    22.4662  22.7669  22.9876  22.9905  23.1435  23.1464  23.1858  23.1924
    23.2178  23.3683  23.4180  23.4203  24.0088  24.4022  24.7572  24.7592
    25.0431  25.0433  25.1086  25.1100  25.2456  25.7195  25.7986  25.8085
    25.9792  26.0335  26.0783  26.0857  26.3521  26.4728  26.4747  26.4897
    26.5141  26.5181  26.7879  26.9741  26.9766  26.9987  27.0010  27.1729
    27.3852  27.5528  27.6888  27.6967  27.6980  27.9887  28.5446  28.5478
    28.5936  28.6050  28.6058  28.6874  28.7324  28.7330  28.7964  28.9892
    29.3357  29.3524  29.6691  29.6703  29.6707  29.6725  29.9479  29.9500
    30.0371  30.1689  30.2833  30.5513  30.5549  30.6109  30.6819  31.0127
    31.0146  31.1657  31.1876  31.4224  31.4645  31.4656  31.6925  31.9118
    31.9153  32.1236  32.1685  32.1731  32.1732  32.2787  32.3134  32.3554
    32.3565  33.0005  33.3914  33.4915  33.5361  33.5372  33.7196  33.8671
    33.8910  34.1163  34.1173  34.1504  34.1507  34.1623  34.2691  34.2738
    34.3508  34.5887  34.7603  34.8379  34.8383  35.1495  35.4388  35.5227
    35.5246  35.6212  35.6221  35.6956  35.8671  35.8684  35.9757  35.9915
    36.1559  36.1816  36.6327  36.6350  36.8214  36.8314  36.9942  36.9949
    37.2478  37.2598  37.5280  37.5303  37.5541  38.0888  38.1059  38.3033
    38.3041  38.3934  38.3945  38.7627  38.7643  38.9642  38.9678  39.1000
    39.1003  39.2209  39.4486  39.5293  39.6127  39.6150  39.7886  39.7895
    39.8538  40.0074  40.0101  40.0476  40.1042  40.1548  40.1554  40.2130
    40.2135  40.2138  40.3159  40.3166  40.3542  40.5191  40.6625  40.8121
    40.9910  40.9914  41.0131  41.2381  41.4031  41.4041  41.5852  41.7102
    41.8915  41.9164  41.9181  42.0238  42.0892  42.2712  42.3072  42.3969
    42.4702  42.5242  42.5250  42.5721  42.8320  42.8324  42.8648  42.8661
    42.9376  43.0375  43.0941  43.0952  43.2391  43.5938  43.5959  44.0363
    44.2556  44.2574  44.2593  44.2630  44.3252  44.3264  44.3755  44.4478
    44.6696  44.6698  44.7565  44.7703  44.7708  44.7765  44.9329  44.9499
    44.9508  44.9518  45.2233  45.2238  45.2469  45.2546  45.2558  45.3292
    45.4597  45.4604  45.4806  45.6581  45.6813  45.7232  45.7706  46.0941
    46.2207  46.4097  46.4097  46.6246  46.6252  46.6607  46.6610  46.7051
    46.7978  46.9728  46.9746  46.9832  47.0309  47.1444  47.1454  47.1868
    47.4218  47.4243  47.4938  47.4998  47.6431  47.6461  47.6781  47.6986
    47.7153  47.7624  47.7724  47.7732  47.8004  48.0209  48.0214  48.0327
    48.1328  48.2386  48.2773  48.2804  48.3065  48.3091  48.3701  48.3710
    48.6509  48.7280  48.8161  48.8933  48.8943  48.9242  48.9495  49.0395
    49.0790  49.1871  49.1877  49.1931  49.2828  49.3548  49.3561  49.4109
    49.8127  49.8150  49.9491  50.0114  50.0755  50.0762  50.1098  50.1208
    50.1217  50.4914  50.5778  50.5786  50.5945  50.5963  50.6304  50.6883
    50.7202  50.7733  50.7743  51.0133  51.0698  51.3340  51.3523  51.3533
    51.3975  51.4336  51.4774  51.4877  51.5481  51.5485  51.7186  51.7197
    52.0140  52.0839  52.2698  52.3169  52.3194  52.4838  52.5116  52.5356
    52.5359  52.5515  52.5625  52.5947  52.5962  52.6368  52.6380  53.0533
    53.2429  53.2433  53.6560  53.6570  53.7481  53.7484  53.8753  53.8765
    53.8862  53.9093  53.9109  53.9206  53.9631  54.0888  54.1952  54.2236
    54.5030  54.5033  54.6298  54.6908  54.7838  54.7846  54.9089  55.0017
    55.0803  55.1053  55.1563  55.1874  55.2217  55.3019  55.3029  55.3864

          k = 0.2500-0.2500 0.3630 ( 14760 PWs)   bands (ev):

   -60.7956 -60.7943 -60.7941 -60.7935 -60.7928 -60.7921 -60.7918 -60.7898
   -60.7870 -60.7865 -60.7864 -60.7860 -60.7858 -60.7854 -60.7840 -60.7828
   -30.9959 -30.9948 -30.9947 -30.9943 -30.9940 -30.9929 -30.9928 -30.9923
   -30.9875 -30.9873 -30.9866 -30.9863 -30.9861 -30.9850 -30.9849 -30.9838
   -30.7994 -30.7968 -30.7961 -30.7958 -30.7943 -30.7927 -30.7921 -30.7915
   -30.6775 -30.6723 -30.6721 -30.6698 -30.6668 -30.6648 -30.6645 -30.6594
   -30.6047 -30.6045 -30.6035 -30.6032 -30.6032 -30.6023 -30.6020 -30.6016
   -30.5826 -30.5824 -30.5822 -30.5822 -30.5821 -30.5821 -30.5812 -30.5805
    -7.1680  -6.8363  -6.8323  -6.7624  -6.5796  -6.4337  -6.4033  -6.3955
    -6.3365  -6.3304  -6.3039  -6.2293  -6.1937  -6.1891  -6.1354  -6.0792
    -5.9866  -5.9168  -5.9128  -5.8986  -5.8977  -5.8636  -5.8573  -5.8538
    -5.8429  -5.8389  -5.7345  -5.6770  -5.6762  -5.6509  -5.6216  -5.5306
     4.6350   4.6585   5.0405   5.0408   5.0567   5.0622   5.4965   5.6131
     5.6329   5.6375   5.6842   5.6874   5.7040   5.7095   5.7195   5.7917
     5.8197   5.8535   5.8629   5.8688   5.9049   5.9062   5.9403   5.9465
     6.0424   6.0439   6.0476   6.0504   6.1057   6.1712   6.1736   6.2107
     6.2976   6.7136   6.8431   6.8462   6.9068   6.9107   7.0673   7.0718
     7.2219   7.3186   7.3234   7.4828   7.5152   7.5190   7.5331   7.6680
     7.6697   7.8486   7.9453   7.9472   8.0248   8.0305   8.0328   8.1425
     8.2397   8.2469   8.2541   8.3815   8.3859   8.4376   8.4397   8.4641
     8.4642   8.4956   8.5496   8.5508   8.6391   8.7087   8.8011   8.8612
     8.8634   8.8722   8.8729   8.9055   9.0320   9.1337   9.2286   9.2724
     9.3189   9.3215   9.3366   9.4894   9.6476   9.6503   9.7635   9.7710
     9.8118   9.8138  10.0426  10.0466  10.0725  10.2074  10.2101  10.6109
    11.1918  11.1922  11.4026  11.6058  11.6868  11.6874  11.6891  11.7682
    11.8622  11.8627  11.9850  11.9853  11.9975  11.9979  11.9981  12.0687
    12.1082  12.1229  12.2138  12.2488  12.2489  12.2509  12.2544  12.3322
    12.3787  12.3789  12.3927  12.3932  12.4243  12.4406  12.7064  12.7068
    12.7738  12.7745  12.8214  12.9178  13.1353  13.1912  13.3920  13.4247
    13.4292  13.4294  13.4977  13.4983  13.7042  13.7048  13.7058  14.0658
    14.7088  14.7412  14.7425  15.0670  15.1631  15.1826  15.1829  15.7260
    15.7265  15.8770  15.9123  15.9231  15.9433  16.2342  16.3403  16.3405
    16.3798  16.6828  16.7935  16.7938  16.9079  16.9082  16.9116  16.9640
    16.9653  17.0125  17.0130  17.3175  17.3176  17.4120  17.4122  17.9409
    19.5237  20.7591  20.7621  21.6988  21.9070  22.2057  22.2090  22.3535
    22.3570  22.5721  22.6017  22.9696  22.9987  23.1741  23.3762  23.3780
    23.6377  23.8380  23.8404  24.3380  24.4115  24.6119  24.9497  24.9516
    25.0182  25.3128  25.3130  25.3715  25.5060  25.5903  25.5927  25.6834
    26.0648  26.1040  26.1074  26.1218  26.1414  26.2070  26.2974  26.5122
    26.5888  26.5904  26.8104  26.8126  26.9318  26.9339  27.1181  27.4824
    27.5117  27.5355  27.8659  27.9108  27.9117  28.0612  28.2811  28.2937
    28.2941  28.4470  28.4497  28.6058  28.6826  28.7257  28.7275  28.7337
    28.7576  28.7592  28.8117  29.2782  29.5548  29.6793  29.6812  29.8106
    29.9089  29.9116  29.9129  30.1247  30.1261  30.1267  30.3856  30.4009
    30.6285  30.6302  30.6991  31.1691  31.5298  31.5350  31.6158  31.6173
    31.7838  31.7851  31.8069  32.3489  32.8083  32.8095  32.8814  32.9995
    33.2959  33.2974  33.3814  33.3820  33.5623  33.5628  33.6254  33.9056
    34.0334  34.0458  34.3060  34.3222  34.3225  34.5579  34.6779  34.7415
    34.8389  34.9041  34.9048  34.9068  35.2592  35.4113  35.5109  35.6103
    35.6111  35.7467  35.8575  35.8582  35.9875  36.0723  36.1015  36.1030
    36.2244  36.7054  36.7060  36.7456  37.0786  37.1307  37.3208  37.3408
    37.3433  37.3902  37.5128  37.6328  37.6488  37.6492  37.7162  37.7168
    37.9654  37.9659  37.9688  38.5420  38.7892  38.7910  38.9068  39.0208
    39.0215  39.1321  39.1322  39.1703  39.2293  39.3585  39.4197  39.4211
    39.5340  39.7023  39.7140  39.7933  40.0269  40.0276  40.0716  40.0724
    40.1293  40.1753  40.2051  40.2139  40.2769  40.2781  40.5832  40.6532
    40.6563  40.8016  40.8220  40.8778  40.8781  40.9697  40.9703  40.9843
    41.2328  41.4445  41.5871  41.8458  41.8465  41.9454  42.3172  42.3333
    42.3448  42.3450  42.5248  42.7128  42.8760  42.9178  42.9185  43.0516
    43.0517  43.2480  43.3501  43.3509  43.3517  43.7377  43.7381  43.8828
    44.3503  44.4415  44.4432  44.5350  44.5357  44.5468  44.5478  44.5676
    44.6415  44.6562  44.7544  44.9427  45.0846  45.1991  45.2668  45.2677
    45.2979  45.3465  45.5847  45.6077  45.6185  45.6197  45.7001  45.7034
    45.7038  45.7703  46.0905  46.1620  46.1625  46.2161  46.2167  46.2176
    46.2375  46.3654  46.4534  46.5746  46.5759  46.6273  46.7361  46.7725
    46.7737  46.8419  46.9164  46.9609  47.0599  47.0607  47.1559  47.2723
    47.3880  47.4095  47.4102  47.4192  47.4209  47.4278  47.4298  47.5214
    47.5898  47.5975  47.7900  47.8980  47.9000  47.9322  47.9339  48.1574
    48.4019  48.4023  48.4802  48.5513  48.5523  48.5703  48.6476  48.6896
    48.7003  48.7483  48.9214  48.9233  49.0050  49.0401  49.0410  49.1555
    49.3302  49.3309  49.4541  49.4547  49.4776  49.6508  49.6511  49.7684
    49.7758  49.7796  49.9774  50.0026  50.0036  50.2607  50.3990  50.4822
    50.4830  50.4905  50.4908  50.5071  50.6001  50.6176  50.6276  50.7132
    50.7737  50.8103  50.8910  50.8920  50.8947  50.9362  50.9363  51.0862
    51.2936  51.5438  51.5462  51.6514  51.6521  51.7197  51.7208  51.8639
    51.8992  51.9281  52.0164  52.2243  52.2248  52.2282  52.2290  52.3806
    52.4278  52.5387  52.6050  52.6771  52.6779  52.7510  53.0030  53.0033
    53.0498  53.2723  53.3038  53.3040  53.3119  53.6632  53.7317  53.7493
    53.7497  53.9339  53.9481  54.0658  54.0665  54.1569  54.2014  54.2124
    54.3223  54.4171  54.4173  54.5307  54.5954  54.7013  54.7021  55.0143
    55.0145  55.2027  55.2032  55.4852  55.6061  55.6068  55.6421  55.7325

          k = 0.2500-0.2500-0.7260 ( 14788 PWs)   bands (ev):

   -60.7915 -60.7914 -60.7906 -60.7904 -60.7904 -60.7902 -60.7899 -60.7896
   -60.7894 -60.7893 -60.7891 -60.7884 -60.7884 -60.7882 -60.7865 -60.7849
   -30.9908 -30.9906 -30.9905 -30.9905 -30.9901 -30.9901 -30.9901 -30.9899
   -30.9898 -30.9898 -30.9898 -30.9897 -30.9897 -30.9889 -30.9886 -30.9873
   -30.7394 -30.7392 -30.7352 -30.7348 -30.7348 -30.7348 -30.7337 -30.7334
   -30.7313 -30.7310 -30.7294 -30.7291 -30.7288 -30.7287 -30.7257 -30.7256
   -30.5933 -30.5933 -30.5933 -30.5932 -30.5930 -30.5929 -30.5928 -30.5928
   -30.5926 -30.5926 -30.5925 -30.5922 -30.5922 -30.5919 -30.5909 -30.5907
    -6.8270  -6.8204  -6.5562  -6.5482  -6.5480  -6.5477  -6.4824  -6.4730
    -6.3245  -6.3244  -6.1740  -6.1546  -6.1539  -6.1539  -6.1205  -6.1172
    -6.0038  -5.9906  -5.9903  -5.9900  -5.8902  -5.8897  -5.8356  -5.8323
    -5.8322  -5.8321  -5.8163  -5.8163  -5.8107  -5.8023  -5.7286  -5.7206
     5.0806   5.0862   5.1308   5.1406   5.4377   5.4377   5.4377   5.4380
     5.4519   5.4520   5.4654   5.4668   5.7780   5.7821   5.9089   5.9109
     5.9130   5.9144   5.9180   5.9184   6.0045   6.0048   6.0054   6.0085
     6.0141   6.0149   6.2447   6.2448   6.2470   6.2559   6.3217   6.3227
     6.6103   6.6105   6.6159   6.6198   6.7365   6.7390   6.9876   6.9886
     7.1354   7.1354   7.1360   7.1378   7.2094   7.2100   7.6378   7.6379
     7.6391   7.6427   7.6860   7.6932   7.8131   7.8193   8.0021   8.0045
     8.1080   8.1082   8.1122   8.1163   8.5667   8.5669   8.5677   8.5705
     8.6430   8.6437   8.6746   8.6751   8.7061   8.7063   8.7253   8.7255
     8.8538   8.8538   8.8543   8.8563   9.0277   9.0307   9.1457   9.1496
     9.2366   9.2398   9.2531   9.2560   9.5194   9.5197   9.5210   9.5212
     9.6942   9.6960  10.0611  10.0614  10.0616  10.0674  10.3364  10.3390
    11.2871  11.2872  11.5794  11.5797  11.5799  11.5808  11.9827  11.9829
    12.0017  12.0020  12.0409  12.0410  12.1999  12.2001  12.2003  12.2005
    12.4001  12.4002  12.4626  12.4634  12.4710  12.4710  12.4777  12.4778
    12.4779  12.4780  12.6520  12.6530  12.7559  12.7564  12.7565  12.7569
    12.8862  12.8865  12.9246  12.9251  13.1248  13.1250  13.1250  13.1258
    13.1437  13.1441  13.3985  13.3986  13.3987  13.3999  13.7288  13.7292
    15.2266  15.2271  15.2977  15.2999  15.2999  15.3008  15.6690  15.6692
    15.6692  15.6695  15.6933  15.6936  15.9448  15.9452  16.2036  16.2039
    16.3751  16.3761  16.3809  16.3818  16.6095  16.6099  16.6100  16.6101
    16.8541  16.8542  17.3357  17.3359  17.3359  17.3360  17.4029  17.4030
    20.5947  20.5965  21.5452  21.5486  21.5498  21.5509  22.2022  22.2046
    22.9094  22.9133  22.9144  22.9152  22.9790  22.9815  24.0190  24.0197
    24.1334  24.1359  24.3335  24.3360  24.8378  24.8393  24.8410  24.8420
    25.0734  25.0750  25.7776  25.7780  25.7800  25.7809  25.8093  25.8093
    25.8630  25.8636  26.1013  26.1015  26.2918  26.2928  26.2934  26.2942
    26.4421  26.4451  26.6726  26.6741  26.6748  26.6759  27.5236  27.5247
    27.8048  27.8065  27.8073  27.8084  27.9319  27.9328  28.1297  28.1299
    28.2998  28.3014  28.4727  28.4756  28.4766  28.4770  28.4802  28.4804
    28.8670  28.8683  28.9447  28.9464  28.9467  28.9470  29.2682  29.2690
    29.3076  29.3080  29.7781  29.7802  29.9824  29.9834  29.9841  29.9842
    30.2115  30.2126  31.0780  31.0792  31.0794  31.0800  31.7134  31.7137
    32.1650  32.1660  32.1664  32.1678  32.8533  32.8550  33.0329  33.0344
    33.1937  33.1945  33.1956  33.1965  33.6890  33.6894  33.7588  33.7594
    34.3873  34.3873  34.5937  34.5947  34.5961  34.5962  35.1782  35.1788
    35.4980  35.5015  35.7157  35.7181  35.7193  35.7199  35.7206  35.7206
    35.7404  35.7421  35.8883  35.8885  35.9883  35.9892  35.9900  35.9902
    36.6735  36.6749  36.9294  36.9295  36.9307  36.9307  37.1039  37.1049
    37.1713  37.1721  37.1727  37.1727  37.9299  37.9303  38.4110  38.4130
    38.4133  38.4139  38.4472  38.4474  38.4642  38.4656  38.8561  38.8569
    38.8573  38.8582  38.8754  38.8768  39.0388  39.0398  39.0839  39.0839
    39.2447  39.2459  39.3230  39.3244  39.5957  39.5961  39.5969  39.5979
    39.6683  39.6687  39.7146  39.7155  39.8396  39.8401  39.8414  39.8415
    40.1498  40.1505  40.6744  40.6761  40.6765  40.6772  41.1742  41.1766
    41.6269  41.6274  41.9741  41.9744  42.0467  42.0476  42.2695  42.2696
    42.2700  42.2701  42.4269  42.4282  42.8037  42.8047  43.2777  43.2792
    43.2798  43.2801  43.8678  43.8679  43.8687  43.8689  43.9037  43.9053
    44.2678  44.2682  44.4739  44.4752  44.4757  44.4761  44.7568  44.7571
    44.8989  44.8992  44.8998  44.9001  45.0171  45.0171  45.4677  45.4687
    45.5537  45.5566  45.8358  45.8361  45.8367  45.8374  45.9953  45.9958
    46.0056  46.0057  46.0870  46.0871  46.0877  46.0877  46.2149  46.2153
    46.4632  46.4652  46.4660  46.4661  46.6815  46.6836  46.7399  46.7401
    46.8879  46.8882  46.9211  46.9235  46.9241  46.9241  46.9923  46.9954
    47.0788  47.0788  47.3230  47.3239  47.8511  47.8521  47.8528  47.8534
    48.0106  48.0110  48.2378  48.2386  48.2481  48.2496  48.2500  48.2502
    48.3612  48.3634  48.5205  48.5212  48.7686  48.7696  48.7699  48.7703
    49.1493  49.1509  49.1521  49.1532  49.1534  49.1537  49.4408  49.4411
    49.4945  49.4951  49.4960  49.4965  49.4971  49.4972  49.5222  49.5225
    49.7177  49.7180  49.8958  49.8966  50.0027  50.0040  50.0044  50.0050
    50.4609  50.4621  50.8172  50.8173  50.8182  50.8183  50.8633  50.8635
    50.9184  50.9194  50.9196  50.9202  51.0534  51.0551  51.1216  51.1220
    51.3437  51.3452  51.5531  51.5537  51.5539  51.5547  51.9624  51.9629
    52.0329  52.0337  52.0340  52.0341  52.2320  52.2332  52.2988  52.3011
    52.5862  52.5868  52.5872  52.5880  52.6052  52.6055  52.8635  52.8644
    53.0593  53.0599  53.3124  53.3129  53.3130  53.3138  53.3810  53.3818
    54.1077  54.1078  54.1943  54.1958  54.2784  54.2785  54.3878  54.3885
    54.4865  54.4879  54.4881  54.4885  55.1674  55.1675  55.1681  55.1686
    55.2774  55.2785  55.3924  55.3933  55.3935  55.3937  55.5287  55.5288

     the Fermi energy is    12.7157 ev

!    total energy              =   -4124.67166141 Ry
     Harris-Foulkes estimate   =   -4124.67166174 Ry
     estimated scf accuracy    <       0.00000035 Ry

     The total energy is the sum of the following terms:

     one-electron contribution =   -1365.42014276 Ry
     hartree contribution      =     934.05001534 Ry
     xc contribution           =    -627.48466044 Ry
     ewald contribution        =   -3065.87288853 Ry
     Hubbard energy            =       0.05849579 Ry
     smearing contrib. (-TS)   =      -0.00248081 Ry

     total magnetization       =     0.00 Bohr mag/cell
     absolute magnetization    =     0.00 Bohr mag/cell

     convergence has been achieved in  11 iterations

     Writing output data file pwscf.save

     init_run     :     31.46s CPU     86.97s WALL (       1 calls)
     electrons    :  19634.48s CPU  22987.48s WALL (       1 calls)

     Called by init_run:
     wfcinit      :     18.41s CPU     71.96s WALL (       1 calls)
     potinit      :      1.40s CPU      2.42s WALL (       1 calls)

     Called by electrons:
     c_bands      :  18523.91s CPU  21188.85s WALL (      11 calls)
     sum_band     :    964.79s CPU   1631.77s WALL (      11 calls)
     v_of_rho     :      7.53s CPU     11.49s WALL (      12 calls)
     newd         :    144.30s CPU    156.51s WALL (      12 calls)
     mix_rho      :      1.19s CPU      2.08s WALL (      11 calls)

     Called by c_bands:
     init_us_2    :      5.08s CPU      5.25s WALL (     966 calls)
     cegterg      :  18498.93s CPU  20961.04s WALL (     462 calls)

     Called by *egterg:
     h_psi        :   3679.94s CPU   5408.00s WALL (    1424 calls)
     s_psi        :    370.98s CPU    371.77s WALL (    1466 calls)
     g_psi        :      4.56s CPU      4.57s WALL (     962 calls)
     cdiaghg      :  12094.61s CPU  12249.55s WALL (    1382 calls)

     Called by h_psi:
     add_vuspsi   :    365.29s CPU    365.79s WALL (    1424 calls)
     vhpsi        :    782.69s CPU    990.46s WALL (    1424 calls)

     General routines
     calbec       :   1136.13s CPU   1512.84s WALL (    3814 calls)
     fft          :     11.88s CPU     21.88s WALL (     360 calls)
     ffts         :      0.17s CPU      0.36s WALL (      46 calls)
     fftw         :   2304.11s CPU   4086.86s WALL ( 1587630 calls)
     interpolate  :      1.44s CPU      2.64s WALL (      46 calls)
     davcio       :      3.65s CPU    474.59s WALL (    2856 calls)

     Parallel routines
     fft_scatter  :   1615.36s CPU   3394.55s WALL ( 1588036 calls)
     Hubbard U routines
     new_ns       :    146.52s CPU    438.93s WALL (      11 calls)
     vhpsi        :    782.69s CPU    990.46s WALL (    1424 calls)

     PWSCF        :     5h27m CPU        6h24m WALL


   This run was terminated on:  19:28: 3  11Feb2014            

=------------------------------------------------------------------------------=
   JOB DONE.
=------------------------------------------------------------------------------=
