
     Program PWSCF v.5.0.2 (svn rev. 9656) starts on 10Feb2014 at 20:25:18 

     This program is part of the open-source Quantum ESPRESSO suite
     for quantum simulation of materials; please cite
         "P. Giannozzi et al., J. Phys.:Condens. Matter 21 395502 (2009);
          URL http://www.quantum-espresso.org", 
     in publications or presentations arising from this work. More details at
     http://www.quantum-espresso.org/quote.php

     Parallel version (MPI), running on    16 processors
     R & G space division:  proc/nbgrp/npool/nimage =      16

     Current dimensions of program PWSCF are:
     Max number of different atomic species (ntypx) = 10
     Max number of k-points (npk) =  40000
     Max angular momentum in pseudopotentials (lmaxx) =  3
     Reading input from alpha_-0.07/alpha_-0.07.in
Warning: card &IONS ignored
Warning: card / ignored
Warning: card &CELL ignored
Warning: card / ignored

     Subspace diagonalization in iterative solution of the eigenvalue problem:
     a serial algorithm will be used


     Parallelization info
     --------------------
     sticks:   dense  smooth     PW     G-vecs:    dense   smooth      PW
     Min         728     233     65                40771     7373    1095
     Max         730     234     66                40773     7387    1096
     Sum       11661    3729   1041               652351   118087   17521



     bravais-lattice index     =            0
     lattice parameter (alat)  =      17.1209  a.u.
     unit-cell volume          =    3456.5082 (a.u.)^3
     number of atoms/cell      =           48
     number of atomic types    =            3
     number of electrons       =       448.00
     number of Kohn-Sham states=          648
     kinetic-energy cutoff     =      40.0000  Ry
     charge density cutoff     =     500.0000  Ry
     convergence threshold     =      1.0E-06
     mixing beta               =       0.7000
     number of iterations used =            8  plain     mixing
     Exchange-correlation      = SLA  PW   PBE  PBE ( 1 4 3 4 0)
     EXX-fraction              =        0.00

     celldm(1)=  17.120919  celldm(2)=   0.000000  celldm(3)=   0.000000
     celldm(4)=   0.000000  celldm(5)=   0.000000  celldm(6)=   0.000000

     crystal axes: (cart. coord. in units of alat)
               a(1) = (   1.000000   0.000000   0.000000 )  
               a(2) = (   0.000000   1.000000   0.000000 )  
               a(3) = (   0.000000   0.000000   0.688742 )  

     reciprocal axes: (cart. coord. in units 2 pi/alat)
               b(1) = (  1.000000  0.000000  0.000000 )  
               b(2) = (  0.000000  1.000000  0.000000 )  
               b(3) = (  0.000000  0.000000  1.451923 )  


     PseudoPot. # 1 for Ru read from file:
     /home/camp/zhonxu/pseudo/ru_pbe_v1.uspp.F.UPF
     MD5 check sum: df00be1c11b23341d9806d8f1dfa10cf
     Pseudo is Ultrasoft + core correction, Zval = 16.0
     Generated by new atomic code, or converted to UPF format
     Using radial grid of  967 points,  6 beta functions with: 
                l(1) =   0
                l(2) =   0
                l(3) =   1
                l(4) =   1
                l(5) =   2
                l(6) =   2
     Q(r) pseudized with  8 coefficients,  rinner =    1.300   1.300   1.300
                                                       1.300   1.300

     PseudoPot. # 2 for O  read from file:
     /home/camp/zhonxu/pseudo/o_pbe_v1.01.uspp.F.UPF
     MD5 check sum: 2bcb18d16ea4b960afae9ec6d52f22d2
     Pseudo is Ultrasoft + core correction, Zval =  6.0
     Generated by new atomic code, or converted to UPF format
     Using radial grid of  737 points,  5 beta functions with: 
                l(1) =   0
                l(2) =   0
                l(3) =   1
                l(4) =   1
                l(5) =   2
     Q(r) pseudized with  8 coefficients,  rinner =    0.900   0.900   0.900
                                                       0.900   0.900

     PseudoPot. # 3 for O  read from file:
     /home/camp/zhonxu/pseudo/o_pbe_v1.01.uspp.F.UPF
     MD5 check sum: 2bcb18d16ea4b960afae9ec6d52f22d2
     Pseudo is Ultrasoft + core correction, Zval =  6.0
     Generated by new atomic code, or converted to UPF format
     Using radial grid of  737 points,  5 beta functions with: 
                l(1) =   0
                l(2) =   0
                l(3) =   1
                l(4) =   1
                l(5) =   2
     Q(r) pseudized with  8 coefficients,  rinner =    0.900   0.900   0.900
                                                       0.900   0.900

     atomic species   valence    mass     pseudopotential
        Ru0           16.00   101.07000     Ru( 1.00)
        O1             6.00    15.99940     O ( 1.00)
        O2             6.00    15.99940     O ( 1.00)

     Starting magnetic structure 
     atomic species   magnetization
        Ru0          0.000
        O1           0.000
        O2           0.000


     Simplified LDA+U calculation (l_max = 2) with parameters (eV):
     atomic species    L          U    alpha       J0     beta
        Ru0            2     0.0000   0.0000   0.0000   0.0000
        O1             1     0.0000  -0.0700   0.0000   0.0000
        O2             1     0.0000   0.0000   0.0000   0.0000



      4 Sym. Ops. (no inversion) found



   Cartesian axes

     site n.     atom                  positions (alat units)
         1           Ru0 tau(   1) = (  -0.1550000  -0.1550000   0.0000000  )
         2           Ru0 tau(   2) = (   0.0950000   0.0950000   0.1721854  )
         3           Ru0 tau(   3) = (  -0.1550000  -0.1550000   0.3443709  )
         4           Ru0 tau(   4) = (   0.0950000   0.0950000   0.5165563  )
         5           Ru0 tau(   5) = (  -0.1550000   0.3450000   0.0000000  )
         6           Ru0 tau(   6) = (   0.0950000   0.5950000   0.1721854  )
         7           Ru0 tau(   7) = (  -0.1550000   0.3450000   0.3443709  )
         8           Ru0 tau(   8) = (   0.0950000   0.5950000   0.5165563  )
         9           Ru0 tau(   9) = (   0.3450000  -0.1550000   0.0000000  )
        10           Ru0 tau(  10) = (   0.5950000   0.0950000   0.1721854  )
        11           Ru0 tau(  11) = (   0.3450000  -0.1550000   0.3443709  )
        12           Ru0 tau(  12) = (   0.5950000   0.0950000   0.5165563  )
        13           Ru0 tau(  13) = (   0.3450000   0.3450000   0.0000000  )
        14           Ru0 tau(  14) = (   0.5950000   0.5950000   0.1721854  )
        15           Ru0 tau(  15) = (   0.3450000   0.3450000   0.3443709  )
        16           Ru0 tau(  16) = (   0.5950000   0.5950000   0.5165563  )
        17           O1  tau(  17) = (   0.0000000   0.0000000   0.0000000  )
        18           O2  tau(  18) = (  -0.3100000  -0.3100000   0.0000000  )
        19           O2  tau(  19) = (   0.2500000  -0.0600000   0.1721854  )
        20           O2  tau(  20) = (  -0.0600000   0.2500000   0.1721854  )
        21           O2  tau(  21) = (   0.0000000   0.0000000   0.3443709  )
        22           O2  tau(  22) = (  -0.3100000  -0.3100000   0.3443709  )
        23           O2  tau(  23) = (   0.2500000  -0.0600000   0.5165563  )
        24           O2  tau(  24) = (  -0.0600000   0.2500000   0.5165563  )
        25           O2  tau(  25) = (   0.0000000   0.5000000   0.0000000  )
        26           O2  tau(  26) = (  -0.3100000   0.1900000   0.0000000  )
        27           O2  tau(  27) = (   0.2500000   0.4400000   0.1721854  )
        28           O2  tau(  28) = (  -0.0600000   0.7500000   0.1721854  )
        29           O2  tau(  29) = (   0.0000000   0.5000000   0.3443709  )
        30           O2  tau(  30) = (  -0.3100000   0.1900000   0.3443709  )
        31           O2  tau(  31) = (   0.2500000   0.4400000   0.5165563  )
        32           O2  tau(  32) = (  -0.0600000   0.7500000   0.5165563  )
        33           O2  tau(  33) = (   0.5000000   0.0000000   0.0000000  )
        34           O2  tau(  34) = (   0.1900000  -0.3100000   0.0000000  )
        35           O2  tau(  35) = (   0.7500000  -0.0600000   0.1721854  )
        36           O2  tau(  36) = (   0.4400000   0.2500000   0.1721854  )
        37           O2  tau(  37) = (   0.5000000   0.0000000   0.3443709  )
        38           O2  tau(  38) = (   0.1900000  -0.3100000   0.3443709  )
        39           O2  tau(  39) = (   0.7500000  -0.0600000   0.5165563  )
        40           O2  tau(  40) = (   0.4400000   0.2500000   0.5165563  )
        41           O2  tau(  41) = (   0.5000000   0.5000000   0.0000000  )
        42           O2  tau(  42) = (   0.1900000   0.1900000   0.0000000  )
        43           O2  tau(  43) = (   0.7500000   0.4400000   0.1721854  )
        44           O2  tau(  44) = (   0.4400000   0.7500000   0.1721854  )
        45           O2  tau(  45) = (   0.5000000   0.5000000   0.3443709  )
        46           O2  tau(  46) = (   0.1900000   0.1900000   0.3443709  )
        47           O2  tau(  47) = (   0.7500000   0.4400000   0.5165563  )
        48           O2  tau(  48) = (   0.4400000   0.7500000   0.5165563  )

     number of k points=    42  Methfessel-Paxton smearing, width (Ry)=  0.0100
                       cart. coord. in units 2pi/alat
        k(    1) = (   0.0000000   0.0000000   0.0000000), wk =   0.0156250
        k(    2) = (   0.0000000   0.0000000   0.3629808), wk =   0.0312500
        k(    3) = (   0.0000000   0.0000000  -0.7259615), wk =   0.0156250
        k(    4) = (   0.0000000   0.2500000   0.0000000), wk =   0.0625000
        k(    5) = (   0.0000000   0.2500000   0.3629808), wk =   0.1250000
        k(    6) = (   0.0000000   0.2500000  -0.7259615), wk =   0.0625000
        k(    7) = (   0.0000000  -0.5000000   0.0000000), wk =   0.0312500
        k(    8) = (   0.0000000  -0.5000000   0.3629808), wk =   0.0625000
        k(    9) = (   0.0000000  -0.5000000  -0.7259615), wk =   0.0312500
        k(   10) = (   0.2500000   0.2500000   0.0000000), wk =   0.0312500
        k(   11) = (   0.2500000   0.2500000   0.3629808), wk =   0.0625000
        k(   12) = (   0.2500000   0.2500000  -0.7259615), wk =   0.0312500
        k(   13) = (   0.2500000  -0.5000000   0.0000000), wk =   0.0625000
        k(   14) = (   0.2500000  -0.5000000   0.3629808), wk =   0.1250000
        k(   15) = (   0.2500000  -0.5000000  -0.7259615), wk =   0.0625000
        k(   16) = (  -0.5000000  -0.5000000   0.0000000), wk =   0.0156250
        k(   17) = (  -0.5000000  -0.5000000   0.3629808), wk =   0.0312500
        k(   18) = (  -0.5000000  -0.5000000  -0.7259615), wk =   0.0156250
        k(   19) = (   0.2500000  -0.2500000   0.0000000), wk =   0.0312500
        k(   20) = (   0.2500000  -0.2500000   0.3629808), wk =   0.0625000
        k(   21) = (   0.2500000  -0.2500000  -0.7259615), wk =   0.0312500
        k(   22) = (   0.0000000   0.0000000   0.0000000), wk =   0.0156250
        k(   23) = (   0.0000000   0.0000000   0.3629808), wk =   0.0312500
        k(   24) = (   0.0000000   0.0000000  -0.7259615), wk =   0.0156250
        k(   25) = (   0.0000000   0.2500000   0.0000000), wk =   0.0625000
        k(   26) = (   0.0000000   0.2500000   0.3629808), wk =   0.1250000
        k(   27) = (   0.0000000   0.2500000  -0.7259615), wk =   0.0625000
        k(   28) = (   0.0000000  -0.5000000   0.0000000), wk =   0.0312500
        k(   29) = (   0.0000000  -0.5000000   0.3629808), wk =   0.0625000
        k(   30) = (   0.0000000  -0.5000000  -0.7259615), wk =   0.0312500
        k(   31) = (   0.2500000   0.2500000   0.0000000), wk =   0.0312500
        k(   32) = (   0.2500000   0.2500000   0.3629808), wk =   0.0625000
        k(   33) = (   0.2500000   0.2500000  -0.7259615), wk =   0.0312500
        k(   34) = (   0.2500000  -0.5000000   0.0000000), wk =   0.0625000
        k(   35) = (   0.2500000  -0.5000000   0.3629808), wk =   0.1250000
        k(   36) = (   0.2500000  -0.5000000  -0.7259615), wk =   0.0625000
        k(   37) = (  -0.5000000  -0.5000000   0.0000000), wk =   0.0156250
        k(   38) = (  -0.5000000  -0.5000000   0.3629808), wk =   0.0312500
        k(   39) = (  -0.5000000  -0.5000000  -0.7259615), wk =   0.0156250
        k(   40) = (   0.2500000  -0.2500000   0.0000000), wk =   0.0312500
        k(   41) = (   0.2500000  -0.2500000   0.3629808), wk =   0.0625000
        k(   42) = (   0.2500000  -0.2500000  -0.7259615), wk =   0.0312500

     Dense  grid:   652351 G-vectors     FFT dimensions: ( 125, 125,  90)

     Smooth grid:   118087 G-vectors     FFT dimensions: (  72,  72,  48)

     Largest allocated arrays     est. size (Mb)     dimensions
        Kohn-Sham Wavefunctions         9.17 Mb     (    927,  648)
        Atomic wavefunctions            4.75 Mb     (    927,  336)
        NL pseudopotentials             9.96 Mb     (    927,  704)
        Each V/rho on FFT grid          2.86 Mb     (  93750,   2)
        Each G-vector array             0.31 Mb     (  40772)
        G-vector shells                 0.12 Mb     (  15344)
     Largest temporary arrays     est. size (Mb)     dimensions
        Auxiliary wavefunctions        36.66 Mb     (    927, 2592)
        Each subspace H/S matrix      102.52 Mb     (2592,2592)
        Each <psi_i|beta_j> matrix      6.96 Mb     (    704,  648)
        Arrays for rho mixing          11.44 Mb     (  93750,   8)

     Check: negative/imaginary core charge=   -0.000008    0.000000

     The initial density is read from file :
     alpha_-0.07/pwscf.save/charge-density.dat


     negative rho (up, down):  0.577E+00 0.577E+00
     Number of +U iterations with fixed ns =  0
     Starting occupations:
 --- enter write_ns ---
 LDA+U parameters:
U( 1)     =  0.00000000
alpha( 1) =  0.00000000
U( 2)     =  0.00000000
alpha( 2) = -0.07000000
U( 3)     =  0.00000000
alpha( 3) =  0.00000000
atom    1   Tr[ns(na)] (up, down, total) =   3.57697  3.57697  7.15394
   spin  1
    eigenvalues: 
  0.553  0.589  0.716  0.781  0.937
    eigenvectors:
  0.000  0.334  0.000  0.000  0.666
  0.500  0.000  0.000  0.500  0.000
  0.500  0.000  0.000  0.500  0.000
  0.000  0.000  1.000  0.000  0.000
  0.000  0.666  0.000  0.000  0.334
    occupations:
  0.821 -0.000 -0.000 -0.000  0.164
 -0.000  0.667  0.114  0.000  0.000
 -0.000  0.114  0.667  0.000  0.000
 -0.000  0.000  0.000  0.716 -0.000
  0.164  0.000  0.000 -0.000  0.706
   spin  2
    eigenvalues: 
  0.553  0.589  0.716  0.781  0.937
    eigenvectors:
  0.000  0.334  0.000  0.000  0.666
  0.500  0.000  0.000  0.500  0.000
  0.500  0.000  0.000  0.500  0.000
  0.000  0.000  1.000  0.000  0.000
  0.000  0.666  0.000  0.000  0.334
    occupations:
  0.821 -0.000 -0.000 -0.000  0.164
 -0.000  0.667  0.114  0.000  0.000
 -0.000  0.114  0.667  0.000  0.000
 -0.000  0.000  0.000  0.716 -0.000
  0.164  0.000  0.000 -0.000  0.706
atomic mag. moment =    -0.000002
atom    2   Tr[ns(na)] (up, down, total) =   3.57701  3.57701  7.15402
   spin  1
    eigenvalues: 
  0.553  0.589  0.716  0.781  0.937
    eigenvectors:
  0.000  0.334  0.000  0.000  0.666
  0.500  0.000  0.000  0.500  0.000
  0.500  0.000  0.000  0.500  0.000
  0.000  0.000  1.000  0.000  0.000
  0.000  0.666  0.000  0.000  0.334
    occupations:
  0.821  0.000  0.000  0.000 -0.164
  0.000  0.667 -0.114 -0.000 -0.000
  0.000 -0.114  0.667  0.000 -0.000
  0.000 -0.000  0.000  0.716 -0.000
 -0.164 -0.000 -0.000 -0.000  0.706
   spin  2
    eigenvalues: 
  0.553  0.589  0.716  0.781  0.937
    eigenvectors:
  0.000  0.334  0.000  0.000  0.666
  0.500  0.000  0.000  0.500  0.000
  0.500  0.000  0.000  0.500  0.000
  0.000  0.000  1.000  0.000  0.000
  0.000  0.666  0.000  0.000  0.334
    occupations:
  0.821  0.000  0.000  0.000 -0.164
  0.000  0.667 -0.114 -0.000 -0.000
  0.000 -0.114  0.667  0.000 -0.000
  0.000 -0.000  0.000  0.716 -0.000
 -0.164 -0.000 -0.000 -0.000  0.706
atomic mag. moment =     0.000002
atom    3   Tr[ns(na)] (up, down, total) =   3.57736  3.57736  7.15472
   spin  1
    eigenvalues: 
  0.553  0.589  0.716  0.781  0.937
    eigenvectors:
  0.000  0.334  0.000  0.000  0.666
  0.500  0.000  0.000  0.500  0.000
  0.500  0.000  0.000  0.500  0.000
  0.000  0.000  1.000  0.000  0.000
  0.000  0.666  0.000  0.000  0.334
    occupations:
  0.821 -0.000 -0.000 -0.000  0.164
 -0.000  0.667  0.114  0.000  0.000
 -0.000  0.114  0.667  0.000  0.000
 -0.000  0.000  0.000  0.716 -0.000
  0.164  0.000  0.000 -0.000  0.706
   spin  2
    eigenvalues: 
  0.553  0.589  0.716  0.781  0.937
    eigenvectors:
  0.000  0.334  0.000  0.000  0.666
  0.500  0.000  0.000  0.500  0.000
  0.500  0.000  0.000  0.500  0.000
  0.000  0.000  1.000  0.000  0.000
  0.000  0.666  0.000  0.000  0.334
    occupations:
  0.821 -0.000 -0.000 -0.000  0.164
 -0.000  0.667  0.114  0.000  0.000
 -0.000  0.114  0.667  0.000  0.000
 -0.000  0.000  0.000  0.716 -0.000
  0.164  0.000  0.000 -0.000  0.706
atomic mag. moment =    -0.000000
atom    4   Tr[ns(na)] (up, down, total) =   3.57701  3.57701  7.15402
   spin  1
    eigenvalues: 
  0.553  0.589  0.716  0.781  0.937
    eigenvectors:
  0.000  0.334  0.000  0.000  0.666
  0.500  0.000  0.000  0.500  0.000
  0.500  0.000  0.000  0.500  0.000
  0.000  0.000  1.000  0.000  0.000
  0.000  0.666  0.000  0.000  0.334
    occupations:
  0.821 -0.000 -0.000  0.000 -0.164
 -0.000  0.667 -0.114  0.000  0.000
 -0.000 -0.114  0.667 -0.000  0.000
  0.000  0.000 -0.000  0.716 -0.000
 -0.164  0.000  0.000 -0.000  0.706
   spin  2
    eigenvalues: 
  0.553  0.589  0.716  0.781  0.937
    eigenvectors:
  0.000  0.334  0.000  0.000  0.666
  0.500  0.000  0.000  0.500  0.000
  0.500  0.000  0.000  0.500  0.000
  0.000  0.000  1.000  0.000  0.000
  0.000  0.666  0.000  0.000  0.334
    occupations:
  0.821 -0.000 -0.000  0.000 -0.164
 -0.000  0.667 -0.114  0.000  0.000
 -0.000 -0.114  0.667 -0.000  0.000
  0.000  0.000 -0.000  0.716 -0.000
 -0.164  0.000  0.000 -0.000  0.706
atomic mag. moment =     0.000002
atom    5   Tr[ns(na)] (up, down, total) =   3.57700  3.57700  7.15400
   spin  1
    eigenvalues: 
  0.553  0.589  0.716  0.781  0.937
    eigenvectors:
  0.000  0.334  0.000  0.000  0.666
  0.500  0.000  0.000  0.500  0.000
  0.500  0.000  0.000  0.500  0.000
  0.000  0.000  1.000  0.000  0.000
  0.000  0.666  0.000  0.000  0.334
    occupations:
  0.821 -0.000 -0.000  0.000  0.164
 -0.000  0.667  0.114  0.000  0.000
 -0.000  0.114  0.667  0.000  0.000
  0.000  0.000  0.000  0.716  0.000
  0.164  0.000  0.000  0.000  0.706
   spin  2
    eigenvalues: 
  0.553  0.589  0.716  0.781  0.937
    eigenvectors:
  0.000  0.334  0.000  0.000  0.666
  0.500  0.000  0.000  0.500  0.000
  0.500  0.000  0.000  0.500  0.000
  0.000  0.000  1.000  0.000  0.000
  0.000  0.666  0.000  0.000  0.334
    occupations:
  0.821 -0.000 -0.000  0.000  0.164
 -0.000  0.667  0.114  0.000  0.000
 -0.000  0.114  0.667  0.000  0.000
  0.000  0.000  0.000  0.716  0.000
  0.164  0.000  0.000  0.000  0.706
atomic mag. moment =     0.000001
atom    6   Tr[ns(na)] (up, down, total) =   3.57693  3.57693  7.15386
   spin  1
    eigenvalues: 
  0.553  0.589  0.716  0.781  0.937
    eigenvectors:
  0.000  0.334  0.000  0.000  0.666
  0.500  0.000  0.000  0.500  0.000
  0.500  0.000  0.000  0.500  0.000
  0.000  0.000  1.000  0.000  0.000
  0.000  0.666  0.000  0.000  0.334
    occupations:
  0.821  0.000 -0.000  0.000 -0.164
  0.000  0.667 -0.114  0.000  0.000
 -0.000 -0.114  0.667  0.000 -0.000
  0.000  0.000  0.000  0.716  0.000
 -0.164  0.000 -0.000  0.000  0.706
   spin  2
    eigenvalues: 
  0.553  0.589  0.716  0.781  0.937
    eigenvectors:
  0.000  0.334  0.000  0.000  0.666
  0.500  0.000  0.000  0.500  0.000
  0.500  0.000  0.000  0.500  0.000
  0.000  0.000  1.000  0.000  0.000
  0.000  0.666  0.000  0.000  0.334
    occupations:
  0.821  0.000 -0.000  0.000 -0.164
  0.000  0.667 -0.114  0.000  0.000
 -0.000 -0.114  0.667  0.000 -0.000
  0.000  0.000  0.000  0.716 -0.000
 -0.164  0.000 -0.000 -0.000  0.706
atomic mag. moment =     0.000001
atom    7   Tr[ns(na)] (up, down, total) =   3.57714  3.57714  7.15429
   spin  1
    eigenvalues: 
  0.553  0.589  0.716  0.781  0.937
    eigenvectors:
  0.000  0.334  0.000  0.000  0.666
  0.500  0.000  0.000  0.500  0.000
  0.500  0.000  0.000  0.500  0.000
  0.000  0.000  1.000  0.000  0.000
  0.000  0.666  0.000  0.000  0.334
    occupations:
  0.821 -0.000 -0.000  0.000  0.164
 -0.000  0.667  0.114  0.000  0.000
 -0.000  0.114  0.667  0.000  0.000
  0.000  0.000  0.000  0.716 -0.000
  0.164  0.000  0.000 -0.000  0.706
   spin  2
    eigenvalues: 
  0.553  0.589  0.716  0.781  0.937
    eigenvectors:
  0.000  0.334  0.000  0.000  0.666
  0.500  0.000  0.000  0.500  0.000
  0.500  0.000  0.000  0.500  0.000
  0.000  0.000  1.000  0.000  0.000
  0.000  0.666  0.000  0.000  0.334
    occupations:
  0.821 -0.000 -0.000  0.000  0.164
 -0.000  0.667  0.114  0.000  0.000
 -0.000  0.114  0.667  0.000  0.000
  0.000  0.000  0.000  0.716  0.000
  0.164  0.000  0.000  0.000  0.706
atomic mag. moment =    -0.000002
atom    8   Tr[ns(na)] (up, down, total) =   3.57693  3.57693  7.15386
   spin  1
    eigenvalues: 
  0.553  0.589  0.716  0.781  0.937
    eigenvectors:
  0.000  0.334  0.000  0.000  0.666
  0.500  0.000  0.000  0.500  0.000
  0.500  0.000  0.000  0.500  0.000
  0.000  0.000  1.000  0.000  0.000
  0.000  0.666  0.000  0.000  0.334
    occupations:
  0.821 -0.000  0.000  0.000 -0.164
 -0.000  0.667 -0.114 -0.000 -0.000
  0.000 -0.114  0.667 -0.000  0.000
  0.000 -0.000 -0.000  0.716  0.000
 -0.164 -0.000  0.000  0.000  0.706
   spin  2
    eigenvalues: 
  0.553  0.589  0.716  0.781  0.937
    eigenvectors:
  0.000  0.334  0.000  0.000  0.666
  0.500  0.000  0.000  0.500  0.000
  0.500  0.000  0.000  0.500  0.000
  0.000  0.000  1.000  0.000  0.000
  0.000  0.666  0.000  0.000  0.334
    occupations:
  0.821 -0.000  0.000  0.000 -0.164
 -0.000  0.667 -0.114 -0.000 -0.000
  0.000 -0.114  0.667 -0.000  0.000
  0.000 -0.000 -0.000  0.716 -0.000
 -0.164 -0.000  0.000 -0.000  0.706
atomic mag. moment =     0.000001
atom    9   Tr[ns(na)] (up, down, total) =   3.57700  3.57700  7.15400
   spin  1
    eigenvalues: 
  0.553  0.589  0.716  0.781  0.937
    eigenvectors:
  0.000  0.334  0.000  0.000  0.666
  0.500  0.000  0.000  0.500  0.000
  0.500  0.000  0.000  0.500  0.000
  0.000  0.000  1.000  0.000  0.000
  0.000  0.666  0.000  0.000  0.334
    occupations:
  0.821 -0.000 -0.000 -0.000  0.164
 -0.000  0.667  0.114  0.000  0.000
 -0.000  0.114  0.667  0.000  0.000
 -0.000  0.000  0.000  0.716 -0.000
  0.164  0.000  0.000 -0.000  0.706
   spin  2
    eigenvalues: 
  0.553  0.589  0.716  0.781  0.937
    eigenvectors:
  0.000  0.334  0.000  0.000  0.666
  0.500  0.000  0.000  0.500  0.000
  0.500  0.000  0.000  0.500  0.000
  0.000  0.000  1.000  0.000  0.000
  0.000  0.666  0.000  0.000  0.334
    occupations:
  0.821 -0.000 -0.000 -0.000  0.164
 -0.000  0.667  0.114  0.000  0.000
 -0.000  0.114  0.667  0.000  0.000
 -0.000  0.000  0.000  0.716 -0.000
  0.164  0.000  0.000 -0.000  0.706
atomic mag. moment =     0.000001
atom   10   Tr[ns(na)] (up, down, total) =   3.57693  3.57693  7.15386
   spin  1
    eigenvalues: 
  0.553  0.589  0.716  0.781  0.937
    eigenvectors:
  0.000  0.334  0.000  0.000  0.666
  0.500  0.000  0.000  0.500  0.000
  0.500  0.000  0.000  0.500  0.000
  0.000  0.000  1.000  0.000  0.000
  0.000  0.666  0.000  0.000  0.334
    occupations:
  0.821 -0.000  0.000 -0.000 -0.164
 -0.000  0.667 -0.114 -0.000 -0.000
  0.000 -0.114  0.667 -0.000  0.000
 -0.000 -0.000 -0.000  0.716 -0.000
 -0.164 -0.000  0.000 -0.000  0.706
   spin  2
    eigenvalues: 
  0.553  0.589  0.716  0.781  0.937
    eigenvectors:
  0.000  0.334  0.000  0.000  0.666
  0.500  0.000  0.000  0.500  0.000
  0.500  0.000  0.000  0.500  0.000
  0.000  0.000  1.000  0.000  0.000
  0.000  0.666  0.000  0.000  0.334
    occupations:
  0.821 -0.000  0.000 -0.000 -0.164
 -0.000  0.667 -0.114 -0.000 -0.000
  0.000 -0.114  0.667 -0.000  0.000
 -0.000 -0.000 -0.000  0.716  0.000
 -0.164 -0.000  0.000  0.000  0.706
atomic mag. moment =     0.000001
atom   11   Tr[ns(na)] (up, down, total) =   3.57714  3.57714  7.15429
   spin  1
    eigenvalues: 
  0.553  0.589  0.716  0.781  0.937
    eigenvectors:
  0.000  0.334  0.000  0.000  0.666
  0.500  0.000  0.000  0.500  0.000
  0.500  0.000  0.000  0.500  0.000
  0.000  0.000  1.000  0.000  0.000
  0.000  0.666  0.000  0.000  0.334
    occupations:
  0.821 -0.000 -0.000 -0.000  0.164
 -0.000  0.667  0.114  0.000  0.000
 -0.000  0.114  0.667  0.000  0.000
 -0.000  0.000  0.000  0.716  0.000
  0.164  0.000  0.000  0.000  0.706
   spin  2
    eigenvalues: 
  0.553  0.589  0.716  0.781  0.937
    eigenvectors:
  0.000  0.334  0.000  0.000  0.666
  0.500  0.000  0.000  0.500  0.000
  0.500  0.000  0.000  0.500  0.000
  0.000  0.000  1.000  0.000  0.000
  0.000  0.666  0.000  0.000  0.334
    occupations:
  0.821 -0.000 -0.000 -0.000  0.164
 -0.000  0.667  0.114  0.000  0.000
 -0.000  0.114  0.667  0.000  0.000
 -0.000  0.000  0.000  0.716 -0.000
  0.164  0.000  0.000 -0.000  0.706
atomic mag. moment =    -0.000002
atom   12   Tr[ns(na)] (up, down, total) =   3.57693  3.57693  7.15386
   spin  1
    eigenvalues: 
  0.553  0.589  0.716  0.781  0.937
    eigenvectors:
  0.000  0.334  0.000  0.000  0.666
  0.500  0.000  0.000  0.500  0.000
  0.500  0.000  0.000  0.500  0.000
  0.000  0.000  1.000  0.000  0.000
  0.000  0.666  0.000  0.000  0.334
    occupations:
  0.821  0.000 -0.000 -0.000 -0.164
  0.000  0.667 -0.114  0.000  0.000
 -0.000 -0.114  0.667  0.000 -0.000
 -0.000  0.000  0.000  0.716 -0.000
 -0.164  0.000 -0.000 -0.000  0.706
   spin  2
    eigenvalues: 
  0.553  0.589  0.716  0.781  0.937
    eigenvectors:
  0.000  0.334  0.000  0.000  0.666
  0.500  0.000  0.000  0.500  0.000
  0.500  0.000  0.000  0.500  0.000
  0.000  0.000  1.000  0.000  0.000
  0.000  0.666  0.000  0.000  0.334
    occupations:
  0.821  0.000 -0.000 -0.000 -0.164
  0.000  0.667 -0.114  0.000  0.000
 -0.000 -0.114  0.667  0.000 -0.000
 -0.000  0.000  0.000  0.716  0.000
 -0.164  0.000 -0.000  0.000  0.706
atomic mag. moment =     0.000001
atom   13   Tr[ns(na)] (up, down, total) =   3.57692  3.57692  7.15385
   spin  1
    eigenvalues: 
  0.553  0.589  0.716  0.781  0.937
    eigenvectors:
  0.000  0.334  0.000  0.000  0.666
  0.500  0.000  0.000  0.500  0.000
  0.500  0.000  0.000  0.500  0.000
  0.000  0.000  1.000  0.000  0.000
  0.000  0.666  0.000  0.000  0.334
    occupations:
  0.821 -0.000 -0.000 -0.000  0.164
 -0.000  0.667  0.114  0.000  0.000
 -0.000  0.114  0.667  0.000  0.000
 -0.000  0.000  0.000  0.716 -0.000
  0.164  0.000  0.000 -0.000  0.706
   spin  2
    eigenvalues: 
  0.553  0.589  0.716  0.781  0.937
    eigenvectors:
  0.000  0.334  0.000  0.000  0.666
  0.500  0.000  0.000  0.500  0.000
  0.500  0.000  0.000  0.500  0.000
  0.000  0.000  1.000  0.000  0.000
  0.000  0.666  0.000  0.000  0.334
    occupations:
  0.821 -0.000 -0.000 -0.000  0.164
 -0.000  0.667  0.114  0.000  0.000
 -0.000  0.114  0.667  0.000  0.000
 -0.000  0.000  0.000  0.716 -0.000
  0.164  0.000  0.000 -0.000  0.706
atomic mag. moment =    -0.000002
atom   14   Tr[ns(na)] (up, down, total) =   3.57703  3.57703  7.15406
   spin  1
    eigenvalues: 
  0.553  0.589  0.716  0.781  0.937
    eigenvectors:
  0.000  0.334  0.000  0.000  0.666
  0.500  0.000  0.000  0.500  0.000
  0.500  0.000  0.000  0.500  0.000
  0.000  0.000  1.000  0.000  0.000
  0.000  0.666  0.000  0.000  0.334
    occupations:
  0.821 -0.000 -0.000  0.000 -0.164
 -0.000  0.667 -0.114  0.000  0.000
 -0.000 -0.114  0.667 -0.000  0.000
  0.000  0.000 -0.000  0.716 -0.000
 -0.164  0.000  0.000 -0.000  0.706
   spin  2
    eigenvalues: 
  0.553  0.589  0.716  0.781  0.937
    eigenvectors:
  0.000  0.334  0.000  0.000  0.666
  0.500  0.000  0.000  0.500  0.000
  0.500  0.000  0.000  0.500  0.000
  0.000  0.000  1.000  0.000  0.000
  0.000  0.666  0.000  0.000  0.334
    occupations:
  0.821 -0.000 -0.000  0.000 -0.164
 -0.000  0.667 -0.114  0.000  0.000
 -0.000 -0.114  0.667 -0.000  0.000
  0.000  0.000 -0.000  0.716 -0.000
 -0.164  0.000  0.000 -0.000  0.706
atomic mag. moment =     0.000002
atom   15   Tr[ns(na)] (up, down, total) =   3.57695  3.57695  7.15390
   spin  1
    eigenvalues: 
  0.553  0.589  0.716  0.781  0.937
    eigenvectors:
  0.000  0.334  0.000  0.000  0.666
  0.500  0.000  0.000  0.500  0.000
  0.500  0.000  0.000  0.500  0.000
  0.000  0.000  1.000  0.000  0.000
  0.000  0.666  0.000  0.000  0.334
    occupations:
  0.821 -0.000 -0.000 -0.000  0.164
 -0.000  0.667  0.114  0.000  0.000
 -0.000  0.114  0.667  0.000  0.000
 -0.000  0.000  0.000  0.716 -0.000
  0.164  0.000  0.000 -0.000  0.706
   spin  2
    eigenvalues: 
  0.553  0.589  0.716  0.781  0.937
    eigenvectors:
  0.000  0.334  0.000  0.000  0.666
  0.500  0.000  0.000  0.500  0.000
  0.500  0.000  0.000  0.500  0.000
  0.000  0.000  1.000  0.000  0.000
  0.000  0.666  0.000  0.000  0.334
    occupations:
  0.821 -0.000 -0.000 -0.000  0.164
 -0.000  0.667  0.114  0.000  0.000
 -0.000  0.114  0.667  0.000  0.000
 -0.000  0.000  0.000  0.716 -0.000
  0.164  0.000  0.000 -0.000  0.706
atomic mag. moment =     0.000000
atom   16   Tr[ns(na)] (up, down, total) =   3.57703  3.57703  7.15406
   spin  1
    eigenvalues: 
  0.553  0.589  0.716  0.781  0.937
    eigenvectors:
  0.000  0.334  0.000  0.000  0.666
  0.500  0.000  0.000  0.500  0.000
  0.500  0.000  0.000  0.500  0.000
  0.000  0.000  1.000  0.000  0.000
  0.000  0.666  0.000  0.000  0.334
    occupations:
  0.821  0.000  0.000  0.000 -0.164
  0.000  0.667 -0.114 -0.000 -0.000
  0.000 -0.114  0.667  0.000 -0.000
  0.000 -0.000  0.000  0.716 -0.000
 -0.164 -0.000 -0.000 -0.000  0.706
   spin  2
    eigenvalues: 
  0.553  0.589  0.716  0.781  0.937
    eigenvectors:
  0.000  0.334  0.000  0.000  0.666
  0.500  0.000  0.000  0.500  0.000
  0.500  0.000  0.000  0.500  0.000
  0.000  0.000  1.000  0.000  0.000
  0.000  0.666  0.000  0.000  0.334
    occupations:
  0.821  0.000  0.000  0.000 -0.164
  0.000  0.667 -0.114 -0.000 -0.000
  0.000 -0.114  0.667  0.000 -0.000
  0.000 -0.000  0.000  0.716 -0.000
 -0.164 -0.000 -0.000 -0.000  0.706
atomic mag. moment =     0.000002
atom   17   Tr[ns(na)] (up, down, total) =   2.65808  2.65808  5.31616
   spin  1
    eigenvalues: 
  0.878  0.886  0.894
    eigenvectors:
  0.000  0.000  1.000
  0.500  0.500  0.000
  0.500  0.500  0.000
    occupations:
  0.894 -0.000 -0.000
 -0.000  0.882  0.004
 -0.000  0.004  0.882
   spin  2
    eigenvalues: 
  0.878  0.886  0.894
    eigenvectors:
  0.000  0.000  1.000
  0.500  0.500  0.000
  0.500  0.500  0.000
    occupations:
  0.894 -0.000 -0.000
 -0.000  0.882  0.004
 -0.000  0.004  0.882
atomic mag. moment =     0.000000
atom   18   Tr[ns(na)] (up, down, total) =   2.65809  2.65809  5.31618
   spin  1
    eigenvalues: 
  0.878  0.886  0.894
    eigenvectors:
  0.000  0.000  1.000
  0.500  0.500  0.000
  0.500  0.500  0.000
    occupations:
  0.894 -0.000 -0.000
 -0.000  0.882  0.004
 -0.000  0.004  0.882
   spin  2
    eigenvalues: 
  0.878  0.886  0.894
    eigenvectors:
  0.000  0.000  1.000
  0.500  0.500  0.000
  0.500  0.500  0.000
    occupations:
  0.894 -0.000 -0.000
 -0.000  0.882  0.004
 -0.000  0.004  0.882
atomic mag. moment =     0.000000
atom   19   Tr[ns(na)] (up, down, total) =   2.65809  2.65809  5.31618
   spin  1
    eigenvalues: 
  0.878  0.886  0.894
    eigenvectors:
  0.000  0.000  1.000
  0.500  0.500  0.000
  0.500  0.500  0.000
    occupations:
  0.894  0.000 -0.000
  0.000  0.882 -0.004
 -0.000 -0.004  0.882
   spin  2
    eigenvalues: 
  0.878  0.886  0.894
    eigenvectors:
  0.000  0.000  1.000
  0.500  0.500  0.000
  0.500  0.500  0.000
    occupations:
  0.894  0.000 -0.000
  0.000  0.882 -0.004
 -0.000 -0.004  0.882
atomic mag. moment =    -0.000000
atom   20   Tr[ns(na)] (up, down, total) =   2.65809  2.65809  5.31618
   spin  1
    eigenvalues: 
  0.878  0.886  0.894
    eigenvectors:
  0.000  0.000  1.000
  0.500  0.500  0.000
  0.500  0.500  0.000
    occupations:
  0.894 -0.000  0.000
 -0.000  0.882 -0.004
  0.000 -0.004  0.882
   spin  2
    eigenvalues: 
  0.878  0.886  0.894
    eigenvectors:
  0.000  0.000  1.000
  0.500  0.500  0.000
  0.500  0.500  0.000
    occupations:
  0.894 -0.000  0.000
 -0.000  0.882 -0.004
  0.000 -0.004  0.882
atomic mag. moment =    -0.000000
atom   21   Tr[ns(na)] (up, down, total) =   2.65808  2.65808  5.31617
   spin  1
    eigenvalues: 
  0.878  0.886  0.894
    eigenvectors:
  0.000  0.000  1.000
  0.500  0.500  0.000
  0.500  0.500  0.000
    occupations:
  0.894 -0.000 -0.000
 -0.000  0.882  0.004
 -0.000  0.004  0.882
   spin  2
    eigenvalues: 
  0.878  0.886  0.894
    eigenvectors:
  0.000  0.000  1.000
  0.500  0.500  0.000
  0.500  0.500  0.000
    occupations:
  0.894 -0.000 -0.000
 -0.000  0.882  0.004
 -0.000  0.004  0.882
atomic mag. moment =    -0.000000
atom   22   Tr[ns(na)] (up, down, total) =   2.65809  2.65809  5.31617
   spin  1
    eigenvalues: 
  0.878  0.886  0.894
    eigenvectors:
  0.000  0.000  1.000
  0.500  0.500  0.000
  0.500  0.500  0.000
    occupations:
  0.894 -0.000 -0.000
 -0.000  0.882  0.004
 -0.000  0.004  0.882
   spin  2
    eigenvalues: 
  0.878  0.886  0.894
    eigenvectors:
  0.000  0.000  1.000
  0.500  0.500  0.000
  0.500  0.500  0.000
    occupations:
  0.894 -0.000 -0.000
 -0.000  0.882  0.004
 -0.000  0.004  0.882
atomic mag. moment =     0.000000
atom   23   Tr[ns(na)] (up, down, total) =   2.65809  2.65809  5.31618
   spin  1
    eigenvalues: 
  0.878  0.886  0.894
    eigenvectors:
  0.000  0.000  1.000
  0.500  0.500  0.000
  0.500  0.500  0.000
    occupations:
  0.894 -0.000  0.000
 -0.000  0.882 -0.004
  0.000 -0.004  0.882
   spin  2
    eigenvalues: 
  0.878  0.886  0.894
    eigenvectors:
  0.000  0.000  1.000
  0.500  0.500  0.000
  0.500  0.500  0.000
    occupations:
  0.894 -0.000  0.000
 -0.000  0.882 -0.004
  0.000 -0.004  0.882
atomic mag. moment =    -0.000000
atom   24   Tr[ns(na)] (up, down, total) =   2.65809  2.65809  5.31618
   spin  1
    eigenvalues: 
  0.878  0.886  0.894
    eigenvectors:
  0.000  0.000  1.000
  0.500  0.500  0.000
  0.500  0.500  0.000
    occupations:
  0.894  0.000 -0.000
  0.000  0.882 -0.004
 -0.000 -0.004  0.882
   spin  2
    eigenvalues: 
  0.878  0.886  0.894
    eigenvectors:
  0.000  0.000  1.000
  0.500  0.500  0.000
  0.500  0.500  0.000
    occupations:
  0.894  0.000 -0.000
  0.000  0.882 -0.004
 -0.000 -0.004  0.882
atomic mag. moment =    -0.000000
atom   25   Tr[ns(na)] (up, down, total) =   2.65809  2.65809  5.31618
   spin  1
    eigenvalues: 
  0.878  0.886  0.894
    eigenvectors:
  0.000  0.000  1.000
  0.500  0.500  0.000
  0.500  0.500  0.000
    occupations:
  0.894 -0.000 -0.000
 -0.000  0.882  0.004
 -0.000  0.004  0.882
   spin  2
    eigenvalues: 
  0.878  0.886  0.894
    eigenvectors:
  0.000  0.000  1.000
  0.500  0.500  0.000
  0.500  0.500  0.000
    occupations:
  0.894 -0.000 -0.000
 -0.000  0.882  0.004
 -0.000  0.004  0.882
atomic mag. moment =     0.000000
atom   26   Tr[ns(na)] (up, down, total) =   2.65806  2.65806  5.31612
   spin  1
    eigenvalues: 
  0.878  0.886  0.894
    eigenvectors:
  0.000  0.000  1.000
  0.500  0.500  0.000
  0.500  0.500  0.000
    occupations:
  0.894 -0.000 -0.000
 -0.000  0.882  0.004
 -0.000  0.004  0.882
   spin  2
    eigenvalues: 
  0.878  0.886  0.894
    eigenvectors:
  0.000  0.000  1.000
  0.500  0.500  0.000
  0.500  0.500  0.000
    occupations:
  0.894 -0.000 -0.000
 -0.000  0.882  0.004
 -0.000  0.004  0.882
atomic mag. moment =     0.000000
atom   27   Tr[ns(na)] (up, down, total) =   2.65806  2.65806  5.31613
   spin  1
    eigenvalues: 
  0.878  0.886  0.894
    eigenvectors:
  0.000  0.000  1.000
  0.500  0.500  0.000
  0.500  0.500  0.000
    occupations:
  0.894  0.000 -0.000
  0.000  0.882 -0.004
 -0.000 -0.004  0.882
   spin  2
    eigenvalues: 
  0.878  0.886  0.894
    eigenvectors:
  0.000  0.000  1.000
  0.500  0.500  0.000
  0.500  0.500  0.000
    occupations:
  0.894  0.000 -0.000
  0.000  0.882 -0.004
 -0.000 -0.004  0.882
atomic mag. moment =    -0.000000
atom   28   Tr[ns(na)] (up, down, total) =   2.65809  2.65809  5.31617
   spin  1
    eigenvalues: 
  0.878  0.886  0.894
    eigenvectors:
  0.000  0.000  1.000
  0.500  0.500  0.000
  0.500  0.500  0.000
    occupations:
  0.894 -0.000  0.000
 -0.000  0.882 -0.004
  0.000 -0.004  0.882
   spin  2
    eigenvalues: 
  0.878  0.886  0.894
    eigenvectors:
  0.000  0.000  1.000
  0.500  0.500  0.000
  0.500  0.500  0.000
    occupations:
  0.894 -0.000  0.000
 -0.000  0.882 -0.004
  0.000 -0.004  0.882
atomic mag. moment =    -0.000000
atom   29   Tr[ns(na)] (up, down, total) =   2.65809  2.65809  5.31617
   spin  1
    eigenvalues: 
  0.878  0.886  0.894
    eigenvectors:
  0.000  0.000  1.000
  0.500  0.500  0.000
  0.500  0.500  0.000
    occupations:
  0.894 -0.000 -0.000
 -0.000  0.882  0.004
 -0.000  0.004  0.882
   spin  2
    eigenvalues: 
  0.878  0.886  0.894
    eigenvectors:
  0.000  0.000  1.000
  0.500  0.500  0.000
  0.500  0.500  0.000
    occupations:
  0.894 -0.000 -0.000
 -0.000  0.882  0.004
 -0.000  0.004  0.882
atomic mag. moment =     0.000000
atom   30   Tr[ns(na)] (up, down, total) =   2.65806  2.65806  5.31611
   spin  1
    eigenvalues: 
  0.878  0.886  0.894
    eigenvectors:
  0.000  0.000  1.000
  0.500  0.500  0.000
  0.500  0.500  0.000
    occupations:
  0.894 -0.000 -0.000
 -0.000  0.882  0.004
 -0.000  0.004  0.882
   spin  2
    eigenvalues: 
  0.878  0.886  0.894
    eigenvectors:
  0.000  0.000  1.000
  0.500  0.500  0.000
  0.500  0.500  0.000
    occupations:
  0.894 -0.000 -0.000
 -0.000  0.882  0.004
 -0.000  0.004  0.882
atomic mag. moment =     0.000000
atom   31   Tr[ns(na)] (up, down, total) =   2.65806  2.65806  5.31613
   spin  1
    eigenvalues: 
  0.878  0.886  0.894
    eigenvectors:
  0.000  0.000  1.000
  0.500  0.500  0.000
  0.500  0.500  0.000
    occupations:
  0.894 -0.000  0.000
 -0.000  0.882 -0.004
  0.000 -0.004  0.882
   spin  2
    eigenvalues: 
  0.878  0.886  0.894
    eigenvectors:
  0.000  0.000  1.000
  0.500  0.500  0.000
  0.500  0.500  0.000
    occupations:
  0.894 -0.000  0.000
 -0.000  0.882 -0.004
  0.000 -0.004  0.882
atomic mag. moment =    -0.000000
atom   32   Tr[ns(na)] (up, down, total) =   2.65809  2.65809  5.31617
   spin  1
    eigenvalues: 
  0.878  0.886  0.894
    eigenvectors:
  0.000  0.000  1.000
  0.500  0.500  0.000
  0.500  0.500  0.000
    occupations:
  0.894  0.000 -0.000
  0.000  0.882 -0.004
 -0.000 -0.004  0.882
   spin  2
    eigenvalues: 
  0.878  0.886  0.894
    eigenvectors:
  0.000  0.000  1.000
  0.500  0.500  0.000
  0.500  0.500  0.000
    occupations:
  0.894  0.000 -0.000
  0.000  0.882 -0.004
 -0.000 -0.004  0.882
atomic mag. moment =    -0.000000
atom   33   Tr[ns(na)] (up, down, total) =   2.65809  2.65809  5.31618
   spin  1
    eigenvalues: 
  0.878  0.886  0.894
    eigenvectors:
  0.000  0.000  1.000
  0.500  0.500  0.000
  0.500  0.500  0.000
    occupations:
  0.894 -0.000 -0.000
 -0.000  0.882  0.004
 -0.000  0.004  0.882
   spin  2
    eigenvalues: 
  0.878  0.886  0.894
    eigenvectors:
  0.000  0.000  1.000
  0.500  0.500  0.000
  0.500  0.500  0.000
    occupations:
  0.894 -0.000 -0.000
 -0.000  0.882  0.004
 -0.000  0.004  0.882
atomic mag. moment =     0.000000
atom   34   Tr[ns(na)] (up, down, total) =   2.65806  2.65806  5.31612
   spin  1
    eigenvalues: 
  0.878  0.886  0.894
    eigenvectors:
  0.000  0.000  1.000
  0.500  0.500  0.000
  0.500  0.500  0.000
    occupations:
  0.894 -0.000 -0.000
 -0.000  0.882  0.004
 -0.000  0.004  0.882
   spin  2
    eigenvalues: 
  0.878  0.886  0.894
    eigenvectors:
  0.000  0.000  1.000
  0.500  0.500  0.000
  0.500  0.500  0.000
    occupations:
  0.894 -0.000 -0.000
 -0.000  0.882  0.004
 -0.000  0.004  0.882
atomic mag. moment =     0.000000
atom   35   Tr[ns(na)] (up, down, total) =   2.65809  2.65809  5.31617
   spin  1
    eigenvalues: 
  0.878  0.886  0.894
    eigenvectors:
  0.000  0.000  1.000
  0.500  0.500  0.000
  0.500  0.500  0.000
    occupations:
  0.894  0.000 -0.000
  0.000  0.882 -0.004
 -0.000 -0.004  0.882
   spin  2
    eigenvalues: 
  0.878  0.886  0.894
    eigenvectors:
  0.000  0.000  1.000
  0.500  0.500  0.000
  0.500  0.500  0.000
    occupations:
  0.894  0.000 -0.000
  0.000  0.882 -0.004
 -0.000 -0.004  0.882
atomic mag. moment =    -0.000000
atom   36   Tr[ns(na)] (up, down, total) =   2.65806  2.65806  5.31613
   spin  1
    eigenvalues: 
  0.878  0.886  0.894
    eigenvectors:
  0.000  0.000  1.000
  0.500  0.500  0.000
  0.500  0.500  0.000
    occupations:
  0.894 -0.000  0.000
 -0.000  0.882 -0.004
  0.000 -0.004  0.882
   spin  2
    eigenvalues: 
  0.878  0.886  0.894
    eigenvectors:
  0.000  0.000  1.000
  0.500  0.500  0.000
  0.500  0.500  0.000
    occupations:
  0.894 -0.000  0.000
 -0.000  0.882 -0.004
  0.000 -0.004  0.882
atomic mag. moment =    -0.000000
atom   37   Tr[ns(na)] (up, down, total) =   2.65809  2.65809  5.31617
   spin  1
    eigenvalues: 
  0.878  0.886  0.894
    eigenvectors:
  0.000  0.000  1.000
  0.500  0.500  0.000
  0.500  0.500  0.000
    occupations:
  0.894 -0.000 -0.000
 -0.000  0.882  0.004
 -0.000  0.004  0.882
   spin  2
    eigenvalues: 
  0.878  0.886  0.894
    eigenvectors:
  0.000  0.000  1.000
  0.500  0.500  0.000
  0.500  0.500  0.000
    occupations:
  0.894 -0.000 -0.000
 -0.000  0.882  0.004
 -0.000  0.004  0.882
atomic mag. moment =     0.000000
atom   38   Tr[ns(na)] (up, down, total) =   2.65806  2.65806  5.31611
   spin  1
    eigenvalues: 
  0.878  0.886  0.894
    eigenvectors:
  0.000  0.000  1.000
  0.500  0.500  0.000
  0.500  0.500  0.000
    occupations:
  0.894 -0.000 -0.000
 -0.000  0.882  0.004
 -0.000  0.004  0.882
   spin  2
    eigenvalues: 
  0.878  0.886  0.894
    eigenvectors:
  0.000  0.000  1.000
  0.500  0.500  0.000
  0.500  0.500  0.000
    occupations:
  0.894 -0.000 -0.000
 -0.000  0.882  0.004
 -0.000  0.004  0.882
atomic mag. moment =     0.000000
atom   39   Tr[ns(na)] (up, down, total) =   2.65809  2.65809  5.31617
   spin  1
    eigenvalues: 
  0.878  0.886  0.894
    eigenvectors:
  0.000  0.000  1.000
  0.500  0.500  0.000
  0.500  0.500  0.000
    occupations:
  0.894 -0.000  0.000
 -0.000  0.882 -0.004
  0.000 -0.004  0.882
   spin  2
    eigenvalues: 
  0.878  0.886  0.894
    eigenvectors:
  0.000  0.000  1.000
  0.500  0.500  0.000
  0.500  0.500  0.000
    occupations:
  0.894 -0.000  0.000
 -0.000  0.882 -0.004
  0.000 -0.004  0.882
atomic mag. moment =    -0.000000
atom   40   Tr[ns(na)] (up, down, total) =   2.65806  2.65806  5.31613
   spin  1
    eigenvalues: 
  0.878  0.886  0.894
    eigenvectors:
  0.000  0.000  1.000
  0.500  0.500  0.000
  0.500  0.500  0.000
    occupations:
  0.894  0.000 -0.000
  0.000  0.882 -0.004
 -0.000 -0.004  0.882
   spin  2
    eigenvalues: 
  0.878  0.886  0.894
    eigenvectors:
  0.000  0.000  1.000
  0.500  0.500  0.000
  0.500  0.500  0.000
    occupations:
  0.894  0.000 -0.000
  0.000  0.882 -0.004
 -0.000 -0.004  0.882
atomic mag. moment =    -0.000000
atom   41   Tr[ns(na)] (up, down, total) =   2.65807  2.65807  5.31615
   spin  1
    eigenvalues: 
  0.878  0.886  0.894
    eigenvectors:
  0.000  0.000  1.000
  0.500  0.500  0.000
  0.500  0.500  0.000
    occupations:
  0.894 -0.000 -0.000
 -0.000  0.882  0.004
 -0.000  0.004  0.882
   spin  2
    eigenvalues: 
  0.878  0.886  0.894
    eigenvectors:
  0.000  0.000  1.000
  0.500  0.500  0.000
  0.500  0.500  0.000
    occupations:
  0.894 -0.000 -0.000
 -0.000  0.882  0.004
 -0.000  0.004  0.882
atomic mag. moment =     0.000000
atom   42   Tr[ns(na)] (up, down, total) =   2.65809  2.65809  5.31617
   spin  1
    eigenvalues: 
  0.878  0.886  0.894
    eigenvectors:
  0.000  0.000  1.000
  0.500  0.500  0.000
  0.500  0.500  0.000
    occupations:
  0.894 -0.000 -0.000
 -0.000  0.882  0.004
 -0.000  0.004  0.882
   spin  2
    eigenvalues: 
  0.878  0.886  0.894
    eigenvectors:
  0.000  0.000  1.000
  0.500  0.500  0.000
  0.500  0.500  0.000
    occupations:
  0.894 -0.000 -0.000
 -0.000  0.882  0.004
 -0.000  0.004  0.882
atomic mag. moment =     0.000000
atom   43   Tr[ns(na)] (up, down, total) =   2.65809  2.65809  5.31618
   spin  1
    eigenvalues: 
  0.878  0.886  0.894
    eigenvectors:
  0.000  0.000  1.000
  0.500  0.500  0.000
  0.500  0.500  0.000
    occupations:
  0.894  0.000 -0.000
  0.000  0.882 -0.004
 -0.000 -0.004  0.882
   spin  2
    eigenvalues: 
  0.878  0.886  0.894
    eigenvectors:
  0.000  0.000  1.000
  0.500  0.500  0.000
  0.500  0.500  0.000
    occupations:
  0.894  0.000 -0.000
  0.000  0.882 -0.004
 -0.000 -0.004  0.882
atomic mag. moment =     0.000000
atom   44   Tr[ns(na)] (up, down, total) =   2.65809  2.65809  5.31618
   spin  1
    eigenvalues: 
  0.878  0.886  0.894
    eigenvectors:
  0.000  0.000  1.000
  0.500  0.500  0.000
  0.500  0.500  0.000
    occupations:
  0.894 -0.000  0.000
 -0.000  0.882 -0.004
  0.000 -0.004  0.882
   spin  2
    eigenvalues: 
  0.878  0.886  0.894
    eigenvectors:
  0.000  0.000  1.000
  0.500  0.500  0.000
  0.500  0.500  0.000
    occupations:
  0.894 -0.000  0.000
 -0.000  0.882 -0.004
  0.000 -0.004  0.882
atomic mag. moment =     0.000000
atom   45   Tr[ns(na)] (up, down, total) =   2.65808  2.65808  5.31615
   spin  1
    eigenvalues: 
  0.878  0.886  0.894
    eigenvectors:
  0.000  0.000  1.000
  0.500  0.500  0.000
  0.500  0.500  0.000
    occupations:
  0.894 -0.000 -0.000
 -0.000  0.882  0.004
 -0.000  0.004  0.882
   spin  2
    eigenvalues: 
  0.878  0.886  0.894
    eigenvectors:
  0.000  0.000  1.000
  0.500  0.500  0.000
  0.500  0.500  0.000
    occupations:
  0.894 -0.000 -0.000
 -0.000  0.882  0.004
 -0.000  0.004  0.882
atomic mag. moment =     0.000000
atom   46   Tr[ns(na)] (up, down, total) =   2.65809  2.65809  5.31618
   spin  1
    eigenvalues: 
  0.878  0.886  0.894
    eigenvectors:
  0.000  0.000  1.000
  0.500  0.500  0.000
  0.500  0.500  0.000
    occupations:
  0.894 -0.000 -0.000
 -0.000  0.882  0.004
 -0.000  0.004  0.882
   spin  2
    eigenvalues: 
  0.878  0.886  0.894
    eigenvectors:
  0.000  0.000  1.000
  0.500  0.500  0.000
  0.500  0.500  0.000
    occupations:
  0.894 -0.000 -0.000
 -0.000  0.882  0.004
 -0.000  0.004  0.882
atomic mag. moment =     0.000000
atom   47   Tr[ns(na)] (up, down, total) =   2.65809  2.65809  5.31618
   spin  1
    eigenvalues: 
  0.878  0.886  0.894
    eigenvectors:
  0.000  0.000  1.000
  0.500  0.500  0.000
  0.500  0.500  0.000
    occupations:
  0.894 -0.000  0.000
 -0.000  0.882 -0.004
  0.000 -0.004  0.882
   spin  2
    eigenvalues: 
  0.878  0.886  0.894
    eigenvectors:
  0.000  0.000  1.000
  0.500  0.500  0.000
  0.500  0.500  0.000
    occupations:
  0.894 -0.000  0.000
 -0.000  0.882 -0.004
  0.000 -0.004  0.882
atomic mag. moment =     0.000000
atom   48   Tr[ns(na)] (up, down, total) =   2.65809  2.65809  5.31618
   spin  1
    eigenvalues: 
  0.878  0.886  0.894
    eigenvectors:
  0.000  0.000  1.000
  0.500  0.500  0.000
  0.500  0.500  0.000
    occupations:
  0.894  0.000 -0.000
  0.000  0.882 -0.004
 -0.000 -0.004  0.882
   spin  2
    eigenvalues: 
  0.878  0.886  0.894
    eigenvectors:
  0.000  0.000  1.000
  0.500  0.500  0.000
  0.500  0.500  0.000
    occupations:
  0.894  0.000 -0.000
  0.000  0.882 -0.004
 -0.000 -0.004  0.882
atomic mag. moment =     0.000000
N of occupied +U levels = 284.5817261
 --- exit write_ns ---
 Atomic wfc used for LDA+U Projector are NOT orthogonalized
     Starting wfc from file

     total cpu time spent up to now is       98.0 secs

     per-process dynamical memory:    97.9 Mb

     Self-consistent Calculation

     iteration #  1     ecut=    40.00 Ry     beta=0.70
     Davidson diagonalization with overlap
     ethr =  3.78E-10,  avg # of iterations =  6.8
 --- enter write_ns ---
 LDA+U parameters:
U( 1)     =  0.00000000
alpha( 1) =  0.00000000
U( 2)     =  0.00000000
alpha( 2) = -0.07000000
U( 3)     =  0.00000000
alpha( 3) =  0.00000000
atom    1   Tr[ns(na)] (up, down, total) =   3.57632  3.57632  7.15265
   spin  1
    eigenvalues: 
  0.553  0.589  0.716  0.781  0.937
    eigenvectors:
  0.000  0.334  0.000  0.000  0.666
  0.500  0.000  0.000  0.500  0.000
  0.500  0.000  0.000  0.500  0.000
  0.000  0.000  1.000  0.000  0.000
  0.000  0.666  0.000  0.000  0.334
    occupations:
  0.821 -0.000 -0.000 -0.000  0.164
 -0.000  0.667  0.114  0.000  0.000
 -0.000  0.114  0.667  0.000  0.000
 -0.000  0.000  0.000  0.716 -0.000
  0.164  0.000  0.000 -0.000  0.705
   spin  2
    eigenvalues: 
  0.553  0.589  0.716  0.781  0.937
    eigenvectors:
  0.000  0.334  0.000  0.000  0.666
  0.500  0.000  0.000  0.500  0.000
  0.500  0.000  0.000  0.500  0.000
  0.000  0.000  1.000  0.000  0.000
  0.000  0.666  0.000  0.000  0.334
    occupations:
  0.821 -0.000 -0.000 -0.000  0.164
 -0.000  0.667  0.114  0.000  0.000
 -0.000  0.114  0.667  0.000  0.000
 -0.000  0.000  0.000  0.716 -0.000
  0.164  0.000  0.000 -0.000  0.705
atomic mag. moment =    -0.000002
atom    2   Tr[ns(na)] (up, down, total) =   3.57639  3.57639  7.15279
   spin  1
    eigenvalues: 
  0.553  0.589  0.716  0.781  0.938
    eigenvectors:
  0.000  0.334  0.000  0.000  0.666
  0.500  0.000  0.000  0.500  0.000
  0.500  0.000  0.000  0.500  0.000
  0.000  0.000  1.000  0.000  0.000
  0.000  0.666  0.000  0.000  0.334
    occupations:
  0.821  0.000  0.000  0.000 -0.164
  0.000  0.667 -0.114  0.000  0.000
  0.000 -0.114  0.667 -0.000  0.000
  0.000  0.000 -0.000  0.716 -0.000
 -0.164  0.000  0.000 -0.000  0.706
   spin  2
    eigenvalues: 
  0.553  0.589  0.716  0.781  0.938
    eigenvectors:
  0.000  0.334  0.000  0.000  0.666
  0.500  0.000  0.000  0.500  0.000
  0.500  0.000  0.000  0.500  0.000
  0.000  0.000  1.000  0.000  0.000
  0.000  0.666  0.000  0.000  0.334
    occupations:
  0.821  0.000  0.000  0.000 -0.164
  0.000  0.667 -0.114  0.000  0.000
  0.000 -0.114  0.667 -0.000  0.000
  0.000  0.000 -0.000  0.716 -0.000
 -0.164  0.000  0.000 -0.000  0.706
atomic mag. moment =     0.000001
atom    3   Tr[ns(na)] (up, down, total) =   3.57005  3.57005  7.14010
   spin  1
    eigenvalues: 
  0.553  0.589  0.714  0.779  0.936
    eigenvectors:
  0.000  0.334  0.000  0.000  0.666
  0.500  0.000  0.000  0.500  0.000
  0.500  0.000  0.000  0.500  0.000
  0.000  0.000  1.000  0.000  0.000
  0.000  0.666  0.000  0.000  0.334
    occupations:
  0.820 -0.000 -0.000 -0.000  0.164
 -0.000  0.666  0.113  0.000  0.000
 -0.000  0.113  0.666  0.000  0.000
 -0.000  0.000  0.000  0.714 -0.000
  0.164  0.000  0.000 -0.000  0.705
   spin  2
    eigenvalues: 
  0.553  0.589  0.714  0.779  0.936
    eigenvectors:
  0.000  0.334  0.000  0.000  0.666
  0.500  0.000  0.000  0.500  0.000
  0.500  0.000  0.000  0.500  0.000
  0.000  0.000  1.000  0.000  0.000
  0.000  0.666  0.000  0.000  0.334
    occupations:
  0.820 -0.000 -0.000 -0.000  0.164
 -0.000  0.666  0.113  0.000  0.000
 -0.000  0.113  0.666  0.000  0.000
 -0.000  0.000  0.000  0.714 -0.000
  0.164  0.000  0.000 -0.000  0.705
atomic mag. moment =    -0.000000
atom    4   Tr[ns(na)] (up, down, total) =   3.57639  3.57639  7.15279
   spin  1
    eigenvalues: 
  0.553  0.589  0.716  0.781  0.938
    eigenvectors:
  0.000  0.334  0.000  0.000  0.666
  0.500  0.000  0.000  0.500  0.000
  0.500  0.000  0.000  0.500  0.000
  0.000  0.000  1.000  0.000  0.000
  0.000  0.666  0.000  0.000  0.334
    occupations:
  0.821 -0.000 -0.000  0.000 -0.164
 -0.000  0.667 -0.114 -0.000 -0.000
 -0.000 -0.114  0.667  0.000 -0.000
  0.000 -0.000  0.000  0.716 -0.000
 -0.164 -0.000 -0.000 -0.000  0.706
   spin  2
    eigenvalues: 
  0.553  0.589  0.716  0.781  0.938
    eigenvectors:
  0.000  0.334  0.000  0.000  0.666
  0.500  0.000  0.000  0.500  0.000
  0.500  0.000  0.000  0.500  0.000
  0.000  0.000  1.000  0.000  0.000
  0.000  0.666  0.000  0.000  0.334
    occupations:
  0.821 -0.000 -0.000  0.000 -0.164
 -0.000  0.667 -0.114 -0.000 -0.000
 -0.000 -0.114  0.667  0.000 -0.000
  0.000 -0.000  0.000  0.716 -0.000
 -0.164 -0.000 -0.000 -0.000  0.706
atomic mag. moment =     0.000001
atom    5   Tr[ns(na)] (up, down, total) =   3.57685  3.57685  7.15370
   spin  1
    eigenvalues: 
  0.553  0.589  0.716  0.781  0.937
    eigenvectors:
  0.000  0.334  0.000  0.000  0.666
  0.500  0.000  0.000  0.500  0.000
  0.500  0.000  0.000  0.500  0.000
  0.000  0.000  1.000  0.000  0.000
  0.000  0.666  0.000  0.000  0.334
    occupations:
  0.821 -0.000 -0.000 -0.000  0.164
 -0.000  0.667  0.114  0.000  0.000
 -0.000  0.114  0.667  0.000  0.000
 -0.000  0.000  0.000  0.716 -0.000
  0.164  0.000  0.000 -0.000  0.705
   spin  2
    eigenvalues: 
  0.553  0.589  0.716  0.781  0.937
    eigenvectors:
  0.000  0.334  0.000  0.000  0.666
  0.500  0.000  0.000  0.500  0.000
  0.500  0.000  0.000  0.500  0.000
  0.000  0.000  1.000  0.000  0.000
  0.000  0.666  0.000  0.000  0.334
    occupations:
  0.821 -0.000 -0.000 -0.000  0.164
 -0.000  0.667  0.114  0.000  0.000
 -0.000  0.114  0.667  0.000  0.000
 -0.000  0.000  0.000  0.716 -0.000
  0.164  0.000  0.000 -0.000  0.705
atomic mag. moment =     0.000001
atom    6   Tr[ns(na)] (up, down, total) =   3.57869  3.57869  7.15737
   spin  1
    eigenvalues: 
  0.553  0.589  0.717  0.781  0.938
    eigenvectors:
  0.000  0.334  0.000  0.000  0.666
  0.500  0.000  0.000  0.500  0.000
  0.500  0.000  0.000  0.500  0.000
  0.000  0.000  1.000  0.000  0.000
  0.000  0.666  0.000  0.000  0.334
    occupations:
  0.821 -0.000  0.000  0.000 -0.164
 -0.000  0.667 -0.114  0.000 -0.000
  0.000 -0.114  0.667 -0.000  0.000
  0.000  0.000 -0.000  0.717  0.000
 -0.164 -0.000  0.000  0.000  0.706
   spin  2
    eigenvalues: 
  0.553  0.589  0.717  0.781  0.938
    eigenvectors:
  0.000  0.334  0.000  0.000  0.666
  0.500  0.000  0.000  0.500  0.000
  0.500  0.000  0.000  0.500  0.000
  0.000  0.000  1.000  0.000  0.000
  0.000  0.666  0.000  0.000  0.334
    occupations:
  0.821 -0.000  0.000  0.000 -0.164
 -0.000  0.667 -0.114  0.000 -0.000
  0.000 -0.114  0.667 -0.000  0.000
  0.000  0.000 -0.000  0.717  0.000
 -0.164 -0.000  0.000  0.000  0.706
atomic mag. moment =     0.000001
atom    7   Tr[ns(na)] (up, down, total) =   3.57388  3.57388  7.14776
   spin  1
    eigenvalues: 
  0.553  0.589  0.715  0.780  0.936
    eigenvectors:
  0.000  0.334  0.000  0.000  0.666
  0.500  0.000  0.000  0.500  0.000
  0.500  0.000  0.000  0.500  0.000
  0.000  0.000  1.000  0.000  0.000
  0.000  0.666  0.000  0.000  0.334
    occupations:
  0.820 -0.000 -0.000 -0.000  0.164
 -0.000  0.667  0.113  0.000  0.000
 -0.000  0.113  0.667  0.000  0.000
 -0.000  0.000  0.000  0.715 -0.000
  0.164  0.000  0.000 -0.000  0.705
   spin  2
    eigenvalues: 
  0.553  0.589  0.715  0.780  0.936
    eigenvectors:
  0.000  0.334  0.000  0.000  0.666
  0.500  0.000  0.000  0.500  0.000
  0.500  0.000  0.000  0.500  0.000
  0.000  0.000  1.000  0.000  0.000
  0.000  0.666  0.000  0.000  0.334
    occupations:
  0.820 -0.000 -0.000 -0.000  0.164
 -0.000  0.667  0.113  0.000  0.000
 -0.000  0.113  0.667  0.000  0.000
 -0.000  0.000  0.000  0.715 -0.000
  0.164  0.000  0.000 -0.000  0.705
atomic mag. moment =    -0.000002
atom    8   Tr[ns(na)] (up, down, total) =   3.57869  3.57869  7.15737
   spin  1
    eigenvalues: 
  0.553  0.589  0.717  0.781  0.938
    eigenvectors:
  0.000  0.334  0.000  0.000  0.666
  0.500  0.000  0.000  0.500  0.000
  0.500  0.000  0.000  0.500  0.000
  0.000  0.000  1.000  0.000  0.000
  0.000  0.666  0.000  0.000  0.334
    occupations:
  0.821  0.000 -0.000  0.000 -0.164
  0.000  0.667 -0.114 -0.000  0.000
 -0.000 -0.114  0.667  0.000 -0.000
  0.000 -0.000  0.000  0.717  0.000
 -0.164  0.000 -0.000  0.000  0.706
   spin  2
    eigenvalues: 
  0.553  0.589  0.717  0.781  0.938
    eigenvectors:
  0.000  0.334  0.000  0.000  0.666
  0.500  0.000  0.000  0.500  0.000
  0.500  0.000  0.000  0.500  0.000
  0.000  0.000  1.000  0.000  0.000
  0.000  0.666  0.000  0.000  0.334
    occupations:
  0.821  0.000 -0.000  0.000 -0.164
  0.000  0.667 -0.114 -0.000  0.000
 -0.000 -0.114  0.667  0.000 -0.000
  0.000 -0.000  0.000  0.717  0.000
 -0.164  0.000 -0.000  0.000  0.706
atomic mag. moment =     0.000001
atom    9   Tr[ns(na)] (up, down, total) =   3.57685  3.57685  7.15370
   spin  1
    eigenvalues: 
  0.553  0.589  0.716  0.781  0.937
    eigenvectors:
  0.000  0.334  0.000  0.000  0.666
  0.500  0.000  0.000  0.500  0.000
  0.500  0.000  0.000  0.500  0.000
  0.000  0.000  1.000  0.000  0.000
  0.000  0.666  0.000  0.000  0.334
    occupations:
  0.821 -0.000 -0.000  0.000  0.164
 -0.000  0.667  0.114  0.000  0.000
 -0.000  0.114  0.667  0.000  0.000
  0.000  0.000  0.000  0.716  0.000
  0.164  0.000  0.000  0.000  0.705
   spin  2
    eigenvalues: 
  0.553  0.589  0.716  0.781  0.937
    eigenvectors:
  0.000  0.334  0.000  0.000  0.666
  0.500  0.000  0.000  0.500  0.000
  0.500  0.000  0.000  0.500  0.000
  0.000  0.000  1.000  0.000  0.000
  0.000  0.666  0.000  0.000  0.334
    occupations:
  0.821 -0.000 -0.000  0.000  0.164
 -0.000  0.667  0.114  0.000  0.000
 -0.000  0.114  0.667  0.000  0.000
  0.000  0.000  0.000  0.716  0.000
  0.164  0.000  0.000  0.000  0.705
atomic mag. moment =     0.000001
atom   10   Tr[ns(na)] (up, down, total) =   3.57869  3.57869  7.15737
   spin  1
    eigenvalues: 
  0.553  0.589  0.717  0.781  0.938
    eigenvectors:
  0.000  0.334  0.000  0.000  0.666
  0.500  0.000  0.000  0.500  0.000
  0.500  0.000  0.000  0.500  0.000
  0.000  0.000  1.000  0.000  0.000
  0.000  0.666  0.000  0.000  0.334
    occupations:
  0.821  0.000 -0.000 -0.000 -0.164
  0.000  0.667 -0.114  0.000  0.000
 -0.000 -0.114  0.667 -0.000 -0.000
 -0.000  0.000 -0.000  0.717 -0.000
 -0.164  0.000 -0.000 -0.000  0.706
   spin  2
    eigenvalues: 
  0.553  0.589  0.717  0.781  0.938
    eigenvectors:
  0.000  0.334  0.000  0.000  0.666
  0.500  0.000  0.000  0.500  0.000
  0.500  0.000  0.000  0.500  0.000
  0.000  0.000  1.000  0.000  0.000
  0.000  0.666  0.000  0.000  0.334
    occupations:
  0.821  0.000 -0.000 -0.000 -0.164
  0.000  0.667 -0.114  0.000  0.000
 -0.000 -0.114  0.667 -0.000 -0.000
 -0.000  0.000 -0.000  0.717 -0.000
 -0.164  0.000 -0.000 -0.000  0.706
atomic mag. moment =     0.000001
atom   11   Tr[ns(na)] (up, down, total) =   3.57388  3.57388  7.14776
   spin  1
    eigenvalues: 
  0.553  0.589  0.715  0.780  0.936
    eigenvectors:
  0.000  0.334  0.000  0.000  0.666
  0.500  0.000  0.000  0.500  0.000
  0.500  0.000  0.000  0.500  0.000
  0.000  0.000  1.000  0.000  0.000
  0.000  0.666  0.000  0.000  0.334
    occupations:
  0.820 -0.000 -0.000  0.000  0.164
 -0.000  0.667  0.113  0.000  0.000
 -0.000  0.113  0.667  0.000  0.000
  0.000  0.000  0.000  0.715  0.000
  0.164  0.000  0.000  0.000  0.705
   spin  2
    eigenvalues: 
  0.553  0.589  0.715  0.780  0.936
    eigenvectors:
  0.000  0.334  0.000  0.000  0.666
  0.500  0.000  0.000  0.500  0.000
  0.500  0.000  0.000  0.500  0.000
  0.000  0.000  1.000  0.000  0.000
  0.000  0.666  0.000  0.000  0.334
    occupations:
  0.820 -0.000 -0.000  0.000  0.164
 -0.000  0.667  0.113  0.000  0.000
 -0.000  0.113  0.667  0.000  0.000
  0.000  0.000  0.000  0.715  0.000
  0.164  0.000  0.000  0.000  0.705
atomic mag. moment =    -0.000002
atom   12   Tr[ns(na)] (up, down, total) =   3.57869  3.57869  7.15737
   spin  1
    eigenvalues: 
  0.553  0.589  0.717  0.781  0.938
    eigenvectors:
  0.000  0.334  0.000  0.000  0.666
  0.500  0.000  0.000  0.500  0.000
  0.500  0.000  0.000  0.500  0.000
  0.000  0.000  1.000  0.000  0.000
  0.000  0.666  0.000  0.000  0.334
    occupations:
  0.821 -0.000  0.000 -0.000 -0.164
 -0.000  0.667 -0.114 -0.000 -0.000
  0.000 -0.114  0.667  0.000  0.000
 -0.000 -0.000  0.000  0.717 -0.000
 -0.164 -0.000  0.000 -0.000  0.706
   spin  2
    eigenvalues: 
  0.553  0.589  0.717  0.781  0.938
    eigenvectors:
  0.000  0.334  0.000  0.000  0.666
  0.500  0.000  0.000  0.500  0.000
  0.500  0.000  0.000  0.500  0.000
  0.000  0.000  1.000  0.000  0.000
  0.000  0.666  0.000  0.000  0.334
    occupations:
  0.821 -0.000  0.000 -0.000 -0.164
 -0.000  0.667 -0.114 -0.000 -0.000
  0.000 -0.114  0.667  0.000  0.000
 -0.000 -0.000  0.000  0.717 -0.000
 -0.164 -0.000  0.000 -0.000  0.706
atomic mag. moment =     0.000001
atom   13   Tr[ns(na)] (up, down, total) =   3.57915  3.57915  7.15830
   spin  1
    eigenvalues: 
  0.553  0.589  0.717  0.781  0.938
    eigenvectors:
  0.000  0.334  0.000  0.000  0.666
  0.500  0.000  0.000  0.500  0.000
  0.500  0.000  0.000  0.500  0.000
  0.000  0.000  1.000  0.000  0.000
  0.000  0.666  0.000  0.000  0.334
    occupations:
  0.822 -0.000 -0.000 -0.000  0.164
 -0.000  0.667  0.114  0.000  0.000
 -0.000  0.114  0.667  0.000  0.000
 -0.000  0.000  0.000  0.717 -0.000
  0.164  0.000  0.000 -0.000  0.706
   spin  2
    eigenvalues: 
  0.553  0.589  0.717  0.781  0.938
    eigenvectors:
  0.000  0.334  0.000  0.000  0.666
  0.500  0.000  0.000  0.500  0.000
  0.500  0.000  0.000  0.500  0.000
  0.000  0.000  1.000  0.000  0.000
  0.000  0.666  0.000  0.000  0.334
    occupations:
  0.822 -0.000 -0.000 -0.000  0.164
 -0.000  0.667  0.114  0.000  0.000
 -0.000  0.114  0.667  0.000  0.000
 -0.000  0.000  0.000  0.717 -0.000
  0.164  0.000  0.000 -0.000  0.706
atomic mag. moment =    -0.000002
atom   14   Tr[ns(na)] (up, down, total) =   3.57649  3.57648  7.15297
   spin  1
    eigenvalues: 
  0.553  0.589  0.716  0.781  0.937
    eigenvectors:
  0.000  0.334  0.000  0.000  0.666
  0.500  0.000  0.000  0.500  0.000
  0.500  0.000  0.000  0.500  0.000
  0.000  0.000  1.000  0.000  0.000
  0.000  0.666  0.000  0.000  0.334
    occupations:
  0.821  0.000  0.000  0.000 -0.164
  0.000  0.667 -0.114 -0.000 -0.000
  0.000 -0.114  0.667  0.000 -0.000
  0.000 -0.000  0.000  0.716 -0.000
 -0.164 -0.000 -0.000 -0.000  0.706
   spin  2
    eigenvalues: 
  0.553  0.589  0.716  0.781  0.937
    eigenvectors:
  0.000  0.334  0.000  0.000  0.666
  0.500  0.000  0.000  0.500  0.000
  0.500  0.000  0.000  0.500  0.000
  0.000  0.000  1.000  0.000  0.000
  0.000  0.666  0.000  0.000  0.334
    occupations:
  0.821  0.000  0.000  0.000 -0.164
  0.000  0.667 -0.114 -0.000 -0.000
  0.000 -0.114  0.667  0.000 -0.000
  0.000 -0.000  0.000  0.716 -0.000
 -0.164 -0.000 -0.000 -0.000  0.706
atomic mag. moment =     0.000002
atom   15   Tr[ns(na)] (up, down, total) =   3.57803  3.57803  7.15606
   spin  1
    eigenvalues: 
  0.553  0.589  0.717  0.781  0.937
    eigenvectors:
  0.000  0.334  0.000  0.000  0.666
  0.500  0.000  0.000  0.500  0.000
  0.500  0.000  0.000  0.500  0.000
  0.000  0.000  1.000  0.000  0.000
  0.000  0.666  0.000  0.000  0.334
    occupations:
  0.821 -0.000 -0.000 -0.000  0.164
 -0.000  0.667  0.114  0.000  0.000
 -0.000  0.114  0.667  0.000  0.000
 -0.000  0.000  0.000  0.717 -0.000
  0.164  0.000  0.000 -0.000  0.706
   spin  2
    eigenvalues: 
  0.553  0.589  0.717  0.781  0.937
    eigenvectors:
  0.000  0.334  0.000  0.000  0.666
  0.500  0.000  0.000  0.500  0.000
  0.500  0.000  0.000  0.500  0.000
  0.000  0.000  1.000  0.000  0.000
  0.000  0.666  0.000  0.000  0.334
    occupations:
  0.821 -0.000 -0.000 -0.000  0.164
 -0.000  0.667  0.114  0.000  0.000
 -0.000  0.114  0.667  0.000  0.000
 -0.000  0.000  0.000  0.717 -0.000
  0.164  0.000  0.000 -0.000  0.706
atomic mag. moment =    -0.000000
atom   16   Tr[ns(na)] (up, down, total) =   3.57649  3.57648  7.15297
   spin  1
    eigenvalues: 
  0.553  0.589  0.716  0.781  0.937
    eigenvectors:
  0.000  0.334  0.000  0.000  0.666
  0.500  0.000  0.000  0.500  0.000
  0.500  0.000  0.000  0.500  0.000
  0.000  0.000  1.000  0.000  0.000
  0.000  0.666  0.000  0.000  0.334
    occupations:
  0.821 -0.000 -0.000  0.000 -0.164
 -0.000  0.667 -0.114  0.000  0.000
 -0.000 -0.114  0.667 -0.000  0.000
  0.000  0.000 -0.000  0.716 -0.000
 -0.164  0.000  0.000 -0.000  0.706
   spin  2
    eigenvalues: 
  0.553  0.589  0.716  0.781  0.937
    eigenvectors:
  0.000  0.334  0.000  0.000  0.666
  0.500  0.000  0.000  0.500  0.000
  0.500  0.000  0.000  0.500  0.000
  0.000  0.000  1.000  0.000  0.000
  0.000  0.666  0.000  0.000  0.334
    occupations:
  0.821 -0.000 -0.000  0.000 -0.164
 -0.000  0.667 -0.114  0.000  0.000
 -0.000 -0.114  0.667 -0.000  0.000
  0.000  0.000 -0.000  0.716 -0.000
 -0.164  0.000  0.000 -0.000  0.706
atomic mag. moment =     0.000002
atom   17   Tr[ns(na)] (up, down, total) =   2.66515  2.66515  5.33031
   spin  1
    eigenvalues: 
  0.882  0.888  0.895
    eigenvectors:
  0.000  0.000  1.000
  0.500  0.500  0.000
  0.500  0.500  0.000
    occupations:
  0.895 -0.000 -0.000
 -0.000  0.885  0.003
 -0.000  0.003  0.885
   spin  2
    eigenvalues: 
  0.882  0.888  0.895
    eigenvectors:
  0.000  0.000  1.000
  0.500  0.500  0.000
  0.500  0.500  0.000
    occupations:
  0.895 -0.000 -0.000
 -0.000  0.885  0.003
 -0.000  0.003  0.885
atomic mag. moment =     0.000000
atom   18   Tr[ns(na)] (up, down, total) =   2.65759  2.65759  5.31519
   spin  1
    eigenvalues: 
  0.878  0.886  0.894
    eigenvectors:
  0.000  0.000  1.000
  0.500  0.500  0.000
  0.500  0.500  0.000
    occupations:
  0.894 -0.000 -0.000
 -0.000  0.882  0.004
 -0.000  0.004  0.882
   spin  2
    eigenvalues: 
  0.878  0.886  0.894
    eigenvectors:
  0.000  0.000  1.000
  0.500  0.500  0.000
  0.500  0.500  0.000
    occupations:
  0.894 -0.000 -0.000
 -0.000  0.882  0.004
 -0.000  0.004  0.882
atomic mag. moment =     0.000000
atom   19   Tr[ns(na)] (up, down, total) =   2.65789  2.65789  5.31578
   spin  1
    eigenvalues: 
  0.878  0.886  0.894
    eigenvectors:
  0.000  0.000  1.000
  0.501  0.499  0.000
  0.499  0.501  0.000
    occupations:
  0.894 -0.000  0.000
 -0.000  0.882 -0.004
  0.000 -0.004  0.882
   spin  2
    eigenvalues: 
  0.878  0.886  0.894
    eigenvectors:
  0.000  0.000  1.000
  0.501  0.499  0.000
  0.499  0.501  0.000
    occupations:
  0.894 -0.000  0.000
 -0.000  0.882 -0.004
  0.000 -0.004  0.882
atomic mag. moment =    -0.000000
atom   20   Tr[ns(na)] (up, down, total) =   2.65789  2.65789  5.31578
   spin  1
    eigenvalues: 
  0.878  0.886  0.894
    eigenvectors:
  0.000  0.000  1.000
  0.499  0.501  0.000
  0.501  0.499  0.000
    occupations:
  0.894  0.000 -0.000
  0.000  0.882 -0.004
 -0.000 -0.004  0.882
   spin  2
    eigenvalues: 
  0.878  0.886  0.894
    eigenvectors:
  0.000  0.000  1.000
  0.499  0.501  0.000
  0.501  0.499  0.000
    occupations:
  0.894  0.000 -0.000
  0.000  0.882 -0.004
 -0.000 -0.004  0.882
atomic mag. moment =    -0.000000
atom   21   Tr[ns(na)] (up, down, total) =   2.65787  2.65787  5.31573
   spin  1
    eigenvalues: 
  0.878  0.886  0.894
    eigenvectors:
  0.000  0.000  1.000
  0.500  0.500  0.000
  0.500  0.500  0.000
    occupations:
  0.894 -0.000 -0.000
 -0.000  0.882  0.004
 -0.000  0.004  0.882
   spin  2
    eigenvalues: 
  0.878  0.886  0.894
    eigenvectors:
  0.000  0.000  1.000
  0.500  0.500  0.000
  0.500  0.500  0.000
    occupations:
  0.894 -0.000 -0.000
 -0.000  0.882  0.004
 -0.000  0.004  0.882
atomic mag. moment =     0.000000
atom   22   Tr[ns(na)] (up, down, total) =   2.65780  2.65780  5.31560
   spin  1
    eigenvalues: 
  0.878  0.886  0.894
    eigenvectors:
  0.000  0.000  1.000
  0.500  0.500  0.000
  0.500  0.500  0.000
    occupations:
  0.894 -0.000 -0.000
 -0.000  0.882  0.004
 -0.000  0.004  0.882
   spin  2
    eigenvalues: 
  0.878  0.886  0.894
    eigenvectors:
  0.000  0.000  1.000
  0.500  0.500  0.000
  0.500  0.500  0.000
    occupations:
  0.894 -0.000 -0.000
 -0.000  0.882  0.004
 -0.000  0.004  0.882
atomic mag. moment =     0.000000
atom   23   Tr[ns(na)] (up, down, total) =   2.65789  2.65789  5.31578
   spin  1
    eigenvalues: 
  0.878  0.886  0.894
    eigenvectors:
  0.000  0.000  1.000
  0.501  0.499  0.000
  0.499  0.501  0.000
    occupations:
  0.894  0.000 -0.000
  0.000  0.882 -0.004
 -0.000 -0.004  0.882
   spin  2
    eigenvalues: 
  0.878  0.886  0.894
    eigenvectors:
  0.000  0.000  1.000
  0.501  0.499  0.000
  0.499  0.501  0.000
    occupations:
  0.894  0.000 -0.000
  0.000  0.882 -0.004
 -0.000 -0.004  0.882
atomic mag. moment =    -0.000000
atom   24   Tr[ns(na)] (up, down, total) =   2.65789  2.65789  5.31578
   spin  1
    eigenvalues: 
  0.878  0.886  0.894
    eigenvectors:
  0.000  0.000  1.000
  0.499  0.501  0.000
  0.501  0.499  0.000
    occupations:
  0.894 -0.000  0.000
 -0.000  0.882 -0.004
  0.000 -0.004  0.882
   spin  2
    eigenvalues: 
  0.878  0.886  0.894
    eigenvectors:
  0.000  0.000  1.000
  0.499  0.501  0.000
  0.501  0.499  0.000
    occupations:
  0.894 -0.000  0.000
 -0.000  0.882 -0.004
  0.000 -0.004  0.882
atomic mag. moment =    -0.000000
atom   25   Tr[ns(na)] (up, down, total) =   2.65817  2.65817  5.31635
   spin  1
    eigenvalues: 
  0.878  0.886  0.894
    eigenvectors:
  0.000  0.000  1.000
  0.499  0.501  0.000
  0.501  0.499  0.000
    occupations:
  0.894 -0.000 -0.000
 -0.000  0.882  0.004
 -0.000  0.004  0.882
   spin  2
    eigenvalues: 
  0.878  0.886  0.894
    eigenvectors:
  0.000  0.000  1.000
  0.499  0.501  0.000
  0.501  0.499  0.000
    occupations:
  0.894 -0.000 -0.000
 -0.000  0.882  0.004
 -0.000  0.004  0.882
atomic mag. moment =     0.000000
atom   26   Tr[ns(na)] (up, down, total) =   2.65843  2.65843  5.31685
   spin  1
    eigenvalues: 
  0.878  0.886  0.894
    eigenvectors:
  0.000  0.000  1.000
  0.499  0.501  0.000
  0.501  0.499  0.000
    occupations:
  0.894 -0.000 -0.000
 -0.000  0.882  0.004
 -0.000  0.004  0.882
   spin  2
    eigenvalues: 
  0.878  0.886  0.894
    eigenvectors:
  0.000  0.000  1.000
  0.499  0.501  0.000
  0.501  0.499  0.000
    occupations:
  0.894 -0.000 -0.000
 -0.000  0.882  0.004
 -0.000  0.004  0.882
atomic mag. moment =     0.000000
atom   27   Tr[ns(na)] (up, down, total) =   2.65840  2.65840  5.31679
   spin  1
    eigenvalues: 
  0.878  0.886  0.894
    eigenvectors:
  0.000  0.000  1.000
  0.500  0.500  0.000
  0.500  0.500  0.000
    occupations:
  0.894 -0.000  0.000
 -0.000  0.882 -0.004
  0.000 -0.004  0.882
   spin  2
    eigenvalues: 
  0.878  0.886  0.894
    eigenvectors:
  0.000  0.000  1.000
  0.500  0.500  0.000
  0.500  0.500  0.000
    occupations:
  0.894 -0.000  0.000
 -0.000  0.882 -0.004
  0.000 -0.004  0.882
atomic mag. moment =    -0.000000
atom   28   Tr[ns(na)] (up, down, total) =   2.65774  2.65774  5.31548
   spin  1
    eigenvalues: 
  0.878  0.886  0.894
    eigenvectors:
  0.000  0.000  1.000
  0.500  0.500  0.000
  0.500  0.500  0.000
    occupations:
  0.894  0.000 -0.000
  0.000  0.882 -0.004
 -0.000 -0.004  0.882
   spin  2
    eigenvalues: 
  0.878  0.886  0.894
    eigenvectors:
  0.000  0.000  1.000
  0.500  0.500  0.000
  0.500  0.500  0.000
    occupations:
  0.894  0.000 -0.000
  0.000  0.882 -0.004
 -0.000 -0.004  0.882
atomic mag. moment =    -0.000000
atom   29   Tr[ns(na)] (up, down, total) =   2.65808  2.65808  5.31617
   spin  1
    eigenvalues: 
  0.878  0.886  0.894
    eigenvectors:
  0.000  0.000  1.000
  0.500  0.500  0.000
  0.500  0.500  0.000
    occupations:
  0.894 -0.000 -0.000
 -0.000  0.882  0.004
 -0.000  0.004  0.882
   spin  2
    eigenvalues: 
  0.878  0.886  0.894
    eigenvectors:
  0.000  0.000  1.000
  0.500  0.500  0.000
  0.500  0.500  0.000
    occupations:
  0.894 -0.000 -0.000
 -0.000  0.882  0.004
 -0.000  0.004  0.882
atomic mag. moment =     0.000000
atom   30   Tr[ns(na)] (up, down, total) =   2.65833  2.65833  5.31665
   spin  1
    eigenvalues: 
  0.878  0.886  0.894
    eigenvectors:
  0.000  0.000  1.000
  0.499  0.501  0.000
  0.501  0.499  0.000
    occupations:
  0.894 -0.000 -0.000
 -0.000  0.882  0.004
 -0.000  0.004  0.882
   spin  2
    eigenvalues: 
  0.878  0.886  0.894
    eigenvectors:
  0.000  0.000  1.000
  0.499  0.501  0.000
  0.501  0.499  0.000
    occupations:
  0.894 -0.000 -0.000
 -0.000  0.882  0.004
 -0.000  0.004  0.882
atomic mag. moment =     0.000000
atom   31   Tr[ns(na)] (up, down, total) =   2.65840  2.65840  5.31679
   spin  1
    eigenvalues: 
  0.878  0.886  0.894
    eigenvectors:
  0.000  0.000  1.000
  0.500  0.500  0.000
  0.500  0.500  0.000
    occupations:
  0.894  0.000 -0.000
  0.000  0.882 -0.004
 -0.000 -0.004  0.882
   spin  2
    eigenvalues: 
  0.878  0.886  0.894
    eigenvectors:
  0.000  0.000  1.000
  0.500  0.500  0.000
  0.500  0.500  0.000
    occupations:
  0.894  0.000 -0.000
  0.000  0.882 -0.004
 -0.000 -0.004  0.882
atomic mag. moment =    -0.000000
atom   32   Tr[ns(na)] (up, down, total) =   2.65774  2.65774  5.31548
   spin  1
    eigenvalues: 
  0.878  0.886  0.894
    eigenvectors:
  0.000  0.000  1.000
  0.500  0.500  0.000
  0.500  0.500  0.000
    occupations:
  0.894 -0.000  0.000
 -0.000  0.882 -0.004
  0.000 -0.004  0.882
   spin  2
    eigenvalues: 
  0.878  0.886  0.894
    eigenvectors:
  0.000  0.000  1.000
  0.500  0.500  0.000
  0.500  0.500  0.000
    occupations:
  0.894 -0.000  0.000
 -0.000  0.882 -0.004
  0.000 -0.004  0.882
atomic mag. moment =    -0.000000
atom   33   Tr[ns(na)] (up, down, total) =   2.65817  2.65817  5.31635
   spin  1
    eigenvalues: 
  0.878  0.886  0.894
    eigenvectors:
  0.000  0.000  1.000
  0.501  0.499  0.000
  0.499  0.501  0.000
    occupations:
  0.894 -0.000 -0.000
 -0.000  0.882  0.004
 -0.000  0.004  0.882
   spin  2
    eigenvalues: 
  0.878  0.886  0.894
    eigenvectors:
  0.000  0.000  1.000
  0.501  0.499  0.000
  0.499  0.501  0.000
    occupations:
  0.894 -0.000 -0.000
 -0.000  0.882  0.004
 -0.000  0.004  0.882
atomic mag. moment =     0.000000
atom   34   Tr[ns(na)] (up, down, total) =   2.65843  2.65843  5.31685
   spin  1
    eigenvalues: 
  0.878  0.886  0.894
    eigenvectors:
  0.000  0.000  1.000
  0.501  0.499  0.000
  0.499  0.501  0.000
    occupations:
  0.894 -0.000 -0.000
 -0.000  0.882  0.004
 -0.000  0.004  0.882
   spin  2
    eigenvalues: 
  0.878  0.886  0.894
    eigenvectors:
  0.000  0.000  1.000
  0.501  0.499  0.000
  0.499  0.501  0.000
    occupations:
  0.894 -0.000 -0.000
 -0.000  0.882  0.004
 -0.000  0.004  0.882
atomic mag. moment =     0.000000
atom   35   Tr[ns(na)] (up, down, total) =   2.65774  2.65774  5.31548
   spin  1
    eigenvalues: 
  0.878  0.886  0.894
    eigenvectors:
  0.000  0.000  1.000
  0.500  0.500  0.000
  0.500  0.500  0.000
    occupations:
  0.894 -0.000  0.000
 -0.000  0.882 -0.004
  0.000 -0.004  0.882
   spin  2
    eigenvalues: 
  0.878  0.886  0.894
    eigenvectors:
  0.000  0.000  1.000
  0.500  0.500  0.000
  0.500  0.500  0.000
    occupations:
  0.894 -0.000  0.000
 -0.000  0.882 -0.004
  0.000 -0.004  0.882
atomic mag. moment =    -0.000000
atom   36   Tr[ns(na)] (up, down, total) =   2.65840  2.65840  5.31679
   spin  1
    eigenvalues: 
  0.878  0.886  0.894
    eigenvectors:
  0.000  0.000  1.000
  0.500  0.500  0.000
  0.500  0.500  0.000
    occupations:
  0.894  0.000 -0.000
  0.000  0.882 -0.004
 -0.000 -0.004  0.882
   spin  2
    eigenvalues: 
  0.878  0.886  0.894
    eigenvectors:
  0.000  0.000  1.000
  0.500  0.500  0.000
  0.500  0.500  0.000
    occupations:
  0.894  0.000 -0.000
  0.000  0.882 -0.004
 -0.000 -0.004  0.882
atomic mag. moment =    -0.000000
atom   37   Tr[ns(na)] (up, down, total) =   2.65808  2.65808  5.31617
   spin  1
    eigenvalues: 
  0.878  0.886  0.894
    eigenvectors:
  0.000  0.000  1.000
  0.500  0.500  0.000
  0.500  0.500  0.000
    occupations:
  0.894 -0.000 -0.000
 -0.000  0.882  0.004
 -0.000  0.004  0.882
   spin  2
    eigenvalues: 
  0.878  0.886  0.894
    eigenvectors:
  0.000  0.000  1.000
  0.500  0.500  0.000
  0.500  0.500  0.000
    occupations:
  0.894 -0.000 -0.000
 -0.000  0.882  0.004
 -0.000  0.004  0.882
atomic mag. moment =     0.000000
atom   38   Tr[ns(na)] (up, down, total) =   2.65833  2.65833  5.31665
   spin  1
    eigenvalues: 
  0.878  0.886  0.894
    eigenvectors:
  0.000  0.000  1.000
  0.501  0.499  0.000
  0.499  0.501  0.000
    occupations:
  0.894 -0.000 -0.000
 -0.000  0.882  0.004
 -0.000  0.004  0.882
   spin  2
    eigenvalues: 
  0.878  0.886  0.894
    eigenvectors:
  0.000  0.000  1.000
  0.501  0.499  0.000
  0.499  0.501  0.000
    occupations:
  0.894 -0.000 -0.000
 -0.000  0.882  0.004
 -0.000  0.004  0.882
atomic mag. moment =     0.000000
atom   39   Tr[ns(na)] (up, down, total) =   2.65774  2.65774  5.31548
   spin  1
    eigenvalues: 
  0.878  0.886  0.894
    eigenvectors:
  0.000  0.000  1.000
  0.500  0.500  0.000
  0.500  0.500  0.000
    occupations:
  0.894  0.000 -0.000
  0.000  0.882 -0.004
 -0.000 -0.004  0.882
   spin  2
    eigenvalues: 
  0.878  0.886  0.894
    eigenvectors:
  0.000  0.000  1.000
  0.500  0.500  0.000
  0.500  0.500  0.000
    occupations:
  0.894  0.000 -0.000
  0.000  0.882 -0.004
 -0.000 -0.004  0.882
atomic mag. moment =    -0.000000
atom   40   Tr[ns(na)] (up, down, total) =   2.65840  2.65840  5.31679
   spin  1
    eigenvalues: 
  0.878  0.886  0.894
    eigenvectors:
  0.000  0.000  1.000
  0.500  0.500  0.000
  0.500  0.500  0.000
    occupations:
  0.894 -0.000  0.000
 -0.000  0.882 -0.004
  0.000 -0.004  0.882
   spin  2
    eigenvalues: 
  0.878  0.886  0.894
    eigenvectors:
  0.000  0.000  1.000
  0.500  0.500  0.000
  0.500  0.500  0.000
    occupations:
  0.894 -0.000  0.000
 -0.000  0.882 -0.004
  0.000 -0.004  0.882
atomic mag. moment =    -0.000000
atom   41   Tr[ns(na)] (up, down, total) =   2.65834  2.65834  5.31667
   spin  1
    eigenvalues: 
  0.878  0.886  0.894
    eigenvectors:
  0.000  0.000  1.000
  0.500  0.500  0.000
  0.500  0.500  0.000
    occupations:
  0.894 -0.000 -0.000
 -0.000  0.882  0.004
 -0.000  0.004  0.882
   spin  2
    eigenvalues: 
  0.878  0.886  0.894
    eigenvectors:
  0.000  0.000  1.000
  0.500  0.500  0.000
  0.500  0.500  0.000
    occupations:
  0.894 -0.000 -0.000
 -0.000  0.882  0.004
 -0.000  0.004  0.882
atomic mag. moment =     0.000000
atom   42   Tr[ns(na)] (up, down, total) =   2.65815  2.65815  5.31629
   spin  1
    eigenvalues: 
  0.878  0.886  0.894
    eigenvectors:
  0.000  0.000  1.000
  0.500  0.500  0.000
  0.500  0.500  0.000
    occupations:
  0.894 -0.000 -0.000
 -0.000  0.882  0.004
 -0.000  0.004  0.882
   spin  2
    eigenvalues: 
  0.878  0.886  0.894
    eigenvectors:
  0.000  0.000  1.000
  0.500  0.500  0.000
  0.500  0.500  0.000
    occupations:
  0.894 -0.000 -0.000
 -0.000  0.882  0.004
 -0.000  0.004  0.882
atomic mag. moment =     0.000000
atom   43   Tr[ns(na)] (up, down, total) =   2.65794  2.65794  5.31588
   spin  1
    eigenvalues: 
  0.878  0.886  0.894
    eigenvectors:
  0.000  0.000  1.000
  0.499  0.501  0.000
  0.501  0.499  0.000
    occupations:
  0.894 -0.000  0.000
 -0.000  0.882 -0.004
  0.000 -0.004  0.882
   spin  2
    eigenvalues: 
  0.878  0.886  0.894
    eigenvectors:
  0.000  0.000  1.000
  0.499  0.501  0.000
  0.501  0.499  0.000
    occupations:
  0.894 -0.000  0.000
 -0.000  0.882 -0.004
  0.000 -0.004  0.882
atomic mag. moment =    -0.000000
atom   44   Tr[ns(na)] (up, down, total) =   2.65794  2.65794  5.31588
   spin  1
    eigenvalues: 
  0.878  0.886  0.894
    eigenvectors:
  0.000  0.000  1.000
  0.501  0.499  0.000
  0.499  0.501  0.000
    occupations:
  0.894  0.000 -0.000
  0.000  0.882 -0.004
 -0.000 -0.004  0.882
   spin  2
    eigenvalues: 
  0.878  0.886  0.894
    eigenvectors:
  0.000  0.000  1.000
  0.501  0.499  0.000
  0.499  0.501  0.000
    occupations:
  0.894  0.000 -0.000
  0.000  0.882 -0.004
 -0.000 -0.004  0.882
atomic mag. moment =    -0.000000
atom   45   Tr[ns(na)] (up, down, total) =   2.65836  2.65836  5.31671
   spin  1
    eigenvalues: 
  0.878  0.886  0.894
    eigenvectors:
  0.000  0.000  1.000
  0.500  0.500  0.000
  0.500  0.500  0.000
    occupations:
[...]
     8.2604   8.3048   8.3065   8.3285   8.4685   8.4705   8.4746   8.4896
     8.4919   8.5076   8.5887   8.5888   8.6012   8.8959   8.9996   9.0000
     9.0500   9.0520   9.0523   9.0571   9.0850   9.1455   9.2757   9.3001
     9.4312   9.4334   9.4339   9.6297   9.7345   9.7378   9.7529   9.7536
     9.7707   9.8415  10.0658  10.1041  10.1490  10.2786  10.2801  10.7670
    11.2538  11.2540  11.3908  11.3947  11.4122  11.4147  11.5024  11.6539
    11.6540  11.8564  11.8565  11.8644  11.8738  11.8779  11.9524  11.9526
    11.9900  12.0341  12.0524  12.0835  12.0837  12.0895  12.0965  12.0968
    12.1027  12.1034  12.1787  12.2803  12.2807  12.3007  12.3948  12.3950
    12.5102  12.7134  12.7139  12.9794  13.2524  13.4146  13.5354  13.5647
    13.5647  13.5848  13.6027  13.6030  13.8612  13.8699  13.8705  14.2001
    14.4304  14.5953  14.5958  14.8644  14.9685  14.9960  14.9961  15.6832
    15.6835  15.7829  15.8047  15.8059  15.9302  16.2082  16.4886  16.8646
    16.9013  16.9015  17.0334  17.0532  17.0534  17.1320  17.1379  17.1381
    17.1399  17.2251  17.2252  17.3471  17.3566  17.4749  17.4750  18.1449
    19.0696  20.3677  20.3691  21.4279  21.8329  21.8344  22.3202  22.4659
    22.4660  22.7670  22.9890  22.9903  23.1450  23.1462  23.1865  23.1933
    23.2178  23.3682  23.4188  23.4199  24.0093  24.4028  24.7580  24.7589
    25.0428  25.0429  25.1095  25.1101  25.2463  25.7202  25.7980  25.8088
    25.9803  26.0342  26.0778  26.0857  26.3519  26.4735  26.4743  26.4890
    26.5160  26.5178  26.7888  26.9748  26.9759  26.9997  27.0008  27.1739
    27.3852  27.5529  27.6886  27.6977  27.6983  27.9884  28.5456  28.5470
    28.5934  28.6046  28.6050  28.6874  28.7326  28.7329  28.7968  28.9894
    29.3355  29.3527  29.6694  29.6700  29.6708  29.6716  29.9478  29.9487
    30.0383  30.1688  30.2829  30.5525  30.5541  30.6111  30.6808  31.0136
    31.0145  31.1653  31.1877  31.4223  31.4647  31.4652  31.6928  31.9131
    31.9147  32.1231  32.1690  32.1724  32.1728  32.2792  32.3133  32.3556
    32.3562  33.0001  33.3902  33.4914  33.5367  33.5372  33.7190  33.8673
    33.8904  34.1157  34.1161  34.1502  34.1504  34.1627  34.2694  34.2736
    34.3507  34.5900  34.7599  34.8378  34.8379  35.1487  35.4393  35.5243
    35.5251  35.6213  35.6217  35.6949  35.8667  35.8672  35.9750  35.9925
    36.1557  36.1814  36.6331  36.6341  36.8214  36.8320  36.9941  36.9944
    37.2481  37.2602  37.5291  37.5302  37.5536  38.0888  38.1058  38.3035
    38.3039  38.3930  38.3934  38.7631  38.7638  38.9650  38.9666  39.1002
    39.1003  39.2200  39.4484  39.5288  39.6145  39.6156  39.7879  39.7883
    39.8547  40.0073  40.0092  40.0489  40.1046  40.1547  40.1549  40.2129
    40.2139  40.2143  40.3152  40.3155  40.3531  40.5192  40.6612  40.8124
    40.9912  40.9914  41.0141  41.2385  41.4029  41.4034  41.5855  41.7101
    41.8911  41.9172  41.9180  42.0241  42.0884  42.2713  42.3071  42.3965
    42.4695  42.5248  42.5251  42.5716  42.8319  42.8321  42.8645  42.8651
    42.9368  43.0374  43.0941  43.0946  43.2395  43.5948  43.5957  44.0365
    44.2567  44.2575  44.2589  44.2621  44.3249  44.3261  44.3755  44.4481
    44.6696  44.6697  44.7561  44.7700  44.7702  44.7769  44.9329  44.9503
    44.9506  44.9524  45.2230  45.2232  45.2455  45.2547  45.2552  45.3292
    45.4590  45.4593  45.4808  45.6583  45.6811  45.7239  45.7704  46.0949
    46.2204  46.4090  46.4091  46.6246  46.6249  46.6603  46.6605  46.7045
    46.7982  46.9726  46.9733  46.9819  47.0307  47.1442  47.1447  47.1869
    47.4226  47.4236  47.4940  47.4997  47.6443  47.6456  47.6777  47.6985
    47.7159  47.7629  47.7716  47.7720  47.8002  48.0209  48.0211  48.0315
    48.1318  48.2381  48.2787  48.2799  48.3073  48.3085  48.3700  48.3704
    48.6522  48.7274  48.8152  48.8931  48.8935  48.9237  48.9484  49.0388
    49.0781  49.1878  49.1882  49.1933  49.2821  49.3546  49.3552  49.4112
    49.8139  49.8149  49.9489  50.0106  50.0755  50.0758  50.1087  50.1210
    50.1215  50.4913  50.5781  50.5784  50.5944  50.5967  50.6303  50.6889
    50.7204  50.7738  50.7742  51.0123  51.0697  51.3343  51.3516  51.3521
    51.3972  51.4329  51.4765  51.4882  51.5484  51.5486  51.7185  51.7189
    52.0140  52.0848  52.2699  52.3167  52.3197  52.4839  52.5122  52.5353
    52.5355  52.5513  52.5623  52.5954  52.5960  52.6369  52.6374  53.0527
    53.2428  53.2429  53.6558  53.6563  53.7481  53.7483  53.8752  53.8758
    53.8859  53.9101  53.9108  53.9199  53.9627  54.0883  54.1949  54.2234
    54.5025  54.5027  54.6292  54.6914  54.7838  54.7842  54.9090  55.0014
    55.0801  55.1048  55.1558  55.1879  55.2218  55.3024  55.3029  55.3871

          k = 0.2500-0.2500 0.3630 ( 14760 PWs)   bands (ev):

   -60.7987 -60.7978 -60.7972 -60.7966 -60.7961 -60.7953 -60.7952 -60.7940
   -60.7904 -60.7897 -60.7894 -60.7890 -60.7888 -60.7884 -60.7884 -60.7879
   -30.9990 -30.9978 -30.9976 -30.9972 -30.9967 -30.9963 -30.9960 -30.9955
   -30.9906 -30.9901 -30.9896 -30.9891 -30.9888 -30.9885 -30.9880 -30.9872
   -30.8024 -30.7998 -30.7991 -30.7990 -30.7973 -30.7957 -30.7953 -30.7948
   -30.6806 -30.6752 -30.6751 -30.6730 -30.6697 -30.6678 -30.6676 -30.6624
   -30.6076 -30.6072 -30.6064 -30.6060 -30.6059 -30.6058 -30.6049 -30.6045
   -30.5858 -30.5853 -30.5850 -30.5850 -30.5848 -30.5847 -30.5847 -30.5846
    -7.1663  -6.8352  -6.8336  -6.7584  -6.5815  -6.4318  -6.3980  -6.3950
    -6.3329  -6.3304  -6.3034  -6.2292  -6.1915  -6.1895  -6.1333  -6.0780
    -5.9814  -5.9175  -5.9079  -5.9000  -5.8993  -5.8596  -5.8560  -5.8530
    -5.8411  -5.8359  -5.7366  -5.6784  -5.6780  -5.6529  -5.6172  -5.5262
     4.6270   4.6486   5.0383   5.0384   5.0544   5.0594   5.4908   5.6088
     5.6280   5.6306   5.6803   5.6819   5.6961   5.7042   5.7069   5.7848
     5.8152   5.8473   5.8561   5.8658   5.9021   5.9027   5.9348   5.9377
     6.0380   6.0387   6.0452   6.0468   6.1001   6.1658   6.1668   6.2044
     6.2915   6.7066   6.8392   6.8406   6.9025   6.9043   7.0600   7.0666
     7.2192   7.3132   7.3156   7.4774   7.5102   7.5121   7.5281   7.6626
     7.6633   7.8440   7.9410   7.9419   8.0202   8.0259   8.0268   8.1374
     8.2367   8.2418   8.2501   8.3763   8.3784   8.4350   8.4374   8.4614
     8.4614   8.4931   8.5470   8.5475   8.6352   8.7011   8.7951   8.8575
     8.8586   8.8690   8.8694   8.8994   9.0272   9.1308   9.2240   9.2669
     9.3150   9.3162   9.3308   9.4859   9.6439   9.6449   9.7585   9.7661
     9.8085   9.8094  10.0386  10.0406  10.0681  10.2036  10.2048  10.6071
    11.1899  11.1899  11.4003  11.6038  11.6846  11.6848  11.6870  11.7660
    11.8599  11.8600  11.9828  11.9829  11.9955  11.9955  11.9962  12.0663
    12.1063  12.1204  12.2116  12.2463  12.2464  12.2484  12.2518  12.3298
    12.3761  12.3762  12.3908  12.3908  12.4219  12.4374  12.7038  12.7040
    12.7711  12.7715  12.8182  12.9150  13.1331  13.1882  13.3897  13.4217
    13.4271  13.4271  13.4953  13.4956  13.7018  13.7020  13.7025  14.0630
    14.7069  14.7400  14.7404  15.0643  15.1605  15.1801  15.1801  15.7235
    15.7238  15.8748  15.9107  15.9209  15.9412  16.2320  16.3380  16.3381
    16.3770  16.6804  16.7911  16.7913  16.9055  16.9056  16.9091  16.9616
    16.9628  17.0100  17.0106  17.3153  17.3154  17.4096  17.4097  17.9384
    19.5240  20.7605  20.7619  21.6995  21.9075  22.2071  22.2087  22.3551
    22.3567  22.5725  22.6020  22.9701  22.9984  23.1749  23.3772  23.3781
    23.6376  23.8389  23.8400  24.3383  24.4117  24.6125  24.9507  24.9516
    25.0189  25.3125  25.3126  25.3709  25.5067  25.5911  25.5923  25.6830
    26.0652  26.1056  26.1071  26.1225  26.1421  26.2068  26.2972  26.5132
    26.5893  26.5900  26.8109  26.8119  26.9329  26.9338  27.1175  27.4824
    27.5114  27.5358  27.8665  27.9117  27.9121  28.0609  28.2813  28.2936
    28.2939  28.4478  28.4490  28.6061  28.6825  28.7261  28.7269  28.7337
    28.7581  28.7589  28.8119  29.2783  29.5545  29.6793  29.6800  29.8108
    29.9093  29.9122  29.9128  30.1247  30.1253  30.1264  30.3852  30.4005
    30.6289  30.6296  30.6990  31.1691  31.5297  31.5346  31.6165  31.6171
    31.7840  31.7845  31.8070  32.3486  32.8082  32.8087  32.8814  32.9998
    33.2964  33.2971  33.3816  33.3819  33.5626  33.5628  33.6252  33.9043
    34.0328  34.0461  34.3061  34.3217  34.3218  34.5581  34.6773  34.7415
    34.8399  34.9045  34.9048  34.9069  35.2585  35.4110  35.5107  35.6109
    35.6113  35.7464  35.8572  35.8575  35.9884  36.0727  36.1013  36.1020
    36.2240  36.7057  36.7060  36.7452  37.0786  37.1311  37.3209  37.3420
    37.3431  37.3896  37.5127  37.6332  37.6488  37.6490  37.7163  37.7165
    37.9649  37.9651  37.9690  38.5418  38.7897  38.7905  38.9067  39.0206
    39.0210  39.1322  39.1322  39.1697  39.2286  39.3581  39.4209  39.4215
    39.5334  39.7032  39.7136  39.7936  40.0270  40.0273  40.0716  40.0719
    40.1288  40.1752  40.2057  40.2138  40.2774  40.2780  40.5829  40.6535
    40.6560  40.8016  40.8217  40.8781  40.8782  40.9696  40.9698  40.9845
    41.2326  41.4446  41.5870  41.8457  41.8460  41.9450  42.3175  42.3331
    42.3447  42.3448  42.5246  42.7128  42.8763  42.9177  42.9180  43.0512
    43.0513  43.2480  43.3503  43.3506  43.3519  43.7378  43.7380  43.8827
    44.3503  44.4421  44.4429  44.5351  44.5354  44.5469  44.5473  44.5671
    44.6419  44.6558  44.7539  44.9424  45.0844  45.1993  45.2671  45.2675
    45.2986  45.3468  45.5853  45.6074  45.6185  45.6190  45.6990  45.7031
    45.7033  45.7700  46.0901  46.1617  46.1619  46.2163  46.2167  46.2172
    46.2376  46.3651  46.4537  46.5747  46.5753  46.6274  46.7365  46.7723
    46.7728  46.8416  46.9156  46.9605  47.0598  47.0602  47.1552  47.2714
    47.3882  47.4094  47.4097  47.4195  47.4202  47.4287  47.4296  47.5203
    47.5902  47.5976  47.7906  47.8987  47.8995  47.9326  47.9334  48.1569
    48.4018  48.4020  48.4795  48.5512  48.5516  48.5695  48.6467  48.6888
    48.7001  48.7492  48.9222  48.9230  49.0047  49.0399  49.0403  49.1546
    49.3308  49.3311  49.4539  49.4542  49.4780  49.6504  49.6506  49.7688
    49.7755  49.7794  49.9766  50.0028  50.0032  50.2597  50.3981  50.4824
    50.4828  50.4903  50.4905  50.5073  50.5996  50.6178  50.6269  50.7136
    50.7731  50.8101  50.8912  50.8917  50.8946  50.9359  50.9359  51.0859
    51.2942  51.5438  51.5462  51.6517  51.6520  51.7195  51.7200  51.8637
    51.8986  51.9287  52.0159  52.2243  52.2245  52.2281  52.2285  52.3806
    52.4280  52.5383  52.6055  52.6769  52.6773  52.7508  53.0033  53.0034
    53.0496  53.2727  53.3036  53.3037  53.3113  53.6624  53.7315  53.7494
    53.7495  53.9337  53.9481  54.0659  54.0662  54.1567  54.2012  54.2123
    54.3216  54.4169  54.4170  54.5303  54.5951  54.7011  54.7014  55.0143
    55.0144  55.2025  55.2028  55.4854  55.6062  55.6065  55.6417  55.7318

          k = 0.2500-0.2500-0.7260 ( 14788 PWs)   bands (ev):

   -60.7947 -60.7947 -60.7943 -60.7937 -60.7934 -60.7931 -60.7928 -60.7928
   -60.7925 -60.7923 -60.7919 -60.7918 -60.7917 -60.7916 -60.7908 -60.7907
   -30.9942 -30.9936 -30.9935 -30.9934 -30.9930 -30.9929 -30.9929 -30.9926
   -30.9925 -30.9925 -30.9925 -30.9923 -30.9923 -30.9923 -30.9922 -30.9922
   -30.7424 -30.7423 -30.7380 -30.7380 -30.7378 -30.7377 -30.7368 -30.7368
   -30.7341 -30.7340 -30.7323 -30.7322 -30.7321 -30.7320 -30.7286 -30.7286
   -30.5967 -30.5964 -30.5962 -30.5959 -30.5959 -30.5956 -30.5955 -30.5954
   -30.5954 -30.5953 -30.5952 -30.5952 -30.5952 -30.5950 -30.5947 -30.5947
    -6.8233  -6.8208  -6.5508  -6.5506  -6.5505  -6.5478  -6.4758  -6.4716
    -6.3266  -6.3266  -6.1571  -6.1570  -6.1568  -6.1500  -6.1195  -6.1171
    -5.9929  -5.9927  -5.9926  -5.9859  -5.8918  -5.8916  -5.8344  -5.8344
    -5.8343  -5.8333  -5.8184  -5.8183  -5.8049  -5.7999  -5.7232  -5.7178
     5.0743   5.0779   5.1241   5.1280   5.4354   5.4355   5.4356   5.4356
     5.4497   5.4497   5.4624   5.4630   5.7722   5.7744   5.9049   5.9063
     5.9080   5.9080   5.9104   5.9106   5.9993   6.0016   6.0018   6.0022
     6.0062   6.0074   6.2372   6.2412   6.2424   6.2424   6.3188   6.3193
     6.6035   6.6055   6.6080   6.6081   6.7311   6.7324   6.9838   6.9843
     7.1321   7.1330   7.1333   7.1333   7.2067   7.2069   7.6337   7.6353
     7.6360   7.6361   7.6801   7.6836   7.8070   7.8097   7.9982   7.9993
     8.1020   8.1036   8.1056   8.1057   8.5627   8.5641   8.5645   8.5645
     8.6404   8.6408   8.6723   8.6725   8.7033   8.7034   8.7232   8.7233
     8.8504   8.8514   8.8516   8.8516   9.0233   9.0247   9.1415   9.1433
     9.2326   9.2340   9.2470   9.2483   9.5163   9.5163   9.5170   9.5172
     9.6896   9.6904  10.0562  10.0588  10.0589  10.0590  10.3332  10.3343
    11.2849  11.2849  11.5772  11.5775  11.5776  11.5777  11.9808  11.9808
    11.9994  11.9996  12.0390  12.0391  12.1977  12.1979  12.1979  12.1980
    12.3976  12.3976  12.4600  12.4604  12.4685  12.4685  12.4751  12.4753
    12.4753  12.4754  12.6493  12.6498  12.7536  12.7539  12.7540  12.7541
    12.8839  12.8840  12.9220  12.9222  13.1221  13.1225  13.1225  13.1226
    13.1413  13.1415  13.3956  13.3963  13.3963  13.3963  13.7262  13.7264
    15.2244  15.2247  15.2969  15.2975  15.2975  15.2983  15.6665  15.6666
    15.6666  15.6667  15.6909  15.6910  15.9426  15.9428  16.2016  16.2018
    16.3730  16.3735  16.3787  16.3791  16.6072  16.6073  16.6074  16.6076
    16.8516  16.8517  17.3334  17.3335  17.3335  17.3336  17.4005  17.4005
    20.5956  20.5965  21.5482  21.5487  21.5493  21.5508  22.2035  22.2046
    22.9127  22.9131  22.9136  22.9153  22.9801  22.9814  24.0198  24.0201
    24.1338  24.1349  24.3341  24.3353  24.8396  24.8401  24.8408  24.8415
    25.0742  25.0750  25.7784  25.7788  25.7797  25.7798  25.8092  25.8093
    25.8631  25.8634  26.1020  26.1021  26.2924  26.2928  26.2930  26.2935
    26.4437  26.4451  26.6738  26.6743  26.6746  26.6753  27.5242  27.5247
    27.8065  27.8070  27.8074  27.8082  27.9322  27.9327  28.1294  28.1295
    28.3001  28.3008  28.4748  28.4751  28.4755  28.4764  28.4795  28.4800
    28.8672  28.8678  28.9460  28.9462  28.9463  28.9471  29.2688  29.2692
    29.3076  29.3078  29.7787  29.7796  29.9830  29.9830  29.9833  29.9837
    30.2117  30.2122  31.0782  31.0784  31.0785  31.0790  31.7134  31.7135
    32.1657  32.1663  32.1665  32.1670  32.8536  32.8544  33.0333  33.0340
    33.1945  33.1949  33.1954  33.1958  33.6890  33.6892  33.7585  33.7588
    34.3867  34.3867  34.5946  34.5946  34.5952  34.5957  35.1773  35.1775
    35.4999  35.5015  35.7168  35.7176  35.7193  35.7197  35.7197  35.7198
    35.7412  35.7421  35.8885  35.8885  35.9891  35.9892  35.9896  35.9900
    36.6736  36.6742  36.9295  36.9295  36.9301  36.9301  37.1047  37.1052
    37.1721  37.1721  37.1724  37.1728  37.9297  37.9298  38.4125  38.4127
    38.4129  38.4138  38.4474  38.4475  38.4641  38.4647  38.8569  38.8573
    38.8574  38.8578  38.8757  38.8763  39.0389  39.0394  39.0835  39.0835
    39.2453  39.2459  39.3236  39.3242  39.5962  39.5967  39.5970  39.5972
    39.6683  39.6684  39.7141  39.7145  39.8403  39.8404  39.8409  39.8412
    40.1495  40.1498  40.6752  40.6755  40.6757  40.6765  41.1754  41.1765
    41.6267  41.6270  41.9743  41.9744  42.0471  42.0475  42.2693  42.2694
    42.2696  42.2696  42.4277  42.4283  42.8041  42.8046  43.2787  43.2788
    43.2791  43.2798  43.8677  43.8678  43.8681  43.8682  43.9044  43.9051
    44.2680  44.2682  44.4747  44.4749  44.4752  44.4757  44.7567  44.7568
    44.8992  44.8994  44.8996  44.8998  45.0170  45.0170  45.4676  45.4681
    45.5551  45.5565  45.8360  45.8363  45.8365  45.8367  45.9944  45.9947
    46.0060  46.0060  46.0869  46.0869  46.0872  46.0872  46.2150  46.2152
    46.4644  46.4644  46.4648  46.4657  46.6821  46.6831  46.7400  46.7401
    46.8873  46.8874  46.9228  46.9229  46.9231  46.9242  46.9936  46.9951
    47.0781  47.0781  47.3227  47.3231  47.8522  47.8525  47.8528  47.8533
    48.0096  48.0099  48.2383  48.2387  48.2490  48.2491  48.2493  48.2500
    48.3621  48.3632  48.5202  48.5205  48.7688  48.7690  48.7691  48.7696
    49.1490  49.1496  49.1522  49.1524  49.1525  49.1529  49.4405  49.4406
    49.4942  49.4945  49.4961  49.4961  49.4965  49.4967  49.5230  49.5231
    49.7170  49.7171  49.8958  49.8962  50.0035  50.0038  50.0040  50.0046
    50.4616  50.4622  50.8175  50.8175  50.8179  50.8180  50.8626  50.8627
    50.9191  50.9194  50.9195  50.9199  51.0543  51.0551  51.1209  51.1211
    51.3437  51.3444  51.5532  51.5535  51.5536  51.5539  51.9629  51.9631
    52.0334  52.0334  52.0335  52.0339  52.2321  52.2327  52.2994  52.3004
    52.5863  52.5867  52.5869  52.5872  52.6049  52.6050  52.8634  52.8638
    53.0589  53.0592  53.3124  53.3128  53.3128  53.3130  53.3812  53.3816
    54.1073  54.1074  54.1949  54.1956  54.2783  54.2784  54.3879  54.3882
    54.4872  54.4874  54.4874  54.4881  55.1673  55.1675  55.1678  55.1678
    55.2772  55.2777  55.3928  55.3929  55.3930  55.3934  55.5283  55.5284

     the Fermi energy is    12.7132 ev

!    total energy              =   -4124.75757791 Ry
     Harris-Foulkes estimate   =   -4124.75757817 Ry
     estimated scf accuracy    <       0.00000027 Ry

     The total energy is the sum of the following terms:

     one-electron contribution =   -1365.40120834 Ry
     hartree contribution      =     934.03162712 Ry
     xc contribution           =    -627.48525246 Ry
     ewald contribution        =   -3065.87288853 Ry
     Hubbard energy            =      -0.02737591 Ry
     smearing contrib. (-TS)   =      -0.00247980 Ry

     total magnetization       =     0.00 Bohr mag/cell
     absolute magnetization    =     0.00 Bohr mag/cell

     convergence has been achieved in  11 iterations

     Writing output data file pwscf.save

     init_run     :     59.73s CPU     97.62s WALL (       1 calls)
     electrons    :  18120.20s CPU  21569.93s WALL (       1 calls)

     Called by init_run:
     wfcinit      :     47.51s CPU     83.54s WALL (       1 calls)
     potinit      :      1.41s CPU      2.56s WALL (       1 calls)

     Called by electrons:
     c_bands      :  17029.48s CPU  19702.21s WALL (      11 calls)
     sum_band     :    945.57s CPU   1705.56s WALL (      11 calls)
     v_of_rho     :      7.56s CPU     11.51s WALL (      12 calls)
     newd         :    142.76s CPU    148.25s WALL (      12 calls)
     mix_rho      :      1.20s CPU      2.08s WALL (      11 calls)

     Called by c_bands:
     init_us_2    :      5.68s CPU      5.89s WALL (     966 calls)
     cegterg      :  17003.85s CPU  19427.39s WALL (     462 calls)

     Called by *egterg:
     h_psi        :   3681.58s CPU   5415.53s WALL (    1261 calls)
     s_psi        :    367.96s CPU    368.42s WALL (    1303 calls)
     g_psi        :      4.46s CPU      4.47s WALL (     799 calls)
     cdiaghg      :  10671.37s CPU  10804.37s WALL (    1219 calls)

     Called by h_psi:
     add_vuspsi   :    363.11s CPU    363.35s WALL (    1261 calls)
     vhpsi        :    817.63s CPU   1060.60s WALL (    1261 calls)

     General routines
     calbec       :   1183.66s CPU   1603.13s WALL (    3488 calls)
     fft          :     10.51s CPU     19.20s WALL (     360 calls)
     ffts         :      0.18s CPU      0.32s WALL (      46 calls)
     fftw         :   2313.61s CPU   4070.86s WALL ( 1575844 calls)
     interpolate  :      1.44s CPU      2.59s WALL (      46 calls)
     davcio       :      4.55s CPU    590.19s WALL (    2856 calls)

     Parallel routines
     fft_scatter  :   1629.17s CPU   3377.87s WALL ( 1576250 calls)
     Hubbard U routines
     new_ns       :    132.89s CPU    517.64s WALL (      11 calls)
     vhpsi        :    817.63s CPU   1060.60s WALL (    1261 calls)

     PWSCF        :     5h 3m CPU        6h 1m WALL


   This run was terminated on:   2:26:30  11Feb2014            

=------------------------------------------------------------------------------=
   JOB DONE.
=------------------------------------------------------------------------------=
