
     Program PWSCF v.5.0.2 (svn rev. 9656) starts on 25Mar2014 at  4:29:20 

     This program is part of the open-source Quantum ESPRESSO suite
     for quantum simulation of materials; please cite
         "P. Giannozzi et al., J. Phys.:Condens. Matter 21 395502 (2009);
          URL http://www.quantum-espresso.org", 
     in publications or presentations arising from this work. More details at
     http://www.quantum-espresso.org/quote.php

     Parallel version (MPI), running on    16 processors
     R & G space division:  proc/nbgrp/npool/nimage =      16

     Current dimensions of program PWSCF are:
     Max number of different atomic species (ntypx) = 10
     Max number of k-points (npk) =  40000
     Max angular momentum in pseudopotentials (lmaxx) =  3
     Reading input from pwscf.in
Warning: card &CELL ignored
Warning: card / ignored

     Subspace diagonalization in iterative solution of the eigenvalue problem:
     a serial algorithm will be used


     Parallelization info
     --------------------
     sticks:   dense  smooth     PW     G-vecs:    dense   smooth      PW
     Min         356     114     31                84254    15234    2255
     Max         357     115     32                84261    15271    2270
     Sum        5697    1827    505              1348107   244131   36167



     bravais-lattice index     =            0
     lattice parameter (alat)  =      11.7541  a.u.
     unit-cell volume          =    7139.8207 (a.u.)^3
     number of atoms/cell      =           31
     number of atomic types    =            3
     number of electrons       =       238.00
     number of Kohn-Sham states=          357
     kinetic-energy cutoff     =      40.0000  Ry
     charge density cutoff     =     500.0000  Ry
     convergence threshold     =      1.0E-06
     mixing beta               =       0.3000
     number of iterations used =            8  plain     mixing
     Exchange-correlation      = SLA  PW   PBE  PBE ( 1 4 3 4 0)
     EXX-fraction              =        0.00
     nstep                     =           50


     celldm(1)=  11.754097  celldm(2)=   0.000000  celldm(3)=   0.000000
     celldm(4)=   0.000000  celldm(5)=   0.000000  celldm(6)=   0.000000

     crystal axes: (cart. coord. in units of alat)
               a(1) = (   1.000000   0.000000   0.000000 )  
               a(2) = (   0.000000   1.034513   0.000000 )  
               a(3) = (   0.000000   0.000000   4.249947 )  

     reciprocal axes: (cart. coord. in units 2 pi/alat)
               b(1) = (  1.000000  0.000000  0.000000 )  
               b(2) = (  0.000000  0.966638  0.000000 )  
               b(3) = (  0.000000  0.000000  0.235297 )  


     PseudoPot. # 1 for O  read from file:
     /home/camp/zhonxu/pseudo/o_pbe_v1.01.uspp.F.UPF
     MD5 check sum: 2bcb18d16ea4b960afae9ec6d52f22d2
     Pseudo is Ultrasoft + core correction, Zval =  6.0
     Generated by new atomic code, or converted to UPF format
     Using radial grid of  737 points,  5 beta functions with: 
                l(1) =   0
                l(2) =   0
                l(3) =   1
                l(4) =   1
                l(5) =   2
     Q(r) pseudized with  8 coefficients,  rinner =    0.900   0.900   0.900
                                                       0.900   0.900

     PseudoPot. # 2 for Rh read from file:
     /home/camp/zhonxu/pseudo/rh_pbe_v1.uspp.F.UPF
     MD5 check sum: 37b626987ad0dd8ec6bf4cc9ef289918
     Pseudo is Ultrasoft + core correction, Zval = 15.0
     Generated by new atomic code, or converted to UPF format
     Using radial grid of  969 points,  7 beta functions with: 
                l(1) =   0
                l(2) =   0
                l(3) =   1
                l(4) =   1
                l(5) =   2
                l(6) =   2
                l(7) =   2
     Q(r) pseudized with  6 coefficients,  rinner =    1.050   1.050   1.050
                                                       1.050   1.050

     PseudoPot. # 3 for H  read from file:
     /home/camp/zhonxu/pseudo/h_pbe_v1.uspp.F.UPF
     MD5 check sum: 3408e3ff4ec8b0a4e358431e7e038a48
     Pseudo is Ultrasoft, Zval =  1.0
     Generated by new atomic code, or converted to UPF format
     Using radial grid of  615 points,  2 beta functions with: 
                l(1) =   0
                l(2) =   0
     Q(r) pseudized with  8 coefficients,  rinner =    0.700

     atomic species   valence    mass     pseudopotential
        O0             6.00    15.99940     O ( 1.00)
        Rh1           15.00   102.90550     Rh( 1.00)
        H2             1.00     1.00794     H ( 1.00)

     Starting magnetic structure 
     atomic species   magnetization
        O0           0.000
        Rh1          0.000
        H2           0.000

     No symmetry found



   Cartesian axes

     site n.     atom                  positions (alat units)
         1           O0  tau(   1) = (   0.0000000   0.0000000   1.6092425  )
         2           O0  tau(   2) = (   0.0000000   0.5172566   1.7020614  )
         3           Rh1 tau(   3) = (   0.2500000   0.5172566   1.9209336  )
         4           Rh1 tau(   4) = (   0.0000000   0.0000000   1.9260761  )
         5           O0  tau(   5) = (   0.2500000   0.8379556   1.9243336  )
         6           O0  tau(   6) = (   0.2500000   0.1965575   1.9234411  )
         7           O0  tau(   7) = (   0.0000000   0.5172566   2.1185137  )
         8           O0  tau(   8) = (   0.0000000   0.0000000   2.2473721  )
         9           Rh1 tau(   9) = (   0.2500000   0.0000000   2.4498821  )
        10           Rh1 tau(  10) = (   0.0000000   0.5172566   2.4276124  )
        11           O0  tau(  11) = (   0.2500000   0.7138141   2.4560020  )
        12           O0  tau(  12) = (   0.2500000   0.3206991   2.4560870  )
        13           O0  tau(  13) = (   0.0000000   0.0000000   2.6421072  )
        14           O0  tau(  14) = (   0.5000000   0.0000000   1.6092425  )
        15           O0  tau(  15) = (   0.5000000   0.5172566   1.7020614  )
        16           Rh1 tau(  16) = (   0.7500000   0.5172566   1.9209336  )
        17           Rh1 tau(  17) = (   0.5000000   0.0000000   1.9260761  )
        18           O0  tau(  18) = (   0.7500000   0.8379556   1.9243336  )
        19           O0  tau(  19) = (   0.7500000   0.1965575   1.9234411  )
        20           O0  tau(  20) = (   0.5000000   0.5172566   2.1185137  )
        21           O0  tau(  21) = (   0.5000000   0.0000000   2.2473721  )
        22           Rh1 tau(  22) = (   0.7500000   0.0000000   2.4498821  )
        23           Rh1 tau(  23) = (   0.5000000   0.5172566   2.4276124  )
        24           O0  tau(  24) = (   0.7500000   0.7138141   2.4560020  )
        25           O0  tau(  25) = (   0.7500000   0.3206991   2.4560870  )
        26           O0  tau(  26) = (   0.5000000   0.0000000   2.6421072  )
        27           H2  tau(  27) = (  -0.0000700   0.6610229   1.6318947  )
        28           H2  tau(  28) = (   0.4999300   0.6610125   1.6318947  )
        29           H2  tau(  29) = (   0.1484400   0.0336527   1.5632581  )
        30           H2  tau(  30) = (   0.6484400   0.0336527   1.5632581  )
        31           O0  tau(  31) = (   0.5000100   0.5171324   2.6661619  )

     number of k points=    20  Methfessel-Paxton smearing, width (Ry)=  0.0100
                       cart. coord. in units 2pi/alat
        k(    1) = (   0.0000000   0.0000000   0.0000000), wk =   0.0625000
        k(    2) = (   0.0000000   0.2416596   0.0000000), wk =   0.1250000
        k(    3) = (   0.0000000  -0.4833191   0.0000000), wk =   0.0625000
        k(    4) = (   0.2500000   0.0000000   0.0000000), wk =   0.1250000
        k(    5) = (   0.2500000   0.2416596   0.0000000), wk =   0.1250000
        k(    6) = (   0.2500000  -0.4833191   0.0000000), wk =   0.1250000
        k(    7) = (  -0.5000000   0.0000000   0.0000000), wk =   0.0625000
        k(    8) = (  -0.5000000   0.2416596   0.0000000), wk =   0.1250000
        k(    9) = (  -0.5000000  -0.4833191   0.0000000), wk =   0.0625000
        k(   10) = (  -0.2500000   0.2416596   0.0000000), wk =   0.1250000
        k(   11) = (   0.0000000   0.0000000   0.0000000), wk =   0.0625000
        k(   12) = (   0.0000000   0.2416596   0.0000000), wk =   0.1250000
        k(   13) = (   0.0000000  -0.4833191   0.0000000), wk =   0.0625000
        k(   14) = (   0.2500000   0.0000000   0.0000000), wk =   0.1250000
        k(   15) = (   0.2500000   0.2416596   0.0000000), wk =   0.1250000
        k(   16) = (   0.2500000  -0.4833191   0.0000000), wk =   0.1250000
        k(   17) = (  -0.5000000   0.0000000   0.0000000), wk =   0.0625000
        k(   18) = (  -0.5000000   0.2416596   0.0000000), wk =   0.1250000
        k(   19) = (  -0.5000000  -0.4833191   0.0000000), wk =   0.0625000
        k(   20) = (  -0.2500000   0.2416596   0.0000000), wk =   0.1250000

     Dense  grid:  1348107 G-vectors     FFT dimensions: (  90,  90, 360)

     Smooth grid:   244131 G-vectors     FFT dimensions: (  48,  50, 216)

     Largest allocated arrays     est. size (Mb)     dimensions
        Kohn-Sham Wavefunctions        10.66 Mb     (   1957,  357)
        NL pseudopotentials            13.11 Mb     (   1957,  439)
        Each V/rho on FFT grid          5.69 Mb     ( 186300,   2)
        Each G-vector array             0.64 Mb     (  84258)
        G-vector shells                 0.31 Mb     (  41027)
     Largest temporary arrays     est. size (Mb)     dimensions
        Auxiliary wavefunctions        42.64 Mb     (   1957, 1428)
        Each subspace H/S matrix       31.12 Mb     (1428,1428)
        Each <psi_i|beta_j> matrix      2.39 Mb     (    439,  357)
        Arrays for rho mixing          22.74 Mb     ( 186300,   8)

     Check: negative/imaginary core charge=   -0.000003    0.000000

     Initial potential from superposition of free atoms
     Check: negative starting charge=(component1):   -0.321229
     Check: negative starting charge=(component2):   -0.321229

     starting charge  233.99915, renormalised to  238.00000

     negative rho (up, down):  0.327E+00 0.327E+00
     Starting wfc are  176 randomized atomic wfcs

     total cpu time spent up to now is      148.3 secs

     per-process dynamical memory:   304.2 Mb

     Self-consistent Calculation

     iteration #  1     ecut=    40.00 Ry     beta=0.30
     Davidson diagonalization with overlap
     ethr =  1.00E-02,  avg # of iterations =  6.0

     negative rho (up, down):  0.331E+00 0.331E+00

     total cpu time spent up to now is     1360.3 secs

     total energy              =   -1974.44901554 Ry
     Harris-Foulkes estimate   =   -1983.50773646 Ry
     estimated scf accuracy    <      19.37691871 Ry

     total magnetization       =     0.00 Bohr mag/cell
     absolute magnetization    =     0.01 Bohr mag/cell

     iteration #  2     ecut=    40.00 Ry     beta=0.30
     Davidson diagonalization with overlap
     ethr =  8.14E-03,  avg # of iterations =  3.0

     negative rho (up, down):  0.334E+00 0.334E+00

     total cpu time spent up to now is     1820.1 secs

     total energy              =   -1967.58368427 Ry
     Harris-Foulkes estimate   =   -1989.55555880 Ry
     estimated scf accuracy    <     219.37628519 Ry

     total magnetization       =     0.00 Bohr mag/cell
     absolute magnetization    =     0.01 Bohr mag/cell

     iteration #  3     ecut=    40.00 Ry     beta=0.30
     Davidson diagonalization with overlap
     ethr =  8.14E-03,  avg # of iterations =  3.0

     negative rho (up, down):  0.337E+00 0.337E+00

     total cpu time spent up to now is     2310.1 secs

     total energy              =   -1974.91161596 Ry
     Harris-Foulkes estimate   =   -1983.88611294 Ry
     estimated scf accuracy    <     126.48289038 Ry

     total magnetization       =     0.00 Bohr mag/cell
     absolute magnetization    =     0.00 Bohr mag/cell

     iteration #  4     ecut=    40.00 Ry     beta=0.30
     Davidson diagonalization with overlap
     ethr =  8.14E-03,  avg # of iterations =  2.2

     negative rho (up, down):  0.339E+00 0.339E+00

     total cpu time spent up to now is     2742.8 secs

     total energy              =   -1979.74861977 Ry
     Harris-Foulkes estimate   =   -1980.94428673 Ry
     estimated scf accuracy    <       8.07989072 Ry

     total magnetization       =     0.00 Bohr mag/cell
     absolute magnetization    =     0.00 Bohr mag/cell

     iteration #  5     ecut=    40.00 Ry     beta=0.30
     Davidson diagonalization with overlap
     ethr =  3.39E-03,  avg # of iterations =  1.0

     negative rho (up, down):  0.340E+00 0.340E+00

     total cpu time spent up to now is     3131.2 secs

     total energy              =   -1980.10680445 Ry
     Harris-Foulkes estimate   =   -1980.30421727 Ry
     estimated scf accuracy    <       1.51772401 Ry

     total magnetization       =     0.00 Bohr mag/cell
     absolute magnetization    =     0.00 Bohr mag/cell

     iteration #  6     ecut=    40.00 Ry     beta=0.30
     Davidson diagonalization with overlap
     ethr =  6.38E-04,  avg # of iterations =  2.6

     negative rho (up, down):  0.341E+00 0.341E+00

     total cpu time spent up to now is     3566.3 secs

     total energy              =   -1980.13740173 Ry
     Harris-Foulkes estimate   =   -1980.21049630 Ry
     estimated scf accuracy    <       1.28619983 Ry

     total magnetization       =     0.00 Bohr mag/cell
     absolute magnetization    =     0.00 Bohr mag/cell

     iteration #  7     ecut=    40.00 Ry     beta=0.30
     Davidson diagonalization with overlap
     ethr =  5.40E-04,  avg # of iterations =  1.3

     negative rho (up, down):  0.342E+00 0.342E+00

     total cpu time spent up to now is     3962.7 secs

     total energy              =   -1980.12775502 Ry
     Harris-Foulkes estimate   =   -1980.16507642 Ry
     estimated scf accuracy    <       0.49900417 Ry

     total magnetization       =     0.00 Bohr mag/cell
     absolute magnetization    =     0.00 Bohr mag/cell

     iteration #  8     ecut=    40.00 Ry     beta=0.30
     Davidson diagonalization with overlap
     ethr =  2.10E-04,  avg # of iterations =  3.5

     negative rho (up, down):  0.343E+00 0.343E+00

     total cpu time spent up to now is     4417.5 secs

     total energy              =   -1980.07998204 Ry
     Harris-Foulkes estimate   =   -1980.14870354 Ry
     estimated scf accuracy    <       0.72861445 Ry

     total magnetization       =     0.00 Bohr mag/cell
     absolute magnetization    =     0.00 Bohr mag/cell

     iteration #  9     ecut=    40.00 Ry     beta=0.30
     Davidson diagonalization with overlap
     ethr =  2.10E-04,  avg # of iterations =  1.6

     negative rho (up, down):  0.344E+00 0.344E+00

     total cpu time spent up to now is     4822.4 secs

     total energy              =   -1980.09131624 Ry
     Harris-Foulkes estimate   =   -1980.12487000 Ry
     estimated scf accuracy    <       0.31834636 Ry

     total magnetization       =     0.00 Bohr mag/cell
     absolute magnetization    =     0.00 Bohr mag/cell

     iteration # 10     ecut=    40.00 Ry     beta=0.30
     Davidson diagonalization with overlap
     ethr =  1.34E-04,  avg # of iterations =  4.3

     negative rho (up, down):  0.345E+00 0.345E+00

     total cpu time spent up to now is     5295.2 secs

     total energy              =   -1980.09458017 Ry
     Harris-Foulkes estimate   =   -1980.11357351 Ry
     estimated scf accuracy    <       0.17884925 Ry

     total magnetization       =     0.00 Bohr mag/cell
     absolute magnetization    =     0.00 Bohr mag/cell

     iteration # 11     ecut=    40.00 Ry     beta=0.30
     Davidson diagonalization with overlap
     ethr =  7.51E-05,  avg # of iterations =  2.7

     negative rho (up, down):  0.345E+00 0.345E+00

     total cpu time spent up to now is     5723.9 secs

     total energy              =   -1980.10104744 Ry
     Harris-Foulkes estimate   =   -1980.10808603 Ry
     estimated scf accuracy    <       0.04440032 Ry

     total magnetization       =     0.00 Bohr mag/cell
     absolute magnetization    =     0.00 Bohr mag/cell

     iteration # 12     ecut=    40.00 Ry     beta=0.30
     Davidson diagonalization with overlap
     ethr =  1.87E-05,  avg # of iterations =  7.0

     negative rho (up, down):  0.345E+00 0.345E+00

     total cpu time spent up to now is     6284.1 secs

     total energy              =   -1980.10068312 Ry
     Harris-Foulkes estimate   =   -1980.10645748 Ry
     estimated scf accuracy    <       0.03184188 Ry

     total magnetization       =     0.00 Bohr mag/cell
     absolute magnetization    =     0.00 Bohr mag/cell

     iteration # 13     ecut=    40.00 Ry     beta=0.30
     Davidson diagonalization with overlap
     ethr =  1.34E-05,  avg # of iterations =  4.1

     negative rho (up, down):  0.346E+00 0.346E+00

     total cpu time spent up to now is     6759.6 secs

     total energy              =   -1980.09111344 Ry
     Harris-Foulkes estimate   =   -1980.11471488 Ry
     estimated scf accuracy    <       0.58642076 Ry

     total magnetization       =     0.00 Bohr mag/cell
     absolute magnetization    =     0.00 Bohr mag/cell

     iteration # 14     ecut=    40.00 Ry     beta=0.30
     Davidson diagonalization with overlap
     ethr =  1.34E-05,  avg # of iterations =  3.2

     negative rho (up, down):  0.346E+00 0.346E+00

     total cpu time spent up to now is     7212.7 secs

     total energy              =   -1980.10351597 Ry
     Harris-Foulkes estimate   =   -1980.10595218 Ry
     estimated scf accuracy    <       0.02507899 Ry

     total magnetization       =     0.00 Bohr mag/cell
     absolute magnetization    =     0.00 Bohr mag/cell

     iteration # 15     ecut=    40.00 Ry     beta=0.30
     Davidson diagonalization with overlap
     ethr =  1.05E-05,  avg # of iterations =  1.0

     negative rho (up, down):  0.346E+00 0.346E+00

     total cpu time spent up to now is     7599.5 secs

     total energy              =   -1980.10436202 Ry
     Harris-Foulkes estimate   =   -1980.10517314 Ry
     estimated scf accuracy    <       0.00758640 Ry

     total magnetization       =     0.00 Bohr mag/cell
     absolute magnetization    =     0.00 Bohr mag/cell

     iteration # 16     ecut=    40.00 Ry     beta=0.30
     Davidson diagonalization with overlap
     ethr =  3.19E-06,  avg # of iterations =  1.1

     negative rho (up, down):  0.347E+00 0.347E+00

     total cpu time spent up to now is     7982.9 secs

     total energy              =   -1980.10472416 Ry
     Harris-Foulkes estimate   =   -1980.10486269 Ry
     estimated scf accuracy    <       0.00098100 Ry

     total magnetization       =     0.00 Bohr mag/cell
     absolute magnetization    =     0.00 Bohr mag/cell

     iteration # 17     ecut=    40.00 Ry     beta=0.30
     Davidson diagonalization with overlap
     ethr =  4.12E-07,  avg # of iterations =  1.0

     negative rho (up, down):  0.347E+00 0.347E+00

     total cpu time spent up to now is     8362.8 secs

     total energy              =   -1980.10467560 Ry
     Harris-Foulkes estimate   =   -1980.10491310 Ry
     estimated scf accuracy    <       0.00339034 Ry

     total magnetization       =     0.00 Bohr mag/cell
     absolute magnetization    =     0.00 Bohr mag/cell

     iteration # 18     ecut=    40.00 Ry     beta=0.30
     Davidson diagonalization with overlap
     ethr =  4.12E-07,  avg # of iterations =  1.0

     negative rho (up, down):  0.347E+00 0.347E+00

     total cpu time spent up to now is     8741.9 secs

     total energy              =   -1980.10479644 Ry
     Harris-Foulkes estimate   =   -1980.10482256 Ry
     estimated scf accuracy    <       0.00030788 Ry

     total magnetization       =     0.00 Bohr mag/cell
     absolute magnetization    =     0.00 Bohr mag/cell

     iteration # 19     ecut=    40.00 Ry     beta=0.30
     Davidson diagonalization with overlap
     ethr =  1.29E-07,  avg # of iterations =  1.0

     negative rho (up, down):  0.347E+00 0.347E+00

     total cpu time spent up to now is     9134.1 secs

     total energy              =   -1980.10480496 Ry
     Harris-Foulkes estimate   =   -1980.10481751 Ry
     estimated scf accuracy    <       0.00008263 Ry

     total magnetization       =     0.00 Bohr mag/cell
     absolute magnetization    =     0.00 Bohr mag/cell

     iteration # 20     ecut=    40.00 Ry     beta=0.30
     Davidson diagonalization with overlap
     ethr =  3.47E-08,  avg # of iterations =  1.0

     negative rho (up, down):  0.347E+00 0.347E+00

     total cpu time spent up to now is     9527.6 secs

     total energy              =   -1980.10480533 Ry
     Harris-Foulkes estimate   =   -1980.10481615 Ry
     estimated scf accuracy    <       0.00012925 Ry

     total magnetization       =     0.00 Bohr mag/cell
     absolute magnetization    =     0.00 Bohr mag/cell

     iteration # 21     ecut=    40.00 Ry     beta=0.30
     Davidson diagonalization with overlap
     ethr =  3.47E-08,  avg # of iterations =  1.0

     negative rho (up, down):  0.347E+00 0.347E+00

     total cpu time spent up to now is     9908.3 secs

     total energy              =   -1980.10480875 Ry
     Harris-Foulkes estimate   =   -1980.10481365 Ry
     estimated scf accuracy    <       0.00004220 Ry

     total magnetization       =     0.00 Bohr mag/cell
     absolute magnetization    =     0.00 Bohr mag/cell

     iteration # 22     ecut=    40.00 Ry     beta=0.30
     Davidson diagonalization with overlap
     ethr =  1.77E-08,  avg # of iterations =  1.0

     negative rho (up, down):  0.347E+00 0.347E+00

     total cpu time spent up to now is    10285.7 secs

     total energy              =   -1980.10481058 Ry
     Harris-Foulkes estimate   =   -1980.10481208 Ry
     estimated scf accuracy    <       0.00001095 Ry

     total magnetization       =     0.00 Bohr mag/cell
     absolute magnetization    =     0.00 Bohr mag/cell

     iteration # 23     ecut=    40.00 Ry     beta=0.30
     Davidson diagonalization with overlap
     ethr =  4.60E-09,  avg # of iterations =  1.0

     negative rho (up, down):  0.347E+00 0.347E+00

     total cpu time spent up to now is    10678.9 secs

     total energy              =   -1980.10481075 Ry
     Harris-Foulkes estimate   =   -1980.10481150 Ry
     estimated scf accuracy    <       0.00000423 Ry

     total magnetization       =     0.00 Bohr mag/cell
     absolute magnetization    =     0.01 Bohr mag/cell

     iteration # 24     ecut=    40.00 Ry     beta=0.30
     Davidson diagonalization with overlap
     ethr =  1.78E-09,  avg # of iterations =  1.0

     negative rho (up, down):  0.347E+00 0.347E+00

     total cpu time spent up to now is    11072.5 secs

     total energy              =   -1980.10481069 Ry
     Harris-Foulkes estimate   =   -1980.10481167 Ry
     estimated scf accuracy    <       0.00000695 Ry

     total magnetization       =     0.00 Bohr mag/cell
     absolute magnetization    =     0.01 Bohr mag/cell

     iteration # 25     ecut=    40.00 Ry     beta=0.30
     Davidson diagonalization with overlap
     ethr =  1.78E-09,  avg # of iterations =  1.0

     negative rho (up, down):  0.347E+00 0.347E+00

     total cpu time spent up to now is    11466.3 secs

     total energy              =   -1980.10481092 Ry
     Harris-Foulkes estimate   =   -1980.10481163 Ry
     estimated scf accuracy    <       0.00001131 Ry

     total magnetization       =     0.00 Bohr mag/cell
     absolute magnetization    =     0.01 Bohr mag/cell

     iteration # 26     ecut=    40.00 Ry     beta=0.30
     Davidson diagonalization with overlap
     ethr =  1.78E-09,  avg # of iterations =  1.0

     negative rho (up, down):  0.347E+00 0.347E+00

     total cpu time spent up to now is    11859.3 secs

     total energy              =   -1980.10481135 Ry
     Harris-Foulkes estimate   =   -1980.10481142 Ry
     estimated scf accuracy    <       0.00000222 Ry

     total magnetization       =     0.01 Bohr mag/cell
     absolute magnetization    =     0.01 Bohr mag/cell

     iteration # 27     ecut=    40.00 Ry     beta=0.30
     Davidson diagonalization with overlap
     ethr =  9.32E-10,  avg # of iterations =  1.0

     negative rho (up, down):  0.347E+00 0.347E+00

     total cpu time spent up to now is    12252.3 secs

     total energy              =   -1980.10481151 Ry
     Harris-Foulkes estimate   =   -1980.10481151 Ry
     estimated scf accuracy    <       0.00000164 Ry

     total magnetization       =     0.01 Bohr mag/cell
     absolute magnetization    =     0.01 Bohr mag/cell

     iteration # 28     ecut=    40.00 Ry     beta=0.30
     Davidson diagonalization with overlap
     ethr =  6.87E-10,  avg # of iterations =  1.0

     negative rho (up, down):  0.347E+00 0.347E+00

     total cpu time spent up to now is    12644.4 secs

     End of self-consistent calculation

 ------ SPIN UP ------------


          k = 0.0000 0.0000 0.0000 ( 30479 PWs)   bands (ev):

   -52.4721 -50.9994 -50.8991 -49.5305 -49.5200 -49.5120 -49.4879 -49.4745
   -49.4178 -49.3955 -49.3482 -49.3306 -49.2833 -49.2833 -49.2540 -49.2247
   -49.2194 -49.1920 -49.0966 -49.0927 -49.0847 -49.0794 -49.0752 -48.9844
   -21.9429 -21.5366 -21.1748 -21.1226 -20.9989 -20.5968 -20.3762 -20.3475
   -20.3057 -20.2738 -20.2567 -20.1789 -20.0547 -20.0439 -19.8041 -19.7497
   -19.7231 -18.9961 -18.8771 -10.2787  -9.9550  -9.8626  -9.8170  -9.6184
    -9.2663  -9.0047  -8.9001  -8.7901  -8.7220  -8.6602  -8.6378  -8.3505
    -8.3245  -8.2736  -8.1761  -8.0906  -8.0026  -7.9661  -7.6923  -7.5553
    -7.4481  -7.2911  -7.1267  -7.0650  -6.7862  -6.6481  -6.5861  -6.4648
    -6.2946  -6.0204  -5.9859  -5.8503  -5.5595  -5.5542  -5.4776  -5.4176
    -5.3886  -5.3706  -5.2936  -5.1623  -4.9749  -4.9284  -4.9064  -4.8009
    -4.7832  -4.7638  -4.6324  -4.5563  -4.4923  -4.3558  -4.3168  -4.0946
    -4.0039  -3.9640  -3.8249  -3.7867  -3.7515  -3.6832  -3.5342  -3.4976
    -3.4864  -3.2413  -3.2312  -3.1466  -3.1322  -2.9066  -2.7203  -2.6368
    -2.5095  -2.4610  -2.3170  -2.2440  -2.2035  -1.8754  -1.7464  -1.6084
    -1.5093  -1.3913  -1.3417  -1.2003  -1.0965  -0.3252  -0.1970   0.0656
     0.1827   0.2352   0.4426   0.6062   0.7750   1.0803   1.5221   1.6649
     1.8062   1.8304   2.0911   2.9753   3.4262   4.0147   4.1748   4.6835
     4.9758   5.7773   5.9217   6.0493   6.1531   6.8210   6.8277   7.0717
     7.3662   7.6373   7.7309   7.8404   7.8800   7.8914   7.9260   7.9367
     7.9439   8.1155   8.1360   8.1723   8.2609   8.3030   8.3995   8.4233
     8.4808   8.6241   8.6934   8.9394   8.9589   9.0098   9.1202   9.2322
     9.3572   9.4787   9.5386   9.7163   9.7324   9.8412  10.0374  10.0809
    10.3804  10.4498  10.5462  10.5946  10.6375  10.9026  10.9914  11.0241
    11.0818  11.1241  11.1362  11.1804  11.2200  11.2238  11.3545  11.5754
    11.6434  11.6438  11.6966  11.7004  11.7187  11.7871  11.8012  11.9908
    12.0146  12.0592  12.0879  12.1149  12.1743  12.2629  12.2778  12.3731
    12.4154  12.4802  12.6153  12.6355  12.7161  12.7783  12.8027  12.9962
    13.0091  13.0750  13.0929  13.3071  13.4800  13.5755  13.6162  13.7042
    13.7493  13.8280  13.9642  14.0231  14.0874  14.1594  14.2522  14.3399
    14.3569  14.5549  14.5892  14.6738  14.8433  14.8712  15.0195  15.0886
    15.2299  15.2450  15.4126  15.5583  15.5721  15.6349  15.7297  15.7790
    15.8199  15.8679  15.8857  16.2275  16.2416  16.3621  16.5471  16.6125
    16.6709  16.8135  16.8885  16.9474  16.9680  17.1364  17.1909  17.2384
    17.3270  17.5566  17.6040  17.6274  17.7167  17.7679  17.8739  18.0010
    18.1001  18.1515  18.2178  18.2937  18.3374  18.4135  18.4193  18.4267
    18.5806  18.6027  18.7045  18.8095  18.8275  18.8590  19.0691  19.1100
    19.1348  19.1678  19.2230  19.2953  19.3545  19.3717  19.4907  19.5170
    19.6168  19.6763  19.6917  19.7258  19.7743  19.8838  19.9529  19.9853
    20.0499  20.0749  20.1012  20.2184  20.2684  20.3203  20.4081  20.4205
    20.4716  20.6015  20.6196  20.7248  20.8122  20.9281  20.9798  21.0365
    21.0977  21.1644  21.2641  21.3367  21.4041  21.4575  21.5122  21.5659
    21.6180  21.6593  21.7343  21.8621  21.8946  21.9941  22.0493  22.1021
    22.2140  22.2668  22.3428  22.3651  22.3737  22.4301  22.4615  22.4902
    22.5089  22.5322  22.5683  22.7138  22.7349

          k = 0.0000 0.2417 0.0000 ( 30538 PWs)   bands (ev):

   -52.4722 -50.9994 -50.8992 -49.5309 -49.5198 -49.5125 -49.4880 -49.4746
   -49.4176 -49.3958 -49.3469 -49.3308 -49.2833 -49.2833 -49.2540 -49.2261
   -49.2195 -49.1920 -49.0967 -49.0928 -49.0847 -49.0795 -49.0753 -48.9846
   -21.9259 -21.4982 -21.1709 -21.0682 -20.9414 -20.5982 -20.4616 -20.3909
   -20.3525 -20.3308 -20.1613 -20.1059 -20.0679 -20.0472 -19.8951 -19.8040
   -19.7501 -18.9962 -18.8727 -10.1407  -9.8358  -9.6778  -9.6196  -9.4889
    -9.2723  -9.1476  -8.9022  -8.8108  -8.6716  -8.6614  -8.5433  -8.3937
    -8.3197  -8.2709  -8.2386  -8.1039  -8.0908  -7.8633  -7.7063  -7.4615
    -7.2970  -7.2124  -7.1367  -6.7112  -6.6567  -6.6406  -6.5528  -6.5062
    -6.4342  -6.3820  -6.2485  -6.0966  -5.8755  -5.6906  -5.6669  -5.5690
    -5.4371  -5.3200  -5.2939  -5.2560  -5.1960  -5.1347  -4.9828  -4.8336
    -4.7983  -4.7560  -4.6354  -4.5546  -4.4620  -4.4020  -4.2897  -4.1651
    -4.0330  -3.9301  -3.7021  -3.5271  -3.4881  -3.4363  -3.3880  -3.3443
    -3.2543  -3.2392  -3.1790  -3.1529  -3.1452  -3.0817  -3.0115  -2.8803
    -2.8088  -2.4801  -2.2432  -2.2301  -1.9985  -1.7970  -1.7118  -1.5869
    -1.4534  -1.4038  -1.3404  -1.2114  -1.1034  -0.9695  -0.7138  -0.0235
     0.0993   0.3350   0.8369   1.0690   1.1907   1.4536   1.6186   1.6662
     1.7042   1.7365   2.0926   3.2746   3.3685   4.2546   4.4036   4.8822
     5.1753   5.2543   5.9899   6.0921   6.2363   6.3127   6.3474   6.7218
     6.9546   7.0160   7.1371   7.4766   7.5585   7.7065   7.8220   8.0872
     8.1284   8.1862   8.3133   8.3400   8.4347   8.5159   8.6143   8.7450
     8.7810   8.9211   9.0484   9.0840   9.1994   9.3202   9.4601   9.5196
     9.5623   9.5892   9.7402   9.8172   9.8328   9.9306  10.0447  10.1438
    10.1619  10.2113  10.2921  10.4105  10.4408  10.4628  10.6256  10.7078
    10.7531  10.8093  10.8958  10.9318  11.2254  11.2467  11.2704  11.3271
    11.3969  11.4730  11.5647  11.7046  11.7942  11.9099  11.9233  12.0577
    12.0903  12.1712  12.3012  12.3158  12.4583  12.5453  12.5838  12.6634
    12.7234  12.7999  12.8704  12.8949  13.0975  13.1310  13.2779  13.3569
    13.5439  13.5696  13.6316  13.6599  13.7922  13.8084  13.8406  13.9379
    14.0236  14.0674  14.1357  14.1504  14.2915  14.3488  14.3539  14.4672
    14.5062  14.5923  14.7093  14.8013  14.8622  14.9124  14.9417  15.1609
    15.2019  15.3155  15.3295  15.4285  15.5400  15.6083  15.7566  15.7926
    15.8425  15.8839  15.9632  16.0143  16.0266  16.0670  16.1855  16.3789
    16.4338  16.5480  16.6246  16.7053  16.8260  16.8628  16.9165  16.9784
    17.0132  17.1614  17.1841  17.3240  17.4165  17.4948  17.5993  17.6714
    17.7862  17.8444  17.9314  18.0289  18.1022  18.1842  18.3163  18.3563
    18.3895  18.4603  18.4926  18.5276  18.6371  18.7850  18.8400  18.9020
    18.9558  19.0885  19.1252  19.2131  19.2566  19.3072  19.3985  19.4422
    19.4756  19.5415  19.5728  19.6233  19.6649  19.7088  19.8006  19.8343
    19.9277  19.9348  19.9810  20.0135  20.0697  20.0862  20.1192  20.1465
    20.3243  20.3993  20.4089  20.4986  20.5472  20.5931  20.6970  20.7832
    20.9092  20.9483  20.9896  21.0299  21.0861  21.1251  21.1508  21.1710
    21.2191  21.2802  21.3620  21.4804  21.5216  21.6107  21.6775  21.7388
    21.7839  21.8289  21.8733  21.9077  21.9192  21.9797  22.0608  22.1039
    22.2503  22.2990  22.3419  22.3544  22.4276

          k = 0.0000-0.4833 0.0000 ( 30492 PWs)   bands (ev):

   -52.4721 -50.9993 -50.8992 -49.5311 -49.5195 -49.5128 -49.4879 -49.4745
   -49.4173 -49.3957 -49.3455 -49.3309 -49.2833 -49.2831 -49.2538 -49.2276
   -49.2193 -49.1918 -49.0966 -49.0927 -49.0847 -49.0794 -49.0752 -48.9847
   -21.9100 -21.4572 -21.1667 -21.0165 -20.8337 -20.5736 -20.5145 -20.4683
   -20.4384 -20.3601 -20.1153 -20.0774 -20.0586 -20.0436 -20.0032 -19.8624
   -19.7504 -18.9964 -18.8692 -10.0938  -9.8079  -9.5673  -9.4543  -9.2637
    -9.0725  -8.9837  -8.9023  -8.8175  -8.6526  -8.6171  -8.4428  -8.3944
    -8.3244  -8.2696  -8.1949  -8.0941  -8.0283  -7.8899  -7.8691  -7.3883
    -7.3683  -7.2003  -7.1512  -7.0909  -6.8409  -6.6019  -6.5518  -6.4787
    -6.3899  -6.3492  -6.3200  -6.1246  -6.0933  -5.8773  -5.8152  -5.8033
    -5.7327  -5.5191  -5.3247  -5.2762  -5.1937  -5.0070  -4.9124  -4.8802
    -4.7066  -4.6550  -4.5825  -4.4764  -4.3623  -4.3307  -4.2301  -4.2005
    -4.1965  -3.8860  -3.7834  -3.7153  -3.6920  -3.5179  -3.4789  -3.2780
    -3.2484  -3.2289  -3.1324  -3.0280  -2.9642  -2.9470  -2.8285  -2.8197
    -2.7634  -2.4317  -2.2570  -2.1839  -2.0958  -1.9326  -1.8218  -1.4948
    -1.4837  -1.4585  -1.4412  -1.2838  -1.1904  -1.1215  -0.9803   0.1245
     0.1656   0.6582   0.9885   1.0479   1.0724   1.4149   1.6160   1.7747
     1.9187   2.0671   2.0958   3.2923   3.8166   4.3902   4.7642   5.0728
     5.1437   5.2688   5.5464   5.7265   5.8503   6.0645   6.4942   6.5477
     6.6216   6.7420   7.0191   7.2592   7.3442   7.5161   7.9894   8.0490
     8.1462   8.3220   8.5521   8.6838   8.7168   8.7482   8.8488   8.9175
     8.9746   8.9811   9.0473   9.0823   9.1211   9.1570   9.2374   9.3027
     9.3832   9.4885   9.5310   9.5589   9.5998   9.8178   9.9083   9.9743
    10.1129  10.1847  10.3829  10.4005  10.4703  10.5589  10.6421  10.8033
    10.9756  11.0469  11.1131  11.2156  11.2717  11.3671  11.4224  11.5112
    11.5427  11.7573  11.8325  11.8517  11.9297  11.9843  12.1144  12.2419
    12.3111  12.3779  12.4841  12.5366  12.6018  12.7322  12.8433  12.8738
    12.9143  12.9650  12.9743  13.0154  13.1420  13.2135  13.2448  13.2558
    13.3240  13.4156  13.5063  13.6860  13.7225  13.7445  13.7608  13.8268
    14.0022  14.0765  14.1516  14.1550  14.2075  14.3622  14.4995  14.5069
    14.5981  14.9720  15.0332  15.0983  15.1815  15.2053  15.2618  15.3022
    15.3752  15.4753  15.4964  15.5649  15.6256  15.8552  15.8972  15.9031
    16.1050  16.1146  16.1930  16.2216  16.3037  16.3191  16.3754  16.3993
    16.4793  16.5311  16.5448  16.5649  16.5828  16.7884  16.8122  16.9268
    16.9289  16.9980  17.1201  17.1500  17.2267  17.2961  17.3461  17.4664
    17.5008  17.5138  17.6040  17.6645  17.7092  17.7962  17.8022  17.8717
    17.9247  17.9265  18.0654  18.1783  18.2025  18.2620  18.3292  18.3637
    18.4340  18.4746  18.5502  18.6410  18.6951  18.7385  18.8064  18.9542
    19.1462  19.1487  19.3349  19.3996  19.4436  19.5819  19.6284  19.6489
    19.7810  19.8047  19.8449  19.9630  20.1201  20.1481  20.2435  20.2959
    20.3288  20.3890  20.4456  20.5230  20.5499  20.5838  20.5916  20.6118
    20.6248  20.7104  20.7212  20.7914  20.8310  20.8388  20.8869  20.9218
    20.9574  21.0054  21.2018  21.2054  21.2132  21.2530  21.3212  21.4074
    21.5035  21.5496  21.5677  21.5935  21.6232  21.6423  21.6841  21.7647
    21.8505  21.9967  22.1492  22.2427  22.2904

          k = 0.2500 0.0000 0.0000 ( 30502 PWs)   bands (ev):

   -52.4721 -50.9993 -50.8983 -49.5188 -49.5153 -49.5133 -49.4871 -49.4748
   -49.4319 -49.3795 -49.3476 -49.3331 -49.2998 -49.2831 -49.2551 -49.2240
   -49.2201 -49.1767 -49.1012 -49.0933 -49.0901 -49.0820 -49.0778 -48.9844
   -21.9101 -21.4748 -21.1995 -21.0379 -20.9225 -20.6516 -20.4919 -20.4278
   -20.3343 -20.2114 -20.1972 -20.1154 -20.0420 -20.0053 -19.8730 -19.7924
   -19.7819 -19.0259 -18.9275 -10.1714  -9.8496  -9.7801  -9.6402  -9.6306
    -9.2605  -9.0880  -8.8490  -8.8022  -8.7135  -8.6715  -8.6501  -8.5432
    -8.4778  -8.1878  -8.0587  -7.9869  -7.8868  -7.8171  -7.6174  -7.5516
    -7.4465  -7.2681  -7.1750  -7.0720  -6.7464  -6.6396  -6.3749  -6.3661
    -6.2078  -6.1094  -6.0317  -5.9902  -5.9347  -5.8754  -5.8392  -5.5969
    -5.5864  -5.5019  -5.2971  -5.1550  -5.1096  -5.0575  -4.9909  -4.9316
    -4.8542  -4.7652  -4.7130  -4.6664  -4.6430  -4.5252  -4.4390  -4.2376
    -4.0335  -3.8699  -3.7456  -3.6535  -3.5659  -3.5624  -3.4359  -3.3618
    -3.3249  -3.0573  -2.9997  -2.9063  -2.8345  -2.7690  -2.6361  -2.4672
    -2.4342  -2.3978  -2.3105  -2.1390  -1.9964  -1.9587  -1.8152  -1.7721
    -1.6185  -1.4567  -1.3496  -1.2095  -1.1478  -0.1758  -0.0726   0.1645
     0.2189   0.3785   0.4608   0.6013   0.8123   0.8567   1.2617   1.4747
     1.5347   1.6370   1.9158   3.3150   3.4424   4.2820   4.4244   4.9269
     5.2098   5.2420   5.9845   6.0984   6.3076   6.3449   6.4984   6.7544
     7.0571   7.2416   7.3933   7.5456   7.6141   7.8336   7.8478   8.0009
     8.1002   8.1275   8.1721   8.2888   8.4250   8.4806   8.5210   8.5897
     8.7480   8.8203   9.0386   9.1901   9.2115   9.2334   9.3188   9.4452
     9.6274   9.7216   9.7985   9.9039   9.9384   9.9897  10.0633  10.0983
    10.1461  10.2097  10.3081  10.3934  10.4119  10.5268  10.5935  10.7397
    10.8195  10.8457  10.9210  11.0124  11.0676  11.1905  11.2424  11.3099
    11.3508  11.4404  11.4868  11.5357  11.7249  11.7440  11.8444  11.9411
    12.0370  12.1120  12.1756  12.3443  12.4258  12.5214  12.5686  12.6162
    12.7376  12.8101  12.8384  12.9525  13.1411  13.1886  13.3016  13.3219
    13.5316  13.6073  13.6574  13.7890  13.8427  13.8521  13.8991  14.0084
    14.0479  14.0851  14.1253  14.1991  14.2518  14.3237  14.3795  14.4879
    14.5657  14.6609  14.7104  14.7260  14.8608  15.0126  15.1922  15.2624
    15.3011  15.3425  15.4548  15.5020  15.5778  15.6742  15.7390  15.8139
    15.8781  15.9829  16.0358  16.1106  16.1615  16.2069  16.2368  16.3222
    16.3998  16.5109  16.5381  16.5657  16.6291  16.8239  16.9906  17.0838
    17.1402  17.2393  17.3367  17.4194  17.4337  17.4946  17.5985  17.7198
    17.7873  17.9099  17.9694  18.0573  18.1272  18.1602  18.2969  18.3450
    18.4310  18.5983  18.6326  18.7890  18.8898  18.9581  18.9825  19.0762
    19.0850  19.1217  19.1882  19.2068  19.3084  19.3242  19.3713  19.4338
    19.4450  19.4918  19.5778  19.6045  19.6331  19.6775  19.7382  19.7509
    19.8183  19.8572  19.9129  19.9723  20.0667  20.0942  20.2281  20.2755
    20.3038  20.3246  20.3521  20.4295  20.4559  20.5301  20.5929  20.6754
    20.7418  20.7727  20.8342  20.8844  20.9091  20.9282  20.9441  21.0884
    21.1544  21.2077  21.2405  21.2941  21.3489  21.3669  21.4139  21.5463
    21.5879  21.6326  21.6678  21.7244  21.8021  21.8441  21.9126  22.0183
    22.0633  22.1183  22.1775  22.2266  22.2737

          k = 0.2500 0.2417 0.0000 ( 30481 PWs)   bands (ev):

   -52.4721 -50.9993 -50.8983 -49.5187 -49.5154 -49.5135 -49.4871 -49.4749
   -49.4320 -49.3794 -49.3463 -49.3330 -49.2998 -49.2832 -49.2550 -49.2253
   -49.2201 -49.1765 -49.1012 -49.0933 -49.0901 -49.0820 -49.0778 -48.9845
   -21.8985 -21.4422 -21.1954 -20.9803 -20.8587 -20.6390 -20.4839 -20.4169
   -20.3401 -20.2666 -20.2362 -20.1402 -20.0366 -20.0228 -19.9561 -19.8573
   -19.7825 -19.0263 -18.9239 -10.0482  -9.8141  -9.6141  -9.4924  -9.3709
    -9.2154  -9.1249  -8.8699  -8.7083  -8.6658  -8.6396  -8.5810  -8.5193
    -8.4404  -8.2263  -8.0971  -7.9512  -7.8265  -7.8198  -7.6686  -7.4346
    -7.3744  -7.3100  -7.2184  -7.0942  -6.8120  -6.5822  -6.5201  -6.3727
    -6.3156  -6.1974  -6.1565  -6.1334  -6.0667  -5.9613  -5.8955  -5.8324
    -5.7633  -5.6737  -5.5460  -5.4366  -5.3830  -5.1433  -5.0668  -4.9454
    -4.8341  -4.8183  -4.7004  -4.6054  -4.4992  -4.4335  -4.3217  -4.1064
    -3.9255  -3.7582  -3.6809  -3.5710  -3.5539  -3.2865  -3.2551  -3.1998
    -3.1234  -3.0593  -2.9971  -2.9523  -2.8991  -2.8346  -2.7833  -2.6838
    -2.6097  -2.4431  -2.2169  -2.0185  -1.9615  -1.8828  -1.8058  -1.7081
    -1.5737  -1.4993  -1.4438  -1.3392  -0.9812  -0.7346  -0.4858   0.0568
     0.2214   0.3426   0.6405   0.8170   1.0433   1.2817   1.3138   1.5396
     1.5643   1.7367   1.8776   3.3903   3.5979   4.5142   4.6543   5.1150
     5.3842   5.4150   5.5458   6.1282   6.3451   6.4771   6.5279   6.5902
     6.6930   6.8888   6.9998   7.2032   7.3178   7.4467   7.5841   7.7495
     7.8430   7.9413   8.0926   8.1348   8.2937   8.4017   8.5189   8.5721
     8.7638   8.8212   8.8675   9.0011   9.2501   9.4062   9.5316   9.5665
     9.6847   9.7261   9.8092   9.8562   9.9811  10.1061  10.1953  10.3047
    10.3430  10.4353  10.5175  10.6349  10.6987  10.7959  10.8653  10.9436
    10.9793  11.0442  11.1346  11.3043  11.3911  11.4630  11.5155  11.6054
    11.6219  11.7063  11.7478  11.8763  11.9294  11.9667  12.0231  12.1131
    12.2193  12.3027  12.3551  12.4178  12.5737  12.6739  12.7178  12.7569
    12.8258  12.8942  12.9455  13.0169  13.0503  13.1087  13.1602  13.2301
    13.3868  13.4580  13.5394  13.6237  13.7020  13.7943  13.8458  13.9288
    13.9815  14.0748  14.1301  14.2098  14.3641  14.3959  14.4801  14.5669
    14.5955  14.6819  14.8103  15.0099  15.0862  15.1777  15.2376  15.3619
    15.4158  15.4633  15.5695  15.5931  15.6372  15.7065  15.8627  15.8847
    15.9734  15.9948  16.0318  16.1332  16.1808  16.2313  16.2580  16.3448
    16.4185  16.4476  16.4896  16.5160  16.5965  16.6416  16.7116  16.7707
    16.8426  16.9352  17.0285  17.1142  17.2224  17.2702  17.3311  17.4015
    17.4981  17.5341  17.5846  17.6615  17.7189  17.7871  17.8503  17.8961
    17.9503  18.0485  18.1385  18.2066  18.2280  18.2889  18.3791  18.4220
    18.4516  18.6441  18.6615  18.6715  18.7647  18.8872  18.9332  18.9869
    19.0787  19.1219  19.1469  19.2136  19.2646  19.3344  19.3926  19.4854
    19.5855  19.6194  19.7369  19.8192  19.8952  19.9639  20.0606  20.1163
    20.2124  20.2897  20.3502  20.4391  20.5164  20.5255  20.6228  20.6959
    20.7308  20.7598  20.8946  20.9487  21.0200  21.0286  21.1573  21.2162
    21.2618  21.3197  21.3722  21.4132  21.4936  21.6241  21.6869  21.7490
    21.7939  21.8474  21.9088  21.9352  21.9779  22.0027  22.0960  22.1649
    22.2223  22.3064  22.4203  22.4680  22.5254

          k = 0.2500-0.4833 0.0000 ( 30510 PWs)   bands (ev):

   -52.4720 -50.9994 -50.8984 -49.5186 -49.5158 -49.5138 -49.4870 -49.4748
   -49.4318 -49.3795 -49.3454 -49.3327 -49.2997 -49.2831 -49.2549 -49.2264
   -49.2204 -49.1764 -49.1012 -49.0933 -49.0901 -49.0820 -49.0778 -48.9848
   -21.8877 -21.4093 -21.1909 -20.9062 -20.7788 -20.5802 -20.4694 -20.4106
   -20.4036 -20.3498 -20.2741 -20.1697 -20.0786 -20.0396 -20.0089 -19.8951
   -19.7831 -19.0269 -18.9209  -9.9923  -9.7886  -9.5680  -9.3338  -9.1415
    -8.9306  -8.8499  -8.8179  -8.6885  -8.6733  -8.6106  -8.4785  -8.4575
    -8.3643  -8.2872  -8.2049  -7.9612  -7.8548  -7.8091  -7.6430  -7.4406
    -7.3838  -7.1883  -7.0634  -6.9757  -6.9404  -6.9197  -6.8022  -6.7108
    -6.4646  -6.4137  -6.3422  -6.2408  -6.1575  -6.1025  -6.0622  -5.9294
    -5.8608  -5.7831  -5.7506  -5.4735  -5.4141  -5.1284  -5.0590  -4.9852
    -4.8438  -4.7084  -4.5740  -4.4767  -4.3981  -4.3117  -4.2037  -4.0054
    -3.9058  -3.7244  -3.7003  -3.6160  -3.5619  -3.3383  -3.2270  -3.1875
    -3.1437  -3.0930  -2.9988  -2.9727  -2.8444  -2.8193  -2.6319  -2.5129
    -2.4854  -2.3366  -2.2311  -2.1555  -1.9418  -1.9331  -1.9121  -1.6528
    -1.5128  -1.4834  -1.4771  -1.3812  -1.1860  -0.9740  -0.8215   0.1645
     0.2505   0.4900   0.6388   0.8029   0.8273   1.3450   1.5447   1.6351
     1.7986   1.8397   1.9925   3.3211   4.0898   4.6644   4.9629   5.3213
     5.3950   5.5320   5.6755   5.7834   5.9883   6.1295   6.3600   6.4616
     6.6950   6.8802   7.0252   7.1950   7.2300   7.3015   7.3229   7.4513
     7.6090   7.8272   7.9373   8.0389   8.1481   8.2689   8.3453   8.3800
     8.4720   8.6254   8.7623   8.9704   9.0479   9.1571   9.4172   9.4567
     9.6345   9.8470   9.9810  10.0110  10.0947  10.1900  10.5064  10.6094
    10.6875  10.7531  10.7941  10.9318  11.0005  11.0270  11.1337  11.2488
    11.3054  11.3355  11.4249  11.5167  11.5868  11.6762  11.7065  11.7891
    11.8432  11.9288  12.0330  12.0785  12.1422  12.2330  12.3032  12.3940
    12.4532  12.5364  12.6169  12.6649  12.6900  12.7158  12.7568  12.8409
    12.9237  13.0567  13.1018  13.1825  13.2341  13.2711  13.3498  13.3740
    13.4550  13.4870  13.5403  13.5975  13.7454  13.8068  13.9014  13.9316
    14.1043  14.1471  14.3237  14.3613  14.4038  14.4471  14.5122  14.5292
    14.5604  14.6093  14.6566  14.7055  14.7395  14.8764  14.9424  14.9789
    15.0627  15.0792  15.2164  15.2961  15.3635  15.4912  15.5113  15.5690
    15.7774  15.8111  15.8788  15.9504  16.0013  16.0148  16.1266  16.2266
    16.3297  16.3531  16.4751  16.5379  16.5680  16.6359  16.6903  16.7444
    16.8653  16.9636  17.0172  17.0285  17.1110  17.1551  17.2500  17.2920
    17.3281  17.3769  17.4184  17.4659  17.5020  17.6295  17.7290  17.8017
    17.8988  17.9327  17.9897  18.0340  18.1215  18.1681  18.2858  18.3542
    18.4477  18.4730  18.5051  18.5531  18.5900  18.6552  18.6903  18.7303
    18.7698  18.9045  18.9757  19.0047  19.0812  19.1143  19.2168  19.2529
    19.3769  19.4558  19.4815  19.5864  19.6429  19.6858  19.7480  19.8107
    19.8543  19.9332  19.9850  19.9926  20.0762  20.2500  20.4082  20.4347
    20.5088  20.5785  20.6410  20.7116  20.7914  20.8412  20.9799  21.0165
    21.0572  21.0934  21.1538  21.2383  21.3035  21.3768  21.5092  21.5367
    21.7014  21.7380  21.8522  21.9329  21.9982  22.0729  22.1418  22.1809
    22.1991  22.2681  22.3788  22.5099  22.5915

          k =-0.5000 0.0000 0.0000 ( 30524 PWs)   bands (ev):

   -52.4721 -50.9993 -50.8975 -49.5164 -49.5158 -49.4928 -49.4824 -49.4731
   -49.4594 -49.3458 -49.3401 -49.3396 -49.3364 -49.2831 -49.2563 -49.2232
   -49.2209 -49.1398 -49.1381 -49.0890 -49.0868 -49.0840 -49.0839 -48.9844
   -21.8782 -21.3297 -21.3103 -20.8782 -20.7953 -20.6983 -20.6871 -20.5654
   -20.3546 -20.1087 -20.0856 -20.0385 -20.0361 -19.9704 -19.9428 -19.8970
   -19.8732 -19.0365 -18.9987 -10.0280  -9.8418  -9.6507  -9.3682  -9.3526
    -9.2496  -9.2411  -9.1080  -9.0856  -8.7789  -8.6209  -8.5465  -8.5239
    -8.4653  -8.2951  -8.1454  -7.9326  -7.8041  -7.7597  -7.4522  -7.2509
    -7.0645  -7.0359  -6.9710  -6.9299  -6.8658  -6.7446  -6.6477  -6.5850
    -6.4484  -6.3312  -6.2384  -6.0778  -6.0620  -5.9411  -5.8695  -5.6880
    -5.6603  -5.5730  -5.5696  -5.5355  -5.4842  -5.1900  -5.1759  -4.9899
    -4.8766  -4.8201  -4.6837  -4.6413  -4.5204  -4.3920  -4.2127  -4.1743
    -4.1167  -3.8287  -3.8006  -3.7687  -3.4218  -3.3880  -3.3777  -3.3149
    -3.1951  -3.0800  -2.9239  -2.7023  -2.6053  -2.5362  -2.4721  -2.4178
    -2.3829  -2.2411  -2.0544  -2.0080  -1.9348  -1.9307  -1.8764  -1.8464
    -1.7308  -1.7260  -1.4955  -1.3610  -0.9744   0.1051   0.1238   0.1876
     0.2658   0.4016   0.6943   0.8189   0.8206   0.8394   0.8406   0.9166
     0.9350   1.7044   1.7484   3.4173   4.1373   4.1477   4.8436   5.1579
     5.1677   5.3257   5.5973   5.7709   5.9626   6.0683   6.5894   6.7012
     6.7826   6.9116   7.0459   7.2639   7.7101   7.9712   8.0031   8.1812
     8.1963   8.2363   8.6242   8.6502   8.7197   8.7667   8.8029   8.8150
     8.8374   8.9417   8.9966   9.0241   9.1678   9.2313   9.3239   9.3894
     9.3972   9.4468   9.5152   9.6705   9.7153   9.7792   9.8383   9.9359
     9.9417  10.0234  10.0863  10.2300  10.2615  10.3144  10.5091  10.6160
    10.8402  10.8640  10.9218  11.1761  11.3085  11.3659  11.4934  11.5950
    11.6318  11.6637  11.6819  11.8424  11.8657  11.9667  11.9928  12.2567
    12.3247  12.3665  12.5782  12.5969  12.6772  12.7033  12.7747  12.8441
    13.0389  13.0639  13.1135  13.1259  13.1766  13.2865  13.3459  13.4151
    13.4914  13.5294  13.5949  13.6495  13.8493  13.8668  13.9166  13.9744
    14.0320  14.1126  14.1428  14.1728  14.1974  14.3373  14.4343  14.6777
    14.7216  14.7869  14.8683  14.9645  15.0597  15.1236  15.1802  15.2297
    15.3011  15.3219  15.4971  15.5234  15.9370  15.9807  16.0297  16.2015
    16.2238  16.2436  16.3049  16.3249  16.3532  16.4285  16.4658  16.4916
    16.5434  16.6120  16.6510  16.7179  16.7295  16.7791  16.7858  16.8566
    16.8947  16.9004  16.9279  17.1727  17.2018  17.2085  17.3579  17.5075
    17.5444  17.6569  17.7044  17.7934  17.9089  17.9541  18.0913  18.1439
    18.1887  18.2692  18.3094  18.3928  18.4834  18.4955  18.5228  18.5878
    18.6055  18.8341  18.8606  18.9390  18.9821  19.0259  19.0755  19.1173
    19.1722  19.2446  19.2577  19.2858  19.4068  19.4307  19.5120  19.6098
    19.6847  19.7124  19.7365  19.8179  19.8372  19.8967  19.9135  19.9525
    20.0888  20.1512  20.1827  20.2147  20.2711  20.3176  20.3509  20.3661
    20.4219  20.4581  20.5086  20.5217  20.6485  20.6720  20.8547  20.8978
    20.9262  20.9602  20.9732  21.0717  21.0848  21.1165  21.1985  21.2395
    21.2503  21.2808  21.2971  21.3825  21.4228  21.4301  21.5671  21.6161
    21.7833  21.8032  21.8978  21.9291  22.1080

          k =-0.5000 0.2417 0.0000 ( 30500 PWs)   bands (ev):

   -52.4721 -50.9993 -50.8976 -49.5163 -49.5158 -49.4929 -49.4825 -49.4732
   -49.4596 -49.3451 -49.3401 -49.3396 -49.3356 -49.2831 -49.2561 -49.2238
   -49.2215 -49.1397 -49.1380 -49.0890 -49.0868 -49.0840 -49.0839 -48.9846
   -21.8719 -21.3177 -21.2913 -20.8252 -20.7342 -20.6279 -20.6168 -20.5502
   -20.3716 -20.1866 -20.1753 -20.0982 -20.0857 -20.0197 -20.0173 -19.8831
   -19.8636 -19.0350 -18.9972  -9.9324  -9.7943  -9.6142  -9.2585  -9.1991
    -9.0639  -9.0234  -9.0104  -8.9638  -8.6139  -8.5538  -8.5459  -8.4745
    -8.3666  -8.1907  -8.1500  -7.9542  -7.8645  -7.8214  -7.3615  -7.3422
    -7.2952  -7.1612  -7.1182  -7.0490  -7.0067  -6.7922  -6.6672  -6.6191
    -6.4930  -6.4599  -6.3946  -6.2609  -5.9938  -5.9502  -5.9260  -5.8961
    -5.7708  -5.7348  -5.6978  -5.6789  -5.5944  -5.4457  -5.1317  -5.1127
    -4.9180  -4.8846  -4.7970  -4.6811  -4.5430  -4.3700  -4.0421  -3.9372
    -3.8323  -3.7839  -3.6817  -3.6213  -3.5127  -3.2914  -3.1511  -3.0443
    -2.9582  -2.9286  -2.8951  -2.7956  -2.7513  -2.7227  -2.5407  -2.5034
    -2.2443  -2.2113  -2.0316  -2.0133  -1.9333  -1.9018  -1.8602  -1.8415
    -1.8080  -1.7210  -1.6280  -1.4169  -0.8482  -0.3488   0.0173   0.1188
     0.1596   0.3293   0.4165   0.5979   0.6350   1.0937   1.1179   1.2901
     1.3869   1.7549   1.8036   3.3993   4.3575   4.3742   5.0077   5.3768
     5.3867   5.5507   5.7709   5.9111   6.0778   6.2006   6.3203   6.3891
     6.7754   7.0077   7.0551   7.1697   7.1867   7.2644   7.2967   7.4025
     7.6859   7.7864   7.9324   8.0625   8.1269   8.2905   8.3793   8.5493
     8.6050   8.8233   8.8524   9.0149   9.0919   9.2334   9.5252   9.6442
     9.7117   9.9169   9.9324  10.0135  10.0844  10.1709  10.3215  10.4108
    10.4886  10.5100  10.6226  10.7165  10.8319  10.8554  11.0031  11.0251
    11.1988  11.2887  11.3058  11.3347  11.4323  11.5525  11.6742  11.7315
    11.8383  11.8806  11.9970  12.0290  12.1295  12.1562  12.2428  12.3459
    12.5007  12.5356  12.6166  12.7327  12.7495  12.8681  13.0195  13.0411
    13.0857  13.1175  13.1933  13.2470  13.3084  13.3883  13.4033  13.5518
    13.6025  13.6394  13.7045  13.7444  13.8100  13.9435  14.0711  14.1290
    14.1804  14.2323  14.2534  14.3497  14.3835  14.4122  14.4428  14.5318
    14.6201  14.6774  14.7860  14.8631  14.9057  14.9406  15.0020  15.0783
    15.1069  15.2336  15.2897  15.3119  15.4044  15.4304  15.5495  15.6012
    15.7002  15.7311  15.8756  15.9287  16.0798  16.1684  16.2114  16.2316
    16.2764  16.3125  16.3993  16.4487  16.4809  16.5199  16.5652  16.5830
    16.6854  16.7254  16.8143  16.8764  16.9566  17.0533  17.1075  17.1388
    17.1619  17.2814  17.3685  17.4174  17.5569  17.6422  17.6757  17.7926
    17.8225  17.8880  17.9594  18.0035  18.0696  18.2200  18.3778  18.4408
    18.5042  18.5348  18.5533  18.6085  18.6562  18.7700  18.8030  18.8612
    18.9068  18.9598  18.9842  19.0220  19.1228  19.1677  19.2483  19.2935
    19.4215  19.4437  19.5460  19.5875  19.6228  19.6743  19.7864  19.8022
    19.9336  20.0585  20.0938  20.1999  20.2766  20.3264  20.3487  20.4105
    20.4715  20.6423  20.7075  20.7617  20.8401  20.9106  20.9683  21.0712
    21.0764  21.2116  21.3231  21.3494  21.4720  21.5556  21.5901  21.6480
    21.6720  21.7396  21.7738  21.9083  21.9286  22.0588  22.1282  22.1521
    22.2089  22.2552  22.2943  22.4178  22.4720

          k =-0.5000-0.4833 0.0000 ( 30496 PWs)   bands (ev):

   -52.4721 -50.9993 -50.8976 -49.5164 -49.5158 -49.4930 -49.4825 -49.4733
   -49.4597 -49.3445 -49.3400 -49.3396 -49.3349 -49.2830 -49.2560 -49.2245
   -49.2221 -49.1396 -49.1379 -49.0890 -49.0868 -49.0840 -49.0839 -48.9848
   -21.8656 -21.3062 -21.2730 -20.7430 -20.6302 -20.6226 -20.4764 -20.4180
   -20.3995 -20.3265 -20.3177 -20.2457 -20.2039 -20.0307 -20.0196 -19.8814
   -19.8612 -19.0339 -18.9959  -9.8644  -9.7692  -9.5757  -9.2021  -9.1364
    -8.9540  -8.6596  -8.6104  -8.5927  -8.5787  -8.5085  -8.4215  -8.3820
    -8.1887  -8.1354  -8.0671  -8.0061  -7.9475  -7.9135  -7.6688  -7.6370
    -7.5357  -7.2412  -7.0929  -7.0777  -6.9612  -6.7523  -6.7149  -6.6149
    -6.5432  -6.5153  -6.4876  -6.4400  -6.3999  -6.3620  -6.2517  -6.1995
    -6.0605  -5.9875  -5.7698  -5.7340  -5.6542  -5.3696  -5.0809  -4.9207
    -4.8813  -4.8187  -4.6666  -4.5557  -4.5062  -4.3236  -4.0879  -3.8450
    -3.7325  -3.5684  -3.4809  -3.4723  -3.3581  -3.3037  -3.2806  -3.1295
    -3.0551  -3.0119  -2.9346  -2.6978  -2.5931  -2.5704  -2.5218  -2.3749
    -2.1797  -2.1440  -2.0109  -1.9842  -1.9721  -1.9059  -1.8868  -1.8244
    -1.7908  -1.7315  -1.6860  -1.4725  -0.7759  -0.7636  -0.2863  -0.2267
    -0.0865   0.2459   0.4755   0.6572   0.6584   1.3041   1.3721   1.4904
     1.5700   1.8004   1.8975   3.3486   4.7497   4.7650   5.2689   5.3933
     5.3988   6.0389   6.0444   6.1161   6.1191   6.2066   6.2350   6.3142
     6.4735   6.6240   6.7024   6.8007   6.8447   6.9499   7.1066   7.1785
     7.5002   7.5386   7.6098   7.7214   7.7771   7.8590   8.0101   8.1500
     8.4620   8.8148   8.9117   9.0582   9.1196   9.2436   9.3192   9.4503
     9.5118   9.5522  10.0982  10.1899  10.2327  10.4616  10.4933  10.7825
    10.8815  10.9228  11.0906  11.1185  11.1575  11.2588  11.2921  11.3373
    11.5352  11.5528  11.7672  11.8875  11.9160  11.9562  12.2481  12.2734
    12.3143  12.4506  12.5296  12.5523  12.6251  12.7136  12.7617  12.7766
    12.8002  12.8218  12.8577  12.8960  13.0545  13.1921  13.2599  13.2914
    13.3566  13.3846  13.4858  13.5019  13.5176  13.5528  13.6390  13.6721
    13.7196  13.7381  13.7530  13.8358  13.8686  13.8841  13.9037  13.9421
    14.0900  14.1300  14.1475  14.1738  14.1879  14.2112  14.2832  14.3634
    14.4040  14.4158  14.4439  14.5234  14.6306  14.7123  14.7272  14.7995
    14.8751  14.9724  15.0282  15.0933  15.1308  15.1597  15.2268  15.2397
    15.2564  15.3095  15.3472  15.3547  15.4720  15.4955  15.6840  15.7261
    15.7333  15.8233  15.8420  15.9693  15.9910  16.0297  16.1817  16.2158
    16.2744  16.4701  16.4799  16.5827  16.6159  16.6783  16.7128  16.7504
    16.9759  16.9892  17.0139  17.0317  17.1887  17.2406  17.3019  17.4240
    17.5948  17.6435  17.7144  17.7523  18.0178  18.0308  18.0492  18.0647
    18.1904  18.2468  18.2875  18.4506  18.4934  18.6831  18.7257  18.7893
    18.8554  19.0693  19.1897  19.2249  19.3527  19.4145  19.4751  19.5547
    19.6218  19.6655  19.8229  20.0857  20.1464  20.1563  20.2030  20.2844
    20.3000  20.4079  20.5979  20.7258  20.7539  20.7967  20.8188  20.8578
    20.8702  20.9419  21.1098  21.1713  21.1930  21.2131  21.2643  21.2868
    21.3370  21.3636  21.3827  21.4706  21.5219  21.5641  21.5961  21.6171
    21.6274  21.6431  21.6823  21.7349  21.7482  21.8418  21.8556  21.9885
    21.9971  22.0600  22.1457  22.2606  22.2849

          k =-0.2500 0.2417 0.0000 ( 30481 PWs)   bands (ev):

   -52.4721 -50.9993 -50.8983 -49.5187 -49.5156 -49.5135 -49.4871 -49.4749
   -49.4317 -49.3794 -49.3467 -49.3328 -49.2998 -49.2832 -49.2550 -49.2251
   -49.2202 -49.1765 -49.1012 -49.0933 -49.0901 -49.0820 -49.0778 -48.9845
   -21.8985 -21.4424 -21.1952 -20.9800 -20.8586 -20.6390 -20.4829 -20.4171
   -20.3400 -20.2663 -20.2399 -20.1403 -20.0359 -20.0204 -19.9568 -19.8576
   -19.7823 -19.0263 -18.9239 -10.0481  -9.8142  -9.6142  -9.4925  -9.3691
    -9.2152  -9.1213  -8.8717  -8.7239  -8.6649  -8.6404  -8.5790  -8.5132
    -8.4403  -8.2003  -8.1183  -7.9761  -7.8340  -7.8134  -7.6607  -7.4451
    -7.3970  -7.2790  -7.1647  -7.0754  -6.8104  -6.5857  -6.5372  -6.4015
    -6.3321  -6.2173  -6.1758  -6.1271  -6.0633  -5.9461  -5.9112  -5.8200
    -5.7669  -5.6597  -5.5323  -5.4034  -5.3812  -5.1493  -5.0800  -4.9750
    -4.8990  -4.7305  -4.6816  -4.5884  -4.5140  -4.4764  -4.3464  -4.0865
    -3.8967  -3.7873  -3.6784  -3.5848  -3.4407  -3.2850  -3.2717  -3.2146
    -3.1789  -3.0423  -3.0038  -2.9522  -2.9113  -2.8413  -2.8075  -2.6791
    -2.5991  -2.4095  -2.2249  -2.0190  -1.9533  -1.8880  -1.8118  -1.7093
    -1.5662  -1.5017  -1.4450  -1.3393  -0.9818  -0.7352  -0.4885   0.0575
     0.2219   0.3443   0.6406   0.8173   1.0396   1.2795   1.3187   1.5392
     1.5660   1.7325   1.8802   3.3903   3.5937   4.5142   4.6551   5.1223
     5.4024   5.4331   5.5438   6.1279   6.3431   6.4854   6.5032   6.5859
     6.6836   6.8523   7.0016   7.1968   7.3248   7.4480   7.5794   7.7469
     7.8303   7.9554   8.1061   8.1572   8.2781   8.3913   8.4899   8.6068
     8.7542   8.8061   8.8896   8.9979   9.2645   9.4229   9.5241   9.5665
     9.6942   9.7295   9.8069   9.8519   9.9777  10.1570  10.1996  10.2369
    10.3456  10.4300  10.4945  10.6137  10.7183  10.7965  10.8510  10.9466
    10.9823  11.0764  11.1381  11.3232  11.3836  11.4694  11.5372  11.5992
    11.6238  11.7040  11.7496  11.8820  11.9201  11.9816  12.0449  12.1286
    12.2367  12.3007  12.3613  12.4027  12.5700  12.6695  12.7074  12.7859
    12.8189  12.8683  12.9503  13.0308  13.0407  13.1290  13.1625  13.2382
    13.3621  13.4431  13.5253  13.6216  13.7135  13.7919  13.8603  13.9221
    13.9838  14.0609  14.1327  14.2232  14.3227  14.3973  14.4903  14.5551
    14.5873  14.6627  14.7831  15.0203  15.0757  15.1587  15.2783  15.3518
    15.4096  15.4678  15.5577  15.5755  15.5952  15.6989  15.7633  15.8668
    15.9538  16.0273  16.0499  16.1421  16.1790  16.2366  16.2718  16.3529
    16.4409  16.4483  16.4930  16.5074  16.5703  16.6269  16.6924  16.7635
    16.8378  16.9503  17.0562  17.1540  17.2115  17.3011  17.3274  17.4081
    17.4787  17.5516  17.5926  17.6535  17.7070  17.7776  17.8890  17.9273
    17.9935  18.0342  18.1299  18.1998  18.2318  18.2879  18.3640  18.4388
    18.4917  18.6163  18.6428  18.7170  18.7889  18.9271  18.9552  19.0193
    19.0653  19.0953  19.1526  19.2217  19.2635  19.3201  19.4035  19.5186
    19.5848  19.6290  19.6977  19.8260  19.8790  19.9480  20.0694  20.1230
    20.2211  20.3025  20.3428  20.4220  20.5036  20.5567  20.6105  20.6889
    20.7404  20.7933  20.8933  20.9501  20.9766  21.0533  21.1695  21.2037
    21.2608  21.3574  21.3773  21.4069  21.4905  21.6254  21.6775  21.7658
    21.8143  21.8711  21.8950  21.9300  21.9906  22.0143  22.0965  22.1701
    22.1972  22.3179  22.3770  22.4611  22.5267

 ------ SPIN DOWN ----------


          k = 0.0000 0.0000 0.0000 ( 30479 PWs)   bands (ev):

   -52.4703 -50.9987 -50.8973 -49.5305 -49.5202 -49.5122 -49.4879 -49.4745
   -49.4178 -49.3956 -49.3482 -49.3306 -49.2835 -49.2834 -49.2543 -49.2247
   -49.2194 -49.1919 -49.0965 -49.0929 -49.0846 -49.0792 -49.0753 -48.9844
   -21.9416 -21.5362 -21.1747 -21.1225 -20.9988 -20.5968 -20.3762 -20.3468
   -20.3058 -20.2738 -20.2567 -20.1790 -20.0547 -20.0438 -19.8041 -19.7497
   -19.7232 -18.9961 -18.8771 -10.2783  -9.9550  -9.8603  -9.8168  -9.6175
    -9.2660  -9.0047  -8.8999  -8.7901  -8.7220  -8.6602  -8.6377  -8.3505
    -8.3244  -8.2736  -8.1761  -8.0906  -8.0026  -7.9661  -7.6920  -7.5550
    -7.4479  -7.2910  -7.1267  -7.0649  -6.7861  -6.6481  -6.5858  -6.4647
    -6.2946  -6.0204  -5.9859  -5.8503  -5.5595  -5.5542  -5.4776  -5.4176
    -5.3887  -5.3705  -5.2937  -5.1623  -4.9749  -4.9284  -4.9064  -4.8008
    -4.7831  -4.7632  -4.6324  -4.5563  -4.4922  -4.3557  -4.3167  -4.0944
    -4.0039  -3.9640  -3.8249  -3.7867  -3.7515  -3.6832  -3.5342  -3.4976
    -3.4864  -3.2414  -3.2312  -3.1465  -3.1321  -2.9066  -2.7201  -2.6370
    -2.5096  -2.4609  -2.3166  -2.2441  -2.2034  -1.8742  -1.7464  -1.6062
    -1.5090  -1.3910  -1.3417  -1.2003  -1.0965  -0.3250  -0.1967   0.0656
     0.1828   0.2352   0.4427   0.6063   0.7750   1.0806   1.5222   1.6649
     1.8062   1.8305   2.0911   2.9753   3.4266   4.0149   4.1748   4.6835
     4.9759   5.7773   5.9217   6.0494   6.1531   6.8210   6.8278   7.0717
     7.3662   7.6374   7.7309   7.8405   7.8801   7.8914   7.9263   7.9367
     7.9439   8.1156   8.1361   8.1723   8.2609   8.3031   8.3995   8.4233
     8.4808   8.6241   8.6934   8.9394   8.9589   9.0099   9.1202   9.2322
     9.3573   9.4788   9.5387   9.7163   9.7325   9.8413  10.0374  10.0810
    10.3804  10.4498  10.5463  10.5946  10.6375  10.9026  10.9914  11.0242
    11.0819  11.1241  11.1362  11.1804  11.2201  11.2240  11.3546  11.5754
    11.6434  11.6438  11.6967  11.7004  11.7187  11.7871  11.8012  11.9908
    12.0146  12.0592  12.0879  12.1149  12.1744  12.2629  12.2779  12.3731
    12.4154  12.4802  12.6154  12.6356  12.7162  12.7783  12.8027  12.9962
    13.0092  13.0750  13.0929  13.3071  13.4801  13.5755  13.6163  13.7042
    13.7494  13.8281  13.9643  14.0231  14.0875  14.1594  14.2522  14.3399
    14.3569  14.5550  14.5893  14.6739  14.8434  14.8713  15.0195  15.0887
    15.2299  15.2450  15.4127  15.5583  15.5721  15.6349  15.7297  15.7790
    15.8200  15.8679  15.8857  16.2276  16.2416  16.3621  16.5472  16.6126
    16.6709  16.8135  16.8886  16.9474  16.9680  17.1365  17.1909  17.2385
    17.3271  17.5567  17.6041  17.6275  17.7168  17.7680  17.8740  18.0010
    18.1002  18.1515  18.2178  18.2938  18.3374  18.4136  18.4194  18.4268
    18.5807  18.6027  18.7046  18.8095  18.8276  18.8590  19.0691  19.1101
    19.1349  19.1679  19.2231  19.2954  19.3545  19.3719  19.4907  19.5170
    19.6169  19.6763  19.6917  19.7258  19.7743  19.8838  19.9529  19.9854
    20.0500  20.0750  20.1012  20.2184  20.2684  20.3204  20.4081  20.4206
    20.4716  20.6016  20.6196  20.7249  20.8123  20.9282  20.9798  21.0365
    21.0978  21.1644  21.2642  21.3367  21.4042  21.4576  21.5122  21.5660
    21.6181  21.6593  21.7343  21.8622  21.8948  21.9942  22.0494  22.1022
    22.2141  22.2668  22.3428  22.3652  22.3737  22.4301  22.4615  22.4902
    22.5090  22.5322  22.5682  22.7140  22.7348

          k = 0.0000 0.2417 0.0000 ( 30538 PWs)   bands (ev):

   -52.4704 -50.9987 -50.8974 -49.5309 -49.5200 -49.5127 -49.4879 -49.4746
   -49.4176 -49.3958 -49.3469 -49.3308 -49.2835 -49.2833 -49.2542 -49.2261
   -49.2194 -49.1919 -49.0965 -49.0929 -49.0846 -49.0793 -49.0754 -48.9847
   -21.9246 -21.4978 -21.1707 -21.0682 -20.9414 -20.5981 -20.4616 -20.3910
   -20.3519 -20.3308 -20.1613 -20.1060 -20.0679 -20.0472 -19.8951 -19.8041
   -19.7501 -18.9962 -18.8727 -10.1401  -9.8335  -9.6776  -9.6192  -9.4886
    -9.2721  -9.1476  -8.9019  -8.8108  -8.6716  -8.6614  -8.5432  -8.3936
    -8.3197  -8.2709  -8.2386  -8.1039  -8.0908  -7.8631  -7.7058  -7.4614
    -7.2970  -7.2124  -7.1367  -6.7112  -6.6566  -6.6405  -6.5528  -6.5061
    -6.4341  -6.3819  -6.2484  -6.0966  -5.8755  -5.6906  -5.6669  -5.5690
    -5.4372  -5.3201  -5.2939  -5.2560  -5.1960  -5.1347  -4.9828  -4.8334
    -4.7983  -4.7559  -4.6354  -4.5545  -4.4618  -4.4019  -4.2897  -4.1652
    -4.0329  -3.9301  -3.7021  -3.5271  -3.4881  -3.4364  -3.3879  -3.3443
    -3.2543  -3.2393  -3.1790  -3.1529  -3.1452  -3.0817  -3.0116  -2.8803
    -2.8086  -2.4800  -2.2432  -2.2301  -1.9963  -1.7970  -1.7118  -1.5856
    -1.4527  -1.4035  -1.3403  -1.2113  -1.1034  -0.9692  -0.7136  -0.0234
     0.0993   0.3350   0.8369   1.0692   1.1909   1.4536   1.6186   1.6662
     1.7042   1.7365   2.0925   3.2747   3.3690   4.2548   4.4036   4.8822
     5.1753   5.2543   5.9899   6.0921   6.2363   6.3127   6.3474   6.7218
     6.9546   7.0160   7.1371   7.4766   7.5585   7.7065   7.8220   8.0876
     8.1284   8.1862   8.3134   8.3400   8.4347   8.5159   8.6144   8.7450
     8.7810   8.9212   9.0484   9.0840   9.1994   9.3202   9.4601   9.5196
     9.5624   9.5892   9.7402   9.8173   9.8329   9.9307  10.0447  10.1438
    10.1619  10.2114  10.2922  10.4106  10.4408  10.4628  10.6257  10.7078
    10.7531  10.8093  10.8959  10.9318  11.2254  11.2468  11.2704  11.3271
    11.3969  11.4730  11.5647  11.7046  11.7942  11.9099  11.9233  12.0577
    12.0903  12.1713  12.3012  12.3158  12.4583  12.5453  12.5840  12.6635
    12.7235  12.8000  12.8704  12.8950  13.0976  13.1310  13.2780  13.3569
    13.5439  13.5696  13.6317  13.6599  13.7922  13.8085  13.8407  13.9379
    14.0236  14.0674  14.1357  14.1504  14.2916  14.3488  14.3540  14.4672
    14.5063  14.5923  14.7094  14.8014  14.8622  14.9124  14.9417  15.1609
    15.2020  15.3155  15.3295  15.4285  15.5401  15.6084  15.7566  15.7926
    15.8425  15.8839  15.9632  16.0144  16.0267  16.0670  16.1856  16.3790
    16.4338  16.5480  16.6246  16.7054  16.8260  16.8628  16.9166  16.9784
    17.0133  17.1614  17.1841  17.3241  17.4165  17.4949  17.5994  17.6714
    17.7862  17.8445  17.9314  18.0289  18.1023  18.1843  18.3164  18.3564
    18.3896  18.4603  18.4926  18.5276  18.6372  18.7851  18.8401  18.9020
    18.9558  19.0885  19.1253  19.2131  19.2569  19.3073  19.3985  19.4422
    19.4757  19.5416  19.5728  19.6233  19.6650  19.7088  19.8007  19.8344
    19.9277  19.9348  19.9811  20.0135  20.0697  20.0862  20.1192  20.1466
    20.3244  20.3993  20.4090  20.4986  20.5473  20.5932  20.6970  20.7833
    20.9092  20.9483  20.9896  21.0299  21.0861  21.1251  21.1508  21.1710
    21.2191  21.2802  21.3620  21.4805  21.5216  21.6108  21.6776  21.7388
    21.7839  21.8289  21.8734  21.9077  21.9193  21.9797  22.0608  22.1040
    22.2503  22.2991  22.3419  22.3544  22.4276

          k = 0.0000-0.4833 0.0000 ( 30492 PWs)   bands (ev):

   -52.4703 -50.9986 -50.8974 -49.5312 -49.5197 -49.5129 -49.4879 -49.4746
   -49.4173 -49.3958 -49.3455 -49.3309 -49.2835 -49.2832 -49.2541 -49.2275
   -49.2192 -49.1917 -49.0965 -49.0928 -49.0846 -49.0793 -49.0754 -48.9848
   -21.9087 -21.4568 -21.1665 -21.0165 -20.8337 -20.5735 -20.5144 -20.4684
   -20.4386 -20.3594 -20.1153 -20.0774 -20.0587 -20.0436 -20.0032 -19.8625
   -19.7504 -18.9964 -18.8692 -10.0932  -9.8055  -9.5664  -9.4542  -9.2636
    -9.0724  -8.9836  -8.9020  -8.8175  -8.6526  -8.6171  -8.4426  -8.3943
    -8.3245  -8.2695  -8.1948  -8.0941  -8.0282  -7.8897  -7.8688  -7.3882
    -7.3683  -7.2003  -7.1512  -7.0909  -6.8408  -6.6019  -6.5517  -6.4787
    -6.3899  -6.3490  -6.3201  -6.1246  -6.0933  -5.8773  -5.8152  -5.8033
    -5.7327  -5.5190  -5.3247  -5.2762  -5.1938  -5.0070  -4.9121  -4.8801
    -4.7065  -4.6549  -4.5825  -4.4763  -4.3620  -4.3307  -4.2301  -4.2006
    -4.1964  -3.8861  -3.7836  -3.7153  -3.6921  -3.5179  -3.4789  -3.2779
    -3.2485  -3.2288  -3.1323  -3.0280  -2.9640  -2.9470  -2.8286  -2.8197
    -2.7634  -2.4316  -2.2570  -2.1839  -2.0958  -1.9294  -1.8218  -1.4946
    -1.4837  -1.4576  -1.4407  -1.2839  -1.1904  -1.1211  -0.9803   0.1245
     0.1658   0.6582   0.9885   1.0480   1.0726   1.4149   1.6160   1.7747
     1.9188   2.0670   2.0957   3.2929   3.8166   4.3902   4.7644   5.0729
     5.1437   5.2689   5.5464   5.7266   5.8503   6.0645   6.4942   6.5478
     6.6217   6.7420   7.0191   7.2592   7.3442   7.5162   7.9894   8.0491
     8.1463   8.3224   8.5522   8.6839   8.7168   8.7482   8.8488   8.9175
     8.9747   8.9812   9.0473   9.0823   9.1211   9.1570   9.2374   9.3027
     9.3832   9.4886   9.5310   9.5589   9.5998   9.8178   9.9084   9.9743
    10.1130  10.1847  10.3830  10.4006  10.4703  10.5590  10.6421  10.8033
    10.9756  11.0469  11.1131  11.2157  11.2717  11.3671  11.4224  11.5112
    11.5428  11.7573  11.8326  11.8517  11.9297  11.9843  12.1145  12.2420
    12.3111  12.3780  12.4841  12.5366  12.6019  12.7322  12.8435  12.8738
    12.9144  12.9650  12.9743  13.0154  13.1421  13.2135  13.2449  13.2559
    13.3240  13.4156  13.5064  13.6861  13.7226  13.7445  13.7609  13.8269
    14.0022  14.0765  14.1516  14.1552  14.2076  14.3623  14.4996  14.5069
    14.5982  14.9720  15.0333  15.0984  15.1816  15.2053  15.2619  15.3024
    15.3753  15.4754  15.4964  15.5650  15.6256  15.8553  15.8973  15.9032
    16.1051  16.1146  16.1930  16.2217  16.3037  16.3191  16.3755  16.3994
    16.4793  16.5311  16.5448  16.5649  16.5828  16.7884  16.8122  16.9269
    16.9290  16.9980  17.1202  17.1501  17.2267  17.2962  17.3461  17.4664
    17.5009  17.5139  17.6040  17.6646  17.7092  17.7963  17.8022  17.8717
    17.9247  17.9265  18.0654  18.1784  18.2026  18.2621  18.3293  18.3637
    18.4341  18.4746  18.5502  18.6410  18.6952  18.7385  18.8064  18.9542
    19.1463  19.1491  19.3351  19.3997  19.4437  19.5819  19.6284  19.6489
    19.7810  19.8049  19.8449  19.9630  20.1201  20.1481  20.2436  20.2960
    20.3288  20.3890  20.4456  20.5230  20.5500  20.5838  20.5916  20.6119
    20.6249  20.7105  20.7212  20.7915  20.8310  20.8388  20.8869  20.9218
    20.9574  21.0055  21.2018  21.2054  21.2133  21.2530  21.3212  21.4074
    21.5036  21.5497  21.5677  21.5935  21.6233  21.6424  21.6842  21.7647
    21.8505  21.9968  22.1492  22.2427  22.2906

          k = 0.2500 0.0000 0.0000 ( 30502 PWs)   bands (ev):

   -52.4703 -50.9986 -50.8965 -49.5190 -49.5153 -49.5134 -49.4870 -49.4748
   -49.4319 -49.3795 -49.3476 -49.3330 -49.2998 -49.2834 -49.2554 -49.2240
   -49.2200 -49.1766 -49.1011 -49.0932 -49.0902 -49.0819 -49.0779 -48.9844
   -21.9087 -21.4745 -21.1994 -21.0379 -20.9226 -20.6516 -20.4918 -20.4279
   -20.3337 -20.2115 -20.1973 -20.1156 -20.0420 -20.0053 -19.8730 -19.7926
   -19.7819 -19.0259 -18.9275 -10.1709  -9.8475  -9.7801  -9.6396  -9.6300
    -9.2602  -9.0879  -8.8487  -8.8021  -8.7135  -8.6714  -8.6502  -8.5431
    -8.4778  -8.1878  -8.0587  -7.9869  -7.8867  -7.8171  -7.6172  -7.5514
    -7.4465  -7.2680  -7.1749  -7.0719  -6.7463  -6.6395  -6.3748  -6.3661
    -6.2078  -6.1094  -6.0317  -5.9902  -5.9346  -5.8754  -5.8392  -5.5970
    -5.5863  -5.5019  -5.2971  -5.1550  -5.1096  -5.0575  -4.9908  -4.9316
    -4.8541  -4.7652  -4.7130  -4.6664  -4.6430  -4.5251  -4.4390  -4.2373
    -4.0335  -3.8698  -3.7456  -3.6535  -3.5659  -3.5624  -3.4359  -3.3618
    -3.3249  -3.0572  -2.9995  -2.9062  -2.8344  -2.7690  -2.6361  -2.4672
    -2.4342  -2.3978  -2.3105  -2.1390  -1.9958  -1.9588  -1.8151  -1.7694
    -1.6184  -1.4564  -1.3495  -1.2093  -1.1475  -0.1756  -0.0723   0.1645
     0.2190   0.3785   0.4609   0.6015   0.8123   0.8568   1.2616   1.4747
     1.5347   1.6370   1.9158   3.3150   3.4430   4.2822   4.4244   4.9270
     5.2098   5.2421   5.9845   6.0984   6.3076   6.3449   6.4985   6.7544
     7.0571   7.2416   7.3934   7.5456   7.6141   7.8337   7.8478   8.0009
     8.1002   8.1276   8.1722   8.2889   8.4251   8.4806   8.5210   8.5897
     8.7480   8.8203   9.0386   9.1902   9.2116   9.2334   9.3189   9.4452
     9.6275   9.7217   9.7986   9.9040   9.9385   9.9898  10.0634  10.0983
    10.1461  10.2097  10.3081  10.3935  10.4119  10.5268  10.5936  10.7397
    10.8195  10.8457  10.9210  11.0124  11.0677  11.1906  11.2424  11.3099
    11.3508  11.4404  11.4869  11.5358  11.7249  11.7440  11.8444  11.9412
    12.0370  12.1121  12.1756  12.3443  12.4258  12.5215  12.5686  12.6163
    12.7377  12.8101  12.8384  12.9526  13.1413  13.1887  13.3016  13.3219
    13.5317  13.6074  13.6574  13.7891  13.8428  13.8521  13.8991  14.0084
    14.0479  14.0851  14.1254  14.1991  14.2519  14.3237  14.3795  14.4879
    14.5657  14.6610  14.7105  14.7260  14.8608  15.0127  15.1923  15.2624
    15.3012  15.3425  15.4549  15.5020  15.5778  15.6743  15.7390  15.8139
    15.8782  15.9829  16.0359  16.1106  16.1615  16.2070  16.2368  16.3223
    16.3999  16.5110  16.5381  16.5658  16.6292  16.8240  16.9907  17.0838
    17.1403  17.2394  17.3367  17.4194  17.4338  17.4946  17.5986  17.7198
    17.7873  17.9100  17.9694  18.0573  18.1273  18.1603  18.2970  18.3452
    18.4312  18.5983  18.6326  18.7891  18.8898  18.9582  18.9826  19.0763
    19.0851  19.1217  19.1883  19.2068  19.3084  19.3242  19.3713  19.4338
    19.4451  19.4919  19.5778  19.6046  19.6332  19.6775  19.7382  19.7510
    19.8183  19.8572  19.9129  19.9723  20.0667  20.0943  20.2282  20.2755
    20.3039  20.3246  20.3522  20.4295  20.4559  20.5301  20.5930  20.6755
    20.7418  20.7728  20.8343  20.8845  20.9091  20.9283  20.9442  21.0884
    21.1545  21.2077  21.2405  21.2942  21.3489  21.3670  21.4140  21.5463
    21.5879  21.6327  21.6678  21.7244  21.8022  21.8442  21.9126  22.0183
    22.0633  22.1184  22.1776  22.2266  22.2738

          k = 0.2500 0.2417 0.0000 ( 30481 PWs)   bands (ev):

   -52.4703 -50.9986 -50.8965 -49.5188 -49.5154 -49.5136 -49.4871 -49.4749
   -49.4320 -49.3795 -49.3463 -49.3329 -49.2998 -49.2834 -49.2553 -49.2252
   -49.2201 -49.1764 -49.1011 -49.0932 -49.0903 -49.0819 -49.0780 -48.9846
   -21.8971 -21.4419 -21.1953 -20.9803 -20.8588 -20.6390 -20.4837 -20.4170
   -20.3396 -20.2666 -20.2362 -20.1403 -20.0366 -20.0228 -19.9561 -19.8574
   -19.7825 -19.0263 -18.9239 -10.0475  -9.8118  -9.6133  -9.4923  -9.3708
    -9.2151  -9.1248  -8.8696  -8.7083  -8.6658  -8.6396  -8.5810  -8.5193
    -8.4403  -8.2263  -8.0970  -7.9511  -7.8265  -7.8198  -7.6684  -7.4345
    -7.3743  -7.3099  -7.2184  -7.0941  -6.8118  -6.5822  -6.5201  -6.3727
    -6.3155  -6.1974  -6.1565  -6.1334  -6.0666  -5.9612  -5.8955  -5.8323
    -5.7633  -5.6736  -5.5460  -5.4365  -5.3830  -5.1432  -5.0668  -4.9455
    -4.8341  -4.8182  -4.7004  -4.6053  -4.4991  -4.4335  -4.3217  -4.1064
    -3.9254  -3.7581  -3.6809  -3.5710  -3.5539  -3.2865  -3.2551  -3.1998
    -3.1234  -3.0592  -2.9970  -2.9522  -2.8990  -2.8346  -2.7833  -2.6838
    -2.6097  -2.4430  -2.2168  -2.0173  -1.9615  -1.8824  -1.8055  -1.7069
    -1.5734  -1.4989  -1.4438  -1.3388  -0.9809  -0.7343  -0.4857   0.0569
     0.2214   0.3426   0.6406   0.8172   1.0434   1.2817   1.3139   1.5396
     1.5643   1.7367   1.8776   3.3908   3.5979   4.5143   4.6543   5.1150
     5.3843   5.4150   5.5459   6.1283   6.3452   6.4771   6.5279   6.5903
     6.6931   6.8889   6.9998   7.2032   7.3178   7.4467   7.5841   7.7496
     7.8430   7.9413   8.0926   8.1349   8.2938   8.4017   8.5190   8.5721
     8.7638   8.8212   8.8675   9.0012   9.2502   9.4063   9.5316   9.5665
     9.6847   9.7261   9.8093   9.8563   9.9811  10.1062  10.1954  10.3048
    10.3430  10.4353  10.5175  10.6350  10.6987  10.7960  10.8653  10.9436
    10.9793  11.0442  11.1346  11.3044  11.3912  11.4631  11.5156  11.6054
    11.6220  11.7064  11.7478  11.8764  11.9294  11.9668  12.0231  12.1131
    12.2193  12.3027  12.3552  12.4178  12.5737  12.6739  12.7179  12.7570
    12.8259  12.8942  12.9455  13.0170  13.0504  13.1088  13.1602  13.2302
    13.3868  13.4581  13.5394  13.6238  13.7020  13.7944  13.8458  13.9289
    13.9816  14.0749  14.1302  14.2098  14.3642  14.3960  14.4801  14.5670
    14.5956  14.6819  14.8103  15.0101  15.0862  15.1778  15.2376  15.3620
    15.4158  15.4633  15.5695  15.5931  15.6372  15.7065  15.8627  15.8847
    15.9734  15.9948  16.0318  16.1332  16.1808  16.2313  16.2580  16.3448
    16.4185  16.4477  16.4896  16.5161  16.5965  16.6416  16.7116  16.7707
    16.8427  16.9352  17.0286  17.1143  17.2224  17.2702  17.3312  17.4015
    17.4981  17.5342  17.5847  17.6615  17.7189  17.7871  17.8503  17.8961
    17.9503  18.0485  18.1385  18.2066  18.2280  18.2890  18.3792  18.4220
    18.4517  18.6441  18.6615  18.6715  18.7647  18.8872  18.9332  18.9869
    19.0787  19.1220  19.1469  19.2136  19.2647  19.3344  19.3926  19.4854
    19.5855  19.6194  19.7369  19.8192  19.8952  19.9640  20.0607  20.1164
    20.2124  20.2898  20.3502  20.4392  20.5165  20.5256  20.6228  20.6960
    20.7309  20.7598  20.8947  20.9488  21.0200  21.0286  21.1573  21.2162
    21.2619  21.3198  21.3722  21.4133  21.4936  21.6242  21.6869  21.7491
    21.7939  21.8475  21.9088  21.9352  21.9779  22.0028  22.0960  22.1650
    22.2223  22.3065  22.4204  22.4680  22.5259

          k = 0.2500-0.4833 0.0000 ( 30510 PWs)   bands (ev):

   -52.4703 -50.9987 -50.8966 -49.5187 -49.5158 -49.5140 -49.4870 -49.4748
   -49.4318 -49.3796 -49.3455 -49.3327 -49.2998 -49.2833 -49.2551 -49.2264
   -49.2204 -49.1763 -49.1011 -49.0932 -49.0902 -49.0818 -49.0779 -48.9849
   -21.8862 -21.4090 -21.1908 -20.9062 -20.7789 -20.5802 -20.4692 -20.4107
   -20.4037 -20.3494 -20.2742 -20.1698 -20.0785 -20.0396 -20.0090 -19.8951
   -19.7831 -19.0269 -18.9209  -9.9916  -9.7863  -9.5671  -9.3336  -9.1414
    -8.9303  -8.8498  -8.8179  -8.6885  -8.6733  -8.6106  -8.4785  -8.4575
    -8.3643  -8.2871  -8.2048  -7.9611  -7.8548  -7.8090  -7.6428  -7.4406
    -7.3837  -7.1883  -7.0632  -6.9757  -6.9404  -6.9196  -6.8021  -6.7108
    -6.4645  -6.4137  -6.3422  -6.2408  -6.1575  -6.1024  -6.0622  -5.9295
    -5.8607  -5.7831  -5.7506  -5.4735  -5.4138  -5.1283  -5.0590  -4.9851
    -4.8438  -4.7084  -4.5740  -4.4768  -4.3982  -4.3114  -4.2037  -4.0055
    -3.9058  -3.7244  -3.7003  -3.6160  -3.5619  -3.3383  -3.2270  -3.1876
    -3.1436  -3.0930  -2.9988  -2.9726  -2.8443  -2.8192  -2.6319  -2.5129
    -2.4854  -2.3365  -2.2310  -2.1555  -1.9417  -1.9305  -1.9120  -1.6523
    -1.5126  -1.4826  -1.4769  -1.3811  -1.1858  -0.9740  -0.8211   0.1647
     0.2505   0.4900   0.6388   0.8031   0.8273   1.3450   1.5447   1.6351
     1.7987   1.8397   1.9924   3.3218   4.0898   4.6644   4.9631   5.3213
     5.3950   5.5321   5.6755   5.7835   5.9883   6.1296   6.3600   6.4616
     6.6951   6.8803   7.0252   7.1950   7.2301   7.3016   7.3229   7.4513
     7.6091   7.8273   7.9373   8.0390   8.1481   8.2690   8.3453   8.3800
     8.4720   8.6255   8.7623   8.9704   9.0480   9.1571   9.4173   9.4568
     9.6345   9.8470   9.9811  10.0111  10.0947  10.1900  10.5064  10.6094
    10.6875  10.7532  10.7943  10.9318  11.0005  11.0270  11.1337  11.2489
    11.3054  11.3356  11.4250  11.5167  11.5868  11.6762  11.7066  11.7891
    11.8432  11.9288  12.0330  12.0785  12.1423  12.2330  12.3033  12.3940
    12.4532  12.5364  12.6169  12.6650  12.6900  12.7159  12.7568  12.8409
    12.9237  13.0568  13.1019  13.1826  13.2341  13.2711  13.3499  13.3741
    13.4550  13.4870  13.5403  13.5975  13.7454  13.8069  13.9014  13.9317
    14.1044  14.1471  14.3238  14.3614  14.4038  14.4471  14.5122  14.5293
    14.5604  14.6094  14.6566  14.7056  14.7395  14.8765  14.9425  14.9789
    15.0627  15.0793  15.2165  15.2961  15.3635  15.4912  15.5113  15.5691
    15.7776  15.8113  15.8788  15.9505  16.0013  16.0149  16.1267  16.2267
    16.3298  16.3531  16.4752  16.5380  16.5681  16.6360  16.6904  16.7445
    16.8654  16.9636  17.0172  17.0285  17.1110  17.1552  17.2501  17.2920
    17.3281  17.3769  17.4184  17.4659  17.5020  17.6295  17.7290  17.8018
    17.8988  17.9328  17.9898  18.0341  18.1215  18.1681  18.2859  18.3542
    18.4477  18.4730  18.5052  18.5531  18.5901  18.6552  18.6904  18.7304
    18.7698  18.9045  18.9758  19.0048  19.0812  19.1143  19.2168  19.2530
    19.3769  19.4558  19.4815  19.5865  19.6430  19.6858  19.7481  19.8107
    19.8544  19.9332  19.9850  19.9927  20.0762  20.2501  20.4083  20.4348
    20.5088  20.5785  20.6411  20.7116  20.7915  20.8413  20.9799  21.0166
    21.0572  21.0935  21.1539  21.2383  21.3035  21.3768  21.5093  21.5367
    21.7015  21.7380  21.8523  21.9330  21.9982  22.0729  22.1418  22.1810
    22.1992  22.2682  22.3789  22.5099  22.5916

          k =-0.5000 0.0000 0.0000 ( 30524 PWs)   bands (ev):

   -52.4703 -50.9986 -50.8957 -49.5166 -49.5159 -49.4928 -49.4825 -49.4731
   -49.4595 -49.3459 -49.3402 -49.3397 -49.3363 -49.2833 -49.2566 -49.2231
   -49.2208 -49.1396 -49.1380 -49.0889 -49.0867 -49.0842 -49.0840 -48.9845
[...]
    -1.9583  -1.9481  -1.7249  -1.7213  -1.1946  -0.2237  -0.0426  -0.0054
     0.1569   0.3045   0.4154   0.5781   0.5867   0.6056   0.6106   0.6989
     0.6999   1.4348   1.5130   2.0176   3.9357   3.9423   4.9446   5.1230
     5.1280   5.4556   5.6193   5.8326   5.9501   6.0212   6.5073   6.5386
     6.6990   6.8837   6.9459   7.2174   7.6608   7.7935   7.8347   8.1632
     8.1926   8.2128   8.5178   8.5906   8.6569   8.7560   8.7691   8.8504
     8.8640   8.9090   9.0372   9.1509   9.1737   9.2444   9.2991   9.3044
     9.3494   9.4038   9.4114   9.5326   9.6372   9.6759   9.7933   9.8924
     9.9438  10.0508  10.0570  10.1894  10.2146  10.2326  10.4623  10.6241
    10.8445  10.8679  10.9083  11.0624  11.1351  11.3402  11.4343  11.5764
    11.5859  11.6148  11.6529  11.6813  11.8251  11.8371  11.9975  12.0702
    12.2619  12.3574  12.4535  12.5096  12.6601  12.7153  12.8122  12.8572
    12.9927  13.0155  13.0603  13.0900  13.1220  13.2050  13.2308  13.2730
    13.4269  13.5040  13.5711  13.5993  13.7242  13.8255  13.8757  13.8926
    13.9564  14.0541  14.0969  14.1100  14.1781  14.2668  14.3981  14.6118
    14.6540  14.6927  14.8228  14.8815  14.9752  15.0311  15.1066  15.1652
    15.1922  15.2423  15.4193  15.5319  15.8710  15.8971  15.9334  16.0954
    16.1121  16.1532  16.2101  16.2179  16.3515  16.3702  16.4362  16.4397
    16.5362  16.5541  16.6667  16.6735  16.7462  16.7752  16.7974  16.8575
    16.8744  16.9189  16.9359  17.0334  17.2289  17.2534  17.3841  17.4574
    17.5402  17.6971  17.7052  17.7675  17.8847  17.9160  18.0853  18.1408
    18.1626  18.2564  18.2824  18.3480  18.4555  18.4885  18.5120  18.5472
    18.6241  18.7423  18.8052  18.8503  18.8866  18.9895  19.0972  19.1227
    19.1807  19.1928  19.2070  19.2183  19.3644  19.4274  19.4342  19.5722
    19.6940  19.7115  19.7249  19.8461  19.8561  19.8937  19.9372  19.9497
    20.0395  20.1736  20.2128  20.2656  20.2886  20.3105  20.3548  20.3840
    20.4387  20.4762  20.5141  20.5479  20.6481  20.6729  20.8378  20.8829
    20.9005  20.9099  20.9636  21.0220  21.0405  21.1153  21.1692  21.1886
    21.2295  21.2496  21.2728  21.3513  21.4004  21.4205  21.5422  21.5744
    21.7772  21.7984  21.8641  21.9169  22.0746

          k =-0.5000 0.2417 0.0000 ( 30500 PWs)   bands (ev):

   -50.5996 -50.2492 -50.1954 -49.7912 -49.7907 -49.7178 -49.7148 -49.6989
   -49.6909 -49.5945 -49.5942 -49.5818 -49.5704 -49.5584 -49.5367 -49.4806
   -49.4784 -49.3972 -49.3949 -49.3595 -49.3584 -49.3456 -49.3412 -49.2552
   -21.5912 -21.5432 -21.1403 -21.0438 -20.8891 -20.8461 -20.7755 -20.7426
   -20.4013 -20.3922 -20.3112 -20.3024 -20.2232 -20.2220 -20.0971 -20.0863
   -19.2747 -19.2147 -18.8571  -9.5518  -9.5090  -9.2607  -9.2497  -9.2278
    -9.2015  -8.9939  -8.9305  -8.7797  -8.7657  -8.5989  -8.5625  -8.4885
    -8.4686  -8.1797  -8.1240  -8.0364  -7.9802  -7.6701  -7.5651  -7.4792
    -7.4251  -7.3066  -7.2837  -7.1684  -7.0972  -6.8457  -6.7736  -6.7098
    -6.6697  -6.5264  -6.4383  -6.2906  -6.1875  -6.1061  -6.0782  -6.0359
    -5.9749  -5.8996  -5.8571  -5.7641  -5.7096  -5.4110  -5.2271  -5.1186
    -5.0610  -4.9952  -4.9041  -4.7969  -4.6763  -4.4579  -4.2322  -4.1492
    -4.0408  -3.9958  -3.6298  -3.6060  -3.5043  -3.4674  -3.2670  -3.2474
    -3.1862  -3.1578  -3.1111  -3.0158  -2.9608  -2.8995  -2.7894  -2.6891
    -2.4744  -2.4380  -2.2537  -2.2412  -2.1630  -2.1327  -2.0983  -2.0659
    -2.0228  -1.9606  -1.8508  -1.7733  -1.0708  -0.2637  -0.2548  -0.1161
    -0.0705   0.0646   0.1699   0.3618   0.3992   0.8221   0.9008   1.1040
     1.1414   1.4336   1.5766   2.0307   4.1567   4.1700   5.1111   5.3288
     5.3379   5.6670   5.7499   5.8897   6.0335   6.1880   6.2417   6.2841
     6.7819   6.9204   6.9653   7.1595   7.1787   7.2919   7.3493   7.5372
     7.7003   7.8322   7.9142   7.9437   8.0200   8.2801   8.3552   8.5264
     8.5601   8.7609   8.8032   8.9228   8.9799   9.0953   9.4619   9.5475
     9.5933   9.8246   9.8391   9.9418   9.9756  10.0524  10.1679  10.3313
    10.4029  10.4289  10.5398  10.7812  10.8051  10.9076  10.9558  11.0206
    11.0671  11.1912  11.2473  11.3201  11.4123  11.4301  11.5876  11.7076
    11.7570  11.8472  11.9232  11.9694  12.0500  12.1405  12.1742  12.2298
    12.4539  12.5141  12.5656  12.6297  12.6773  12.8495  12.9858  13.0029
    13.0928  13.1084  13.1811  13.2353  13.2649  13.3284  13.3679  13.4107
    13.5187  13.6040  13.6830  13.7572  13.7704  13.9311  13.9770  14.0496
    14.1053  14.1230  14.1743  14.2894  14.3155  14.3931  14.4094  14.4344
    14.5742  14.6077  14.7415  14.8355  14.9109  14.9373  14.9557  15.0242
    15.0683  15.1051  15.2855  15.3220  15.3893  15.4064  15.5031  15.5544
    15.5826  15.6381  15.8834  15.9138  16.0224  16.0929  16.1745  16.2398
    16.2701  16.3262  16.3754  16.4181  16.4473  16.5061  16.5704  16.5926
    16.6861  16.7564  16.7817  16.8444  16.9386  17.0186  17.0502  17.1259
    17.1906  17.2948  17.3198  17.3287  17.5137  17.5575  17.6947  17.7268
    17.8331  17.8613  17.9151  17.9630  18.0435  18.1231  18.3430  18.4112
    18.4746  18.5193  18.5668  18.5973  18.6936  18.7061  18.7599  18.8820
    18.9321  19.0003  19.0338  19.0908  19.1093  19.1544  19.1782  19.3236
    19.3947  19.4377  19.5298  19.5446  19.5886  19.6648  19.7843  19.8101
    19.8900  19.9364  20.1363  20.1876  20.2571  20.3020  20.3288  20.3662
    20.4568  20.6351  20.6721  20.7460  20.8117  20.8571  20.8957  21.0335
    21.0502  21.2453  21.2713  21.3908  21.4376  21.5000  21.5399  21.5677
    21.6507  21.6993  21.7239  21.8203  21.8728  21.9511  22.0726  22.1222
    22.1831  22.2293  22.2663  22.3583  22.3930

          k =-0.5000-0.4833 0.0000 ( 30496 PWs)   bands (ev):

   -50.5996 -50.2491 -50.1955 -49.7914 -49.7907 -49.7179 -49.7149 -49.6990
   -49.6910 -49.5944 -49.5942 -49.5810 -49.5704 -49.5573 -49.5365 -49.4816
   -49.4793 -49.3970 -49.3948 -49.3595 -49.3584 -49.3456 -49.3412 -49.2554
   -21.5752 -21.5265 -21.0954 -20.9581 -20.8555 -20.8508 -20.6059 -20.5758
   -20.5162 -20.5142 -20.4845 -20.4746 -20.2442 -20.2371 -20.0958 -20.0844
   -19.2711 -19.2133 -18.8572  -9.5104  -9.4711  -9.0555  -8.9664  -8.8783
    -8.8294  -8.8143  -8.8125  -8.7895  -8.6893  -8.4259  -8.4124  -8.3337
    -8.2684  -8.2153  -8.1874  -8.1695  -8.1648  -7.9003  -7.8610  -7.5798
    -7.5340  -7.3364  -7.3069  -7.2048  -7.0536  -6.9168  -6.7843  -6.7617
    -6.7099  -6.6831  -6.6657  -6.6458  -6.6140  -6.4428  -6.3734  -6.3034
    -6.2668  -6.0546  -5.9577  -5.5912  -5.4898  -5.4097  -5.2509  -5.0431
    -4.9651  -4.9248  -4.8236  -4.6937  -4.6560  -4.5265  -4.1539  -4.0649
    -3.8192  -3.7424  -3.6117  -3.5997  -3.5602  -3.4370  -3.3462  -3.2712
    -3.2086  -3.1743  -3.1228  -2.8707  -2.8421  -2.8020  -2.7555  -2.4803
    -2.3974  -2.3678  -2.2423  -2.1957  -2.1853  -2.1274  -2.1159  -2.0770
    -2.0495  -1.9630  -1.9003  -1.8451  -0.9900  -0.6415  -0.5336  -0.4616
    -0.3222  -0.0409   0.2179   0.4222   0.4275   1.1056   1.1411   1.1700
     1.3314   1.6043   1.6691   1.8982   4.5450   4.5530   5.2145   5.2169
     5.3760   5.9960   5.9992   6.1456   6.1461   6.3082   6.3617   6.4459
     6.5063   6.7061   6.7296   6.8163   6.8658   6.8798   7.0427   7.0857
     7.4375   7.4907   7.5134   7.6887   7.7079   7.9009   7.9969   8.1518
     8.4116   8.8260   8.9047   9.0118   9.0987   9.1094   9.2114   9.2837
     9.3206   9.4666  10.0295  10.1594  10.1683  10.3749  10.3808  10.7004
    10.7379  10.8404  10.9172  10.9264  10.9786  11.0160  11.1774  11.2091
    11.3468  11.3900  11.6370  11.7755  11.8227  11.9353  12.1196  12.1858
    12.2586  12.3412  12.4331  12.4361  12.5057  12.6010  12.6285  12.6707
    12.7449  12.7584  12.8111  13.0506  13.0855  13.2104  13.2243  13.2403
    13.3042  13.3132  13.4441  13.4496  13.5957  13.6657  13.6772  13.7274
    13.7331  13.7545  13.8175  13.8402  13.8638  13.8863  13.9541  13.9856
    14.0721  14.1564  14.1753  14.1897  14.2186  14.2389  14.3046  14.3359
    14.4103  14.4371  14.4398  14.5165  14.6110  14.6321  14.6866  14.7277
    14.8636  14.9494  15.0240  15.0904  15.0979  15.1331  15.2106  15.2325
    15.2701  15.3192  15.3514  15.3755  15.4152  15.4321  15.6390  15.6682
    15.7353  15.7875  15.8017  15.8384  15.9485  15.9685  16.0393  16.1156
    16.2062  16.2499  16.4500  16.4883  16.6053  16.6096  16.6549  16.7068
    16.9539  16.9641  16.9811  17.0252  17.1623  17.2093  17.3164  17.3687
    17.5969  17.6742  17.7050  17.7890  17.9520  18.0063  18.0296  18.0428
    18.1368  18.1681  18.2844  18.3475  18.5113  18.6226  18.6615  18.7952
    18.8884  19.1399  19.2224  19.2792  19.3362  19.4085  19.5198  19.5751
    19.6035  19.6246  19.7809  20.0395  20.0691  20.0911  20.1552  20.1742
    20.1764  20.3238  20.5850  20.5995  20.6351  20.7204  20.7298  20.7826
    20.7972  20.9075  21.0884  21.1348  21.1864  21.2553  21.2655  21.3033
    21.3280  21.3658  21.4026  21.4962  21.5013  21.5444  21.5652  21.6416
    21.6585  21.6703  21.7041  21.7124  21.7215  21.7911  21.8760  21.9699
    21.9761  22.0906  22.1200  22.2345  22.2551

          k =-0.2500 0.2417 0.0000 ( 30481 PWs)   bands (ev):

   -50.5996 -50.2492 -50.1976 -49.7935 -49.7884 -49.7449 -49.7132 -49.7037
   -49.6617 -49.6337 -49.5821 -49.5705 -49.5567 -49.5545 -49.5341 -49.4818
   -49.4773 -49.4322 -49.3651 -49.3629 -49.3528 -49.3510 -49.3324 -49.2551
   -21.7594 -21.4418 -21.2298 -21.1104 -20.9826 -20.8301 -20.6781 -20.5915
   -20.4739 -20.4657 -20.3121 -20.2631 -20.2418 -20.1902 -20.0470 -20.0063
   -19.2615 -19.1461 -18.8590  -9.8568  -9.6248  -9.5501  -9.3921  -9.0219
    -8.9514  -8.9161  -8.8831  -8.8531  -8.7791  -8.7360  -8.6862  -8.6218
    -8.3847  -8.2986  -8.2117  -8.0774  -8.0268  -7.8037  -7.6895  -7.5657
    -7.4526  -7.3540  -7.1341  -6.9411  -6.8647  -6.7120  -6.6178  -6.5399
    -6.4994  -6.3944  -6.3405  -6.2583  -6.2376  -6.0797  -6.0041  -5.9859
    -5.8920  -5.6976  -5.6469  -5.5380  -5.4371  -5.2856  -5.1715  -5.1296
    -5.0576  -4.8788  -4.8070  -4.7503  -4.6452  -4.5413  -4.3340  -4.1666
    -4.0057  -3.8766  -3.8100  -3.6929  -3.6114  -3.5051  -3.4860  -3.4116
    -3.3801  -3.2621  -3.1694  -3.1477  -3.1165  -3.0680  -3.0117  -2.8856
    -2.8349  -2.6324  -2.4327  -2.1847  -2.1738  -2.1084  -2.0289  -1.9460
    -1.8630  -1.7736  -1.6717  -1.6011  -1.2012  -0.7606  -0.6941  -0.2725
    -0.0138   0.1201   0.4325   0.5808   0.8804   1.0574   1.0871   1.2637
     1.3189   1.4994   1.5537   2.1219   3.3902   4.5660   4.6478   5.1107
     5.2030   5.3378   5.4589   6.1699   6.2537   6.3744   6.4737   6.6518
     6.7475   6.9056   7.0192   7.2038   7.2340   7.3692   7.4808   7.7167
     7.8022   7.8266   8.0236   8.1043   8.2401   8.3009   8.4608   8.5730
     8.6980   8.7413   8.8979   8.9678   9.2253   9.3612   9.4316   9.4840
     9.6418   9.6531   9.7209   9.7849   9.8759  10.0682  10.1670  10.2676
    10.3111  10.3914  10.5060  10.6076  10.6751  10.7702  10.8278  10.8756
    10.9409  11.0229  11.0848  11.1956  11.2931  11.4024  11.4708  11.5755
    11.6030  11.6928  11.7466  11.8298  11.8696  11.9015  11.9981  12.0966
    12.1862  12.2946  12.3418  12.4289  12.5773  12.6550  12.7144  12.7699
    12.7981  12.8360  12.8819  12.9249  12.9980  13.0302  13.1022  13.1815
    13.3185  13.3786  13.4389  13.5666  13.6194  13.7290  13.8317  13.8714
    13.9532  14.0112  14.0444  14.1591  14.2537  14.3392  14.4331  14.5187
    14.5494  14.5881  14.7180  14.8744  15.0021  15.0609  15.2113  15.2542
    15.3785  15.4094  15.4931  15.5294  15.5724  15.6804  15.7326  15.8090
    15.9333  16.0086  16.0450  16.0707  16.1087  16.1713  16.2248  16.3202
    16.4092  16.4500  16.4652  16.5238  16.5496  16.6425  16.6905  16.7688
    16.8240  16.9305  17.0039  17.0706  17.1451  17.2812  17.3235  17.3515
    17.4386  17.5038  17.5754  17.6219  17.6703  17.7925  17.8620  17.8877
    17.9140  18.0265  18.1428  18.1714  18.2267  18.3177  18.3591  18.4325
    18.4907  18.5817  18.6555  18.6675  18.7559  18.8780  18.9269  18.9893
    19.0407  19.0842  19.1269  19.1648  19.2100  19.2807  19.3881  19.4993
    19.5546  19.5686  19.6283  19.7870  19.7959  19.8864  20.0132  20.1164
    20.1959  20.2596  20.3050  20.3391  20.4738  20.5629  20.6196  20.6566
    20.6781  20.7391  20.8143  20.8749  20.9117  20.9925  21.0516  21.1608
    21.2330  21.2971  21.3380  21.3823  21.4620  21.5478  21.6887  21.7310
    21.7867  21.8451  21.8758  21.8984  21.9743  22.0323  22.0795  22.1593
    22.2140  22.2909  22.3652  22.4236  22.4838

     the Fermi energy is    -2.0189 ev

!    total energy              =   -1980.27362042 Ry
     Harris-Foulkes estimate   =   -1980.27362042 Ry
     estimated scf accuracy    <       0.00000004 Ry

     The total energy is the sum of the following terms:

     one-electron contribution =  -23273.69376250 Ry
     hartree contribution      =   11681.10173570 Ry
     xc contribution           =    -371.89280525 Ry
     ewald contribution        =    9984.21114265 Ry
     smearing contrib. (-TS)   =       0.00006899 Ry

     total magnetization       =     0.00 Bohr mag/cell
     absolute magnetization    =     0.01 Bohr mag/cell

     convergence has been achieved in  79 iterations

     Forces acting on atoms (Ry/au):


     negative rho (up, down):  0.346E+00 0.346E+00
     atom    1 type  1   force =    -0.00736335   -0.01448200    0.00129001
     atom    2 type  1   force =     0.00012821    0.00753685    0.00905387
     atom    3 type  2   force =     0.02085615    0.00621129   -0.00703137
     atom    4 type  2   force =     0.00892344    0.00927215   -0.00200450
     atom    5 type  1   force =    -0.00085610   -0.02928244   -0.00134490
     atom    6 type  1   force =     0.00175335    0.02555212   -0.00091721
     atom    7 type  1   force =    -0.00013650   -0.00110626    0.00429329
     atom    8 type  1   force =    -0.00295186   -0.00074950    0.00182126
     atom    9 type  2   force =     0.00534442    0.00012165    0.00535355
     atom   10 type  2   force =    -0.00000271   -0.00135298    0.00614147
     atom   11 type  1   force =    -0.02610351    0.01835343   -0.03303659
     atom   12 type  1   force =    -0.02632106   -0.01849652   -0.03304324
     atom   13 type  1   force =    -0.00091467    0.00007056   -0.00366916
     atom   14 type  1   force =    -0.00728485   -0.01469953    0.00081779
     atom   15 type  1   force =     0.00013171    0.00658321   -0.00043076
     atom   16 type  2   force =    -0.02163471    0.00529784   -0.00695389
     atom   17 type  2   force =     0.00880928    0.00936515   -0.00192898
     atom   18 type  1   force =    -0.00045159   -0.02904326   -0.00144440
     atom   19 type  1   force =     0.00147997    0.02576607   -0.00078539
     atom   20 type  1   force =    -0.00000676   -0.00539645   -0.01720445
     atom   21 type  1   force =    -0.00282807   -0.00054675   -0.00092218
     atom   22 type  2   force =    -0.00262920    0.00017940    0.00543979
     atom   23 type  2   force =    -0.00019985    0.00119992    0.14500815
     atom   24 type  1   force =     0.02600885    0.01842171   -0.03307177
     atom   25 type  1   force =     0.02687436   -0.01862137   -0.03300956
     atom   26 type  1   force =    -0.00081385    0.00001591   -0.00290535
     atom   27 type  3   force =    -0.00003282   -0.00091603    0.00007415
     atom   28 type  3   force =    -0.00004353   -0.00005217    0.00004262
     atom   29 type  3   force =     0.00006543    0.00052203    0.00004830
     atom   30 type  3   force =     0.00017150    0.00072416    0.00001276
     atom   31 type  1   force =     0.00002834   -0.00044820    0.00030667

     Total force =     0.000544     Total SCF correction =     0.000034

     bfgs converged in   5 scf cycles and   4 bfgs steps
     (criteria: energy < 0.10E-03, force < 0.10E-02)

     End of BFGS Geometry Optimization

     Final energy   =   -1980.2736204227 Ry
Begin final coordinates

ATOMIC_POSITIONS (crystal)
O0       0.000000000   0.000000000   0.378650000    0   0   0
O0       0.000000000   0.500000000   0.400490000    0   0   0
Rh1      0.250000000   0.500000000   0.451990000    0   0   0
Rh1      0.000000000   0.000000000   0.453200000    0   0   0
O0       0.250000000   0.810000000   0.452790000    0   0   0
O0       0.250000000   0.190000000   0.452580000    0   0   0
O0       0.000000000   0.500000000   0.498480000    0   0   0
O0       0.000000000   0.000000000   0.528800000    0   0   0
Rh1      0.250000000   0.000000000   0.576450000    0   0   0
Rh1      0.000000000   0.500000000   0.571210000    0   0   0
O0       0.250000000   0.690000000   0.577890000    0   0   0
O0       0.250000000   0.310000000   0.577910000    0   0   0
O0       0.000000000   0.000000000   0.621680000    0   0   0
O0       0.500000000   0.000000000   0.378650000    0   0   0
O0       0.500000000   0.500000000   0.400490000    0   0   0
Rh1      0.750000000   0.500000000   0.451990000    0   0   0
Rh1      0.500000000   0.000000000   0.453200000    0   0   0
O0       0.750000000   0.810000000   0.452790000    0   0   0
O0       0.750000000   0.190000000   0.452580000    0   0   0
O0       0.500000000   0.500000000   0.498480000    0   0   0
O0       0.500000000   0.000000000   0.528800000    0   0   0
Rh1      0.750000000   0.000000000   0.576450000    0   0   0
Rh1      0.500000000   0.500000000   0.571210000    0   0   0
O0       0.750000000   0.690000000   0.577890000    0   0   0
O0       0.750000000   0.310000000   0.577910000    0   0   0
O0       0.500000000   0.000000000   0.621680000    0   0   0
H2      -0.000070000   0.638970000   0.383980000    0   0   0
H2       0.499930000   0.638960000   0.383980000    0   0   0
H2       0.148440000   0.032530000   0.367830000    0   0   0
H2       0.648440000   0.032530000   0.367830000    0   0   0
O0       0.500029802   0.499603251   0.638976952
End final coordinates



     init_run     :    110.97s CPU    147.21s WALL (       1 calls)
     electrons    :  83732.83s CPU 109914.56s WALL (       5 calls)
     update_pot   :     29.13s CPU     34.09s WALL (       4 calls)
     forces       :    356.46s CPU    383.06s WALL (       5 calls)

     Called by init_run:
     wfcinit      :     87.74s CPU    122.01s WALL (       1 calls)
     potinit      :      3.20s CPU      4.20s WALL (       1 calls)

     Called by electrons:
     c_bands      :  64408.99s CPU  84478.22s WALL (     265 calls)
     sum_band     :  13518.76s CPU  18488.77s WALL (     265 calls)
     v_of_rho     :    314.98s CPU    496.92s WALL (     269 calls)
     newd         :   5415.68s CPU   6153.28s WALL (     269 calls)
     mix_rho      :     62.17s CPU    104.59s WALL (     265 calls)

     Called by c_bands:
     init_us_2    :     91.22s CPU     92.03s WALL (   10720 calls)
     cegterg      :  63955.79s CPU  84023.02s WALL (    5300 calls)

     Called by *egterg:
     h_psi        :  34509.54s CPU  52195.03s WALL (   13593 calls)
     s_psi        :   2757.22s CPU   2758.75s WALL (   13593 calls)
     g_psi        :     53.87s CPU     53.93s WALL (    8273 calls)
     cdiaghg      :  13505.43s CPU  13985.69s WALL (   13473 calls)

     Called by h_psi:
     add_vuspsi   :   2782.77s CPU   2794.12s WALL (   13593 calls)

     General routines
     calbec       :   4464.23s CPU   4886.15s WALL (   18993 calls)
     fft          :    795.29s CPU   1490.53s WALL (    8392 calls)
     ffts         :      9.67s CPU     18.26s WALL (    1068 calls)
     fftw         :  30745.32s CPU  52445.64s WALL ( 9609126 calls)
     interpolate  :     65.39s CPU    118.17s WALL (    1068 calls)

     Parallel routines
     fft_scatter  :  22520.17s CPU  44730.30s WALL ( 9618586 calls)

     PWSCF        :     0d   23h25m CPU        1d    6h42m WALL


   This run was terminated on:  11:12: 8  26Mar2014            

=------------------------------------------------------------------------------=
   JOB DONE.
=------------------------------------------------------------------------------=
