
     Program PWSCF v.5.0.2 (svn rev. 9656) starts on 10Feb2014 at 20: 4: 1 

     This program is part of the open-source Quantum ESPRESSO suite
     for quantum simulation of materials; please cite
         "P. Giannozzi et al., J. Phys.:Condens. Matter 21 395502 (2009);
          URL http://www.quantum-espresso.org", 
     in publications or presentations arising from this work. More details at
     http://www.quantum-espresso.org/quote.php

     Parallel version (MPI), running on    16 processors
     R & G space division:  proc/nbgrp/npool/nimage =      16

     Current dimensions of program PWSCF are:
     Max number of different atomic species (ntypx) = 10
     Max number of k-points (npk) =  40000
     Max angular momentum in pseudopotentials (lmaxx) =  3
     Reading input from alpha_-0.07/alpha_-0.07.in
Warning: card &IONS ignored
Warning: card / ignored
Warning: card &CELL ignored
Warning: card / ignored

     Subspace diagonalization in iterative solution of the eigenvalue problem:
     a serial algorithm will be used


     Parallelization info
     --------------------
     sticks:   dense  smooth     PW     G-vecs:    dense   smooth      PW
     Min         732     235     65                41751     7555    1121
     Max         734     236     66                41753     7574    1124
     Sum       11721    3761   1049               668029   121001   17953



     bravais-lattice index     =            0
     lattice parameter (alat)  =      17.1587  a.u.
     unit-cell volume          =    3538.5507 (a.u.)^3
     number of atoms/cell      =           48
     number of atomic types    =            3
     number of electrons       =       432.00
     number of Kohn-Sham states=          624
     kinetic-energy cutoff     =      40.0000  Ry
     charge density cutoff     =     500.0000  Ry
     convergence threshold     =      1.0E-06
     mixing beta               =       0.7000
     number of iterations used =            8  plain     mixing
     Exchange-correlation      = SLA  PW   PBE  PBE ( 1 4 3 4 0)
     EXX-fraction              =        0.00

     celldm(1)=  17.158713  celldm(2)=   0.000000  celldm(3)=   0.000000
     celldm(4)=   0.000000  celldm(5)=   0.000000  celldm(6)=   0.000000

     crystal axes: (cart. coord. in units of alat)
               a(1) = (   1.000000   0.000000   0.000000 )  
               a(2) = (   0.000000   1.000000   0.000000 )  
               a(3) = (   0.000000   0.000000   0.700441 )  

     reciprocal axes: (cart. coord. in units 2 pi/alat)
               b(1) = (  1.000000  0.000000  0.000000 )  
               b(2) = (  0.000000  1.000000  0.000000 )  
               b(3) = (  0.000000  0.000000  1.427673 )  


     PseudoPot. # 1 for Ir read from file:
     /home/camp/zhonxu/pseudo/ir_pbe_v1.uspp.F.UPF
     MD5 check sum: abf987a9674477536ede83817f8f8b70
     Pseudo is Ultrasoft + core correction, Zval = 15.0
     Generated by new atomic code, or converted to UPF format
     Using radial grid of  983 points,  7 beta functions with: 
                l(1) =   0
                l(2) =   0
                l(3) =   1
                l(4) =   1
                l(5) =   1
                l(6) =   2
                l(7) =   2
     Q(r) pseudized with  8 coefficients,  rinner =    1.350   1.350   1.350
                                                       1.350   1.350

     PseudoPot. # 2 for Ir read from file:
     /home/camp/zhonxu/pseudo/ir_pbe_v1.uspp.F.UPF
     MD5 check sum: abf987a9674477536ede83817f8f8b70
     Pseudo is Ultrasoft + core correction, Zval = 15.0
     Generated by new atomic code, or converted to UPF format
     Using radial grid of  983 points,  7 beta functions with: 
                l(1) =   0
                l(2) =   0
                l(3) =   1
                l(4) =   1
                l(5) =   1
                l(6) =   2
                l(7) =   2
     Q(r) pseudized with  8 coefficients,  rinner =    1.350   1.350   1.350
                                                       1.350   1.350

     PseudoPot. # 3 for O  read from file:
     /home/camp/zhonxu/pseudo/o_pbe_v1.01.uspp.F.UPF
     MD5 check sum: 2bcb18d16ea4b960afae9ec6d52f22d2
     Pseudo is Ultrasoft + core correction, Zval =  6.0
     Generated by new atomic code, or converted to UPF format
     Using radial grid of  737 points,  5 beta functions with: 
                l(1) =   0
                l(2) =   0
                l(3) =   1
                l(4) =   1
                l(5) =   2
     Q(r) pseudized with  8 coefficients,  rinner =    0.900   0.900   0.900
                                                       0.900   0.900

     atomic species   valence    mass     pseudopotential
        Ir0           15.00   192.22000     Ir( 1.00)
        Ir1           15.00   192.22000     Ir( 1.00)
        O2             6.00    15.99940     O ( 1.00)

     Starting magnetic structure 
     atomic species   magnetization
        Ir0          0.000
        Ir1          0.000
        O2           0.000


     Simplified LDA+U calculation (l_max = 2) with parameters (eV):
     atomic species    L          U    alpha       J0     beta
        Ir0            2     0.0000  -0.0700   0.0000   0.0000
        Ir1            2     0.0000   0.0000   0.0000   0.0000
        O2             1     0.0000   0.0000   0.0000   0.0000



      8 Sym. Ops., with inversion, found



   Cartesian axes

     site n.     atom                  positions (alat units)
         1           Ir0 tau(   1) = (   0.0000000   0.0000000   0.0000000  )
         2           Ir1 tau(   2) = (   0.2500000   0.2500000   0.1751101  )
         3           Ir1 tau(   3) = (   0.0000000   0.0000000   0.3502203  )
         4           Ir1 tau(   4) = (   0.2500000   0.2500000   0.5253304  )
         5           Ir1 tau(   5) = (   0.0000000   0.5000000   0.0000000  )
         6           Ir1 tau(   6) = (   0.2500000   0.7500000   0.1751101  )
         7           Ir1 tau(   7) = (   0.0000000   0.5000000   0.3502203  )
         8           Ir1 tau(   8) = (   0.2500000   0.7500000   0.5253304  )
         9           Ir1 tau(   9) = (   0.5000000   0.0000000   0.0000000  )
        10           Ir1 tau(  10) = (   0.7500000   0.2500000   0.1751101  )
        11           Ir1 tau(  11) = (   0.5000000   0.0000000   0.3502203  )
        12           Ir1 tau(  12) = (   0.7500000   0.2500000   0.5253304  )
        13           Ir1 tau(  13) = (   0.5000000   0.5000000   0.0000000  )
        14           Ir1 tau(  14) = (   0.7500000   0.7500000   0.1751101  )
        15           Ir1 tau(  15) = (   0.5000000   0.5000000   0.3502203  )
        16           Ir1 tau(  16) = (   0.7500000   0.7500000   0.5253304  )
        17           O2  tau(  17) = (   0.1550000   0.1550000   0.0000000  )
        18           O2  tau(  18) = (  -0.1550000  -0.1550000   0.0000000  )
        19           O2  tau(  19) = (   0.4050000   0.0950000   0.1751101  )
        20           O2  tau(  20) = (   0.0950000   0.4050000   0.1751101  )
        21           O2  tau(  21) = (   0.1550000   0.1550000   0.3502203  )
        22           O2  tau(  22) = (  -0.1550000  -0.1550000   0.3502203  )
        23           O2  tau(  23) = (   0.4050000   0.0950000   0.5253304  )
        24           O2  tau(  24) = (   0.0950000   0.4050000   0.5253304  )
        25           O2  tau(  25) = (   0.1550000   0.6550000   0.0000000  )
        26           O2  tau(  26) = (  -0.1550000   0.3450000   0.0000000  )
        27           O2  tau(  27) = (   0.4050000   0.5950000   0.1751101  )
        28           O2  tau(  28) = (   0.0950000   0.9050000   0.1751101  )
        29           O2  tau(  29) = (   0.1550000   0.6550000   0.3502203  )
        30           O2  tau(  30) = (  -0.1550000   0.3450000   0.3502203  )
        31           O2  tau(  31) = (   0.4050000   0.5950000   0.5253304  )
        32           O2  tau(  32) = (   0.0950000   0.9050000   0.5253304  )
        33           O2  tau(  33) = (   0.6550000   0.1550000   0.0000000  )
        34           O2  tau(  34) = (   0.3450000  -0.1550000   0.0000000  )
        35           O2  tau(  35) = (   0.9050000   0.0950000   0.1751101  )
        36           O2  tau(  36) = (   0.5950000   0.4050000   0.1751101  )
        37           O2  tau(  37) = (   0.6550000   0.1550000   0.3502203  )
        38           O2  tau(  38) = (   0.3450000  -0.1550000   0.3502203  )
        39           O2  tau(  39) = (   0.9050000   0.0950000   0.5253304  )
        40           O2  tau(  40) = (   0.5950000   0.4050000   0.5253304  )
        41           O2  tau(  41) = (   0.6550000   0.6550000   0.0000000  )
        42           O2  tau(  42) = (   0.3450000   0.3450000   0.0000000  )
        43           O2  tau(  43) = (   0.9050000   0.5950000   0.1751101  )
        44           O2  tau(  44) = (   0.5950000   0.9050000   0.1751101  )
        45           O2  tau(  45) = (   0.6550000   0.6550000   0.3502203  )
        46           O2  tau(  46) = (   0.3450000   0.3450000   0.3502203  )
        47           O2  tau(  47) = (   0.9050000   0.5950000   0.5253304  )
        48           O2  tau(  48) = (   0.5950000   0.9050000   0.5253304  )

     number of k points=    42  Methfessel-Paxton smearing, width (Ry)=  0.0100
                       cart. coord. in units 2pi/alat
        k(    1) = (   0.0000000   0.0000000   0.0000000), wk =   0.0156250
        k(    2) = (   0.0000000   0.0000000   0.3569182), wk =   0.0312500
        k(    3) = (   0.0000000   0.0000000  -0.7138365), wk =   0.0156250
        k(    4) = (   0.0000000   0.2500000   0.0000000), wk =   0.0625000
        k(    5) = (   0.0000000   0.2500000   0.3569182), wk =   0.1250000
        k(    6) = (   0.0000000   0.2500000  -0.7138365), wk =   0.0625000
        k(    7) = (   0.0000000  -0.5000000   0.0000000), wk =   0.0312500
        k(    8) = (   0.0000000  -0.5000000   0.3569182), wk =   0.0625000
        k(    9) = (   0.0000000  -0.5000000  -0.7138365), wk =   0.0312500
        k(   10) = (   0.2500000   0.2500000   0.0000000), wk =   0.0312500
        k(   11) = (   0.2500000   0.2500000   0.3569182), wk =   0.0625000
        k(   12) = (   0.2500000   0.2500000  -0.7138365), wk =   0.0312500
        k(   13) = (   0.2500000  -0.5000000   0.0000000), wk =   0.0625000
        k(   14) = (   0.2500000  -0.5000000   0.3569182), wk =   0.1250000
        k(   15) = (   0.2500000  -0.5000000  -0.7138365), wk =   0.0625000
        k(   16) = (  -0.5000000  -0.5000000   0.0000000), wk =   0.0156250
        k(   17) = (  -0.5000000  -0.5000000   0.3569182), wk =   0.0312500
        k(   18) = (  -0.5000000  -0.5000000  -0.7138365), wk =   0.0156250
        k(   19) = (  -0.2500000   0.2500000   0.0000000), wk =   0.0312500
        k(   20) = (  -0.2500000   0.2500000  -0.3569182), wk =   0.0625000
        k(   21) = (  -0.2500000   0.2500000   0.7138365), wk =   0.0312500
        k(   22) = (   0.0000000   0.0000000   0.0000000), wk =   0.0156250
        k(   23) = (   0.0000000   0.0000000   0.3569182), wk =   0.0312500
        k(   24) = (   0.0000000   0.0000000  -0.7138365), wk =   0.0156250
        k(   25) = (   0.0000000   0.2500000   0.0000000), wk =   0.0625000
        k(   26) = (   0.0000000   0.2500000   0.3569182), wk =   0.1250000
        k(   27) = (   0.0000000   0.2500000  -0.7138365), wk =   0.0625000
        k(   28) = (   0.0000000  -0.5000000   0.0000000), wk =   0.0312500
        k(   29) = (   0.0000000  -0.5000000   0.3569182), wk =   0.0625000
        k(   30) = (   0.0000000  -0.5000000  -0.7138365), wk =   0.0312500
        k(   31) = (   0.2500000   0.2500000   0.0000000), wk =   0.0312500
        k(   32) = (   0.2500000   0.2500000   0.3569182), wk =   0.0625000
        k(   33) = (   0.2500000   0.2500000  -0.7138365), wk =   0.0312500
        k(   34) = (   0.2500000  -0.5000000   0.0000000), wk =   0.0625000
        k(   35) = (   0.2500000  -0.5000000   0.3569182), wk =   0.1250000
        k(   36) = (   0.2500000  -0.5000000  -0.7138365), wk =   0.0625000
        k(   37) = (  -0.5000000  -0.5000000   0.0000000), wk =   0.0156250
        k(   38) = (  -0.5000000  -0.5000000   0.3569182), wk =   0.0312500
        k(   39) = (  -0.5000000  -0.5000000  -0.7138365), wk =   0.0156250
        k(   40) = (  -0.2500000   0.2500000   0.0000000), wk =   0.0312500
        k(   41) = (  -0.2500000   0.2500000  -0.3569182), wk =   0.0625000
        k(   42) = (  -0.2500000   0.2500000   0.7138365), wk =   0.0312500

     Dense  grid:   668029 G-vectors     FFT dimensions: ( 125, 125,  90)

     Smooth grid:   121001 G-vectors     FFT dimensions: (  72,  72,  50)

     Largest allocated arrays     est. size (Mb)     dimensions
        Kohn-Sham Wavefunctions         9.22 Mb     (    968,  624)
        Atomic wavefunctions            4.73 Mb     (    968,  320)
        NL pseudopotentials            11.11 Mb     (    968,  752)
        Each V/rho on FFT grid          2.86 Mb     (  93750,   2)
        Each G-vector array             0.32 Mb     (  41752)
        G-vector shells                 0.12 Mb     (  15629)
     Largest temporary arrays     est. size (Mb)     dimensions
        Auxiliary wavefunctions        36.87 Mb     (    968, 2496)
        Each subspace H/S matrix       95.06 Mb     (2496,2496)
        Each <psi_i|beta_j> matrix      7.16 Mb     (    752,  624)
        Arrays for rho mixing          11.44 Mb     (  93750,   8)

     Check: negative/imaginary core charge=   -0.000005    0.000000

     The initial density is read from file :
     alpha_-0.07/pwscf.save/charge-density.dat


     negative rho (up, down):  0.312E+01 0.312E+01
     Number of +U iterations with fixed ns =  0
     Starting occupations:
 --- enter write_ns ---
 LDA+U parameters:
U( 1)     =  0.00000000
alpha( 1) = -0.07000000
U( 2)     =  0.00000000
alpha( 2) =  0.00000000
U( 3)     =  0.00000000
alpha( 3) =  0.00000000
atom    1   Tr[ns(na)] (up, down, total) =   4.02182  4.02182  8.04363
   spin  1
    eigenvalues: 
  0.618  0.646  0.869  0.911  0.977
    eigenvectors:
  0.000  0.334  0.000  0.000  0.666
  0.500  0.000  0.000  0.500  0.000
  0.500  0.000  0.000  0.500  0.000
  0.000  0.000  1.000  0.000  0.000
  0.000  0.666  0.000  0.000  0.334
    occupations:
  0.867 -0.000 -0.000 -0.000  0.156
 -0.000  0.764  0.146  0.000  0.000
 -0.000  0.146  0.764  0.000  0.000
 -0.000  0.000  0.000  0.869 -0.000
  0.156  0.000  0.000 -0.000  0.757
   spin  2
    eigenvalues: 
  0.618  0.646  0.869  0.911  0.977
    eigenvectors:
  0.000  0.334  0.000  0.000  0.666
  0.500  0.000  0.000  0.500  0.000
  0.500  0.000  0.000  0.500  0.000
  0.000  0.000  1.000  0.000  0.000
  0.000  0.666  0.000  0.000  0.334
    occupations:
  0.867 -0.000 -0.000 -0.000  0.156
 -0.000  0.764  0.146  0.000  0.000
 -0.000  0.146  0.764  0.000  0.000
 -0.000  0.000  0.000  0.869 -0.000
  0.156  0.000  0.000 -0.000  0.757
atomic mag. moment =     0.000000
atom    2   Tr[ns(na)] (up, down, total) =   4.02172  4.02172  8.04344
   spin  1
    eigenvalues: 
  0.618  0.646  0.869  0.910  0.977
    eigenvectors:
  0.000  0.334  0.000  0.000  0.666
  0.500  0.000  0.000  0.500  0.000
  0.500  0.000  0.000  0.500  0.000
  0.000  0.000  1.000  0.000  0.000
  0.000  0.666  0.000  0.000  0.334
    occupations:
  0.867 -0.000 -0.000 -0.000 -0.156
 -0.000  0.764 -0.146  0.000 -0.000
 -0.000 -0.146  0.764 -0.000 -0.000
 -0.000  0.000 -0.000  0.869 -0.000
 -0.156 -0.000 -0.000 -0.000  0.757
   spin  2
    eigenvalues: 
  0.618  0.646  0.869  0.910  0.977
    eigenvectors:
  0.000  0.334  0.000  0.000  0.666
  0.500  0.000  0.000  0.500  0.000
  0.500  0.000  0.000  0.500  0.000
  0.000  0.000  1.000  0.000  0.000
  0.000  0.666  0.000  0.000  0.334
    occupations:
  0.867 -0.000 -0.000 -0.000 -0.156
 -0.000  0.764 -0.146  0.000 -0.000
 -0.000 -0.146  0.764 -0.000 -0.000
 -0.000  0.000 -0.000  0.869 -0.000
 -0.156 -0.000 -0.000 -0.000  0.757
atomic mag. moment =     0.000000
atom    3   Tr[ns(na)] (up, down, total) =   4.02181  4.02181  8.04362
   spin  1
    eigenvalues: 
  0.618  0.646  0.869  0.911  0.977
    eigenvectors:
  0.000  0.334  0.000  0.000  0.666
  0.500  0.000  0.000  0.500  0.000
  0.500  0.000  0.000  0.500  0.000
  0.000  0.000  1.000  0.000  0.000
  0.000  0.666  0.000  0.000  0.334
    occupations:
  0.867 -0.000 -0.000 -0.000  0.156
 -0.000  0.764  0.146  0.000  0.000
 -0.000  0.146  0.764  0.000  0.000
 -0.000  0.000  0.000  0.869 -0.000
  0.156  0.000  0.000 -0.000  0.757
   spin  2
    eigenvalues: 
  0.618  0.646  0.869  0.911  0.977
    eigenvectors:
  0.000  0.334  0.000  0.000  0.666
  0.500  0.000  0.000  0.500  0.000
  0.500  0.000  0.000  0.500  0.000
  0.000  0.000  1.000  0.000  0.000
  0.000  0.666  0.000  0.000  0.334
    occupations:
  0.867 -0.000 -0.000 -0.000  0.156
 -0.000  0.764  0.146  0.000  0.000
 -0.000  0.146  0.764  0.000  0.000
 -0.000  0.000  0.000  0.869 -0.000
  0.156  0.000  0.000 -0.000  0.757
atomic mag. moment =     0.000000
atom    4   Tr[ns(na)] (up, down, total) =   4.02172  4.02172  8.04344
   spin  1
    eigenvalues: 
  0.618  0.646  0.869  0.910  0.977
    eigenvectors:
  0.000  0.334  0.000  0.000  0.666
  0.500  0.000  0.000  0.500  0.000
  0.500  0.000  0.000  0.500  0.000
  0.000  0.000  1.000  0.000  0.000
  0.000  0.666  0.000  0.000  0.334
    occupations:
  0.867  0.000  0.000 -0.000 -0.156
  0.000  0.764 -0.146 -0.000  0.000
  0.000 -0.146  0.764  0.000  0.000
 -0.000 -0.000  0.000  0.869 -0.000
 -0.156  0.000  0.000 -0.000  0.757
   spin  2
    eigenvalues: 
  0.618  0.646  0.869  0.910  0.977
    eigenvectors:
  0.000  0.334  0.000  0.000  0.666
  0.500  0.000  0.000  0.500  0.000
  0.500  0.000  0.000  0.500  0.000
  0.000  0.000  1.000  0.000  0.000
  0.000  0.666  0.000  0.000  0.334
    occupations:
  0.867  0.000  0.000 -0.000 -0.156
  0.000  0.764 -0.146 -0.000  0.000
  0.000 -0.146  0.764  0.000  0.000
 -0.000 -0.000  0.000  0.869 -0.000
 -0.156  0.000  0.000 -0.000  0.757
atomic mag. moment =     0.000000
atom    5   Tr[ns(na)] (up, down, total) =   4.02171  4.02171  8.04343
   spin  1
    eigenvalues: 
  0.618  0.646  0.869  0.910  0.977
    eigenvectors:
  0.000  0.334  0.000  0.000  0.666
  0.500  0.000  0.000  0.500  0.000
  0.500  0.000  0.000  0.500  0.000
  0.000  0.000  1.000  0.000  0.000
  0.000  0.666  0.000  0.000  0.334
    occupations:
  0.867 -0.000 -0.000  0.000  0.156
 -0.000  0.764  0.146  0.000  0.000
 -0.000  0.146  0.764  0.000  0.000
  0.000  0.000  0.000  0.869 -0.000
  0.156  0.000  0.000 -0.000  0.757
   spin  2
    eigenvalues: 
  0.618  0.646  0.869  0.910  0.977
    eigenvectors:
  0.000  0.334  0.000  0.000  0.666
  0.500  0.000  0.000  0.500  0.000
  0.500  0.000  0.000  0.500  0.000
  0.000  0.000  1.000  0.000  0.000
  0.000  0.666  0.000  0.000  0.334
    occupations:
  0.867 -0.000 -0.000  0.000  0.156
 -0.000  0.764  0.146  0.000  0.000
 -0.000  0.146  0.764  0.000  0.000
  0.000  0.000  0.000  0.869 -0.000
  0.156  0.000  0.000 -0.000  0.757
atomic mag. moment =    -0.000000
atom    6   Tr[ns(na)] (up, down, total) =   4.02182  4.02182  8.04363
   spin  1
    eigenvalues: 
  0.618  0.646  0.869  0.911  0.977
    eigenvectors:
  0.000  0.334  0.000  0.000  0.666
  0.500  0.000  0.000  0.500  0.000
  0.500  0.000  0.000  0.500  0.000
  0.000  0.000  1.000  0.000  0.000
  0.000  0.666  0.000  0.000  0.334
    occupations:
  0.867  0.000 -0.000 -0.000 -0.156
  0.000  0.764 -0.146 -0.000  0.000
 -0.000 -0.146  0.764 -0.000 -0.000
 -0.000 -0.000 -0.000  0.869 -0.000
 -0.156  0.000 -0.000 -0.000  0.757
   spin  2
    eigenvalues: 
  0.618  0.646  0.869  0.911  0.977
    eigenvectors:
  0.000  0.334  0.000  0.000  0.666
  0.500  0.000  0.000  0.500  0.000
  0.500  0.000  0.000  0.500  0.000
  0.000  0.000  1.000  0.000  0.000
  0.000  0.666  0.000  0.000  0.334
    occupations:
  0.867  0.000 -0.000 -0.000 -0.156
  0.000  0.764 -0.146 -0.000  0.000
 -0.000 -0.146  0.764 -0.000 -0.000
 -0.000 -0.000 -0.000  0.869 -0.000
 -0.156  0.000 -0.000 -0.000  0.757
atomic mag. moment =     0.000000
atom    7   Tr[ns(na)] (up, down, total) =   4.02169  4.02169  8.04339
   spin  1
    eigenvalues: 
  0.618  0.646  0.869  0.910  0.977
    eigenvectors:
  0.000  0.334  0.000  0.000  0.666
  0.500  0.000  0.000  0.500  0.000
  0.500  0.000  0.000  0.500  0.000
  0.000  0.000  1.000  0.000  0.000
  0.000  0.666  0.000  0.000  0.334
    occupations:
  0.867 -0.000 -0.000 -0.000  0.156
 -0.000  0.764  0.146  0.000  0.000
 -0.000  0.146  0.764  0.000  0.000
 -0.000  0.000  0.000  0.869  0.000
  0.156  0.000  0.000  0.000  0.757
   spin  2
    eigenvalues: 
  0.618  0.646  0.869  0.910  0.977
    eigenvectors:
  0.000  0.334  0.000  0.000  0.666
  0.500  0.000  0.000  0.500  0.000
  0.500  0.000  0.000  0.500  0.000
  0.000  0.000  1.000  0.000  0.000
  0.000  0.666  0.000  0.000  0.334
    occupations:
  0.867 -0.000 -0.000 -0.000  0.156
 -0.000  0.764  0.146  0.000  0.000
 -0.000  0.146  0.764  0.000  0.000
 -0.000  0.000  0.000  0.869  0.000
  0.156  0.000  0.000  0.000  0.757
atomic mag. moment =    -0.000000
atom    8   Tr[ns(na)] (up, down, total) =   4.02182  4.02182  8.04363
   spin  1
    eigenvalues: 
  0.618  0.646  0.869  0.911  0.977
    eigenvectors:
  0.000  0.334  0.000  0.000  0.666
  0.500  0.000  0.000  0.500  0.000
  0.500  0.000  0.000  0.500  0.000
  0.000  0.000  1.000  0.000  0.000
  0.000  0.666  0.000  0.000  0.334
    occupations:
  0.867 -0.000  0.000 -0.000 -0.156
 -0.000  0.764 -0.146  0.000 -0.000
  0.000 -0.146  0.764  0.000  0.000
 -0.000  0.000  0.000  0.869 -0.000
 -0.156 -0.000  0.000 -0.000  0.757
   spin  2
    eigenvalues: 
  0.618  0.646  0.869  0.911  0.977
    eigenvectors:
  0.000  0.334  0.000  0.000  0.666
  0.500  0.000  0.000  0.500  0.000
  0.500  0.000  0.000  0.500  0.000
  0.000  0.000  1.000  0.000  0.000
  0.000  0.666  0.000  0.000  0.334
    occupations:
  0.867 -0.000  0.000 -0.000 -0.156
 -0.000  0.764 -0.146  0.000 -0.000
  0.000 -0.146  0.764  0.000  0.000
 -0.000  0.000  0.000  0.869 -0.000
 -0.156 -0.000  0.000 -0.000  0.757
atomic mag. moment =     0.000000
atom    9   Tr[ns(na)] (up, down, total) =   4.02171  4.02171  8.04343
   spin  1
    eigenvalues: 
  0.618  0.646  0.869  0.910  0.977
    eigenvectors:
  0.000  0.334  0.000  0.000  0.666
  0.500  0.000  0.000  0.500  0.000
  0.500  0.000  0.000  0.500  0.000
  0.000  0.000  1.000  0.000  0.000
  0.000  0.666  0.000  0.000  0.334
    occupations:
  0.867 -0.000 -0.000 -0.000  0.156
 -0.000  0.764  0.146  0.000  0.000
 -0.000  0.146  0.764  0.000  0.000
 -0.000  0.000  0.000  0.869  0.000
  0.156  0.000  0.000  0.000  0.757
   spin  2
    eigenvalues: 
  0.618  0.646  0.869  0.910  0.977
    eigenvectors:
  0.000  0.334  0.000  0.000  0.666
  0.500  0.000  0.000  0.500  0.000
  0.500  0.000  0.000  0.500  0.000
  0.000  0.000  1.000  0.000  0.000
  0.000  0.666  0.000  0.000  0.334
    occupations:
  0.867 -0.000 -0.000 -0.000  0.156
 -0.000  0.764  0.146  0.000  0.000
 -0.000  0.146  0.764  0.000  0.000
 -0.000  0.000  0.000  0.869  0.000
  0.156  0.000  0.000  0.000  0.757
atomic mag. moment =    -0.000000
atom   10   Tr[ns(na)] (up, down, total) =   4.02182  4.02182  8.04363
   spin  1
    eigenvalues: 
  0.618  0.646  0.869  0.911  0.977
    eigenvectors:
  0.000  0.334  0.000  0.000  0.666
  0.500  0.000  0.000  0.500  0.000
  0.500  0.000  0.000  0.500  0.000
  0.000  0.000  1.000  0.000  0.000
  0.000  0.666  0.000  0.000  0.334
    occupations:
  0.867 -0.000  0.000 -0.000 -0.156
 -0.000  0.764 -0.146  0.000 -0.000
  0.000 -0.146  0.764  0.000  0.000
 -0.000  0.000  0.000  0.869 -0.000
 -0.156 -0.000  0.000 -0.000  0.757
   spin  2
    eigenvalues: 
  0.618  0.646  0.869  0.911  0.977
    eigenvectors:
  0.000  0.334  0.000  0.000  0.666
  0.500  0.000  0.000  0.500  0.000
  0.500  0.000  0.000  0.500  0.000
  0.000  0.000  1.000  0.000  0.000
  0.000  0.666  0.000  0.000  0.334
    occupations:
  0.867 -0.000  0.000 -0.000 -0.156
 -0.000  0.764 -0.146  0.000 -0.000
  0.000 -0.146  0.764  0.000  0.000
 -0.000  0.000  0.000  0.869 -0.000
 -0.156 -0.000  0.000 -0.000  0.757
atomic mag. moment =     0.000000
atom   11   Tr[ns(na)] (up, down, total) =   4.02169  4.02169  8.04339
   spin  1
    eigenvalues: 
  0.618  0.646  0.869  0.910  0.977
    eigenvectors:
  0.000  0.334  0.000  0.000  0.666
  0.500  0.000  0.000  0.500  0.000
  0.500  0.000  0.000  0.500  0.000
  0.000  0.000  1.000  0.000  0.000
  0.000  0.666  0.000  0.000  0.334
    occupations:
  0.867 -0.000 -0.000  0.000  0.156
 -0.000  0.764  0.146  0.000  0.000
 -0.000  0.146  0.764  0.000  0.000
  0.000  0.000  0.000  0.869 -0.000
  0.156  0.000  0.000 -0.000  0.757
   spin  2
    eigenvalues: 
  0.618  0.646  0.869  0.910  0.977
    eigenvectors:
  0.000  0.334  0.000  0.000  0.666
  0.500  0.000  0.000  0.500  0.000
  0.500  0.000  0.000  0.500  0.000
  0.000  0.000  1.000  0.000  0.000
  0.000  0.666  0.000  0.000  0.334
    occupations:
  0.867 -0.000 -0.000  0.000  0.156
 -0.000  0.764  0.146  0.000  0.000
 -0.000  0.146  0.764  0.000  0.000
  0.000  0.000  0.000  0.869 -0.000
  0.156  0.000  0.000 -0.000  0.757
atomic mag. moment =    -0.000000
atom   12   Tr[ns(na)] (up, down, total) =   4.02182  4.02182  8.04363
   spin  1
    eigenvalues: 
  0.618  0.646  0.869  0.911  0.977
    eigenvectors:
  0.000  0.334  0.000  0.000  0.666
  0.500  0.000  0.000  0.500  0.000
  0.500  0.000  0.000  0.500  0.000
  0.000  0.000  1.000  0.000  0.000
  0.000  0.666  0.000  0.000  0.334
    occupations:
  0.867  0.000 -0.000 -0.000 -0.156
  0.000  0.764 -0.146 -0.000  0.000
 -0.000 -0.146  0.764 -0.000 -0.000
 -0.000 -0.000 -0.000  0.869 -0.000
 -0.156  0.000 -0.000 -0.000  0.757
   spin  2
    eigenvalues: 
  0.618  0.646  0.869  0.911  0.977
    eigenvectors:
  0.000  0.334  0.000  0.000  0.666
  0.500  0.000  0.000  0.500  0.000
  0.500  0.000  0.000  0.500  0.000
  0.000  0.000  1.000  0.000  0.000
  0.000  0.666  0.000  0.000  0.334
    occupations:
  0.867  0.000 -0.000 -0.000 -0.156
  0.000  0.764 -0.146 -0.000  0.000
 -0.000 -0.146  0.764 -0.000 -0.000
 -0.000 -0.000 -0.000  0.869 -0.000
 -0.156  0.000 -0.000 -0.000  0.757
atomic mag. moment =     0.000000
atom   13   Tr[ns(na)] (up, down, total) =   4.02193  4.02193  8.04387
   spin  1
    eigenvalues: 
  0.618  0.646  0.869  0.911  0.977
    eigenvectors:
  0.000  0.334  0.000  0.000  0.666
  0.500  0.000  0.000  0.500  0.000
  0.500  0.000  0.000  0.500  0.000
  0.000  0.000  1.000  0.000  0.000
  0.000  0.666  0.000  0.000  0.334
    occupations:
  0.867 -0.000 -0.000 -0.000  0.156
 -0.000  0.764  0.146  0.000  0.000
 -0.000  0.146  0.764  0.000  0.000
 -0.000  0.000  0.000  0.869 -0.000
  0.156  0.000  0.000 -0.000  0.757
   spin  2
    eigenvalues: 
  0.618  0.646  0.869  0.911  0.977
    eigenvectors:
  0.000  0.334  0.000  0.000  0.666
  0.500  0.000  0.000  0.500  0.000
  0.500  0.000  0.000  0.500  0.000
  0.000  0.000  1.000  0.000  0.000
  0.000  0.666  0.000  0.000  0.334
    occupations:
  0.867 -0.000 -0.000 -0.000  0.156
 -0.000  0.764  0.146  0.000  0.000
 -0.000  0.146  0.764  0.000  0.000
 -0.000  0.000  0.000  0.869 -0.000
  0.156  0.000  0.000 -0.000  0.757
atomic mag. moment =     0.000000
atom   14   Tr[ns(na)] (up, down, total) =   4.02172  4.02172  8.04344
   spin  1
    eigenvalues: 
  0.618  0.646  0.869  0.910  0.977
    eigenvectors:
  0.000  0.334  0.000  0.000  0.666
  0.500  0.000  0.000  0.500  0.000
  0.500  0.000  0.000  0.500  0.000
  0.000  0.000  1.000  0.000  0.000
  0.000  0.666  0.000  0.000  0.334
    occupations:
  0.867  0.000  0.000 -0.000 -0.156
  0.000  0.764 -0.146 -0.000  0.000
  0.000 -0.146  0.764  0.000  0.000
 -0.000 -0.000  0.000  0.869 -0.000
 -0.156  0.000  0.000 -0.000  0.757
   spin  2
    eigenvalues: 
  0.618  0.646  0.869  0.910  0.977
    eigenvectors:
  0.000  0.334  0.000  0.000  0.666
  0.500  0.000  0.000  0.500  0.000
  0.500  0.000  0.000  0.500  0.000
  0.000  0.000  1.000  0.000  0.000
  0.000  0.666  0.000  0.000  0.334
    occupations:
  0.867  0.000  0.000 -0.000 -0.156
  0.000  0.764 -0.146 -0.000  0.000
  0.000 -0.146  0.764  0.000  0.000
 -0.000 -0.000  0.000  0.869 -0.000
 -0.156  0.000  0.000 -0.000  0.757
atomic mag. moment =     0.000000
atom   15   Tr[ns(na)] (up, down, total) =   4.02162  4.02162  8.04325
   spin  1
    eigenvalues: 
  0.618  0.646  0.869  0.910  0.977
    eigenvectors:
  0.000  0.334  0.000  0.000  0.666
  0.500  0.000  0.000  0.500  0.000
  0.500  0.000  0.000  0.500  0.000
  0.000  0.000  1.000  0.000  0.000
  0.000  0.666  0.000  0.000  0.334
    occupations:
  0.867 -0.000 -0.000 -0.000  0.156
 -0.000  0.764  0.146  0.000  0.000
 -0.000  0.146  0.764  0.000  0.000
 -0.000  0.000  0.000  0.869 -0.000
  0.156  0.000  0.000 -0.000  0.757
   spin  2
    eigenvalues: 
  0.618  0.646  0.869  0.910  0.977
    eigenvectors:
  0.000  0.334  0.000  0.000  0.666
  0.500  0.000  0.000  0.500  0.000
  0.500  0.000  0.000  0.500  0.000
  0.000  0.000  1.000  0.000  0.000
  0.000  0.666  0.000  0.000  0.334
    occupations:
  0.867 -0.000 -0.000 -0.000  0.156
 -0.000  0.764  0.146  0.000  0.000
 -0.000  0.146  0.764  0.000  0.000
 -0.000  0.000  0.000  0.869 -0.000
  0.156  0.000  0.000 -0.000  0.757
atomic mag. moment =     0.000000
atom   16   Tr[ns(na)] (up, down, total) =   4.02172  4.02172  8.04344
   spin  1
    eigenvalues: 
  0.618  0.646  0.869  0.910  0.977
    eigenvectors:
  0.000  0.334  0.000  0.000  0.666
  0.500  0.000  0.000  0.500  0.000
  0.500  0.000  0.000  0.500  0.000
  0.000  0.000  1.000  0.000  0.000
  0.000  0.666  0.000  0.000  0.334
    occupations:
  0.867 -0.000 -0.000 -0.000 -0.156
 -0.000  0.764 -0.146  0.000 -0.000
 -0.000 -0.146  0.764 -0.000 -0.000
 -0.000  0.000 -0.000  0.869 -0.000
 -0.156 -0.000 -0.000 -0.000  0.757
   spin  2
    eigenvalues: 
  0.618  0.646  0.869  0.910  0.977
    eigenvectors:
  0.000  0.334  0.000  0.000  0.666
  0.500  0.000  0.000  0.500  0.000
  0.500  0.000  0.000  0.500  0.000
  0.000  0.000  1.000  0.000  0.000
  0.000  0.666  0.000  0.000  0.334
    occupations:
  0.867 -0.000 -0.000 -0.000 -0.156
 -0.000  0.764 -0.146  0.000 -0.000
 -0.000 -0.146  0.764 -0.000 -0.000
 -0.000  0.000 -0.000  0.869 -0.000
 -0.156 -0.000 -0.000 -0.000  0.757
atomic mag. moment =     0.000000
atom   17   Tr[ns(na)] (up, down, total) =   2.68357  2.68357  5.36714
   spin  1
    eigenvalues: 
  0.879  0.884  0.921
    eigenvectors:
  0.000  1.000  0.000
  0.500  0.000  0.500
  0.500  0.000  0.500
    occupations:
  0.884 -0.000 -0.000
 -0.000  0.900 -0.021
 -0.000 -0.021  0.900
   spin  2
    eigenvalues: 
  0.879  0.884  0.921
    eigenvectors:
  0.000  1.000  0.000
  0.500  0.000  0.500
  0.500  0.000  0.500
    occupations:
  0.884 -0.000 -0.000
 -0.000  0.900 -0.021
 -0.000 -0.021  0.900
atomic mag. moment =     0.000000
atom   18   Tr[ns(na)] (up, down, total) =   2.68357  2.68357  5.36714
   spin  1
    eigenvalues: 
  0.879  0.884  0.921
    eigenvectors:
  0.000  1.000  0.000
  0.500  0.000  0.500
  0.500  0.000  0.500
    occupations:
  0.884 -0.000 -0.000
 -0.000  0.900 -0.021
 -0.000 -0.021  0.900
   spin  2
    eigenvalues: 
  0.879  0.884  0.921
    eigenvectors:
  0.000  1.000  0.000
  0.500  0.000  0.500
  0.500  0.000  0.500
    occupations:
  0.884 -0.000 -0.000
 -0.000  0.900 -0.021
 -0.000 -0.021  0.900
atomic mag. moment =     0.000000
atom   19   Tr[ns(na)] (up, down, total) =   2.68354  2.68354  5.36708
   spin  1
    eigenvalues: 
  0.879  0.884  0.921
    eigenvectors:
  0.000  1.000  0.000
  0.500  0.000  0.500
  0.500  0.000  0.500
    occupations:
  0.884 -0.000  0.000
 -0.000  0.900  0.021
  0.000  0.021  0.900
   spin  2
    eigenvalues: 
  0.879  0.884  0.921
    eigenvectors:
  0.000  1.000  0.000
  0.500  0.000  0.500
  0.500  0.000  0.500
    occupations:
  0.884 -0.000  0.000
 -0.000  0.900  0.021
  0.000  0.021  0.900
atomic mag. moment =     0.000000
atom   20   Tr[ns(na)] (up, down, total) =   2.68354  2.68354  5.36708
   spin  1
    eigenvalues: 
  0.879  0.884  0.921
    eigenvectors:
  0.000  1.000  0.000
  0.500  0.000  0.500
  0.500  0.000  0.500
    occupations:
  0.884  0.000 -0.000
  0.000  0.900  0.021
 -0.000  0.021  0.900
   spin  2
    eigenvalues: 
  0.879  0.884  0.921
    eigenvectors:
  0.000  1.000  0.000
  0.500  0.000  0.500
  0.500  0.000  0.500
    occupations:
  0.884  0.000 -0.000
  0.000  0.900  0.021
 -0.000  0.021  0.900
atomic mag. moment =     0.000000
atom   21   Tr[ns(na)] (up, down, total) =   2.68353  2.68353  5.36706
   spin  1
    eigenvalues: 
  0.879  0.884  0.921
    eigenvectors:
  0.000  1.000  0.000
  0.500  0.000  0.500
  0.500  0.000  0.500
    occupations:
  0.884 -0.000 -0.000
 -0.000  0.900 -0.021
 -0.000 -0.021  0.900
   spin  2
    eigenvalues: 
  0.879  0.884  0.921
    eigenvectors:
  0.000  1.000  0.000
  0.500  0.000  0.500
  0.500  0.000  0.500
    occupations:
  0.884 -0.000 -0.000
 -0.000  0.900 -0.021
 -0.000 -0.021  0.900
atomic mag. moment =     0.000000
atom   22   Tr[ns(na)] (up, down, total) =   2.68353  2.68353  5.36706
   spin  1
    eigenvalues: 
  0.879  0.884  0.921
    eigenvectors:
  0.000  1.000  0.000
  0.500  0.000  0.500
  0.500  0.000  0.500
    occupations:
  0.884 -0.000 -0.000
 -0.000  0.900 -0.021
 -0.000 -0.021  0.900
   spin  2
    eigenvalues: 
  0.879  0.884  0.921
    eigenvectors:
  0.000  1.000  0.000
  0.500  0.000  0.500
  0.500  0.000  0.500
    occupations:
  0.884 -0.000 -0.000
 -0.000  0.900 -0.021
 -0.000 -0.021  0.900
atomic mag. moment =     0.000000
atom   23   Tr[ns(na)] (up, down, total) =   2.68354  2.68354  5.36708
   spin  1
    eigenvalues: 
  0.879  0.884  0.921
    eigenvectors:
  0.000  1.000  0.000
  0.500  0.000  0.500
  0.500  0.000  0.500
    occupations:
  0.884  0.000 -0.000
  0.000  0.900  0.021
 -0.000  0.021  0.900
   spin  2
    eigenvalues: 
  0.879  0.884  0.921
    eigenvectors:
  0.000  1.000  0.000
  0.500  0.000  0.500
  0.500  0.000  0.500
    occupations:
  0.884  0.000 -0.000
  0.000  0.900  0.021
 -0.000  0.021  0.900
atomic mag. moment =     0.000000
atom   24   Tr[ns(na)] (up, down, total) =   2.68354  2.68354  5.36708
   spin  1
    eigenvalues: 
  0.879  0.884  0.921
    eigenvectors:
  0.000  1.000  0.000
  0.500  0.000  0.500
  0.500  0.000  0.500
    occupations:
  0.884 -0.000  0.000
 -0.000  0.900  0.021
  0.000  0.021  0.900
   spin  2
    eigenvalues: 
  0.879  0.884  0.921
    eigenvectors:
  0.000  1.000  0.000
  0.500  0.000  0.500
  0.500  0.000  0.500
    occupations:
  0.884 -0.000  0.000
 -0.000  0.900  0.021
  0.000  0.021  0.900
atomic mag. moment =     0.000000
atom   25   Tr[ns(na)] (up, down, total) =   2.68357  2.68357  5.36714
   spin  1
    eigenvalues: 
  0.879  0.884  0.921
    eigenvectors:
  0.000  1.000  0.000
  0.500  0.000  0.500
  0.500  0.000  0.500
    occupations:
  0.884 -0.000 -0.000
 -0.000  0.900 -0.021
 -0.000 -0.021  0.900
   spin  2
    eigenvalues: 
  0.879  0.884  0.921
    eigenvectors:
  0.000  1.000  0.000
  0.500  0.000  0.500
  0.500  0.000  0.500
    occupations:
  0.884 -0.000 -0.000
 -0.000  0.900 -0.021
 -0.000 -0.021  0.900
atomic mag. moment =     0.000000
atom   26   Tr[ns(na)] (up, down, total) =   2.68357  2.68357  5.36714
   spin  1
    eigenvalues: 
  0.879  0.884  0.921
    eigenvectors:
  0.000  1.000  0.000
  0.500  0.000  0.500
  0.500  0.000  0.500
    occupations:
  0.884 -0.000 -0.000
 -0.000  0.900 -0.021
 -0.000 -0.021  0.900
   spin  2
    eigenvalues: 
  0.879  0.884  0.921
    eigenvectors:
  0.000  1.000  0.000
  0.500  0.000  0.500
  0.500  0.000  0.500
    occupations:
  0.884 -0.000 -0.000
 -0.000  0.900 -0.021
 -0.000 -0.021  0.900
atomic mag. moment =     0.000000
atom   27   Tr[ns(na)] (up, down, total) =   2.68355  2.68355  5.36709
   spin  1
    eigenvalues: 
  0.879  0.884  0.921
    eigenvectors:
  0.000  1.000  0.000
  0.500  0.000  0.500
  0.500  0.000  0.500
    occupations:
  0.884 -0.000  0.000
 -0.000  0.900  0.021
  0.000  0.021  0.900
   spin  2
    eigenvalues: 
  0.879  0.884  0.921
    eigenvectors:
  0.000  1.000  0.000
  0.500  0.000  0.500
  0.500  0.000  0.500
    occupations:
  0.884 -0.000  0.000
 -0.000  0.900  0.021
  0.000  0.021  0.900
atomic mag. moment =     0.000000
atom   28   Tr[ns(na)] (up, down, total) =   2.68358  2.68357  5.36715
   spin  1
    eigenvalues: 
  0.879  0.884  0.921
    eigenvectors:
  0.000  1.000  0.000
  0.500  0.000  0.500
  0.500  0.000  0.500
    occupations:
  0.884 -0.000  0.000
 -0.000  0.900  0.021
  0.000  0.021  0.900
   spin  2
    eigenvalues: 
  0.879  0.884  0.921
    eigenvectors:
  0.000  1.000  0.000
  0.500  0.000  0.500
  0.500  0.000  0.500
    occupations:
  0.884 -0.000  0.000
 -0.000  0.900  0.021
  0.000  0.021  0.900
atomic mag. moment =     0.000000
atom   29   Tr[ns(na)] (up, down, total) =   2.68356  2.68356  5.36713
   spin  1
    eigenvalues: 
  0.879  0.884  0.921
    eigenvectors:
  0.000  1.000  0.000
  0.500  0.000  0.500
  0.500  0.000  0.500
    occupations:
  0.884 -0.000 -0.000
 -0.000  0.900 -0.021
 -0.000 -0.021  0.900
   spin  2
    eigenvalues: 
  0.879  0.884  0.921
    eigenvectors:
  0.000  1.000  0.000
  0.500  0.000  0.500
  0.500  0.000  0.500
    occupations:
  0.884 -0.000 -0.000
 -0.000  0.900 -0.021
 -0.000 -0.021  0.900
atomic mag. moment =     0.000000
atom   30   Tr[ns(na)] (up, down, total) =   2.68356  2.68356  5.36713
   spin  1
    eigenvalues: 
  0.879  0.884  0.921
    eigenvectors:
  0.000  1.000  0.000
  0.500  0.000  0.500
  0.500  0.000  0.500
    occupations:
  0.884 -0.000 -0.000
 -0.000  0.900 -0.021
 -0.000 -0.021  0.900
   spin  2
    eigenvalues: 
  0.879  0.884  0.921
    eigenvectors:
  0.000  1.000  0.000
  0.500  0.000  0.500
  0.500  0.000  0.500
    occupations:
  0.884 -0.000 -0.000
 -0.000  0.900 -0.021
 -0.000 -0.021  0.900
atomic mag. moment =     0.000000
atom   31   Tr[ns(na)] (up, down, total) =   2.68355  2.68355  5.36709
   spin  1
    eigenvalues: 
  0.879  0.884  0.921
    eigenvectors:
  0.000  1.000  0.000
  0.500  0.000  0.500
  0.500  0.000  0.500
    occupations:
  0.884  0.000 -0.000
  0.000  0.900  0.021
 -0.000  0.021  0.900
   spin  2
    eigenvalues: 
  0.879  0.884  0.921
    eigenvectors:
  0.000  1.000  0.000
  0.500  0.000  0.500
  0.500  0.000  0.500
    occupations:
  0.884  0.000 -0.000
  0.000  0.900  0.021
 -0.000  0.021  0.900
atomic mag. moment =     0.000000
atom   32   Tr[ns(na)] (up, down, total) =   2.68358  2.68357  5.36715
   spin  1
    eigenvalues: 
  0.879  0.884  0.921
    eigenvectors:
  0.000  1.000  0.000
  0.500  0.000  0.500
  0.500  0.000  0.500
    occupations:
  0.884  0.000 -0.000
  0.000  0.900  0.021
 -0.000  0.021  0.900
   spin  2
    eigenvalues: 
  0.879  0.884  0.921
    eigenvectors:
  0.000  1.000  0.000
  0.500  0.000  0.500
  0.500  0.000  0.500
    occupations:
  0.884  0.000 -0.000
  0.000  0.900  0.021
 -0.000  0.021  0.900
atomic mag. moment =     0.000000
atom   33   Tr[ns(na)] (up, down, total) =   2.68357  2.68357  5.36714
   spin  1
    eigenvalues: 
  0.879  0.884  0.921
    eigenvectors:
  0.000  1.000  0.000
  0.500  0.000  0.500
  0.500  0.000  0.500
    occupations:
  0.884 -0.000 -0.000
 -0.000  0.900 -0.021
 -0.000 -0.021  0.900
   spin  2
    eigenvalues: 
  0.879  0.884  0.921
    eigenvectors:
  0.000  1.000  0.000
  0.500  0.000  0.500
  0.500  0.000  0.500
    occupations:
  0.884 -0.000 -0.000
 -0.000  0.900 -0.021
 -0.000 -0.021  0.900
atomic mag. moment =     0.000000
atom   34   Tr[ns(na)] (up, down, total) =   2.68357  2.68357  5.36714
   spin  1
    eigenvalues: 
  0.879  0.884  0.921
    eigenvectors:
  0.000  1.000  0.000
  0.500  0.000  0.500
  0.500  0.000  0.500
    occupations:
  0.884 -0.000 -0.000
 -0.000  0.900 -0.021
 -0.000 -0.021  0.900
   spin  2
    eigenvalues: 
  0.879  0.884  0.921
    eigenvectors:
  0.000  1.000  0.000
  0.500  0.000  0.500
  0.500  0.000  0.500
    occupations:
  0.884 -0.000 -0.000
 -0.000  0.900 -0.021
 -0.000 -0.021  0.900
atomic mag. moment =     0.000000
atom   35   Tr[ns(na)] (up, down, total) =   2.68358  2.68357  5.36715
   spin  1
    eigenvalues: 
  0.879  0.884  0.921
    eigenvectors:
  0.000  1.000  0.000
  0.500  0.000  0.500
  0.500  0.000  0.500
    occupations:
  0.884  0.000 -0.000
  0.000  0.900  0.021
 -0.000  0.021  0.900
   spin  2
    eigenvalues: 
  0.879  0.884  0.921
    eigenvectors:
  0.000  1.000  0.000
  0.500  0.000  0.500
  0.500  0.000  0.500
    occupations:
  0.884  0.000 -0.000
  0.000  0.900  0.021
 -0.000  0.021  0.900
atomic mag. moment =     0.000000
atom   36   Tr[ns(na)] (up, down, total) =   2.68355  2.68355  5.36709
   spin  1
    eigenvalues: 
  0.879  0.884  0.921
    eigenvectors:
  0.000  1.000  0.000
  0.500  0.000  0.500
  0.500  0.000  0.500
    occupations:
  0.884  0.000 -0.000
  0.000  0.900  0.021
 -0.000  0.021  0.900
   spin  2
    eigenvalues: 
  0.879  0.884  0.921
    eigenvectors:
  0.000  1.000  0.000
  0.500  0.000  0.500
  0.500  0.000  0.500
    occupations:
  0.884  0.000 -0.000
  0.000  0.900  0.021
 -0.000  0.021  0.900
atomic mag. moment =     0.000000
atom   37   Tr[ns(na)] (up, down, total) =   2.68356  2.68356  5.36713
   spin  1
    eigenvalues: 
  0.879  0.884  0.921
    eigenvectors:
  0.000  1.000  0.000
  0.500  0.000  0.500
  0.500  0.000  0.500
    occupations:
  0.884 -0.000 -0.000
 -0.000  0.900 -0.021
 -0.000 -0.021  0.900
   spin  2
    eigenvalues: 
  0.879  0.884  0.921
    eigenvectors:
  0.000  1.000  0.000
  0.500  0.000  0.500
  0.500  0.000  0.500
    occupations:
  0.884 -0.000 -0.000
 -0.000  0.900 -0.021
 -0.000 -0.021  0.900
atomic mag. moment =     0.000000
atom   38   Tr[ns(na)] (up, down, total) =   2.68356  2.68356  5.36713
   spin  1
    eigenvalues: 
  0.879  0.884  0.921
    eigenvectors:
  0.000  1.000  0.000
  0.500  0.000  0.500
  0.500  0.000  0.500
    occupations:
  0.884 -0.000 -0.000
 -0.000  0.900 -0.021
 -0.000 -0.021  0.900
   spin  2
    eigenvalues: 
  0.879  0.884  0.921
    eigenvectors:
  0.000  1.000  0.000
  0.500  0.000  0.500
  0.500  0.000  0.500
    occupations:
  0.884 -0.000 -0.000
 -0.000  0.900 -0.021
 -0.000 -0.021  0.900
atomic mag. moment =     0.000000
atom   39   Tr[ns(na)] (up, down, total) =   2.68358  2.68357  5.36715
   spin  1
    eigenvalues: 
  0.879  0.884  0.921
    eigenvectors:
  0.000  1.000  0.000
  0.500  0.000  0.500
  0.500  0.000  0.500
    occupations:
  0.884 -0.000  0.000
 -0.000  0.900  0.021
  0.000  0.021  0.900
   spin  2
    eigenvalues: 
  0.879  0.884  0.921
    eigenvectors:
  0.000  1.000  0.000
  0.500  0.000  0.500
  0.500  0.000  0.500
    occupations:
  0.884 -0.000  0.000
 -0.000  0.900  0.021
  0.000  0.021  0.900
atomic mag. moment =     0.000000
atom   40   Tr[ns(na)] (up, down, total) =   2.68355  2.68355  5.36709
   spin  1
    eigenvalues: 
  0.879  0.884  0.921
    eigenvectors:
  0.000  1.000  0.000
  0.500  0.000  0.500
  0.500  0.000  0.500
    occupations:
  0.884 -0.000  0.000
 -0.000  0.900  0.021
  0.000  0.021  0.900
   spin  2
    eigenvalues: 
  0.879  0.884  0.921
    eigenvectors:
  0.000  1.000  0.000
  0.500  0.000  0.500
  0.500  0.000  0.500
    occupations:
  0.884 -0.000  0.000
 -0.000  0.900  0.021
  0.000  0.021  0.900
atomic mag. moment =     0.000000
atom   41   Tr[ns(na)] (up, down, total) =   2.68359  2.68359  5.36717
   spin  1
    eigenvalues: 
  0.879  0.884  0.921
    eigenvectors:
  0.000  1.000  0.000
  0.500  0.000  0.500
  0.500  0.000  0.500
    occupations:
  0.884 -0.000 -0.000
 -0.000  0.900 -0.021
 -0.000 -0.021  0.900
   spin  2
    eigenvalues: 
  0.879  0.884  0.921
    eigenvectors:
  0.000  1.000  0.000
  0.500  0.000  0.500
  0.500  0.000  0.500
    occupations:
  0.884 -0.000 -0.000
 -0.000  0.900 -0.021
 -0.000 -0.021  0.900
atomic mag. moment =     0.000000
atom   42   Tr[ns(na)] (up, down, total) =   2.68359  2.68359  5.36717
   spin  1
    eigenvalues: 
  0.879  0.884  0.921
    eigenvectors:
  0.000  1.000  0.000
  0.500  0.000  0.500
  0.500  0.000  0.500
    occupations:
  0.884 -0.000 -0.000
 -0.000  0.900 -0.021
 -0.000 -0.021  0.900
   spin  2
    eigenvalues: 
  0.879  0.884  0.921
    eigenvectors:
  0.000  1.000  0.000
  0.500  0.000  0.500
  0.500  0.000  0.500
    occupations:
  0.884 -0.000 -0.000
 -0.000  0.900 -0.021
 -0.000 -0.021  0.900
atomic mag. moment =     0.000000
atom   43   Tr[ns(na)] (up, down, total) =   2.68354  2.68354  5.36708
   spin  1
    eigenvalues: 
  0.879  0.884  0.921
    eigenvectors:
  0.000  1.000  0.000
  0.500  0.000  0.500
  0.500  0.000  0.500
    occupations:
  0.884 -0.000  0.000
 -0.000  0.900  0.021
  0.000  0.021  0.900
   spin  2
    eigenvalues: 
  0.879  0.884  0.921
    eigenvectors:
  0.000  1.000  0.000
  0.500  0.000  0.500
  0.500  0.000  0.500
    occupations:
  0.884 -0.000  0.000
 -0.000  0.900  0.021
  0.000  0.021  0.900
atomic mag. moment =     0.000000
atom   44   Tr[ns(na)] (up, down, total) =   2.68354  2.68354  5.36708
   spin  1
    eigenvalues: 
  0.879  0.884  0.921
    eigenvectors:
  0.000  1.000  0.000
  0.500  0.000  0.500
  0.500  0.000  0.500
    occupations:
  0.884  0.000 -0.000
  0.000  0.900  0.021
 -0.000  0.021  0.900
   spin  2
    eigenvalues: 
  0.879  0.884  0.921
    eigenvectors:
  0.000  1.000  0.000
  0.500  0.000  0.500
  0.500  0.000  0.500
    occupations:
  0.884  0.000 -0.000
  0.000  0.900  0.021
 -0.000  0.021  0.900
atomic mag. moment =     0.000000
atom   45   Tr[ns(na)] (up, down, total) =   2.68350  2.68350  5.36699
   spin  1
    eigenvalues: 
  0.879  0.884  0.921
    eigenvectors:
  0.000  1.000  0.000
  0.500  0.000  0.500
  0.500  0.000  0.500
    occupations:
  0.884 -0.000 -0.000
 -0.000  0.900 -0.021
 -0.000 -0.021  0.900
   spin  2
    eigenvalues: 
  0.879  0.884  0.921
    eigenvectors:
  0.000  1.000  0.000
  0.500  0.000  0.500
  0.500  0.000  0.500
    occupations:
  0.884 -0.000 -0.000
 -0.000  0.900 -0.021
 -0.000 -0.021  0.900
atomic mag. moment =     0.000000
atom   46   Tr[ns(na)] (up, down, total) =   2.68350  2.68350  5.36699
   spin  1
    eigenvalues: 
  0.879  0.884  0.921
    eigenvectors:
  0.000  1.000  0.000
  0.500  0.000  0.500
  0.500  0.000  0.500
    occupations:
  0.884 -0.000 -0.000
 -0.000  0.900 -0.021
 -0.000 -0.021  0.900
   spin  2
    eigenvalues: 
  0.879  0.884  0.921
    eigenvectors:
  0.000  1.000  0.000
  0.500  0.000  0.500
  0.500  0.000  0.500
    occupations:
  0.884 -0.000 -0.000
 -0.000  0.900 -0.021
 -0.000 -0.021  0.900
atomic mag. moment =     0.000000
atom   47   Tr[ns(na)] (up, down, total) =   2.68354  2.68354  5.36708
   spin  1
    eigenvalues: 
  0.879  0.884  0.921
    eigenvectors:
  0.000  1.000  0.000
  0.500  0.000  0.500
  0.500  0.000  0.500
    occupations:
  0.884  0.000 -0.000
  0.000  0.900  0.021
 -0.000  0.021  0.900
   spin  2
    eigenvalues: 
  0.879  0.884  0.921
    eigenvectors:
  0.000  1.000  0.000
  0.500  0.000  0.500
  0.500  0.000  0.500
    occupations:
  0.884  0.000 -0.000
  0.000  0.900  0.021
 -0.000  0.021  0.900
atomic mag. moment =     0.000000
atom   48   Tr[ns(na)] (up, down, total) =   2.68354  2.68354  5.36708
   spin  1
    eigenvalues: 
  0.879  0.884  0.921
    eigenvectors:
  0.000  1.000  0.000
  0.500  0.000  0.500
  0.500  0.000  0.500
    occupations:
  0.884 -0.000  0.000
 -0.000  0.900  0.021
  0.000  0.021  0.900
   spin  2
    eigenvalues: 
  0.879  0.884  0.921
    eigenvectors:
  0.000  1.000  0.000
  0.500  0.000  0.500
  0.500  0.000  0.500
    occupations:
  0.884 -0.000  0.000
 -0.000  0.900  0.021
  0.000  0.021  0.900
atomic mag. moment =     0.000000
N of occupied +U levels = 300.4437011
 --- exit write_ns ---
 Atomic wfc used for LDA+U Projector are NOT orthogonalized
     Starting wfc from file

     total cpu time spent up to now is       80.9 secs

     per-process dynamical memory:   106.2 Mb

     Self-consistent Calculation

     iteration #  1     ecut=    40.00 Ry     beta=0.70
     Davidson diagonalization with overlap
     ethr =  4.36E-10,  avg # of iterations =  6.7
 --- enter write_ns ---
 LDA+U parameters:
U( 1)     =  0.00000000
alpha( 1) = -0.07000000
U( 2)     =  0.00000000
alpha( 2) =  0.00000000
U( 3)     =  0.00000000
alpha( 3) =  0.00000000
atom    1   Tr[ns(na)] (up, down, total) =   4.03800  4.03800  8.07600
   spin  1
    eigenvalues: 
  0.621  0.649  0.876  0.914  0.978
    eigenvectors:
  0.000  0.334  0.000  0.000  0.666
  0.500  0.000  0.000  0.500  0.000
  0.500  0.000  0.000  0.500  0.000
  0.000  0.000  1.000  0.000  0.000
  0.000  0.666  0.000  0.000  0.334
    occupations:
  0.868 -0.000 -0.000 -0.000  0.155
 -0.000  0.768  0.146  0.000  0.000
 -0.000  0.146  0.768  0.000  0.000
 -0.000  0.000  0.000  0.876 -0.000
  0.155  0.000  0.000 -0.000  0.759
   spin  2
    eigenvalues: 
  0.621  0.649  0.876  0.914  0.978
    eigenvectors:
  0.000  0.334  0.000  0.000  0.666
  0.500  0.000  0.000  0.500  0.000
  0.500  0.000  0.000  0.500  0.000
  0.000  0.000  1.000  0.000  0.000
  0.000  0.666  0.000  0.000  0.334
    occupations:
  0.868 -0.000 -0.000 -0.000  0.155
 -0.000  0.768  0.146  0.000  0.000
 -0.000  0.146  0.768  0.000  0.000
 -0.000  0.000  0.000  0.876 -0.000
  0.155  0.000  0.000 -0.000  0.759
atomic mag. moment =     0.000000
atom    2   Tr[ns(na)] (up, down, total) =   4.02172  4.02172  8.04343
   spin  1
    eigenvalues: 
  0.618  0.646  0.869  0.911  0.977
    eigenvectors:
  0.000  0.334  0.000  0.000  0.666
  0.500  0.000  0.000  0.500  0.000
  0.500  0.000  0.000  0.500  0.000
  0.000  0.000  1.000  0.000  0.000
  0.000  0.666  0.000  0.000  0.334
    occupations:
  0.867 -0.000 -0.000 -0.000 -0.156
 -0.000  0.764 -0.146  0.000  0.000
 -0.000 -0.146  0.764 -0.000  0.000
 -0.000  0.000 -0.000  0.869 -0.000
 -0.156  0.000  0.000 -0.000  0.757
   spin  2
    eigenvalues: 
  0.618  0.646  0.869  0.911  0.977
    eigenvectors:
  0.000  0.334  0.000  0.000  0.666
  0.500  0.000  0.000  0.500  0.000
  0.500  0.000  0.000  0.500  0.000
  0.000  0.000  1.000  0.000  0.000
  0.000  0.666  0.000  0.000  0.334
    occupations:
  0.867 -0.000 -0.000 -0.000 -0.156
 -0.000  0.764 -0.146  0.000  0.000
 -0.000 -0.146  0.764 -0.000  0.000
 -0.000  0.000 -0.000  0.869 -0.000
 -0.156  0.000  0.000 -0.000  0.757
atomic mag. moment =     0.000000
atom    3   Tr[ns(na)] (up, down, total) =   4.02056  4.02056  8.04112
   spin  1
    eigenvalues: 
  0.618  0.646  0.869  0.910  0.977
    eigenvectors:
  0.000  0.334  0.000  0.000  0.666
  0.500  0.000  0.000  0.500  0.000
  0.500  0.000  0.000  0.500  0.000
  0.000  0.000  1.000  0.000  0.000
  0.000  0.666  0.000  0.000  0.334
    occupations:
  0.867 -0.000 -0.000 -0.000  0.156
 -0.000  0.764  0.146  0.000  0.000
 -0.000  0.146  0.764  0.000  0.000
 -0.000  0.000  0.000  0.869 -0.000
  0.156  0.000  0.000 -0.000  0.757
   spin  2
    eigenvalues: 
  0.618  0.646  0.869  0.910  0.977
    eigenvectors:
  0.000  0.334  0.000  0.000  0.666
  0.500  0.000  0.000  0.500  0.000
  0.500  0.000  0.000  0.500  0.000
  0.000  0.000  1.000  0.000  0.000
  0.000  0.666  0.000  0.000  0.334
    occupations:
  0.867 -0.000 -0.000 -0.000  0.156
 -0.000  0.764  0.146  0.000  0.000
 -0.000  0.146  0.764  0.000  0.000
 -0.000  0.000  0.000  0.869 -0.000
  0.156  0.000  0.000 -0.000  0.757
atomic mag. moment =     0.000000
atom    4   Tr[ns(na)] (up, down, total) =   4.02172  4.02172  8.04343
   spin  1
    eigenvalues: 
  0.618  0.646  0.869  0.911  0.977
    eigenvectors:
  0.000  0.334  0.000  0.000  0.666
  0.500  0.000  0.000  0.500  0.000
  0.500  0.000  0.000  0.500  0.000
  0.000  0.000  1.000  0.000  0.000
  0.000  0.666  0.000  0.000  0.334
    occupations:
  0.867  0.000  0.000 -0.000 -0.156
  0.000  0.764 -0.146 -0.000 -0.000
  0.000 -0.146  0.764  0.000 -0.000
 -0.000 -0.000  0.000  0.869 -0.000
 -0.156 -0.000 -0.000 -0.000  0.757
   spin  2
    eigenvalues: 
  0.618  0.646  0.869  0.911  0.977
    eigenvectors:
  0.000  0.334  0.000  0.000  0.666
  0.500  0.000  0.000  0.500  0.000
  0.500  0.000  0.000  0.500  0.000
  0.000  0.000  1.000  0.000  0.000
  0.000  0.666  0.000  0.000  0.334
    occupations:
  0.867  0.000  0.000 -0.000 -0.156
  0.000  0.764 -0.146 -0.000 -0.000
  0.000 -0.146  0.764  0.000 -0.000
 -0.000 -0.000  0.000  0.869 -0.000
 -0.156 -0.000 -0.000 -0.000  0.757
atomic mag. moment =     0.000000
atom    5   Tr[ns(na)] (up, down, total) =   4.02175  4.02175  8.04350
   spin  1
    eigenvalues: 
  0.618  0.647  0.869  0.910  0.977
    eigenvectors:
  0.000  0.334  0.000  0.000  0.666
  0.500  0.000  0.000  0.500  0.000
  0.500  0.000  0.000  0.500  0.000
  0.000  0.000  1.000  0.000  0.000
  0.000  0.666  0.000  0.000  0.334
    occupations:
  0.867 -0.000 -0.000 -0.000  0.156
 -0.000  0.764  0.146  0.000  0.000
 -0.000  0.146  0.764  0.000  0.000
 -0.000  0.000  0.000  0.869  0.000
  0.156  0.000  0.000  0.000  0.757
   spin  2
    eigenvalues: 
  0.618  0.647  0.869  0.910  0.977
    eigenvectors:
  0.000  0.334  0.000  0.000  0.666
  0.500  0.000  0.000  0.500  0.000
  0.500  0.000  0.000  0.500  0.000
  0.000  0.000  1.000  0.000  0.000
  0.000  0.666  0.000  0.000  0.334
    occupations:
  0.867 -0.000 -0.000 -0.000  0.156
 -0.000  0.764  0.146  0.000  0.000
 -0.000  0.146  0.764  0.000  0.000
 -0.000  0.000  0.000  0.869  0.000
  0.156  0.000  0.000  0.000  0.757
atomic mag. moment =    -0.000000
atom    6   Tr[ns(na)] (up, down, total) =   4.02036  4.02036  8.04072
   spin  1
    eigenvalues: 
  0.618  0.646  0.868  0.910  0.977
    eigenvectors:
  0.000  0.334  0.000  0.000  0.666
  0.500  0.000  0.000  0.500  0.000
  0.500  0.000  0.000  0.500  0.000
  0.000  0.000  1.000  0.000  0.000
  0.000  0.666  0.000  0.000  0.334
    occupations:
  0.867 -0.000  0.000 -0.000 -0.156
 -0.000  0.764 -0.146  0.000 -0.000
  0.000 -0.146  0.764  0.000  0.000
 -0.000  0.000  0.000  0.868 -0.000
 -0.156 -0.000  0.000 -0.000  0.757
   spin  2
    eigenvalues: 
  0.618  0.646  0.868  0.910  0.977
    eigenvectors:
  0.000  0.334  0.000  0.000  0.666
  0.500  0.000  0.000  0.500  0.000
  0.500  0.000  0.000  0.500  0.000
  0.000  0.000  1.000  0.000  0.000
  0.000  0.666  0.000  0.000  0.334
    occupations:
  0.867 -0.000  0.000 -0.000 -0.156
 -0.000  0.764 -0.146  0.000 -0.000
  0.000 -0.146  0.764  0.000  0.000
 -0.000  0.000  0.000  0.868 -0.000
 -0.156 -0.000  0.000 -0.000  0.757
atomic mag. moment =     0.000000
atom    7   Tr[ns(na)] (up, down, total) =   4.02219  4.02219  8.04438
   spin  1
    eigenvalues: 
  0.618  0.647  0.869  0.911  0.977
    eigenvectors:
  0.000  0.334  0.000  0.000  0.666
  0.500  0.000  0.000  0.500  0.000
  0.500  0.000  0.000  0.500  0.000
  0.000  0.000  1.000  0.000  0.000
  0.000  0.666  0.000  0.000  0.334
    occupations:
  0.867 -0.000 -0.000  0.000  0.156
 -0.000  0.764  0.146  0.000  0.000
 -0.000  0.146  0.764  0.000  0.000
  0.000  0.000  0.000  0.869 -0.000
  0.156  0.000  0.000 -0.000  0.757
   spin  2
    eigenvalues: 
  0.618  0.647  0.869  0.911  0.977
    eigenvectors:
  0.000  0.334  0.000  0.000  0.666
  0.500  0.000  0.000  0.500  0.000
  0.500  0.000  0.000  0.500  0.000
  0.000  0.000  1.000  0.000  0.000
  0.000  0.666  0.000  0.000  0.334
    occupations:
  0.867 -0.000 -0.000  0.000  0.156
 -0.000  0.764  0.146  0.000  0.000
 -0.000  0.146  0.764  0.000  0.000
  0.000  0.000  0.000  0.869 -0.000
  0.156  0.000  0.000 -0.000  0.757
atomic mag. moment =    -0.000000
atom    8   Tr[ns(na)] (up, down, total) =   4.02036  4.02036  8.04072
   spin  1
    eigenvalues: 
  0.618  0.646  0.868  0.910  0.977
    eigenvectors:
  0.000  0.334  0.000  0.000  0.666
  0.500  0.000  0.000  0.500  0.000
  0.500  0.000  0.000  0.500  0.000
  0.000  0.000  1.000  0.000  0.000
  0.000  0.666  0.000  0.000  0.334
    occupations:
  0.867  0.000 -0.000 -0.000 -0.156
  0.000  0.764 -0.146 -0.000  0.000
 -0.000 -0.146  0.764 -0.000 -0.000
 -0.000 -0.000 -0.000  0.868 -0.000
 -0.156  0.000 -0.000 -0.000  0.757
   spin  2
    eigenvalues: 
  0.618  0.646  0.868  0.910  0.977
    eigenvectors:
  0.000  0.334  0.000  0.000  0.666
  0.500  0.000  0.000  0.500  0.000
  0.500  0.000  0.000  0.500  0.000
  0.000  0.000  1.000  0.000  0.000
  0.000  0.666  0.000  0.000  0.334
    occupations:
  0.867  0.000 -0.000 -0.000 -0.156
  0.000  0.764 -0.146 -0.000  0.000
 -0.000 -0.146  0.764 -0.000 -0.000
 -0.000 -0.000 -0.000  0.868 -0.000
 -0.156  0.000 -0.000 -0.000  0.757
atomic mag. moment =     0.000000
atom    9   Tr[ns(na)] (up, down, total) =   4.02175  4.02175  8.04350
   spin  1
    eigenvalues: 
  0.618  0.647  0.869  0.910  0.977
    eigenvectors:
  0.000  0.334  0.000  0.000  0.666
  0.500  0.000  0.000  0.500  0.000
  0.500  0.000  0.000  0.500  0.000
  0.000  0.000  1.000  0.000  0.000
  0.000  0.666  0.000  0.000  0.334
    occupations:
  0.867 -0.000 -0.000  0.000  0.156
 -0.000  0.764  0.146  0.000  0.000
 -0.000  0.146  0.764  0.000  0.000
  0.000  0.000  0.000  0.869 -0.000
  0.156  0.000  0.000 -0.000  0.757
   spin  2
    eigenvalues: 
  0.618  0.647  0.869  0.910  0.977
    eigenvectors:
  0.000  0.334  0.000  0.000  0.666
  0.500  0.000  0.000  0.500  0.000
  0.500  0.000  0.000  0.500  0.000
  0.000  0.000  1.000  0.000  0.000
  0.000  0.666  0.000  0.000  0.334
    occupations:
  0.867 -0.000 -0.000  0.000  0.156
 -0.000  0.764  0.146  0.000  0.000
 -0.000  0.146  0.764  0.000  0.000
  0.000  0.000  0.000  0.869 -0.000
  0.156  0.000  0.000 -0.000  0.757
atomic mag. moment =    -0.000000
atom   10   Tr[ns(na)] (up, down, total) =   4.02036  4.02036  8.04072
   spin  1
    eigenvalues: 
  0.618  0.646  0.868  0.910  0.977
    eigenvectors:
  0.000  0.334  0.000  0.000  0.666
  0.500  0.000  0.000  0.500  0.000
  0.500  0.000  0.000  0.500  0.000
  0.000  0.000  1.000  0.000  0.000
  0.000  0.666  0.000  0.000  0.334
    occupations:
  0.867  0.000 -0.000 -0.000 -0.156
  0.000  0.764 -0.146 -0.000  0.000
 -0.000 -0.146  0.764 -0.000 -0.000
 -0.000 -0.000 -0.000  0.868 -0.000
 -0.156  0.000 -0.000 -0.000  0.757
   spin  2
    eigenvalues: 
  0.618  0.646  0.868  0.910  0.977
    eigenvectors:
  0.000  0.334  0.000  0.000  0.666
  0.500  0.000  0.000  0.500  0.000
  0.500  0.000  0.000  0.500  0.000
  0.000  0.000  1.000  0.000  0.000
  0.000  0.666  0.000  0.000  0.334
    occupations:
  0.867  0.000 -0.000 -0.000 -0.156
  0.000  0.764 -0.146 -0.000  0.000
 -0.000 -0.146  0.764 -0.000 -0.000
 -0.000 -0.000 -0.000  0.868 -0.000
 -0.156  0.000 -0.000 -0.000  0.757
atomic mag. moment =     0.000000
atom   11   Tr[ns(na)] (up, down, total) =   4.02219  4.02219  8.04438
   spin  1
    eigenvalues: 
  0.618  0.647  0.869  0.911  0.977
    eigenvectors:
  0.000  0.334  0.000  0.000  0.666
  0.500  0.000  0.000  0.500  0.000
  0.500  0.000  0.000  0.500  0.000
  0.000  0.000  1.000  0.000  0.000
  0.000  0.666  0.000  0.000  0.334
    occupations:
  0.867 -0.000 -0.000 -0.000  0.156
 -0.000  0.764  0.146  0.000  0.000
 -0.000  0.146  0.764  0.000  0.000
 -0.000  0.000  0.000  0.869  0.000
  0.156  0.000  0.000  0.000  0.757
   spin  2
    eigenvalues: 
  0.618  0.647  0.869  0.911  0.977
    eigenvectors:
  0.000  0.334  0.000  0.000  0.666
  0.500  0.000  0.000  0.500  0.000
  0.500  0.000  0.000  0.500  0.000
  0.000  0.000  1.000  0.000  0.000
  0.000  0.666  0.000  0.000  0.334
    occupations:
  0.867 -0.000 -0.000 -0.000  0.156
 -0.000  0.764  0.146  0.000  0.000
 -0.000  0.146  0.764  0.000  0.000
 -0.000  0.000  0.000  0.869  0.000
  0.156  0.000  0.000  0.000  0.757
atomic mag. moment =    -0.000000
atom   12   Tr[ns(na)] (up, down, total) =   4.02036  4.02036  8.04072
   spin  1
    eigenvalues: 
  0.618  0.646  0.868  0.910  0.977
    eigenvectors:
  0.000  0.334  0.000  0.000  0.666
  0.500  0.000  0.000  0.500  0.000
  0.500  0.000  0.000  0.500  0.000
  0.000  0.000  1.000  0.000  0.000
  0.000  0.666  0.000  0.000  0.334
    occupations:
  0.867 -0.000  0.000 -0.000 -0.156
 -0.000  0.764 -0.146  0.000 -0.000
  0.000 -0.146  0.764  0.000  0.000
 -0.000  0.000  0.000  0.868 -0.000
 -0.156 -0.000  0.000 -0.000  0.757
   spin  2
    eigenvalues: 
  0.618  0.646  0.868  0.910  0.977
    eigenvectors:
  0.000  0.334  0.000  0.000  0.666
  0.500  0.000  0.000  0.500  0.000
  0.500  0.000  0.000  0.500  0.000
  0.000  0.000  1.000  0.000  0.000
  0.000  0.666  0.000  0.000  0.334
    occupations:
  0.867 -0.000  0.000 -0.000 -0.156
 -0.000  0.764 -0.146  0.000 -0.000
  0.000 -0.146  0.764  0.000  0.000
 -0.000  0.000  0.000  0.868 -0.000
 -0.156 -0.000  0.000 -0.000  0.757
atomic mag. moment =     0.000000
atom   13   Tr[ns(na)] (up, down, total) =   4.01977  4.01977  8.03954
   spin  1
    eigenvalues: 
  0.618  0.646  0.868  0.910  0.977
    eigenvectors:
  0.000  0.334  0.000  0.000  0.666
  0.500  0.000  0.000  0.500  0.000
  0.500  0.000  0.000  0.500  0.000
  0.000  0.000  1.000  0.000  0.000
  0.000  0.666  0.000  0.000  0.334
    occupations:
  0.867 -0.000 -0.000 -0.000  0.156
 -0.000  0.764  0.146  0.000  0.000
 -0.000  0.146  0.764  0.000  0.000
 -0.000  0.000  0.000  0.868 -0.000
  0.156  0.000  0.000 -0.000  0.757
   spin  2
    eigenvalues: 
  0.618  0.646  0.868  0.910  0.977
    eigenvectors:
  0.000  0.334  0.000  0.000  0.666
  0.500  0.000  0.000  0.500  0.000
  0.500  0.000  0.000  0.500  0.000
  0.000  0.000  1.000  0.000  0.000
  0.000  0.666  0.000  0.000  0.334
    occupations:
  0.867 -0.000 -0.000 -0.000  0.156
 -0.000  0.764  0.146  0.000  0.000
 -0.000  0.146  0.764  0.000  0.000
 -0.000  0.000  0.000  0.868 -0.000
  0.156  0.000  0.000 -0.000  0.757
atomic mag. moment =     0.000000
atom   14   Tr[ns(na)] (up, down, total) =   4.02172  4.02172  8.04343
   spin  1
    eigenvalues: 
  0.618  0.646  0.869  0.911  0.977
    eigenvectors:
  0.000  0.334  0.000  0.000  0.666
  0.500  0.000  0.000  0.500  0.000
  0.500  0.000  0.000  0.500  0.000
  0.000  0.000  1.000  0.000  0.000
  0.000  0.666  0.000  0.000  0.334
    occupations:
  0.867  0.000  0.000 -0.000 -0.156
  0.000  0.764 -0.146 -0.000 -0.000
  0.000 -0.146  0.764  0.000 -0.000
 -0.000 -0.000  0.000  0.869 -0.000
 -0.156 -0.000 -0.000 -0.000  0.757
   spin  2
    eigenvalues: 
  0.618  0.646  0.869  0.911  0.977
    eigenvectors:
  0.000  0.334  0.000  0.000  0.666
  0.500  0.000  0.000  0.500  0.000
  0.500  0.000  0.000  0.500  0.000
  0.000  0.000  1.000  0.000  0.000
  0.000  0.666  0.000  0.000  0.334
    occupations:
  0.867  0.000  0.000 -0.000 -0.156
  0.000  0.764 -0.146 -0.000 -0.000
  0.000 -0.146  0.764  0.000 -0.000
 -0.000 -0.000  0.000  0.869 -0.000
 -0.156 -0.000 -0.000 -0.000  0.757
atomic mag. moment =     0.000000
atom   15   Tr[ns(na)] (up, down, total) =   4.02256  4.02256  8.04513
   spin  1
    eigenvalues: 
  0.619  0.647  0.870  0.911  0.977
    eigenvectors:
  0.000  0.334  0.000  0.000  0.666
  0.500  0.000  0.000  0.500  0.000
  0.500  0.000  0.000  0.500  0.000
  0.000  0.000  1.000  0.000  0.000
  0.000  0.666  0.000  0.000  0.334
    occupations:
  0.867 -0.000 -0.000 -0.000  0.156
 -0.000  0.765  0.146  0.000  0.000
 -0.000  0.146  0.765  0.000  0.000
 -0.000  0.000  0.000  0.870 -0.000
  0.156  0.000  0.000 -0.000  0.757
   spin  2
    eigenvalues: 
  0.619  0.647  0.870  0.911  0.977
    eigenvectors:
  0.000  0.334  0.000  0.000  0.666
  0.500  0.000  0.000  0.500  0.000
  0.500  0.000  0.000  0.500  0.000
  0.000  0.000  1.000  0.000  0.000
  0.000  0.666  0.000  0.000  0.334
    occupations:
  0.867 -0.000 -0.000 -0.000  0.156
 -0.000  0.765  0.146  0.000  0.000
 -0.000  0.146  0.765  0.000  0.000
 -0.000  0.000  0.000  0.870 -0.000
  0.156  0.000  0.000 -0.000  0.757
atomic mag. moment =     0.000000
atom   16   Tr[ns(na)] (up, down, total) =   4.02172  4.02172  8.04343
   spin  1
    eigenvalues: 
  0.618  0.646  0.869  0.911  0.977
    eigenvectors:
  0.000  0.334  0.000  0.000  0.666
  0.500  0.000  0.000  0.500  0.000
  0.500  0.000  0.000  0.500  0.000
  0.000  0.000  1.000  0.000  0.000
  0.000  0.666  0.000  0.000  0.334
    occupations:
  0.867 -0.000 -0.000 -0.000 -0.156
 -0.000  0.764 -0.146  0.000  0.000
 -0.000 -0.146  0.764 -0.000  0.000
 -0.000  0.000 -0.000  0.869 -0.000
 -0.156  0.000  0.000 -0.000  0.757
   spin  2
    eigenvalues: 
  0.618  0.646  0.869  0.911  0.977
    eigenvectors:
  0.000  0.334  0.000  0.000  0.666
  0.500  0.000  0.000  0.500  0.000
  0.500  0.000  0.000  0.500  0.000
  0.000  0.000  1.000  0.000  0.000
  0.000  0.666  0.000  0.000  0.334
    occupations:
  0.867 -0.000 -0.000 -0.000 -0.156
 -0.000  0.764 -0.146  0.000  0.000
 -0.000 -0.146  0.764 -0.000  0.000
 -0.000  0.000 -0.000  0.869 -0.000
 -0.156  0.000  0.000 -0.000  0.757
atomic mag. moment =     0.000000
atom   17   Tr[ns(na)] (up, down, total) =   2.68360  2.68360  5.36720
   spin  1
    eigenvalues: 
  0.879  0.884  0.921
    eigenvectors:
  0.000  1.000  0.000
  0.500  0.000  0.500
  0.500  0.000  0.500
    occupations:
  0.884 -0.000 -0.000
 -0.000  0.900 -0.021
 -0.000 -0.021  0.900
   spin  2
    eigenvalues: 
  0.879  0.884  0.921
    eigenvectors:
  0.000  1.000  0.000
  0.500  0.000  0.500
  0.500  0.000  0.500
    occupations:
  0.884 -0.000 -0.000
 -0.000  0.900 -0.021
 -0.000 -0.021  0.900
atomic mag. moment =     0.000000
atom   18   Tr[ns(na)] (up, down, total) =   2.68360  2.68360  5.36720
   spin  1
    eigenvalues: 
  0.879  0.884  0.921
    eigenvectors:
  0.000  1.000  0.000
  0.500  0.000  0.500
  0.500  0.000  0.500
    occupations:
  0.884 -0.000 -0.000
 -0.000  0.900 -0.021
 -0.000 -0.021  0.900
   spin  2
    eigenvalues: 
  0.879  0.884  0.921
    eigenvectors:
  0.000  1.000  0.000
  0.500  0.000  0.500
  0.500  0.000  0.500
    occupations:
  0.884 -0.000 -0.000
 -0.000  0.900 -0.021
 -0.000 -0.021  0.900
atomic mag. moment =     0.000000
atom   19   Tr[ns(na)] (up, down, total) =   2.68351  2.68351  5.36702
   spin  1
    eigenvalues: 
  0.879  0.884  0.921
    eigenvectors:
  0.000  1.000  0.000
  0.500  0.000  0.500
  0.500  0.000  0.500
    occupations:
  0.884  0.000  0.000
  0.000  0.900  0.021
  0.000  0.021  0.900
   spin  2
    eigenvalues: 
  0.879  0.884  0.921
    eigenvectors:
  0.000  1.000  0.000
  0.500  0.000  0.500
  0.500  0.000  0.500
    occupations:
  0.884  0.000  0.000
  0.000  0.900  0.021
  0.000  0.021  0.900
atomic mag. moment =    -0.000000
atom   20   Tr[ns(na)] (up, down, total) =   2.68351  2.68351  5.36702
   spin  1
    eigenvalues: 
  0.879  0.884  0.921
    eigenvectors:
  0.000  1.000  0.000
  0.500  0.000  0.500
  0.500  0.000  0.500
    occupations:
  0.884  0.000  0.000
  0.000  0.900  0.021
  0.000  0.021  0.900
   spin  2
    eigenvalues: 
  0.879  0.884  0.921
    eigenvectors:
  0.000  1.000  0.000
  0.500  0.000  0.500
  0.500  0.000  0.500
    occupations:
  0.884  0.000  0.000
  0.000  0.900  0.021
  0.000  0.021  0.900
atomic mag. moment =    -0.000000
atom   21   Tr[ns(na)] (up, down, total) =   2.68347  2.68347  5.36694
   spin  1
    eigenvalues: 
  0.879  0.884  0.920
    eigenvectors:
  0.000  1.000  0.000
  0.500  0.000  0.500
  0.500  0.000  0.500
    occupations:
  0.884 -0.000 -0.000
 -0.000  0.900 -0.021
 -0.000 -0.021  0.900
   spin  2
    eigenvalues: 
  0.879  0.884  0.920
    eigenvectors:
  0.000  1.000  0.000
  0.500  0.000  0.500
  0.500  0.000  0.500
    occupations:
  0.884 -0.000 -0.000
 -0.000  0.900 -0.021
 -0.000 -0.021  0.900
atomic mag. moment =     0.000000
atom   22   Tr[ns(na)] (up, down, total) =   2.68347  2.68347  5.36694
   spin  1
    eigenvalues: 
  0.879  0.884  0.920
    eigenvectors:
  0.000  1.000  0.000
  0.500  0.000  0.500
  0.500  0.000  0.500
    occupations:
  0.884 -0.000 -0.000
 -0.000  0.900 -0.021
 -0.000 -0.021  0.900
   spin  2
    eigenvalues: 
  0.879  0.884  0.920
    eigenvectors:
  0.000  1.000  0.000
  0.500  0.000  0.500
  0.500  0.000  0.500
    occupations:
  0.884 -0.000 -0.000
 -0.000  0.900 -0.021
 -0.000 -0.021  0.900
atomic mag. moment =     0.000000
atom   23   Tr[ns(na)] (up, down, total) =   2.68351  2.68351  5.36702
   spin  1
    eigenvalues: 
  0.879  0.884  0.921
    eigenvectors:
  0.000  1.000  0.000
  0.500  0.000  0.500
  0.500  0.000  0.500
    occupations:
  0.884 -0.000 -0.000
 -0.000  0.900  0.021
 -0.000  0.021  0.900
   spin  2
    eigenvalues: 
  0.879  0.884  0.921
    eigenvectors:
  0.000  1.000  0.000
  0.500  0.000  0.500
  0.500  0.000  0.500
    occupations:
  0.884 -0.000 -0.000
 -0.000  0.900  0.021
 -0.000  0.021  0.900
atomic mag. moment =    -0.000000
atom   24   Tr[ns(na)] (up, down, total) =   2.68351  2.68351  5.36702
   spin  1
    eigenvalues: 
  0.879  0.884  0.921
    eigenvectors:
  0.000  1.000  0.000
  0.500  0.000  0.500
  0.500  0.000  0.500
    occupations:
  0.884 -0.000 -0.000
 -0.000  0.900  0.021
 -0.000  0.021  0.900
   spin  2
    eigenvalues: 
  0.879  0.884  0.921
    eigenvectors:
  0.000  1.000  0.000
  0.500  0.000  0.500
  0.500  0.000  0.500
    occupations:
  0.884 -0.000 -0.000
 -0.000  0.900  0.021
 -0.000  0.021  0.900
atomic mag. moment =    -0.000000
atom   25   Tr[ns(na)] (up, down, total) =   2.68310  2.68310  5.36620
   spin  1
    eigenvalues: 
  0.879  0.884  0.920
    eigenvectors:
  0.000  1.000  0.000
  0.500  0.000  0.500
  0.500  0.000  0.500
    occupations:
  0.884 -0.000 -0.000
 -0.000  0.900 -0.020
 -0.000 -0.020  0.900
   spin  2
    eigenvalues: 
  0.879  0.884  0.920
    eigenvectors:
  0.000  1.000  0.000
  0.500  0.000  0.500
  0.500  0.000  0.500
    occupations:
  0.884 -0.000 -0.000
 -0.000  0.900 -0.020
 -0.000 -0.020  0.900
atomic mag. moment =     0.000000
atom   26   Tr[ns(na)] (up, down, total) =   2.68310  2.68310  5.36620
   spin  1
    eigenvalues: 
  0.879  0.884  0.920
    eigenvectors:
  0.000  1.000  0.000
  0.500  0.000  0.500
  0.500  0.000  0.500
    occupations:
  0.884 -0.000 -0.000
 -0.000  0.900 -0.020
 -0.000 -0.020  0.900
   spin  2
    eigenvalues: 
  0.879  0.884  0.920
    eigenvectors:
  0.000  1.000  0.000
  0.500  0.000  0.500
  0.500  0.000  0.500
    occupations:
  0.884 -0.000 -0.000
 -0.000  0.900 -0.020
 -0.000 -0.020  0.900
atomic mag. moment =     0.000000
atom   27   Tr[ns(na)] (up, down, total) =   2.68322  2.68322  5.36645
   spin  1
    eigenvalues: 
  0.879  0.884  0.920
    eigenvectors:
  0.000  1.000  0.000
  0.500  0.000  0.500
  0.500  0.000  0.500
    occupations:
  0.884  0.000 -0.000
  0.000  0.900  0.020
 -0.000  0.020  0.900
   spin  2
    eigenvalues: 
  0.879  0.884  0.920
    eigenvectors:
  0.000  1.000  0.000
  0.500  0.000  0.500
  0.500  0.000  0.500
    occupations:
  0.884  0.000 -0.000
  0.000  0.900  0.020
 -0.000  0.020  0.900
atomic mag. moment =     0.000000
atom   28   Tr[ns(na)] (up, down, total) =   2.68306  2.68306  5.36612
   spin  1
    eigenvalues: 
  0.879  0.883  0.921
    eigenvectors:
  0.004  0.996  0.000
  0.498  0.002  0.500
  0.498  0.002  0.500
    occupations:
  0.883  0.000 -0.000
  0.000  0.900  0.021
 -0.000  0.021  0.900
   spin  2
    eigenvalues: 
  0.879  0.883  0.921
    eigenvectors:
  0.004  0.996  0.000
  0.498  0.002  0.500
  0.498  0.002  0.500
    occupations:
  0.883  0.000 -0.000
  0.000  0.900  0.021
 -0.000  0.021  0.900
atomic mag. moment =     0.000000
atom   29   Tr[ns(na)] (up, down, total) =   2.68326  2.68326  5.36653
   spin  1
    eigenvalues: 
  0.879  0.884  0.920
    eigenvectors:
  0.000  1.000  0.000
  0.500  0.000  0.500
  0.500  0.000  0.500
    occupations:
  0.884 -0.000 -0.000
 -0.000  0.900 -0.020
 -0.000 -0.020  0.900
   spin  2
    eigenvalues: 
  0.879  0.884  0.920
    eigenvectors:
  0.000  1.000  0.000
  0.500  0.000  0.500
  0.500  0.000  0.500
    occupations:
  0.884 -0.000 -0.000
 -0.000  0.900 -0.020
 -0.000 -0.020  0.900
atomic mag. moment =     0.000000
atom   30   Tr[ns(na)] (up, down, total) =   2.68326  2.68326  5.36653
   spin  1
    eigenvalues: 
  0.879  0.884  0.920
    eigenvectors:
  0.000  1.000  0.000
  0.500  0.000  0.500
  0.500  0.000  0.500
    occupations:
  0.884 -0.000 -0.000
 -0.000  0.900 -0.020
 -0.000 -0.020  0.900
   spin  2
    eigenvalues: 
  0.879  0.884  0.920
    eigenvectors:
  0.000  1.000  0.000
  0.500  0.000  0.500
  0.500  0.000  0.500
    occupations:
  0.884 -0.000 -0.000
 -0.000  0.900 -0.020
 -0.000 -0.020  0.900
atomic mag. moment =     0.000000
atom   31   Tr[ns(na)] (up, down, total) =   2.68322  2.68322  5.36645
   spin  1
    eigenvalues: 
  0.879  0.884  0.920
    eigenvectors:
  0.000  1.000  0.000
  0.500  0.000  0.500
  0.500  0.000  0.500
    occupations:
  0.884 -0.000  0.000
 -0.000  0.900  0.020
  0.000  0.020  0.900
   spin  2
    eigenvalues: 
  0.879  0.884  0.920
    eigenvectors:
  0.000  1.000  0.000
  0.500  0.000  0.500
  0.500  0.000  0.500
    occupations:
  0.884 -0.000  0.000
 -0.000  0.900  0.020
  0.000  0.020  0.900
atomic mag. moment =     0.000000
atom   32   Tr[ns(na)] (up, down, total) =   2.68306  2.68306  5.36612
   spin  1
    eigenvalues: 
  0.879  0.883  0.921
    eigenvectors:
  0.004  0.996  0.000
  0.498  0.002  0.500
  0.498  0.002  0.500
    occupations:
  0.883 -0.000  0.000
 -0.000  0.900  0.021
  0.000  0.021  0.900
   spin  2
    eigenvalues: 
  0.879  0.883  0.921
    eigenvectors:
  0.004  0.996  0.000
  0.498  0.002  0.500
  0.498  0.002  0.500
    occupations:
  0.883 -0.000  0.000
 -0.000  0.900  0.021
  0.000  0.021  0.900
atomic mag. moment =     0.000000
atom   33   Tr[ns(na)] (up, down, total) =   2.68310  2.68310  5.36620
   spin  1
    eigenvalues: 
  0.879  0.884  0.920
    eigenvectors:
  0.000  1.000  0.000
  0.500  0.000  0.500
  0.500  0.000  0.500
    occupations:
  0.884 -0.000 -0.000
 -0.000  0.900 -0.020
 -0.000 -0.020  0.900
   spin  2
    eigenvalues: 
  0.879  0.884  0.920
    eigenvectors:
  0.000  1.000  0.000
  0.500  0.000  0.500
  0.500  0.000  0.500
    occupations:
  0.884 -0.000 -0.000
 -0.000  0.900 -0.020
 -0.000 -0.020  0.900
atomic mag. moment =     0.000000
atom   34   Tr[ns(na)] (up, down, total) =   2.68310  2.68310  5.36620
   spin  1
    eigenvalues: 
  0.879  0.884  0.920
    eigenvectors:
  0.000  1.000  0.000
  0.500  0.000  0.500
  0.500  0.000  0.500
    occupations:
  0.884 -0.000 -0.000
 -0.000  0.900 -0.020
 -0.000 -0.020  0.900
   spin  2
    eigenvalues: 
  0.879  0.884  0.920
    eigenvectors:
  0.000  1.000  0.000
  0.500  0.000  0.500
  0.500  0.000  0.500
    occupations:
  0.884 -0.000 -0.000
 -0.000  0.900 -0.020
 -0.000 -0.020  0.900
atomic mag. moment =     0.000000
atom   35   Tr[ns(na)] (up, down, total) =   2.68306  2.68306  5.36612
   spin  1
    eigenvalues: 
  0.879  0.883  0.921
    eigenvectors:
  0.004  0.996  0.000
  0.498  0.002  0.500
  0.498  0.002  0.500
    occupations:
  0.883 -0.000  0.000
 -0.000  0.900  0.021
  0.000  0.021  0.900
   spin  2
    eigenvalues: 
  0.879  0.883  0.921
    eigenvectors:
  0.004  0.996  0.000
  0.498  0.002  0.500
  0.498  0.002  0.500
    occupations:
  0.883 -0.000  0.000
 -0.000  0.900  0.021
  0.000  0.021  0.900
atomic mag. moment =     0.000000
atom   36   Tr[ns(na)] (up, down, total) =   2.68322  2.68322  5.36645
   spin  1
    eigenvalues: 
  0.879  0.884  0.920
    eigenvectors:
  0.000  1.000  0.000
  0.500  0.000  0.500
  0.500  0.000  0.500
    occupations:
  0.884 -0.000  0.000
 -0.000  0.900  0.020
  0.000  0.020  0.900
   spin  2
    eigenvalues: 
  0.879  0.884  0.920
    eigenvectors:
  0.000  1.000  0.000
  0.500  0.000  0.500
  0.500  0.000  0.500
    occupations:
  0.884 -0.000  0.000
 -0.000  0.900  0.020
  0.000  0.020  0.900
atomic mag. moment =     0.000000
atom   37   Tr[ns(na)] (up, down, total) =   2.68326  2.68326  5.36653
   spin  1
    eigenvalues: 
  0.879  0.884  0.920
    eigenvectors:
  0.000  1.000  0.000
  0.500  0.000  0.500
  0.500  0.000  0.500
    occupations:
  0.884 -0.000 -0.000
 -0.000  0.900 -0.020
 -0.000 -0.020  0.900
   spin  2
    eigenvalues: 
  0.879  0.884  0.920
    eigenvectors:
  0.000  1.000  0.000
  0.500  0.000  0.500
  0.500  0.000  0.500
    occupations:
  0.884 -0.000 -0.000
 -0.000  0.900 -0.020
 -0.000 -0.020  0.900
atomic mag. moment =     0.000000
atom   38   Tr[ns(na)] (up, down, total) =   2.68326  2.68326  5.36653
   spin  1
    eigenvalues: 
  0.879  0.884  0.920
    eigenvectors:
  0.000  1.000  0.000
  0.500  0.000  0.500
  0.500  0.000  0.500
    occupations:
  0.884 -0.000 -0.000
 -0.000  0.900 -0.020
 -0.000 -0.020  0.900
   spin  2
    eigenvalues: 
  0.879  0.884  0.920
    eigenvectors:
  0.000  1.000  0.000
  0.500  0.000  0.500
  0.500  0.000  0.500
    occupations:
  0.884 -0.000 -0.000
 -0.000  0.900 -0.020
 -0.000 -0.020  0.900
atomic mag. moment =     0.000000
atom   39   Tr[ns(na)] (up, down, total) =   2.68306  2.68306  5.36612
   spin  1
    eigenvalues: 
  0.879  0.883  0.921
    eigenvectors:
  0.004  0.996  0.000
  0.498  0.002  0.500
  0.498  0.002  0.500
    occupations:
  0.883  0.000 -0.000
  0.000  0.900  0.021
 -0.000  0.021  0.900
   spin  2
    eigenvalues: 
  0.879  0.883  0.921
    eigenvectors:
  0.004  0.996  0.000
  0.498  0.002  0.500
  0.498  0.002  0.500
    occupations:
  0.883  0.000 -0.000
  0.000  0.900  0.021
 -0.000  0.021  0.900
atomic mag. moment =     0.000000
atom   40   Tr[ns(na)] (up, down, total) =   2.68322  2.68322  5.36645
   spin  1
    eigenvalues: 
  0.879  0.884  0.920
    eigenvectors:
  0.000  1.000  0.000
  0.500  0.000  0.500
  0.500  0.000  0.500
    occupations:
  0.884  0.000 -0.000
  0.000  0.900  0.020
 -0.000  0.020  0.900
   spin  2
    eigenvalues: 
  0.879  0.884  0.920
    eigenvectors:
  0.000  1.000  0.000
  0.500  0.000  0.500
  0.500  0.000  0.500
    occupations:
  0.884  0.000 -0.000
  0.000  0.900  0.020
 -0.000  0.020  0.900
atomic mag. moment =     0.000000
atom   41   Tr[ns(na)] (up, down, total) =   2.68314  2.68314  5.36628
   spin  1
    eigenvalues: 
  0.879  0.884  0.920
    eigenvectors:
  0.000  1.000  0.000
  0.500  0.000  0.500
  0.500  0.000  0.500
    occupations:
  0.884 -0.000 -0.000
 -0.000  0.900 -0.020
 -0.000 -0.020  0.900
   spin  2
    eigenvalues: 
  0.879  0.884  0.920
    eigenvectors:
  0.000  1.000  0.000
  0.500  0.000  0.500
  0.500  0.000  0.500
    occupations:
  0.884 -0.000 -0.000
 -0.000  0.900 -0.020
 -0.000 -0.020  0.900
atomic mag. moment =     0.000000
atom   42   Tr[ns(na)] (up, down, total) =   2.68314  2.68314  5.36628
   spin  1
    eigenvalues: 
  0.879  0.884  0.920
    eigenvectors:
  0.000  1.000  0.000
  0.500  0.000  0.500
  0.500  0.000  0.500
    occupations:
  0.884 -0.000 -0.000
 -0.000  0.900 -0.020
 -0.000 -0.020  0.900
   spin  2
    eigenvalues: 
  0.879  0.884  0.920
    eigenvectors:
  0.000  1.000  0.000
  0.500  0.000  0.500
  0.500  0.000  0.500
    occupations:
  0.884 -0.000 -0.000
 -0.000  0.900 -0.020
 -0.000 -0.020  0.900
atomic mag. moment =     0.000000
atom   43   Tr[ns(na)] (up, down, total) =   2.68351  2.68351  5.36702
   spin  1
    eigenvalues: 
  0.879  0.884  0.921
    eigenvectors:
  0.000  1.000  0.000
  0.500  0.000  0.500
  0.500  0.000  0.500
    occupations:
  0.884 -0.000 -0.000
 -0.000  0.900  0.021
 -0.000  0.021  0.900
   spin  2
    eigenvalues: 
  0.879  0.884  0.921
    eigenvectors:
  0.000  1.000  0.000
  0.500  0.000  0.500
  0.500  0.000  0.500
    occupations:
  0.884 -0.000 -0.000
 -0.000  0.900  0.021
 -0.000  0.021  0.900
atomic mag. moment =    -0.000000
atom   44   Tr[ns(na)] (up, down, total) =   2.68351  2.68351  5.36702
   spin  1
    eigenvalues: 
  0.879  0.884  0.921
    eigenvectors:
  0.000  1.000  0.000
  0.500  0.000  0.500
  0.500  0.000  0.500
    occupations:
  0.884 -0.000 -0.000
 -0.000  0.900  0.021
 -0.000  0.021  0.900
   spin  2
    eigenvalues: 
  0.879  0.884  0.921
    eigenvectors:
  0.000  1.000  0.000
  0.500  0.000  0.500
  0.500  0.000  0.500
    occupations:
  0.884 -0.000 -0.000
 -0.000  0.900  0.021
 -0.000  0.021  0.900
atomic mag. moment =    -0.000000
atom   45   Tr[ns(na)] (up, down, total) =   2.68359  2.68359  5.36719
   spin  1
    eigenvalues: 
  0.879  0.884  0.921
    eigenvectors:
[...]
     4.0878   4.1118   4.5863   4.5925   4.5929   4.6118   5.1709   5.1758
     5.2995   5.3572   5.3582   5.3926   5.3980   5.3980   5.6238   5.6749
     5.6762   5.7333   5.7404   5.7603   5.7690   5.7742   5.8047   5.8488
     5.8493   5.8536   5.8540   5.8710   5.9825   5.9845   5.9984   6.1543
     6.2099   6.3076   6.5212   6.9271   6.9311   7.0221   7.0233   7.0745
     7.0762   7.0941   7.5477   7.7420   7.7615   7.7617   7.9343   7.9348
     7.9415   7.9681   7.9683   7.9748   7.9941   8.0157   8.0368   8.0707
     8.2919   8.2932   8.4175   8.4199   8.4339   8.4406   8.5203   8.5711
     8.5714   8.6682   8.6695   8.7431   8.7622   8.8644   8.9602   8.9619
     9.1601   9.1630   9.2280   9.2316   9.2819   9.3382   9.4047   9.4324
     9.5988   9.5994   9.6580   9.6666   9.9894  10.0828  10.0842  10.0955
    10.1101  10.1107  10.2892  10.3034  10.4661  10.6673  10.6674  11.1799
    11.1919  11.1975  11.2279  11.2373  11.2405  11.2532  11.5659  11.7252
    11.7255  11.7258  11.7281  11.7300  11.7484  11.7580  11.7831  11.7836
    11.7878  11.8006  11.8054  11.8056  11.8145  11.8187  11.8584  11.8584
    11.8636  11.9284  12.0523  12.0532  12.2718  12.2746  12.2838  12.4098
    12.7656  12.8708  12.8718  13.1283  13.4885  13.6242  13.7855  13.8182
    13.8183  13.8541  13.8603  13.8603  14.1457  14.1567  14.1568  14.5423
    14.6305  14.6305  14.6619  14.9576  15.0289  15.0486  15.0494  15.7803
    15.8034  15.8354  15.9797  15.9800  16.3456  16.6152  16.6403  17.1839
    17.1844  17.2253  17.4394  17.4588  17.4642  17.4645  17.4647  17.4650
    17.4670  17.6869  17.6876  17.7128  17.7229  17.9170  17.9183  18.2280
    18.8032  19.8842  19.8855  21.1807  21.5201  21.5212  22.0589  22.2244
    22.3019  22.4363  22.7827  22.8180  22.8193  22.8591  22.8966  22.8976
    22.9048  22.9912  22.9913  23.0881  23.1519  23.1521  23.1521  23.1528
    23.1530  23.1532  23.1534  23.1536  23.1536  23.1536  23.1538  23.1540
    23.1541  23.1541  23.1598  23.2047  23.3551  23.4264  23.6282  24.0170
    24.0203  24.0780  24.0782  24.0808  24.0833  24.8790  24.9134  24.9690
    25.2016  25.3492  25.6492  25.6495  25.6506  25.9413  26.0546  26.0555
    26.1402  26.1839  26.4687  26.5089  26.5372  26.5373  26.7024  26.8487
    26.8492  27.2418  27.4341  27.4342  27.5958  27.5972  27.6787  27.8401
    27.8708  28.1391  28.3692  28.3709  28.3717  28.9145  28.9589  28.9597
    29.0910  29.1854  29.1862  29.2717  29.3404  29.3414  29.8393  29.8410
    30.2085  30.2514  30.3413  30.3434  30.4496  30.4501  30.8287  30.9196
    30.9199  30.9701  31.0040  31.3592  31.3605  31.3980  31.5921  31.5921
    31.6071  31.6089  31.6897  31.7287  31.8872  31.9286  32.4204  32.4970
    32.4975  32.5207  33.0009  33.4031  33.4561  33.4573  33.5119  33.8256
    33.8277  33.8736  33.8739  33.9690  34.0570  34.1388  34.4796  34.4855
    34.4860  34.4866  34.4978  34.8255  34.8291  34.9837  35.1583  35.2128
    35.2145  35.5206  35.5511  35.5836  35.5840  35.9300  35.9432  35.9831
    35.9835  36.2392  36.4001  36.4006  36.8958  36.9211  36.9554  36.9939
    36.9951  37.1907  37.7483  37.7497  37.8573  37.9771  38.0179  38.0198
    38.3493  38.3635  38.4235  38.5701  38.5705  39.0260  39.0281  39.3999
    39.4013  39.4068  39.4072  39.4186  39.4190  39.4598  39.4989  39.8113
    39.9012  40.0101  40.0439  40.0452  40.0901  40.2458  40.3487  40.3870
    40.3873  40.3923  40.3994  40.4380  40.7331  40.7337  40.7474  40.7603
    40.9335  40.9337  40.9660  41.0312  41.1422  41.3684  41.4570  41.4578
    41.5221  41.5434  41.7181  41.7186  41.7743  41.9298  42.0292  42.3242
    42.3244  42.3415  42.4445  42.4461  42.4724  42.5402  42.6415  42.6427
    42.8086  42.8797  42.8801  43.1397  43.4574  43.5466  43.7097  43.7104
    43.9058  43.9071  43.9186  44.3672  44.4809  44.5012  44.5698  44.5715
    44.6126  44.7623  44.8038  44.8055  44.8183  44.8939  44.9840  45.0501
    45.1710  45.2120  45.2130  45.2324  45.2327  45.3765  45.3788  45.4116
    45.4293  45.6050  45.7682  45.7688  45.8038  45.8440  46.1406  46.1473
    46.1494  46.2224  46.2423  46.4905  46.6059  46.6061  46.7069  46.7266
    46.7295  46.9225  47.2068  47.2363  47.3803  47.4230  47.4232  47.5080
    47.5087  47.5525  47.6065  47.6071  47.6257  47.6274  47.6421  47.7073
    47.7945  47.7952  47.9892  48.0515  48.0518  48.1642  48.1896  48.1901
    48.2800  48.2819  48.4360  48.4360  48.4634  48.6062  48.6230  48.6253
    48.7295  48.7968  48.8301  48.9319  48.9324  49.0880  49.1454  49.2189
    49.2291  49.2411  49.3185  49.3756  49.3757  49.4726  49.4744  49.5751
    49.7345  49.7347  49.9879  49.9883  50.1094  50.1387  50.1388  50.2786
    50.3044  50.5590  50.6620  50.6713  50.7088  50.7275  50.7472  50.9520
    50.9529  51.0617  51.0635  51.0957  51.3414  51.3502  51.3761  51.6451
    51.7631  51.8108  51.8122  51.8813  51.8880  51.8881  51.8981  51.9467
    51.9474  52.0100  52.3121  52.3124  52.3473  52.4234  52.6792  52.8488
    52.8826  52.8832  52.9594  52.9597  52.9891  53.1575  53.2646  53.4766
    53.5174  53.6593  53.6614  53.7264  53.7268  53.7630  53.7635  54.0093

          k =-0.2500 0.2500-0.3569 ( 15105 PWs)   bands (ev):

   -36.7976 -36.7969 -36.7939 -36.7938 -36.7938 -36.7907 -36.7906 -36.7903
   -36.7902 -36.7901 -36.7900 -36.7895 -36.7888 -36.7874 -36.7847 -36.7837
   -36.7836 -36.7750 -36.7748 -36.7744 -36.7737 -36.7707 -36.7637 -36.7360
   -36.7160 -36.7129 -36.7123 -36.7109 -36.7091 -36.7081 -36.7058 -36.6797
   -36.5440 -36.5439 -36.5431 -36.5430 -36.5429 -36.5425 -36.5423 -36.5395
   -36.5331 -36.5331 -36.5329 -36.5329 -36.5328 -36.5328 -36.5327 -36.4884
    -7.1780  -6.8109  -6.8108  -6.7240  -6.5242  -6.3722  -6.3122  -6.3119
    -6.2161  -6.2159  -6.1814  -6.1157  -6.0299  -6.0276  -6.0260  -5.9335
    -5.7651  -5.7595  -5.7297  -5.7286  -5.7227  -5.7213  -5.6923  -5.6915
    -5.6686  -5.6663  -5.5408  -5.4826  -5.4825  -5.4650  -5.4073  -5.3176
     4.2727   4.2832   4.7440   4.7486   4.7495   4.7626   5.2707   5.2997
     5.3908   5.4262   5.4274   5.5078   5.5114   5.5513   5.5743   5.5753
     5.6920   5.7674   5.7882   5.7890   5.7962   5.8203   5.8236   5.8400
     5.8552   5.8571   5.8816   5.9196   5.9267   5.9676   5.9679   6.3373
     6.3579   6.5054   6.7026   6.7027   6.7098   6.9249   7.0497   7.0527
     7.0710   7.2020   7.2024   7.3562   7.3569   7.6322   7.6550   7.6577
     7.7389   7.7620   7.9664   7.9673   8.0218   8.0218   8.0398   8.1755
     8.2391   8.2673   8.2944   8.3654   8.3666   8.3954   8.4031   8.4033
     8.4927   8.6245   8.6300   8.6300   8.6531   8.8283   8.8595   8.9212
     8.9239   8.9601   8.9615   8.9650   9.1458   9.2982   9.4511   9.4572
     9.4615   9.4695   9.4708   9.7449   9.7559   9.7633   9.8442   9.9875
    10.0996  10.1001  10.3329  10.4249  10.4250  10.5405  10.5406  10.9751
    11.1008  11.1042  11.3521  11.4451  11.5325  11.7389  11.7429  11.7651
    11.7772  11.7778  11.8327  11.8472  11.8839  11.8849  11.9140  11.9713
    11.9804  11.9840  12.0070  12.0521  12.1155  12.1158  12.1374  12.1630
    12.1634  12.2036  12.2051  12.2243  12.3220  12.6176  12.6182  12.6707
    12.9132  12.9141  12.9328  13.1598  13.3536  13.3675  13.6266  13.6578
    13.6579  13.6831  13.7476  13.7477  13.9703  13.9705  13.9757  14.3956
    14.8251  14.8252  14.9719  15.2160  15.2752  15.2952  15.2957  15.9988
    16.0074  16.0294  16.0719  16.0721  16.2420  16.5649  16.5655  16.5830
    16.6390  16.9208  17.0621  17.0630  17.1695  17.2880  17.2885  17.3191
    17.3209  17.3566  17.3617  17.7610  17.7617  17.8655  17.8666  18.4326
    18.8834  20.2917  20.2929  21.4244  21.4380  21.9089  21.9100  22.0585
    22.0593  22.4322  22.6058  22.6080  22.6142  22.7656  23.1510  23.1512
    23.1513  23.1520  23.1523  23.1525  23.1526  23.1529  23.1530  23.1530
    23.1531  23.1532  23.1535  23.1537  23.1541  23.2035  23.2452  23.2466
    23.2809  23.2821  23.3313  23.4535  23.5701  23.6959  23.9824  24.0750
    24.0768  24.2665  24.2690  24.5050  24.5066  24.6360  24.8623  24.9353
    24.9639  25.4243  25.4248  25.4501  25.5713  26.1594  26.2000  26.2002
    26.2054  26.5060  26.5063  26.5986  26.6111  26.7069  26.7184  26.8001
    26.8006  27.3321  27.5820  27.6003  27.6757  27.6767  27.6798  27.6800
    27.9017  28.0473  28.1919  28.3025  28.3028  28.4285  28.4988  28.4989
    28.6159  28.6162  28.8021  29.3414  29.4965  29.4983  29.5308  29.5793
    29.6459  29.8104  29.8108  29.8354  29.8686  29.8896  29.9052  29.9059
    30.2623  30.2629  30.3673  30.6020  31.1466  31.2345  31.2372  31.7662
    31.7663  31.9124  31.9696  32.5008  32.5009  32.6525  32.7222  32.8987
    33.1130  33.1137  33.1816  33.1824  33.5692  33.5694  33.6793  33.9940
    34.1334  34.1352  34.1730  34.2078  34.2445  34.2975  34.6265  34.7825
    34.7827  34.8065  35.0142  35.0536  35.0683  35.1548  35.4028  35.4336
    35.4336  35.6030  35.8942  35.9054  35.9260  35.9261  35.9357  35.9984
    35.9987  36.5056  36.5058  36.8291  36.8456  37.0399  37.1869  37.2041
    37.2934  37.4289  37.4308  37.4524  37.4529  37.7694  37.7702  37.7818
    37.9130  38.0198  38.0202  38.8140  38.8141  38.8759  38.8770  38.9189
    38.9596  39.0880  39.3097  39.3101  39.3652  39.3653  39.4390  39.4485
    39.5258  39.8546  39.8601  39.9048  40.0062  40.0469  40.0472  40.0749
    40.2343  40.2346  40.2647  40.2750  40.4369  40.4805  40.5466  40.5469
    40.6191  40.8217  40.8220  40.8669  40.8789  40.9668  41.0537  41.0540
    41.2742  41.3425  41.4974  41.6152  41.7401  41.7401  41.9849  42.0542
    42.1220  42.2320  42.2393  42.2394  42.4506  42.4522  42.8850  42.8851
    43.0905  43.0921  43.1246  43.2436  43.2437  43.6201  43.6207  43.7008
    44.2301  44.3111  44.3115  44.3947  44.3952  44.5287  44.5654  44.6006
    44.8366  44.9736  44.9900  44.9901  44.9948  44.9960  45.0230  45.0985
    45.2307  45.4763  45.5117  45.5610  45.5622  45.5744  45.6970  45.7586
    45.7813  45.8178  45.8178  46.0358  46.1580  46.1588  46.2126  46.2134
    46.2326  46.3606  46.5512  46.5795  46.5804  46.6873  46.6998  46.9013
    46.9036  47.0075  47.0244  47.0710  47.1541  47.1556  47.3181  47.4150
    47.4158  47.4466  47.4931  47.5747  47.5750  47.6772  47.6780  47.6847
    47.7355  47.8140  47.9070  47.9808  47.9816  48.1484  48.1499  48.3346
    48.5754  48.5765  48.6259  48.7382  48.7872  48.7876  48.8046  48.8847
    48.9573  48.9579  49.0107  49.0439  49.0549  49.0556  49.1293  49.4286
    49.5466  49.5470  49.6378  49.7392  49.7404  49.8358  49.8362  50.0006
    50.0019  50.0171  50.0226  50.0242  50.0582  50.3958  50.4086  50.4611
    50.5200  50.5208  50.7280  50.7547  50.7816  50.7820  50.8555  50.9367
    50.9590  51.0213  51.0832  51.2652  51.2652  51.2841  51.2846  51.4150
    51.5432  51.7174  51.7930  51.8394  51.8406  51.9960  51.9961  51.9969
    52.2984  52.3449  52.3833  52.4102  52.5826  52.5834  52.6600  52.6606
    52.7691  52.7915  52.8550  52.8551  52.8736  52.9827  53.2907  53.2914
    53.3304  53.3520  53.4616  53.4634  53.6736  53.7676  53.7680  53.9298

          k =-0.2500 0.2500 0.7138 ( 15148 PWs)   bands (ev):

   -36.7904 -36.7897 -36.7891 -36.7890 -36.7890 -36.7889 -36.7888 -36.7887
   -36.7887 -36.7886 -36.7886 -36.7882 -36.7880 -36.7880 -36.7873 -36.7514
   -36.7507 -36.7505 -36.7480 -36.7478 -36.7477 -36.7471 -36.7462 -36.7460
   -36.7460 -36.7443 -36.7439 -36.7436 -36.7427 -36.7426 -36.7329 -36.6992
   -36.5390 -36.5386 -36.5386 -36.5384 -36.5384 -36.5384 -36.5382 -36.5382
   -36.5378 -36.5378 -36.5376 -36.5376 -36.5375 -36.5375 -36.5375 -36.4889
    -6.8098  -6.8090  -6.5000  -6.4997  -6.4996  -6.4989  -6.4202  -6.4196
    -6.2502  -6.2488  -6.0505  -6.0502  -6.0497  -6.0494  -5.9898  -5.9871
    -5.8226  -5.8186  -5.8186  -5.8181  -5.6976  -5.6948  -5.6422  -5.6376
    -5.6376  -5.6375  -5.6301  -5.6281  -5.5904  -5.5894  -5.5097  -5.5087
     4.7397   4.7404   4.7639   4.7652   5.1147   5.1159   5.1264   5.1286
     5.1288   5.1288   5.1368   5.1380   5.7750   5.7784   5.7786   5.7816
     5.7819   5.7819   5.8954   5.8965   6.0004   6.0020   6.0023   6.0032
     6.0165   6.0186   6.1789   6.1794   6.1798   6.1815   6.2784   6.2795
     6.3675   6.3740   6.3742   6.3744   6.7468   6.7468   6.8809   6.8845
     7.0109   7.0111   7.0113   7.0117   7.0550   7.0553   7.5402   7.5409
     7.6426   7.6429   7.6863   7.6901   7.6903   7.6904   8.0332   8.0336
     8.0343   8.0344   8.1495   8.1500   8.5738   8.5748   8.5751   8.5756
     8.6264   8.6266   8.6709   8.6717   8.8301   8.8325   8.8609   8.8633
     8.9211   8.9212   8.9221   8.9225   9.1374   9.1390   9.2876   9.2889
     9.3361   9.3372   9.3584   9.3585   9.7013   9.7026   9.7028   9.7030
     9.8999   9.9007  10.3499  10.3500  10.3502  10.3510  10.6280  10.6284
    11.3375  11.3379  11.5642  11.5663  11.5667  11.5670  11.7877  11.7878
    11.8077  11.8078  12.0634  12.0646  12.1932  12.1951  12.1962  12.1964
    12.2331  12.2362  12.2899  12.2931  12.3134  12.3157  12.3164  12.3165
    12.4593  12.4595  12.6477  12.6482  12.6483  12.6488  12.7184  12.7189
    13.0639  13.0645  13.1624  13.1632  13.2996  13.2999  13.3000  13.3001
    13.3724  13.3727  13.6373  13.6375  13.6375  13.6378  14.0356  14.0358
    15.4997  15.4997  15.5000  15.5001  15.5661  15.5661  15.9009  15.9010
    15.9011  15.9013  15.9206  15.9207  16.1043  16.1045  16.4643  16.4649
    16.5714  16.5717  16.5805  16.5808  16.8972  16.8973  16.8976  16.8983
    17.1835  17.1839  17.7964  17.7967  17.7967  17.7982  17.8791  17.8797
    20.0011  20.0026  21.1217  21.1222  21.1225  21.1241  21.9019  21.9032
    22.6455  22.6460  22.6461  22.6479  23.0147  23.0166  23.0969  23.0984
    23.1520  23.1527  23.1529  23.1530  23.1530  23.1531  23.1532  23.1532
    23.1532  23.1532  23.1533  23.1537  23.1538  23.1563  23.1564  23.2043
    23.7424  23.7450  23.8713  23.8726  23.8818  23.8824  24.1244  24.1246
    24.1249  24.1268  24.5276  24.5278  24.5281  24.5329  24.7044  24.7062
    25.4694  25.4708  25.8062  25.8063  25.8075  25.8083  26.0614  26.0623
    26.1379  26.1382  26.6040  26.6041  26.6048  26.6055  26.8563  26.8580
    27.4336  27.4353  27.5912  27.5917  27.8051  27.8057  27.8059  27.8070
    28.0777  28.0778  28.1650  28.1656  28.1669  28.1670  28.2828  28.2836
    28.5171  28.5187  28.6369  28.6375  28.6489  28.6489  28.6499  28.6499
    28.9669  28.9681  29.5727  29.5729  29.5743  29.5743  29.7013  29.7034
    29.9187  29.9198  30.7065  30.7069  30.7069  30.7097  32.0103  32.0110
    32.0287  32.0289  32.0290  32.0311  32.6928  32.6931  33.1260  33.1266
    33.1270  33.1271  33.3660  33.3679  33.4467  33.4493  33.5152  33.5154
    34.4376  34.4388  34.4389  34.4393  34.6325  34.6327  35.0800  35.0809
    35.3158  35.3164  35.6599  35.6602  35.6609  35.6610  35.7241  35.7259
    35.7549  35.7563  35.9437  35.9442  35.9446  35.9462  36.0412  36.0420
    36.3850  36.3854  36.9011  36.9012  36.9016  36.9022  37.0117  37.0121
    37.0124  37.0129  37.0981  37.0983  37.6375  37.6384  38.4944  38.4944
    38.4950  38.4951  38.5742  38.5742  38.6787  38.6802  38.7448  38.7453
    38.7453  38.7460  38.8897  38.8902  39.0008  39.0013  39.0183  39.0184
    39.2389  39.2390  39.2978  39.2987  39.4057  39.4059  39.7151  39.7153
    39.7159  39.7162  39.8663  39.8680  39.9606  39.9607  39.9614  39.9618
    40.3509  40.3515  40.7336  40.7338  40.7352  40.7362  41.2125  41.2129
    41.5772  41.5786  41.9065  41.9068  42.0025  42.0052  42.3927  42.3938
    42.4112  42.4114  42.4121  42.4124  42.5693  42.5705  43.2634  43.2635
    43.2642  43.2646  43.3589  43.3590  43.3593  43.3625  43.5433  43.5440
    44.1796  44.1802  44.2806  44.2814  44.2822  44.2823  44.3757  44.3762
    44.8328  44.8329  44.8332  44.8334  44.9764  44.9769  45.3705  45.3712
    45.4970  45.4981  45.5524  45.5560  45.7539  45.7544  45.7545  45.7551
    45.8225  45.8229  45.9242  45.9244  46.0803  46.0804  46.0806  46.0806
    46.5113  46.5115  46.5918  46.5925  46.5928  46.5935  46.6706  46.6726
    46.8375  46.8383  47.1303  47.1308  47.1619  47.1622  47.1631  47.1639
    47.3740  47.3770  47.6745  47.6746  47.7985  47.7985  47.7996  47.7998
    48.1579  48.1587  48.3530  48.3544  48.4948  48.4948  48.4956  48.4959
    48.6329  48.6355  48.8327  48.8343  48.9979  48.9985  48.9988  49.0002
    49.2882  49.2908  49.3300  49.3306  49.3312  49.3326  49.6087  49.6087
    49.7452  49.7460  49.8030  49.8035  49.8035  49.8038  49.8521  49.8527
    50.0249  50.0256  50.3334  50.3335  50.3351  50.3367  50.5263  50.5266
    50.6046  50.6062  51.0012  51.0014  51.0017  51.0019  51.0837  51.0851
    51.1467  51.1467  51.1475  51.1486  51.2986  51.2990  51.4710  51.4721
    51.5153  51.5155  51.7254  51.7257  51.7264  51.7274  52.1888  52.1892
    52.1897  52.1898  52.2489  52.2494  52.5480  52.5498  52.6625  52.6644
    52.7663  52.7667  52.8556  52.8558  52.8560  52.8567  53.2099  53.2107
    53.4825  53.4827  53.7326  53.7328  53.7329  53.7343  53.8133  53.8136

     the Fermi energy is    13.5777 ev

!    total energy              =   -4010.25536733 Ry
     Harris-Foulkes estimate   =   -4010.25536797 Ry
     estimated scf accuracy    <       0.00000068 Ry

     The total energy is the sum of the following terms:

     one-electron contribution =    -827.29035630 Ry
     hartree contribution      =     708.74794175 Ry
     xc contribution           =   -1105.22986566 Ry
     ewald contribution        =   -2786.44204143 Ry
     Hubbard energy            =      -0.04143318 Ry
     smearing contrib. (-TS)   =       0.00038748 Ry

     total magnetization       =     0.00 Bohr mag/cell
     absolute magnetization    =     0.00 Bohr mag/cell

     convergence has been achieved in   8 iterations

     Writing output data file pwscf.save

     init_run     :     58.74s CPU     80.39s WALL (       1 calls)
     electrons    :  14654.84s CPU  17102.97s WALL (       1 calls)

     Called by init_run:
     wfcinit      :     43.77s CPU     63.75s WALL (       1 calls)
     potinit      :      1.32s CPU      2.24s WALL (       1 calls)

     Called by electrons:
     c_bands      :  13745.69s CPU  15732.71s WALL (       8 calls)
     sum_band     :    780.38s CPU   1228.68s WALL (       8 calls)
     v_of_rho     :      5.68s CPU      8.57s WALL (       9 calls)
     newd         :    131.93s CPU    138.21s WALL (       9 calls)
     mix_rho      :      0.84s CPU      1.44s WALL (       8 calls)

     Called by c_bands:
     init_us_2    :      4.51s CPU      4.70s WALL (     714 calls)
     cegterg      :  13724.63s CPU  15618.58s WALL (     336 calls)

     Called by *egterg:
     h_psi        :   3076.09s CPU   4484.00s WALL (    1083 calls)
     s_psi        :    292.74s CPU    293.11s WALL (    1125 calls)
     g_psi        :      3.35s CPU      3.38s WALL (     747 calls)
     cdiaghg      :   8719.21s CPU   8827.05s WALL (    1041 calls)

     Called by h_psi:
     add_vuspsi   :    287.22s CPU    287.66s WALL (    1083 calls)
     vhpsi        :    593.98s CPU    749.75s WALL (    1083 calls)

     General routines
     calbec       :    862.99s CPU   1136.64s WALL (    2880 calls)
     fft          :     10.13s CPU     18.61s WALL (     267 calls)
     ffts         :      0.18s CPU      0.33s WALL (      34 calls)
     fftw         :   2085.39s CPU   3555.80s WALL ( 1124472 calls)
     interpolate  :      1.13s CPU      1.99s WALL (      34 calls)
     davcio       :      1.78s CPU    213.46s WALL (    2100 calls)

     Parallel routines
     fft_scatter  :   1440.73s CPU   2910.02s WALL ( 1124773 calls)
     Hubbard U routines
     new_ns       :     82.66s CPU    226.93s WALL (       8 calls)
     vhpsi        :    593.98s CPU    749.75s WALL (    1083 calls)

     PWSCF        :     4h 5m CPU        4h46m WALL


   This run was terminated on:   0:50:32  11Feb2014            

=------------------------------------------------------------------------------=
   JOB DONE.
=------------------------------------------------------------------------------=
