
     Program PWSCF v.5.0.2 (svn rev. 9656) starts on 11Feb2014 at  0:54:13 

     This program is part of the open-source Quantum ESPRESSO suite
     for quantum simulation of materials; please cite
         "P. Giannozzi et al., J. Phys.:Condens. Matter 21 395502 (2009);
          URL http://www.quantum-espresso.org", 
     in publications or presentations arising from this work. More details at
     http://www.quantum-espresso.org/quote.php

     Parallel version (MPI), running on    16 processors
     R & G space division:  proc/nbgrp/npool/nimage =      16

     Current dimensions of program PWSCF are:
     Max number of different atomic species (ntypx) = 10
     Max number of k-points (npk) =  40000
     Max angular momentum in pseudopotentials (lmaxx) =  3
     Reading input from alpha_0/alpha_0.in
Warning: card &IONS ignored
Warning: card / ignored
Warning: card &CELL ignored
Warning: card / ignored

     Subspace diagonalization in iterative solution of the eigenvalue problem:
     a serial algorithm will be used


     Parallelization info
     --------------------
     sticks:   dense  smooth     PW     G-vecs:    dense   smooth      PW
     Min         732     235     65                41751     7555    1121
     Max         734     236     66                41753     7574    1124
     Sum       11721    3761   1049               668029   121001   17953



     bravais-lattice index     =            0
     lattice parameter (alat)  =      17.1587  a.u.
     unit-cell volume          =    3538.5507 (a.u.)^3
     number of atoms/cell      =           48
     number of atomic types    =            3
     number of electrons       =       432.00
     number of Kohn-Sham states=          624
     kinetic-energy cutoff     =      40.0000  Ry
     charge density cutoff     =     500.0000  Ry
     convergence threshold     =      1.0E-06
     mixing beta               =       0.7000
     number of iterations used =            8  plain     mixing
     Exchange-correlation      = SLA  PW   PBE  PBE ( 1 4 3 4 0)
     EXX-fraction              =        0.00

     celldm(1)=  17.158713  celldm(2)=   0.000000  celldm(3)=   0.000000
     celldm(4)=   0.000000  celldm(5)=   0.000000  celldm(6)=   0.000000

     crystal axes: (cart. coord. in units of alat)
               a(1) = (   1.000000   0.000000   0.000000 )  
               a(2) = (   0.000000   1.000000   0.000000 )  
               a(3) = (   0.000000   0.000000   0.700441 )  

     reciprocal axes: (cart. coord. in units 2 pi/alat)
               b(1) = (  1.000000  0.000000  0.000000 )  
               b(2) = (  0.000000  1.000000  0.000000 )  
               b(3) = (  0.000000  0.000000  1.427673 )  


     PseudoPot. # 1 for Ir read from file:
     /home/camp/zhonxu/pseudo/ir_pbe_v1.uspp.F.UPF
     MD5 check sum: abf987a9674477536ede83817f8f8b70
     Pseudo is Ultrasoft + core correction, Zval = 15.0
     Generated by new atomic code, or converted to UPF format
     Using radial grid of  983 points,  7 beta functions with: 
                l(1) =   0
                l(2) =   0
                l(3) =   1
                l(4) =   1
                l(5) =   1
                l(6) =   2
                l(7) =   2
     Q(r) pseudized with  8 coefficients,  rinner =    1.350   1.350   1.350
                                                       1.350   1.350

     PseudoPot. # 2 for Ir read from file:
     /home/camp/zhonxu/pseudo/ir_pbe_v1.uspp.F.UPF
     MD5 check sum: abf987a9674477536ede83817f8f8b70
     Pseudo is Ultrasoft + core correction, Zval = 15.0
     Generated by new atomic code, or converted to UPF format
     Using radial grid of  983 points,  7 beta functions with: 
                l(1) =   0
                l(2) =   0
                l(3) =   1
                l(4) =   1
                l(5) =   1
                l(6) =   2
                l(7) =   2
     Q(r) pseudized with  8 coefficients,  rinner =    1.350   1.350   1.350
                                                       1.350   1.350

     PseudoPot. # 3 for O  read from file:
     /home/camp/zhonxu/pseudo/o_pbe_v1.01.uspp.F.UPF
     MD5 check sum: 2bcb18d16ea4b960afae9ec6d52f22d2
     Pseudo is Ultrasoft + core correction, Zval =  6.0
     Generated by new atomic code, or converted to UPF format
     Using radial grid of  737 points,  5 beta functions with: 
                l(1) =   0
                l(2) =   0
                l(3) =   1
                l(4) =   1
                l(5) =   2
     Q(r) pseudized with  8 coefficients,  rinner =    0.900   0.900   0.900
                                                       0.900   0.900

     atomic species   valence    mass     pseudopotential
        Ir0           15.00   192.22000     Ir( 1.00)
        Ir1           15.00   192.22000     Ir( 1.00)
        O2             6.00    15.99940     O ( 1.00)

     Starting magnetic structure 
     atomic species   magnetization
        Ir0          0.000
        Ir1          0.000
        O2           0.000


     Simplified LDA+U calculation (l_max = 2) with parameters (eV):
     atomic species    L          U    alpha       J0     beta
        Ir0            2     0.0000   0.0000   0.0000   0.0000
        Ir1            2     0.0000   0.0000   0.0000   0.0000
        O2             1     0.0000   0.0000   0.0000   0.0000



      8 Sym. Ops., with inversion, found



   Cartesian axes

     site n.     atom                  positions (alat units)
         1           Ir0 tau(   1) = (   0.0000000   0.0000000   0.0000000  )
         2           Ir1 tau(   2) = (   0.2500000   0.2500000   0.1751101  )
         3           Ir1 tau(   3) = (   0.0000000   0.0000000   0.3502203  )
         4           Ir1 tau(   4) = (   0.2500000   0.2500000   0.5253304  )
         5           Ir1 tau(   5) = (   0.0000000   0.5000000   0.0000000  )
         6           Ir1 tau(   6) = (   0.2500000   0.7500000   0.1751101  )
         7           Ir1 tau(   7) = (   0.0000000   0.5000000   0.3502203  )
         8           Ir1 tau(   8) = (   0.2500000   0.7500000   0.5253304  )
         9           Ir1 tau(   9) = (   0.5000000   0.0000000   0.0000000  )
        10           Ir1 tau(  10) = (   0.7500000   0.2500000   0.1751101  )
        11           Ir1 tau(  11) = (   0.5000000   0.0000000   0.3502203  )
        12           Ir1 tau(  12) = (   0.7500000   0.2500000   0.5253304  )
        13           Ir1 tau(  13) = (   0.5000000   0.5000000   0.0000000  )
        14           Ir1 tau(  14) = (   0.7500000   0.7500000   0.1751101  )
        15           Ir1 tau(  15) = (   0.5000000   0.5000000   0.3502203  )
        16           Ir1 tau(  16) = (   0.7500000   0.7500000   0.5253304  )
        17           O2  tau(  17) = (   0.1550000   0.1550000   0.0000000  )
        18           O2  tau(  18) = (  -0.1550000  -0.1550000   0.0000000  )
        19           O2  tau(  19) = (   0.4050000   0.0950000   0.1751101  )
        20           O2  tau(  20) = (   0.0950000   0.4050000   0.1751101  )
        21           O2  tau(  21) = (   0.1550000   0.1550000   0.3502203  )
        22           O2  tau(  22) = (  -0.1550000  -0.1550000   0.3502203  )
        23           O2  tau(  23) = (   0.4050000   0.0950000   0.5253304  )
        24           O2  tau(  24) = (   0.0950000   0.4050000   0.5253304  )
        25           O2  tau(  25) = (   0.1550000   0.6550000   0.0000000  )
        26           O2  tau(  26) = (  -0.1550000   0.3450000   0.0000000  )
        27           O2  tau(  27) = (   0.4050000   0.5950000   0.1751101  )
        28           O2  tau(  28) = (   0.0950000   0.9050000   0.1751101  )
        29           O2  tau(  29) = (   0.1550000   0.6550000   0.3502203  )
        30           O2  tau(  30) = (  -0.1550000   0.3450000   0.3502203  )
        31           O2  tau(  31) = (   0.4050000   0.5950000   0.5253304  )
        32           O2  tau(  32) = (   0.0950000   0.9050000   0.5253304  )
        33           O2  tau(  33) = (   0.6550000   0.1550000   0.0000000  )
        34           O2  tau(  34) = (   0.3450000  -0.1550000   0.0000000  )
        35           O2  tau(  35) = (   0.9050000   0.0950000   0.1751101  )
        36           O2  tau(  36) = (   0.5950000   0.4050000   0.1751101  )
        37           O2  tau(  37) = (   0.6550000   0.1550000   0.3502203  )
        38           O2  tau(  38) = (   0.3450000  -0.1550000   0.3502203  )
        39           O2  tau(  39) = (   0.9050000   0.0950000   0.5253304  )
        40           O2  tau(  40) = (   0.5950000   0.4050000   0.5253304  )
        41           O2  tau(  41) = (   0.6550000   0.6550000   0.0000000  )
        42           O2  tau(  42) = (   0.3450000   0.3450000   0.0000000  )
        43           O2  tau(  43) = (   0.9050000   0.5950000   0.1751101  )
        44           O2  tau(  44) = (   0.5950000   0.9050000   0.1751101  )
        45           O2  tau(  45) = (   0.6550000   0.6550000   0.3502203  )
        46           O2  tau(  46) = (   0.3450000   0.3450000   0.3502203  )
        47           O2  tau(  47) = (   0.9050000   0.5950000   0.5253304  )
        48           O2  tau(  48) = (   0.5950000   0.9050000   0.5253304  )

     number of k points=    42  Methfessel-Paxton smearing, width (Ry)=  0.0100
                       cart. coord. in units 2pi/alat
        k(    1) = (   0.0000000   0.0000000   0.0000000), wk =   0.0156250
        k(    2) = (   0.0000000   0.0000000   0.3569182), wk =   0.0312500
        k(    3) = (   0.0000000   0.0000000  -0.7138365), wk =   0.0156250
        k(    4) = (   0.0000000   0.2500000   0.0000000), wk =   0.0625000
        k(    5) = (   0.0000000   0.2500000   0.3569182), wk =   0.1250000
        k(    6) = (   0.0000000   0.2500000  -0.7138365), wk =   0.0625000
        k(    7) = (   0.0000000  -0.5000000   0.0000000), wk =   0.0312500
        k(    8) = (   0.0000000  -0.5000000   0.3569182), wk =   0.0625000
        k(    9) = (   0.0000000  -0.5000000  -0.7138365), wk =   0.0312500
        k(   10) = (   0.2500000   0.2500000   0.0000000), wk =   0.0312500
        k(   11) = (   0.2500000   0.2500000   0.3569182), wk =   0.0625000
        k(   12) = (   0.2500000   0.2500000  -0.7138365), wk =   0.0312500
        k(   13) = (   0.2500000  -0.5000000   0.0000000), wk =   0.0625000
        k(   14) = (   0.2500000  -0.5000000   0.3569182), wk =   0.1250000
        k(   15) = (   0.2500000  -0.5000000  -0.7138365), wk =   0.0625000
        k(   16) = (  -0.5000000  -0.5000000   0.0000000), wk =   0.0156250
        k(   17) = (  -0.5000000  -0.5000000   0.3569182), wk =   0.0312500
        k(   18) = (  -0.5000000  -0.5000000  -0.7138365), wk =   0.0156250
        k(   19) = (  -0.2500000   0.2500000   0.0000000), wk =   0.0312500
        k(   20) = (  -0.2500000   0.2500000  -0.3569182), wk =   0.0625000
        k(   21) = (  -0.2500000   0.2500000   0.7138365), wk =   0.0312500
        k(   22) = (   0.0000000   0.0000000   0.0000000), wk =   0.0156250
        k(   23) = (   0.0000000   0.0000000   0.3569182), wk =   0.0312500
        k(   24) = (   0.0000000   0.0000000  -0.7138365), wk =   0.0156250
        k(   25) = (   0.0000000   0.2500000   0.0000000), wk =   0.0625000
        k(   26) = (   0.0000000   0.2500000   0.3569182), wk =   0.1250000
        k(   27) = (   0.0000000   0.2500000  -0.7138365), wk =   0.0625000
        k(   28) = (   0.0000000  -0.5000000   0.0000000), wk =   0.0312500
        k(   29) = (   0.0000000  -0.5000000   0.3569182), wk =   0.0625000
        k(   30) = (   0.0000000  -0.5000000  -0.7138365), wk =   0.0312500
        k(   31) = (   0.2500000   0.2500000   0.0000000), wk =   0.0312500
        k(   32) = (   0.2500000   0.2500000   0.3569182), wk =   0.0625000
        k(   33) = (   0.2500000   0.2500000  -0.7138365), wk =   0.0312500
        k(   34) = (   0.2500000  -0.5000000   0.0000000), wk =   0.0625000
        k(   35) = (   0.2500000  -0.5000000   0.3569182), wk =   0.1250000
        k(   36) = (   0.2500000  -0.5000000  -0.7138365), wk =   0.0625000
        k(   37) = (  -0.5000000  -0.5000000   0.0000000), wk =   0.0156250
        k(   38) = (  -0.5000000  -0.5000000   0.3569182), wk =   0.0312500
        k(   39) = (  -0.5000000  -0.5000000  -0.7138365), wk =   0.0156250
        k(   40) = (  -0.2500000   0.2500000   0.0000000), wk =   0.0312500
        k(   41) = (  -0.2500000   0.2500000  -0.3569182), wk =   0.0625000
        k(   42) = (  -0.2500000   0.2500000   0.7138365), wk =   0.0312500

     Dense  grid:   668029 G-vectors     FFT dimensions: ( 125, 125,  90)

     Smooth grid:   121001 G-vectors     FFT dimensions: (  72,  72,  50)

     Largest allocated arrays     est. size (Mb)     dimensions
        Kohn-Sham Wavefunctions         9.22 Mb     (    968,  624)
        Atomic wavefunctions            4.73 Mb     (    968,  320)
        NL pseudopotentials            11.11 Mb     (    968,  752)
        Each V/rho on FFT grid          2.86 Mb     (  93750,   2)
        Each G-vector array             0.32 Mb     (  41752)
        G-vector shells                 0.12 Mb     (  15629)
     Largest temporary arrays     est. size (Mb)     dimensions
        Auxiliary wavefunctions        36.87 Mb     (    968, 2496)
        Each subspace H/S matrix       95.06 Mb     (2496,2496)
        Each <psi_i|beta_j> matrix      7.16 Mb     (    752,  624)
        Arrays for rho mixing          11.44 Mb     (  93750,   8)

     Check: negative/imaginary core charge=   -0.000005    0.000000

     The initial density is read from file :
     alpha_0/pwscf.save/charge-density.dat


     negative rho (up, down):  0.312E+01 0.312E+01
     Number of +U iterations with fixed ns =  0
     Starting occupations:
 --- enter write_ns ---
 LDA+U parameters:
U( 1)     =  0.00000000
alpha( 1) =  0.00000000
U( 2)     =  0.00000000
alpha( 2) =  0.00000000
U( 3)     =  0.00000000
alpha( 3) =  0.00000000
atom    1   Tr[ns(na)] (up, down, total) =   4.02182  4.02182  8.04363
   spin  1
    eigenvalues: 
  0.618  0.646  0.869  0.911  0.977
    eigenvectors:
  0.000  0.334  0.000  0.000  0.666
  0.500  0.000  0.000  0.500  0.000
  0.500  0.000  0.000  0.500  0.000
  0.000  0.000  1.000  0.000  0.000
  0.000  0.666  0.000  0.000  0.334
    occupations:
  0.867 -0.000 -0.000 -0.000  0.156
 -0.000  0.764  0.146  0.000  0.000
 -0.000  0.146  0.764  0.000  0.000
 -0.000  0.000  0.000  0.869 -0.000
  0.156  0.000  0.000 -0.000  0.757
   spin  2
    eigenvalues: 
  0.618  0.646  0.869  0.911  0.977
    eigenvectors:
  0.000  0.334  0.000  0.000  0.666
  0.500  0.000  0.000  0.500  0.000
  0.500  0.000  0.000  0.500  0.000
  0.000  0.000  1.000  0.000  0.000
  0.000  0.666  0.000  0.000  0.334
    occupations:
  0.867 -0.000 -0.000 -0.000  0.156
 -0.000  0.764  0.146  0.000  0.000
 -0.000  0.146  0.764  0.000  0.000
 -0.000  0.000  0.000  0.869 -0.000
  0.156  0.000  0.000 -0.000  0.757
atomic mag. moment =     0.000000
atom    2   Tr[ns(na)] (up, down, total) =   4.02172  4.02172  8.04344
   spin  1
    eigenvalues: 
  0.618  0.646  0.869  0.910  0.977
    eigenvectors:
  0.000  0.334  0.000  0.000  0.666
  0.500  0.000  0.000  0.500  0.000
  0.500  0.000  0.000  0.500  0.000
  0.000  0.000  1.000  0.000  0.000
  0.000  0.666  0.000  0.000  0.334
    occupations:
  0.867 -0.000 -0.000 -0.000 -0.156
 -0.000  0.764 -0.146  0.000 -0.000
 -0.000 -0.146  0.764 -0.000 -0.000
 -0.000  0.000 -0.000  0.869 -0.000
 -0.156 -0.000 -0.000 -0.000  0.757
   spin  2
    eigenvalues: 
  0.618  0.646  0.869  0.910  0.977
    eigenvectors:
  0.000  0.334  0.000  0.000  0.666
  0.500  0.000  0.000  0.500  0.000
  0.500  0.000  0.000  0.500  0.000
  0.000  0.000  1.000  0.000  0.000
  0.000  0.666  0.000  0.000  0.334
    occupations:
  0.867 -0.000 -0.000 -0.000 -0.156
 -0.000  0.764 -0.146  0.000 -0.000
 -0.000 -0.146  0.764 -0.000 -0.000
 -0.000  0.000 -0.000  0.869 -0.000
 -0.156 -0.000 -0.000 -0.000  0.757
atomic mag. moment =     0.000000
atom    3   Tr[ns(na)] (up, down, total) =   4.02181  4.02181  8.04362
   spin  1
    eigenvalues: 
  0.618  0.646  0.869  0.911  0.977
    eigenvectors:
  0.000  0.334  0.000  0.000  0.666
  0.500  0.000  0.000  0.500  0.000
  0.500  0.000  0.000  0.500  0.000
  0.000  0.000  1.000  0.000  0.000
  0.000  0.666  0.000  0.000  0.334
    occupations:
  0.867 -0.000 -0.000 -0.000  0.156
 -0.000  0.764  0.146  0.000  0.000
 -0.000  0.146  0.764  0.000  0.000
 -0.000  0.000  0.000  0.869 -0.000
  0.156  0.000  0.000 -0.000  0.757
   spin  2
    eigenvalues: 
  0.618  0.646  0.869  0.911  0.977
    eigenvectors:
  0.000  0.334  0.000  0.000  0.666
  0.500  0.000  0.000  0.500  0.000
  0.500  0.000  0.000  0.500  0.000
  0.000  0.000  1.000  0.000  0.000
  0.000  0.666  0.000  0.000  0.334
    occupations:
  0.867 -0.000 -0.000 -0.000  0.156
 -0.000  0.764  0.146  0.000  0.000
 -0.000  0.146  0.764  0.000  0.000
 -0.000  0.000  0.000  0.869 -0.000
  0.156  0.000  0.000 -0.000  0.757
atomic mag. moment =     0.000000
atom    4   Tr[ns(na)] (up, down, total) =   4.02172  4.02172  8.04344
   spin  1
    eigenvalues: 
  0.618  0.646  0.869  0.910  0.977
    eigenvectors:
  0.000  0.334  0.000  0.000  0.666
  0.500  0.000  0.000  0.500  0.000
  0.500  0.000  0.000  0.500  0.000
  0.000  0.000  1.000  0.000  0.000
  0.000  0.666  0.000  0.000  0.334
    occupations:
  0.867  0.000  0.000 -0.000 -0.156
  0.000  0.764 -0.146 -0.000  0.000
  0.000 -0.146  0.764  0.000  0.000
 -0.000 -0.000  0.000  0.869 -0.000
 -0.156  0.000  0.000 -0.000  0.757
   spin  2
    eigenvalues: 
  0.618  0.646  0.869  0.910  0.977
    eigenvectors:
  0.000  0.334  0.000  0.000  0.666
  0.500  0.000  0.000  0.500  0.000
  0.500  0.000  0.000  0.500  0.000
  0.000  0.000  1.000  0.000  0.000
  0.000  0.666  0.000  0.000  0.334
    occupations:
  0.867  0.000  0.000 -0.000 -0.156
  0.000  0.764 -0.146 -0.000  0.000
  0.000 -0.146  0.764  0.000  0.000
 -0.000 -0.000  0.000  0.869 -0.000
 -0.156  0.000  0.000 -0.000  0.757
atomic mag. moment =     0.000000
atom    5   Tr[ns(na)] (up, down, total) =   4.02171  4.02171  8.04343
   spin  1
    eigenvalues: 
  0.618  0.646  0.869  0.910  0.977
    eigenvectors:
  0.000  0.334  0.000  0.000  0.666
  0.500  0.000  0.000  0.500  0.000
  0.500  0.000  0.000  0.500  0.000
  0.000  0.000  1.000  0.000  0.000
  0.000  0.666  0.000  0.000  0.334
    occupations:
  0.867 -0.000 -0.000  0.000  0.156
 -0.000  0.764  0.146  0.000  0.000
 -0.000  0.146  0.764  0.000  0.000
  0.000  0.000  0.000  0.869 -0.000
  0.156  0.000  0.000 -0.000  0.757
   spin  2
    eigenvalues: 
  0.618  0.646  0.869  0.910  0.977
    eigenvectors:
  0.000  0.334  0.000  0.000  0.666
  0.500  0.000  0.000  0.500  0.000
  0.500  0.000  0.000  0.500  0.000
  0.000  0.000  1.000  0.000  0.000
  0.000  0.666  0.000  0.000  0.334
    occupations:
  0.867 -0.000 -0.000  0.000  0.156
 -0.000  0.764  0.146  0.000  0.000
 -0.000  0.146  0.764  0.000  0.000
  0.000  0.000  0.000  0.869 -0.000
  0.156  0.000  0.000 -0.000  0.757
atomic mag. moment =    -0.000000
atom    6   Tr[ns(na)] (up, down, total) =   4.02182  4.02182  8.04363
   spin  1
    eigenvalues: 
  0.618  0.646  0.869  0.911  0.977
    eigenvectors:
  0.000  0.334  0.000  0.000  0.666
  0.500  0.000  0.000  0.500  0.000
  0.500  0.000  0.000  0.500  0.000
  0.000  0.000  1.000  0.000  0.000
  0.000  0.666  0.000  0.000  0.334
    occupations:
  0.867  0.000 -0.000 -0.000 -0.156
  0.000  0.764 -0.146 -0.000  0.000
 -0.000 -0.146  0.764 -0.000 -0.000
 -0.000 -0.000 -0.000  0.869 -0.000
 -0.156  0.000 -0.000 -0.000  0.757
   spin  2
    eigenvalues: 
  0.618  0.646  0.869  0.911  0.977
    eigenvectors:
  0.000  0.334  0.000  0.000  0.666
  0.500  0.000  0.000  0.500  0.000
  0.500  0.000  0.000  0.500  0.000
  0.000  0.000  1.000  0.000  0.000
  0.000  0.666  0.000  0.000  0.334
    occupations:
  0.867  0.000 -0.000 -0.000 -0.156
  0.000  0.764 -0.146 -0.000  0.000
 -0.000 -0.146  0.764 -0.000 -0.000
 -0.000 -0.000 -0.000  0.869 -0.000
 -0.156  0.000 -0.000 -0.000  0.757
atomic mag. moment =     0.000000
atom    7   Tr[ns(na)] (up, down, total) =   4.02169  4.02169  8.04339
   spin  1
    eigenvalues: 
  0.618  0.646  0.869  0.910  0.977
    eigenvectors:
  0.000  0.334  0.000  0.000  0.666
  0.500  0.000  0.000  0.500  0.000
  0.500  0.000  0.000  0.500  0.000
  0.000  0.000  1.000  0.000  0.000
  0.000  0.666  0.000  0.000  0.334
    occupations:
  0.867 -0.000 -0.000 -0.000  0.156
 -0.000  0.764  0.146  0.000  0.000
 -0.000  0.146  0.764  0.000  0.000
 -0.000  0.000  0.000  0.869  0.000
  0.156  0.000  0.000  0.000  0.757
   spin  2
    eigenvalues: 
  0.618  0.646  0.869  0.910  0.977
    eigenvectors:
  0.000  0.334  0.000  0.000  0.666
  0.500  0.000  0.000  0.500  0.000
  0.500  0.000  0.000  0.500  0.000
  0.000  0.000  1.000  0.000  0.000
  0.000  0.666  0.000  0.000  0.334
    occupations:
  0.867 -0.000 -0.000 -0.000  0.156
 -0.000  0.764  0.146  0.000  0.000
 -0.000  0.146  0.764  0.000  0.000
 -0.000  0.000  0.000  0.869  0.000
  0.156  0.000  0.000  0.000  0.757
atomic mag. moment =    -0.000000
atom    8   Tr[ns(na)] (up, down, total) =   4.02182  4.02182  8.04363
   spin  1
    eigenvalues: 
  0.618  0.646  0.869  0.911  0.977
    eigenvectors:
  0.000  0.334  0.000  0.000  0.666
  0.500  0.000  0.000  0.500  0.000
  0.500  0.000  0.000  0.500  0.000
  0.000  0.000  1.000  0.000  0.000
  0.000  0.666  0.000  0.000  0.334
    occupations:
  0.867 -0.000  0.000 -0.000 -0.156
 -0.000  0.764 -0.146  0.000 -0.000
  0.000 -0.146  0.764  0.000  0.000
 -0.000  0.000  0.000  0.869 -0.000
 -0.156 -0.000  0.000 -0.000  0.757
   spin  2
    eigenvalues: 
  0.618  0.646  0.869  0.911  0.977
    eigenvectors:
  0.000  0.334  0.000  0.000  0.666
  0.500  0.000  0.000  0.500  0.000
  0.500  0.000  0.000  0.500  0.000
  0.000  0.000  1.000  0.000  0.000
  0.000  0.666  0.000  0.000  0.334
    occupations:
  0.867 -0.000  0.000 -0.000 -0.156
 -0.000  0.764 -0.146  0.000 -0.000
  0.000 -0.146  0.764  0.000  0.000
 -0.000  0.000  0.000  0.869 -0.000
 -0.156 -0.000  0.000 -0.000  0.757
atomic mag. moment =     0.000000
atom    9   Tr[ns(na)] (up, down, total) =   4.02171  4.02171  8.04343
   spin  1
    eigenvalues: 
  0.618  0.646  0.869  0.910  0.977
    eigenvectors:
  0.000  0.334  0.000  0.000  0.666
  0.500  0.000  0.000  0.500  0.000
  0.500  0.000  0.000  0.500  0.000
  0.000  0.000  1.000  0.000  0.000
  0.000  0.666  0.000  0.000  0.334
    occupations:
  0.867 -0.000 -0.000 -0.000  0.156
 -0.000  0.764  0.146  0.000  0.000
 -0.000  0.146  0.764  0.000  0.000
 -0.000  0.000  0.000  0.869  0.000
  0.156  0.000  0.000  0.000  0.757
   spin  2
    eigenvalues: 
  0.618  0.646  0.869  0.910  0.977
    eigenvectors:
  0.000  0.334  0.000  0.000  0.666
  0.500  0.000  0.000  0.500  0.000
  0.500  0.000  0.000  0.500  0.000
  0.000  0.000  1.000  0.000  0.000
  0.000  0.666  0.000  0.000  0.334
    occupations:
  0.867 -0.000 -0.000 -0.000  0.156
 -0.000  0.764  0.146  0.000  0.000
 -0.000  0.146  0.764  0.000  0.000
 -0.000  0.000  0.000  0.869  0.000
  0.156  0.000  0.000  0.000  0.757
atomic mag. moment =    -0.000000
atom   10   Tr[ns(na)] (up, down, total) =   4.02182  4.02182  8.04363
   spin  1
    eigenvalues: 
  0.618  0.646  0.869  0.911  0.977
    eigenvectors:
  0.000  0.334  0.000  0.000  0.666
  0.500  0.000  0.000  0.500  0.000
  0.500  0.000  0.000  0.500  0.000
  0.000  0.000  1.000  0.000  0.000
  0.000  0.666  0.000  0.000  0.334
    occupations:
  0.867 -0.000  0.000 -0.000 -0.156
 -0.000  0.764 -0.146  0.000 -0.000
  0.000 -0.146  0.764  0.000  0.000
 -0.000  0.000  0.000  0.869 -0.000
 -0.156 -0.000  0.000 -0.000  0.757
   spin  2
    eigenvalues: 
  0.618  0.646  0.869  0.911  0.977
    eigenvectors:
  0.000  0.334  0.000  0.000  0.666
  0.500  0.000  0.000  0.500  0.000
  0.500  0.000  0.000  0.500  0.000
  0.000  0.000  1.000  0.000  0.000
  0.000  0.666  0.000  0.000  0.334
    occupations:
  0.867 -0.000  0.000 -0.000 -0.156
 -0.000  0.764 -0.146  0.000 -0.000
  0.000 -0.146  0.764  0.000  0.000
 -0.000  0.000  0.000  0.869 -0.000
 -0.156 -0.000  0.000 -0.000  0.757
atomic mag. moment =     0.000000
atom   11   Tr[ns(na)] (up, down, total) =   4.02169  4.02169  8.04339
   spin  1
    eigenvalues: 
  0.618  0.646  0.869  0.910  0.977
    eigenvectors:
  0.000  0.334  0.000  0.000  0.666
  0.500  0.000  0.000  0.500  0.000
  0.500  0.000  0.000  0.500  0.000
  0.000  0.000  1.000  0.000  0.000
  0.000  0.666  0.000  0.000  0.334
    occupations:
  0.867 -0.000 -0.000  0.000  0.156
 -0.000  0.764  0.146  0.000  0.000
 -0.000  0.146  0.764  0.000  0.000
  0.000  0.000  0.000  0.869 -0.000
  0.156  0.000  0.000 -0.000  0.757
   spin  2
    eigenvalues: 
  0.618  0.646  0.869  0.910  0.977
    eigenvectors:
  0.000  0.334  0.000  0.000  0.666
  0.500  0.000  0.000  0.500  0.000
  0.500  0.000  0.000  0.500  0.000
  0.000  0.000  1.000  0.000  0.000
  0.000  0.666  0.000  0.000  0.334
    occupations:
  0.867 -0.000 -0.000  0.000  0.156
 -0.000  0.764  0.146  0.000  0.000
 -0.000  0.146  0.764  0.000  0.000
  0.000  0.000  0.000  0.869 -0.000
  0.156  0.000  0.000 -0.000  0.757
atomic mag. moment =    -0.000000
atom   12   Tr[ns(na)] (up, down, total) =   4.02182  4.02182  8.04363
   spin  1
    eigenvalues: 
  0.618  0.646  0.869  0.911  0.977
    eigenvectors:
  0.000  0.334  0.000  0.000  0.666
  0.500  0.000  0.000  0.500  0.000
  0.500  0.000  0.000  0.500  0.000
  0.000  0.000  1.000  0.000  0.000
  0.000  0.666  0.000  0.000  0.334
    occupations:
  0.867  0.000 -0.000 -0.000 -0.156
  0.000  0.764 -0.146 -0.000  0.000
 -0.000 -0.146  0.764 -0.000 -0.000
 -0.000 -0.000 -0.000  0.869 -0.000
 -0.156  0.000 -0.000 -0.000  0.757
   spin  2
    eigenvalues: 
  0.618  0.646  0.869  0.911  0.977
    eigenvectors:
  0.000  0.334  0.000  0.000  0.666
  0.500  0.000  0.000  0.500  0.000
  0.500  0.000  0.000  0.500  0.000
  0.000  0.000  1.000  0.000  0.000
  0.000  0.666  0.000  0.000  0.334
    occupations:
  0.867  0.000 -0.000 -0.000 -0.156
  0.000  0.764 -0.146 -0.000  0.000
 -0.000 -0.146  0.764 -0.000 -0.000
 -0.000 -0.000 -0.000  0.869 -0.000
 -0.156  0.000 -0.000 -0.000  0.757
atomic mag. moment =     0.000000
atom   13   Tr[ns(na)] (up, down, total) =   4.02193  4.02193  8.04387
   spin  1
    eigenvalues: 
  0.618  0.646  0.869  0.911  0.977
    eigenvectors:
  0.000  0.334  0.000  0.000  0.666
  0.500  0.000  0.000  0.500  0.000
  0.500  0.000  0.000  0.500  0.000
  0.000  0.000  1.000  0.000  0.000
  0.000  0.666  0.000  0.000  0.334
    occupations:
  0.867 -0.000 -0.000 -0.000  0.156
 -0.000  0.764  0.146  0.000  0.000
 -0.000  0.146  0.764  0.000  0.000
 -0.000  0.000  0.000  0.869 -0.000
  0.156  0.000  0.000 -0.000  0.757
   spin  2
    eigenvalues: 
  0.618  0.646  0.869  0.911  0.977
    eigenvectors:
  0.000  0.334  0.000  0.000  0.666
  0.500  0.000  0.000  0.500  0.000
  0.500  0.000  0.000  0.500  0.000
  0.000  0.000  1.000  0.000  0.000
  0.000  0.666  0.000  0.000  0.334
    occupations:
  0.867 -0.000 -0.000 -0.000  0.156
 -0.000  0.764  0.146  0.000  0.000
 -0.000  0.146  0.764  0.000  0.000
 -0.000  0.000  0.000  0.869 -0.000
  0.156  0.000  0.000 -0.000  0.757
atomic mag. moment =     0.000000
atom   14   Tr[ns(na)] (up, down, total) =   4.02172  4.02172  8.04344
   spin  1
    eigenvalues: 
  0.618  0.646  0.869  0.910  0.977
    eigenvectors:
  0.000  0.334  0.000  0.000  0.666
  0.500  0.000  0.000  0.500  0.000
  0.500  0.000  0.000  0.500  0.000
  0.000  0.000  1.000  0.000  0.000
  0.000  0.666  0.000  0.000  0.334
    occupations:
  0.867  0.000  0.000 -0.000 -0.156
  0.000  0.764 -0.146 -0.000  0.000
  0.000 -0.146  0.764  0.000  0.000
 -0.000 -0.000  0.000  0.869 -0.000
 -0.156  0.000  0.000 -0.000  0.757
   spin  2
    eigenvalues: 
  0.618  0.646  0.869  0.910  0.977
    eigenvectors:
  0.000  0.334  0.000  0.000  0.666
  0.500  0.000  0.000  0.500  0.000
  0.500  0.000  0.000  0.500  0.000
  0.000  0.000  1.000  0.000  0.000
  0.000  0.666  0.000  0.000  0.334
    occupations:
  0.867  0.000  0.000 -0.000 -0.156
  0.000  0.764 -0.146 -0.000  0.000
  0.000 -0.146  0.764  0.000  0.000
 -0.000 -0.000  0.000  0.869 -0.000
 -0.156  0.000  0.000 -0.000  0.757
atomic mag. moment =     0.000000
atom   15   Tr[ns(na)] (up, down, total) =   4.02162  4.02162  8.04325
   spin  1
    eigenvalues: 
  0.618  0.646  0.869  0.910  0.977
    eigenvectors:
  0.000  0.334  0.000  0.000  0.666
  0.500  0.000  0.000  0.500  0.000
  0.500  0.000  0.000  0.500  0.000
  0.000  0.000  1.000  0.000  0.000
  0.000  0.666  0.000  0.000  0.334
    occupations:
  0.867 -0.000 -0.000 -0.000  0.156
 -0.000  0.764  0.146  0.000  0.000
 -0.000  0.146  0.764  0.000  0.000
 -0.000  0.000  0.000  0.869 -0.000
  0.156  0.000  0.000 -0.000  0.757
   spin  2
    eigenvalues: 
  0.618  0.646  0.869  0.910  0.977
    eigenvectors:
  0.000  0.334  0.000  0.000  0.666
  0.500  0.000  0.000  0.500  0.000
  0.500  0.000  0.000  0.500  0.000
  0.000  0.000  1.000  0.000  0.000
  0.000  0.666  0.000  0.000  0.334
    occupations:
  0.867 -0.000 -0.000 -0.000  0.156
 -0.000  0.764  0.146  0.000  0.000
 -0.000  0.146  0.764  0.000  0.000
 -0.000  0.000  0.000  0.869 -0.000
  0.156  0.000  0.000 -0.000  0.757
atomic mag. moment =     0.000000
atom   16   Tr[ns(na)] (up, down, total) =   4.02172  4.02172  8.04344
   spin  1
    eigenvalues: 
  0.618  0.646  0.869  0.910  0.977
    eigenvectors:
  0.000  0.334  0.000  0.000  0.666
  0.500  0.000  0.000  0.500  0.000
  0.500  0.000  0.000  0.500  0.000
  0.000  0.000  1.000  0.000  0.000
  0.000  0.666  0.000  0.000  0.334
    occupations:
  0.867 -0.000 -0.000 -0.000 -0.156
 -0.000  0.764 -0.146  0.000 -0.000
 -0.000 -0.146  0.764 -0.000 -0.000
 -0.000  0.000 -0.000  0.869 -0.000
 -0.156 -0.000 -0.000 -0.000  0.757
   spin  2
    eigenvalues: 
  0.618  0.646  0.869  0.910  0.977
    eigenvectors:
  0.000  0.334  0.000  0.000  0.666
  0.500  0.000  0.000  0.500  0.000
  0.500  0.000  0.000  0.500  0.000
  0.000  0.000  1.000  0.000  0.000
  0.000  0.666  0.000  0.000  0.334
    occupations:
  0.867 -0.000 -0.000 -0.000 -0.156
 -0.000  0.764 -0.146  0.000 -0.000
 -0.000 -0.146  0.764 -0.000 -0.000
 -0.000  0.000 -0.000  0.869 -0.000
 -0.156 -0.000 -0.000 -0.000  0.757
atomic mag. moment =     0.000000
atom   17   Tr[ns(na)] (up, down, total) =   2.68357  2.68357  5.36714
   spin  1
    eigenvalues: 
  0.879  0.884  0.921
    eigenvectors:
  0.000  1.000  0.000
  0.500  0.000  0.500
  0.500  0.000  0.500
    occupations:
  0.884 -0.000 -0.000
 -0.000  0.900 -0.021
 -0.000 -0.021  0.900
   spin  2
    eigenvalues: 
  0.879  0.884  0.921
    eigenvectors:
  0.000  1.000  0.000
  0.500  0.000  0.500
  0.500  0.000  0.500
    occupations:
  0.884 -0.000 -0.000
 -0.000  0.900 -0.021
 -0.000 -0.021  0.900
atomic mag. moment =     0.000000
atom   18   Tr[ns(na)] (up, down, total) =   2.68357  2.68357  5.36714
   spin  1
    eigenvalues: 
  0.879  0.884  0.921
    eigenvectors:
  0.000  1.000  0.000
  0.500  0.000  0.500
  0.500  0.000  0.500
    occupations:
  0.884 -0.000 -0.000
 -0.000  0.900 -0.021
 -0.000 -0.021  0.900
   spin  2
    eigenvalues: 
  0.879  0.884  0.921
    eigenvectors:
  0.000  1.000  0.000
  0.500  0.000  0.500
  0.500  0.000  0.500
    occupations:
  0.884 -0.000 -0.000
 -0.000  0.900 -0.021
 -0.000 -0.021  0.900
atomic mag. moment =     0.000000
atom   19   Tr[ns(na)] (up, down, total) =   2.68354  2.68354  5.36708
   spin  1
    eigenvalues: 
  0.879  0.884  0.921
    eigenvectors:
  0.000  1.000  0.000
  0.500  0.000  0.500
  0.500  0.000  0.500
    occupations:
  0.884 -0.000  0.000
 -0.000  0.900  0.021
  0.000  0.021  0.900
   spin  2
    eigenvalues: 
  0.879  0.884  0.921
    eigenvectors:
  0.000  1.000  0.000
  0.500  0.000  0.500
  0.500  0.000  0.500
    occupations:
  0.884 -0.000  0.000
 -0.000  0.900  0.021
  0.000  0.021  0.900
atomic mag. moment =     0.000000
atom   20   Tr[ns(na)] (up, down, total) =   2.68354  2.68354  5.36708
   spin  1
    eigenvalues: 
  0.879  0.884  0.921
    eigenvectors:
  0.000  1.000  0.000
  0.500  0.000  0.500
  0.500  0.000  0.500
    occupations:
  0.884  0.000 -0.000
  0.000  0.900  0.021
 -0.000  0.021  0.900
   spin  2
    eigenvalues: 
  0.879  0.884  0.921
    eigenvectors:
  0.000  1.000  0.000
  0.500  0.000  0.500
  0.500  0.000  0.500
    occupations:
  0.884  0.000 -0.000
  0.000  0.900  0.021
 -0.000  0.021  0.900
atomic mag. moment =     0.000000
atom   21   Tr[ns(na)] (up, down, total) =   2.68353  2.68353  5.36706
   spin  1
    eigenvalues: 
  0.879  0.884  0.921
    eigenvectors:
  0.000  1.000  0.000
  0.500  0.000  0.500
  0.500  0.000  0.500
    occupations:
  0.884 -0.000 -0.000
 -0.000  0.900 -0.021
 -0.000 -0.021  0.900
   spin  2
    eigenvalues: 
  0.879  0.884  0.921
    eigenvectors:
  0.000  1.000  0.000
  0.500  0.000  0.500
  0.500  0.000  0.500
    occupations:
  0.884 -0.000 -0.000
 -0.000  0.900 -0.021
 -0.000 -0.021  0.900
atomic mag. moment =     0.000000
atom   22   Tr[ns(na)] (up, down, total) =   2.68353  2.68353  5.36706
   spin  1
    eigenvalues: 
  0.879  0.884  0.921
    eigenvectors:
  0.000  1.000  0.000
  0.500  0.000  0.500
  0.500  0.000  0.500
    occupations:
  0.884 -0.000 -0.000
 -0.000  0.900 -0.021
 -0.000 -0.021  0.900
   spin  2
    eigenvalues: 
  0.879  0.884  0.921
    eigenvectors:
  0.000  1.000  0.000
  0.500  0.000  0.500
  0.500  0.000  0.500
    occupations:
  0.884 -0.000 -0.000
 -0.000  0.900 -0.021
 -0.000 -0.021  0.900
atomic mag. moment =     0.000000
atom   23   Tr[ns(na)] (up, down, total) =   2.68354  2.68354  5.36708
   spin  1
    eigenvalues: 
  0.879  0.884  0.921
    eigenvectors:
  0.000  1.000  0.000
  0.500  0.000  0.500
  0.500  0.000  0.500
    occupations:
  0.884  0.000 -0.000
  0.000  0.900  0.021
 -0.000  0.021  0.900
   spin  2
    eigenvalues: 
  0.879  0.884  0.921
    eigenvectors:
  0.000  1.000  0.000
  0.500  0.000  0.500
  0.500  0.000  0.500
    occupations:
  0.884  0.000 -0.000
  0.000  0.900  0.021
 -0.000  0.021  0.900
atomic mag. moment =     0.000000
atom   24   Tr[ns(na)] (up, down, total) =   2.68354  2.68354  5.36708
   spin  1
    eigenvalues: 
  0.879  0.884  0.921
    eigenvectors:
  0.000  1.000  0.000
  0.500  0.000  0.500
  0.500  0.000  0.500
    occupations:
  0.884 -0.000  0.000
 -0.000  0.900  0.021
  0.000  0.021  0.900
   spin  2
    eigenvalues: 
  0.879  0.884  0.921
    eigenvectors:
  0.000  1.000  0.000
  0.500  0.000  0.500
  0.500  0.000  0.500
    occupations:
  0.884 -0.000  0.000
 -0.000  0.900  0.021
  0.000  0.021  0.900
atomic mag. moment =     0.000000
atom   25   Tr[ns(na)] (up, down, total) =   2.68357  2.68357  5.36714
   spin  1
    eigenvalues: 
  0.879  0.884  0.921
    eigenvectors:
  0.000  1.000  0.000
  0.500  0.000  0.500
  0.500  0.000  0.500
    occupations:
  0.884 -0.000 -0.000
 -0.000  0.900 -0.021
 -0.000 -0.021  0.900
   spin  2
    eigenvalues: 
  0.879  0.884  0.921
    eigenvectors:
  0.000  1.000  0.000
  0.500  0.000  0.500
  0.500  0.000  0.500
    occupations:
  0.884 -0.000 -0.000
 -0.000  0.900 -0.021
 -0.000 -0.021  0.900
atomic mag. moment =     0.000000
atom   26   Tr[ns(na)] (up, down, total) =   2.68357  2.68357  5.36714
   spin  1
    eigenvalues: 
  0.879  0.884  0.921
    eigenvectors:
  0.000  1.000  0.000
  0.500  0.000  0.500
  0.500  0.000  0.500
    occupations:
  0.884 -0.000 -0.000
 -0.000  0.900 -0.021
 -0.000 -0.021  0.900
   spin  2
    eigenvalues: 
  0.879  0.884  0.921
    eigenvectors:
  0.000  1.000  0.000
  0.500  0.000  0.500
  0.500  0.000  0.500
    occupations:
  0.884 -0.000 -0.000
 -0.000  0.900 -0.021
 -0.000 -0.021  0.900
atomic mag. moment =     0.000000
atom   27   Tr[ns(na)] (up, down, total) =   2.68355  2.68355  5.36709
   spin  1
    eigenvalues: 
  0.879  0.884  0.921
    eigenvectors:
  0.000  1.000  0.000
  0.500  0.000  0.500
  0.500  0.000  0.500
    occupations:
  0.884 -0.000  0.000
 -0.000  0.900  0.021
  0.000  0.021  0.900
   spin  2
    eigenvalues: 
  0.879  0.884  0.921
    eigenvectors:
  0.000  1.000  0.000
  0.500  0.000  0.500
  0.500  0.000  0.500
    occupations:
  0.884 -0.000  0.000
 -0.000  0.900  0.021
  0.000  0.021  0.900
atomic mag. moment =     0.000000
atom   28   Tr[ns(na)] (up, down, total) =   2.68358  2.68357  5.36715
   spin  1
    eigenvalues: 
  0.879  0.884  0.921
    eigenvectors:
  0.000  1.000  0.000
  0.500  0.000  0.500
  0.500  0.000  0.500
    occupations:
  0.884 -0.000  0.000
 -0.000  0.900  0.021
  0.000  0.021  0.900
   spin  2
    eigenvalues: 
  0.879  0.884  0.921
    eigenvectors:
  0.000  1.000  0.000
  0.500  0.000  0.500
  0.500  0.000  0.500
    occupations:
  0.884 -0.000  0.000
 -0.000  0.900  0.021
  0.000  0.021  0.900
atomic mag. moment =     0.000000
atom   29   Tr[ns(na)] (up, down, total) =   2.68356  2.68356  5.36713
   spin  1
    eigenvalues: 
  0.879  0.884  0.921
    eigenvectors:
  0.000  1.000  0.000
  0.500  0.000  0.500
  0.500  0.000  0.500
    occupations:
  0.884 -0.000 -0.000
 -0.000  0.900 -0.021
 -0.000 -0.021  0.900
   spin  2
    eigenvalues: 
  0.879  0.884  0.921
    eigenvectors:
  0.000  1.000  0.000
  0.500  0.000  0.500
  0.500  0.000  0.500
    occupations:
  0.884 -0.000 -0.000
 -0.000  0.900 -0.021
 -0.000 -0.021  0.900
atomic mag. moment =     0.000000
atom   30   Tr[ns(na)] (up, down, total) =   2.68356  2.68356  5.36713
   spin  1
    eigenvalues: 
  0.879  0.884  0.921
    eigenvectors:
  0.000  1.000  0.000
  0.500  0.000  0.500
  0.500  0.000  0.500
    occupations:
  0.884 -0.000 -0.000
 -0.000  0.900 -0.021
 -0.000 -0.021  0.900
   spin  2
    eigenvalues: 
  0.879  0.884  0.921
    eigenvectors:
  0.000  1.000  0.000
  0.500  0.000  0.500
  0.500  0.000  0.500
    occupations:
  0.884 -0.000 -0.000
 -0.000  0.900 -0.021
 -0.000 -0.021  0.900
atomic mag. moment =     0.000000
atom   31   Tr[ns(na)] (up, down, total) =   2.68355  2.68355  5.36709
   spin  1
    eigenvalues: 
  0.879  0.884  0.921
    eigenvectors:
  0.000  1.000  0.000
  0.500  0.000  0.500
  0.500  0.000  0.500
    occupations:
  0.884  0.000 -0.000
  0.000  0.900  0.021
 -0.000  0.021  0.900
   spin  2
    eigenvalues: 
  0.879  0.884  0.921
    eigenvectors:
  0.000  1.000  0.000
  0.500  0.000  0.500
  0.500  0.000  0.500
    occupations:
  0.884  0.000 -0.000
  0.000  0.900  0.021
 -0.000  0.021  0.900
atomic mag. moment =     0.000000
atom   32   Tr[ns(na)] (up, down, total) =   2.68358  2.68357  5.36715
   spin  1
    eigenvalues: 
  0.879  0.884  0.921
    eigenvectors:
  0.000  1.000  0.000
  0.500  0.000  0.500
  0.500  0.000  0.500
    occupations:
  0.884  0.000 -0.000
  0.000  0.900  0.021
 -0.000  0.021  0.900
   spin  2
    eigenvalues: 
  0.879  0.884  0.921
    eigenvectors:
  0.000  1.000  0.000
  0.500  0.000  0.500
  0.500  0.000  0.500
    occupations:
  0.884  0.000 -0.000
  0.000  0.900  0.021
 -0.000  0.021  0.900
atomic mag. moment =     0.000000
atom   33   Tr[ns(na)] (up, down, total) =   2.68357  2.68357  5.36714
   spin  1
    eigenvalues: 
  0.879  0.884  0.921
    eigenvectors:
  0.000  1.000  0.000
  0.500  0.000  0.500
  0.500  0.000  0.500
    occupations:
  0.884 -0.000 -0.000
 -0.000  0.900 -0.021
 -0.000 -0.021  0.900
   spin  2
    eigenvalues: 
  0.879  0.884  0.921
    eigenvectors:
  0.000  1.000  0.000
  0.500  0.000  0.500
  0.500  0.000  0.500
    occupations:
  0.884 -0.000 -0.000
 -0.000  0.900 -0.021
 -0.000 -0.021  0.900
atomic mag. moment =     0.000000
atom   34   Tr[ns(na)] (up, down, total) =   2.68357  2.68357  5.36714
   spin  1
    eigenvalues: 
  0.879  0.884  0.921
    eigenvectors:
  0.000  1.000  0.000
  0.500  0.000  0.500
  0.500  0.000  0.500
    occupations:
  0.884 -0.000 -0.000
 -0.000  0.900 -0.021
 -0.000 -0.021  0.900
   spin  2
    eigenvalues: 
  0.879  0.884  0.921
    eigenvectors:
  0.000  1.000  0.000
  0.500  0.000  0.500
  0.500  0.000  0.500
    occupations:
  0.884 -0.000 -0.000
 -0.000  0.900 -0.021
 -0.000 -0.021  0.900
atomic mag. moment =     0.000000
atom   35   Tr[ns(na)] (up, down, total) =   2.68358  2.68357  5.36715
   spin  1
    eigenvalues: 
  0.879  0.884  0.921
    eigenvectors:
  0.000  1.000  0.000
  0.500  0.000  0.500
  0.500  0.000  0.500
    occupations:
  0.884  0.000 -0.000
  0.000  0.900  0.021
 -0.000  0.021  0.900
   spin  2
    eigenvalues: 
  0.879  0.884  0.921
    eigenvectors:
  0.000  1.000  0.000
  0.500  0.000  0.500
  0.500  0.000  0.500
    occupations:
  0.884  0.000 -0.000
  0.000  0.900  0.021
 -0.000  0.021  0.900
atomic mag. moment =     0.000000
atom   36   Tr[ns(na)] (up, down, total) =   2.68355  2.68355  5.36709
   spin  1
    eigenvalues: 
  0.879  0.884  0.921
    eigenvectors:
  0.000  1.000  0.000
  0.500  0.000  0.500
  0.500  0.000  0.500
    occupations:
  0.884  0.000 -0.000
  0.000  0.900  0.021
 -0.000  0.021  0.900
   spin  2
    eigenvalues: 
  0.879  0.884  0.921
    eigenvectors:
  0.000  1.000  0.000
  0.500  0.000  0.500
  0.500  0.000  0.500
    occupations:
  0.884  0.000 -0.000
  0.000  0.900  0.021
 -0.000  0.021  0.900
atomic mag. moment =     0.000000
atom   37   Tr[ns(na)] (up, down, total) =   2.68356  2.68356  5.36713
   spin  1
    eigenvalues: 
  0.879  0.884  0.921
    eigenvectors:
  0.000  1.000  0.000
  0.500  0.000  0.500
  0.500  0.000  0.500
    occupations:
  0.884 -0.000 -0.000
 -0.000  0.900 -0.021
 -0.000 -0.021  0.900
   spin  2
    eigenvalues: 
  0.879  0.884  0.921
    eigenvectors:
  0.000  1.000  0.000
  0.500  0.000  0.500
  0.500  0.000  0.500
    occupations:
  0.884 -0.000 -0.000
 -0.000  0.900 -0.021
 -0.000 -0.021  0.900
atomic mag. moment =     0.000000
atom   38   Tr[ns(na)] (up, down, total) =   2.68356  2.68356  5.36713
   spin  1
    eigenvalues: 
  0.879  0.884  0.921
    eigenvectors:
  0.000  1.000  0.000
  0.500  0.000  0.500
  0.500  0.000  0.500
    occupations:
  0.884 -0.000 -0.000
 -0.000  0.900 -0.021
 -0.000 -0.021  0.900
   spin  2
    eigenvalues: 
  0.879  0.884  0.921
    eigenvectors:
  0.000  1.000  0.000
  0.500  0.000  0.500
  0.500  0.000  0.500
    occupations:
  0.884 -0.000 -0.000
 -0.000  0.900 -0.021
 -0.000 -0.021  0.900
atomic mag. moment =     0.000000
atom   39   Tr[ns(na)] (up, down, total) =   2.68358  2.68357  5.36715
   spin  1
    eigenvalues: 
  0.879  0.884  0.921
    eigenvectors:
  0.000  1.000  0.000
  0.500  0.000  0.500
  0.500  0.000  0.500
    occupations:
  0.884 -0.000  0.000
 -0.000  0.900  0.021
  0.000  0.021  0.900
   spin  2
    eigenvalues: 
  0.879  0.884  0.921
    eigenvectors:
  0.000  1.000  0.000
  0.500  0.000  0.500
  0.500  0.000  0.500
    occupations:
  0.884 -0.000  0.000
 -0.000  0.900  0.021
  0.000  0.021  0.900
atomic mag. moment =     0.000000
atom   40   Tr[ns(na)] (up, down, total) =   2.68355  2.68355  5.36709
   spin  1
    eigenvalues: 
  0.879  0.884  0.921
    eigenvectors:
  0.000  1.000  0.000
  0.500  0.000  0.500
  0.500  0.000  0.500
    occupations:
  0.884 -0.000  0.000
 -0.000  0.900  0.021
  0.000  0.021  0.900
   spin  2
    eigenvalues: 
  0.879  0.884  0.921
    eigenvectors:
  0.000  1.000  0.000
  0.500  0.000  0.500
  0.500  0.000  0.500
    occupations:
  0.884 -0.000  0.000
 -0.000  0.900  0.021
  0.000  0.021  0.900
atomic mag. moment =     0.000000
atom   41   Tr[ns(na)] (up, down, total) =   2.68359  2.68359  5.36717
   spin  1
    eigenvalues: 
  0.879  0.884  0.921
    eigenvectors:
  0.000  1.000  0.000
  0.500  0.000  0.500
  0.500  0.000  0.500
    occupations:
  0.884 -0.000 -0.000
 -0.000  0.900 -0.021
 -0.000 -0.021  0.900
   spin  2
    eigenvalues: 
  0.879  0.884  0.921
    eigenvectors:
  0.000  1.000  0.000
  0.500  0.000  0.500
  0.500  0.000  0.500
    occupations:
  0.884 -0.000 -0.000
 -0.000  0.900 -0.021
 -0.000 -0.021  0.900
atomic mag. moment =     0.000000
atom   42   Tr[ns(na)] (up, down, total) =   2.68359  2.68359  5.36717
   spin  1
    eigenvalues: 
  0.879  0.884  0.921
    eigenvectors:
  0.000  1.000  0.000
  0.500  0.000  0.500
  0.500  0.000  0.500
    occupations:
  0.884 -0.000 -0.000
 -0.000  0.900 -0.021
 -0.000 -0.021  0.900
   spin  2
    eigenvalues: 
  0.879  0.884  0.921
    eigenvectors:
  0.000  1.000  0.000
  0.500  0.000  0.500
  0.500  0.000  0.500
    occupations:
  0.884 -0.000 -0.000
 -0.000  0.900 -0.021
 -0.000 -0.021  0.900
atomic mag. moment =     0.000000
atom   43   Tr[ns(na)] (up, down, total) =   2.68354  2.68354  5.36708
   spin  1
    eigenvalues: 
  0.879  0.884  0.921
    eigenvectors:
  0.000  1.000  0.000
  0.500  0.000  0.500
  0.500  0.000  0.500
    occupations:
  0.884 -0.000  0.000
 -0.000  0.900  0.021
  0.000  0.021  0.900
   spin  2
    eigenvalues: 
  0.879  0.884  0.921
    eigenvectors:
  0.000  1.000  0.000
  0.500  0.000  0.500
  0.500  0.000  0.500
    occupations:
  0.884 -0.000  0.000
 -0.000  0.900  0.021
  0.000  0.021  0.900
atomic mag. moment =     0.000000
atom   44   Tr[ns(na)] (up, down, total) =   2.68354  2.68354  5.36708
   spin  1
    eigenvalues: 
  0.879  0.884  0.921
    eigenvectors:
  0.000  1.000  0.000
  0.500  0.000  0.500
  0.500  0.000  0.500
    occupations:
  0.884  0.000 -0.000
  0.000  0.900  0.021
 -0.000  0.021  0.900
   spin  2
    eigenvalues: 
  0.879  0.884  0.921
    eigenvectors:
  0.000  1.000  0.000
  0.500  0.000  0.500
  0.500  0.000  0.500
    occupations:
  0.884  0.000 -0.000
  0.000  0.900  0.021
 -0.000  0.021  0.900
atomic mag. moment =     0.000000
atom   45   Tr[ns(na)] (up, down, total) =   2.68350  2.68350  5.36699
   spin  1
    eigenvalues: 
  0.879  0.884  0.921
    eigenvectors:
  0.000  1.000  0.000
  0.500  0.000  0.500
  0.500  0.000  0.500
    occupations:
  0.884 -0.000 -0.000
 -0.000  0.900 -0.021
 -0.000 -0.021  0.900
   spin  2
    eigenvalues: 
  0.879  0.884  0.921
    eigenvectors:
  0.000  1.000  0.000
  0.500  0.000  0.500
  0.500  0.000  0.500
    occupations:
  0.884 -0.000 -0.000
 -0.000  0.900 -0.021
 -0.000 -0.021  0.900
atomic mag. moment =     0.000000
atom   46   Tr[ns(na)] (up, down, total) =   2.68350  2.68350  5.36699
   spin  1
    eigenvalues: 
  0.879  0.884  0.921
    eigenvectors:
  0.000  1.000  0.000
  0.500  0.000  0.500
  0.500  0.000  0.500
    occupations:
  0.884 -0.000 -0.000
 -0.000  0.900 -0.021
 -0.000 -0.021  0.900
   spin  2
    eigenvalues: 
  0.879  0.884  0.921
    eigenvectors:
  0.000  1.000  0.000
  0.500  0.000  0.500
  0.500  0.000  0.500
    occupations:
  0.884 -0.000 -0.000
 -0.000  0.900 -0.021
 -0.000 -0.021  0.900
atomic mag. moment =     0.000000
atom   47   Tr[ns(na)] (up, down, total) =   2.68354  2.68354  5.36708
   spin  1
    eigenvalues: 
  0.879  0.884  0.921
    eigenvectors:
  0.000  1.000  0.000
  0.500  0.000  0.500
  0.500  0.000  0.500
    occupations:
  0.884  0.000 -0.000
  0.000  0.900  0.021
 -0.000  0.021  0.900
   spin  2
    eigenvalues: 
  0.879  0.884  0.921
    eigenvectors:
  0.000  1.000  0.000
  0.500  0.000  0.500
  0.500  0.000  0.500
    occupations:
  0.884  0.000 -0.000
  0.000  0.900  0.021
 -0.000  0.021  0.900
atomic mag. moment =     0.000000
atom   48   Tr[ns(na)] (up, down, total) =   2.68354  2.68354  5.36708
   spin  1
    eigenvalues: 
  0.879  0.884  0.921
    eigenvectors:
  0.000  1.000  0.000
  0.500  0.000  0.500
  0.500  0.000  0.500
    occupations:
  0.884 -0.000  0.000
 -0.000  0.900  0.021
  0.000  0.021  0.900
   spin  2
    eigenvalues: 
  0.879  0.884  0.921
    eigenvectors:
  0.000  1.000  0.000
  0.500  0.000  0.500
  0.500  0.000  0.500
    occupations:
  0.884 -0.000  0.000
 -0.000  0.900  0.021
  0.000  0.021  0.900
atomic mag. moment =     0.000000
N of occupied +U levels = 300.4437011
 --- exit write_ns ---
 Atomic wfc used for LDA+U Projector are NOT orthogonalized
     Starting wfc from file

     total cpu time spent up to now is       84.3 secs

     per-process dynamical memory:   105.5 Mb

     Self-consistent Calculation

     iteration #  1     ecut=    40.00 Ry     beta=0.70
     Davidson diagonalization with overlap
     ethr =  4.36E-10,  avg # of iterations =  6.7
 --- enter write_ns ---
 LDA+U parameters:
U( 1)     =  0.00000000
alpha( 1) =  0.00000000
U( 2)     =  0.00000000
alpha( 2) =  0.00000000
U( 3)     =  0.00000000
alpha( 3) =  0.00000000
atom    1   Tr[ns(na)] (up, down, total) =   4.02055  4.02055  8.04110
   spin  1
    eigenvalues: 
  0.618  0.646  0.869  0.910  0.977
    eigenvectors:
  0.000  0.334  0.000  0.000  0.666
  0.500  0.000  0.000  0.500  0.000
  0.500  0.000  0.000  0.500  0.000
  0.000  0.000  1.000  0.000  0.000
  0.000  0.666  0.000  0.000  0.334
    occupations:
  0.867 -0.000 -0.000 -0.000  0.156
 -0.000  0.764  0.146  0.000  0.000
 -0.000  0.146  0.764  0.000  0.000
 -0.000  0.000  0.000  0.869 -0.000
  0.156  0.000  0.000 -0.000  0.757
   spin  2
    eigenvalues: 
  0.618  0.646  0.869  0.910  0.977
    eigenvectors:
  0.000  0.334  0.000  0.000  0.666
  0.500  0.000  0.000  0.500  0.000
  0.500  0.000  0.000  0.500  0.000
  0.000  0.000  1.000  0.000  0.000
  0.000  0.666  0.000  0.000  0.334
    occupations:
  0.867 -0.000 -0.000 -0.000  0.156
 -0.000  0.764  0.146  0.000  0.000
 -0.000  0.146  0.764  0.000  0.000
 -0.000  0.000  0.000  0.869 -0.000
  0.156  0.000  0.000 -0.000  0.757
atomic mag. moment =     0.000000
atom    2   Tr[ns(na)] (up, down, total) =   4.02241  4.02241  8.04482
   spin  1
    eigenvalues: 
  0.618  0.646  0.870  0.911  0.977
    eigenvectors:
  0.000  0.334  0.000  0.000  0.666
  0.500  0.000  0.000  0.500  0.000
  0.500  0.000  0.000  0.500  0.000
  0.000  0.000  1.000  0.000  0.000
  0.000  0.666  0.000  0.000  0.334
    occupations:
  0.867  0.000  0.000 -0.000 -0.156
  0.000  0.765 -0.146 -0.000  0.000
  0.000 -0.146  0.765  0.000  0.000
 -0.000 -0.000  0.000  0.870 -0.000
 -0.156  0.000  0.000 -0.000  0.757
   spin  2
    eigenvalues: 
  0.618  0.646  0.870  0.911  0.977
    eigenvectors:
  0.000  0.334  0.000  0.000  0.666
  0.500  0.000  0.000  0.500  0.000
  0.500  0.000  0.000  0.500  0.000
  0.000  0.000  1.000  0.000  0.000
  0.000  0.666  0.000  0.000  0.334
    occupations:
  0.867  0.000  0.000 -0.000 -0.156
  0.000  0.765 -0.146 -0.000  0.000
  0.000 -0.146  0.765  0.000  0.000
 -0.000 -0.000  0.000  0.870 -0.000
 -0.156  0.000  0.000 -0.000  0.757
atomic mag. moment =     0.000000
atom    3   Tr[ns(na)] (up, down, total) =   4.02107  4.02107  8.04214
   spin  1
    eigenvalues: 
  0.618  0.646  0.869  0.910  0.977
    eigenvectors:
  0.000  0.334  0.000  0.000  0.666
  0.500  0.000  0.000  0.500  0.000
  0.500  0.000  0.000  0.500  0.000
  0.000  0.000  1.000  0.000  0.000
  0.000  0.666  0.000  0.000  0.334
    occupations:
  0.867 -0.000 -0.000 -0.000  0.156
 -0.000  0.764  0.146  0.000  0.000
 -0.000  0.146  0.764  0.000  0.000
 -0.000  0.000  0.000  0.869 -0.000
  0.156  0.000  0.000 -0.000  0.757
   spin  2
    eigenvalues: 
  0.618  0.646  0.869  0.910  0.977
    eigenvectors:
  0.000  0.334  0.000  0.000  0.666
  0.500  0.000  0.000  0.500  0.000
  0.500  0.000  0.000  0.500  0.000
  0.000  0.000  1.000  0.000  0.000
  0.000  0.666  0.000  0.000  0.334
    occupations:
  0.867 -0.000 -0.000 -0.000  0.156
 -0.000  0.764  0.146  0.000  0.000
 -0.000  0.146  0.764  0.000  0.000
 -0.000  0.000  0.000  0.869 -0.000
  0.156  0.000  0.000 -0.000  0.757
atomic mag. moment =     0.000000
atom    4   Tr[ns(na)] (up, down, total) =   4.02241  4.02241  8.04482
   spin  1
    eigenvalues: 
  0.618  0.646  0.870  0.911  0.977
    eigenvectors:
  0.000  0.334  0.000  0.000  0.666
  0.500  0.000  0.000  0.500  0.000
  0.500  0.000  0.000  0.500  0.000
  0.000  0.000  1.000  0.000  0.000
  0.000  0.666  0.000  0.000  0.334
    occupations:
  0.867 -0.000 -0.000 -0.000 -0.156
 -0.000  0.765 -0.146  0.000 -0.000
 -0.000 -0.146  0.765 -0.000 -0.000
 -0.000  0.000 -0.000  0.870 -0.000
 -0.156 -0.000 -0.000 -0.000  0.757
   spin  2
    eigenvalues: 
  0.618  0.646  0.870  0.911  0.977
    eigenvectors:
  0.000  0.334  0.000  0.000  0.666
  0.500  0.000  0.000  0.500  0.000
  0.500  0.000  0.000  0.500  0.000
  0.000  0.000  1.000  0.000  0.000
  0.000  0.666  0.000  0.000  0.334
    occupations:
  0.867 -0.000 -0.000 -0.000 -0.156
 -0.000  0.765 -0.146  0.000 -0.000
 -0.000 -0.146  0.765 -0.000 -0.000
 -0.000  0.000 -0.000  0.870 -0.000
 -0.156 -0.000 -0.000 -0.000  0.757
atomic mag. moment =     0.000000
atom    5   Tr[ns(na)] (up, down, total) =   4.02221  4.02221  8.04443
   spin  1
    eigenvalues: 
  0.618  0.646  0.869  0.911  0.977
    eigenvectors:
  0.000  0.334  0.000  0.000  0.666
  0.500  0.000  0.000  0.500  0.000
  0.500  0.000  0.000  0.500  0.000
  0.000  0.000  1.000  0.000  0.000
  0.000  0.666  0.000  0.000  0.334
    occupations:
  0.867 -0.000 -0.000 -0.000  0.156
 -0.000  0.765  0.146  0.000  0.000
 -0.000  0.146  0.765  0.000  0.000
 -0.000  0.000  0.000  0.869  0.000
  0.156  0.000  0.000  0.000  0.757
   spin  2
    eigenvalues: 
  0.618  0.646  0.869  0.911  0.977
    eigenvectors:
  0.000  0.334  0.000  0.000  0.666
  0.500  0.000  0.000  0.500  0.000
  0.500  0.000  0.000  0.500  0.000
  0.000  0.000  1.000  0.000  0.000
  0.000  0.666  0.000  0.000  0.334
    occupations:
  0.867 -0.000 -0.000 -0.000  0.156
 -0.000  0.765  0.146  0.000  0.000
 -0.000  0.146  0.765  0.000  0.000
 -0.000  0.000  0.000  0.869  0.000
  0.156  0.000  0.000  0.000  0.757
atomic mag. moment =    -0.000000
atom    6   Tr[ns(na)] (up, down, total) =   4.02106  4.02106  8.04212
   spin  1
    eigenvalues: 
  0.618  0.646  0.869  0.910  0.977
    eigenvectors:
  0.000  0.334  0.000  0.000  0.666
  0.500  0.000  0.000  0.500  0.000
  0.500  0.000  0.000  0.500  0.000
  0.000  0.000  1.000  0.000  0.000
  0.000  0.666  0.000  0.000  0.334
    occupations:
  0.867 -0.000  0.000 -0.000 -0.156
 -0.000  0.764 -0.146  0.000 -0.000
  0.000 -0.146  0.764  0.000  0.000
 -0.000  0.000  0.000  0.869 -0.000
 -0.156 -0.000  0.000 -0.000  0.757
   spin  2
    eigenvalues: 
  0.618  0.646  0.869  0.910  0.977
    eigenvectors:
  0.000  0.334  0.000  0.000  0.666
  0.500  0.000  0.000  0.500  0.000
  0.500  0.000  0.000  0.500  0.000
  0.000  0.000  1.000  0.000  0.000
  0.000  0.666  0.000  0.000  0.334
    occupations:
  0.867 -0.000  0.000 -0.000 -0.156
 -0.000  0.764 -0.146  0.000 -0.000
  0.000 -0.146  0.764  0.000  0.000
 -0.000  0.000  0.000  0.869 -0.000
 -0.156 -0.000  0.000 -0.000  0.757
atomic mag. moment =     0.000000
atom    7   Tr[ns(na)] (up, down, total) =   4.02263  4.02263  8.04525
   spin  1
    eigenvalues: 
  0.618  0.647  0.870  0.911  0.977
    eigenvectors:
  0.000  0.334  0.000  0.000  0.666
  0.500  0.000  0.000  0.500  0.000
  0.500  0.000  0.000  0.500  0.000
  0.000  0.000  1.000  0.000  0.000
  0.000  0.666  0.000  0.000  0.334
    occupations:
  0.867 -0.000 -0.000  0.000  0.156
 -0.000  0.765  0.146  0.000  0.000
 -0.000  0.146  0.765  0.000  0.000
  0.000  0.000  0.000  0.870 -0.000
  0.156  0.000  0.000 -0.000  0.757
   spin  2
    eigenvalues: 
  0.618  0.647  0.870  0.911  0.977
    eigenvectors:
  0.000  0.334  0.000  0.000  0.666
  0.500  0.000  0.000  0.500  0.000
  0.500  0.000  0.000  0.500  0.000
  0.000  0.000  1.000  0.000  0.000
  0.000  0.666  0.000  0.000  0.334
    occupations:
  0.867 -0.000 -0.000  0.000  0.156
 -0.000  0.765  0.146  0.000  0.000
 -0.000  0.146  0.765  0.000  0.000
  0.000  0.000  0.000  0.870 -0.000
  0.156  0.000  0.000 -0.000  0.757
atomic mag. moment =    -0.000000
atom    8   Tr[ns(na)] (up, down, total) =   4.02106  4.02106  8.04212
   spin  1
    eigenvalues: 
  0.618  0.646  0.869  0.910  0.977
    eigenvectors:
  0.000  0.334  0.000  0.000  0.666
  0.500  0.000  0.000  0.500  0.000
  0.500  0.000  0.000  0.500  0.000
  0.000  0.000  1.000  0.000  0.000
  0.000  0.666  0.000  0.000  0.334
    occupations:
  0.867  0.000 -0.000 -0.000 -0.156
  0.000  0.764 -0.146 -0.000  0.000
 -0.000 -0.146  0.764 -0.000 -0.000
 -0.000 -0.000 -0.000  0.869 -0.000
 -0.156  0.000 -0.000 -0.000  0.757
   spin  2
    eigenvalues: 
  0.618  0.646  0.869  0.910  0.977
    eigenvectors:
  0.000  0.334  0.000  0.000  0.666
  0.500  0.000  0.000  0.500  0.000
  0.500  0.000  0.000  0.500  0.000
  0.000  0.000  1.000  0.000  0.000
  0.000  0.666  0.000  0.000  0.334
    occupations:
  0.867  0.000 -0.000 -0.000 -0.156
  0.000  0.764 -0.146 -0.000  0.000
 -0.000 -0.146  0.764 -0.000 -0.000
 -0.000 -0.000 -0.000  0.869 -0.000
 -0.156  0.000 -0.000 -0.000  0.757
atomic mag. moment =     0.000000
atom    9   Tr[ns(na)] (up, down, total) =   4.02221  4.02221  8.04443
   spin  1
    eigenvalues: 
  0.618  0.646  0.869  0.911  0.977
    eigenvectors:
  0.000  0.334  0.000  0.000  0.666
  0.500  0.000  0.000  0.500  0.000
  0.500  0.000  0.000  0.500  0.000
  0.000  0.000  1.000  0.000  0.000
  0.000  0.666  0.000  0.000  0.334
    occupations:
  0.867 -0.000 -0.000  0.000  0.156
 -0.000  0.765  0.146  0.000  0.000
 -0.000  0.146  0.765  0.000  0.000
  0.000  0.000  0.000  0.869 -0.000
  0.156  0.000  0.000 -0.000  0.757
   spin  2
    eigenvalues: 
  0.618  0.646  0.869  0.911  0.977
    eigenvectors:
  0.000  0.334  0.000  0.000  0.666
  0.500  0.000  0.000  0.500  0.000
  0.500  0.000  0.000  0.500  0.000
  0.000  0.000  1.000  0.000  0.000
  0.000  0.666  0.000  0.000  0.334
    occupations:
  0.867 -0.000 -0.000  0.000  0.156
 -0.000  0.765  0.146  0.000  0.000
 -0.000  0.146  0.765  0.000  0.000
  0.000  0.000  0.000  0.869 -0.000
  0.156  0.000  0.000 -0.000  0.757
atomic mag. moment =    -0.000000
atom   10   Tr[ns(na)] (up, down, total) =   4.02106  4.02106  8.04212
   spin  1
    eigenvalues: 
  0.618  0.646  0.869  0.910  0.977
    eigenvectors:
  0.000  0.334  0.000  0.000  0.666
  0.500  0.000  0.000  0.500  0.000
  0.500  0.000  0.000  0.500  0.000
  0.000  0.000  1.000  0.000  0.000
  0.000  0.666  0.000  0.000  0.334
    occupations:
  0.867  0.000 -0.000 -0.000 -0.156
  0.000  0.764 -0.146 -0.000  0.000
 -0.000 -0.146  0.764 -0.000 -0.000
 -0.000 -0.000 -0.000  0.869 -0.000
 -0.156  0.000 -0.000 -0.000  0.757
   spin  2
    eigenvalues: 
  0.618  0.646  0.869  0.910  0.977
    eigenvectors:
  0.000  0.334  0.000  0.000  0.666
  0.500  0.000  0.000  0.500  0.000
  0.500  0.000  0.000  0.500  0.000
  0.000  0.000  1.000  0.000  0.000
  0.000  0.666  0.000  0.000  0.334
    occupations:
  0.867  0.000 -0.000 -0.000 -0.156
  0.000  0.764 -0.146 -0.000  0.000
 -0.000 -0.146  0.764 -0.000 -0.000
 -0.000 -0.000 -0.000  0.869 -0.000
 -0.156  0.000 -0.000 -0.000  0.757
atomic mag. moment =     0.000000
atom   11   Tr[ns(na)] (up, down, total) =   4.02263  4.02263  8.04525
   spin  1
    eigenvalues: 
  0.618  0.647  0.870  0.911  0.977
    eigenvectors:
  0.000  0.334  0.000  0.000  0.666
  0.500  0.000  0.000  0.500  0.000
  0.500  0.000  0.000  0.500  0.000
  0.000  0.000  1.000  0.000  0.000
  0.000  0.666  0.000  0.000  0.334
    occupations:
  0.867 -0.000 -0.000 -0.000  0.156
 -0.000  0.765  0.146  0.000  0.000
 -0.000  0.146  0.765  0.000  0.000
 -0.000  0.000  0.000  0.870  0.000
  0.156  0.000  0.000  0.000  0.757
   spin  2
    eigenvalues: 
  0.618  0.647  0.870  0.911  0.977
    eigenvectors:
  0.000  0.334  0.000  0.000  0.666
  0.500  0.000  0.000  0.500  0.000
  0.500  0.000  0.000  0.500  0.000
  0.000  0.000  1.000  0.000  0.000
  0.000  0.666  0.000  0.000  0.334
    occupations:
  0.867 -0.000 -0.000 -0.000  0.156
 -0.000  0.765  0.146  0.000  0.000
 -0.000  0.146  0.765  0.000  0.000
 -0.000  0.000  0.000  0.870  0.000
  0.156  0.000  0.000  0.000  0.757
atomic mag. moment =    -0.000000
atom   12   Tr[ns(na)] (up, down, total) =   4.02106  4.02106  8.04212
   spin  1
    eigenvalues: 
  0.618  0.646  0.869  0.910  0.977
    eigenvectors:
  0.000  0.334  0.000  0.000  0.666
  0.500  0.000  0.000  0.500  0.000
  0.500  0.000  0.000  0.500  0.000
  0.000  0.000  1.000  0.000  0.000
  0.000  0.666  0.000  0.000  0.334
    occupations:
  0.867 -0.000  0.000 -0.000 -0.156
 -0.000  0.764 -0.146  0.000 -0.000
  0.000 -0.146  0.764  0.000  0.000
 -0.000  0.000  0.000  0.869 -0.000
 -0.156 -0.000  0.000 -0.000  0.757
   spin  2
    eigenvalues: 
  0.618  0.646  0.869  0.910  0.977
    eigenvectors:
  0.000  0.334  0.000  0.000  0.666
  0.500  0.000  0.000  0.500  0.000
  0.500  0.000  0.000  0.500  0.000
  0.000  0.000  1.000  0.000  0.000
  0.000  0.666  0.000  0.000  0.334
    occupations:
  0.867 -0.000  0.000 -0.000 -0.156
 -0.000  0.764 -0.146  0.000 -0.000
  0.000 -0.146  0.764  0.000  0.000
 -0.000  0.000  0.000  0.869 -0.000
 -0.156 -0.000  0.000 -0.000  0.757
atomic mag. moment =     0.000000
atom   13   Tr[ns(na)] (up, down, total) =   4.02028  4.02028  8.04056
   spin  1
    eigenvalues: 
  0.618  0.646  0.869  0.910  0.977
    eigenvectors:
  0.000  0.334  0.000  0.000  0.666
  0.500  0.000  0.000  0.500  0.000
  0.500  0.000  0.000  0.500  0.000
  0.000  0.000  1.000  0.000  0.000
  0.000  0.666  0.000  0.000  0.334
    occupations:
  0.867 -0.000 -0.000 -0.000  0.156
 -0.000  0.764  0.146  0.000  0.000
 -0.000  0.146  0.764  0.000  0.000
 -0.000  0.000  0.000  0.869 -0.000
  0.156  0.000  0.000 -0.000  0.757
   spin  2
    eigenvalues: 
  0.618  0.646  0.869  0.910  0.977
    eigenvectors:
  0.000  0.334  0.000  0.000  0.666
  0.500  0.000  0.000  0.500  0.000
  0.500  0.000  0.000  0.500  0.000
  0.000  0.000  1.000  0.000  0.000
  0.000  0.666  0.000  0.000  0.334
    occupations:
  0.867 -0.000 -0.000 -0.000  0.156
 -0.000  0.764  0.146  0.000  0.000
 -0.000  0.146  0.764  0.000  0.000
 -0.000  0.000  0.000  0.869 -0.000
  0.156  0.000  0.000 -0.000  0.757
atomic mag. moment =     0.000000
atom   14   Tr[ns(na)] (up, down, total) =   4.02241  4.02241  8.04482
   spin  1
    eigenvalues: 
  0.618  0.646  0.870  0.911  0.977
    eigenvectors:
  0.000  0.334  0.000  0.000  0.666
  0.500  0.000  0.000  0.500  0.000
  0.500  0.000  0.000  0.500  0.000
  0.000  0.000  1.000  0.000  0.000
  0.000  0.666  0.000  0.000  0.334
    occupations:
  0.867 -0.000 -0.000 -0.000 -0.156
 -0.000  0.765 -0.146  0.000 -0.000
 -0.000 -0.146  0.765 -0.000 -0.000
 -0.000  0.000 -0.000  0.870 -0.000
 -0.156 -0.000 -0.000 -0.000  0.757
   spin  2
    eigenvalues: 
  0.618  0.646  0.870  0.911  0.977
    eigenvectors:
  0.000  0.334  0.000  0.000  0.666
  0.500  0.000  0.000  0.500  0.000
  0.500  0.000  0.000  0.500  0.000
  0.000  0.000  1.000  0.000  0.000
  0.000  0.666  0.000  0.000  0.334
    occupations:
  0.867 -0.000 -0.000 -0.000 -0.156
 -0.000  0.765 -0.146  0.000 -0.000
 -0.000 -0.146  0.765 -0.000 -0.000
 -0.000  0.000 -0.000  0.870 -0.000
 -0.156 -0.000 -0.000 -0.000  0.757
atomic mag. moment =     0.000000
atom   15   Tr[ns(na)] (up, down, total) =   4.02362  4.02362  8.04723
   spin  1
    eigenvalues: 
  0.619  0.647  0.870  0.911  0.977
    eigenvectors:
  0.000  0.334  0.000  0.000  0.666
  0.500  0.000  0.000  0.500  0.000
  0.500  0.000  0.000  0.500  0.000
  0.000  0.000  1.000  0.000  0.000
  0.000  0.666  0.000  0.000  0.334
    occupations:
  0.867 -0.000 -0.000 -0.000  0.156
 -0.000  0.765  0.146  0.000  0.000
 -0.000  0.146  0.765  0.000  0.000
 -0.000  0.000  0.000  0.870 -0.000
  0.156  0.000  0.000 -0.000  0.757
   spin  2
    eigenvalues: 
  0.619  0.647  0.870  0.911  0.977
    eigenvectors:
  0.000  0.334  0.000  0.000  0.666
  0.500  0.000  0.000  0.500  0.000
  0.500  0.000  0.000  0.500  0.000
  0.000  0.000  1.000  0.000  0.000
  0.000  0.666  0.000  0.000  0.334
    occupations:
  0.867 -0.000 -0.000 -0.000  0.156
 -0.000  0.765  0.146  0.000  0.000
 -0.000  0.146  0.765  0.000  0.000
 -0.000  0.000  0.000  0.870 -0.000
  0.156  0.000  0.000 -0.000  0.757
atomic mag. moment =     0.000000
atom   16   Tr[ns(na)] (up, down, total) =   4.02241  4.02241  8.04482
   spin  1
    eigenvalues: 
  0.618  0.646  0.870  0.911  0.977
    eigenvectors:
  0.000  0.334  0.000  0.000  0.666
  0.500  0.000  0.000  0.500  0.000
  0.500  0.000  0.000  0.500  0.000
  0.000  0.000  1.000  0.000  0.000
  0.000  0.666  0.000  0.000  0.334
    occupations:
  0.867  0.000  0.000 -0.000 -0.156
  0.000  0.765 -0.146 -0.000  0.000
  0.000 -0.146  0.765  0.000  0.000
 -0.000 -0.000  0.000  0.870 -0.000
 -0.156  0.000  0.000 -0.000  0.757
   spin  2
    eigenvalues: 
  0.618  0.646  0.870  0.911  0.977
    eigenvectors:
  0.000  0.334  0.000  0.000  0.666
  0.500  0.000  0.000  0.500  0.000
  0.500  0.000  0.000  0.500  0.000
  0.000  0.000  1.000  0.000  0.000
  0.000  0.666  0.000  0.000  0.334
    occupations:
  0.867  0.000  0.000 -0.000 -0.156
  0.000  0.765 -0.146 -0.000  0.000
  0.000 -0.146  0.765  0.000  0.000
 -0.000 -0.000  0.000  0.870 -0.000
 -0.156  0.000  0.000 -0.000  0.757
atomic mag. moment =     0.000000
atom   17   Tr[ns(na)] (up, down, total) =   2.68329  2.68329  5.36659
   spin  1
    eigenvalues: 
  0.879  0.884  0.920
    eigenvectors:
  0.000  1.000  0.000
  0.500  0.000  0.500
  0.500  0.000  0.500
    occupations:
  0.884 -0.000 -0.000
 -0.000  0.900 -0.021
 -0.000 -0.021  0.900
   spin  2
    eigenvalues: 
  0.879  0.884  0.920
    eigenvectors:
  0.000  1.000  0.000
  0.500  0.000  0.500
  0.500  0.000  0.500
    occupations:
  0.884 -0.000 -0.000
 -0.000  0.900 -0.021
 -0.000 -0.021  0.900
atomic mag. moment =     0.000000
atom   18   Tr[ns(na)] (up, down, total) =   2.68329  2.68329  5.36659
   spin  1
    eigenvalues: 
  0.879  0.884  0.920
    eigenvectors:
  0.000  1.000  0.000
  0.500  0.000  0.500
  0.500  0.000  0.500
    occupations:
  0.884 -0.000 -0.000
 -0.000  0.900 -0.021
 -0.000 -0.021  0.900
   spin  2
    eigenvalues: 
  0.879  0.884  0.920
    eigenvectors:
  0.000  1.000  0.000
  0.500  0.000  0.500
  0.500  0.000  0.500
    occupations:
  0.884 -0.000 -0.000
 -0.000  0.900 -0.021
 -0.000 -0.021  0.900
atomic mag. moment =     0.000000
atom   19   Tr[ns(na)] (up, down, total) =   2.68372  2.68372  5.36745
   spin  1
    eigenvalues: 
  0.879  0.884  0.921
    eigenvectors:
  0.000  1.000  0.000
  0.500  0.000  0.500
  0.500  0.000  0.500
    occupations:
  0.884  0.000 -0.000
  0.000  0.900  0.021
 -0.000  0.021  0.900
   spin  2
    eigenvalues: 
  0.879  0.884  0.921
    eigenvectors:
  0.000  1.000  0.000
  0.500  0.000  0.500
  0.500  0.000  0.500
    occupations:
  0.884  0.000 -0.000
  0.000  0.900  0.021
 -0.000  0.021  0.900
atomic mag. moment =    -0.000000
atom   20   Tr[ns(na)] (up, down, total) =   2.68372  2.68372  5.36745
   spin  1
    eigenvalues: 
  0.879  0.884  0.921
    eigenvectors:
  0.000  1.000  0.000
  0.500  0.000  0.500
  0.500  0.000  0.500
    occupations:
  0.884 -0.000  0.000
 -0.000  0.900  0.021
  0.000  0.021  0.900
   spin  2
    eigenvalues: 
  0.879  0.884  0.921
    eigenvectors:
  0.000  1.000  0.000
  0.500  0.000  0.500
  0.500  0.000  0.500
    occupations:
  0.884 -0.000  0.000
 -0.000  0.900  0.021
  0.000  0.021  0.900
atomic mag. moment =    -0.000000
atom   21   Tr[ns(na)] (up, down, total) =   2.68368  2.68368  5.36736
   spin  1
    eigenvalues: 
  0.879  0.884  0.921
    eigenvectors:
  0.000  1.000  0.000
  0.500  0.000  0.500
  0.500  0.000  0.500
    occupations:
  0.884 -0.000 -0.000
 -0.000  0.900 -0.021
 -0.000 -0.021  0.900
   spin  2
    eigenvalues: 
  0.879  0.884  0.921
    eigenvectors:
  0.000  1.000  0.000
  0.500  0.000  0.500
  0.500  0.000  0.500
    occupations:
  0.884 -0.000 -0.000
 -0.000  0.900 -0.021
 -0.000 -0.021  0.900
atomic mag. moment =     0.000000
atom   22   Tr[ns(na)] (up, down, total) =   2.68368  2.68368  5.36736
   spin  1
    eigenvalues: 
  0.879  0.884  0.921
    eigenvectors:
  0.000  1.000  0.000
  0.500  0.000  0.500
  0.500  0.000  0.500
    occupations:
  0.884 -0.000 -0.000
 -0.000  0.900 -0.021
 -0.000 -0.021  0.900
   spin  2
    eigenvalues: 
  0.879  0.884  0.921
    eigenvectors:
  0.000  1.000  0.000
  0.500  0.000  0.500
  0.500  0.000  0.500
    occupations:
  0.884 -0.000 -0.000
 -0.000  0.900 -0.021
 -0.000 -0.021  0.900
atomic mag. moment =     0.000000
atom   23   Tr[ns(na)] (up, down, total) =   2.68372  2.68372  5.36745
   spin  1
    eigenvalues: 
  0.879  0.884  0.921
    eigenvectors:
  0.000  1.000  0.000
  0.500  0.000  0.500
  0.500  0.000  0.500
    occupations:
  0.884 -0.000  0.000
 -0.000  0.900  0.021
  0.000  0.021  0.900
   spin  2
    eigenvalues: 
  0.879  0.884  0.921
    eigenvectors:
  0.000  1.000  0.000
  0.500  0.000  0.500
  0.500  0.000  0.500
    occupations:
  0.884 -0.000  0.000
 -0.000  0.900  0.021
  0.000  0.021  0.900
atomic mag. moment =    -0.000000
atom   24   Tr[ns(na)] (up, down, total) =   2.68372  2.68372  5.36745
   spin  1
    eigenvalues: 
  0.879  0.884  0.921
    eigenvectors:
  0.000  1.000  0.000
  0.500  0.000  0.500
  0.500  0.000  0.500
    occupations:
  0.884  0.000 -0.000
  0.000  0.900  0.021
 -0.000  0.021  0.900
   spin  2
    eigenvalues: 
  0.879  0.884  0.921
    eigenvectors:
  0.000  1.000  0.000
  0.500  0.000  0.500
  0.500  0.000  0.500
    occupations:
  0.884  0.000 -0.000
  0.000  0.900  0.021
 -0.000  0.021  0.900
atomic mag. moment =    -0.000000
atom   25   Tr[ns(na)] (up, down, total) =   2.68334  2.68334  5.36668
   spin  1
    eigenvalues: 
  0.879  0.884  0.920
    eigenvectors:
  0.000  1.000  0.000
  0.500  0.000  0.500
  0.500  0.000  0.500
    occupations:
  0.884 -0.000 -0.000
 -0.000  0.900 -0.021
 -0.000 -0.021  0.900
   spin  2
    eigenvalues: 
  0.879  0.884  0.920
    eigenvectors:
  0.000  1.000  0.000
  0.500  0.000  0.500
  0.500  0.000  0.500
    occupations:
  0.884 -0.000 -0.000
 -0.000  0.900 -0.021
 -0.000 -0.021  0.900
atomic mag. moment =     0.000000
atom   26   Tr[ns(na)] (up, down, total) =   2.68334  2.68334  5.36668
   spin  1
    eigenvalues: 
  0.879  0.884  0.920
    eigenvectors:
  0.000  1.000  0.000
  0.500  0.000  0.500
  0.500  0.000  0.500
    occupations:
  0.884 -0.000 -0.000
 -0.000  0.900 -0.021
 -0.000 -0.021  0.900
   spin  2
    eigenvalues: 
  0.879  0.884  0.920
    eigenvectors:
  0.000  1.000  0.000
  0.500  0.000  0.500
  0.500  0.000  0.500
    occupations:
  0.884 -0.000 -0.000
 -0.000  0.900 -0.021
 -0.000 -0.021  0.900
atomic mag. moment =     0.000000
atom   27   Tr[ns(na)] (up, down, total) =   2.68354  2.68354  5.36708
   spin  1
    eigenvalues: 
  0.879  0.884  0.921
    eigenvectors:
  0.000  1.000  0.000
  0.500  0.000  0.500
  0.500  0.000  0.500
    occupations:
  0.884  0.000 -0.000
  0.000  0.900  0.021
 -0.000  0.021  0.900
   spin  2
    eigenvalues: 
  0.879  0.884  0.921
    eigenvectors:
  0.000  1.000  0.000
  0.500  0.000  0.500
  0.500  0.000  0.500
    occupations:
  0.884  0.000 -0.000
  0.000  0.900  0.021
 -0.000  0.021  0.900
atomic mag. moment =     0.000000
atom   28   Tr[ns(na)] (up, down, total) =   2.68316  2.68316  5.36632
   spin  1
    eigenvalues: 
  0.879  0.884  0.920
    eigenvectors:
  0.000  1.000  0.000
  0.500  0.000  0.500
  0.500  0.000  0.500
    occupations:
  0.884 -0.000  0.000
 -0.000  0.900  0.020
  0.000  0.020  0.900
   spin  2
    eigenvalues: 
  0.879  0.884  0.920
    eigenvectors:
  0.000  1.000  0.000
  0.500  0.000  0.500
  0.500  0.000  0.500
    occupations:
  0.884 -0.000  0.000
 -0.000  0.900  0.020
  0.000  0.020  0.900
atomic mag. moment =     0.000000
atom   29   Tr[ns(na)] (up, down, total) =   2.68348  2.68348  5.36696
   spin  1
    eigenvalues: 
  0.879  0.884  0.920
    eigenvectors:
  0.000  1.000  0.000
  0.500  0.000  0.500
  0.500  0.000  0.500
    occupations:
  0.884 -0.000 -0.000
 -0.000  0.900 -0.021
 -0.000 -0.021  0.900
   spin  2
    eigenvalues: 
  0.879  0.884  0.920
    eigenvectors:
  0.000  1.000  0.000
  0.500  0.000  0.500
  0.500  0.000  0.500
    occupations:
  0.884 -0.000 -0.000
 -0.000  0.900 -0.021
 -0.000 -0.021  0.900
atomic mag. moment =     0.000000
atom   30   Tr[ns(na)] (up, down, total) =   2.68348  2.68348  5.36696
   spin  1
    eigenvalues: 
  0.879  0.884  0.920
    eigenvectors:
  0.000  1.000  0.000
  0.500  0.000  0.500
  0.500  0.000  0.500
    occupations:
  0.884 -0.000 -0.000
 -0.000  0.900 -0.021
 -0.000 -0.021  0.900
   spin  2
    eigenvalues: 
  0.879  0.884  0.920
    eigenvectors:
  0.000  1.000  0.000
  0.500  0.000  0.500
  0.500  0.000  0.500
    occupations:
  0.884 -0.000 -0.000
 -0.000  0.900 -0.021
 -0.000 -0.021  0.900
atomic mag. moment =     0.000000
atom   31   Tr[ns(na)] (up, down, total) =   2.68354  2.68354  5.36708
   spin  1
    eigenvalues: 
  0.879  0.884  0.921
    eigenvectors:
  0.000  1.000  0.000
  0.500  0.000  0.500
  0.500  0.000  0.500
    occupations:
  0.884 -0.000  0.000
 -0.000  0.900  0.021
  0.000  0.021  0.900
   spin  2
    eigenvalues: 
  0.879  0.884  0.921
    eigenvectors:
  0.000  1.000  0.000
  0.500  0.000  0.500
  0.500  0.000  0.500
    occupations:
  0.884 -0.000  0.000
 -0.000  0.900  0.021
  0.000  0.021  0.900
atomic mag. moment =     0.000000
atom   32   Tr[ns(na)] (up, down, total) =   2.68316  2.68316  5.36632
   spin  1
    eigenvalues: 
  0.879  0.884  0.920
    eigenvectors:
  0.000  1.000  0.000
  0.500  0.000  0.500
  0.500  0.000  0.500
    occupations:
  0.884  0.000 -0.000
  0.000  0.900  0.020
 -0.000  0.020  0.900
   spin  2
    eigenvalues: 
  0.879  0.884  0.920
    eigenvectors:
  0.000  1.000  0.000
  0.500  0.000  0.500
  0.500  0.000  0.500
    occupations:
  0.884  0.000 -0.000
  0.000  0.900  0.020
 -0.000  0.020  0.900
atomic mag. moment =     0.000000
atom   33   Tr[ns(na)] (up, down, total) =   2.68334  2.68334  5.36668
   spin  1
    eigenvalues: 
  0.879  0.884  0.920
    eigenvectors:
  0.000  1.000  0.000
  0.500  0.000  0.500
  0.500  0.000  0.500
    occupations:
  0.884 -0.000 -0.000
 -0.000  0.900 -0.021
 -0.000 -0.021  0.900
   spin  2
    eigenvalues: 
  0.879  0.884  0.920
    eigenvectors:
  0.000  1.000  0.000
  0.500  0.000  0.500
  0.500  0.000  0.500
    occupations:
  0.884 -0.000 -0.000
 -0.000  0.900 -0.021
 -0.000 -0.021  0.900
atomic mag. moment =     0.000000
atom   34   Tr[ns(na)] (up, down, total) =   2.68334  2.68334  5.36668
   spin  1
    eigenvalues: 
  0.879  0.884  0.920
    eigenvectors:
  0.000  1.000  0.000
  0.500  0.000  0.500
  0.500  0.000  0.500
    occupations:
  0.884 -0.000 -0.000
 -0.000  0.900 -0.021
 -0.000 -0.021  0.900
   spin  2
    eigenvalues: 
  0.879  0.884  0.920
    eigenvectors:
  0.000  1.000  0.000
  0.500  0.000  0.500
  0.500  0.000  0.500
    occupations:
  0.884 -0.000 -0.000
 -0.000  0.900 -0.021
 -0.000 -0.021  0.900
atomic mag. moment =     0.000000
atom   35   Tr[ns(na)] (up, down, total) =   2.68316  2.68316  5.36632
   spin  1
    eigenvalues: 
  0.879  0.884  0.920
    eigenvectors:
  0.000  1.000  0.000
  0.500  0.000  0.500
  0.500  0.000  0.500
    occupations:
  0.884  0.000 -0.000
  0.000  0.900  0.020
 -0.000  0.020  0.900
   spin  2
    eigenvalues: 
  0.879  0.884  0.920
    eigenvectors:
  0.000  1.000  0.000
  0.500  0.000  0.500
  0.500  0.000  0.500
    occupations:
  0.884  0.000 -0.000
  0.000  0.900  0.020
 -0.000  0.020  0.900
atomic mag. moment =     0.000000
atom   36   Tr[ns(na)] (up, down, total) =   2.68354  2.68354  5.36708
   spin  1
    eigenvalues: 
  0.879  0.884  0.921
    eigenvectors:
  0.000  1.000  0.000
  0.500  0.000  0.500
  0.500  0.000  0.500
    occupations:
  0.884 -0.000  0.000
 -0.000  0.900  0.021
  0.000  0.021  0.900
   spin  2
    eigenvalues: 
  0.879  0.884  0.921
    eigenvectors:
  0.000  1.000  0.000
  0.500  0.000  0.500
  0.500  0.000  0.500
    occupations:
  0.884 -0.000  0.000
 -0.000  0.900  0.021
  0.000  0.021  0.900
atomic mag. moment =     0.000000
atom   37   Tr[ns(na)] (up, down, total) =   2.68348  2.68348  5.36696
   spin  1
    eigenvalues: 
  0.879  0.884  0.920
    eigenvectors:
  0.000  1.000  0.000
  0.500  0.000  0.500
  0.500  0.000  0.500
    occupations:
  0.884 -0.000 -0.000
 -0.000  0.900 -0.021
 -0.000 -0.021  0.900
   spin  2
    eigenvalues: 
  0.879  0.884  0.920
    eigenvectors:
  0.000  1.000  0.000
  0.500  0.000  0.500
  0.500  0.000  0.500
    occupations:
  0.884 -0.000 -0.000
 -0.000  0.900 -0.021
 -0.000 -0.021  0.900
atomic mag. moment =     0.000000
atom   38   Tr[ns(na)] (up, down, total) =   2.68348  2.68348  5.36696
   spin  1
    eigenvalues: 
  0.879  0.884  0.920
    eigenvectors:
  0.000  1.000  0.000
  0.500  0.000  0.500
  0.500  0.000  0.500
    occupations:
  0.884 -0.000 -0.000
 -0.000  0.900 -0.021
 -0.000 -0.021  0.900
   spin  2
    eigenvalues: 
  0.879  0.884  0.920
    eigenvectors:
  0.000  1.000  0.000
  0.500  0.000  0.500
  0.500  0.000  0.500
    occupations:
  0.884 -0.000 -0.000
 -0.000  0.900 -0.021
 -0.000 -0.021  0.900
atomic mag. moment =     0.000000
atom   39   Tr[ns(na)] (up, down, total) =   2.68316  2.68316  5.36632
   spin  1
    eigenvalues: 
  0.879  0.884  0.920
    eigenvectors:
  0.000  1.000  0.000
  0.500  0.000  0.500
  0.500  0.000  0.500
    occupations:
  0.884 -0.000  0.000
 -0.000  0.900  0.020
  0.000  0.020  0.900
   spin  2
    eigenvalues: 
  0.879  0.884  0.920
    eigenvectors:
  0.000  1.000  0.000
  0.500  0.000  0.500
  0.500  0.000  0.500
    occupations:
  0.884 -0.000  0.000
 -0.000  0.900  0.020
  0.000  0.020  0.900
atomic mag. moment =     0.000000
atom   40   Tr[ns(na)] (up, down, total) =   2.68354  2.68354  5.36708
   spin  1
    eigenvalues: 
  0.879  0.884  0.921
    eigenvectors:
  0.000  1.000  0.000
  0.500  0.000  0.500
  0.500  0.000  0.500
    occupations:
  0.884  0.000 -0.000
  0.000  0.900  0.021
 -0.000  0.021  0.900
   spin  2
    eigenvalues: 
  0.879  0.884  0.921
    eigenvectors:
  0.000  1.000  0.000
  0.500  0.000  0.500
  0.500  0.000  0.500
    occupations:
  0.884  0.000 -0.000
  0.000  0.900  0.021
 -0.000  0.021  0.900
atomic mag. moment =     0.000000
atom   41   Tr[ns(na)] (up, down, total) =   2.68329  2.68329  5.36658
   spin  1
    eigenvalues: 
  0.879  0.884  0.920
    eigenvectors:
  0.000  1.000  0.000
  0.500  0.000  0.500
  0.500  0.000  0.500
    occupations:
  0.884 -0.000 -0.000
 -0.000  0.900 -0.021
 -0.000 -0.021  0.900
   spin  2
    eigenvalues: 
  0.879  0.884  0.920
    eigenvectors:
  0.000  1.000  0.000
  0.500  0.000  0.500
  0.500  0.000  0.500
    occupations:
  0.884 -0.000 -0.000
 -0.000  0.900 -0.021
 -0.000 -0.021  0.900
atomic mag. moment =     0.000000
atom   42   Tr[ns(na)] (up, down, total) =   2.68329  2.68329  5.36658
   spin  1
    eigenvalues: 
  0.879  0.884  0.920
    eigenvectors:
  0.000  1.000  0.000
  0.500  0.000  0.500
  0.500  0.000  0.500
    occupations:
  0.884 -0.000 -0.000
 -0.000  0.900 -0.021
 -0.000 -0.021  0.900
   spin  2
    eigenvalues: 
  0.879  0.884  0.920
    eigenvectors:
  0.000  1.000  0.000
  0.500  0.000  0.500
  0.500  0.000  0.500
    occupations:
  0.884 -0.000 -0.000
 -0.000  0.900 -0.021
 -0.000 -0.021  0.900
atomic mag. moment =     0.000000
atom   43   Tr[ns(na)] (up, down, total) =   2.68372  2.68372  5.36745
   spin  1
    eigenvalues: 
  0.879  0.884  0.921
    eigenvectors:
  0.000  1.000  0.000
  0.500  0.000  0.500
  0.500  0.000  0.500
    occupations:
  0.884  0.000 -0.000
  0.000  0.900  0.021
 -0.000  0.021  0.900
   spin  2
    eigenvalues: 
  0.879  0.884  0.921
    eigenvectors:
  0.000  1.000  0.000
  0.500  0.000  0.500
  0.500  0.000  0.500
    occupations:
  0.884  0.000 -0.000
  0.000  0.900  0.021
 -0.000  0.021  0.900
atomic mag. moment =    -0.000000
atom   44   Tr[ns(na)] (up, down, total) =   2.68372  2.68372  5.36745
   spin  1
    eigenvalues: 
  0.879  0.884  0.921
    eigenvectors:
  0.000  1.000  0.000
  0.500  0.000  0.500
  0.500  0.000  0.500
    occupations:
  0.884 -0.000  0.000
 -0.000  0.900  0.021
  0.000  0.021  0.900
   spin  2
    eigenvalues: 
  0.879  0.884  0.921
    eigenvectors:
  0.000  1.000  0.000
  0.500  0.000  0.500
  0.500  0.000  0.500
    occupations:
  0.884 -0.000  0.000
 -0.000  0.900  0.021
  0.000  0.021  0.900
atomic mag. moment =    -0.000000
atom   45   Tr[ns(na)] (up, down, total) =   2.68417  2.68417  5.36833
   spin  1
    eigenvalues: 
  0.879  0.884  0.921
    eigenvectors:
[...]
     4.0896   4.1134   4.5936   4.5943   4.5943   4.6147   5.1769   5.1771
     5.3003   5.3582   5.3584   5.3956   5.3995   5.3996   5.6249   5.6758
     5.6778   5.7348   5.7450   5.7624   5.7754   5.7755   5.8082   5.8501
     5.8502   5.8547   5.8550   5.8719   5.9856   5.9857   6.0033   6.1579
     6.2112   6.3086   6.5258   6.9322   6.9322   7.0236   7.0237   7.0773
     7.0774   7.0951   7.5495   7.7425   7.7628   7.7629   7.9350   7.9352
     7.9428   7.9694   7.9695   7.9760   7.9946   8.0162   8.0380   8.0719
     8.2944   8.2944   8.4207   8.4208   8.4378   8.4411   8.5232   8.5720
     8.5722   8.6707   8.6707   8.7438   8.7634   8.8649   8.9620   8.9620
     9.1630   9.1630   9.2285   9.2347   9.2825   9.3389   9.4055   9.4334
     9.6005   9.6006   9.6591   9.6674   9.9899  10.0846  10.0849  10.0962
    10.1111  10.1112  10.2905  10.3040  10.4669  10.6681  10.6682  11.1807
    11.1939  11.1994  11.2323  11.2415  11.2417  11.2570  11.5677  11.7269
    11.7269  11.7296  11.7312  11.7315  11.7519  11.7616  11.7847  11.7849
    11.7893  11.8068  11.8070  11.8074  11.8176  11.8201  11.8599  11.8600
    11.8661  11.9303  12.0541  12.0543  12.2759  12.2761  12.2852  12.4122
    12.7677  12.8729  12.8731  13.1294  13.4899  13.6253  13.7870  13.8197
    13.8198  13.8555  13.8615  13.8617  14.1471  14.1579  14.1581  14.5435
    14.6319  14.6321  14.6636  14.9594  15.0308  15.0507  15.0509  15.7815
    15.8046  15.8367  15.9810  15.9812  16.3466  16.6164  16.6412  17.1852
    17.1855  17.2264  17.4406  17.4598  17.4655  17.4656  17.4660  17.4662
    17.4667  17.6881  17.6883  17.7139  17.7240  17.9183  17.9183  18.2283
    18.8040  19.8850  19.8851  21.1810  21.5211  21.5211  22.0585  22.2249
    22.3024  22.4359  22.7825  22.8187  22.8187  22.8598  22.8976  22.8976
    22.9053  22.9912  22.9912  23.0875  23.1538  23.1539  23.1541  23.1549
    23.1549  23.1550  23.1551  23.1552  23.1554  23.1556  23.1557  23.1557
    23.1558  23.1559  23.1561  23.1624  23.3549  23.4269  23.6289  24.0180
    24.0181  24.0789  24.0790  24.0818  24.0818  24.8787  24.9129  24.9691
    25.2023  25.3498  25.6500  25.6500  25.6510  25.9412  26.0545  26.0546
    26.1404  26.1836  26.4687  26.5092  26.5374  26.5375  26.7025  26.8492
    26.8492  27.2421  27.4343  27.4344  27.5965  27.5965  27.6784  27.8405
    27.8710  28.1396  28.3695  28.3715  28.3715  28.9143  28.9590  28.9590
    29.0903  29.1858  29.1859  29.2718  29.3411  29.3412  29.8390  29.8414
    30.2083  30.2514  30.3422  30.3422  30.4500  30.4500  30.8287  30.9196
    30.9197  30.9702  31.0041  31.3600  31.3601  31.3975  31.5922  31.5922
    31.6078  31.6078  31.6901  31.7287  31.8865  31.9288  32.4201  32.4971
    32.4971  32.5208  33.0011  33.4034  33.4563  33.4564  33.5117  33.8266
    33.8266  33.8736  33.8736  33.9689  34.0572  34.1387  34.4802  34.4860
    34.4860  34.4862  34.4981  34.8251  34.8291  34.9834  35.1578  35.2138
    35.2138  35.5200  35.5510  35.5838  35.5839  35.9298  35.9433  35.9832
    35.9833  36.2393  36.4005  36.4006  36.8959  36.9214  36.9551  36.9946
    36.9946  37.1906  37.7491  37.7491  37.8577  37.9765  38.0185  38.0186
    38.3498  38.3631  38.4236  38.5702  38.5703  39.0266  39.0266  39.4003
    39.4003  39.4071  39.4071  39.4191  39.4191  39.4598  39.4985  39.8112
    39.9006  40.0104  40.0446  40.0447  40.0905  40.2458  40.3489  40.3870
    40.3870  40.3926  40.3991  40.4383  40.7339  40.7339  40.7475  40.7597
    40.9335  40.9335  40.9663  41.0313  41.1421  41.3687  41.4574  41.4574
    41.5214  41.5435  41.7181  41.7181  41.7739  41.9293  42.0288  42.3247
    42.3247  42.3414  42.4455  42.4455  42.4731  42.5409  42.6417  42.6418
    42.8081  42.8801  42.8801  43.1398  43.4578  43.5466  43.7096  43.7096
    43.9065  43.9065  43.9181  44.3667  44.4811  44.5012  44.5704  44.5705
    44.6129  44.7626  44.8047  44.8047  44.8178  44.8939  44.9837  45.0497
    45.1713  45.2125  45.2126  45.2322  45.2322  45.3773  45.3773  45.4121
    45.4294  45.6053  45.7686  45.7686  45.8032  45.8443  46.1399  46.1483
    46.1484  46.2226  46.2421  46.4901  46.6060  46.6060  46.7068  46.7274
    46.7276  46.9226  47.2058  47.2364  47.3809  47.4233  47.4233  47.5088
    47.5088  47.5523  47.6072  47.6073  47.6260  47.6262  47.6426  47.7074
    47.7951  47.7952  47.9899  48.0510  48.0512  48.1638  48.1897  48.1897
    48.2804  48.2804  48.4362  48.4363  48.4632  48.6065  48.6233  48.6233
    48.7296  48.7965  48.8299  48.9326  48.9326  49.0874  49.1452  49.2194
    49.2287  49.2406  49.3183  49.3756  49.3756  49.4734  49.4735  49.5750
    49.7352  49.7353  49.9883  49.9883  50.1092  50.1387  50.1387  50.2784
    50.3043  50.5589  50.6623  50.6713  50.7081  50.7277  50.7471  50.9528
    50.9529  51.0623  51.0624  51.0960  51.3407  51.3504  51.3760  51.6447
    51.7634  51.8107  51.8107  51.8806  51.8876  51.8876  51.8984  51.9471
    51.9471  52.0102  52.3124  52.3125  52.3480  52.4233  52.6794  52.8490
    52.8827  52.8827  52.9598  52.9598  52.9893  53.1575  53.2646  53.4764
    53.5174  53.6599  53.6600  53.7265  53.7265  53.7632  53.7632  54.0091

          k =-0.2500 0.2500-0.3569 ( 15105 PWs)   bands (ev):

   -36.7960 -36.7959 -36.7923 -36.7921 -36.7919 -36.7918 -36.7894 -36.7887
   -36.7887 -36.7885 -36.7882 -36.7881 -36.7881 -36.7877 -36.7835 -36.7829
   -36.7821 -36.7818 -36.7733 -36.7730 -36.7729 -36.7725 -36.7690 -36.7689
   -36.7149 -36.7115 -36.7112 -36.7101 -36.7081 -36.7067 -36.7063 -36.7034
   -36.5422 -36.5420 -36.5418 -36.5415 -36.5411 -36.5411 -36.5407 -36.5405
   -36.5316 -36.5313 -36.5313 -36.5313 -36.5311 -36.5310 -36.5309 -36.5309
    -7.1775  -6.8099  -6.8099  -6.7227  -6.5218  -6.3710  -6.3113  -6.3111
    -6.2149  -6.2148  -6.1787  -6.1132  -6.0276  -6.0250  -6.0248  -5.9312
    -5.7645  -5.7572  -5.7276  -5.7276  -5.7208  -5.7206  -5.6916  -5.6894
    -5.6654  -5.6651  -5.5396  -5.4814  -5.4813  -5.4639  -5.4068  -5.3170
     4.2745   4.2848   4.7496   4.7508   4.7509   4.7653   5.2716   5.3023
     5.3924   5.4284   5.4285   5.5126   5.5127   5.5523   5.5754   5.5756
     5.6937   5.7709   5.7901   5.7903   5.7980   5.8251   5.8252   5.8415
     5.8586   5.8586   5.8832   5.9236   5.9302   5.9693   5.9693   6.3408
     6.3612   6.5066   6.7038   6.7039   6.7107   6.9264   7.0542   7.0542
     7.0724   7.2031   7.2033   7.3581   7.3583   7.6350   7.6589   7.6590
     7.7409   7.7630   7.9685   7.9686   8.0230   8.0230   8.0411   8.1767
     8.2404   8.2683   8.2964   8.3669   8.3669   8.3964   8.4042   8.4043
     8.4938   8.6275   8.6310   8.6311   8.6538   8.8291   8.8606   8.9244
     8.9244   8.9629   8.9630   8.9673   9.1464   9.2997   9.4524   9.4579
     9.4624   9.4716   9.4717   9.7463   9.7576   9.7640   9.8460   9.9885
    10.1007  10.1008  10.3338  10.4255  10.4257  10.5415  10.5415  10.9767
    11.1054  11.1056  11.3544  11.4469  11.5341  11.7418  11.7450  11.7670
    11.7796  11.7797  11.8342  11.8491  11.8864  11.8864  11.9158  11.9735
    11.9854  11.9856  12.0103  12.0551  12.1174  12.1175  12.1396  12.1647
    12.1649  12.2067  12.2068  12.2265  12.3241  12.6195  12.6196  12.6729
    12.9153  12.9154  12.9339  13.1616  13.3548  13.3690  13.6280  13.6593
    13.6594  13.6846  13.7489  13.7491  13.9717  13.9718  13.9771  14.3968
    14.8265  14.8267  14.9735  15.2176  15.2769  15.2970  15.2972  16.0000
    16.0086  16.0306  16.0732  16.0733  16.2431  16.5662  16.5664  16.5843
    16.6401  16.9217  17.0634  17.0635  17.1704  17.2893  17.2894  17.3202
    17.3219  17.3578  17.3627  17.7623  17.7624  17.8668  17.8669  18.4334
    18.8836  20.2926  20.2926  21.4247  21.4382  21.9098  21.9099  22.0593
    22.0593  22.4322  22.6055  22.6086  22.6138  22.7661  23.1528  23.1532
    23.1532  23.1537  23.1543  23.1544  23.1545  23.1547  23.1549  23.1550
    23.1550  23.1552  23.1552  23.1553  23.1554  23.1560  23.2460  23.2460
    23.2816  23.2816  23.3314  23.4540  23.5705  23.6958  23.9826  24.0759
    24.0760  24.2674  24.2675  24.5059  24.5060  24.6357  24.8623  24.9354
    24.9642  25.4248  25.4248  25.4506  25.5717  26.1594  26.2001  26.2001
    26.2054  26.5062  26.5063  26.5987  26.6114  26.7068  26.7183  26.8006
    26.8006  27.3320  27.5823  27.6006  27.6762  27.6762  27.6799  27.6800
    27.9020  28.0475  28.1920  28.3025  28.3025  28.4282  28.4988  28.4989
    28.6164  28.6164  28.8022  29.3409  29.4972  29.4972  29.5308  29.5787
    29.6463  29.8109  29.8110  29.8351  29.8689  29.8893  29.9054  29.9054
    30.2626  30.2626  30.3674  30.6024  31.1466  31.2355  31.2355  31.7662
    31.7663  31.9126  31.9697  32.5007  32.5007  32.6527  32.7225  32.8985
    33.1133  33.1133  33.1821  33.1822  33.5693  33.5693  33.6790  33.9939
    34.1341  34.1342  34.1731  34.2074  34.2446  34.2971  34.6265  34.7826
    34.7826  34.8061  35.0145  35.0540  35.0683  35.1547  35.4025  35.4337
    35.4337  35.6030  35.8937  35.9056  35.9260  35.9261  35.9357  35.9985
    35.9985  36.5058  36.5058  36.8287  36.8456  37.0399  37.1871  37.2045
    37.2932  37.4296  37.4297  37.4531  37.4531  37.7699  37.7699  37.7816
    37.9132  38.0195  38.0196  38.8138  38.8138  38.8764  38.8765  38.9184
    38.9593  39.0885  39.3102  39.3102  39.3650  39.3650  39.4391  39.4483
    39.5254  39.8545  39.8603  39.9051  40.0064  40.0471  40.0471  40.0751
    40.2343  40.2343  40.2647  40.2748  40.4369  40.4806  40.5470  40.5470
    40.6192  40.8215  40.8215  40.8666  40.8789  40.9668  41.0536  41.0536
    41.2738  41.3429  41.4972  41.6155  41.7400  41.7400  41.9851  42.0542
    42.1219  42.2316  42.2395  42.2395  42.4514  42.4514  42.8855  42.8855
    43.0904  43.0921  43.1247  43.2436  43.2437  43.6200  43.6201  43.7009
    44.2306  44.3111  44.3112  44.3950  44.3950  44.5288  44.5657  44.6005
    44.8364  44.9735  44.9900  44.9900  44.9953  44.9954  45.0230  45.0985
    45.2300  45.4766  45.5114  45.5612  45.5613  45.5742  45.6968  45.7584
    45.7814  45.8178  45.8178  46.0359  46.1584  46.1585  46.2131  46.2131
    46.2329  46.3604  46.5509  46.5798  46.5799  46.6873  46.7000  46.9021
    46.9021  47.0072  47.0242  47.0709  47.1549  47.1549  47.3177  47.4154
    47.4154  47.4461  47.4932  47.5752  47.5752  47.6778  47.6778  47.6852
    47.7357  47.8135  47.9068  47.9810  47.9811  48.1490  48.1491  48.3340
    48.5762  48.5762  48.6265  48.7378  48.7874  48.7875  48.8042  48.8845
    48.9574  48.9574  49.0105  49.0436  49.0553  49.0554  49.1289  49.4289
    49.5467  49.5467  49.6380  49.7396  49.7397  49.8364  49.8364  50.0006
    50.0022  50.0172  50.0227  50.0228  50.0582  50.3951  50.4085  50.4614
    50.5202  50.5203  50.7278  50.7549  50.7823  50.7823  50.8551  50.9370
    50.9591  51.0214  51.0833  51.2649  51.2649  51.2842  51.2842  51.4147
    51.5431  51.7171  51.7930  51.8397  51.8398  51.9959  51.9959  51.9965
    52.2990  52.3447  52.3833  52.4099  52.5831  52.5831  52.6600  52.6600
    52.7689  52.7917  52.8548  52.8548  52.8738  52.9828  53.2909  53.2909
    53.3304  53.3520  53.4621  53.4622  53.6736  53.7679  53.7679  53.9297

          k =-0.2500 0.2500 0.7138 ( 15148 PWs)   bands (ev):

   -36.7885 -36.7876 -36.7876 -36.7875 -36.7871 -36.7871 -36.7870 -36.7870
   -36.7868 -36.7868 -36.7868 -36.7867 -36.7867 -36.7862 -36.7858 -36.7857
   -36.7495 -36.7493 -36.7462 -36.7460 -36.7460 -36.7456 -36.7455 -36.7455
   -36.7441 -36.7438 -36.7423 -36.7420 -36.7419 -36.7418 -36.7408 -36.7406
   -36.5373 -36.5368 -36.5368 -36.5367 -36.5365 -36.5365 -36.5362 -36.5361
   -36.5361 -36.5361 -36.5360 -36.5360 -36.5360 -36.5360 -36.5357 -36.5357
    -6.8087  -6.8087  -6.4988  -6.4988  -6.4988  -6.4988  -6.4183  -6.4183
    -6.2480  -6.2480  -6.0492  -6.0492  -6.0491  -6.0491  -5.9863  -5.9862
    -5.8175  -5.8174  -5.8173  -5.8173  -5.6937  -5.6937  -5.6364  -5.6364
    -5.6363  -5.6363  -5.6275  -5.6275  -5.5893  -5.5893  -5.5086  -5.5086
     4.7417   4.7418   4.7664   4.7665   5.1175   5.1176   5.1301   5.1301
     5.1302   5.1302   5.1392   5.1392   5.7793   5.7794   5.7829   5.7829
     5.7830   5.7831   5.8982   5.8982   6.0044   6.0045   6.0045   6.0046
     6.0199   6.0199   6.1806   6.1807   6.1809   6.1809   6.2815   6.2815
     6.3751   6.3752   6.3753   6.3753   6.7481   6.7481   6.8857   6.8858
     7.0129   7.0129   7.0130   7.0130   7.0568   7.0568   7.5415   7.5415
     7.6437   7.6437   7.6913   7.6914   7.6914   7.6914   8.0353   8.0353
     8.0354   8.0355   8.1518   8.1518   8.5760   8.5760   8.5760   8.5760
     8.6274   8.6274   8.6726   8.6726   8.8346   8.8347   8.8649   8.8649
     8.9233   8.9233   8.9233   8.9234   9.1394   9.1394   9.2894   9.2894
     9.3372   9.3372   9.3596   9.3596   9.7038   9.7038   9.7039   9.7039
     9.9011   9.9011  10.3515  10.3515  10.3516  10.3516  10.6295  10.6296
    11.3401  11.3401  11.5681  11.5682  11.5682  11.5683  11.7893  11.7893
    11.8092  11.8093  12.0661  12.0662  12.1975  12.1976  12.1977  12.1977
    12.2375  12.2377  12.2944  12.2946  12.3175  12.3178  12.3178  12.3179
    12.4606  12.4606  12.6496  12.6496  12.6497  12.6498  12.7199  12.7199
    13.0660  13.0661  13.1647  13.1648  13.3013  13.3013  13.3013  13.3013
    13.3739  13.3740  13.6388  13.6390  13.6390  13.6390  14.0370  14.0371
    15.5011  15.5011  15.5011  15.5013  15.5674  15.5675  15.9022  15.9024
    15.9025  15.9025  15.9219  15.9220  16.1056  16.1057  16.4658  16.4659
    16.5727  16.5727  16.5817  16.5817  16.8985  16.8985  16.8987  16.8987
    17.1848  17.1848  17.7978  17.7979  17.7979  17.7979  17.8802  17.8803
    20.0020  20.0020  21.1229  21.1229  21.1230  21.1230  21.9026  21.9027
    22.6466  22.6467  22.6467  22.6467  23.0156  23.0157  23.0980  23.0981
    23.1539  23.1546  23.1548  23.1550  23.1550  23.1550  23.1551  23.1551
    23.1552  23.1552  23.1552  23.1553  23.1553  23.1554  23.1584  23.1585
    23.7434  23.7435  23.8722  23.8722  23.8825  23.8825  24.1254  24.1255
    24.1255  24.1255  24.5287  24.5288  24.5288  24.5288  24.7054  24.7055
    25.4703  25.4703  25.8071  25.8071  25.8071  25.8072  26.0619  26.0620
    26.1382  26.1382  26.6048  26.6048  26.6049  26.6049  26.8573  26.8573
    27.4344  27.4345  27.5913  27.5914  27.8060  27.8060  27.8060  27.8060
    28.0778  28.0778  28.1659  28.1660  28.1660  28.1660  28.2832  28.2832
    28.5176  28.5176  28.6374  28.6374  28.6496  28.6496  28.6497  28.6497
    28.9679  28.9679  29.5734  29.5735  29.5735  29.5735  29.7020  29.7021
    29.9194  29.9195  30.7072  30.7072  30.7072  30.7072  32.0109  32.0109
    32.0294  32.0295  32.0295  32.0295  32.6929  32.6929  33.1267  33.1267
    33.1268  33.1268  33.3667  33.3667  33.4476  33.4477  33.5153  33.5153
    34.4386  34.4386  34.4386  34.4387  34.6324  34.6324  35.0800  35.0801
    35.3163  35.3164  35.6606  35.6606  35.6606  35.6606  35.7250  35.7251
    35.7558  35.7558  35.9444  35.9445  35.9445  35.9445  36.0416  36.0417
    36.3851  36.3851  36.9016  36.9016  36.9016  36.9016  37.0122  37.0122
    37.0123  37.0123  37.0981  37.0981  37.6382  37.6382  38.4948  38.4948
    38.4948  38.4948  38.5740  38.5740  38.6795  38.6796  38.7454  38.7454
    38.7454  38.7454  38.8896  38.8896  39.0008  39.0008  39.0186  39.0186
    39.2391  39.2391  39.2979  39.2980  39.4061  39.4061  39.7154  39.7154
    39.7154  39.7154  39.8670  39.8670  39.9612  39.9612  39.9612  39.9612
    40.3515  40.3515  40.7344  40.7344  40.7344  40.7345  41.2129  41.2129
    41.5780  41.5780  41.9068  41.9068  42.0035  42.0035  42.3932  42.3932
    42.4118  42.4118  42.4118  42.4119  42.5698  42.5699  43.2642  43.2642
    43.2642  43.2642  43.3596  43.3597  43.3597  43.3597  43.5438  43.5438
    44.1802  44.1802  44.2814  44.2814  44.2814  44.2815  44.3761  44.3761
    44.8331  44.8331  44.8332  44.8332  44.9766  44.9767  45.3705  45.3705
    45.4975  45.4975  45.5534  45.5535  45.7543  45.7544  45.7544  45.7544
    45.8230  45.8230  45.9244  45.9244  46.0806  46.0806  46.0806  46.0806
    46.5112  46.5112  46.5926  46.5926  46.5926  46.5926  46.6713  46.6713
    46.8379  46.8379  47.1304  47.1304  47.1626  47.1626  47.1626  47.1627
    47.3750  47.3751  47.6745  47.6745  47.7992  47.7992  47.7992  47.7993
    48.1585  48.1585  48.3538  48.3539  48.4953  48.4953  48.4953  48.4953
    48.6339  48.6340  48.8331  48.8332  48.9988  48.9989  48.9989  48.9989
    49.2890  49.2891  49.3310  49.3310  49.3311  49.3311  49.6094  49.6094
    49.7453  49.7453  49.8034  49.8034  49.8034  49.8034  49.8523  49.8523
    50.0252  50.0252  50.3342  50.3343  50.3343  50.3343  50.5269  50.5269
    50.6051  50.6051  51.0016  51.0016  51.0016  51.0016  51.0842  51.0842
    51.1472  51.1472  51.1473  51.1473  51.2986  51.2986  51.4715  51.4715
    51.5153  51.5153  51.7261  51.7262  51.7262  51.7262  52.1891  52.1891
    52.1891  52.1891  52.2493  52.2493  52.5487  52.5488  52.6631  52.6632
    52.7670  52.7670  52.8559  52.8559  52.8559  52.8559  53.2102  53.2102
    53.4824  53.4824  53.7332  53.7332  53.7333  53.7333  53.8133  53.8133

     the Fermi energy is    13.5791 ev

!    total energy              =   -4010.21395953 Ry
     Harris-Foulkes estimate   =   -4010.21396007 Ry
     estimated scf accuracy    <       0.00000058 Ry

     The total energy is the sum of the following terms:

     one-electron contribution =    -827.27918716 Ry
     hartree contribution      =     708.73700501 Ry
     xc contribution           =   -1105.23012316 Ry
     ewald contribution        =   -2786.44204143 Ry
     Hubbard energy            =       0.00000000 Ry
     smearing contrib. (-TS)   =       0.00038721 Ry

     total magnetization       =     0.00 Bohr mag/cell
     absolute magnetization    =     0.00 Bohr mag/cell

     convergence has been achieved in   5 iterations

     Writing output data file pwscf.save

     init_run     :     55.31s CPU     83.56s WALL (       1 calls)
     electrons    :  10869.44s CPU  12534.30s WALL (       1 calls)

     Called by init_run:
     wfcinit      :     39.73s CPU     64.98s WALL (       1 calls)
     potinit      :      1.37s CPU      2.63s WALL (       1 calls)

     Called by electrons:
     c_bands      :  10306.55s CPU  11665.12s WALL (       5 calls)
     sum_band     :    491.86s CPU    789.34s WALL (       5 calls)
     v_of_rho     :      3.74s CPU      5.93s WALL (       6 calls)
     newd         :     77.28s CPU     82.04s WALL (       6 calls)
     mix_rho      :      0.46s CPU      0.83s WALL (       5 calls)

     Called by c_bands:
     init_us_2    :      3.01s CPU      3.17s WALL (     462 calls)
     cegterg      :  10293.35s CPU  11578.88s WALL (     210 calls)

     Called by *egterg:
     h_psi        :   1984.28s CPU   2931.81s WALL (     719 calls)
     s_psi        :    193.18s CPU    193.68s WALL (     761 calls)
     g_psi        :      2.25s CPU      2.27s WALL (     509 calls)
     cdiaghg      :   7006.50s CPU   7077.29s WALL (     677 calls)

     Called by h_psi:
     add_vuspsi   :    186.38s CPU    186.93s WALL (     719 calls)
     vhpsi        :    330.22s CPU    432.12s WALL (     719 calls)

     General routines
     calbec       :    557.34s CPU    743.78s WALL (    1900 calls)
     fft          :      4.87s CPU      9.16s WALL (     174 calls)
     ffts         :      0.11s CPU      0.21s WALL (      22 calls)
     fftw         :   1370.65s CPU   2355.94s WALL (  725418 calls)
     interpolate  :      0.70s CPU      1.32s WALL (      22 calls)
     davcio       :      1.40s CPU    163.47s WALL (    1344 calls)

     Parallel routines
     fft_scatter  :    951.73s CPU   1932.58s WALL (  725614 calls)
     Hubbard U routines
     new_ns       :     49.58s CPU    152.29s WALL (       5 calls)
     vhpsi        :    330.22s CPU    432.12s WALL (     719 calls)

     PWSCF        :     3h 2m CPU        3h30m WALL


   This run was terminated on:   4:24:36  11Feb2014            

=------------------------------------------------------------------------------=
   JOB DONE.
=------------------------------------------------------------------------------=
