
     Program PWSCF v.5.0.2 (svn rev. 9656) starts on  8Aug2014 at 14:13: 6 

     This program is part of the open-source Quantum ESPRESSO suite
     for quantum simulation of materials; please cite
         "P. Giannozzi et al., J. Phys.:Condens. Matter 21 395502 (2009);
          URL http://www.quantum-espresso.org", 
     in publications or presentations arising from this work. More details at
     http://www.quantum-espresso.org/quote.php

     Parallel version (MPI), running on    16 processors
     K-points division:     npool     =       4
     R & G space division:  proc/nbgrp/npool/nimage =       4

     Current dimensions of program PWSCF are:
     Max number of different atomic species (ntypx) = 10
     Max number of k-points (npk) =  40000
     Max angular momentum in pseudopotentials (lmaxx) =  3
     Reading input from pwscf.in
Warning: card &CELL ignored
Warning: card / ignored

     Subspace diagonalization in iterative solution of the eigenvalue problem:
     a serial algorithm will be used

 
     Parallelization info
     --------------------
     sticks:   dense  smooth     PW     G-vecs:    dense   smooth      PW
     Min        1386     442    124               330660    59845    8892
     Max        1388     443    125               330662    59871    8899
     Sum        5547    1771    497              1322643   239441   35575
 


     bravais-lattice index     =            0
     lattice parameter (alat)  =      11.2250  a.u.
     unit-cell volume          =    7005.5484 (a.u.)^3
     number of atoms/cell      =           33
     number of atomic types    =            3
     number of electrons       =       221.00
     number of Kohn-Sham states=          319
     kinetic-energy cutoff     =      40.0000  Ry
     charge density cutoff     =     500.0000  Ry
     convergence threshold     =      1.0E-06
     mixing beta               =       0.7000
     number of iterations used =            8  plain     mixing
     Exchange-correlation      = SLA  PW   PBE  PBE ( 1 4 3 4 0)
     EXX-fraction              =        0.00
     nstep                     =           50


     celldm(1)=  11.224973  celldm(2)=   0.000000  celldm(3)=   0.000000
     celldm(4)=   0.000000  celldm(5)=   0.000000  celldm(6)=   0.000000

     crystal axes: (cart. coord. in units of alat)
               a(1) = (   1.000000   0.000000   0.000000 )  
               a(2) = (   0.000000   1.107086   0.000000 )  
               a(3) = (   0.000000   0.000000   4.474090 )  

     reciprocal axes: (cart. coord. in units 2 pi/alat)
               b(1) = (  1.000000  0.000000  0.000000 )  
               b(2) = (  0.000000  0.903272  0.000000 )  
               b(3) = (  0.000000  0.000000  0.223509 )  


     PseudoPot. # 1 for O  read from file:
     /home-research/zhongnanxu/gbrv_espresso_pseudo_v1.01/o_pbe_v1.01.uspp.F.UPF
     MD5 check sum: 2bcb18d16ea4b960afae9ec6d52f22d2
     Pseudo is Ultrasoft + core correction, Zval =  6.0
     Generated by new atomic code, or converted to UPF format
     Using radial grid of  737 points,  5 beta functions with: 
                l(1) =   0
                l(2) =   0
                l(3) =   1
                l(4) =   1
                l(5) =   2
     Q(r) pseudized with  8 coefficients,  rinner =    0.900   0.900   0.900
                                                       0.900   0.900

     PseudoPot. # 2 for Ti read from file:
     /home-research/zhongnanxu/gbrv_espresso_pseudo_v1.01/ti_pbe_v1.uspp.F.UPF
     MD5 check sum: bcc8f6961b3b91f0cac3ca967d22d0fb
     Pseudo is Ultrasoft + core correction, Zval = 12.0
     Generated by new atomic code, or converted to UPF format
     Using radial grid of  851 points,  6 beta functions with: 
                l(1) =   0
                l(2) =   0
                l(3) =   1
                l(4) =   1
                l(5) =   2
                l(6) =   2
     Q(r) pseudized with  6 coefficients,  rinner =    1.000   1.000   1.000
                                                       1.000   1.000

     PseudoPot. # 3 for H  read from file:
     /home-research/zhongnanxu/gbrv_espresso_pseudo_v1.01/h_pbe_v1.uspp.F.UPF
     MD5 check sum: 3408e3ff4ec8b0a4e358431e7e038a48
     Pseudo is Ultrasoft, Zval =  1.0
     Generated by new atomic code, or converted to UPF format
     Using radial grid of  615 points,  2 beta functions with: 
                l(1) =   0
                l(2) =   0
     Q(r) pseudized with  8 coefficients,  rinner =    0.700

     atomic species   valence    mass     pseudopotential
        O0             6.00    15.99940     O ( 1.00)
        Ti1           12.00    47.88000     Ti( 1.00)
        H2             1.00     1.00794     H ( 1.00)


     Simplified LDA+U calculation (l_max = 2) with parameters (eV):
     atomic species    L          U    alpha       J0     beta
        Ti1            2     3.0000   0.0000   0.0000   0.0000



     No symmetry found



   Cartesian axes

     site n.     atom                  positions (alat units)
         1           O0  tau(   1) = (   0.0000000   0.0000000   1.6912954  )
         2           O0  tau(   2) = (   0.0000000   0.5535432   1.7865040  )
         3           Ti1 tau(   3) = (   0.2500000   0.5535432   2.0182619  )
         4           Ti1 tau(   4) = (   0.0000000   0.0000000   2.0215280  )
         5           O0  tau(   5) = (   0.2500000   0.8967400   2.0132062  )
         6           O0  tau(   6) = (   0.2500000   0.2103464   2.0173223  )
         7           O0  tau(   7) = (   0.0000000   0.5535432   2.2297074  )
         8           O0  tau(   8) = (   0.0000000   0.0000000   2.3520737  )
         9           Ti1 tau(   9) = (   0.2500000   0.0000000   2.5974328  )
        10           Ti1 tau(  10) = (   0.0000000   0.5535432   2.5411040  )
        11           O0  tau(  11) = (   0.2500000   0.7638896   2.5876345  )
        12           O0  tau(  12) = (   0.2500000   0.3431968   2.5923323  )
        13           O0  tau(  13) = (   0.0000000   0.0000000   2.7826601  )
        14           O0  tau(  14) = (   0.5000000   0.0000000   1.6946510  )
        15           O0  tau(  15) = (   0.5000000   0.5535432   1.7849381  )
        16           Ti1 tau(  16) = (   0.7500000   0.5535432   2.0183066  )
        17           Ti1 tau(  17) = (   0.5000000   0.0000000   2.0277470  )
        18           O0  tau(  18) = (   0.7500000   0.8967400   2.0129377  )
        19           O0  tau(  19) = (   0.7500000   0.2103464   2.0175013  )
        20           O0  tau(  20) = (   0.5000000   0.5535432   2.2179405  )
        21           O0  tau(  21) = (   0.5000000   0.0000000   2.3528791  )
        22           Ti1 tau(  22) = (   0.7500000   0.0000000   2.5974328  )
        23           Ti1 tau(  23) = (   0.5000000   0.5535432   2.6181478  )
        24           O0  tau(  24) = (   0.7500000   0.7638896   2.5875898  )
        25           O0  tau(  25) = (   0.7500000   0.3431968   2.5922429  )
        26           O0  tau(  26) = (   0.5000000   0.0000000   2.7811837  )
        27           H2  tau(  27) = (  -0.0004600   0.6930693   1.6949194  )
        28           H2  tau(  28) = (   0.4997200   0.6918293   1.6916086  )
        29           H2  tau(  29) = (   0.1490000   0.0365781   1.6268238  )
        30           H2  tau(  30) = (   0.6482800   0.0381834   1.6297319  )
        31           O0  tau(  31) = (   0.5003100   0.5833902   2.9430115  )
        32           O0  tau(  32) = (   0.4991200   0.3876242   3.0783974  )
        33           H2  tau(  33) = (   0.5003600   0.4575034   3.2295322  )

     number of k points=    10  Methfessel-Paxton smearing, width (Ry)=  0.0100
                       cart. coord. in units 2pi/alat
        k(    1) = (   0.0000000   0.0000000   0.0000000), wk =   0.1250000
        k(    2) = (   0.0000000   0.2258180   0.0000000), wk =   0.2500000
        k(    3) = (   0.0000000  -0.4516359   0.0000000), wk =   0.1250000
        k(    4) = (   0.2500000   0.0000000   0.0000000), wk =   0.2500000
        k(    5) = (   0.2500000   0.2258180   0.0000000), wk =   0.2500000
        k(    6) = (   0.2500000  -0.4516359   0.0000000), wk =   0.2500000
        k(    7) = (  -0.5000000   0.0000000   0.0000000), wk =   0.1250000
        k(    8) = (  -0.5000000   0.2258180   0.0000000), wk =   0.2500000
        k(    9) = (  -0.5000000  -0.4516359   0.0000000), wk =   0.1250000
        k(   10) = (  -0.2500000   0.2258180   0.0000000), wk =   0.2500000

     Dense  grid:  1322643 G-vectors     FFT dimensions: (  80,  90, 360)

     Smooth grid:   239441 G-vectors     FFT dimensions: (  45,  54, 216)

     Largest allocated arrays     est. size (Mb)     dimensions
        Kohn-Sham Wavefunctions        36.83 Mb     (   7566,  319)
        Atomic wavefunctions           19.05 Mb     (   7566,  165)
        NL pseudopotentials            47.80 Mb     (   7566,  414)
        Each V/rho on FFT grid          9.89 Mb     ( 648000)
        Each G-vector array             2.52 Mb     ( 330661)
        G-vector shells                 1.08 Mb     ( 141764)
     Largest temporary arrays     est. size (Mb)     dimensions
        Auxiliary wavefunctions       147.31 Mb     (   7566, 1276)
        Each subspace H/S matrix       24.84 Mb     (1276,1276)
        Each <psi_i|beta_j> matrix      2.02 Mb     (    414,  319)
        Arrays for rho mixing          79.10 Mb     ( 648000,   8)

     Check: negative/imaginary core charge=   -0.000006    0.000000

     Initial potential from superposition of free atoms
     Check: negative starting charge=   -0.102033

     starting charge  212.99957, renormalised to  221.00000

     negative rho (up, down):  0.106E+00 0.000E+00
     Number of +U iterations with fixed ns =  0
     Starting occupations:
 --- enter write_ns ---
 LDA+U parameters:
U( 2)     =  3.00000000
alpha( 2) =  0.00000000
atom    3   Tr[ns(na)] =   2.00000
    eigenvalues: 
  0.200  0.200  0.200  0.200  0.200
    eigenvectors:
  1.000  0.000  0.000  0.000  0.000
  0.000  1.000  0.000  0.000  0.000
  0.000  0.000  1.000  0.000  0.000
  0.000  0.000  0.000  1.000  0.000
  0.000  0.000  0.000  0.000  1.000
    occupations:
  0.200  0.000  0.000  0.000  0.000
  0.000  0.200  0.000  0.000  0.000
  0.000  0.000  0.200  0.000  0.000
  0.000  0.000  0.000  0.200  0.000
  0.000  0.000  0.000  0.000  0.200
atom    4   Tr[ns(na)] =   2.00000
    eigenvalues: 
  0.200  0.200  0.200  0.200  0.200
    eigenvectors:
  1.000  0.000  0.000  0.000  0.000
  0.000  1.000  0.000  0.000  0.000
  0.000  0.000  1.000  0.000  0.000
  0.000  0.000  0.000  1.000  0.000
  0.000  0.000  0.000  0.000  1.000
    occupations:
  0.200  0.000  0.000  0.000  0.000
  0.000  0.200  0.000  0.000  0.000
  0.000  0.000  0.200  0.000  0.000
  0.000  0.000  0.000  0.200  0.000
  0.000  0.000  0.000  0.000  0.200
atom    9   Tr[ns(na)] =   2.00000
    eigenvalues: 
  0.200  0.200  0.200  0.200  0.200
    eigenvectors:
  1.000  0.000  0.000  0.000  0.000
  0.000  1.000  0.000  0.000  0.000
  0.000  0.000  1.000  0.000  0.000
  0.000  0.000  0.000  1.000  0.000
  0.000  0.000  0.000  0.000  1.000
    occupations:
  0.200  0.000  0.000  0.000  0.000
  0.000  0.200  0.000  0.000  0.000
  0.000  0.000  0.200  0.000  0.000
  0.000  0.000  0.000  0.200  0.000
  0.000  0.000  0.000  0.000  0.200
atom   10   Tr[ns(na)] =   2.00000
    eigenvalues: 
  0.200  0.200  0.200  0.200  0.200
    eigenvectors:
  1.000  0.000  0.000  0.000  0.000
  0.000  1.000  0.000  0.000  0.000
  0.000  0.000  1.000  0.000  0.000
  0.000  0.000  0.000  1.000  0.000
  0.000  0.000  0.000  0.000  1.000
    occupations:
  0.200  0.000  0.000  0.000  0.000
  0.000  0.200  0.000  0.000  0.000
  0.000  0.000  0.200  0.000  0.000
  0.000  0.000  0.000  0.200  0.000
  0.000  0.000  0.000  0.000  0.200
atom   16   Tr[ns(na)] =   2.00000
    eigenvalues: 
  0.200  0.200  0.200  0.200  0.200
    eigenvectors:
  1.000  0.000  0.000  0.000  0.000
  0.000  1.000  0.000  0.000  0.000
  0.000  0.000  1.000  0.000  0.000
  0.000  0.000  0.000  1.000  0.000
  0.000  0.000  0.000  0.000  1.000
    occupations:
  0.200  0.000  0.000  0.000  0.000
  0.000  0.200  0.000  0.000  0.000
  0.000  0.000  0.200  0.000  0.000
  0.000  0.000  0.000  0.200  0.000
  0.000  0.000  0.000  0.000  0.200
atom   17   Tr[ns(na)] =   2.00000
    eigenvalues: 
  0.200  0.200  0.200  0.200  0.200
    eigenvectors:
  1.000  0.000  0.000  0.000  0.000
  0.000  1.000  0.000  0.000  0.000
  0.000  0.000  1.000  0.000  0.000
  0.000  0.000  0.000  1.000  0.000
  0.000  0.000  0.000  0.000  1.000
    occupations:
  0.200  0.000  0.000  0.000  0.000
  0.000  0.200  0.000  0.000  0.000
  0.000  0.000  0.200  0.000  0.000
  0.000  0.000  0.000  0.200  0.000
  0.000  0.000  0.000  0.000  0.200
atom   22   Tr[ns(na)] =   2.00000
    eigenvalues: 
  0.200  0.200  0.200  0.200  0.200
    eigenvectors:
  1.000  0.000  0.000  0.000  0.000
  0.000  1.000  0.000  0.000  0.000
  0.000  0.000  1.000  0.000  0.000
  0.000  0.000  0.000  1.000  0.000
  0.000  0.000  0.000  0.000  1.000
    occupations:
  0.200  0.000  0.000  0.000  0.000
  0.000  0.200  0.000  0.000  0.000
  0.000  0.000  0.200  0.000  0.000
  0.000  0.000  0.000  0.200  0.000
  0.000  0.000  0.000  0.000  0.200
atom   23   Tr[ns(na)] =   2.00000
    eigenvalues: 
  0.200  0.200  0.200  0.200  0.200
    eigenvectors:
  1.000  0.000  0.000  0.000  0.000
  0.000  1.000  0.000  0.000  0.000
  0.000  0.000  1.000  0.000  0.000
  0.000  0.000  0.000  1.000  0.000
  0.000  0.000  0.000  0.000  1.000
    occupations:
  0.200  0.000  0.000  0.000  0.000
  0.000  0.200  0.000  0.000  0.000
  0.000  0.000  0.200  0.000  0.000
  0.000  0.000  0.000  0.200  0.000
  0.000  0.000  0.000  0.000  0.200
N of occupied +U levels =  16.0000000
 --- exit write_ns ---
 Atomic wfc used for LDA+U Projector are NOT orthogonalized
     Starting wfc are  165 randomized atomic wfcs

     total cpu time spent up to now is      121.0 secs

     per-process dynamical memory:   402.7 Mb

     Self-consistent Calculation

     iteration #  1     ecut=    40.00 Ry     beta=0.70
     Davidson diagonalization with overlap
     ethr =  1.00E-02,  avg # of iterations =  6.0
 --- enter write_ns ---
 LDA+U parameters:
U( 2)     =  3.00000000
alpha( 2) =  0.00000000
atom    3   Tr[ns(na)] =   1.90237
    eigenvalues: 
  0.103  0.120  0.136  0.276  0.316
    eigenvectors:
  0.089  0.044  0.716  0.149  0.002
  0.001  0.002  0.001  0.025  0.972
  0.837  0.022  0.139  0.001  0.000
  0.023  0.009  0.118  0.825  0.024
  0.049  0.923  0.025  0.000  0.003
    occupations:
  0.154  0.002 -0.008  0.052  0.001
  0.002  0.315  0.001 -0.008  0.010
 -0.008  0.001  0.108  0.008 -0.004
  0.052 -0.008  0.008  0.255 -0.001
  0.001  0.010 -0.004 -0.001  0.120
atom    4   Tr[ns(na)] =   2.25980
    eigenvalues: 
  0.122  0.151  0.193  0.311  0.352
    eigenvectors:
  0.011  0.009  0.000  0.000  0.980
  0.009  0.894  0.087  0.000  0.010
  0.001  0.085  0.913  0.000  0.001
  0.979  0.012  0.000  0.000  0.009
  0.000  0.000  0.000  1.000  0.000
    occupations:
  0.348  0.020  0.006 -0.022  0.000
  0.020  0.157 -0.011  0.001 -0.001
  0.006 -0.011  0.190  0.000  0.000
 -0.022  0.001  0.000  0.125  0.000
  0.000 -0.001  0.000  0.000  0.311
atom    9   Tr[ns(na)] =   2.20701
    eigenvalues: 
  0.136  0.164  0.171  0.300  0.332
    eigenvectors:
  0.000  0.013  0.932  0.055  0.000
  0.000  0.000  0.000  0.003  0.997
  0.980  0.019  0.001  0.000  0.000
  0.000  0.001  0.055  0.942  0.003
  0.019  0.967  0.013  0.000  0.000
    occupations:
  0.178  0.000  0.001  0.030  0.001
  0.000  0.331  0.000 -0.002  0.000
  0.001  0.000  0.137  0.001  0.004
  0.030 -0.002  0.001  0.293 -0.001
  0.001  0.000  0.004 -0.001  0.164
atom   10   Tr[ns(na)] =   2.51388
    eigenvalues: 
  0.126  0.184  0.240  0.306  0.401
    eigenvectors:
  0.000  0.000  0.995  0.000  0.005
  0.000  1.000  0.000  0.000  0.000
  0.998  0.000  0.000  0.000  0.002
  0.002  0.000  0.004  0.000  0.994
  0.000  0.000  0.000  1.000  0.000
    occupations:
  0.241  0.000  0.000  0.011  0.000
  0.000  0.184  0.000  0.000  0.001
  0.000  0.000  0.126  0.011  0.000
  0.011  0.000  0.011  0.400  0.000
  0.000  0.001  0.000  0.000  0.306
atom   16   Tr[ns(na)] =   1.90275
    eigenvalues: 
  0.103  0.120  0.136  0.276  0.316
    eigenvectors:
  0.090  0.046  0.714  0.149  0.002
  0.001  0.002  0.001  0.025  0.971
  0.835  0.023  0.141  0.001  0.000
  0.023  0.009  0.118  0.825  0.024
  0.051  0.920  0.026  0.000  0.003
    occupations:
  0.154 -0.002 -0.008  0.052 -0.001
 -0.002  0.315 -0.001  0.008  0.010
 -0.008 -0.001  0.109  0.008  0.004
  0.052  0.008  0.008  0.255  0.001
 -0.001  0.010  0.004  0.001  0.120
atom   17   Tr[ns(na)] =   2.25109
    eigenvalues: 
  0.122  0.151  0.191  0.309  0.353
    eigenvectors:
  0.011  0.008  0.000  0.000  0.981
  0.008  0.887  0.096  0.000  0.009
  0.001  0.095  0.904  0.000  0.001
  0.981  0.010  0.000  0.000  0.009
  0.000  0.000  0.000  1.000  0.000
    occupations:
  0.348  0.019  0.006 -0.022  0.000
  0.019  0.157 -0.011  0.001 -0.001
  0.006 -0.011  0.187  0.000  0.000
 -0.022  0.001  0.000  0.124  0.000
  0.000 -0.001  0.000  0.000  0.309
atom   22   Tr[ns(na)] =   2.20716
    eigenvalues: 
  0.136  0.164  0.171  0.300  0.332
    eigenvectors:
  0.000  0.011  0.933  0.055  0.000
  0.000  0.000  0.000  0.003  0.997
  0.981  0.019  0.000  0.000  0.000
  0.000  0.001  0.055  0.942  0.002
  0.019  0.969  0.012  0.000  0.000
    occupations:
  0.178  0.000  0.001  0.030 -0.001
  0.000  0.332  0.000  0.002  0.000
  0.001  0.000  0.137  0.001 -0.004
  0.030  0.002  0.001  0.293  0.001
 -0.001  0.000 -0.004  0.001  0.164
atom   23   Tr[ns(na)] =   2.32276
    eigenvalues: 
  0.136  0.169  0.171  0.298  0.388
    eigenvectors:
  0.026  0.004  0.000  0.000  0.969
  0.000  0.003  0.997  0.000  0.000
  0.948  0.023  0.000  0.000  0.029
  0.025  0.970  0.003  0.000  0.002
  0.000  0.000  0.000  1.000  0.000
    occupations:
  0.381  0.001  0.042  0.008  0.000
  0.001  0.171  0.000  0.000 -0.001
  0.042  0.000  0.144  0.007  0.000
  0.008  0.000  0.007  0.169  0.000
  0.000 -0.001  0.000  0.000  0.298
N of occupied +U levels =  17.5668157
 --- exit write_ns ---

     negative rho (up, down):  0.115E+00 0.000E+00

     total cpu time spent up to now is      560.8 secs

     total energy              =   -1592.33936799 Ry
     Harris-Foulkes estimate   =   -1600.67250361 Ry
     estimated scf accuracy    <      10.18637081 Ry

     iteration #  2     ecut=    40.00 Ry     beta=0.70
     Davidson diagonalization with overlap
     ethr =  4.61E-03,  avg # of iterations =  5.2

     negative rho (up, down):  0.110E+00 0.000E+00

     total cpu time spent up to now is      881.3 secs

     total energy              =   -1546.34102949 Ry
     Harris-Foulkes estimate   =   -1622.73503533 Ry
     estimated scf accuracy    <     702.35067194 Ry

     iteration #  3     ecut=    40.00 Ry     beta=0.70
     Davidson diagonalization with overlap
     ethr =  4.61E-03,  avg # of iterations =  5.0

     negative rho (up, down):  0.105E+00 0.000E+00

     total cpu time spent up to now is     1237.0 secs

     total energy              =   -1574.30774584 Ry
     Harris-Foulkes estimate   =   -1612.94438431 Ry
     estimated scf accuracy    <     568.94543561 Ry

     iteration #  4     ecut=    40.00 Ry     beta=0.70
     Davidson diagonalization with overlap
     ethr =  4.61E-03,  avg # of iterations =  3.5

     negative rho (up, down):  0.959E-01 0.000E+00

     total cpu time spent up to now is     1484.2 secs

     total energy              =   -1590.31441552 Ry
     Harris-Foulkes estimate   =   -1604.43913835 Ry
     estimated scf accuracy    <     248.03478498 Ry

     iteration #  5     ecut=    40.00 Ry     beta=0.70
     Davidson diagonalization with overlap
     ethr =  4.61E-03,  avg # of iterations =  3.1

     negative rho (up, down):  0.943E-01 0.000E+00

     total cpu time spent up to now is     1707.3 secs

     total energy              =   -1598.73835561 Ry
     Harris-Foulkes estimate   =   -1600.13118537 Ry
     estimated scf accuracy    <       4.63887684 Ry

     iteration #  6     ecut=    40.00 Ry     beta=0.70
     Davidson diagonalization with overlap
     ethr =  2.10E-03,  avg # of iterations =  3.7

     negative rho (up, down):  0.942E-01 0.000E+00

     total cpu time spent up to now is     1932.2 secs

     total energy              =   -1598.90973348 Ry
     Harris-Foulkes estimate   =   -1599.20474518 Ry
     estimated scf accuracy    <       2.16890907 Ry

     iteration #  7     ecut=    40.00 Ry     beta=0.70
     Davidson diagonalization with overlap
     ethr =  9.81E-04,  avg # of iterations =  3.2

     negative rho (up, down):  0.960E-01 0.000E+00

     total cpu time spent up to now is     2146.1 secs

     total energy              =   -1598.92172444 Ry
     Harris-Foulkes estimate   =   -1599.12765541 Ry
     estimated scf accuracy    <       1.88653312 Ry

     iteration #  8     ecut=    40.00 Ry     beta=0.70
     Davidson diagonalization with overlap
     ethr =  8.54E-04,  avg # of iterations =  1.3

     negative rho (up, down):  0.973E-01 0.000E+00

     total cpu time spent up to now is     2340.6 secs

     total energy              =   -1598.85988433 Ry
     Harris-Foulkes estimate   =   -1599.00679625 Ry
     estimated scf accuracy    <       1.24738672 Ry

     iteration #  9     ecut=    40.00 Ry     beta=0.70
     Davidson diagonalization with overlap
     ethr =  5.64E-04,  avg # of iterations =  4.9

     negative rho (up, down):  0.979E-01 0.000E+00

     total cpu time spent up to now is     2569.6 secs

     total energy              =   -1598.87192587 Ry
     Harris-Foulkes estimate   =   -1598.92578841 Ry
     estimated scf accuracy    <       1.15657939 Ry

     iteration # 10     ecut=    40.00 Ry     beta=0.70
     Davidson diagonalization with overlap
     ethr =  5.23E-04,  avg # of iterations =  1.0

     negative rho (up, down):  0.100E+00 0.000E+00

     total cpu time spent up to now is     2770.1 secs

     total energy              =   -1598.76809151 Ry
     Harris-Foulkes estimate   =   -1598.90199966 Ry
     estimated scf accuracy    <       1.13322188 Ry

     iteration # 11     ecut=    40.00 Ry     beta=0.70
     Davidson diagonalization with overlap
     ethr =  5.13E-04,  avg # of iterations =  4.3

     negative rho (up, down):  0.111E+00 0.000E+00

     total cpu time spent up to now is     2991.2 secs

     total energy              =   -1598.59001269 Ry
     Harris-Foulkes estimate   =   -1598.79870188 Ry
     estimated scf accuracy    <       0.58288040 Ry

     iteration # 12     ecut=    40.00 Ry     beta=0.70
     Davidson diagonalization with overlap
     ethr =  2.64E-04,  avg # of iterations =  6.9

     negative rho (up, down):  0.103E+00 0.000E+00

     total cpu time spent up to now is     3292.2 secs

     total energy              =   -1598.42458448 Ry
     Harris-Foulkes estimate   =   -1598.76526313 Ry
     estimated scf accuracy    <       1.17882477 Ry

     iteration # 13     ecut=    40.00 Ry     beta=0.70
     Davidson diagonalization with overlap
     ethr =  2.64E-04,  avg # of iterations =  4.3

     negative rho (up, down):  0.102E+00 0.000E+00

     total cpu time spent up to now is     3525.8 secs

     total energy              =   -1598.51156462 Ry
     Harris-Foulkes estimate   =   -1598.71887225 Ry
     estimated scf accuracy    <       0.69847411 Ry

     iteration # 14     ecut=    40.00 Ry     beta=0.70
     Davidson diagonalization with overlap
     ethr =  2.64E-04,  avg # of iterations =  4.9

     negative rho (up, down):  0.103E+00 0.000E+00

     total cpu time spent up to now is     3777.7 secs

     total energy              =   -1598.47203730 Ry
     Harris-Foulkes estimate   =   -1598.75852839 Ry
     estimated scf accuracy    <       1.24640610 Ry

     iteration # 15     ecut=    40.00 Ry     beta=0.70
     Davidson diagonalization with overlap
     ethr =  2.64E-04,  avg # of iterations =  3.7

     negative rho (up, down):  0.103E+00 0.000E+00

     total cpu time spent up to now is     4007.2 secs

     total energy              =   -1598.60797558 Ry
     Harris-Foulkes estimate   =   -1598.63639272 Ry
     estimated scf accuracy    <       0.10671472 Ry

     iteration # 16     ecut=    40.00 Ry     beta=0.70
     Davidson diagonalization with overlap
     ethr =  4.83E-05,  avg # of iterations =  2.8

     negative rho (up, down):  0.103E+00 0.000E+00

     total cpu time spent up to now is     4213.9 secs

     total energy              =   -1598.61426287 Ry
     Harris-Foulkes estimate   =   -1598.62132527 Ry
     estimated scf accuracy    <       0.03460734 Ry

     iteration # 17     ecut=    40.00 Ry     beta=0.70
     Davidson diagonalization with overlap
     ethr =  1.57E-05,  avg # of iterations =  4.4

     negative rho (up, down):  0.103E+00 0.000E+00

     total cpu time spent up to now is     4444.2 secs

     total energy              =   -1598.61235772 Ry
     Harris-Foulkes estimate   =   -1598.62155960 Ry
     estimated scf accuracy    <       0.11705725 Ry

     iteration # 18     ecut=    40.00 Ry     beta=0.70
     Davidson diagonalization with overlap
     ethr =  1.57E-05,  avg # of iterations =  1.0

     negative rho (up, down):  0.104E+00 0.000E+00

     total cpu time spent up to now is     4651.5 secs

     total energy              =   -1598.61598931 Ry
     Harris-Foulkes estimate   =   -1598.61936429 Ry
     estimated scf accuracy    <       0.10893857 Ry

     iteration # 19     ecut=    40.00 Ry     beta=0.70
     Davidson diagonalization with overlap
     ethr =  1.57E-05,  avg # of iterations =  1.5

     negative rho (up, down):  0.104E+00 0.000E+00

     total cpu time spent up to now is     4849.0 secs

     total energy              =   -1598.61574057 Ry
     Harris-Foulkes estimate   =   -1598.61824532 Ry
     estimated scf accuracy    <       0.01690887 Ry

     iteration # 20     ecut=    40.00 Ry     beta=0.70
     Davidson diagonalization with overlap
     ethr =  7.65E-06,  avg # of iterations =  1.9

     negative rho (up, down):  0.104E+00 0.000E+00

     total cpu time spent up to now is     5057.9 secs

     total energy              =   -1598.61558669 Ry
     Harris-Foulkes estimate   =   -1598.61884212 Ry
     estimated scf accuracy    <       0.01710948 Ry

     iteration # 21     ecut=    40.00 Ry     beta=0.70
     Davidson diagonalization with overlap
     ethr =  7.65E-06,  avg # of iterations =  1.0

     negative rho (up, down):  0.104E+00 0.000E+00

     total cpu time spent up to now is     5263.1 secs

     total energy              =   -1598.61699730 Ry
     Harris-Foulkes estimate   =   -1598.61732128 Ry
     estimated scf accuracy    <       0.00823027 Ry

     iteration # 22     ecut=    40.00 Ry     beta=0.70
     Davidson diagonalization with overlap
     ethr =  3.72E-06,  avg # of iterations =  1.3

     negative rho (up, down):  0.105E+00 0.000E+00

     total cpu time spent up to now is     5456.9 secs

     total energy              =   -1598.61702964 Ry
     Harris-Foulkes estimate   =   -1598.61715957 Ry
     estimated scf accuracy    <       0.00168557 Ry

     iteration # 23     ecut=    40.00 Ry     beta=0.70
     Davidson diagonalization with overlap
     ethr =  7.63E-07,  avg # of iterations =  1.6

     negative rho (up, down):  0.105E+00 0.000E+00

     total cpu time spent up to now is     5661.3 secs

     total energy              =   -1598.61703693 Ry
     Harris-Foulkes estimate   =   -1598.61710284 Ry
     estimated scf accuracy    <       0.00039218 Ry

     iteration # 24     ecut=    40.00 Ry     beta=0.70
     Davidson diagonalization with overlap
     ethr =  1.77E-07,  avg # of iterations =  1.0

     negative rho (up, down):  0.105E+00 0.000E+00

     total cpu time spent up to now is     5865.7 secs

     total energy              =   -1598.61706717 Ry
     Harris-Foulkes estimate   =   -1598.61707531 Ry
     estimated scf accuracy    <       0.00002593 Ry

     iteration # 25     ecut=    40.00 Ry     beta=0.70
     Davidson diagonalization with overlap
     ethr =  1.17E-08,  avg # of iterations =  1.1

     negative rho (up, down):  0.105E+00 0.000E+00

     total cpu time spent up to now is     6060.7 secs

     total energy              =   -1598.61706943 Ry
     Harris-Foulkes estimate   =   -1598.61707436 Ry
     estimated scf accuracy    <       0.00002030 Ry

     iteration # 26     ecut=    40.00 Ry     beta=0.70
     Davidson diagonalization with overlap
     ethr =  9.19E-09,  avg # of iterations =  1.0

     negative rho (up, down):  0.105E+00 0.000E+00

     total cpu time spent up to now is     6272.7 secs

     total energy              =   -1598.61707144 Ry
     Harris-Foulkes estimate   =   -1598.61707278 Ry
     estimated scf accuracy    <       0.00000602 Ry

     iteration # 27     ecut=    40.00 Ry     beta=0.70
     Davidson diagonalization with overlap
     ethr =  2.72E-09,  avg # of iterations =  1.0

     negative rho (up, down):  0.105E+00 0.000E+00

     total cpu time spent up to now is     6474.6 secs

     total energy              =   -1598.61707187 Ry
     Harris-Foulkes estimate   =   -1598.61707239 Ry
     estimated scf accuracy    <       0.00000244 Ry

     iteration # 28     ecut=    40.00 Ry     beta=0.70
     Davidson diagonalization with overlap
     ethr =  1.10E-09,  avg # of iterations =  1.0

     negative rho (up, down):  0.105E+00 0.000E+00

     total cpu time spent up to now is     6666.9 secs

     total energy              =   -1598.61707154 Ry
     Harris-Foulkes estimate   =   -1598.61707280 Ry
     estimated scf accuracy    <       0.00002901 Ry

     iteration # 29     ecut=    40.00 Ry     beta=0.70
     Davidson diagonalization with overlap
     ethr =  1.10E-09,  avg # of iterations =  1.0

     negative rho (up, down):  0.105E+00 0.000E+00

     total cpu time spent up to now is     6855.6 secs

     total energy              =   -1598.61707218 Ry
     Harris-Foulkes estimate   =   -1598.61707227 Ry
     estimated scf accuracy    <       0.00000193 Ry

     iteration # 30     ecut=    40.00 Ry     beta=0.70
     Davidson diagonalization with overlap
     ethr =  8.74E-10,  avg # of iterations =  1.0

     negative rho (up, down):  0.105E+00 0.000E+00

     total cpu time spent up to now is     7057.6 secs

     End of self-consistent calculation
 --- enter write_ns ---
 LDA+U parameters:
U( 2)     =  3.00000000
alpha( 2) =  0.00000000
atom    3   Tr[ns(na)] =   2.75080
    eigenvalues: 
  0.168  0.178  0.203  0.397  0.429
    eigenvectors:
  0.632  0.145  0.037  0.166  0.020
  0.003  0.001  0.001  0.173  0.822
  0.170  0.249  0.580  0.000  0.000
  0.150  0.029  0.006  0.660  0.156
  0.045  0.577  0.376  0.000  0.002
    occupations:
  0.214  0.005 -0.005  0.089  0.002
  0.005  0.422  0.002 -0.016  0.012
 -0.005  0.002  0.191  0.007 -0.013
  0.089 -0.016  0.007  0.360 -0.001
  0.002  0.012 -0.013 -0.001  0.188
atom    4   Tr[ns(na)] =   2.85560
    eigenvalues: 
  0.160  0.196  0.215  0.421  0.435
    eigenvectors:
  0.006  0.003  0.000  0.000  0.991
  0.001  0.900  0.096  0.000  0.003
  0.000  0.095  0.904  0.000  0.000
  0.992  0.002  0.000  0.000  0.006
  0.000  0.000  0.000  1.000  0.000
    occupations:
  0.433  0.013  0.004 -0.021  0.000
  0.013  0.199 -0.005  0.000 -0.002
  0.004 -0.005  0.214  0.001  0.000
 -0.021  0.000  0.001  0.162  0.000
  0.000 -0.002  0.000  0.000  0.421
atom    9   Tr[ns(na)] =   2.84696
    eigenvalues: 
  0.166  0.210  0.228  0.379  0.439
    eigenvectors:
  0.000  0.000  0.922  0.077  0.000
  0.000  0.000  0.000  0.000  1.000
  1.000  0.000  0.000  0.000  0.000
  0.000  0.000  0.077  0.922  0.000
  0.000  0.999  0.001  0.000  0.000
    occupations:
  0.240  0.000  0.001  0.040  0.000
  0.000  0.439  0.000 -0.001  0.000
  0.001  0.000  0.166  0.001  0.000
  0.040 -0.001  0.001  0.368  0.000
  0.000  0.000  0.000  0.000  0.210
atom   10   Tr[ns(na)] =   2.79088
    eigenvalues: 
  0.168  0.217  0.230  0.342  0.438
    eigenvectors:
  0.016  0.000  0.000  0.984  0.000
  0.000  0.000  1.000  0.000  0.000
  0.000  1.000  0.000  0.000  0.000
  0.984  0.000  0.000  0.016  0.000
  0.000  0.000  0.000  0.000  1.000
    occupations:
  0.339  0.000 -0.001 -0.022  0.000
  0.000  0.230  0.000  0.000  0.002
 -0.001  0.000  0.217 -0.001  0.000
 -0.022  0.000 -0.001  0.171  0.000
  0.000  0.002  0.000  0.000  0.438
atom   16   Tr[ns(na)] =   2.75106
    eigenvalues: 
  0.168  0.178  0.203  0.397  0.429
    eigenvectors:
  0.643  0.134  0.037  0.166  0.020
  0.003  0.001  0.001  0.173  0.823
  0.162  0.255  0.583  0.000  0.000
  0.153  0.026  0.006  0.660  0.155
  0.039  0.585  0.373  0.001  0.002
    occupations:
  0.214 -0.005 -0.005  0.089 -0.002
 -0.005  0.422 -0.002  0.016  0.012
 -0.005 -0.002  0.191  0.007  0.012
  0.089  0.016  0.007  0.360  0.001
 -0.002  0.012  0.012  0.001  0.188
atom   17   Tr[ns(na)] =   2.85478
    eigenvalues: 
  0.159  0.198  0.217  0.417  0.437
    eigenvectors:
  0.006  0.002  0.000  0.000  0.991
  0.001  0.913  0.084  0.000  0.002
  0.000  0.083  0.916  0.000  0.000
  0.993  0.001  0.000  0.000  0.006
  0.000  0.000  0.000  1.000  0.000
    occupations:
  0.435  0.012  0.004 -0.021  0.000
  0.012  0.200 -0.005  0.000 -0.002
  0.004 -0.005  0.215  0.001  0.000
 -0.021  0.000  0.001  0.160  0.000
  0.000 -0.002  0.000  0.000  0.417
atom   22   Tr[ns(na)] =   2.84696
    eigenvalues: 
  0.166  0.210  0.228  0.379  0.439
    eigenvectors:
  0.000  0.000  0.922  0.077  0.000
  0.000  0.000  0.000  0.000  1.000
  1.000  0.000  0.000  0.000  0.000
  0.000  0.000  0.077  0.922  0.000
  0.000  1.000  0.000  0.000  0.000
    occupations:
  0.240 -0.001  0.001  0.040  0.000
 -0.001  0.439  0.000  0.001  0.000
  0.001  0.000  0.166  0.001  0.000
  0.040  0.001  0.001  0.368  0.000
  0.000  0.000  0.000  0.000  0.210
atom   23   Tr[ns(na)] =   2.77116
    eigenvalues: 
  0.165  0.171  0.240  0.369  0.442
    eigenvectors:
  0.004  0.003  0.000  0.992  0.000
  0.000  0.000  1.000  0.000  0.000
  0.745  0.254  0.000  0.001  0.000
  0.251  0.742  0.000  0.007  0.000
  0.000  0.000  0.000  0.000  1.000
    occupations:
  0.367  0.000  0.006 -0.017  0.000
  0.000  0.240  0.000  0.000 -0.001
  0.006  0.000  0.166  0.002  0.000
 -0.017  0.000  0.002  0.171  0.000
  0.000 -0.001  0.000  0.000  0.442
N of occupied +U levels =  22.4682012
 --- exit write_ns ---

          k = 0.0000 0.0000 0.0000 ( 29975 PWs)   bands (ev):

   -60.2872 -60.2500 -60.0293 -59.8086 -59.0981 -59.0544 -58.7742 -58.7346
   -36.8008 -36.5317 -36.4573 -36.4026 -36.3884 -36.3674 -36.3586 -36.3453
   -36.1951 -36.0589 -36.0220 -35.9205 -35.6890 -35.4139 -35.3119 -35.2477
   -35.2286 -35.1987 -35.1544 -35.0789 -35.0505 -35.0080 -34.9166 -34.7667
   -24.6739 -21.2034 -20.8752 -20.2019 -19.7679 -19.7092 -19.1375 -19.0086
   -18.9920 -18.9293 -18.8584 -18.8420 -18.7101 -18.5692 -18.4675 -18.3973
   -17.9449 -17.6801 -17.5374 -17.5220  -9.5110  -8.9322  -8.5365  -7.8634
    -7.5086  -7.4679  -7.3814  -7.1668  -7.1220  -6.5712  -6.5038  -6.4842
    -6.3576  -6.2725  -6.2368  -6.2184  -6.1585  -6.1078  -6.0827  -5.9454
    -5.8403  -5.8092  -5.6660  -5.6233  -5.3594  -5.0606  -4.9792  -4.8906
    -4.8580  -4.8257  -4.6778  -4.5462  -4.5197  -4.3502  -4.2923  -4.2429
    -4.2203  -4.0988  -3.9759  -3.9386  -3.7467  -3.6956  -3.6503  -3.5439
    -3.5138  -3.3301  -3.2781  -3.2164  -3.0012  -2.8904  -2.8135  -2.7624
    -2.6054  -2.5084  -2.4260  -2.3919  -2.2900  -2.1812  -2.0763  -0.2242
     0.0666   0.1591   0.1805   0.3193   0.4265   0.5674   0.6931   0.7035
     0.9110   1.0016   1.2222   1.2464   1.2815   1.4853   1.5335   1.6043
     1.6482   1.7498   1.8687   1.9049   2.0865   2.1065   2.2129   2.4961
     2.5535   2.5823   2.6879   2.7527   2.8616   3.0542   3.0997   3.2048
     3.3946   3.5538   3.6134   3.7806   3.9227   3.9876   4.0588   4.1493
     4.5367   4.5949   4.7662   4.8185   5.1281   5.3537   5.7090   6.1581
     6.2198   6.5309   6.6370   6.8065   6.9166   7.0447   7.1429   7.1842
     7.2039   7.2526   7.4713   7.6603   7.7292   7.8651   7.8701   8.1615
     8.2250   8.3105   8.3633   8.4306   8.5455   8.7695   8.8592   8.9262
     9.0677   9.0807   9.3344   9.3635   9.4752   9.5410   9.5523   9.5939
     9.8498   9.8746  10.0538  10.1360  10.1984  10.2186  10.3569  10.4003
    10.7052  10.7413  10.7651  10.8603  10.9708  11.0383  11.0891  11.1735
    11.2027  11.2361  11.2776  11.3338  11.3587  11.4382  11.4677  11.5633
    11.7805  11.7845  11.8785  11.9163  11.9869  12.0660  12.0756  12.1385
    12.1557  12.2808  12.4128  12.4464  12.4590  12.4672  12.6224  12.6534
    12.7690  12.8066  12.8603  12.9092  13.1219  13.1870  13.2189  13.4449
    13.5600  13.6019  13.6224  13.6623  13.7050  13.7786  14.0286  14.0858
    14.2508  14.2704  14.3739  14.4662  14.5093  14.6440  14.6631  14.7943
    14.8950  14.9372  14.9625  15.0686  15.0868  15.1892  15.3882  15.5197
    15.5427  15.6204  15.7294  15.7627  15.8354  15.8913  16.0278  16.1998
    16.2443  16.3690  16.3849  16.5034  16.6153  16.8183  16.8585  16.9141
    16.9179  16.9820  17.0371  17.0833  17.2391  17.3404  17.3726  17.4289
    17.4682  17.5991  17.6124  17.6441  17.7725  17.8867  17.9849  18.0362
    18.0798  18.1458  18.2772  18.3309  18.3925  18.4424  18.4728  18.5801
    18.6926  18.7615  18.7809  18.9000  18.9634  18.9972  19.0090  19.1298
    19.2117  19.3002  19.3305  19.4298  19.5339  19.5861  19.6166

          k = 0.0000 0.2258 0.0000 ( 29933 PWs)   bands (ev):

   -60.2873 -60.2500 -60.0293 -59.8085 -59.0982 -59.0543 -58.7743 -58.7345
   -36.8009 -36.5317 -36.4573 -36.4004 -36.3884 -36.3691 -36.3586 -36.3461
   -36.1938 -36.0589 -36.0219 -35.9206 -35.6870 -35.4164 -35.3120 -35.2477
   -35.2284 -35.1987 -35.1544 -35.0811 -35.0493 -35.0080 -34.9166 -34.7667
   -24.6738 -21.1948 -20.8746 -20.1870 -19.7224 -19.6411 -19.1267 -19.1008
   -19.0493 -19.0226 -18.8373 -18.7644 -18.7380 -18.6004 -18.5404 -18.3063
   -17.9458 -17.6843 -17.5321 -17.5214  -9.5067  -8.9328  -8.5410  -7.8716
    -7.4516  -7.3003  -7.1652  -7.1314  -7.0332  -6.6965  -6.5906  -6.5630
    -6.4722  -6.2949  -6.1656  -6.1323  -6.1289  -6.0058  -5.9187  -5.9122
    -5.8126  -5.6109  -5.5775  -5.4804  -5.3656  -5.0713  -5.0606  -4.9908
    -4.9664  -4.7866  -4.7422  -4.6206  -4.5288  -4.5048  -4.3918  -4.3575
    -4.2182  -4.1782  -4.0526  -3.8425  -3.7628  -3.7217  -3.6886  -3.6129
    -3.5416  -3.4916  -3.3296  -3.1498  -3.1177  -2.9004  -2.8376  -2.8139
    -2.7891  -2.5930  -2.5199  -2.3840  -2.2849  -2.2038  -2.1025  -0.1981
     0.0072   0.1105   0.3446   0.4033   0.5493   0.6943   0.7055   0.8069
     0.8907   0.9091   1.0220   1.2716   1.4472   1.4917   1.5884   1.6504
     1.7583   1.8952   1.9025   1.9463   2.0565   2.1296   2.1644   2.3087
     2.5247   2.6086   2.6513   2.7235   2.7784   2.9922   3.0927   3.4156
     3.4488   3.6674   3.8098   3.8578   3.9216   4.2087   4.3255   4.3265
     4.4147   4.5391   4.8609   4.9413   5.0922   5.1321   5.3455   5.5479
     5.7306   6.0426   6.2761   6.6266   6.6637   6.8324   7.2474   7.3185
     7.3840   7.5329   7.7169   7.8647   8.0303   8.0653   8.1327   8.2261
     8.3176   8.4757   8.6005   8.6220   8.8669   8.9225   8.9802   9.0655
     9.0801   9.1346   9.3166   9.4569   9.4766   9.5504   9.6001   9.6789
     9.7257   9.7884   9.8337   9.8952   9.9866  10.0758  10.2159  10.2290
    10.2949  10.4273  10.5153  10.7699  10.8543  10.9184  10.9504  10.9968
    11.1354  11.1591  11.2197  11.2789  11.3996  11.4395  11.4931  11.8263
    11.8591  11.9180  12.0534  12.0700  12.1426  12.2818  12.3343  12.4138
    12.5177  12.5721  12.5982  12.7579  12.8403  12.9553  13.0012  13.1150
    13.1577  13.2109  13.2631  13.3050  13.3440  13.4169  13.5257  13.5784
    13.7033  13.7635  13.8044  13.9119  13.9839  14.0067  14.0914  14.1472
    14.1800  14.2003  14.2448  14.3409  14.4465  14.5549  14.6540  14.7224
    14.7735  14.7970  14.8852  14.9275  15.0712  15.0971  15.1708  15.2517
    15.3195  15.3557  15.3745  15.5154  15.6040  15.6874  15.7644  15.8469
    15.9463  16.0327  16.1718  16.2348  16.3226  16.4074  16.4976  16.5353
    16.7105  16.7423  16.8441  16.9000  16.9807  17.0539  17.1225  17.2314
    17.2659  17.3638  17.5408  17.6019  17.6323  17.7295  17.8423  17.9090
    18.1146  18.1408  18.1642  18.2710  18.3027  18.3576  18.4485  18.4808
    18.5070  18.5375  18.6375  18.7596  18.8472  18.8654  19.0266  19.0680
    19.1294  19.2459  19.2679  19.2979  19.3327  19.4004  19.4313

          k = 0.0000-0.4516 0.0000 ( 29906 PWs)   bands (ev):

   -60.2874 -60.2500 -60.0293 -59.8085 -59.0982 -59.0542 -58.7744 -58.7345
   -36.8011 -36.5316 -36.4573 -36.3983 -36.3884 -36.3708 -36.3587 -36.3469
   -36.1924 -36.0588 -36.0217 -35.9207 -35.6850 -35.4189 -35.3121 -35.2477
   -35.2283 -35.1987 -35.1544 -35.0833 -35.0481 -35.0080 -34.9166 -34.7667
   -24.6737 -21.1864 -20.8740 -20.1734 -19.6718 -19.5437 -19.1650 -19.1202
   -19.0905 -19.0528 -18.9516 -18.8371 -18.6709 -18.6149 -18.5262 -18.2637
   -17.9467 -17.6883 -17.5274 -17.5206  -9.5022  -8.9318  -8.5457  -7.8803
    -7.4330  -7.1928  -7.1641  -6.8555  -6.8056  -6.7515  -6.7240  -6.5577
    -6.4620  -6.2739  -6.1218  -6.0866  -6.0144  -5.8913  -5.8875  -5.7743
    -5.7421  -5.6549  -5.5055  -5.3461  -5.1985  -5.1963  -5.1532  -5.0589
    -4.9895  -4.9452  -4.9329  -4.7235  -4.7002  -4.5080  -4.4690  -4.4490
    -4.3914  -4.2047  -4.0997  -3.9443  -3.8034  -3.7937  -3.7275  -3.6840
    -3.4048  -3.3917  -3.3470  -3.2566  -3.0492  -2.9846  -2.9325  -2.8997
    -2.8819  -2.6431  -2.5386  -2.3533  -2.2820  -2.2294  -2.1103  -0.1867
    -0.0682  -0.0491   0.4732   0.5295   0.5547   0.7070   0.7079   0.7768
     0.8788   1.0187   1.1740   1.3331   1.3872   1.6092   1.6490   1.7338
     1.7660   1.9253   1.9451   1.9477   2.0166   2.1538   2.1767   2.2169
     2.4570   2.5011   2.5664   2.7909   2.8896   3.0911   3.1964   3.4367
     3.5835   3.6493   3.7887   3.9903   4.2677   4.2840   4.3152   4.4457
     4.4579   4.6626   4.6666   4.8200   4.9066   5.0072   5.1355   5.3370
     5.5156   5.8368   6.0504   6.5512   6.7599   6.7866   7.0151   7.1343
     7.6132   7.6701   7.7250   7.7663   7.9445   8.0698   8.3166   8.3331
     8.5080   8.6236   8.6594   8.7481   8.7796   8.8408   8.9487   8.9809
     9.0871   9.2277   9.2840   9.3113   9.4376   9.5113   9.5703   9.6530
     9.7859   9.9170  10.0336  10.0592  10.0689  10.1272  10.2790  10.4375
    10.5793  10.6630  10.6885  10.7672  10.8792  10.9217  11.0148  11.1519
    11.2857  11.3231  11.3342  11.4033  11.4897  11.5641  11.6574  11.6917
    11.7742  11.8669  11.8787  12.0083  12.0348  12.2670  12.2967  12.3817
    12.4497  12.5006  12.5790  12.8288  12.8713  12.9223  12.9657  12.9984
    13.1156  13.2186  13.2814  13.3088  13.3908  13.5547  13.6474  13.6929
    13.7117  13.8095  13.8405  13.9912  13.9955  14.2072  14.3012  14.3355
    14.3787  14.4555  14.5407  14.6235  14.7988  14.8126  14.8529  14.8953
    15.0336  15.1581  15.1898  15.2665  15.3308  15.4184  15.4322  15.4597
    15.4932  15.5197  15.5731  15.5905  15.5936  15.6322  15.7461  15.7542
    15.7582  15.8428  15.8610  15.9926  16.1342  16.2099  16.2423  16.2710
    16.2798  16.3262  16.4085  16.4924  16.6300  16.7052  16.7390  16.8586
    16.9987  17.0436  17.0909  17.2381  17.2827  17.4163  17.5680  17.6167
    17.7117  17.7670  17.8048  17.8471  17.8597  17.9268  17.9435  17.9882
    18.0727  18.1544  18.3020  18.4347  18.5073  18.5589  18.6798  18.7474
    18.8299  18.9687  18.9769  19.1486  19.1664  19.1995  19.3038

          k = 0.2500 0.0000 0.0000 ( 29937 PWs)   bands (ev):

   -60.2823 -60.2560 -60.0291 -59.8096 -59.0937 -59.0600 -58.7688 -58.7408
   -36.7437 -36.5200 -36.4861 -36.4028 -36.3973 -36.3875 -36.3721 -36.2996
   -36.1883 -36.0624 -36.0257 -35.9661 -35.6253 -35.4002 -35.3262 -35.3121
   -35.1965 -35.1769 -35.1459 -35.0746 -35.0545 -34.9980 -34.9280 -34.8316
   -24.6738 -21.1306 -20.8910 -20.2161 -19.6732 -19.5892 -19.1543 -19.0178
   -18.9777 -18.9564 -18.9302 -18.8606 -18.7468 -18.6306 -18.5334 -18.2811
   -17.9092 -17.6792 -17.6296 -17.5834  -9.5112  -8.8760  -8.6056  -7.8620
    -7.3580  -7.2710  -7.2445  -7.2026  -6.9923  -6.5906  -6.5631  -6.5040
    -6.4019  -6.3816  -6.3103  -6.2636  -6.2350  -6.1240  -6.0443  -6.0185
    -5.8040  -5.7101  -5.6153  -5.5095  -5.2503  -5.0727  -4.9690  -4.9035
    -4.7790  -4.7311  -4.6350  -4.4561  -4.3919  -4.3511  -4.3255  -4.2129
    -4.1826  -4.1374  -4.0350  -4.0038  -3.8948  -3.8642  -3.7433  -3.6917
    -3.5304  -3.4443  -3.4075  -3.2781  -2.9943  -2.9246  -2.9053  -2.7225
    -2.6915  -2.6429  -2.5446  -2.4021  -2.2925  -2.1919  -2.1545  -0.0362
     0.0951   0.2456   0.3413   0.3716   0.5303   0.5608   0.6108   0.7174
     0.8989   0.9939   1.0865   1.1840   1.3443   1.4642   1.5029   1.5363
     1.6458   1.7694   1.8642   2.0138   2.1489   2.1749   2.2166   2.4279
     2.6141   2.6239   2.6714   2.7853   2.8795   3.0057   3.1192   3.5322
     3.5479   3.6531   3.8052   3.8228   3.8603   3.8778   4.0368   4.2835
     4.4201   4.5014   4.7294   4.8460   5.0523   5.1445   5.5202   5.8119
     5.9408   6.1922   6.4582   6.5158   6.6729   6.8942   7.0494   7.1690
     7.3068   7.3509   7.3968   7.5135   7.7151   7.8940   7.9660   8.1737
     8.3549   8.4268   8.4978   8.6157   8.7571   8.8099   8.8907   9.1160
     9.1697   9.1818   9.2701   9.3533   9.3869   9.4692   9.5160   9.6111
     9.7598   9.8375   9.8958   9.9348   9.9623  10.0422  10.1641  10.2511
    10.4298  10.4718  10.5607  10.7668  10.8425  10.8741  10.9487  11.1183
    11.1624  11.2205  11.2807  11.3895  11.4506  11.5805  11.6598  11.8081
    11.9188  11.9514  12.0408  12.1015  12.2129  12.2396  12.2762  12.4085
    12.5687  12.5826  12.6629  12.7685  12.9193  12.9497  13.0754  13.1328
    13.2016  13.3591  13.4352  13.5272  13.5501  13.6061  13.7208  13.7330
    13.8159  13.8592  13.9359  14.0218  14.0572  14.0859  14.1992  14.3189
    14.3872  14.4734  14.5501  14.6407  14.7265  14.8037  14.9140  14.9711
    15.0841  15.0993  15.2737  15.2934  15.3614  15.4530  15.4766  15.4947
    15.6323  15.7211  15.7387  15.8411  15.9090  15.9626  16.0953  16.1557
    16.2454  16.3212  16.3525  16.4957  16.5064  16.5471  16.6759  16.7198
    16.7823  16.8379  16.8635  16.9392  17.0387  17.0882  17.1574  17.2709
    17.3577  17.4352  17.4953  17.5681  17.6350  17.6904  17.7239  17.7433
    17.8236  17.8861  17.9595  18.0590  18.1386  18.1929  18.2307  18.2670
    18.3969  18.4813  18.5500  18.6603  18.6985  18.7736  18.8186  18.8577
    18.9326  19.0336  19.0908  19.1191  19.2346  19.2684  19.3003

          k = 0.2500 0.2258 0.0000 ( 29912 PWs)   bands (ev):

   -60.2824 -60.2560 -60.0291 -59.8096 -59.0937 -59.0599 -58.7689 -58.7408
   -36.7438 -36.5200 -36.4861 -36.4028 -36.3956 -36.3875 -36.3732 -36.3003
   -36.1872 -36.0622 -36.0254 -35.9664 -35.6237 -35.4024 -35.3266 -35.3117
   -35.1965 -35.1768 -35.1458 -35.0762 -35.0538 -34.9980 -34.9280 -34.8316
   -24.6737 -21.1243 -20.8903 -20.2072 -19.6160 -19.5281 -19.1591 -19.0676
   -19.0145 -18.9800 -18.9162 -18.8392 -18.7748 -18.6721 -18.6043 -18.2340
   -17.9094 -17.6896 -17.6230 -17.5792  -9.5068  -8.8734  -8.6003  -7.8689
    -7.2803  -7.2356  -7.0521  -6.9907  -6.9642  -6.6123  -6.5827  -6.4075
    -6.3858  -6.3629  -6.2949  -6.2355  -6.1896  -6.1201  -6.0905  -5.8047
    -5.7727  -5.6975  -5.5664  -5.4994  -5.3522  -5.1502  -4.9751  -4.8689
    -4.7763  -4.7425  -4.6471  -4.6015  -4.5111  -4.4644  -4.3834  -4.3015
    -4.2216  -4.1683  -4.1579  -4.1195  -4.0487  -3.8745  -3.7792  -3.7146
    -3.6724  -3.5233  -3.3601  -3.2721  -3.0607  -2.9645  -2.9397  -2.7615
    -2.7172  -2.6288  -2.6073  -2.3904  -2.2820  -2.1979  -2.1312  -0.0205
     0.0913   0.1713   0.3278   0.4720   0.5951   0.6448   0.6981   0.8591
     0.9233   1.0049   1.0924   1.2126   1.3685   1.5287   1.5813   1.6234
     1.6883   1.8674   1.9488   2.0151   2.1215   2.1962   2.2125   2.3737
     2.4504   2.5590   2.6825   2.7160   2.8079   2.8775   3.1387   3.4975
     3.6089   3.6883   3.7823   3.9708   4.0672   4.0893   4.1869   4.2514
     4.4779   4.6250   4.7850   4.8535   5.1763   5.2084   5.5347   5.6290
     5.6511   5.9368   6.0481   6.2204   6.4076   6.5770   6.6876   7.0411
     7.1014   7.2854   7.5076   7.5700   7.7072   7.9216   7.9799   8.1032
     8.2175   8.3266   8.4993   8.5734   8.6849   8.7892   8.8895   9.0224
     9.1286   9.2072   9.2715   9.3734   9.4685   9.6317   9.7306   9.7866
     9.8633   9.9935  10.1703  10.2686  10.3319  10.4090  10.4853  10.5300
    10.6674  10.7976  10.9029  10.9767  11.0156  11.0986  11.2068  11.3128
    11.3868  11.4497  11.5247  11.5802  11.6299  11.7204  11.8081  11.9144
    11.9857  12.1119  12.1938  12.2395  12.2761  12.3315  12.4094  12.4854
    12.5320  12.6164  12.6839  12.7851  12.8299  12.9431  12.9941  13.0482
    13.1397  13.2303  13.2969  13.3407  13.4325  13.5486  13.6524  13.8038
    13.8504  13.9368  14.0473  14.1306  14.1637  14.2226  14.2720  14.3136
    14.3450  14.4196  14.5353  14.6036  14.6889  14.7200  14.8294  14.9076
    14.9280  15.0513  15.1152  15.1904  15.2553  15.3336  15.3731  15.4296
    15.4840  15.5349  15.6468  15.6715  15.7181  15.8151  15.8774  15.9503
    16.0084  16.1190  16.1656  16.1900  16.2461  16.3550  16.4349  16.4878
    16.5420  16.5809  16.7006  16.7166  16.7928  16.8055  16.8867  17.0139
    17.0808  17.1516  17.2096  17.2760  17.3252  17.3799  17.4409  17.4721
    17.5594  17.6444  17.6785  17.8286  17.8753  17.9112  17.9833  18.0939
    18.1449  18.2422  18.3058  18.3970  18.4163  18.5092  18.5668  18.6101
    18.6510  18.7465  18.8231  18.8362  18.9491  19.0664  19.1091

          k = 0.2500-0.4516 0.0000 ( 29882 PWs)   bands (ev):

   -60.2825 -60.2560 -60.0291 -59.8096 -59.0937 -59.0599 -58.7690 -58.7408
   -36.7440 -36.5200 -36.4861 -36.4028 -36.3940 -36.3875 -36.3742 -36.3010
   -36.1861 -36.0619 -36.0251 -35.9667 -35.6221 -35.4044 -35.3270 -35.3117
   -35.1965 -35.1768 -35.1457 -35.0779 -35.0530 -34.9980 -34.9280 -34.8316
   -24.6736 -21.1182 -20.8895 -20.1988 -19.5465 -19.4474 -19.1480 -19.1177
   -19.0141 -18.9968 -18.9456 -18.9403 -18.7970 -18.6787 -18.6237 -18.2038
   -17.9095 -17.6977 -17.6189 -17.5747  -9.5024  -8.8696  -8.5962  -7.8760
    -7.2594  -7.2250  -6.9845  -6.7431  -6.6593  -6.5766  -6.5437  -6.4474
    -6.3826  -6.3426  -6.2377  -6.1600  -6.1419  -6.0852  -6.0617  -5.7406
    -5.6842  -5.6351  -5.5025  -5.4735  -5.3765  -5.1311  -5.0671  -4.9252
    -4.8606  -4.8417  -4.7561  -4.7344  -4.6786  -4.6356  -4.5304  -4.4772
    -4.3572  -4.3009  -4.2682  -4.1973  -4.0993  -3.8418  -3.8009  -3.7587
    -3.6712  -3.5450  -3.2696  -3.1903  -3.0989  -2.9611  -2.9425  -2.8489
    -2.7001  -2.6755  -2.6184  -2.4126  -2.2792  -2.1850  -2.1129  -0.0137
     0.0220   0.0886   0.4238   0.4508   0.6437   0.7064   0.7528   0.8350
     0.8474   1.1491   1.2540   1.3795   1.4052   1.5925   1.6325   1.7531
     1.8026   1.9080   1.9498   2.0677   2.1027   2.1870   2.2027   2.2321
     2.3970   2.4319   2.4919   2.7283   2.8414   2.8962   3.2181   3.3363
     3.6292   3.7277   3.8441   3.9496   4.2656   4.2822   4.4519   4.5027
     4.5209   4.6880   4.8009   4.8491   4.8805   5.0827   5.2759   5.4564
     5.6140   5.8597   5.9253   6.2448   6.5113   6.5879   6.6756   6.8214
     6.9216   7.0260   7.1623   7.3217   7.4856   7.6194   7.8114   7.9266
     8.0408   8.3033   8.3942   8.4228   8.6084   8.7374   8.9675   9.0766
     9.1446   9.2008   9.3362   9.4883   9.7930   9.8782  10.0254  10.0886
    10.1504  10.2092  10.4125  10.5225  10.7103  10.7830  10.8983  10.9940
    11.0835  11.1507  11.2098  11.2600  11.2960  11.3598  11.4518  11.5101
    11.5682  11.6258  11.6496  11.7033  11.8748  11.9334  11.9660  12.0705
    12.1084  12.2056  12.2444  12.3103  12.3700  12.4821  12.4982  12.5079
    12.6206  12.6703  12.7562  12.8486  12.8948  12.9421  12.9998  13.1125
    13.1273  13.2721  13.3525  13.3903  13.4622  13.5125  13.6088  13.6290
    13.6772  13.7488  13.7672  13.8467  13.9232  13.9691  13.9839  14.0629
    14.1409  14.2073  14.3537  14.3805  14.4981  14.5466  14.6195  14.7301
    14.7529  14.8306  14.8497  14.8819  14.9829  15.0330  15.1096  15.2083
    15.3427  15.3859  15.4222  15.4785  15.5955  15.6262  15.7021  15.7354
    15.7764  15.8696  15.8934  16.1158  16.1962  16.2555  16.4148  16.5321
    16.5430  16.5787  16.6352  16.7155  16.7337  16.8213  17.0308  17.0435
    17.1294  17.1902  17.2036  17.2356  17.3666  17.4411  17.4683  17.4923
    17.5626  17.6171  17.6841  17.7526  17.7914  17.8676  17.8963  17.9418
    17.9478  18.0636  18.1314  18.1810  18.1928  18.3045  18.4187  18.4256
    18.5278  18.6234  18.6695  18.7734  18.7812  18.9022  18.9497

          k =-0.5000 0.0000 0.0000 ( 29982 PWs)   bands (ev):

   -60.2707 -60.2688 -60.0290 -59.8107 -59.0868 -59.0679 -58.7554 -58.7552
   -36.6194 -36.5979 -36.4727 -36.4666 -36.3864 -36.3850 -36.3833 -36.2372
   -36.1806 -36.0658 -36.0337 -36.0259 -35.4770 -35.4634 -35.3736 -35.3519
   -35.1900 -35.1704 -35.0647 -35.0642 -35.0199 -35.0124 -34.9459 -34.9411
   -24.6737 -21.0107 -20.9509 -20.2385 -19.4760 -19.3251 -19.2964 -19.2760
   -19.0612 -18.9126 -18.8504 -18.7957 -18.7653 -18.6928 -18.6917 -18.0172
   -18.0068 -17.6909 -17.6900 -17.6782  -9.5115  -8.7913  -8.6983  -7.8608
    -7.2857  -7.0242  -6.9946  -6.9244  -6.8443  -6.8370  -6.6840  -6.6694
    -6.6395  -6.6001  -6.4384  -6.3045  -6.2510  -5.9497  -5.8526  -5.7090
    -5.6926  -5.6664  -5.5404  -5.3831  -5.1463  -5.1099  -5.0799  -4.9202
    -4.8795  -4.8020  -4.7773  -4.5078  -4.4922  -4.4310  -4.2968  -4.2461
    -4.1639  -4.0947  -3.9518  -3.9010  -3.7971  -3.7665  -3.7605  -3.7424
    -3.6381  -3.6124  -3.5864  -3.4466  -3.1434  -3.0911  -3.0266  -2.9725
    -2.5057  -2.4990  -2.4374  -2.4161  -2.3681  -2.3480  -2.1878   0.0743
     0.2333   0.2849   0.4063   0.4791   0.4930   0.6102   0.6762   0.8858
     0.9228   0.9302   0.9625   1.0674   1.0983   1.4263   1.5351   1.5659
     1.5928   1.7248   2.0453   2.0832   2.1544   2.2878   2.2895   2.2961
     2.4170   2.6001   2.6505   2.9143   2.9182   3.1862   3.3410   3.5078
     3.7944   3.8286   3.9083   3.9346   3.9397   3.9511   4.1263   4.2101
     4.3612   4.3895   4.6286   4.6294   4.8419   4.8832   5.2235   5.2613
     5.7772   5.8857   6.3826   6.5974   6.8768   6.8870   7.2049   7.3004
     7.4560   7.6154   7.6445   7.6977   7.8696   7.9432   7.9869   8.0896
     8.1058   8.1553   8.1883   8.2654   8.3416   8.5308   8.5934   8.7061
     8.8187   8.8330   9.0561   9.2625   9.3794   9.4119   9.5599   9.6108
     9.6939   9.8159   9.8584  10.0440  10.1167  10.2060  10.3622  10.4534
    10.5153  10.5364  10.6048  10.8661  10.8781  10.9980  11.0513  11.1066
    11.2570  11.2829  11.4252  11.7176  11.8137  11.8696  11.9928  12.0204
    12.1301  12.1590  12.2716  12.3837  12.4650  12.5137  12.6698  12.7451
    12.8208  12.8982  13.0304  13.0652  13.0983  13.1489  13.2203  13.2816
    13.4047  13.4629  13.6032  13.6203  13.6630  13.7703  13.9178  13.9842
    14.0946  14.2195  14.2509  14.3506  14.4027  14.4220  14.4661  14.5412
    14.5559  14.6022  14.6691  14.8075  15.0194  15.0263  15.0756  15.1379
    15.3994  15.5014  15.5285  15.5647  15.6734  15.7134  15.8200  15.8542
    15.8665  15.9087  15.9794  16.0980  16.1310  16.1471  16.2418  16.2712
    16.3650  16.4170  16.4412  16.4715  16.4986  16.5346  16.5500  16.6206
    16.6463  16.6918  16.7420  16.7805  16.8263  16.9547  16.9682  17.0048
    17.0293  17.1255  17.1664  17.2550  17.2735  17.3947  17.4194  17.5964
    17.6309  17.6397  17.6881  17.7255  17.8309  17.8629  18.1035  18.1420
    18.1715  18.2779  18.3001  18.3238  18.3965  18.4351  18.4463  18.4692
    18.5129  18.5374  18.5805  18.6370  18.7042  18.7232  18.8178

          k =-0.5000 0.2258 0.0000 ( 29954 PWs)   bands (ev):

   -60.2707 -60.2688 -60.0289 -59.8107 -59.0868 -59.0679 -58.7554 -58.7552
   -36.6195 -36.5980 -36.4727 -36.4666 -36.3862 -36.3847 -36.3830 -36.2377
   -36.1799 -36.0652 -36.0343 -36.0256 -35.4762 -35.4626 -35.3748 -35.3531
   -35.1900 -35.1704 -35.0649 -35.0648 -35.0199 -35.0124 -34.9459 -34.9411
   -24.6737 -21.0083 -20.9487 -20.2335 -19.4157 -19.2923 -19.2470 -19.2147
   -19.0839 -18.9070 -18.8735 -18.8570 -18.8326 -18.7474 -18.7367 -18.0120
   -18.0000 -17.7127 -17.6891 -17.6552  -9.5071  -8.7826  -8.6893  -7.8667
    -7.2850  -6.9659  -6.8537  -6.8261  -6.6703  -6.6270  -6.6134  -6.5998
    -6.5852  -6.5018  -6.3464  -6.2422  -6.1926  -5.9558  -5.8614  -5.7442
    -5.6658  -5.6225  -5.5737  -5.3973  -5.3204  -5.2961  -5.2307  -5.0834
    -4.9542  -4.7964  -4.7370  -4.5383  -4.5084  -4.4484  -4.3504  -4.3145
    -4.1731  -4.1697  -4.1075  -4.0843  -4.0389  -3.9840  -3.8396  -3.8192
    -3.6778  -3.6143  -3.5710  -3.4745  -3.0285  -2.9948  -2.9554  -2.9271
    -2.6168  -2.5428  -2.4845  -2.4130  -2.3462  -2.2709  -2.1442   0.0957
     0.2352   0.2538   0.3532   0.4363   0.5659   0.6109   0.8199   0.8588
     0.9526   1.0912   1.1108   1.2494   1.3436   1.3616   1.5295   1.6701
     1.7229   1.7838   1.9986   2.0487   2.1358   2.2810   2.3059   2.3191
     2.3622   2.6430   2.6827   2.7527   2.7958   2.9007   3.0982   3.3761
     3.7616   3.8030   3.9864   4.0028   4.0408   4.1668   4.2114   4.4075
     4.5243   4.5678   4.7527   4.7935   4.8929   4.9938   5.3849   5.4307
     5.8946   5.9111   6.1633   6.2388   6.2980   6.4158   6.6598   6.7063
     6.7709   7.0144   7.1420   7.3164   7.3352   7.5030   7.7854   7.8825
     8.0627   8.2741   8.3130   8.5409   8.6909   8.7373   8.9243   8.9433
     9.1838   9.2739   9.3542   9.4937   9.6434   9.7615   9.9051   9.9941
    10.0528  10.0652  10.1282  10.2017  10.3365  10.4339  10.5178  10.5608
    10.8155  10.8905  10.9427  11.0548  11.1939  11.2566  11.3141  11.4630
    11.4994  11.6711  11.7725  11.8570  11.9798  11.9937  12.1749  12.2385
    12.2945  12.4256  12.4486  12.5278  12.6385  12.6718  12.8361  12.8635
    12.9503  13.0061  13.1503  13.2272  13.2577  13.3209  13.4113  13.4456
    13.5063  13.5849  13.6299  13.6646  13.7800  13.8084  13.9406  13.9994
    14.0530  14.0941  14.1502  14.2115  14.2937  14.3189  14.3770  14.3943
    14.5465  14.5714  14.6346  14.6622  14.8482  14.8838  14.9388  14.9515
    14.9790  15.0111  15.0672  15.0862  15.1556  15.1806  15.1937  15.2456
    15.3387  15.4321  15.4620  15.5037  15.5913  15.6498  15.7134  15.7506
    15.7922  15.8135  15.8672  15.8978  16.0374  16.1097  16.1640  16.2244
    16.3110  16.3918  16.4599  16.5194  16.5559  16.6102  16.7038  16.8062
    16.8491  16.8863  16.9462  16.9903  17.1128  17.1288  17.1965  17.2722
    17.3302  17.3882  17.4386  17.4645  17.5756  17.6805  17.7708  17.8458
    17.8968  17.9200  18.0298  18.1570  18.2576  18.3796  18.4623  18.5287
    18.5676  18.6190  18.6547  18.7288  18.7642  18.7867  18.8371

          k =-0.5000-0.4516 0.0000 ( 29868 PWs)   bands (ev):

   -60.2707 -60.2688 -60.0289 -59.8107 -59.0868 -59.0679 -58.7555 -58.7553
   -36.6196 -36.5981 -36.4727 -36.4666 -36.3861 -36.3845 -36.3827 -36.2382
   -36.1792 -36.0646 -36.0350 -36.0252 -35.4754 -35.4618 -35.3760 -35.3543
   -35.1900 -35.1704 -35.0655 -35.0650 -35.0199 -35.0124 -34.9459 -34.9411
   -24.6736 -21.0060 -20.9464 -20.2285 -19.3096 -19.2534 -19.2387 -19.0839
   -19.0468 -19.0201 -18.9906 -18.8859 -18.8335 -18.8227 -18.7856 -18.0074
   -17.9940 -17.7235 -17.6883 -17.6431  -9.5025  -8.7738  -8.6801  -7.8725
    -7.2847  -6.9564  -6.8015  -6.7861  -6.6204  -6.4309  -6.3631  -6.3125
    -6.2902  -6.2697  -6.1961  -6.1827  -6.1474  -5.9332  -5.8453  -5.8300
    -5.7684  -5.6849  -5.5758  -5.5696  -5.5109  -5.4758  -5.3916  -5.1315
    -4.9686  -4.8126  -4.6495  -4.6302  -4.6059  -4.5805  -4.5561  -4.4654
    -4.4003  -4.3789  -4.2285  -4.1999  -4.1322  -4.1103  -3.9824  -3.7241
    -3.6390  -3.5783  -3.5250  -3.4259  -2.9873  -2.9133  -2.9017  -2.8510
    -2.7286  -2.6130  -2.4657  -2.4292  -2.2832  -2.2403  -2.1115   0.1269
     0.2297   0.2349   0.3167   0.4327   0.5903   0.6139   0.8474   0.8489
     1.0706   1.1424   1.1707   1.2800   1.6354   1.6721   1.7038   1.7630
     1.8080   1.8230   1.9384   2.0560   2.1682   2.2955   2.3183   2.3297
     2.3414   2.4609   2.4913   2.5142   2.7093   2.7326   2.7844   3.4667
     3.8532   3.8979   3.9089   3.9652   4.0679   4.2966   4.3066   4.7075
     4.7346   4.9074   4.9457   4.9491   5.2677   5.2878   5.4493   5.4541
     5.5332   5.5451   5.7900   5.8148   5.9850   6.0540   6.2993   6.4011
     6.5005   6.7411   6.9062   7.1432   7.2081   7.5635   7.6124   7.8479
     7.8841   7.9979   8.2551   8.3743   8.4905   8.7103   8.7399   8.8847
     9.0939   9.1761   9.4618   9.5173   9.7360   9.8035  10.1169  10.2314
    10.5254  10.5546  10.7092  10.7507  10.7801  10.9224  10.9517  11.2598
    11.4320  11.5793  11.5998  11.7647  11.8359  11.8447  11.8887  12.0750
    12.0883  12.1741  12.2721  12.3023  12.3699  12.4182  12.4407  12.4488
    12.4845  12.6608  12.7093  12.7359  12.7557  12.7777  12.8529  12.8990
    13.0073  13.0343  13.0644  13.0744  13.1518  13.1785  13.2574  13.3033
    13.4205  13.4623  13.5193  13.5782  13.6157  13.6470  13.6838  13.7530
    13.7775  13.7904  13.9084  13.9566  13.9954  14.0133  14.0979  14.1069
    14.1841  14.2413  14.2680  14.3158  14.3210  14.3947  14.4459  14.4831
    14.4994  14.5284  14.6308  14.6811  14.7529  14.7849  14.8464  14.9722
    15.0066  15.0388  15.0727  15.1185  15.1374  15.1592  15.2556  15.3344
    15.4722  15.4947  15.6641  15.7779  15.8334  15.8560  15.9285  16.0310
    16.0804  16.0831  16.2003  16.2190  16.2453  16.2511  16.5447  16.5872
    16.6466  16.8745  16.9104  16.9632  16.9841  17.0036  17.0594  17.1691
    17.2359  17.2664  17.3760  17.4443  17.4737  17.5328  17.5968  17.6165
    17.8504  17.9773  18.0680  18.1153  18.1576  18.1769  18.2987  18.3215
    18.3640  18.5785  18.6195  18.6666  18.7969  18.8069  18.9337

          k =-0.2500 0.2258 0.0000 ( 29912 PWs)   bands (ev):

   -60.2824 -60.2560 -60.0291 -59.8096 -59.0937 -59.0599 -58.7689 -58.7408
   -36.7438 -36.5200 -36.4861 -36.4028 -36.3957 -36.3875 -36.3732 -36.3003
   -36.1872 -36.0622 -36.0254 -35.9664 -35.6238 -35.4022 -35.3265 -35.3120
   -35.1965 -35.1768 -35.1458 -35.0762 -35.0538 -34.9980 -34.9280 -34.8316
   -24.6737 -21.1243 -20.8903 -20.2072 -19.6162 -19.5280 -19.1582 -19.0676
   -19.0107 -18.9796 -18.9229 -18.8392 -18.7749 -18.6703 -18.6041 -18.2340
   -17.9094 -17.6895 -17.6230 -17.5792  -9.5068  -8.8731  -8.6017  -7.8689
    -7.2694  -7.2375  -7.0550  -6.9917  -6.9682  -6.6103  -6.5825  -6.4178
    -6.3893  -6.3784  -6.3071  -6.2341  -6.1744  -6.1019  -6.0682  -5.8386
    -5.7667  -5.6780  -5.5475  -5.4935  -5.3686  -5.1437  -4.9707  -4.8638
    -4.8097  -4.7639  -4.6241  -4.5941  -4.5343  -4.4714  -4.3902  -4.2958
    -4.2325  -4.2049  -4.1659  -4.0759  -4.0294  -3.8472  -3.8065  -3.7269
    -3.6810  -3.5300  -3.3501  -3.2239  -3.0488  -2.9296  -2.9183  -2.8012
    -2.7118  -2.6629  -2.6039  -2.4129  -2.2909  -2.1838  -2.1366  -0.0205
     0.0901   0.1847   0.3273   0.4719   0.5930   0.6433   0.6973   0.8566
     0.9218   1.0040   1.0918   1.2112   1.3667   1.5308   1.5841   1.6233
     1.6877   1.8662   1.9510   2.0167   2.1190   2.1968   2.2120   2.3715
     2.4512   2.5592   2.6819   2.7163   2.8072   2.8785   3.1389   3.4975
     3.6084   3.6884   3.7821   3.9719   4.0676   4.0899   4.1872   4.2518
     4.4795   4.6241   4.7869   4.8545   5.1751   5.2090   5.5418   5.6290
     5.6592   5.9422   6.0458   6.2176   6.4089   6.5758   6.6790   7.0196
     7.1021   7.2745   7.5105   7.5641   7.7033   7.9198   7.9910   8.1158
     8.2061   8.3450   8.4831   8.5532   8.6863   8.8045   8.9046   9.0129
     9.1232   9.2197   9.2614   9.3753   9.4847   9.6616   9.7213   9.7775
     9.8572   9.9995  10.1731  10.2712  10.3224  10.3922  10.4789  10.5401
    10.6642  10.7926  10.9054  10.9653  11.0111  11.1284  11.2019  11.3057
    11.3780  11.4384  11.5081  11.5905  11.6332  11.7338  11.8100  11.9162
    12.0039  12.1371  12.1732  12.2495  12.2814  12.3269  12.4153  12.4889
    12.5321  12.6195  12.7015  12.7808  12.8247  12.9693  12.9962  13.0490
    13.1357  13.2431  13.2920  13.3506  13.4672  13.5598  13.6520  13.7803
    13.8429  13.9306  14.0039  14.0808  14.1347  14.2197  14.2876  14.3098
    14.3477  14.4328  14.5199  14.6131  14.6536  14.7236  14.8029  14.8865
    14.9314  15.0708  15.1119  15.1950  15.2485  15.3427  15.3931  15.4263
    15.5091  15.5720  15.6452  15.6940  15.7054  15.8126  15.8726  15.9520
    16.0104  16.1383  16.1723  16.1985  16.2626  16.3510  16.4308  16.4965
    16.5239  16.5639  16.6456  16.7199  16.7791  16.8102  16.8798  16.9669
    17.0681  17.1286  17.2004  17.2573  17.3051  17.3415  17.4321  17.4727
    17.5686  17.6155  17.6884  17.8363  17.8914  17.9778  18.0437  18.0826
    18.1724  18.2155  18.3200  18.3713  18.4253  18.5078  18.5655  18.6100
    18.6521  18.7433  18.8079  18.8735  18.9597  19.0763  19.1172

     the Fermi energy is    -2.1212 ev

!    total energy              =   -1598.61707219 Ry
     Harris-Foulkes estimate   =   -1598.61707224 Ry
     estimated scf accuracy    <       0.00000006 Ry

     The total energy is the sum of the following terms:

     one-electron contribution =  -19198.37813109 Ry
     hartree contribution      =    9622.56838438 Ry
     xc contribution           =    -284.66446295 Ry
     ewald contribution        =    8260.18478952 Ry
     Hubbard energy            =       1.67379175 Ry
     smearing contrib. (-TS)   =      -0.00144380 Ry

     convergence has been achieved in  30 iterations

     Forces acting on atoms (Ry/au):


     negative rho (up, down):  0.105E+00 0.000E+00
     atom    1 type  1   force =    -0.00146507   -0.01256721   -0.00869670
     atom    2 type  1   force =     0.00006379    0.01707734   -0.00681243
     atom    3 type  2   force =     0.05630014   -0.00971874   -0.00599727
     atom    4 type  2   force =    -0.00207716    0.00739080   -0.00212267
     atom    5 type  1   force =    -0.00235904   -0.08360046   -0.00028002
     atom    6 type  1   force =    -0.00562293    0.08397978    0.00000237
     atom    7 type  1   force =     0.00008911   -0.00067840   -0.00820581
     atom    8 type  1   force =     0.00187387   -0.00058009    0.00499006
     atom    9 type  2   force =    -0.00002633   -0.00045639   -0.00904525
     atom   10 type  2   force =    -0.00003621    0.00097113    0.01653919
     atom   11 type  1   force =    -0.02021240   -0.01640207   -0.00051704
     atom   12 type  1   force =    -0.01662432    0.02023241    0.00026402
     atom   13 type  1   force =     0.00027370   -0.00174000    0.01299742
     atom   14 type  1   force =    -0.00291123   -0.01216834   -0.00930171
     atom   15 type  1   force =     0.00011491    0.01500345   -0.00625712
     atom   16 type  2   force =    -0.05607759   -0.01029614   -0.00599532
     atom   17 type  2   force =    -0.00245642    0.00651885   -0.00227453
     atom   18 type  1   force =     0.00749057   -0.08351729   -0.00025467
     atom   19 type  1   force =     0.00528729    0.08441454    0.00012176
     atom   20 type  1   force =    -0.00008926   -0.00030377    0.01252140
     atom   21 type  1   force =     0.00193950   -0.00012507    0.00608732
     atom   22 type  2   force =    -0.00092255   -0.00041055   -0.00902496
     atom   23 type  2   force =    -0.00001755   -0.00464496   -0.00862203
     atom   24 type  1   force =     0.02042095   -0.01636362   -0.00049725
     atom   25 type  1   force =     0.01648748    0.02009219    0.00025151
     atom   26 type  1   force =     0.00034668   -0.00449620    0.01283756
     atom   27 type  3   force =     0.00001674    0.00013756    0.00085964
     atom   28 type  3   force =    -0.00006163    0.00018160    0.00164264
     atom   29 type  3   force =    -0.00000201   -0.00046513    0.00225504
     atom   30 type  3   force =     0.00025539   -0.00049569    0.00170483
     atom   31 type  1   force =     0.00013668    0.00445487    0.01154419
     atom   32 type  1   force =    -0.00015288   -0.00176865    0.00009767
     atom   33 type  3   force =     0.00001778    0.00034425   -0.00081184

     Total force =     0.040375     Total SCF correction =     0.000588

     BFGS Geometry Optimization

     number of scf cycles    =   1
     number of bfgs steps    =   0

     energy   new            =   -1598.6170721940 Ry

     new trust radius        =       0.0165391917 bohr
     new conv_thr            =       0.0000010000 Ry


ATOMIC_POSITIONS (crystal)
O0       0.000000000   0.000000000   0.377846833    0   0   1
O0       0.000000000   0.500000000   0.399164352    0   0   1
Ti1      0.250000000   0.500000000   0.450980584    0   0   1
Ti1      0.000000000   0.000000000   0.451787734    0   0   1
O0       0.250000000   0.810000000   0.449964424    0   0   1
O0       0.250000000   0.190000000   0.450890047    0   0   1
O0       0.000000000   0.500000000   0.498196608    0   0   1
O0       0.000000000   0.000000000   0.525809361    0   0   1
Ti1      0.250000000   0.000000000   0.580369893    0   0   1
Ti1      0.000000000   0.500000000   0.568289325    0   0   1
O0       0.250000000   0.690000000   0.578349705    0   0   1
O0       0.250000000   0.310000000   0.579415257    0   0   1
O0       0.000000000   0.000000000   0.622208802    0   0   1
O0       0.500000000   0.000000000   0.378584786    0   0   1
O0       0.500000000   0.500000000   0.398825410    0   0   1
Ti1      0.750000000   0.500000000   0.450990623    0   0   1
Ti1      0.500000000   0.000000000   0.453174710    0   0   1
O0       0.750000000   0.810000000   0.449904929    0   0   1
O0       0.750000000   0.190000000   0.450932424    0   0   1
O0       0.500000000   0.500000000   0.495979323    0   0   1
O0       0.500000000   0.000000000   0.526011209    0   0   1
Ti1      0.750000000   0.000000000   0.580370297    0   0   1
Ti1      0.500000000   0.500000000   0.585008320    0   0   1
O0       0.750000000   0.690000000   0.578340099    0   0   1
O0       0.750000000   0.310000000   0.579395008    0   0   1
O0       0.500000000   0.000000000   0.621875619    0   0   1
H2      -0.000458509   0.626041070   0.378847117
H2       0.499714509   0.624924614   0.378122708
H2       0.148999821   0.033002571   0.363654902
H2       0.648302752   0.034450112   0.364293946
O0       0.500310000   0.527318482   0.658019865    0   1   1
O0       0.499120000   0.349987677   0.688051945    0   1   1
H2       0.500360000   0.413277702   0.721813835    0   1   1


     Check: negative starting charge=   -0.102033
     NEW-OLD atomic charge density approx. for the potential

     Check: negative/imaginary core charge=   -0.000006    0.000000
     Check: negative starting charge=   -0.101865

     negative rho (up, down):  0.104E+00 0.000E+00
 Atomic wfc used for LDA+U Projector are NOT orthogonalized

     total cpu time spent up to now is     7284.3 secs

     per-process dynamical memory:   443.2 Mb

     Self-consistent Calculation

     iteration #  1     ecut=    40.00 Ry     beta=0.70
     Davidson diagonalization with overlap
     ethr =  1.00E-06,  avg # of iterations =  4.7
 --- enter write_ns ---
 LDA+U parameters:
U( 2)     =  3.00000000
alpha( 2) =  0.00000000
atom    3   Tr[ns(na)] =   2.74844
    eigenvalues: 
  0.168  0.178  0.202  0.398  0.428
    eigenvectors:
  0.667  0.110  0.037  0.168  0.019
  0.002  0.001  0.001  0.162  0.833
  0.143  0.259  0.597  0.000  0.000
  0.158  0.022  0.006  0.669  0.145
  0.030  0.609  0.359  0.000  0.002
    occupations:
  0.214  0.005 -0.005  0.090  0.001
  0.005  0.422  0.002 -0.015  0.012
 -0.005  0.002  0.191  0.007 -0.012
  0.090 -0.015  0.007  0.360 -0.001
  0.001  0.012 -0.012 -0.001  0.187
atom    4   Tr[ns(na)] =   2.84698
    eigenvalues: 
  0.160  0.195  0.214  0.421  0.434
    eigenvectors:
  0.006  0.003  0.000  0.000  0.991
  0.001  0.894  0.102  0.000  0.003
  0.001  0.101  0.898  0.000  0.000
  0.992  0.002  0.000  0.000  0.006
  0.000  0.000  0.000  1.000  0.000
    occupations:
  0.431  0.013  0.004 -0.021  0.000
  0.013  0.198 -0.005  0.000 -0.002
  0.004 -0.005  0.212  0.001  0.000
 -0.021  0.000  0.001  0.162  0.000
  0.000 -0.002  0.000  0.000  0.421
atom    9   Tr[ns(na)] =   2.84415
    eigenvalues: 
  0.167  0.210  0.227  0.379  0.440
    eigenvectors:
  0.000  0.001  0.918  0.082  0.000
  0.000  0.000  0.000  0.000  1.000
  1.000  0.000  0.000  0.000  0.000
  0.000  0.000  0.082  0.918  0.000
  0.000  0.999  0.001  0.000  0.000
    occupations:
  0.239  0.001  0.001  0.042  0.000
  0.001  0.440  0.000 -0.001  0.000
  0.001  0.000  0.167  0.001  0.000
  0.042 -0.001  0.001  0.366  0.000
  0.000  0.000  0.000  0.000  0.210
atom   10   Tr[ns(na)] =   2.77668
    eigenvalues: 
  0.169  0.214  0.228  0.339  0.439
    eigenvectors:
  0.016  0.000  0.000  0.984  0.000
  0.000  0.000  1.000  0.000  0.000
  0.000  1.000  0.000  0.000  0.000
  0.983  0.000  0.000  0.016  0.000
  0.000  0.000  0.000  0.000  1.000
    occupations:
  0.336  0.000 -0.001 -0.021  0.000
  0.000  0.228  0.000  0.000  0.002
 -0.001  0.000  0.214 -0.001  0.000
 -0.021  0.000 -0.001  0.172  0.000
  0.000  0.002  0.000  0.000  0.439
atom   16   Tr[ns(na)] =   2.74867
    eigenvalues: 
  0.168  0.179  0.202  0.397  0.428
    eigenvectors:
  0.676  0.101  0.037  0.168  0.019
  0.002  0.001  0.001  0.162  0.834
  0.136  0.264  0.600  0.000  0.000
  0.160  0.019  0.006  0.670  0.145
  0.026  0.615  0.357  0.000  0.002
    occupations:
  0.214 -0.005 -0.005  0.090 -0.002
 -0.005  0.422 -0.002  0.015  0.012
 -0.005 -0.002  0.191  0.007  0.012
  0.090  0.015  0.007  0.360  0.001
 -0.002  0.012  0.012  0.001  0.187
atom   17   Tr[ns(na)] =   2.84597
    eigenvalues: 
  0.159  0.197  0.215  0.417  0.436
    eigenvectors:
  0.006  0.002  0.000  0.000  0.991
  0.001  0.907  0.090  0.000  0.002
  0.000  0.090  0.910  0.000  0.000
  0.993  0.001  0.000  0.000  0.006
  0.000  0.000  0.000  1.000  0.000
    occupations:
  0.433  0.012  0.004 -0.021  0.000
  0.012  0.199 -0.005  0.000 -0.002
  0.004 -0.005  0.213  0.001  0.000
 -0.021  0.000  0.001  0.160  0.000
  0.000 -0.002  0.000  0.000  0.417
atom   22   Tr[ns(na)] =   2.84418
    eigenvalues: 
  0.167  0.210  0.227  0.379  0.440
    eigenvectors:
  0.000  0.000  0.918  0.082  0.000
  0.000  0.000  0.000  0.000  1.000
  1.000  0.000  0.000  0.000  0.000
  0.000  0.000  0.082  0.918  0.000
  0.000  1.000  0.000  0.000  0.000
    occupations:
  0.239 -0.001  0.001  0.042  0.000
 -0.001  0.440  0.000  0.001  0.000
  0.001  0.000  0.167  0.001  0.000
  0.042  0.001  0.001  0.366  0.000
  0.000  0.000  0.000  0.000  0.210
atom   23   Tr[ns(na)] =   2.75883
    eigenvalues: 
  0.164  0.171  0.235  0.368  0.442
    eigenvectors:
  0.003  0.004  0.000  0.992  0.000
  0.000  0.000  1.000  0.000  0.000
  0.819  0.180  0.000  0.001  0.000
  0.177  0.816  0.000  0.007  0.000
  0.000  0.000  0.000  0.000  1.000
    occupations:
  0.367  0.000  0.005 -0.017  0.000
  0.000  0.235  0.000  0.000 -0.001
  0.005  0.000  0.165  0.002  0.000
 -0.017  0.000  0.002  0.171  0.000
  0.000 -0.001  0.000  0.000  0.442
N of occupied +U levels =  22.4138846
 --- exit write_ns ---

     negative rho (up, down):  0.105E+00 0.000E+00

     total cpu time spent up to now is     7613.1 secs

     total energy              =   -1598.57088970 Ry
     Harris-Foulkes estimate   =   -1598.61893320 Ry
     estimated scf accuracy    <       0.05515977 Ry

     iteration #  2     ecut=    40.00 Ry     beta=0.70
     Davidson diagonalization with overlap
     ethr =  2.50E-05,  avg # of iterations =  5.2

     negative rho (up, down):  0.108E+00 0.000E+00

     total cpu time spent up to now is     7902.7 secs

     total energy              =   -1598.29556512 Ry
     Harris-Foulkes estimate   =   -1598.87560210 Ry
     estimated scf accuracy    <       5.21719321 Ry

     iteration #  3     ecut=    40.00 Ry     beta=0.70
     Davidson diagonalization with overlap
     ethr =  2.50E-05,  avg # of iterations =  5.8

     negative rho (up, down):  0.105E+00 0.000E+00

     total cpu time spent up to now is     8193.7 secs

     total energy              =   -1598.61350745 Ry
     Harris-Foulkes estimate   =   -1598.66834729 Ry
     estimated scf accuracy    <       0.34875686 Ry

     iteration #  4     ecut=    40.00 Ry     beta=0.70
     Davidson diagonalization with overlap
     ethr =  2.50E-05,  avg # of iterations =  5.3

     negative rho (up, down):  0.105E+00 0.000E+00

     total cpu time spent up to now is     8430.8 secs

     total energy              =   -1598.62157003 Ry
     Harris-Foulkes estimate   =   -1598.62945952 Ry
     estimated scf accuracy    <       0.19720010 Ry

     iteration #  5     ecut=    40.00 Ry     beta=0.70
     Davidson diagonalization with overlap
     ethr =  2.50E-05,  avg # of iterations =  1.0

     negative rho (up, down):  0.105E+00 0.000E+00

     total cpu time spent up to now is     8625.8 secs

     total energy              =   -1598.61993716 Ry
     Harris-Foulkes estimate   =   -1598.62359148 Ry
     estimated scf accuracy    <       0.18159565 Ry

     iteration #  6     ecut=    40.00 Ry     beta=0.70
     Davidson diagonalization with overlap
     ethr =  2.50E-05,  avg # of iterations =  1.0

     negative rho (up, down):  0.105E+00 0.000E+00

     total cpu time spent up to now is     8827.8 secs

     total energy              =   -1598.61749489 Ry
     Harris-Foulkes estimate   =   -1598.62085147 Ry
     estimated scf accuracy    <       0.12634148 Ry

     iteration #  7     ecut=    40.00 Ry     beta=0.70
     Davidson diagonalization with overlap
     ethr =  2.50E-05,  avg # of iterations =  1.0

     negative rho (up, down):  0.105E+00 0.000E+00

     total cpu time spent up to now is     9025.9 secs

     total energy              =   -1598.61779925 Ry
     Harris-Foulkes estimate   =   -1598.61846113 Ry
     estimated scf accuracy    <       0.01559193 Ry

     iteration #  8     ecut=    40.00 Ry     beta=0.70
     Davidson diagonalization with overlap
     ethr =  7.06E-06,  avg # of iterations =  5.5

     negative rho (up, down):  0.104E+00 0.000E+00

     total cpu time spent up to now is     9268.2 secs

     total energy              =   -1598.61814538 Ry
     Harris-Foulkes estimate   =   -1598.61837033 Ry
     estimated scf accuracy    <       0.00922822 Ry

     iteration #  9     ecut=    40.00 Ry     beta=0.70
     Davidson diagonalization with overlap
     ethr =  4.18E-06,  avg # of iterations =  1.3

     negative rho (up, down):  0.104E+00 0.000E+00

     total cpu time spent up to now is     9468.3 secs

     total energy              =   -1598.61825629 Ry
     Harris-Foulkes estimate   =   -1598.61826707 Ry
     estimated scf accuracy    <       0.00004365 Ry

     iteration # 10     ecut=    40.00 Ry     beta=0.70
     Davidson diagonalization with overlap
     ethr =  1.98E-08,  avg # of iterations =  2.0

     negative rho (up, down):  0.104E+00 0.000E+00

     total cpu time spent up to now is     9676.7 secs

     total energy              =   -1598.61825843 Ry
     Harris-Foulkes estimate   =   -1598.61826505 Ry
     estimated scf accuracy    <       0.00029798 Ry

     iteration # 11     ecut=    40.00 Ry     beta=0.70
     Davidson diagonalization with overlap
     ethr =  1.98E-08,  avg # of iterations =  1.0

     negative rho (up, down):  0.104E+00 0.000E+00

     total cpu time spent up to now is     9871.1 secs

     total energy              =   -1598.61825960 Ry
     Harris-Foulkes estimate   =   -1598.61826188 Ry
     estimated scf accuracy    <       0.00001581 Ry

     iteration # 12     ecut=    40.00 Ry     beta=0.70
     Davidson diagonalization with overlap
     ethr =  7.16E-09,  avg # of iterations =  1.0

[...]
   -35.2457 -35.2260 -35.0740 -35.0736 -35.0021 -34.9968 -34.9355 -34.9337
   -24.8513 -21.0704 -21.0465 -20.2206 -19.5449 -19.3598 -19.3466 -19.3291
   -19.1193 -18.9183 -18.8815 -18.8593 -18.8415 -18.7454 -18.7437 -17.9626
   -17.9583 -17.6813 -17.6173 -17.6168  -9.5735  -8.8127  -8.7413  -7.9144
    -7.2911  -7.0524  -7.0403  -6.9800  -6.8983  -6.8869  -6.7308  -6.6738
    -6.6584  -6.6253  -6.4892  -6.3863  -6.3153  -5.9853  -5.9536  -5.7510
    -5.6927  -5.6669  -5.6021  -5.4154  -5.1866  -5.1710  -5.1357  -4.9707
    -4.9277  -4.8092  -4.7621  -4.5193  -4.5067  -4.4448  -4.3202  -4.2467
    -4.1546  -4.1432  -4.0310  -3.9166  -3.8320  -3.8114  -3.8065  -3.7969
    -3.6177  -3.6022  -3.5610  -3.4900  -3.0985  -3.0776  -3.0084  -2.9377
    -2.4936  -2.4772  -2.4251  -2.4027  -2.3613  -2.3510  -2.1689  -0.0035
     0.1507   0.1689   0.3142   0.3745   0.3874   0.4401   0.5798   0.7836
     0.8054   0.8450   0.8788   0.9706   0.9780   1.4377   1.4717   1.5185
     1.5503   1.6224   1.9616   2.0165   2.0880   2.2485   2.2548   2.2750
     2.3624   2.4823   2.5235   2.8006   2.8318   3.1255   3.2929   3.4863
     3.7624   3.7636   3.8514   3.8661   3.8749   3.8883   4.0986   4.1927
     4.3821   4.4024   4.6009   4.6253   4.7760   4.8524   5.2331   5.2665
     5.7808   5.8875   6.3830   6.5940   6.8915   6.9040   7.2427   7.3224
     7.4440   7.5943   7.6340   7.6915   7.8580   7.9812   8.0190   8.1008
     8.1134   8.1694   8.1976   8.2826   8.3293   8.5223   8.6172   8.7252
     8.8400   8.8441   9.0597   9.2525   9.3752   9.4018   9.5445   9.6134
     9.6755   9.8026   9.8629  10.0309  10.1014  10.1962  10.3732  10.4421
    10.5135  10.5325  10.5896  10.8479  10.8828  10.9700  10.9846  11.0683
    11.2377  11.2841  11.3924  11.7051  11.8110  11.8629  11.9789  12.0068
    12.1275  12.1864  12.2464  12.3592  12.4134  12.4774  12.6357  12.6840
    12.8155  12.8773  13.0181  13.0621  13.0954  13.1643  13.2436  13.2921
    13.3853  13.4492  13.6068  13.6258  13.6651  13.7774  13.8928  13.9626
    14.0823  14.1923  14.2986  14.3400  14.3764  14.4132  14.4680  14.5236
    14.5537  14.5900  14.6654  14.7872  14.9895  14.9973  15.0542  15.1590
    15.2969  15.4893  15.5153  15.5347  15.6356  15.6775  15.7873  15.8413
    15.8610  15.8934  15.9528  16.0339  16.1112  16.1244  16.1978  16.2591
    16.3373  16.3880  16.4147  16.4636  16.4913  16.5242  16.5357  16.6355
    16.6577  16.6763  16.7424  16.7818  16.7930  16.9557  16.9865  16.9989
    17.0597  17.1144  17.1976  17.2533  17.2841  17.3700  17.4192  17.5976
    17.6284  17.6477  17.6939  17.7244  17.8487  17.8743  18.1248  18.1599
    18.1869  18.2637  18.2881  18.3302  18.4043  18.4378  18.4511  18.4760
    18.5161  18.5334  18.5710  18.6369  18.7099  18.7427  18.8014

          k =-0.5000 0.2258 0.0000 ( 29954 PWs)   bands (ev):

   -60.3821 -60.3801 -60.1229 -59.9243 -59.1602 -59.1429 -58.7561 -58.7558
   -36.7222 -36.7018 -36.5727 -36.5683 -36.4896 -36.4875 -36.4660 -36.3315
   -36.2722 -36.1638 -36.1568 -36.1219 -35.5508 -35.5369 -35.4467 -35.4289
   -35.2457 -35.2260 -35.0743 -35.0741 -35.0021 -34.9968 -34.9355 -34.9337
   -24.8512 -21.0681 -21.0443 -20.2149 -19.4862 -19.3163 -19.2910 -19.2765
   -19.1434 -18.9558 -18.9231 -18.9178 -18.8671 -18.7944 -18.7793 -17.9573
   -17.9546 -17.6949 -17.6162 -17.6024  -9.5684  -8.8037  -8.7317  -7.9223
    -7.2903  -6.9819  -6.8665  -6.8374  -6.7263  -6.7146  -6.6948  -6.6394
    -6.6178  -6.5096  -6.4018  -6.3174  -6.2588  -5.9835  -5.9436  -5.7721
    -5.7112  -5.6415  -5.6049  -5.4519  -5.3720  -5.3294  -5.2587  -5.1178
    -5.0001  -4.8038  -4.7398  -4.5366  -4.5146  -4.4592  -4.3871  -4.3158
    -4.2275  -4.2199  -4.1474  -4.1275  -4.0814  -4.0190  -3.9092  -3.8313
    -3.6878  -3.6100  -3.5723  -3.4777  -3.0060  -2.9520  -2.9231  -2.8995
    -2.5909  -2.5191  -2.4662  -2.3942  -2.3493  -2.2718  -2.1310   0.0182
     0.1443   0.1541   0.2598   0.3302   0.4292   0.4572   0.7391   0.7940
     0.7990   0.9876   1.0170   1.1761   1.2604   1.3157   1.4748   1.6246
     1.6709   1.7003   1.9405   1.9866   2.0798   2.2401   2.2622   2.2790
     2.3031   2.5441   2.5633   2.6559   2.6841   2.8563   3.0658   3.2985
     3.6802   3.7221   3.9236   3.9320   3.9833   4.1384   4.1862   4.3839
     4.5430   4.5797   4.7115   4.7485   4.8820   4.9878   5.3948   5.4367
     5.9045   5.9158   6.1771   6.2429   6.3255   6.4497   6.6731   6.7233
     6.7887   7.0177   7.1460   7.3431   7.3484   7.4862   7.7851   7.8897
     8.0474   8.2715   8.3013   8.5180   8.7032   8.7414   8.9138   8.9451
     9.1776   9.2529   9.3629   9.4913   9.6351   9.7396   9.9128   9.9820
    10.0363  10.0695  10.1443  10.2074  10.3159  10.4085  10.5202  10.5607
    10.7969  10.8918  10.9317  11.0550  11.1786  11.2562  11.3017  11.4325
    11.4698  11.6584  11.7640  11.8474  11.9734  11.9838  12.1718  12.2292
    12.3080  12.3994  12.4479  12.5131  12.6057  12.6388  12.8138  12.8478
    12.9396  12.9860  13.1343  13.2126  13.2562  13.3237  13.4036  13.4363
    13.4845  13.5846  13.6203  13.6493  13.7663  13.7835  13.9270  13.9869
    14.0563  14.0934  14.1134  14.1887  14.2855  14.3092  14.3684  14.4022
    14.5347  14.5397  14.6021  14.6664  14.7886  14.8494  14.8953  14.9579
    14.9722  15.0175  15.0721  15.0887  15.1558  15.1834  15.1948  15.2470
    15.3553  15.4442  15.4623  15.5092  15.5799  15.6392  15.6829  15.7368
    15.7912  15.8180  15.8777  15.8949  16.0111  16.0870  16.1509  16.2058
    16.2903  16.3974  16.4594  16.5060  16.5456  16.5967  16.6726  16.8020
    16.8353  16.8689  16.9385  16.9677  17.1083  17.1344  17.1924  17.2792
    17.3290  17.3771  17.4221  17.4590  17.5727  17.6771  17.7621  17.8464
    17.8886  17.9157  18.0191  18.1326  18.2526  18.3631  18.4744  18.5337
    18.5775  18.6270  18.6624  18.7287  18.7501  18.7917  18.8162

          k =-0.5000-0.4516 0.0000 ( 29868 PWs)   bands (ev):

   -60.3821 -60.3802 -60.1229 -59.9243 -59.1602 -59.1429 -58.7562 -58.7558
   -36.7223 -36.7019 -36.5727 -36.5683 -36.4892 -36.4872 -36.4661 -36.3320
   -36.2715 -36.1643 -36.1560 -36.1218 -35.5500 -35.5361 -35.4479 -35.4301
   -35.2457 -35.2260 -35.0748 -35.0743 -35.0020 -34.9967 -34.9354 -34.9337
   -24.8511 -21.0659 -21.0422 -20.2092 -19.3966 -19.2654 -19.2506 -19.1544
   -19.1211 -19.0959 -19.0591 -18.9317 -18.8808 -18.8491 -18.8066 -17.9525
   -17.9513 -17.7051 -17.6155 -17.5909  -9.5631  -8.7945  -8.7219  -7.9301
    -7.2902  -6.9737  -6.7791  -6.7620  -6.7232  -6.4732  -6.4360  -6.4055
    -6.3595  -6.3259  -6.2566  -6.2284  -6.2021  -5.9445  -5.9204  -5.8836
    -5.8198  -5.6919  -5.6295  -5.6081  -5.5805  -5.4898  -5.4017  -5.1533
    -4.9871  -4.8203  -4.7016  -4.6466  -4.6212  -4.6044  -4.5884  -4.4821
    -4.4214  -4.3964  -4.2764  -4.2462  -4.1589  -4.1319  -4.0647  -3.7087
    -3.6620  -3.5891  -3.5421  -3.4435  -2.9804  -2.8864  -2.8239  -2.8135
    -2.7153  -2.5712  -2.4456  -2.4092  -2.2918  -2.2386  -2.1011   0.0497
     0.1252   0.1497   0.2258   0.3442   0.4145   0.4681   0.7580   0.8075
     0.9119   1.0141   1.1122   1.2166   1.5593   1.6267   1.6706   1.6969
     1.7363   1.7652   1.8755   2.0049   2.1282   2.2294   2.2721   2.2786
     2.2865   2.3693   2.4065   2.4475   2.6086   2.6612   2.6916   3.3715
     3.7673   3.8063   3.8270   3.8763   4.0296   4.2768   4.2777   4.6590
     4.6790   4.8787   4.9510   4.9648   5.2671   5.2897   5.4697   5.4794
     5.5661   5.5720   5.8087   5.8308   5.9981   6.0703   6.3192   6.4173
     6.5131   6.7476   6.9195   7.1598   7.2189   7.5591   7.6130   7.8446
     7.8901   8.0304   8.2289   8.3621   8.4630   8.6772   8.7252   8.8414
     9.0988   9.1843   9.4549   9.5153   9.7029   9.7917  10.1032  10.2067
    10.5120  10.5403  10.6960  10.7224  10.7763  10.9155  10.9250  11.2570
    11.4622  11.5872  11.5974  11.7463  11.8305  11.8480  11.8794  12.0545
    12.0800  12.1624  12.2687  12.3014  12.3933  12.4216  12.4334  12.4488
    12.4813  12.6552  12.7059  12.7117  12.7503  12.7927  12.8402  12.8930
    12.9862  13.0121  13.0523  13.0656  13.1266  13.1558  13.2133  13.2947
    13.4203  13.4762  13.5000  13.5811  13.6122  13.6321  13.6738  13.7223
    13.7704  13.7746  13.8828  13.9660  13.9882  13.9956  14.0637  14.0724
    14.1330  14.2339  14.2642  14.2984  14.3304  14.3980  14.4325  14.4749
    14.4895  14.5227  14.6389  14.7126  14.7346  14.7638  14.8377  14.9645
    15.0027  15.0606  15.0951  15.1142  15.1381  15.1576  15.2547  15.3381
    15.4633  15.4872  15.6723  15.7762  15.8284  15.8645  15.9290  16.0212
    16.0674  16.0784  16.1844  16.2304  16.2522  16.2640  16.5314  16.5561
    16.5848  16.8516  16.8569  16.9336  16.9531  16.9645  17.0487  17.1434
    17.2249  17.2639  17.3521  17.4414  17.4537  17.4979  17.5824  17.6106
    17.8634  17.9780  18.0388  18.1149  18.1438  18.1699  18.3104  18.3287
    18.3856  18.5530  18.5808  18.6453  18.7953  18.8044  18.9428

          k =-0.2500 0.2258 0.0000 ( 29912 PWs)   bands (ev):

   -60.3935 -60.3676 -60.1232 -59.9230 -59.1674 -59.1346 -58.7693 -58.7417
   -36.8455 -36.6160 -36.5895 -36.5112 -36.4998 -36.4777 -36.4679 -36.4076
   -36.2805 -36.1494 -36.1238 -36.0827 -35.6979 -35.4755 -35.4009 -35.3866
   -35.2513 -35.2224 -35.1372 -35.0854 -35.0632 -34.9873 -34.9180 -34.8209
   -24.8512 -21.1932 -20.9705 -20.1968 -19.6618 -19.5871 -19.2278 -19.1502
   -19.0419 -19.0061 -18.9242 -18.9112 -18.8356 -18.7010 -18.6568 -18.1844
   -17.8626 -17.6885 -17.5522 -17.5119  -9.5680  -8.9033  -8.6413  -7.9257
    -7.2850  -7.2357  -7.0955  -7.0688  -7.0047  -6.6875  -6.6327  -6.4716
    -6.4425  -6.3808  -6.3627  -6.2984  -6.2173  -6.1541  -6.0968  -5.8847
    -5.8235  -5.6956  -5.5452  -5.5250  -5.3894  -5.1057  -4.9668  -4.8751
    -4.8584  -4.7937  -4.6721  -4.6564  -4.5583  -4.5051  -4.4245  -4.3413
    -4.2772  -4.2329  -4.2255  -4.1034  -4.0771  -3.8981  -3.8495  -3.7716
    -3.6817  -3.5462  -3.3466  -3.1982  -3.0138  -2.9160  -2.8847  -2.7794
    -2.6780  -2.6331  -2.5715  -2.3972  -2.2885  -2.1770  -2.1342  -0.1448
    -0.0106   0.0907   0.2252   0.3534   0.5224   0.5438   0.6083   0.7367
     0.7966   0.9134   1.0039   1.1218   1.3095   1.4647   1.5064   1.5526
     1.6053   1.8433   1.9257   1.9536   2.0481   2.1421   2.1738   2.3151
     2.3760   2.5031   2.5822   2.6541   2.7096   2.7674   3.0668   3.4548
     3.5607   3.6728   3.7528   3.9138   4.0065   4.0669   4.1468   4.2254
     4.4123   4.6276   4.7134   4.7977   5.1502   5.2125   5.5414   5.6584
     5.6788   5.9518   6.0518   6.2298   6.4088   6.5857   6.6889   7.0241
     7.1150   7.2915   7.4947   7.5655   7.7229   7.9311   8.0024   8.1108
     8.2080   8.3311   8.4811   8.5328   8.6819   8.7940   8.8942   8.9917
     9.1178   9.2058   9.2483   9.3642   9.4939   9.6571   9.7212   9.7583
     9.8498   9.9976  10.1611  10.2777  10.3289  10.3982  10.4632  10.5470
    10.6402  10.8058  10.8839  10.9595  11.0069  11.1211  11.1971  11.3019
    11.3814  11.4283  11.5094  11.5945  11.6400  11.7501  11.7983  11.9054
    12.0026  12.1181  12.1702  12.2313  12.2714  12.3092  12.4082  12.4813
    12.5330  12.6067  12.6966  12.7577  12.8010  12.9738  12.9875  13.0654
    13.1078  13.2453  13.2658  13.3419  13.4627  13.5713  13.6454  13.7839
    13.8337  13.9298  13.9695  14.0639  14.1129  14.2174  14.2793  14.3073
    14.3427  14.4110  14.5240  14.5952  14.6325  14.6865  14.7852  14.8626
    14.9147  15.0553  15.0845  15.1611  15.2108  15.3204  15.3677  15.4037
    15.4958  15.5553  15.6396  15.6836  15.6956  15.7832  15.8537  15.9360
    15.9935  16.1162  16.1561  16.1814  16.2574  16.3198  16.4287  16.4789
    16.5110  16.5712  16.6465  16.7145  16.7895  16.8240  16.8842  16.9531
    17.0577  17.1314  17.1784  17.2516  17.3218  17.3311  17.4354  17.4692
    17.5604  17.5994  17.6701  17.8174  17.9054  17.9762  18.0301  18.0801
    18.1629  18.2076  18.3071  18.3694  18.4235  18.4976  18.5765  18.6249
    18.6643  18.7445  18.8004  18.8743  18.9614  19.0850  19.1130

     the Fermi energy is    -2.1188 ev

!    total energy              =   -1598.61983007 Ry
     Harris-Foulkes estimate   =   -1598.61983007 Ry
     estimated scf accuracy    <          4.1E-09 Ry

     The total energy is the sum of the following terms:

     one-electron contribution =  -19186.09373694 Ry
     hartree contribution      =    9616.05167160 Ry
     xc contribution           =    -284.56217808 Ry
     ewald contribution        =    8254.31798091 Ry
     Hubbard energy            =       1.66803753 Ry
     smearing contrib. (-TS)   =      -0.00160509 Ry

     convergence has been achieved in  12 iterations

     Forces acting on atoms (Ry/au):


     negative rho (up, down):  0.105E+00 0.000E+00
     atom    1 type  1   force =    -0.00088197   -0.01358692    0.00031658
     atom    2 type  1   force =     0.00007984    0.01737567   -0.00028905
     atom    3 type  2   force =     0.04924751   -0.01073888    0.00026938
     atom    4 type  2   force =    -0.00208569    0.00821226    0.00043509
     atom    5 type  1   force =    -0.00107690   -0.08581931   -0.00029913
     atom    6 type  1   force =    -0.00508853    0.08560291   -0.00028568
     atom    7 type  1   force =     0.00010767   -0.00093763    0.00057964
     atom    8 type  1   force =     0.00176929   -0.00046227   -0.00041463
     atom    9 type  2   force =    -0.00020885   -0.00011409    0.00040464
     atom   10 type  2   force =    -0.00003663    0.00016496    0.00007527
     atom   11 type  1   force =    -0.02171203   -0.01639716    0.00012657
     atom   12 type  1   force =    -0.01777807    0.02159079   -0.00031147
     atom   13 type  1   force =     0.00027970   -0.00244959    0.00001333
     atom   14 type  1   force =    -0.00285501   -0.01362136    0.00044134
     atom   15 type  1   force =     0.00008039    0.01730656   -0.00037595
     atom   16 type  2   force =    -0.04904290   -0.01150720    0.00027389
     atom   17 type  2   force =    -0.00222373    0.00760231    0.00027358
     atom   18 type  1   force =     0.00662784   -0.08579806   -0.00027062
     atom   19 type  1   force =     0.00405752    0.08613887   -0.00032303
     atom   20 type  1   force =    -0.00011599   -0.00023180    0.00086990
     atom   21 type  1   force =     0.00175896    0.00015974   -0.00047069
     atom   22 type  2   force =    -0.00066851   -0.00004559    0.00040365
     atom   23 type  2   force =    -0.00002483   -0.00276488   -0.00019865
     atom   24 type  1   force =     0.02190212   -0.01632644    0.00013999
     atom   25 type  1   force =     0.01767570    0.02147728   -0.00031656
     atom   26 type  1   force =     0.00032050   -0.00517066    0.00019459
     atom   27 type  3   force =    -0.00001819    0.00029857   -0.00018121
     atom   28 type  3   force =     0.00000219    0.00013991   -0.00055479
     atom   29 type  3   force =    -0.00001302    0.00002056    0.00018737
     atom   30 type  3   force =    -0.00007397   -0.00003305    0.00019369
     atom   31 type  1   force =     0.00012006   -0.00059439   -0.00098724
     atom   32 type  1   force =    -0.00014527    0.00010673    0.00013668
     atom   33 type  3   force =     0.00002080    0.00040216   -0.00005650

     Total force =     0.002337     Total SCF correction =     0.000109

     bfgs converged in  21 scf cycles and  20 bfgs steps
     (criteria: energy < 0.10E-03, force < 0.10E-02)

     End of BFGS Geometry Optimization

     Final energy   =   -1598.6198300652 Ry
Begin final coordinates

ATOMIC_POSITIONS (crystal)
O0       0.000000000   0.000000000   0.377231664    0   0   1
O0       0.000000000   0.500000000   0.399075403    0   0   1
Ti1      0.250000000   0.500000000   0.451084898    0   0   1
Ti1      0.000000000   0.000000000   0.450974152    0   0   1
O0       0.250000000   0.810000000   0.449875188    0   0   1
O0       0.250000000   0.190000000   0.450866006    0   0   1
O0       0.000000000   0.500000000   0.498447961    0   0   1
O0       0.000000000   0.000000000   0.526179143    0   0   1
Ti1      0.250000000   0.000000000   0.580800249    0   0   1
Ti1      0.000000000   0.500000000   0.569031889    0   0   1
O0       0.250000000   0.690000000   0.578463355    0   0   1
O0       0.250000000   0.310000000   0.580045147    0   0   1
O0       0.000000000   0.000000000   0.623004433    0   0   1
O0       0.500000000   0.000000000   0.378079475    0   0   1
O0       0.500000000   0.500000000   0.398985893    0   0   1
Ti1      0.750000000   0.500000000   0.451092847    0   0   1
Ti1      0.500000000   0.000000000   0.452934470    0   0   1
O0       0.750000000   0.810000000   0.449808094    0   0   1
O0       0.750000000   0.190000000   0.450966237    0   0   1
O0       0.500000000   0.500000000   0.497289952    0   0   1
O0       0.500000000   0.000000000   0.526401620    0   0   1
Ti1      0.750000000   0.000000000   0.580805075    0   0   1
Ti1      0.500000000   0.500000000   0.582297007    0   0   1
O0       0.750000000   0.690000000   0.578448948    0   0   1
O0       0.750000000   0.310000000   0.580036939    0   0   1
O0       0.500000000   0.000000000   0.622581229    0   0   1
H2      -0.000372368   0.627799814   0.379226119
H2       0.499668392   0.628943951   0.379563754
H2       0.151012503   0.030146822   0.363482192
H2       0.650089202   0.031702586   0.364106234
O0       0.500310000   0.535934733   0.657481963    0   1   1
O0       0.499120000   0.356268261   0.686213286    0   1   1
H2       0.500360000   0.414053267   0.720589179    0   1   1
End final coordinates


 
     init_run     :    116.57s CPU    119.85s WALL (       1 calls)
     electrons    :  66250.01s CPU  66939.84s WALL (      21 calls)
     update_pot   :    450.84s CPU    456.78s WALL (      20 calls)
     forces       :   3740.11s CPU   3750.12s WALL (      21 calls)

     Called by init_run:
     wfcinit      :     53.10s CPU     55.93s WALL (       1 calls)
     potinit      :     10.60s CPU     10.73s WALL (       1 calls)

     Called by electrons:
     c_bands      :  40334.90s CPU  40797.06s WALL (     300 calls)
     sum_band     :  14673.09s CPU  14733.42s WALL (     300 calls)
     v_of_rho     :    490.91s CPU    507.25s WALL (     318 calls)
     newd         :  11281.99s CPU  11312.52s WALL (     318 calls)
     mix_rho      :     88.01s CPU     88.32s WALL (     300 calls)

     Called by c_bands:
     init_us_2    :     85.91s CPU     86.01s WALL (    1992 calls)
     cegterg      :  39789.55s CPU  40213.79s WALL (     900 calls)

     Called by *egterg:
     h_psi        :  21820.38s CPU  21876.61s WALL (    3119 calls)
     s_psi        :   2595.32s CPU   2596.03s WALL (    3245 calls)
     g_psi        :     70.95s CPU     71.00s WALL (    2216 calls)
     cdiaghg      :   4406.95s CPU   4407.26s WALL (    3047 calls)

     Called by h_psi:
     add_vuspsi   :   2479.04s CPU   2479.75s WALL (    3119 calls)
     vhpsi        :   2408.67s CPU   2410.38s WALL (    3119 calls)

     General routines
     calbec       :   6434.66s CPU   6448.37s WALL (   27001 calls)
     fft          :    606.01s CPU    616.58s WALL (    5267 calls)
     ffts         :     11.96s CPU     12.04s WALL (     618 calls)
     fftw         :  13814.08s CPU  13921.32s WALL ( 1518204 calls)
     interpolate  :     84.94s CPU     85.26s WALL (     618 calls)
     davcio       :      0.15s CPU     79.81s WALL (    2055 calls)
 
     Parallel routines
     fft_scatter  :   4355.65s CPU   4346.33s WALL ( 1524089 calls)
     Hubbard U routines
     new_ns       :    514.26s CPU    532.19s WALL (     300 calls)
     vhpsi        :   2408.67s CPU   2410.38s WALL (    3119 calls)
     force_hub    :   1280.82s CPU   1285.33s WALL (      21 calls)
 
     PWSCF        :    19h49m CPU       20h 2m WALL

 
   This run was terminated on:  10:15: 9   9Aug2014            

=------------------------------------------------------------------------------=
   JOB DONE.
=------------------------------------------------------------------------------=
