ScientificPython/2.8-dl160g6-numpy-1.7.1-1(15):ERROR:151: Module 'ScientificPython/2.8-dl160g6-numpy-1.7.1-1' depends on one of the module(s) 'numpy/1.7.1-dl160g6-gfortran-internal-1'
ScientificPython/2.8-dl160g6-numpy-1.7.1-1(15):ERROR:102: Tcl command execution failed: prereq numpy/1.7.1-dl160g6-gfortran-internal-1


     Program PWSCF v.5.0.2 (svn rev. 9656) starts on 13May2014 at  1:28:33 

     This program is part of the open-source Quantum ESPRESSO suite
     for quantum simulation of materials; please cite
         "P. Giannozzi et al., J. Phys.:Condens. Matter 21 395502 (2009);
          URL http://www.quantum-espresso.org", 
     in publications or presentations arising from this work. More details at
     http://www.quantum-espresso.org/quote.php

     Parallel version (MPI), running on    16 processors
     K-points division:     npool     =       4
     R & G space division:  proc/nbgrp/npool/nimage =       4

     Current dimensions of program PWSCF are:
     Max number of different atomic species (ntypx) = 10
     Max number of k-points (npk) =  40000
     Max angular momentum in pseudopotentials (lmaxx) =  3
     Reading input from pwscf.in
Warning: card &CELL ignored
Warning: card / ignored

     Subspace diagonalization in iterative solution of the eigenvalue problem:
     a serial algorithm will be used


     Parallelization info
     --------------------
     sticks:   dense  smooth     PW     G-vecs:    dense   smooth      PW
     Min        1274     408    116               299662    54238    8133
     Max        1275     409    117               299663    54251    8135
     Sum        5097    1635    467              1198649   216969   32535



     bravais-lattice index     =            0
     lattice parameter (alat)  =      10.9604  a.u.
     unit-cell volume          =    6350.6732 (a.u.)^3
     number of atoms/cell      =           32
     number of atomic types    =            3
     number of electrons       =       231.00 (up: 123.00, down: 108.00)
     number of Kohn-Sham states=          334
     kinetic-energy cutoff     =      40.0000  Ry
     charge density cutoff     =     500.0000  Ry
     convergence threshold     =      1.0E-06
     mixing beta               =       0.7000
     number of iterations used =            8  plain     mixing
     Exchange-correlation      = SLA  PW   PBE  PBE ( 1 4 3 4 0)
     EXX-fraction              =        0.00
     nstep                     =           50


     celldm(1)=  10.960412  celldm(2)=   0.000000  celldm(3)=   0.000000
     celldm(4)=   0.000000  celldm(5)=   0.000000  celldm(6)=   0.000000

     crystal axes: (cart. coord. in units of alat)
               a(1) = (   1.000000   0.000000   0.000000 )  
               a(2) = (   0.000000   1.067975   0.000000 )  
               a(3) = (   0.000000   0.000000   4.516251 )  

     reciprocal axes: (cart. coord. in units 2 pi/alat)
               b(1) = (  1.000000  0.000000  0.000000 )  
               b(2) = (  0.000000  0.936351  0.000000 )  
               b(3) = (  0.000000  0.000000  0.221423 )  


     PseudoPot. # 1 for O  read from file:
     /home/camp/zhonxu/pseudo/o_pbe_v1.01.uspp.F.UPF
     MD5 check sum: 2bcb18d16ea4b960afae9ec6d52f22d2
     Pseudo is Ultrasoft + core correction, Zval =  6.0
     Generated by new atomic code, or converted to UPF format
     Using radial grid of  737 points,  5 beta functions with: 
                l(1) =   0
                l(2) =   0
                l(3) =   1
                l(4) =   1
                l(5) =   2
     Q(r) pseudized with  8 coefficients,  rinner =    0.900   0.900   0.900
                                                       0.900   0.900

     PseudoPot. # 2 for Cr read from file:
     /home/camp/zhonxu/pseudo/cr_pbe_v1.uspp.F.UPF
     MD5 check sum: 68b6f918d1762dccfb11451fe85b0e0e
     Pseudo is Ultrasoft + core correction, Zval = 14.0
     Generated by new atomic code, or converted to UPF format
     Using radial grid of  857 points,  6 beta functions with: 
                l(1) =   0
                l(2) =   0
                l(3) =   1
                l(4) =   1
                l(5) =   2
                l(6) =   2
     Q(r) pseudized with  6 coefficients,  rinner =    1.000   1.000   1.000
                                                       1.000   1.000

     PseudoPot. # 3 for H  read from file:
     /home/camp/zhonxu/pseudo/h_pbe_v1.uspp.F.UPF
     MD5 check sum: 3408e3ff4ec8b0a4e358431e7e038a48
     Pseudo is Ultrasoft, Zval =  1.0
     Generated by new atomic code, or converted to UPF format
     Using radial grid of  615 points,  2 beta functions with: 
                l(1) =   0
                l(2) =   0
     Q(r) pseudized with  8 coefficients,  rinner =    0.700

     atomic species   valence    mass     pseudopotential
        O0             6.00    15.99940     O ( 1.00)
        Cr1           14.00    51.99600     Cr( 1.00)
        H2             1.00     1.00794     H ( 1.00)

     Starting magnetic structure 
     atomic species   magnetization
        O0           0.000
        Cr1          0.600
        H2           0.000


     Simplified LDA+U calculation (l_max = 2) with parameters (eV):
     atomic species    L          U    alpha       J0     beta
        Cr1            2     6.0000   0.0000   0.0000   0.0000



     No symmetry found



   Cartesian axes

     site n.     atom                  positions (alat units)
         1           O0  tau(   1) = (   0.0000000   0.0000000   1.7072332  )
         2           O0  tau(   2) = (   0.0000000   0.5339875   1.8068165  )
         3           Cr1 tau(   3) = (   0.2500000   0.5339875   2.0386808  )
         4           Cr1 tau(   4) = (   0.0000000   0.0000000   2.0275709  )
         5           O0  tau(   5) = (   0.2500000   0.8543801   2.0319968  )
         6           O0  tau(   6) = (   0.2500000   0.2135950   2.0327194  )
         7           O0  tau(   7) = (   0.0000000   0.5339875   2.2464284  )
         8           O0  tau(   8) = (   0.0000000   0.0000000   2.3629476  )
         9           Cr1 tau(   9) = (   0.2500000   0.0000000   2.5576884  )
        10           Cr1 tau(  10) = (   0.0000000   0.5339875   2.5509140  )
        11           O0  tau(  11) = (   0.2500000   0.7475825   2.5906119  )
        12           O0  tau(  12) = (   0.2500000   0.3203925   2.5906119  )
        13           O0  tau(  13) = (   0.0000000   0.0000000   2.7911334  )
        14           O0  tau(  14) = (   0.5000000   0.0000000   1.7073235  )
        15           O0  tau(  15) = (   0.5000000   0.5339875   1.8079456  )
        16           Cr1 tau(  16) = (   0.7500000   0.5339875   2.0392228  )
        17           Cr1 tau(  17) = (   0.5000000   0.0000000   2.0278870  )
        18           O0  tau(  18) = (   0.7500000   0.8543801   2.0322226  )
        19           O0  tau(  19) = (   0.7500000   0.2135950   2.0329904  )
        20           O0  tau(  20) = (   0.5000000   0.5339875   2.2544673  )
        21           O0  tau(  21) = (   0.5000000   0.0000000   2.3630380  )
        22           Cr1 tau(  22) = (   0.7500000   0.0000000   2.6360002  )
        23           Cr1 tau(  23) = (   0.5000000   0.5339875   2.6018573  )
        24           O0  tau(  24) = (   0.7500000   0.7475825   2.5939087  )
        25           O0  tau(  25) = (   0.7500000   0.3203925   2.5936377  )
        26           O0  tau(  26) = (   0.5000000   0.0000000   2.7879720  )
        27           H2  tau(  27) = (  -0.0006000   0.6814001   1.7205110  )
        28           H2  tau(  28) = (   0.4996600   0.6814535   1.7215045  )
        29           H2  tau(  29) = (   0.1566500   0.0338121   1.6478896  )
        30           H2  tau(  30) = (   0.6567200   0.0335237   1.6481606  )
        31           O0  tau(  31) = (   0.5143900   0.5336458   2.9144271  )
        32           H2  tau(  32) = (   0.3645400   0.5319370   2.9931001  )

     number of k points=    20  Methfessel-Paxton smearing, width (Ry)=  0.0100
                       cart. coord. in units 2pi/alat
        k(    1) = (   0.0000000   0.0000000   0.0000000), wk =   0.0625000
        k(    2) = (   0.0000000   0.2340879   0.0000000), wk =   0.1250000
        k(    3) = (   0.0000000  -0.4681757   0.0000000), wk =   0.0625000
        k(    4) = (   0.2500000   0.0000000   0.0000000), wk =   0.1250000
        k(    5) = (   0.2500000   0.2340879   0.0000000), wk =   0.1250000
        k(    6) = (   0.2500000  -0.4681757   0.0000000), wk =   0.1250000
        k(    7) = (  -0.5000000   0.0000000   0.0000000), wk =   0.0625000
        k(    8) = (  -0.5000000   0.2340879   0.0000000), wk =   0.1250000
        k(    9) = (  -0.5000000  -0.4681757   0.0000000), wk =   0.0625000
        k(   10) = (  -0.2500000   0.2340879   0.0000000), wk =   0.1250000
        k(   11) = (   0.0000000   0.0000000   0.0000000), wk =   0.0625000
        k(   12) = (   0.0000000   0.2340879   0.0000000), wk =   0.1250000
        k(   13) = (   0.0000000  -0.4681757   0.0000000), wk =   0.0625000
        k(   14) = (   0.2500000   0.0000000   0.0000000), wk =   0.1250000
        k(   15) = (   0.2500000   0.2340879   0.0000000), wk =   0.1250000
        k(   16) = (   0.2500000  -0.4681757   0.0000000), wk =   0.1250000
        k(   17) = (  -0.5000000   0.0000000   0.0000000), wk =   0.0625000
        k(   18) = (  -0.5000000   0.2340879   0.0000000), wk =   0.1250000
        k(   19) = (  -0.5000000  -0.4681757   0.0000000), wk =   0.0625000
        k(   20) = (  -0.2500000   0.2340879   0.0000000), wk =   0.1250000

     Dense  grid:  1198649 G-vectors     FFT dimensions: (  80,  90, 360)

     Smooth grid:   216969 G-vectors     FFT dimensions: (  45,  48, 200)

     Largest allocated arrays     est. size (Mb)     dimensions
        Kohn-Sham Wavefunctions        35.08 Mb     (   6884,  334)
        Atomic wavefunctions           16.91 Mb     (   6884,  161)
        NL pseudopotentials            42.12 Mb     (   6884,  401)
        Each V/rho on FFT grid         19.78 Mb     ( 648000,   2)
        Each G-vector array             2.29 Mb     ( 299662)
        G-vector shells                 0.99 Mb     ( 129803)
     Largest temporary arrays     est. size (Mb)     dimensions
        Auxiliary wavefunctions       140.34 Mb     (   6884, 1336)
        Each subspace H/S matrix       27.24 Mb     (1336,1336)
        Each <psi_i|beta_j> matrix      2.04 Mb     (    401,  334)
        Arrays for rho mixing          79.10 Mb     ( 648000,   8)

     Check: negative/imaginary core charge=   -0.000012    0.000000

     Initial potential from superposition of free atoms
     Check: negative starting charge=(component1):   -0.001476
     Check: negative starting charge=(component2):   -0.000504

     starting charge  222.99983, renormalised to  231.00000

     negative rho (up, down):  0.153E-02 0.522E-03
     Number of +U iterations with fixed ns =  0
     Starting occupations:
 --- enter write_ns ---
 LDA+U parameters:
U( 2)     =  6.00000000
alpha( 2) =  0.00000000
atom    3   Tr[ns(na)] (up, down, total) =   5.00000  0.00000  5.00000
   spin  1
    eigenvalues: 
  1.000  1.000  1.000  1.000  1.000
    eigenvectors:
  1.000  0.000  0.000  0.000  0.000
  0.000  1.000  0.000  0.000  0.000
  0.000  0.000  1.000  0.000  0.000
  0.000  0.000  0.000  1.000  0.000
  0.000  0.000  0.000  0.000  1.000
    occupations:
  1.000  0.000  0.000  0.000  0.000
  0.000  1.000  0.000  0.000  0.000
  0.000  0.000  1.000  0.000  0.000
  0.000  0.000  0.000  1.000  0.000
  0.000  0.000  0.000  0.000  1.000
   spin  2
    eigenvalues: 
  0.000  0.000  0.000  0.000  0.000
    eigenvectors:
  1.000  0.000  0.000  0.000  0.000
  0.000  1.000  0.000  0.000  0.000
  0.000  0.000  1.000  0.000  0.000
  0.000  0.000  0.000  1.000  0.000
  0.000  0.000  0.000  0.000  1.000
    occupations:
  0.000  0.000  0.000  0.000  0.000
  0.000  0.000  0.000  0.000  0.000
  0.000  0.000  0.000  0.000  0.000
  0.000  0.000  0.000  0.000  0.000
  0.000  0.000  0.000  0.000  0.000
atomic mag. moment =     5.000000
atom    4   Tr[ns(na)] (up, down, total) =   5.00000  0.00000  5.00000
   spin  1
    eigenvalues: 
  1.000  1.000  1.000  1.000  1.000
    eigenvectors:
  1.000  0.000  0.000  0.000  0.000
  0.000  1.000  0.000  0.000  0.000
  0.000  0.000  1.000  0.000  0.000
  0.000  0.000  0.000  1.000  0.000
  0.000  0.000  0.000  0.000  1.000
    occupations:
  1.000  0.000  0.000  0.000  0.000
  0.000  1.000  0.000  0.000  0.000
  0.000  0.000  1.000  0.000  0.000
  0.000  0.000  0.000  1.000  0.000
  0.000  0.000  0.000  0.000  1.000
   spin  2
    eigenvalues: 
  0.000  0.000  0.000  0.000  0.000
    eigenvectors:
  1.000  0.000  0.000  0.000  0.000
  0.000  1.000  0.000  0.000  0.000
  0.000  0.000  1.000  0.000  0.000
  0.000  0.000  0.000  1.000  0.000
  0.000  0.000  0.000  0.000  1.000
    occupations:
  0.000  0.000  0.000  0.000  0.000
  0.000  0.000  0.000  0.000  0.000
  0.000  0.000  0.000  0.000  0.000
  0.000  0.000  0.000  0.000  0.000
  0.000  0.000  0.000  0.000  0.000
atomic mag. moment =     5.000000
atom    9   Tr[ns(na)] (up, down, total) =   5.00000  0.00000  5.00000
   spin  1
    eigenvalues: 
  1.000  1.000  1.000  1.000  1.000
    eigenvectors:
  1.000  0.000  0.000  0.000  0.000
  0.000  1.000  0.000  0.000  0.000
  0.000  0.000  1.000  0.000  0.000
  0.000  0.000  0.000  1.000  0.000
  0.000  0.000  0.000  0.000  1.000
    occupations:
  1.000  0.000  0.000  0.000  0.000
  0.000  1.000  0.000  0.000  0.000
  0.000  0.000  1.000  0.000  0.000
  0.000  0.000  0.000  1.000  0.000
  0.000  0.000  0.000  0.000  1.000
   spin  2
    eigenvalues: 
  0.000  0.000  0.000  0.000  0.000
    eigenvectors:
  1.000  0.000  0.000  0.000  0.000
  0.000  1.000  0.000  0.000  0.000
  0.000  0.000  1.000  0.000  0.000
  0.000  0.000  0.000  1.000  0.000
  0.000  0.000  0.000  0.000  1.000
    occupations:
  0.000  0.000  0.000  0.000  0.000
  0.000  0.000  0.000  0.000  0.000
  0.000  0.000  0.000  0.000  0.000
  0.000  0.000  0.000  0.000  0.000
  0.000  0.000  0.000  0.000  0.000
atomic mag. moment =     5.000000
atom   10   Tr[ns(na)] (up, down, total) =   5.00000  0.00000  5.00000
   spin  1
    eigenvalues: 
  1.000  1.000  1.000  1.000  1.000
    eigenvectors:
  1.000  0.000  0.000  0.000  0.000
  0.000  1.000  0.000  0.000  0.000
  0.000  0.000  1.000  0.000  0.000
  0.000  0.000  0.000  1.000  0.000
  0.000  0.000  0.000  0.000  1.000
    occupations:
  1.000  0.000  0.000  0.000  0.000
  0.000  1.000  0.000  0.000  0.000
  0.000  0.000  1.000  0.000  0.000
  0.000  0.000  0.000  1.000  0.000
  0.000  0.000  0.000  0.000  1.000
   spin  2
    eigenvalues: 
  0.000  0.000  0.000  0.000  0.000
    eigenvectors:
  1.000  0.000  0.000  0.000  0.000
  0.000  1.000  0.000  0.000  0.000
  0.000  0.000  1.000  0.000  0.000
  0.000  0.000  0.000  1.000  0.000
  0.000  0.000  0.000  0.000  1.000
    occupations:
  0.000  0.000  0.000  0.000  0.000
  0.000  0.000  0.000  0.000  0.000
  0.000  0.000  0.000  0.000  0.000
  0.000  0.000  0.000  0.000  0.000
  0.000  0.000  0.000  0.000  0.000
atomic mag. moment =     5.000000
atom   16   Tr[ns(na)] (up, down, total) =   5.00000  0.00000  5.00000
   spin  1
    eigenvalues: 
  1.000  1.000  1.000  1.000  1.000
    eigenvectors:
  1.000  0.000  0.000  0.000  0.000
  0.000  1.000  0.000  0.000  0.000
  0.000  0.000  1.000  0.000  0.000
  0.000  0.000  0.000  1.000  0.000
  0.000  0.000  0.000  0.000  1.000
    occupations:
  1.000  0.000  0.000  0.000  0.000
  0.000  1.000  0.000  0.000  0.000
  0.000  0.000  1.000  0.000  0.000
  0.000  0.000  0.000  1.000  0.000
  0.000  0.000  0.000  0.000  1.000
   spin  2
    eigenvalues: 
  0.000  0.000  0.000  0.000  0.000
    eigenvectors:
  1.000  0.000  0.000  0.000  0.000
  0.000  1.000  0.000  0.000  0.000
  0.000  0.000  1.000  0.000  0.000
  0.000  0.000  0.000  1.000  0.000
  0.000  0.000  0.000  0.000  1.000
    occupations:
  0.000  0.000  0.000  0.000  0.000
  0.000  0.000  0.000  0.000  0.000
  0.000  0.000  0.000  0.000  0.000
  0.000  0.000  0.000  0.000  0.000
  0.000  0.000  0.000  0.000  0.000
atomic mag. moment =     5.000000
atom   17   Tr[ns(na)] (up, down, total) =   5.00000  0.00000  5.00000
   spin  1
    eigenvalues: 
  1.000  1.000  1.000  1.000  1.000
    eigenvectors:
  1.000  0.000  0.000  0.000  0.000
  0.000  1.000  0.000  0.000  0.000
  0.000  0.000  1.000  0.000  0.000
  0.000  0.000  0.000  1.000  0.000
  0.000  0.000  0.000  0.000  1.000
    occupations:
  1.000  0.000  0.000  0.000  0.000
  0.000  1.000  0.000  0.000  0.000
  0.000  0.000  1.000  0.000  0.000
  0.000  0.000  0.000  1.000  0.000
  0.000  0.000  0.000  0.000  1.000
   spin  2
    eigenvalues: 
  0.000  0.000  0.000  0.000  0.000
    eigenvectors:
  1.000  0.000  0.000  0.000  0.000
  0.000  1.000  0.000  0.000  0.000
  0.000  0.000  1.000  0.000  0.000
  0.000  0.000  0.000  1.000  0.000
  0.000  0.000  0.000  0.000  1.000
    occupations:
  0.000  0.000  0.000  0.000  0.000
  0.000  0.000  0.000  0.000  0.000
  0.000  0.000  0.000  0.000  0.000
  0.000  0.000  0.000  0.000  0.000
  0.000  0.000  0.000  0.000  0.000
atomic mag. moment =     5.000000
atom   22   Tr[ns(na)] (up, down, total) =   5.00000  0.00000  5.00000
   spin  1
    eigenvalues: 
  1.000  1.000  1.000  1.000  1.000
    eigenvectors:
  1.000  0.000  0.000  0.000  0.000
  0.000  1.000  0.000  0.000  0.000
  0.000  0.000  1.000  0.000  0.000
  0.000  0.000  0.000  1.000  0.000
  0.000  0.000  0.000  0.000  1.000
    occupations:
  1.000  0.000  0.000  0.000  0.000
  0.000  1.000  0.000  0.000  0.000
  0.000  0.000  1.000  0.000  0.000
  0.000  0.000  0.000  1.000  0.000
  0.000  0.000  0.000  0.000  1.000
   spin  2
    eigenvalues: 
  0.000  0.000  0.000  0.000  0.000
    eigenvectors:
  1.000  0.000  0.000  0.000  0.000
  0.000  1.000  0.000  0.000  0.000
  0.000  0.000  1.000  0.000  0.000
  0.000  0.000  0.000  1.000  0.000
  0.000  0.000  0.000  0.000  1.000
    occupations:
  0.000  0.000  0.000  0.000  0.000
  0.000  0.000  0.000  0.000  0.000
  0.000  0.000  0.000  0.000  0.000
  0.000  0.000  0.000  0.000  0.000
  0.000  0.000  0.000  0.000  0.000
atomic mag. moment =     5.000000
atom   23   Tr[ns(na)] (up, down, total) =   5.00000  0.00000  5.00000
   spin  1
    eigenvalues: 
  1.000  1.000  1.000  1.000  1.000
    eigenvectors:
  1.000  0.000  0.000  0.000  0.000
  0.000  1.000  0.000  0.000  0.000
  0.000  0.000  1.000  0.000  0.000
  0.000  0.000  0.000  1.000  0.000
  0.000  0.000  0.000  0.000  1.000
    occupations:
  1.000  0.000  0.000  0.000  0.000
  0.000  1.000  0.000  0.000  0.000
  0.000  0.000  1.000  0.000  0.000
  0.000  0.000  0.000  1.000  0.000
  0.000  0.000  0.000  0.000  1.000
   spin  2
    eigenvalues: 
  0.000  0.000  0.000  0.000  0.000
    eigenvectors:
  1.000  0.000  0.000  0.000  0.000
  0.000  1.000  0.000  0.000  0.000
  0.000  0.000  1.000  0.000  0.000
  0.000  0.000  0.000  1.000  0.000
  0.000  0.000  0.000  0.000  1.000
    occupations:
  0.000  0.000  0.000  0.000  0.000
  0.000  0.000  0.000  0.000  0.000
  0.000  0.000  0.000  0.000  0.000
  0.000  0.000  0.000  0.000  0.000
  0.000  0.000  0.000  0.000  0.000
atomic mag. moment =     5.000000
N of occupied +U levels =  40.0000000
 --- exit write_ns ---
 Atomic wfc used for LDA+U Projector are NOT orthogonalized
     Starting wfc are  161 randomized atomic wfcs

     total cpu time spent up to now is      119.8 secs

     per-process dynamical memory:   470.1 Mb

     Self-consistent Calculation

     iteration #  1     ecut=    40.00 Ry     beta=0.70
     Davidson diagonalization with overlap
     ethr =  1.00E-02,  avg # of iterations =  5.5
 --- enter write_ns ---
 LDA+U parameters:
U( 2)     =  6.00000000
alpha( 2) =  0.00000000
atom    3   Tr[ns(na)] (up, down, total) =   3.92856  0.52050  4.44906
   spin  1
    eigenvalues: 
  0.646  0.663  0.803  0.904  0.912
    eigenvectors:
  0.299  0.002  0.006  0.023  0.669
  0.000  0.976  0.000  0.018  0.005
  0.009  0.000  0.965  0.005  0.021
  0.692  0.000  0.026  0.008  0.273
  0.000  0.021  0.002  0.945  0.031
    occupations:
  0.831  0.010  0.022 -0.119 -0.000
  0.010  0.669 -0.001 -0.007  0.035
  0.022 -0.001  0.805  0.003 -0.004
 -0.119 -0.007  0.003  0.725 -0.001
 -0.000  0.035 -0.004 -0.001  0.899
   spin  2
    eigenvalues: 
  0.050  0.057  0.058  0.167  0.188
    eigenvectors:
  0.665  0.150  0.000  0.001  0.185
  0.000  0.000  0.001  0.998  0.002
  0.180  0.819  0.000  0.000  0.000
  0.155  0.031  0.000  0.001  0.813
  0.000  0.000  0.999  0.001  0.000
    occupations:
  0.077 -0.001 -0.002  0.053 -0.000
 -0.001  0.167 -0.000  0.001  0.003
 -0.002 -0.000  0.056  0.002  0.000
  0.053  0.001  0.002  0.163  0.000
 -0.000  0.003  0.000  0.000  0.058
atomic mag. moment =     3.408063
atom    4   Tr[ns(na)] (up, down, total) =   3.86280  0.53996  4.40276
   spin  1
    eigenvalues: 
  0.604  0.649  0.823  0.842  0.946
    eigenvectors:
  0.000  0.915  0.085  0.000  0.000
  0.000  0.082  0.902  0.016  0.000
  0.000  0.003  0.013  0.984  0.000
  0.000  0.000  0.000  0.000  1.000
  1.000  0.000  0.000  0.000  0.000
    occupations:
  0.664  0.048  0.009 -0.006  0.001
  0.048  0.809 -0.005  0.002  0.001
  0.009 -0.005  0.841  0.000 -0.001
 -0.006  0.002  0.000  0.946  0.000
  0.001  0.001 -0.001  0.000  0.604
   spin  2
    eigenvalues: 
  0.052  0.060  0.066  0.171  0.192
    eigenvectors:
  0.010  0.001  0.000  0.000  0.989
  0.005  0.809  0.185  0.000  0.001
  0.001  0.184  0.815  0.000  0.000
  0.984  0.007  0.000  0.000  0.009
  0.000  0.000  0.000  1.000  0.000
    occupations:
  0.190  0.005  0.001 -0.014  0.000
  0.005  0.061 -0.002  0.000 -0.000
  0.001 -0.002  0.065  0.000  0.000
 -0.014  0.000  0.000  0.053  0.000
  0.000 -0.000  0.000  0.000  0.171
atomic mag. moment =     3.322843
atom    9   Tr[ns(na)] (up, down, total) =   4.30835  0.56771  4.87607
   spin  1
    eigenvalues: 
  0.691  0.697  0.957  0.981  0.983
    eigenvectors:
  0.044  0.134  0.000  0.819  0.002
  0.771  0.229  0.000  0.000  0.000
  0.000  0.000  0.112  0.003  0.885
  0.185  0.636  0.000  0.178  0.000
  0.000  0.000  0.887  0.000  0.113
    occupations:
  0.930 -0.003 -0.000 -0.109 -0.001
 -0.003  0.692 -0.001 -0.001 -0.001
 -0.000 -0.001  0.980 -0.000  0.008
 -0.109 -0.001 -0.000  0.746 -0.000
 -0.001 -0.001  0.008 -0.000  0.960
   spin  2
    eigenvalues: 
  0.062  0.063  0.068  0.185  0.190
    eigenvectors:
  0.000  0.856  0.000  0.003  0.141
  0.000  0.000  0.000  0.981  0.019
  1.000  0.000  0.000  0.000  0.000
  0.000  0.144  0.000  0.016  0.840
  0.000  0.000  1.000  0.000  0.000
    occupations:
  0.081 -0.000 -0.000  0.045  0.000
 -0.000  0.186  0.000 -0.001  0.000
 -0.000  0.000  0.062  0.000 -0.000
  0.045 -0.001  0.000  0.171 -0.000
  0.000  0.000 -0.000 -0.000  0.068
atomic mag. moment =     3.740639
atom   10   Tr[ns(na)] (up, down, total) =   4.52666  0.47976  5.00642
   spin  1
    eigenvalues: 
  0.751  0.811  0.984  0.988  0.992
    eigenvectors:
  0.000  0.995  0.001  0.005  0.000
  0.000  0.000  0.712  0.286  0.002
  0.001  0.000  0.000  0.004  0.994
  0.000  0.005  0.288  0.705  0.002
  0.999  0.000  0.000  0.000  0.001
    occupations:
  0.812  0.003  0.001  0.012  0.001
  0.003  0.985  0.000  0.002  0.000
  0.001  0.000  0.992  0.000 -0.008
  0.012  0.002  0.000  0.986 -0.000
  0.001  0.000 -0.008 -0.000  0.751
   spin  2
    eigenvalues: 
  0.050  0.057  0.063  0.142  0.167
    eigenvectors:
  0.016  0.000  0.000  0.984  0.000
  0.001  0.000  0.998  0.000  0.000
  0.000  1.000  0.000  0.000  0.000
  0.982  0.000  0.001  0.016  0.000
  0.000  0.000  0.000  0.000  1.000
    occupations:
  0.140 -0.000 -0.000 -0.012 -0.000
 -0.000  0.063 -0.000  0.001 -0.000
 -0.000 -0.000  0.057  0.000  0.001
 -0.012  0.001  0.000  0.052  0.000
 -0.000 -0.000  0.001  0.000  0.167
atomic mag. moment =     4.046902
atom   16   Tr[ns(na)] (up, down, total) =   3.92335  0.52050  4.44385
   spin  1
    eigenvalues: 
  0.646  0.661  0.803  0.901  0.912
    eigenvectors:
  0.292  0.005  0.007  0.191  0.505
  0.004  0.972  0.001  0.011  0.012
  0.008  0.000  0.960  0.000  0.031
  0.696  0.001  0.026  0.077  0.200
  0.000  0.021  0.006  0.721  0.252
    occupations:
  0.830 -0.009  0.022 -0.117 -0.001
 -0.009  0.667 -0.001  0.007  0.035
  0.022 -0.001  0.805  0.003 -0.009
 -0.117  0.007  0.003  0.723  0.001
 -0.001  0.035 -0.009  0.001  0.898
   spin  2
    eigenvalues: 
  0.050  0.057  0.058  0.167  0.189
    eigenvectors:
  0.681  0.134  0.000  0.001  0.185
  0.000  0.000  0.001  0.998  0.002
  0.161  0.839  0.000  0.000  0.000
  0.158  0.027  0.000  0.001  0.814
  0.000  0.000  0.999  0.001  0.000
    occupations:
  0.077  0.001 -0.002  0.053  0.000
  0.001  0.167  0.000 -0.001  0.003
 -0.002  0.000  0.056  0.002 -0.000
  0.053 -0.001  0.002  0.163 -0.000
  0.000  0.003 -0.000 -0.000  0.058
atomic mag. moment =     3.402853
atom   17   Tr[ns(na)] (up, down, total) =   3.84664  0.53883  4.38547
   spin  1
    eigenvalues: 
  0.600  0.645  0.823  0.836  0.942
    eigenvectors:
  0.000  0.927  0.073  0.000  0.001
  0.000  0.069  0.878  0.053  0.000
  0.000  0.003  0.049  0.947  0.000
  0.000  0.000  0.000  0.000  0.999
  1.000  0.000  0.000  0.000  0.000
    occupations:
  0.658  0.045  0.010 -0.006  0.001
  0.045  0.812 -0.006 -0.001  0.001
  0.010 -0.006  0.835  0.001  0.001
 -0.006 -0.001  0.001  0.942  0.000
  0.001  0.001  0.001  0.000  0.601
   spin  2
    eigenvalues: 
  0.051  0.060  0.066  0.171  0.192
    eigenvectors:
  0.010  0.001  0.000  0.000  0.989
  0.009  0.802  0.187  0.000  0.001
  0.001  0.186  0.813  0.000  0.000
  0.979  0.011  0.000  0.000  0.009
  0.000  0.000  0.000  1.000  0.000
    occupations:
  0.190  0.005  0.001 -0.014  0.000
  0.005  0.061 -0.002  0.000 -0.000
  0.001 -0.002  0.064  0.000  0.000
 -0.014  0.000  0.000  0.053  0.000
  0.000 -0.000  0.000  0.000  0.171
atomic mag. moment =     3.307801
atom   22   Tr[ns(na)] (up, down, total) =   4.17315  0.64492  4.81807
   spin  1
    eigenvalues: 
  0.679  0.687  0.883  0.945  0.979
    eigenvectors:
  0.009  0.015  0.000  0.975  0.001
  0.787  0.213  0.000  0.001  0.000
  0.000  0.000  0.015  0.001  0.984
  0.205  0.772  0.000  0.023  0.000
  0.000  0.000  0.985  0.000  0.015
    occupations:
  0.939  0.007 -0.001 -0.039  0.001
  0.007  0.681 -0.000  0.002 -0.000
 -0.001 -0.000  0.978  0.000 -0.012
 -0.039  0.002  0.000  0.691 -0.001
  0.001 -0.000 -0.012 -0.001  0.884
   spin  2
    eigenvalues: 
  0.064  0.090  0.091  0.194  0.206
    eigenvectors:
  0.000  0.981  0.000  0.000  0.019
  0.000  0.000  0.000  0.991  0.009
  0.999  0.000  0.001  0.000  0.000
  0.000  0.019  0.000  0.008  0.973
  0.001  0.000  0.999  0.000  0.000
    occupations:
  0.092 -0.001 -0.000  0.016  0.000
 -0.001  0.194 -0.000  0.001  0.000
 -0.000 -0.000  0.064 -0.000  0.001
  0.016  0.001 -0.000  0.204 -0.000
  0.000  0.000  0.001 -0.000  0.091
atomic mag. moment =     3.528233
atom   23   Tr[ns(na)] (up, down, total) =   4.31115  0.53275  4.84390
   spin  1
    eigenvalues: 
  0.676  0.705  0.960  0.980  0.990
    eigenvectors:
  0.000  0.997  0.000  0.001  0.002
  0.000  0.001  0.000  0.013  0.986
  0.004  0.000  0.996  0.000  0.000
  0.000  0.002  0.000  0.986  0.012
  0.996  0.000  0.004  0.000  0.000
    occupations:
  0.706 -0.011 -0.002  0.011  0.000
 -0.011  0.989 -0.000 -0.001  0.000
 -0.002 -0.000  0.959 -0.000  0.017
  0.011 -0.001 -0.000  0.980 -0.000
  0.000  0.000  0.017 -0.000  0.678
   spin  2
    eigenvalues: 
  0.051  0.060  0.062  0.172  0.188
    eigenvectors:
  0.010  0.000  0.000  0.000  0.990
  0.008  0.990  0.002  0.000  0.000
  0.000  0.002  0.998  0.000  0.000
  0.982  0.008  0.000  0.000  0.010
  0.000  0.000  0.000  1.000  0.000
    occupations:
  0.186  0.000  0.000 -0.014 -0.000
  0.000  0.060 -0.000 -0.001 -0.000
  0.000 -0.000  0.062 -0.000 -0.001
 -0.014 -0.001 -0.000  0.053  0.000
 -0.000 -0.000 -0.001  0.000  0.172
atomic mag. moment =     3.778399
N of occupied +U levels =  37.2255911
 --- exit write_ns ---

     negative rho (up, down):  0.262E-02 0.118E-02

     total cpu time spent up to now is      596.1 secs

     total energy              =   -2004.26119409 Ry
     Harris-Foulkes estimate   =   -2020.52150057 Ry
     estimated scf accuracy    <      27.94968952 Ry

     total magnetization       =    15.00 Bohr mag/cell
     absolute magnetization    =    40.70 Bohr mag/cell

     iteration #  2     ecut=    40.00 Ry     beta=0.70
     Davidson diagonalization with overlap
     ethr =  1.00E-02,  avg # of iterations =  6.8

     negative rho (up, down):  0.108E-01 0.505E-02

     total cpu time spent up to now is     1051.9 secs

     total energy              =   -1846.24717386 Ry
     Harris-Foulkes estimate   =   -2277.00474028 Ry
     estimated scf accuracy    <    5644.31444342 Ry

     total magnetization       =    15.00 Bohr mag/cell
     absolute magnetization    =    21.30 Bohr mag/cell

     iteration #  3     ecut=    40.00 Ry     beta=0.70
     Davidson diagonalization with overlap
     ethr =  1.00E-02,  avg # of iterations =  6.0

     negative rho (up, down):  0.589E-02 0.306E-02

     total cpu time spent up to now is     1529.3 secs

     total energy              =   -2021.28347891 Ry
     Harris-Foulkes estimate   =   -2026.73999137 Ry
     estimated scf accuracy    <      21.01472252 Ry

     total magnetization       =    15.00 Bohr mag/cell
     absolute magnetization    =    35.73 Bohr mag/cell

     iteration #  4     ecut=    40.00 Ry     beta=0.70
     Davidson diagonalization with overlap
     ethr =  9.10E-03,  avg # of iterations =  2.1

     negative rho (up, down):  0.598E-02 0.258E-02

     total cpu time spent up to now is     1765.9 secs

     total energy              =   -2022.30475659 Ry
     Harris-Foulkes estimate   =   -2024.79896986 Ry
     estimated scf accuracy    <      13.65830848 Ry

     total magnetization       =    15.00 Bohr mag/cell
     absolute magnetization    =    31.00 Bohr mag/cell

     iteration #  5     ecut=    40.00 Ry     beta=0.70
     Davidson diagonalization with overlap
     ethr =  5.91E-03,  avg # of iterations =  1.1

     negative rho (up, down):  0.551E-02 0.190E-02

     total cpu time spent up to now is     1989.9 secs

     total energy              =   -2022.72797072 Ry
     Harris-Foulkes estimate   =   -2024.86160856 Ry
     estimated scf accuracy    <      10.00856659 Ry

     total magnetization       =    15.00 Bohr mag/cell
     absolute magnetization    =    35.24 Bohr mag/cell

     iteration #  6     ecut=    40.00 Ry     beta=0.70
     Davidson diagonalization with overlap
     ethr =  4.33E-03,  avg # of iterations =  3.9

     negative rho (up, down):  0.491E-02 0.132E-02

     total cpu time spent up to now is     2238.9 secs

     total energy              =   -2023.28363490 Ry
     Harris-Foulkes estimate   =   -2025.10266885 Ry
     estimated scf accuracy    <      13.82372384 Ry

     total magnetization       =    15.00 Bohr mag/cell
     absolute magnetization    =    34.13 Bohr mag/cell

     iteration #  7     ecut=    40.00 Ry     beta=0.70
     Davidson diagonalization with overlap
     ethr =  4.33E-03,  avg # of iterations =  1.8

     negative rho (up, down):  0.532E-02 0.120E-02

     total cpu time spent up to now is     2469.2 secs

     total energy              =   -2023.99922507 Ry
     Harris-Foulkes estimate   =   -2024.33989080 Ry
     estimated scf accuracy    <       2.10583653 Ry

     total magnetization       =    15.00 Bohr mag/cell
     absolute magnetization    =    29.99 Bohr mag/cell

     iteration #  8     ecut=    40.00 Ry     beta=0.70
     Davidson diagonalization with overlap
     ethr =  9.12E-04,  avg # of iterations =  4.5

     negative rho (up, down):  0.429E-02 0.116E-02

     total cpu time spent up to now is     2724.4 secs

     total energy              =   -2024.07938264 Ry
     Harris-Foulkes estimate   =   -2024.19031708 Ry
     estimated scf accuracy    <       0.58857058 Ry

     total magnetization       =    15.00 Bohr mag/cell
     absolute magnetization    =    30.95 Bohr mag/cell

     iteration #  9     ecut=    40.00 Ry     beta=0.70
     Davidson diagonalization with overlap
     ethr =  2.55E-04,  avg # of iterations =  4.5

     negative rho (up, down):  0.386E-02 0.118E-02

     total cpu time spent up to now is     2979.5 secs

     total energy              =   -2024.07544025 Ry
     Harris-Foulkes estimate   =   -2024.19708980 Ry
     estimated scf accuracy    <       0.69682779 Ry

     total magnetization       =    15.00 Bohr mag/cell
     absolute magnetization    =    31.01 Bohr mag/cell

     iteration # 10     ecut=    40.00 Ry     beta=0.70
     Davidson diagonalization with overlap
     ethr =  2.55E-04,  avg # of iterations =  4.3

     negative rho (up, down):  0.377E-02 0.117E-02

     total cpu time spent up to now is     3225.5 secs

     total energy              =   -2024.12377415 Ry
     Harris-Foulkes estimate   =   -2024.15937288 Ry
     estimated scf accuracy    <       0.35674830 Ry

     total magnetization       =    15.00 Bohr mag/cell
     absolute magnetization    =    29.97 Bohr mag/cell

     iteration # 11     ecut=    40.00 Ry     beta=0.70
     Davidson diagonalization with overlap
     ethr =  1.54E-04,  avg # of iterations =  1.1

     negative rho (up, down):  0.456E-02 0.139E-02

     total cpu time spent up to now is     3448.3 secs

     total energy              =   -2024.07803726 Ry
     Harris-Foulkes estimate   =   -2024.15475989 Ry
     estimated scf accuracy    <       0.19141941 Ry

     total magnetization       =    15.00 Bohr mag/cell
     absolute magnetization    =    29.69 Bohr mag/cell

     iteration # 12     ecut=    40.00 Ry     beta=0.70
     Davidson diagonalization with overlap
     ethr =  8.29E-05,  avg # of iterations =  6.1

     negative rho (up, down):  0.476E-02 0.129E-02

     total cpu time spent up to now is     3743.5 secs

     total energy              =   -2024.09512720 Ry
     Harris-Foulkes estimate   =   -2024.19041749 Ry
     estimated scf accuracy    <       0.85148699 Ry

     total magnetization       =    15.00 Bohr mag/cell
     absolute magnetization    =    28.63 Bohr mag/cell

     iteration # 13     ecut=    40.00 Ry     beta=0.70
     Davidson diagonalization with overlap
     ethr =  8.29E-05,  avg # of iterations =  4.0

     negative rho (up, down):  0.447E-02 0.131E-02

     total cpu time spent up to now is     3990.6 secs

     total energy              =   -2024.12163428 Ry
     Harris-Foulkes estimate   =   -2024.14111270 Ry
     estimated scf accuracy    <       0.09214759 Ry

     total magnetization       =    15.00 Bohr mag/cell
     absolute magnetization    =    28.82 Bohr mag/cell

     iteration # 14     ecut=    40.00 Ry     beta=0.70
     Davidson diagonalization with overlap
     ethr =  3.99E-05,  avg # of iterations =  3.8

     negative rho (up, down):  0.452E-02 0.133E-02

     total cpu time spent up to now is     4231.4 secs

     total energy              =   -2024.12678277 Ry
     Harris-Foulkes estimate   =   -2024.14004310 Ry
     estimated scf accuracy    <       0.08020833 Ry

     total magnetization       =    15.00 Bohr mag/cell
     absolute magnetization    =    28.59 Bohr mag/cell

     iteration # 15     ecut=    40.00 Ry     beta=0.70
     Davidson diagonalization with overlap
     ethr =  3.47E-05,  avg # of iterations =  1.0

     negative rho (up, down):  0.452E-02 0.134E-02

     total cpu time spent up to now is     4452.0 secs

     total energy              =   -2024.13207093 Ry
     Harris-Foulkes estimate   =   -2024.13655930 Ry
     estimated scf accuracy    <       0.03902569 Ry

     total magnetization       =    15.00 Bohr mag/cell
     absolute magnetization    =    28.52 Bohr mag/cell

     iteration # 16     ecut=    40.00 Ry     beta=0.70
     Davidson diagonalization with overlap
     ethr =  1.69E-05,  avg # of iterations =  1.3

     negative rho (up, down):  0.485E-02 0.141E-02

     total cpu time spent up to now is     4678.0 secs

     total energy              =   -2024.13257878 Ry
     Harris-Foulkes estimate   =   -2024.13599475 Ry
     estimated scf accuracy    <       0.03671400 Ry

     total magnetization       =    15.00 Bohr mag/cell
     absolute magnetization    =    28.63 Bohr mag/cell

     iteration # 17     ecut=    40.00 Ry     beta=0.70
     Davidson diagonalization with overlap
     ethr =  1.59E-05,  avg # of iterations =  3.9

     negative rho (up, down):  0.547E-02 0.180E-02

     total cpu time spent up to now is     4921.6 secs

     total energy              =   -2024.13395098 Ry
     Harris-Foulkes estimate   =   -2024.13505499 Ry
     estimated scf accuracy    <       0.00640509 Ry

     total magnetization       =    15.00 Bohr mag/cell
     absolute magnetization    =    28.60 Bohr mag/cell

     iteration # 18     ecut=    40.00 Ry     beta=0.70
     Davidson diagonalization with overlap
     ethr =  2.77E-06,  avg # of iterations =  5.7

     negative rho (up, down):  0.563E-02 0.193E-02

     total cpu time spent up to now is     5185.9 secs

     total energy              =   -2024.13402891 Ry
     Harris-Foulkes estimate   =   -2024.13572764 Ry
     estimated scf accuracy    <       0.00970812 Ry

     total magnetization       =    15.00 Bohr mag/cell
     absolute magnetization    =    28.46 Bohr mag/cell

     iteration # 19     ecut=    40.00 Ry     beta=0.70
     Davidson diagonalization with overlap
     ethr =  2.77E-06,  avg # of iterations =  1.3

     negative rho (up, down):  0.561E-02 0.190E-02

     total cpu time spent up to now is     5406.2 secs

     total energy              =   -2024.13480049 Ry
     Harris-Foulkes estimate   =   -2024.13501475 Ry
     estimated scf accuracy    <       0.00149829 Ry

     total magnetization       =    15.00 Bohr mag/cell
     absolute magnetization    =    28.47 Bohr mag/cell

     iteration # 20     ecut=    40.00 Ry     beta=0.70
     Davidson diagonalization with overlap
     ethr =  6.49E-07,  avg # of iterations =  1.0

     negative rho (up, down):  0.559E-02 0.190E-02

     total cpu time spent up to now is     5628.2 secs

     total energy              =   -2024.13496426 Ry
     Harris-Foulkes estimate   =   -2024.13499701 Ry
     estimated scf accuracy    <       0.00057124 Ry

     total magnetization       =    15.00 Bohr mag/cell
     absolute magnetization    =    28.44 Bohr mag/cell

     iteration # 21     ecut=    40.00 Ry     beta=0.70
     Davidson diagonalization with overlap
     ethr =  2.47E-07,  avg # of iterations =  1.0

     negative rho (up, down):  0.552E-02 0.183E-02

     total cpu time spent up to now is     5849.0 secs

     total energy              =   -2024.13497129 Ry
     Harris-Foulkes estimate   =   -2024.13512310 Ry
     estimated scf accuracy    <       0.00069717 Ry

     total magnetization       =    15.00 Bohr mag/cell
     absolute magnetization    =    28.40 Bohr mag/cell

     iteration # 22     ecut=    40.00 Ry     beta=0.70
     Davidson diagonalization with overlap
     ethr =  2.47E-07,  avg # of iterations =  1.0

     negative rho (up, down):  0.556E-02 0.188E-02

     total cpu time spent up to now is     6067.9 secs

     total energy              =   -2024.13505478 Ry
     Harris-Foulkes estimate   =   -2024.13507152 Ry
     estimated scf accuracy    <       0.00051617 Ry

     total magnetization       =    15.00 Bohr mag/cell
     absolute magnetization    =    28.41 Bohr mag/cell

     iteration # 23     ecut=    40.00 Ry     beta=0.70
     Davidson diagonalization with overlap
     ethr =  2.23E-07,  avg # of iterations =  1.0

     negative rho (up, down):  0.556E-02 0.187E-02

     total cpu time spent up to now is     6289.4 secs

     total energy              =   -2024.13508217 Ry
     Harris-Foulkes estimate   =   -2024.13512189 Ry
     estimated scf accuracy    <       0.00028036 Ry

     total magnetization       =    15.00 Bohr mag/cell
     absolute magnetization    =    28.38 Bohr mag/cell

     iteration # 24     ecut=    40.00 Ry     beta=0.70
     Davidson diagonalization with overlap
     ethr =  1.21E-07,  avg # of iterations =  1.9

     negative rho (up, down):  0.554E-02 0.185E-02

     total cpu time spent up to now is     6519.9 secs

     total energy              =   -2024.13503666 Ry
     Harris-Foulkes estimate   =   -2024.13526055 Ry
     estimated scf accuracy    <       0.00116817 Ry

     total magnetization       =    15.00 Bohr mag/cell
     absolute magnetization    =    28.33 Bohr mag/cell

     iteration # 25     ecut=    40.00 Ry     beta=0.70
     Davidson diagonalization with overlap
     ethr =  1.21E-07,  avg # of iterations =  1.0

     negative rho (up, down):  0.550E-02 0.182E-02

     total cpu time spent up to now is     6742.6 secs

     total energy              =   -2024.13511192 Ry
     Harris-Foulkes estimate   =   -2024.13517676 Ry
     estimated scf accuracy    <       0.00048547 Ry

     total magnetization       =    15.00 Bohr mag/cell
     absolute magnetization    =    28.35 Bohr mag/cell

     iteration # 26     ecut=    40.00 Ry     beta=0.70
     Davidson diagonalization with overlap
     ethr =  1.21E-07,  avg # of iterations =  1.0

     negative rho (up, down):  0.550E-02 0.182E-02

     total cpu time spent up to now is     6958.4 secs

     total energy              =   -2024.13508446 Ry
     Harris-Foulkes estimate   =   -2024.13521542 Ry
     estimated scf accuracy    <       0.00104832 Ry

     total magnetization       =    15.00 Bohr mag/cell
     absolute magnetization    =    28.34 Bohr mag/cell

     iteration # 27     ecut=    40.00 Ry     beta=0.70
     Davidson diagonalization with overlap
     ethr =  1.21E-07,  avg # of iterations =  1.0

     negative rho (up, down):  0.549E-02 0.181E-02

     total cpu time spent up to now is     7175.9 secs

     total energy              =   -2024.13515692 Ry
     Harris-Foulkes estimate   =   -2024.13517571 Ry
     estimated scf accuracy    <       0.00015401 Ry

     total magnetization       =    15.00 Bohr mag/cell
     absolute magnetization    =    28.33 Bohr mag/cell

     iteration # 28     ecut=    40.00 Ry     beta=0.70
     Davidson diagonalization with overlap
     ethr =  6.67E-08,  avg # of iterations =  1.0

     negative rho (up, down):  0.551E-02 0.182E-02

     total cpu time spent up to now is     7394.5 secs

     total energy              =   -2024.13510982 Ry
     Harris-Foulkes estimate   =   -2024.13521379 Ry
     estimated scf accuracy    <       0.00045189 Ry

     total magnetization       =    15.00 Bohr mag/cell
     absolute magnetization    =    28.32 Bohr mag/cell

     iteration # 29     ecut=    40.00 Ry     beta=0.70
     Davidson diagonalization with overlap
     ethr =  6.67E-08,  avg # of iterations =  1.0

     negative rho (up, down):  0.549E-02 0.181E-02

     total cpu time spent up to now is     7613.4 secs

     total energy              =   -2024.13514816 Ry
     Harris-Foulkes estimate   =   -2024.13517955 Ry
     estimated scf accuracy    <       0.00022570 Ry

     total magnetization       =    15.00 Bohr mag/cell
     absolute magnetization    =    28.33 Bohr mag/cell

     iteration # 30     ecut=    40.00 Ry     beta=0.70
     Davidson diagonalization with overlap
     ethr =  6.67E-08,  avg # of iterations =  1.0

     negative rho (up, down):  0.549E-02 0.181E-02

     total cpu time spent up to now is     7831.2 secs

     total energy              =   -2024.13516594 Ry
     Harris-Foulkes estimate   =   -2024.13519039 Ry
     estimated scf accuracy    <       0.00013591 Ry

     total magnetization       =    15.00 Bohr mag/cell
     absolute magnetization    =    28.32 Bohr mag/cell

     iteration # 31     ecut=    40.00 Ry     beta=0.70
     Davidson diagonalization with overlap
     ethr =  5.88E-08,  avg # of iterations =  1.0

     negative rho (up, down):  0.549E-02 0.181E-02

     total cpu time spent up to now is     8050.0 secs

     total energy              =   -2024.13517710 Ry
     Harris-Foulkes estimate   =   -2024.13518340 Ry
     estimated scf accuracy    <       0.00003497 Ry

     total magnetization       =    15.00 Bohr mag/cell
     absolute magnetization    =    28.31 Bohr mag/cell

     iteration # 32     ecut=    40.00 Ry     beta=0.70
     Davidson diagonalization with overlap
     ethr =  1.51E-08,  avg # of iterations =  1.0

     negative rho (up, down):  0.550E-02 0.181E-02

     total cpu time spent up to now is     8291.7 secs

     total energy              =   -2024.13517518 Ry
     Harris-Foulkes estimate   =   -2024.13518318 Ry
     estimated scf accuracy    <       0.00004712 Ry

     total magnetization       =    15.00 Bohr mag/cell
     absolute magnetization    =    28.31 Bohr mag/cell

     iteration # 33     ecut=    40.00 Ry     beta=0.70
     Davidson diagonalization with overlap
     ethr =  1.51E-08,  avg # of iterations =  1.0

     negative rho (up, down):  0.549E-02 0.181E-02

     total cpu time spent up to now is     8515.2 secs

     total energy              =   -2024.13517718 Ry
     Harris-Foulkes estimate   =   -2024.13518183 Ry
     estimated scf accuracy    <       0.00003814 Ry

     total magnetization       =    15.00 Bohr mag/cell
     absolute magnetization    =    28.31 Bohr mag/cell

     iteration # 34     ecut=    40.00 Ry     beta=0.70
     Davidson diagonalization with overlap
     ethr =  1.51E-08,  avg # of iterations =  1.0

     negative rho (up, down):  0.549E-02 0.181E-02

     total cpu time spent up to now is     8749.6 secs

     total energy              =   -2024.13517577 Ry
     Harris-Foulkes estimate   =   -2024.13518806 Ry
     estimated scf accuracy    <       0.00003118 Ry

     total magnetization       =    15.00 Bohr mag/cell
     absolute magnetization    =    28.30 Bohr mag/cell

     iteration # 35     ecut=    40.00 Ry     beta=0.70
     Davidson diagonalization with overlap
     ethr =  1.35E-08,  avg # of iterations =  1.0

     negative rho (up, down):  0.549E-02 0.181E-02

     total cpu time spent up to now is     8987.4 secs

     total energy              =   -2024.13517454 Ry
     Harris-Foulkes estimate   =   -2024.13519182 Ry
     estimated scf accuracy    <       0.00015606 Ry

     total magnetization       =    15.00 Bohr mag/cell
     absolute magnetization    =    28.30 Bohr mag/cell

     iteration # 36     ecut=    40.00 Ry     beta=0.70
     Davidson diagonalization with overlap
     ethr =  1.35E-08,  avg # of iterations =  1.0

     negative rho (up, down):  0.549E-02 0.181E-02

     total cpu time spent up to now is     9219.2 secs

     total energy              =   -2024.13518209 Ry
     Harris-Foulkes estimate   =   -2024.13518538 Ry
     estimated scf accuracy    <       0.00001553 Ry

     total magnetization       =    15.00 Bohr mag/cell
     absolute magnetization    =    28.30 Bohr mag/cell

     iteration # 37     ecut=    40.00 Ry     beta=0.70
     Davidson diagonalization with overlap
     ethr =  6.72E-09,  avg # of iterations =  1.0

     negative rho (up, down):  0.549E-02 0.181E-02

     total cpu time spent up to now is     9451.2 secs

     total energy              =   -2024.13518101 Ry
     Harris-Foulkes estimate   =   -2024.13518740 Ry
     estimated scf accuracy    <       0.00008505 Ry

     total magnetization       =    15.00 Bohr mag/cell
     absolute magnetization    =    28.30 Bohr mag/cell

     iteration # 38     ecut=    40.00 Ry     beta=0.70
     Davidson diagonalization with overlap
     ethr =  6.72E-09,  avg # of iterations =  1.0

     negative rho (up, down):  0.549E-02 0.181E-02

     total cpu time spent up to now is     9685.3 secs

     total energy              =   -2024.13518464 Ry
     Harris-Foulkes estimate   =   -2024.13518804 Ry
     estimated scf accuracy    <       0.00002026 Ry

     total magnetization       =    15.00 Bohr mag/cell
     absolute magnetization    =    28.30 Bohr mag/cell

     iteration # 39     ecut=    40.00 Ry     beta=0.70
     Davidson diagonalization with overlap
     ethr =  6.72E-09,  avg # of iterations =  1.0

     negative rho (up, down):  0.549E-02 0.181E-02

     total cpu time spent up to now is     9916.6 secs

     total energy              =   -2024.13518630 Ry
     Harris-Foulkes estimate   =   -2024.13518715 Ry
     estimated scf accuracy    <       0.00001252 Ry

     total magnetization       =    15.00 Bohr mag/cell
     absolute magnetization    =    28.30 Bohr mag/cell

     iteration # 40     ecut=    40.00 Ry     beta=0.70
     Davidson diagonalization with overlap
     ethr =  5.42E-09,  avg # of iterations =  1.0

     negative rho (up, down):  0.549E-02 0.181E-02

     total cpu time spent up to now is    10147.8 secs

     total energy              =   -2024.13518704 Ry
     Harris-Foulkes estimate   =   -2024.13518789 Ry
     estimated scf accuracy    <       0.00000641 Ry

     total magnetization       =    15.00 Bohr mag/cell
     absolute magnetization    =    28.30 Bohr mag/cell

     iteration # 41     ecut=    40.00 Ry     beta=0.70
     Davidson diagonalization with overlap
     ethr =  2.77E-09,  avg # of iterations =  1.0

     negative rho (up, down):  0.549E-02 0.181E-02

     total cpu time spent up to now is    10379.0 secs

     total energy              =   -2024.13518520 Ry
     Harris-Foulkes estimate   =   -2024.13518814 Ry
     estimated scf accuracy    <       0.00000603 Ry

     total magnetization       =    15.00 Bohr mag/cell
     absolute magnetization    =    28.30 Bohr mag/cell

     iteration # 42     ecut=    40.00 Ry     beta=0.70
     Davidson diagonalization with overlap
     ethr =  2.61E-09,  avg # of iterations =  1.0

     negative rho (up, down):  0.549E-02 0.181E-02

     total cpu time spent up to now is    10612.1 secs

     total energy              =   -2024.13518599 Ry
     Harris-Foulkes estimate   =   -2024.13518772 Ry
     estimated scf accuracy    <       0.00001668 Ry

     total magnetization       =    15.00 Bohr mag/cell
     absolute magnetization    =    28.30 Bohr mag/cell

     iteration # 43     ecut=    40.00 Ry     beta=0.70
     Davidson diagonalization with overlap
     ethr =  2.61E-09,  avg # of iterations =  1.0

     negative rho (up, down):  0.549E-02 0.181E-02

     total cpu time spent up to now is    10843.7 secs

     total energy              =   -2024.13518760 Ry
     Harris-Foulkes estimate   =   -2024.13518803 Ry
     estimated scf accuracy    <       0.00000456 Ry

     total magnetization       =    15.00 Bohr mag/cell
     absolute magnetization    =    28.30 Bohr mag/cell

     iteration # 44     ecut=    40.00 Ry     beta=0.70
     Davidson diagonalization with overlap
     ethr =  1.97E-09,  avg # of iterations =  1.0

     negative rho (up, down):  0.549E-02 0.181E-02

     total cpu time spent up to now is    11087.8 secs

     total energy              =   -2024.13518834 Ry
     Harris-Foulkes estimate   =   -2024.13518850 Ry
     estimated scf accuracy    <       0.00000210 Ry

     total magnetization       =    15.00 Bohr mag/cell
     absolute magnetization    =    28.29 Bohr mag/cell

     iteration # 45     ecut=    40.00 Ry     beta=0.70
     Davidson diagonalization with overlap
     ethr =  9.09E-10,  avg # of iterations =  1.0

     negative rho (up, down):  0.549E-02 0.181E-02

     total cpu time spent up to now is    11331.3 secs

     total energy              =   -2024.13518740 Ry
     Harris-Foulkes estimate   =   -2024.13518876 Ry
     estimated scf accuracy    <       0.00000421 Ry

     total magnetization       =    15.00 Bohr mag/cell
     absolute magnetization    =    28.29 Bohr mag/cell

     iteration # 46     ecut=    40.00 Ry     beta=0.70
     Davidson diagonalization with overlap
     ethr =  9.09E-10,  avg # of iterations =  2.0

     negative rho (up, down):  0.549E-02 0.181E-02

     total cpu time spent up to now is    11573.5 secs

     total energy              =   -2024.13518662 Ry
     Harris-Foulkes estimate   =   -2024.13518978 Ry
     estimated scf accuracy    <       0.00001916 Ry

     total magnetization       =    15.00 Bohr mag/cell
     absolute magnetization    =    28.29 Bohr mag/cell

     iteration # 47     ecut=    40.00 Ry     beta=0.70
     Davidson diagonalization with overlap
     ethr =  9.09E-10,  avg # of iterations =  1.5

     negative rho (up, down):  0.549E-02 0.181E-02

     total cpu time spent up to now is    11804.4 secs

     total energy              =   -2024.13518804 Ry
     Harris-Foulkes estimate   =   -2024.13518885 Ry
     estimated scf accuracy    <       0.00001029 Ry

     total magnetization       =    15.00 Bohr mag/cell
     absolute magnetization    =    28.29 Bohr mag/cell

     iteration # 48     ecut=    40.00 Ry     beta=0.70
     Davidson diagonalization with overlap
     ethr =  9.09E-10,  avg # of iterations =  1.0

     negative rho (up, down):  0.549E-02 0.181E-02

     total cpu time spent up to now is    12036.2 secs

     total energy              =   -2024.13518832 Ry
     Harris-Foulkes estimate   =   -2024.13518877 Ry
     estimated scf accuracy    <       0.00000206 Ry

     total magnetization       =    15.00 Bohr mag/cell
     absolute magnetization    =    28.29 Bohr mag/cell

     iteration # 49     ecut=    40.00 Ry     beta=0.70
     Davidson diagonalization with overlap
     ethr =  8.93E-10,  avg # of iterations =  1.0

     negative rho (up, down):  0.549E-02 0.181E-02

     total cpu time spent up to now is    12267.8 secs

     total energy              =   -2024.13518829 Ry
     Harris-Foulkes estimate   =   -2024.13518877 Ry
     estimated scf accuracy    <       0.00000314 Ry

     total magnetization       =    15.00 Bohr mag/cell
     absolute magnetization    =    28.29 Bohr mag/cell

     iteration # 50     ecut=    40.00 Ry     beta=0.70
     Davidson diagonalization with overlap
     ethr =  8.93E-10,  avg # of iterations =  1.0

     negative rho (up, down):  0.549E-02 0.181E-02

     total cpu time spent up to now is    12503.5 secs

     End of self-consistent calculation
 --- enter write_ns ---
 LDA+U parameters:
U( 2)     =  6.00000000
alpha( 2) =  0.00000000
atom    3   Tr[ns(na)] (up, down, total) =   3.71173  0.89241  4.60413
   spin  1
    eigenvalues: 
  0.459  0.500  0.818  0.943  0.990
    eigenvectors:
  0.003  0.219  0.001  0.000  0.778
  0.989  0.011  0.000  0.000  0.000
  0.000  0.000  0.999  0.000  0.001
  0.009  0.770  0.000  0.000  0.221
  0.000  0.000  0.000  1.000  0.000
    occupations:
  0.882 -0.002  0.003 -0.204  0.000
 -0.002  0.460  0.001 -0.004 -0.006
  0.003  0.001  0.818 -0.004  0.001
 -0.204 -0.004 -0.004  0.609 -0.001
  0.000 -0.006  0.001 -0.001  0.943
   spin  2
    eigenvalues: 
  0.072  0.086  0.091  0.309  0.335
    eigenvectors:
  0.752  0.000  0.041  0.000  0.207
  0.000  0.002  0.000  0.997  0.002
  0.049  0.000  0.951  0.000  0.000
  0.199  0.000  0.008  0.002  0.791
  0.000  0.998  0.000  0.002  0.000
    occupations:
  0.127 -0.002 -0.002  0.106 -0.000
 -0.002  0.308 -0.000 -0.000  0.009
 -0.002 -0.000  0.090  0.005  0.000
  0.106 -0.000  0.005  0.281 -0.000
 -0.000  0.009  0.000 -0.000  0.086
atomic mag. moment =     2.819322
atom    4   Tr[ns(na)] (up, down, total) =   3.67151  0.94140  4.61291
   spin  1
    eigenvalues: 
  0.489  0.539  0.723  0.929  0.991
    eigenvectors:
  0.002  0.992  0.000  0.002  0.004
  0.000  0.001  0.015  0.982  0.001
  0.000  0.000  0.984  0.015  0.000
  0.000  0.004  0.000  0.000  0.995
  0.998  0.002  0.000  0.000  0.000
    occupations:
  0.541 -0.015 -0.001  0.029  0.002
 -0.015  0.925  0.025  0.002  0.001
 -0.001  0.025  0.726  0.000 -0.003
  0.029  0.002  0.000  0.989 -0.000
  0.002  0.001 -0.003 -0.000  0.490
   spin  2
    eigenvalues: 
  0.076  0.090  0.101  0.328  0.346
    eigenvectors:
  0.005  0.001  0.000  0.002  0.992
  0.004  0.870  0.124  0.000  0.002
  0.001  0.123  0.876  0.000  0.000
  0.990  0.006  0.000  0.000  0.004
  0.000  0.000  0.000  0.998  0.002
    occupations:
  0.344  0.010  0.002 -0.018  0.001
  0.010  0.091 -0.004  0.000 -0.001
  0.002 -0.004  0.100  0.000  0.000
 -0.018  0.000  0.000  0.077  0.000
  0.001 -0.001  0.000  0.000  0.328
atomic mag. moment =     2.730115
atom    9   Tr[ns(na)] (up, down, total) =   3.69937  0.95376  4.65313
   spin  1
    eigenvalues: 
  0.502  0.512  0.782  0.916  0.987
    eigenvectors:
  0.025  0.149  0.000  0.000  0.826
  0.860  0.140  0.000  0.000  0.000
  0.000  0.000  0.976  0.024  0.000
  0.115  0.711  0.000  0.000  0.174
  0.000  0.000  0.024  0.976  0.000
    occupations:
  0.904  0.003 -0.001 -0.181  0.000
  0.003  0.504  0.004  0.003 -0.000
 -0.001  0.004  0.785 -0.001 -0.021
 -0.181  0.003 -0.001  0.593  0.002
  0.000 -0.000 -0.021  0.002  0.913
   spin  2
    eigenvalues: 
  0.085  0.100  0.102  0.327  0.340
    eigenvectors:
  0.834  0.000  0.000  0.000  0.166
  0.000  0.000  0.000  0.999  0.001
  0.000  0.212  0.788  0.000  0.000
  0.166  0.000  0.000  0.001  0.833
  0.000  0.788  0.212  0.000  0.000
    occupations:
  0.127  0.001  0.000  0.095 -0.000
  0.001  0.327 -0.000  0.000  0.000
  0.000 -0.000  0.102  0.000  0.001
  0.095  0.000  0.000  0.297 -0.000
 -0.000  0.000  0.001 -0.000  0.101
atomic mag. moment =     2.745609
atom   10   Tr[ns(na)] (up, down, total) =   3.75419  0.83249  4.58668
   spin  1
    eigenvalues: 
  0.480  0.504  0.849  0.931  0.990
    eigenvectors:
  0.000  0.996  0.000  0.000  0.004
  0.000  0.001  0.000  0.956  0.042
  0.001  0.000  0.999  0.000  0.000
  0.000  0.003  0.000  0.043  0.954
  0.999  0.000  0.001  0.000  0.000
    occupations:
  0.506 -0.015 -0.002  0.027 -0.000
 -0.015  0.933 -0.001 -0.011  0.001
 -0.002 -0.001  0.849  0.000  0.012
  0.027 -0.011  0.000  0.986  0.000
 -0.000  0.001  0.012  0.000  0.480
   spin  2
    eigenvalues: 
  0.070  0.098  0.101  0.253  0.310
    eigenvectors:
  0.008  0.000  0.000  0.992  0.000
  0.001  0.000  0.999  0.000  0.000
  0.000  1.000  0.000  0.000  0.000
  0.991  0.000  0.001  0.008  0.000
  0.000  0.000  0.000  0.000  1.000
    occupations:
  0.251  0.000 -0.000 -0.016 -0.000
  0.000  0.101 -0.000  0.001 -0.000
 -0.000 -0.000  0.098 -0.000  0.002
 -0.016  0.001 -0.000  0.072 -0.000
 -0.000 -0.000  0.002 -0.000  0.310
atomic mag. moment =     2.921707
atom   16   Tr[ns(na)] (up, down, total) =   3.71125  0.89323  4.60449
   spin  1
    eigenvalues: 
  0.460  0.502  0.815  0.944  0.990
    eigenvectors:
  0.004  0.217  0.001  0.000  0.778
  0.982  0.018  0.000  0.000  0.000
  0.000  0.000  0.999  0.000  0.001
  0.013  0.765  0.000  0.000  0.221
  0.000  0.000  0.000  0.999  0.000
    occupations:
  0.882  0.004  0.003 -0.203 -0.000
  0.004  0.460 -0.001  0.004 -0.006
  0.003 -0.001  0.816 -0.004  0.003
 -0.203  0.004 -0.004  0.609 -0.000
 -0.000 -0.006  0.003 -0.000  0.944
   spin  2
    eigenvalues: 
  0.072  0.086  0.091  0.309  0.335
    eigenvectors:
  0.751  0.000  0.042  0.000  0.207
  0.000  0.001  0.000  0.997  0.001
  0.049  0.000  0.950  0.000  0.000
  0.199  0.000  0.008  0.001  0.792
  0.000  0.998  0.000  0.001  0.000
    occupations:
  0.127  0.002 -0.002  0.106 -0.000
  0.002  0.309 -0.000  0.000  0.009
 -0.002 -0.000  0.090  0.005 -0.000
  0.106  0.000  0.005  0.281 -0.000
 -0.000  0.009 -0.000 -0.000  0.086
atomic mag. moment =     2.818017
atom   17   Tr[ns(na)] (up, down, total) =   3.68650  0.92798  4.61448
   spin  1
    eigenvalues: 
  0.481  0.533  0.756  0.926  0.991
    eigenvectors:
  0.001  0.994  0.000  0.001  0.004
  0.000  0.001  0.018  0.981  0.000
  0.000  0.000  0.982  0.018  0.000
  0.000  0.004  0.000  0.000  0.996
  0.998  0.001  0.000  0.000  0.000
    occupations:
  0.535 -0.014 -0.002  0.028  0.002
 -0.014  0.923  0.022  0.001  0.001
 -0.002  0.022  0.759  0.001  0.003
  0.028  0.001  0.001  0.989 -0.000
  0.002  0.001  0.003 -0.000  0.481
   spin  2
    eigenvalues: 
  0.075  0.088  0.099  0.323  0.342
    eigenvectors:
  0.005  0.001  0.000  0.001  0.992
  0.007  0.854  0.137  0.000  0.002
  0.001  0.136  0.863  0.000  0.000
  0.986  0.009  0.000  0.000  0.005
  0.000  0.000  0.000  0.999  0.001
    occupations:
  0.341  0.011  0.002 -0.018  0.001
  0.011  0.090 -0.004  0.000 -0.000
  0.002 -0.004  0.098  0.000  0.000
 -0.018  0.000  0.000  0.076  0.000
  0.001 -0.000  0.000  0.000  0.324
atomic mag. moment =     2.758513
atom   22   Tr[ns(na)] (up, down, total) =   3.48821  1.27386  4.76207
   spin  1
    eigenvalues: 
  0.577  0.578  0.662  0.800  0.870
    eigenvectors:
  0.218  0.016  0.767  0.000  0.000
  0.047  0.953  0.001  0.000  0.000
  0.000  0.000  0.000  0.000  1.000
  0.736  0.032  0.233  0.000  0.000
  0.000  0.000  0.000  1.000  0.000
    occupations:
  0.642  0.002  0.000 -0.036  0.000
  0.002  0.578  0.001 -0.001  0.000
  0.000  0.001  0.870  0.000 -0.001
 -0.036 -0.001  0.000  0.597 -0.000
  0.000  0.000 -0.001 -0.000  0.800
   spin  2
    eigenvalues: 
  0.125  0.164  0.183  0.394  0.408
    eigenvectors:
  0.000  0.000  0.976  0.000  0.024
  0.000  0.000  0.000  0.999  0.000
  1.000  0.000  0.000  0.000  0.000
  0.000  0.000  0.024  0.001  0.975
  0.000  1.000  0.000  0.000  0.000
    occupations:
  0.188 -0.002 -0.000  0.035 -0.000
 -0.002  0.394 -0.000 -0.000 -0.000
 -0.000 -0.000  0.125 -0.000 -0.000
  0.035 -0.000 -0.000  0.402  0.000
 -0.000 -0.000 -0.000  0.000  0.164
atomic mag. moment =     2.214356
atom   23   Tr[ns(na)] (up, down, total) =   3.66656  0.93458  4.60114
   spin  1
    eigenvalues: 
  0.478  0.530  0.713  0.959  0.986
    eigenvectors:
  0.000  0.995  0.000  0.000  0.005
  0.000  0.000  0.000  0.946  0.054
  0.003  0.000  0.997  0.000  0.000
  0.000  0.005  0.000  0.053  0.942
  0.997  0.000  0.003  0.000  0.000
    occupations:
  0.532  0.002 -0.002  0.031  0.000
  0.002  0.961  0.001  0.006  0.000
 -0.002  0.001  0.713 -0.000 -0.013
  0.031  0.006 -0.000  0.983 -0.000
  0.000  0.000 -0.013 -0.000  0.479
   spin  2
    eigenvalues: 
  0.074  0.089  0.103  0.327  0.342
    eigenvectors:
  0.004  0.001  0.000  0.000  0.995
  0.006  0.993  0.000  0.000  0.001
  0.000  0.000  1.000  0.000  0.000
  0.990  0.006  0.000  0.000  0.004
  0.000  0.000  0.000  1.000  0.000
    occupations:
  0.341  0.007  0.000 -0.017 -0.000
  0.007  0.089 -0.000 -0.002 -0.000
  0.000 -0.000  0.103 -0.000 -0.002
 -0.017 -0.002 -0.000  0.075 -0.000
 -0.000 -0.000 -0.002 -0.000  0.327
atomic mag. moment =     2.731978
N of occupied +U levels =  37.0390294
 --- exit write_ns ---

 ------ SPIN UP ------------


          k = 0.0000 0.0000 0.0000 ( 27003 PWs)   bands (ev):

   -75.6983 -75.1812 -75.0543 -75.0467 -74.9591 -74.9427 -74.8118 -74.7933
   -47.1203 -47.0291 -46.9194 -46.6774 -46.4688 -46.4366 -46.4024 -46.3999
   -46.3950 -46.3817 -46.3581 -46.3426 -46.2858 -46.2754 -46.2636 -46.2562
   -46.2465 -46.1868 -46.1781 -46.1729 -46.1664 -46.1165 -46.1010 -45.9963
   -21.0557 -20.6416 -20.2542 -20.1502 -20.0194 -19.9264 -19.7920 -19.6119
   -19.5631 -19.5193 -19.4143 -19.2514 -19.1799 -19.1009 -19.0785 -19.0520
   -18.9786 -18.9411 -18.8333  -9.9443  -9.7101  -9.3701  -9.3215  -9.1109
    -8.9969  -8.6597  -8.6355  -8.4659  -8.1000  -8.0304  -7.9751  -7.8442
    -7.7301  -7.6551  -7.2671  -7.1970  -7.1908  -7.1389  -7.0911  -7.0270
    -6.8113  -6.7461  -6.6055  -6.5318  -6.4136  -6.2146  -6.1648  -6.1262
    -5.8362  -5.7802  -5.7161  -5.6238  -5.5536  -5.4401  -5.4318  -5.3279
    -5.1588  -5.0617  -5.0081  -4.9281  -4.9092  -4.8743  -4.7569  -4.6576
    -4.6126  -4.5740  -4.5446  -4.4194  -4.3746  -4.2912  -4.2615  -4.1743
    -4.1666  -4.0432  -4.0213  -3.8354  -3.8098  -3.7346  -3.5779  -3.5371
    -3.4796  -3.1921  -3.0553  -2.9276  -2.8297  -2.6181  -2.4955  -2.2838
    -2.2364  -2.0633  -2.0433  -1.9250  -1.8023  -1.7093  -1.6343  -1.5857
    -1.3934  -1.2732  -1.2104  -1.0064  -0.2630   0.4036   0.5785   0.9557
     1.2834   1.4412   1.6066   1.6285   1.7788   1.9217   2.0629   2.0934
     2.2282   2.2698   2.3725   2.7614   3.2376   3.3377   3.7758   4.2644
     4.7973   5.5686   6.1476   6.4239   6.7257   7.0109   7.1544   7.2378
     7.3079   7.3341   7.5576   7.6046   7.6995   7.8624   8.0275   8.1206
     8.1892   8.2227   8.3240   8.4990   8.6100   8.6393   8.7615   8.8684
     8.9500   9.2461   9.2984   9.3549   9.4796   9.5671   9.5823   9.7323
     9.9095   9.9560  10.0592  10.0828  10.1761  10.3467  10.5050  10.6142
    10.6892  10.7322  10.9963  11.0937  11.2437  11.3245  11.3949  11.4612
    11.4867  11.5008  11.5637  11.7794  11.7982  11.8736  12.0222  12.0891
    12.0971  12.1476  12.1731  12.2847  12.3536  12.3945  12.4371  12.5173
    12.5717  12.6700  12.7111  12.7829  12.8388  12.9789  13.0176  13.1083
    13.1533  13.2089  13.2299  13.2994  13.3210  13.3555  13.4764  13.5593
    13.6848  13.7628  13.7848  13.9195  13.9623  13.9900  14.1830  14.2695
    14.3197  14.3532  14.5033  14.5537  14.5986  14.6741  14.8388  14.8957
    14.9554  15.0548  15.0687  15.1825  15.2564  15.3190  15.3422  15.5339
    15.5677  15.6287  15.8025  15.8557  16.1360  16.2289  16.2770  16.4081
    16.4137  16.4578  16.6334  16.8296  16.8921  16.9505  17.0016  17.0785
    17.1265  17.1917  17.3831  17.4836  17.6312  17.7017  17.7887  17.8327
    17.9281  18.0144  18.0819  18.1622  18.2957  18.3317  18.5090  18.5635
    18.6946  18.7452  18.8107  18.8305  18.9766  19.0745  19.1649  19.2492
    19.2731  19.3090  19.4318  19.4538  19.4751  19.6488  19.7155  19.7549
    19.8411  19.9111  19.9913  20.0583  20.0820  20.2145  20.3004  20.3456
    20.4004  20.4527  20.5195  20.6301  20.7105  20.7597  20.8985  20.9826
    21.0336  21.0725  21.1689  21.1979  21.2627  21.3438  21.3968  21.4891
    21.5112  21.5291  21.5652  21.5978  21.7332  21.7734

          k = 0.0000 0.2341 0.0000 ( 27088 PWs)   bands (ev):

   -75.6982 -75.1812 -75.0543 -75.0467 -74.9591 -74.9428 -74.8118 -74.7933
   -47.1203 -47.0291 -46.9193 -46.6774 -46.4694 -46.4348 -46.4020 -46.3997
   -46.3944 -46.3818 -46.3588 -46.3444 -46.2856 -46.2741 -46.2634 -46.2557
   -46.2468 -46.1892 -46.1777 -46.1737 -46.1654 -46.1165 -46.1010 -45.9964
   -20.9561 -20.5385 -20.3376 -20.1442 -20.0295 -19.9425 -19.7858 -19.6490
   -19.6027 -19.5353 -19.4628 -19.2380 -19.1552 -19.1508 -19.1000 -19.0558
   -18.9988 -18.9300 -18.8274  -9.7698  -9.4956  -9.4248  -9.3086  -9.2677
    -9.0822  -9.0421  -8.6414  -8.3080  -7.9994  -7.7904  -7.7199  -7.6340
    -7.5491  -7.4859  -7.1638  -7.0878  -7.0659  -6.9963  -6.9838  -6.9058
    -6.8762  -6.7731  -6.6255  -6.5548  -6.4944  -6.2947  -6.2669  -6.0199
    -5.8806  -5.8682  -5.7688  -5.7106  -5.6139  -5.5816  -5.5546  -5.5063
    -5.4754  -5.4490  -5.3776  -5.2456  -5.1615  -4.8896  -4.8427  -4.7119
    -4.6649  -4.5284  -4.4957  -4.3652  -4.2906  -4.2168  -4.1255  -4.0506
    -4.0219  -3.9701  -3.9415  -3.8285  -3.6487  -3.5491  -3.4870  -3.4256
    -3.2940  -3.1839  -3.0935  -2.8517  -2.8412  -2.7114  -2.6264  -2.5115
    -2.4661  -2.3475  -2.1549  -1.8985  -1.7239  -1.7003  -1.5535  -1.4553
    -1.4105  -1.2962  -1.2557  -1.2402  -0.0805   0.4091   0.4467   0.7066
     0.8388   1.2924   1.7010   1.9203   2.0251   2.0802   2.1251   2.2302
     2.2545   2.3962   2.6489   2.6880   3.4452   3.5971   4.0221   4.4841
     5.0098   5.4433   5.6195   5.8763   6.0952   6.3940   6.5645   7.0869
     7.1978   7.3101   7.4630   7.5307   7.7762   7.9837   8.2390   8.3447
     8.4003   8.4398   8.5088   8.6975   8.8198   8.8825   8.9722   9.1522
     9.1854   9.3480   9.4373   9.5318   9.6367   9.7373   9.8462  10.0306
    10.0611  10.1220  10.1670  10.2526  10.2736  10.3114  10.3492  10.4423
    10.4700  10.5999  10.6422  10.7764  10.8362  10.9280  11.0777  11.2137
    11.2780  11.3559  11.4670  11.6132  11.6512  11.6960  11.7710  11.7789
    11.8936  11.9992  12.1643  12.3321  12.3874  12.4538  12.5397  12.6566
    12.7698  12.8432  12.8872  13.0087  13.0495  13.1884  13.3108  13.4053
    13.4526  13.4870  13.5965  13.6851  13.7897  13.9158  14.0019  14.0585
    14.1150  14.1542  14.2388  14.2858  14.3135  14.3847  14.4569  14.4972
    14.5464  14.6274  14.6602  14.7161  14.7910  14.8627  14.9903  15.0156
    15.1213  15.2128  15.2642  15.3345  15.3862  15.4727  15.4991  15.5502
    15.6528  15.6949  15.7289  15.8118  15.8964  15.9622  16.0860  16.1248
    16.1787  16.2573  16.3964  16.4178  16.5454  16.6132  16.6816  16.8206
    16.8892  17.0295  17.1050  17.1686  17.2233  17.3170  17.3447  17.4824
    17.6125  17.6768  17.7113  17.9109  18.0888  18.1174  18.2732  18.3880
    18.4526  18.5361  18.5866  18.7222  18.7611  18.8556  18.9562  19.0664
    19.1072  19.1885  19.2628  19.2956  19.4645  19.5408  19.5752  19.6490
    19.9057  19.9529  20.0001  20.0280  20.1120  20.1720  20.2330  20.2861
    20.3584  20.3919  20.4102  20.4902  20.5443  20.6486  20.6945  20.7636
    20.7793  20.8266  20.9392  20.9858  21.0104  21.0854  21.1634  21.2260
    21.2816  21.3096  21.3731  21.4642  21.5663  21.6299

          k = 0.0000-0.4682 0.0000 ( 27136 PWs)   bands (ev):

   -75.6982 -75.1812 -75.0544 -75.0468 -74.9591 -74.9428 -74.8117 -74.7932
   -47.1203 -47.0291 -46.9191 -46.6774 -46.4698 -46.4331 -46.4017 -46.3994
   -46.3937 -46.3818 -46.3594 -46.3463 -46.2855 -46.2727 -46.2632 -46.2553
   -46.2471 -46.1919 -46.1773 -46.1743 -46.1643 -46.1165 -46.1010 -45.9965
   -20.7998 -20.5093 -20.3159 -20.1524 -20.1359 -19.9714 -19.7452 -19.7103
   -19.6089 -19.5395 -19.5060 -19.2601 -19.2314 -19.1271 -19.1061 -19.0485
   -18.9923 -18.9221 -18.8322  -9.6217  -9.5942  -9.3273  -9.3110  -9.2477
    -9.1349  -9.0816  -8.6529  -8.0187  -7.9661  -7.7027  -7.6282  -7.5460
    -7.4220  -7.3025  -7.1327  -7.1136  -7.0097  -6.9276  -6.8314  -6.7231
    -6.6394  -6.6276  -6.5793  -6.4994  -6.4857  -6.3261  -6.3040  -6.1254
    -6.0890  -5.9893  -5.9513  -5.9308  -5.8775  -5.7449  -5.7095  -5.6125
    -5.6058  -5.4901  -5.4035  -5.3634  -5.2393  -5.1783  -5.1012  -4.7303
    -4.6940  -4.6502  -4.4798  -4.3111  -4.2800  -4.1856  -4.1116  -4.0327
    -3.9420  -3.8963  -3.8139  -3.6729  -3.6288  -3.4884  -3.4698  -3.2851
    -3.1392  -3.0965  -3.0701  -3.0148  -2.9335  -2.7456  -2.6590  -2.5975
    -2.4612  -2.3869  -2.0665  -1.8975  -1.8587  -1.7733  -1.6481  -1.5655
    -1.5035  -1.3099  -1.2929  -1.0830   0.0575   0.0660   0.3005   0.3948
     1.1460   1.3607   1.8869   1.9821   2.0355   2.1171   2.1251   2.1571
     2.2682   2.2779   2.8096   3.0918   3.7817   4.1660   4.4825   4.6000
     4.7574   4.9153   5.2025   5.4312   5.7979   6.0730   6.5083   6.8716
     7.1144   7.4383   7.5468   7.6364   7.7925   7.9790   8.1074   8.2944
     8.3282   8.5708   8.7311   8.9740   8.9995   9.0571   9.1211   9.1622
     9.1926   9.2155   9.4502   9.5283   9.5551   9.6369   9.6491   9.7279
     9.8546   9.9245  10.0345  10.0903  10.2137  10.3432  10.3645  10.4679
    10.7210  10.8000  10.9316  10.9885  11.0419  11.0640  11.1648  11.2307
    11.3995  11.5402  11.5760  11.6864  11.7091  11.8596  12.0036  12.2011
    12.2288  12.2505  12.4260  12.4491  12.5005  12.5241  12.6097  12.7533
    12.8543  12.8992  12.9917  13.0583  13.1988  13.2129  13.2448  13.3624
    13.4600  13.5365  13.5583  13.6827  13.7040  13.7765  13.8120  13.9131
    14.1269  14.1869  14.2241  14.2610  14.4130  14.4760  14.5532  14.6152
    14.6560  14.6764  14.7260  14.7890  14.8152  14.9925  15.0597  15.1031
    15.2037  15.2576  15.2662  15.3249  15.3449  15.4733  15.6274  15.6335
    15.7518  15.8933  15.9441  16.0313  16.0559  16.1032  16.3398  16.4195
    16.4828  16.6232  16.6399  16.7613  16.7849  16.8602  16.8815  16.9327
    17.0112  17.0545  17.0747  17.0967  17.1420  17.4070  17.4550  17.5398
    17.5703  17.6356  17.7309  17.8176  17.9083  18.0053  18.0467  18.0770
    18.2409  18.2809  18.3294  18.4336  18.4481  18.4699  18.5616  18.5900
    18.6486  18.7107  18.7174  18.7987  18.9787  19.0415  19.0761  19.1541
    19.2161  19.2492  19.3364  19.3919  19.6478  19.7137  19.8629  19.9259
    20.0320  20.0920  20.1490  20.1970  20.2658  20.3369  20.4049  20.4317
    20.5628  20.7490  20.7596  20.7935  20.8477  20.8931  20.9403  21.0601
    21.1048  21.1363  21.1874  21.2506  21.2909  21.3249

          k = 0.2500 0.0000 0.0000 ( 27178 PWs)   bands (ev):

   -75.6979 -75.1806 -75.0536 -75.0465 -74.9590 -74.9425 -74.8099 -74.7943
   -47.1178 -47.0290 -46.9195 -46.6775 -46.4534 -46.4332 -46.4039 -46.4018
   -46.3933 -46.3815 -46.3422 -46.3383 -46.2867 -46.2771 -46.2731 -46.2646
   -46.2489 -46.1906 -46.1848 -46.1729 -46.1595 -46.1109 -46.1033 -46.0201
   -20.9235 -20.5288 -20.2550 -20.1711 -20.0563 -19.9197 -19.7995 -19.6962
   -19.6560 -19.5071 -19.4410 -19.2298 -19.1513 -19.1207 -19.1037 -19.0269
   -19.0054 -18.9663 -18.8585  -9.6917  -9.4886  -9.1716  -9.0838  -8.9927
    -8.8249  -8.5585  -8.5359  -8.3137  -8.1899  -8.1686  -8.0644  -7.9346
    -7.7464  -7.6830  -7.6094  -7.4256  -7.3368  -7.2633  -7.2250  -7.0227
    -6.8918  -6.7303  -6.6344  -6.5999  -6.4928  -6.2751  -6.1965  -6.0586
    -5.9802  -5.9482  -5.6711  -5.5999  -5.5533  -5.4968  -5.4722  -5.3970
    -5.3430  -5.3112  -5.2452  -5.0665  -5.0116  -4.9057  -4.8401  -4.7918
    -4.7294  -4.5374  -4.4459  -4.3144  -4.2829  -4.1680  -4.1199  -4.0925
    -3.9864  -3.9269  -3.8466  -3.7023  -3.6509  -3.5893  -3.5246  -3.3779
    -3.2392  -3.1526  -3.0550  -2.8910  -2.7205  -2.6916  -2.4674  -2.3120
    -2.2649  -2.2074  -1.9741  -1.9278  -1.8611  -1.7107  -1.5484  -1.5084
    -1.4698  -1.4211  -1.2407  -1.1227  -0.1735   0.4049   0.6689   1.0591
     1.2697   1.4475   1.5229   1.6008   1.7343   1.7852   1.8562   2.0000
     2.0742   2.1206   2.2454   2.7144   3.5315   3.6467   4.0670   4.5463
     5.0914   5.6959   5.7254   6.0105   6.3088   6.4465   6.7405   6.7926
     7.2321   7.3947   7.4550   7.5565   7.6469   7.8376   7.9181   7.9604
     8.0714   8.3306   8.4031   8.4946   8.7565   8.8695   9.0356   9.1167
     9.2382   9.3676   9.4284   9.5253   9.6361   9.8158   9.9366   9.9660
    10.0060  10.0852  10.1053  10.1847  10.2358  10.2611  10.3824  10.4837
    10.6060  10.6410  10.6771  10.8010  10.9436  11.0283  11.1202  11.2590
    11.3768  11.4176  11.4510  11.5915  11.6752  11.7211  11.8189  11.8674
    11.9992  12.1428  12.1932  12.3530  12.4296  12.5677  12.5879  12.6871
    12.7496  12.8586  12.9428  12.9915  13.0767  13.1176  13.2467  13.2764
    13.3303  13.4552  13.5535  13.5871  13.6899  13.8154  13.8997  14.0334
    14.1167  14.2216  14.3079  14.3887  14.4377  14.4595  14.5593  14.5991
    14.6186  14.6586  14.7155  14.7404  14.8552  14.9035  14.9803  15.1782
    15.2550  15.2963  15.3721  15.4453  15.5812  15.6608  15.7050  15.7376
    15.8491  15.8699  15.9988  16.0292  16.0966  16.2309  16.3251  16.4601
    16.4872  16.5720  16.6073  16.7279  16.9142  16.9360  17.0302  17.1128
    17.1736  17.2135  17.2357  17.3212  17.4454  17.5080  17.5930  17.6134
    17.6781  17.7389  17.8232  17.9132  18.0254  18.0786  18.1110  18.2157
    18.3003  18.3778  18.5019  18.6894  18.7190  18.8648  18.8865  18.9359
    18.9947  19.1234  19.2424  19.2827  19.4498  19.5151  19.6246  19.6561
    19.7034  19.7629  19.7892  19.8417  19.8930  19.9388  20.0661  20.1549
    20.1791  20.2399  20.3701  20.4074  20.4932  20.5319  20.5676  20.6766
    20.7812  20.8811  20.9418  21.0679  21.1311  21.1718  21.2036  21.2657
    21.2958  21.3250  21.3805  21.4579  21.5017  21.5498

          k = 0.2500 0.2341 0.0000 ( 27132 PWs)   bands (ev):

   -75.6979 -75.1807 -75.0536 -75.0465 -74.9590 -74.9426 -74.8098 -74.7943
   -47.1178 -47.0290 -46.9193 -46.6775 -46.4540 -46.4315 -46.4033 -46.4015
   -46.3925 -46.3815 -46.3445 -46.3391 -46.2865 -46.2758 -46.2726 -46.2646
   -46.2490 -46.1925 -46.1855 -46.1723 -46.1593 -46.1108 -46.1032 -46.0201
   -20.8333 -20.4358 -20.2447 -20.2375 -20.0414 -19.9344 -19.7728 -19.7023
   -19.6338 -19.5931 -19.4488 -19.2908 -19.1959 -19.1619 -19.1260 -19.0616
   -18.9914 -18.9423 -18.8511  -9.5396  -9.2935  -9.2122  -9.0937  -9.0440
    -8.9008  -8.8345  -8.5144  -8.2320  -8.0235  -7.9501  -7.9153  -7.7745
    -7.6802  -7.5649  -7.4602  -7.3893  -7.2462  -7.1908  -7.0364  -6.8608
    -6.8129  -6.6951  -6.6059  -6.5330  -6.4124  -6.3588  -6.1704  -6.1349
    -6.0354  -5.9839  -5.9531  -5.8976  -5.8354  -5.7458  -5.7146  -5.5938
    -5.4979  -5.4389  -5.3707  -5.3229  -5.2159  -5.0664  -4.9048  -4.7751
    -4.6091  -4.5765  -4.5119  -4.3751  -4.2593  -4.1729  -4.1176  -4.0170
    -3.9185  -3.8042  -3.6771  -3.6554  -3.5523  -3.4127  -3.3339  -3.2215
    -3.1656  -3.0372  -2.9850  -2.8483  -2.7450  -2.6310  -2.5744  -2.4880
    -2.4269  -2.3231  -2.1640  -1.8940  -1.7558  -1.6866  -1.5597  -1.4960
    -1.4733  -1.4202  -1.3539  -1.2990  -0.0210   0.3919   0.5646   0.7954
     0.9212   1.2924   1.5334   1.7142   1.8046   1.8548   1.9395   2.0754
     2.1376   2.4009   2.6464   2.6934   3.7173   3.8960   4.3063   4.7592
     5.2803   5.6856   5.8692   5.8954   6.0712   6.2570   6.3884   6.5454
     6.7149   6.8761   7.0223   7.3394   7.4449   7.6455   7.7926   7.9441
     8.1104   8.2728   8.4099   8.4721   8.6377   8.8105   8.9580   9.0638
     9.1992   9.3029   9.4490   9.5481   9.6209   9.7050   9.8247   9.9689
    10.0865  10.1525  10.2613  10.3984  10.4368  10.5551  10.6400  10.7085
    10.9116  10.9713  11.0270  11.1755  11.2415  11.3433  11.4155  11.5200
    11.5886  11.6704  11.7455  11.8788  11.9433  12.0148  12.1192  12.1544
    12.2754  12.3420  12.5028  12.5880  12.6312  12.6631  12.7592  12.8250
    12.9258  12.9461  12.9907  13.0578  13.0670  13.2068  13.2564  13.2900
    13.3702  13.5327  13.5816  13.6738  13.7122  13.7836  13.8461  13.9468
    13.9970  14.1717  14.2123  14.2896  14.3468  14.4111  14.5534  14.5901
    14.6908  14.7382  14.7934  14.8435  14.8806  14.9339  15.0860  15.1333
    15.2070  15.3735  15.4188  15.4541  15.5804  15.7049  15.7527  15.8334
    15.8721  15.9730  15.9977  16.0804  16.1475  16.2006  16.2967  16.3442
    16.4269  16.5054  16.5432  16.6387  16.7244  16.8109  16.8703  16.9577
    17.0404  17.0795  17.1275  17.2249  17.3361  17.3954  17.4442  17.4717
    17.5263  17.5741  17.5906  17.6500  17.7576  17.8459  17.9275  17.9975
    18.1071  18.1588  18.1811  18.2623  18.3477  18.4759  18.5166  18.6719
    18.7175  18.7887  18.8217  18.8646  18.9022  19.0130  19.0759  19.1492
    19.2387  19.3674  19.4006  19.4538  19.5123  19.5724  19.6329  19.6882
    19.7324  19.8495  19.8780  20.0462  20.1168  20.1789  20.2603  20.3735
    20.4327  20.4731  20.5326  20.6206  20.7351  20.7614  20.9163  20.9664
    21.0128  21.1322  21.1677  21.1902  21.3303  21.3562

          k = 0.2500-0.4682 0.0000 ( 27150 PWs)   bands (ev):

   -75.6979 -75.1807 -75.0537 -75.0466 -74.9590 -74.9426 -74.8098 -74.7943
   -47.1178 -47.0290 -46.9191 -46.6775 -46.4544 -46.4299 -46.4027 -46.4013
   -46.3917 -46.3815 -46.3469 -46.3398 -46.2863 -46.2739 -46.2720 -46.2646
   -46.2490 -46.1973 -46.1843 -46.1715 -46.1590 -46.1107 -46.1032 -46.0201
   -20.7004 -20.3889 -20.2526 -20.2158 -20.0533 -19.9959 -19.7578 -19.7253
   -19.6290 -19.5881 -19.4741 -19.3541 -19.2579 -19.2392 -19.1432 -19.0447
   -18.9783 -18.9278 -18.8538  -9.4180  -9.3529  -9.1072  -9.0775  -9.0345
    -8.9339  -8.8732  -8.5351  -8.1582  -7.9538  -7.8002  -7.6358  -7.5388
    -7.4635  -7.3712  -7.2627  -7.1868  -7.1332  -7.0379  -6.9630  -6.9375
    -6.8034  -6.7719  -6.7182  -6.6258  -6.5751  -6.4616  -6.4213  -6.3416
    -6.3218  -6.0283  -6.0026  -5.8458  -5.7854  -5.7578  -5.6884  -5.6430
    -5.5955  -5.5841  -5.5183  -5.4471  -5.3428  -5.2715  -5.1396  -4.9222
    -4.7781  -4.6689  -4.5178  -4.4992  -4.3426  -4.1625  -4.0944  -3.9226
    -3.8941  -3.7098  -3.5965  -3.4625  -3.4309  -3.3475  -3.2298  -3.1685
    -3.0526  -2.9770  -2.8685  -2.8202  -2.7215  -2.6502  -2.5749  -2.5171
    -2.4498  -2.3817  -2.0226  -1.9259  -1.8744  -1.8465  -1.6247  -1.6111
    -1.4818  -1.4134  -1.4015  -1.2410   0.1028   0.1873   0.3665   0.4119
[...]
     4.0445   4.1466   4.2251   4.2502   4.3757   4.4753   4.5024   4.8861
     4.9862   5.1512   5.4368   5.6323   6.0198   6.1991   6.6694   6.8509
     7.1806   7.3197   7.5810   7.7130   7.8523   7.9321   8.2145   8.3063
     8.3416   8.5032   8.5685   8.6156   8.7970   8.8081   8.8459   8.8650
     8.9463   9.0365   9.2507   9.3453   9.4262   9.4778   9.5909   9.7215
     9.8219   9.8822  10.0716  10.2250  10.2435  10.3553  10.4381  10.4637
    10.6081  10.7217  10.8072  10.9980  11.1533  11.2170  11.3249  11.3960
    11.4389  11.4628  11.6330  11.7443  11.8379  11.9351  12.1125  12.2547
    12.3423  12.4206  12.5204  12.5933  12.7963  12.8536  12.9091  12.9179
    12.9675  13.0295  13.0694  13.2419  13.2982  13.4042  13.5845  13.6446
    13.7424  13.7704  13.8560  13.8932  13.9125  14.0008  14.0595  14.2053
    14.3622  14.4283  14.4482  14.5623  14.7191  14.7709  14.8053  14.8475
    14.8783  14.9780  15.0049  15.0262  15.0559  15.1393  15.1923  15.2354
    15.3843  15.4551  15.7125  15.8025  15.8723  15.9335  15.9384  16.0341
    16.1117  16.2328  16.2865  16.5223  16.5936  16.6764  16.6978  16.7580
    16.7982  16.9357  16.9557  17.1155  17.1482  17.1898  17.2489  17.2934
    17.3798  17.4500  17.5047  17.5579  17.6389  17.6607  17.6887  17.7104
    17.8117  17.8331  17.9012  17.9746  17.9995  18.0576  18.2142  18.2463
    18.2941  18.3894  18.4821  18.5734  18.6773  18.7094  18.8091  18.8823
    18.9100  19.0095  19.0719  19.1103  19.1592  19.2273  19.2633  19.3186
    19.3352  19.4068  19.5463  19.6555  19.7853  19.9236  20.0026  20.0442
    20.0626  20.1028  20.2556  20.3579  20.3869  20.4055  20.4889  20.5439
    20.5704  20.6341  20.6633  20.6838  20.7776  20.8032  20.8432  21.0023
    21.0445  21.0833  21.1117  21.1701  21.1905  21.2466

          k =-0.5000 0.2341 0.0000 ( 27132 PWs)   bands (ev):

   -72.2160 -72.2088 -72.2017 -72.1434 -72.1276 -72.1080 -72.0671 -72.0654
   -43.8024 -43.7829 -43.7691 -43.6839 -43.6634 -43.6386 -43.6301 -43.6139
   -43.5993 -43.5959 -43.5335 -43.5274 -43.4935 -43.4738 -43.4686 -43.4447
   -43.4432 -43.4243 -43.4224 -43.4044 -43.2597 -43.2504 -43.2448 -43.2414
   -20.9472 -20.9141 -20.7451 -20.6201 -20.4524 -20.4342 -20.3489 -20.2144
   -20.0857 -20.0649 -20.0232 -19.9326 -19.8800 -19.8364 -19.6601 -19.6395
   -19.5847 -19.4860 -19.3942  -8.3607  -8.3230  -7.9522  -7.7376  -7.6887
    -7.6276  -7.5642  -7.4407  -7.4096  -7.0987  -7.0137  -6.9862  -6.8888
    -6.7762  -6.7582  -6.6889  -6.6336  -6.2744  -6.2376  -6.1723  -6.1146
    -6.0435  -5.9051  -5.8411  -5.7907  -5.6343  -5.6209  -5.5053  -5.4633
    -5.3840  -5.3525  -5.2819  -5.2447  -5.1444  -5.1359  -4.9257  -4.8963
    -4.8748  -4.7876  -4.7394  -4.6672  -4.4875  -4.3776  -4.2685  -4.2491
    -4.1689  -4.0884  -4.0191  -3.9602  -3.8977  -3.8508  -3.7945  -3.7388
    -3.6879  -3.5536  -3.4714  -3.4143   1.8960   2.2259   2.3006   2.3326
     2.3533   2.3632   2.4232   2.4636   2.5035   2.6485   2.6733   2.6977
     2.7563   2.7757   2.7967   2.8444   2.8750   2.9009   2.9430   2.9704
     3.0829   3.1007   3.2041   3.2538   3.3191   3.3526   3.4127   3.4424
     3.4762   3.5112   3.5539   3.5940   3.6366   3.6453   3.7048   3.7249
     4.1210   4.1876   4.2573   4.3358   4.4839   4.6721   4.6839   5.1229
     5.2166   5.3748   5.6428   5.8429   6.1401   6.2826   6.4469   6.5823
     6.7311   6.9658   7.0908   7.1657   7.2485   7.3460   7.5812   7.6920
     7.7716   7.8755   8.2176   8.3404   8.5124   8.5913   8.7229   8.8271
     9.0716   9.2880   9.2993   9.5262   9.5691   9.6599   9.8317   9.9564
    10.2769  10.3704  10.5185  10.5529  10.6754  10.7576  10.8801  10.9203
    11.0177  11.0316  11.2052  11.3266  11.4659  11.5975  11.6404  11.7252
    11.7779  11.8308  11.9547  11.9716  12.2368  12.3570  12.4315  12.4851
    12.5492  12.6092  12.7081  12.7710  12.8319  12.9097  13.0351  13.1240
    13.1608  13.3108  13.4057  13.4814  13.5504  13.5886  13.6515  13.7145
    13.8332  13.9368  14.0570  14.1161  14.1339  14.2319  14.3083  14.4080
    14.4194  14.4728  14.5029  14.5807  14.6887  14.7275  14.8288  14.8622
    14.8803  14.9509  15.0052  15.0445  15.1035  15.2021  15.2374  15.3931
    15.4536  15.5121  15.6469  15.7818  15.7975  15.8351  15.8963  15.9003
    15.9683  16.0301  16.0701  16.1737  16.2023  16.2431  16.2673  16.2877
    16.3321  16.4267  16.5247  16.5956  16.6753  16.7303  16.7711  16.7945
    16.8804  16.9076  16.9616  17.0513  17.1887  17.2218  17.3079  17.3399
    17.3859  17.4109  17.4916  17.5562  17.6486  17.6986  17.8290  17.8707
    17.9351  18.0016  18.0671  18.0834  18.1992  18.3056  18.3501  18.3955
    18.4404  18.5195  18.5753  18.7066  18.9296  18.9783  19.0997  19.1569
    19.2303  19.3681  19.4779  19.5164  19.5571  19.6097  19.7383  19.7774
    19.8739  19.9422  19.9581  19.9828  20.0732  20.1053  20.1323  20.1565
    20.2054  20.2631  20.3985  20.4346  20.5469  20.6887  20.7686  20.8090
    20.8875  20.9168  20.9911  21.0477  21.2537  21.3056

          k =-0.5000-0.4682 0.0000 ( 27168 PWs)   bands (ev):

   -72.2160 -72.2088 -72.2017 -72.1434 -72.1277 -72.1080 -72.0671 -72.0655
   -43.8014 -43.7821 -43.7686 -43.6839 -43.6634 -43.6327 -43.6265 -43.6106
   -43.6092 -43.5989 -43.5385 -43.5267 -43.4951 -43.4738 -43.4686 -43.4441
   -43.4424 -43.4240 -43.4220 -43.4034 -43.2596 -43.2503 -43.2447 -43.2413
   -20.8048 -20.7680 -20.6643 -20.5933 -20.5589 -20.4268 -20.3469 -20.3065
   -20.2450 -20.1098 -20.0297 -20.0052 -19.9676 -19.8365 -19.6289 -19.6104
   -19.5560 -19.4803 -19.3939  -8.3301  -8.2934  -7.9027  -7.6414  -7.6019
    -7.2196  -7.1311  -7.0900  -7.0567  -7.0234  -6.9671  -6.8087  -6.7882
    -6.7500  -6.7223  -6.6474  -6.5702  -6.5207  -6.4302  -6.2795  -6.2327
    -6.1382  -6.0564  -6.0086  -5.8552  -5.7974  -5.7806  -5.7545  -5.7274
    -5.5481  -5.4988  -5.4159  -5.3885  -5.3138  -5.1559  -5.0243  -5.0057
    -4.8483  -4.8378  -4.7837  -4.6618  -4.4416  -4.3913  -4.2802  -4.2442
    -4.1485  -4.0984  -3.9886  -3.9284  -3.9209  -3.8677  -3.8208  -3.7333
    -3.7010  -3.5069  -3.4220  -3.4026   1.8779   2.1844   2.3571   2.3686
     2.4078   2.5025   2.5319   2.6023   2.6719   2.7330   2.7633   2.7889
     2.8202   2.8392   2.9025   2.9113   2.9319   3.0171   3.0401   3.0599
     3.0814   3.0899   3.1316   3.1569   3.1805   3.2070   3.3475   3.3528
     3.3660   3.3760   3.4870   3.4999   3.5153   3.7216   3.7252   3.7432
     4.1440   4.1577   4.2168   4.2425   4.6017   5.1054   5.1209   5.5546
     5.5566   5.7588   5.8086   5.8887   5.9316   6.0210   6.0853   6.1933
     6.3550   6.4972   6.6023   6.7169   6.9227   7.0742   7.2520   7.3900
     7.6163   7.8094   8.0355   8.2114   8.2669   8.4591   8.6121   8.7450
     9.0051   9.1417   9.2407   9.3548   9.4277   9.5257   9.8148  10.0037
    10.0986  10.3654  10.6510  10.8066  10.9740  11.0233  11.1220  11.1912
    11.2781  11.3487  11.4139  11.8647  12.0138  12.2733  12.3811  12.3988
    12.4736  12.5392  12.5461  12.6209  12.7830  12.9858  13.0015  13.0671
    13.1706  13.1858  13.2809  13.3456  13.4101  13.4634  13.4869  13.5965
    13.6062  13.6271  13.6957  13.7228  13.7626  13.7934  13.8019  13.9611
    14.0165  14.0371  14.0742  14.1276  14.1509  14.2316  14.2758  14.3667
    14.4520  14.4745  14.5546  14.6046  14.6376  14.6856  14.7385  14.7744
    14.8013  14.8188  14.8347  14.8446  14.8716  14.9737  15.0896  15.1073
    15.1298  15.2093  15.2195  15.2325  15.2652  15.3293  15.3648  15.4120
    15.5380  15.6168  15.6409  15.7326  15.7816  15.8097  15.8296  15.8584
    15.9165  15.9682  16.0164  16.0534  16.1925  16.2924  16.3954  16.4907
    16.5745  16.6092  16.6819  16.7503  16.7752  16.8991  16.9401  16.9900
    17.0424  17.0514  17.0909  17.1530  17.1819  17.2444  17.2650  17.3453
    17.5045  17.6881  17.8069  17.9060  17.9278  17.9605  18.0355  18.0747
    18.1577  18.2533  18.2824  18.4023  18.5922  18.7199  18.7799  18.8858
    18.9064  18.9463  19.0157  19.1004  19.1572  19.1734  19.3073  19.4124
    19.6624  20.0183  20.0458  20.1185  20.1637  20.2900  20.3613  20.4168
    20.4521  20.4866  20.7697  20.8441  20.8831  20.9217  21.0294  21.1780
    21.2923  21.4887  21.5639  21.5860  21.6850  21.7382

          k =-0.2500 0.2341 0.0000 ( 27132 PWs)   bands (ev):

   -72.2161 -72.2114 -72.1984 -72.1426 -72.1287 -72.1061 -72.0713 -72.0604
   -43.8043 -43.7815 -43.7692 -43.6843 -43.6630 -43.6436 -43.6312 -43.6127
   -43.5988 -43.5961 -43.5608 -43.5356 -43.4928 -43.4923 -43.4838 -43.4635
   -43.4588 -43.4099 -43.3899 -43.3514 -43.3114 -43.3038 -43.1920 -43.1842
   -21.2373 -20.9254 -20.6293 -20.5821 -20.4955 -20.3215 -20.2524 -20.2090
   -20.1835 -20.0353 -19.9712 -19.9295 -19.8553 -19.8346 -19.6741 -19.6302
   -19.5701 -19.4898 -19.3925  -8.4986  -8.3619  -8.0802  -7.9853  -7.8049
    -7.7657  -7.4911  -7.3733  -7.2573  -7.1427  -7.0712  -6.8824  -6.8433
    -6.8061  -6.7488  -6.7281  -6.5543  -6.5017  -6.2640  -6.2256  -6.1049
    -5.9954  -5.8834  -5.8041  -5.7278  -5.6757  -5.5723  -5.5044  -5.3936
    -5.3710  -5.3421  -5.2819  -5.1732  -5.1504  -5.0637  -4.9879  -4.9577
    -4.8325  -4.5598  -4.5311  -4.4422  -4.3531  -4.3038  -4.2475  -4.2165
    -4.1685  -4.0989  -4.0549  -4.0100  -3.9737  -3.8975  -3.8289  -3.8003
    -3.6231  -3.5309  -3.5010  -3.3453   1.8533   2.2188   2.2759   2.3093
     2.3440   2.3760   2.4017   2.4657   2.4901   2.5029   2.5737   2.6096
     2.6831   2.7164   2.7915   2.8225   2.8890   2.9069   2.9376   3.0417
     3.1027   3.1472   3.2120   3.2656   3.3000   3.3269   3.4252   3.4406
     3.4720   3.5189   3.5897   3.6422   3.7049   3.8506   3.9129   3.9394
     3.9565   4.0079   4.0728   4.2400   4.2974   4.3905   4.4700   4.8716
     5.3879   5.7156   5.8248   5.9916   6.2394   6.3375   6.4961   6.6236
     6.7955   6.9093   7.0427   7.3303   7.4745   7.7175   7.8629   7.9524
     8.1096   8.3305   8.4381   8.5788   8.6705   8.8467   8.9096   9.0527
     9.1897   9.2412   9.3515   9.4688   9.5509   9.7104   9.8055  10.0313
    10.1485  10.2023  10.2317  10.3527  10.4234  10.6661  10.6876  10.7985
    10.8608  11.0104  11.0656  11.1418  11.2973  11.3408  11.4546  11.5898
    11.6137  11.7490  11.7862  11.9081  11.9855  12.0739  12.1431  12.2411
    12.3244  12.3932  12.5002  12.5920  12.7137  12.7744  12.8295  12.8834
    12.9253  12.9829  13.0476  13.1346  13.1599  13.2490  13.3165  13.3726
    13.5024  13.5708  13.6300  13.6783  13.7921  13.8566  13.8867  13.9951
    14.1388  14.1713  14.2488  14.3483  14.4270  14.5690  14.5993  14.6598
    14.7025  14.7983  14.8434  14.9403  14.9875  15.1217  15.2080  15.2891
    15.3570  15.3923  15.5263  15.5876  15.6714  15.7502  15.8503  15.9922
    16.0072  16.0949  16.1586  16.2218  16.2966  16.3218  16.4095  16.4544
    16.5166  16.6789  16.7132  16.8033  16.8635  16.9323  17.0172  17.0642
    17.1583  17.1920  17.2658  17.3413  17.4077  17.5079  17.5454  17.6073
    17.7176  17.7749  17.8095  17.8528  17.9214  17.9972  18.0894  18.1630
    18.2356  18.2887  18.3482  18.4001  18.4386  18.6127  18.7152  18.7514
    18.8391  18.8841  18.9488  19.0023  19.0502  19.1995  19.2309  19.3269
    19.3995  19.4397  19.5541  19.6444  19.6837  19.7062  19.7850  19.9028
    19.9261  19.9751  20.1159  20.1644  20.2667  20.3033  20.4000  20.4962
    20.5665  20.6360  20.6794  20.8526  20.8999  20.9419  21.0441  21.0900
    21.1696  21.2504  21.3278  21.3918  21.4381  21.5056

     the spin up/dw Fermi energies are    -2.2570   -2.2807 ev

!    total energy              =   -2024.18585438 Ry
     Harris-Foulkes estimate   =   -2024.18585439 Ry
     estimated scf accuracy    <          8.8E-09 Ry

     The total energy is the sum of the following terms:

     one-electron contribution =  -23775.74193522 Ry
     hartree contribution      =   11908.59372730 Ry
     xc contribution           =    -323.37168100 Ry
     ewald contribution        =   10163.89246526 Ry
     Hubbard energy            =       2.44046458 Ry
     smearing contrib. (-TS)   =       0.00110470 Ry

     total magnetization       =    15.00 Bohr mag/cell
     absolute magnetization    =    30.47 Bohr mag/cell

     convergence has been achieved in  19 iterations

     Forces acting on atoms (Ry/au):


     negative rho (up, down):  0.560E-02 0.178E-02
     atom    1 type  1   force =    -0.00373070   -0.01017710   -0.00091061
     atom    2 type  1   force =     0.00000134    0.00270501   -0.00023048
     atom    3 type  2   force =     0.02451892    0.00248863   -0.00005426
     atom    4 type  2   force =     0.00393448    0.00518661    0.00063151
     atom    5 type  1   force =     0.00056230    0.00856192    0.00014941
     atom    6 type  1   force =     0.00105043   -0.00677566    0.00014271
     atom    7 type  1   force =     0.00169714   -0.00260648   -0.00048614
     atom    8 type  1   force =     0.00004519   -0.00003059   -0.00017839
     atom    9 type  2   force =     0.00774884    0.00076439    0.00024622
     atom   10 type  2   force =    -0.00175376   -0.00003259   -0.00009789
     atom   11 type  1   force =    -0.02401042   -0.03534826    0.00062948
     atom   12 type  1   force =    -0.02364125    0.03511124    0.00065721
     atom   13 type  1   force =    -0.00096677   -0.00015418   -0.00050728
     atom   14 type  1   force =    -0.00509465   -0.01097441   -0.00081716
     atom   15 type  1   force =     0.00012572    0.00386928    0.00008314
     atom   16 type  2   force =    -0.02409674    0.00336206   -0.00004065
     atom   17 type  2   force =     0.00451073    0.00541673    0.00061311
     atom   18 type  1   force =     0.00024298    0.00841525    0.00013380
     atom   19 type  1   force =     0.00054752   -0.00709862    0.00017563
     atom   20 type  1   force =    -0.00135488   -0.00358506   -0.00068688
     atom   21 type  1   force =    -0.00299269   -0.00018068   -0.00009134
     atom   22 type  2   force =    -0.00374059   -0.00013529    0.00003583
     atom   23 type  2   force =    -0.00029426    0.00075757   -0.00081815
     atom   24 type  1   force =     0.02266943   -0.02818835    0.00024477
     atom   25 type  1   force =     0.02315943    0.02827908    0.00021229
     atom   26 type  1   force =    -0.00004820    0.00002298    0.00009068
     atom   27 type  3   force =     0.00002118    0.00023576    0.00046613
     atom   28 type  3   force =     0.00000680    0.00004910    0.00050985
     atom   29 type  3   force =     0.00000013    0.00006751   -0.00039269
     atom   30 type  3   force =    -0.00007987    0.00005541   -0.00030469
     atom   31 type  1   force =     0.00095357    0.00000073    0.00041432
     atom   32 type  3   force =     0.00000867   -0.00006200    0.00018054

     Total force =     0.002651     Total SCF correction =     0.000216

     bfgs converged in  25 scf cycles and  24 bfgs steps
     (criteria: energy < 0.10E-03, force < 0.10E-02)

     End of BFGS Geometry Optimization

     Final energy   =   -2024.1858543826 Ry
Begin final coordinates

ATOMIC_POSITIONS (crystal)
O0       0.000000000   0.000000000   0.374942684    0   0   1
O0       0.000000000   0.500000000   0.396007866    0   0   1
Cr1      0.250000000   0.500000000   0.448542595    0   0   1
Cr1      0.000000000   0.000000000   0.448915593    0   0   1
O0       0.250000000   0.800000000   0.448620578    0   0   1
O0       0.250000000   0.200000000   0.448619314    0   0   1
O0       0.000000000   0.500000000   0.496768805    0   0   1
O0       0.000000000   0.000000000   0.524207959    0   0   1
Cr1      0.250000000   0.000000000   0.575730772    0   0   1
Cr1      0.000000000   0.500000000   0.566647792    0   0   1
O0       0.250000000   0.700000000   0.576465530    0   0   1
O0       0.250000000   0.300000000   0.576581151    0   0   1
O0       0.000000000   0.000000000   0.623472117    0   0   1
O0       0.500000000   0.000000000   0.374877057    0   0   1
O0       0.500000000   0.500000000   0.396213623    0   0   1
Cr1      0.750000000   0.500000000   0.448554889    0   0   1
Cr1      0.500000000   0.000000000   0.449109259    0   0   1
O0       0.750000000   0.800000000   0.448625931    0   0   1
O0       0.750000000   0.200000000   0.448608524    0   0   1
O0       0.500000000   0.500000000   0.500162186    0   0   1
O0       0.500000000   0.000000000   0.524623930    0   0   1
Cr1      0.750000000   0.000000000   0.575981017    0   0   1
Cr1      0.500000000   0.500000000   0.578964874    0   0   1
O0       0.750000000   0.700000000   0.575082964    0   0   1
O0       0.750000000   0.300000000   0.575080260    0   0   1
O0       0.500000000   0.000000000   0.623667398    0   0   1
H2      -0.000835222   0.636131824   0.376361377
H2       0.499366646   0.636977530   0.376841793
H2       0.159071911   0.027152633   0.362501999
H2       0.658727111   0.027689420   0.362374970
O0       0.521492335   0.499936938   0.650902170
H2       0.372176536   0.497511272   0.668673023
End final coordinates



     init_run     :    114.13s CPU    116.77s WALL (       1 calls)
     electrons    : 138393.51s CPU 144988.33s WALL (      25 calls)
     update_pot   :    429.17s CPU    451.39s WALL (      24 calls)
     forces       :   4907.72s CPU   5090.62s WALL (      25 calls)

     Called by init_run:
     wfcinit      :     48.44s CPU     49.69s WALL (       1 calls)
     potinit      :      7.73s CPU      8.07s WALL (       1 calls)

     Called by electrons:
     c_bands      :  76882.02s CPU  80790.78s WALL (     603 calls)
     sum_band     :  31378.97s CPU  32905.74s WALL (     603 calls)
     v_of_rho     :   1354.55s CPU   1621.61s WALL (     620 calls)
     newd         :  29104.48s CPU  29218.41s WALL (     620 calls)
     mix_rho      :    227.18s CPU    235.16s WALL (     603 calls)

     Called by c_bands:
     init_us_2    :    167.98s CPU    169.30s WALL (    6410 calls)
     cegterg      :  74507.84s CPU  76655.45s WALL (    3015 calls)

     Called by *egterg:
     h_psi        :  43029.88s CPU  44370.33s WALL (    8156 calls)
     s_psi        :   4549.13s CPU   4611.20s WALL (    8406 calls)
     g_psi        :     98.40s CPU     98.49s WALL (    5136 calls)
     cdiaghg      :   6789.62s CPU   6810.11s WALL (    7991 calls)

     Called by h_psi:
     add_vuspsi   :   4445.20s CPU   4512.27s WALL (    8156 calls)
     vhpsi        :   4074.81s CPU   4135.07s WALL (    8156 calls)

     General routines
     calbec       :  10367.33s CPU  10499.65s WALL (   58842 calls)
     fft          :   1448.72s CPU   1804.62s WALL (   19509 calls)
     ffts         :     17.63s CPU     18.63s WALL (    2446 calls)
     fftw         :  24356.28s CPU  25904.88s WALL ( 5238050 calls)
     interpolate  :    172.11s CPU    174.66s WALL (    2446 calls)
     davcio       :      0.40s CPU     78.59s WALL (    6535 calls)

     Parallel routines
     fft_scatter  :   9750.87s CPU  11603.51s WALL ( 5260005 calls)
     Hubbard U routines
     new_ns       :    948.40s CPU   1004.87s WALL (     603 calls)
     vhpsi        :   4074.81s CPU   4135.07s WALL (    8156 calls)
     force_hub    :   1254.22s CPU   1314.51s WALL (      25 calls)

     PWSCF        :     1d   16h18m CPU        1d   18h11m WALL


   This run was terminated on:  19:40:17  14May2014            

=------------------------------------------------------------------------------=
   JOB DONE.
=------------------------------------------------------------------------------=
---------------------------------------
Running PBS batch system epilogue script
Job id: 351135.audhumbla.fysik.dtu.dk
Username: zhonxu
Groupname: campgst
Jobname: CrO2/Eads-2-layers/OH-U-6.0
Sessionid: 11000
Resources limits: neednodes=2:ppn=8:xeon8,nodes=2:ppn=8:xeon8,walltime=48:00:00
Resources used: cput=674:28:55,mem=17425140kb,vmem=21460496kb,walltime=42:11:46
Queuename: verylong
Accounting:
This job has allocated the following 16 nodes:
a102 a102 a102 a102 a102 a102 a102 a102 a101 a101 a101 a101 a101 a101 a101 a101
Finished epilogue job 351135.audhumbla.fysik.dtu.dk for zhonxu
