ScientificPython/2.8-dl160g6-numpy-1.7.1-1(15):ERROR:151: Module 'ScientificPython/2.8-dl160g6-numpy-1.7.1-1' depends on one of the module(s) 'numpy/1.7.1-dl160g6-gfortran-internal-1'
ScientificPython/2.8-dl160g6-numpy-1.7.1-1(15):ERROR:102: Tcl command execution failed: prereq numpy/1.7.1-dl160g6-gfortran-internal-1


     Program PWSCF v.5.0.2 (svn rev. 9656) starts on  1Jun2014 at  7:29:41 

     This program is part of the open-source Quantum ESPRESSO suite
     for quantum simulation of materials; please cite
         "P. Giannozzi et al., J. Phys.:Condens. Matter 21 395502 (2009);
          URL http://www.quantum-espresso.org", 
     in publications or presentations arising from this work. More details at
     http://www.quantum-espresso.org/quote.php

     Parallel version (MPI), running on    16 processors
     K-points division:     npool     =       4
     R & G space division:  proc/nbgrp/npool/nimage =       4

     Current dimensions of program PWSCF are:
     Max number of different atomic species (ntypx) = 10
     Max number of k-points (npk) =  40000
     Max angular momentum in pseudopotentials (lmaxx) =  3
     Reading input from pwscf.in
Warning: card &CELL ignored
Warning: card / ignored

     Subspace diagonalization in iterative solution of the eigenvalue problem:
     a serial algorithm will be used


     Parallelization info
     --------------------
     sticks:   dense  smooth     PW     G-vecs:    dense   smooth      PW
     Min        1467     469    131               355494    64365    9519
     Max        1469     470    132               355497    64388    9524
     Sum        5871    1877    527              1421981   257505   38087



     bravais-lattice index     =            0
     lattice parameter (alat)  =      11.1872  a.u.
     unit-cell volume          =    7531.8600 (a.u.)^3
     number of atoms/cell      =           33
     number of atomic types    =            3
     number of electrons       =       229.00
     number of Kohn-Sham states=          343
     kinetic-energy cutoff     =      40.0000  Ry
     charge density cutoff     =     500.0000  Ry
     convergence threshold     =      1.0E-06
     mixing beta               =       0.7000
     number of iterations used =            8  plain     mixing
     Exchange-correlation      = SLA  PW   PBE  PBE ( 1 4 3 4 0)
     EXX-fraction              =        0.00
     nstep                     =           50


     celldm(1)=  11.187179  celldm(2)=   0.000000  celldm(3)=   0.000000
     celldm(4)=   0.000000  celldm(5)=   0.000000  celldm(6)=   0.000000

     crystal axes: (cart. coord. in units of alat)
               a(1) = (   1.000000   0.000000   0.000000 )  
               a(2) = (   0.000000   1.180104   0.000000 )  
               a(3) = (   0.000000   0.000000   4.558482 )  

     reciprocal axes: (cart. coord. in units 2 pi/alat)
               b(1) = (  1.000000  0.000000  0.000000 )  
               b(2) = (  0.000000  0.847383  0.000000 )  
               b(3) = (  0.000000  0.000000  0.219371 )  


     PseudoPot. # 1 for O  read from file:
     /home/camp/zhonxu/pseudo/o_pbe_v1.01.uspp.F.UPF
     MD5 check sum: 2bcb18d16ea4b960afae9ec6d52f22d2
     Pseudo is Ultrasoft + core correction, Zval =  6.0
     Generated by new atomic code, or converted to UPF format
     Using radial grid of  737 points,  5 beta functions with: 
                l(1) =   0
                l(2) =   0
                l(3) =   1
                l(4) =   1
                l(5) =   2
     Q(r) pseudized with  8 coefficients,  rinner =    0.900   0.900   0.900
                                                       0.900   0.900

     PseudoPot. # 2 for Nb read from file:
     /home/camp/zhonxu/pseudo/nb_pbe_v1.uspp.F.UPF
     MD5 check sum: 573aab8a2fa660278ed4a62cd769473f
     Pseudo is Ultrasoft + core correction, Zval = 13.0
     Generated by new atomic code, or converted to UPF format
     Using radial grid of  887 points,  6 beta functions with: 
                l(1) =   0
                l(2) =   0
                l(3) =   1
                l(4) =   1
                l(5) =   2
                l(6) =   2
     Q(r) pseudized with  6 coefficients,  rinner =    1.000   1.000   1.000
                                                       1.000   1.000

     PseudoPot. # 3 for H  read from file:
     /home/camp/zhonxu/pseudo/h_pbe_v1.uspp.F.UPF
     MD5 check sum: 3408e3ff4ec8b0a4e358431e7e038a48
     Pseudo is Ultrasoft, Zval =  1.0
     Generated by new atomic code, or converted to UPF format
     Using radial grid of  615 points,  2 beta functions with: 
                l(1) =   0
                l(2) =   0
     Q(r) pseudized with  8 coefficients,  rinner =    0.700

     atomic species   valence    mass     pseudopotential
        O0             6.00    15.99940     O ( 1.00)
        Nb1           13.00    92.90640     Nb( 1.00)
        H2             1.00     1.00794     H ( 1.00)


     Simplified LDA+U calculation (l_max = 2) with parameters (eV):
     atomic species    L          U    alpha       J0     beta
        Nb1            2     5.0000   0.0000   0.0000   0.0000



     No symmetry found



   Cartesian axes

     site n.     atom                  positions (alat units)
         1           O0  tau(   1) = (   0.0000000   0.0000000   1.6962113  )
         2           O0  tau(   2) = (   0.0000000   0.5900519   1.7723835  )
         3           Nb1 tau(   3) = (   0.2500000   0.5900519   2.0257895  )
         4           Nb1 tau(   4) = (   0.0000000   0.0000000   2.0274306  )
         5           O0  tau(   5) = (   0.2500000   0.9322821   2.0383253  )
         6           O0  tau(   6) = (   0.2500000   0.2478218   2.0381886  )
         7           O0  tau(   7) = (   0.0000000   0.5900519   2.2790132  )
         8           O0  tau(   8) = (   0.0000000   0.0000000   2.3853170  )
         9           Nb1 tau(   9) = (   0.2500000   0.0000000   2.6318397  )
        10           Nb1 tau(  10) = (   0.0000000   0.5900519   2.5956910  )
        11           O0  tau(  11) = (   0.2500000   0.8378738   2.6232242  )
        12           O0  tau(  12) = (   0.2500000   0.3422301   2.6255034  )
        13           O0  tau(  13) = (   0.0000000   0.0000000   2.8344187  )
        14           O0  tau(  14) = (   0.5000000   0.0000000   1.6974420  )
        15           O0  tau(  15) = (   0.5000000   0.5900519   1.7789021  )
        16           Nb1 tau(  16) = (   0.7500000   0.5900519   2.0259719  )
        17           Nb1 tau(  17) = (   0.5000000   0.0000000   2.0298010  )
        18           O0  tau(  18) = (   0.7500000   0.9322821   2.0382798  )
        19           O0  tau(  19) = (   0.7500000   0.2478218   2.0381886  )
        20           O0  tau(  20) = (   0.5000000   0.5900519   2.2737254  )
        21           O0  tau(  21) = (   0.5000000   0.0000000   2.3845421  )
        22           Nb1 tau(  22) = (   0.7500000   0.0000000   2.6318397  )
        23           Nb1 tau(  23) = (   0.5000000   0.5900519   2.6269166  )
        24           O0  tau(  24) = (   0.7500000   0.8378738   2.6231786  )
        25           O0  tau(  25) = (   0.7500000   0.3422301   2.6254579  )
        26           O0  tau(  26) = (   0.5000000   0.0000000   2.8332335  )
        27           H2  tau(  27) = (  -0.0005200   0.5958463   1.6070929  )
        28           H2  tau(  28) = (   0.4994400   0.5914445   1.6138395  )
        29           H2  tau(  29) = (   0.1507700   0.0008261   1.6243240  )
        30           H2  tau(  30) = (   0.6503900   0.0006019   1.6249166  )
        31           O0  tau(  31) = (   0.5000000   0.6010623   2.9587285  )
        32           O0  tau(  32) = (   0.5000000   0.4103103   3.1155403  )
        33           H2  tau(  33) = (   0.5000000   0.4955964   3.2584031  )

     number of k points=    10  Methfessel-Paxton smearing, width (Ry)=  0.0100
                       cart. coord. in units 2pi/alat
        k(    1) = (   0.0000000   0.0000000   0.0000000), wk =   0.1250000
        k(    2) = (   0.0000000   0.2118458   0.0000000), wk =   0.2500000
        k(    3) = (   0.0000000  -0.4236915   0.0000000), wk =   0.1250000
        k(    4) = (   0.2500000   0.0000000   0.0000000), wk =   0.2500000
        k(    5) = (   0.2500000   0.2118458   0.0000000), wk =   0.2500000
        k(    6) = (   0.2500000  -0.4236915   0.0000000), wk =   0.2500000
        k(    7) = (  -0.5000000   0.0000000   0.0000000), wk =   0.1250000
        k(    8) = (  -0.5000000   0.2118458   0.0000000), wk =   0.2500000
        k(    9) = (  -0.5000000  -0.4236915   0.0000000), wk =   0.1250000
        k(   10) = (  -0.2500000   0.2118458   0.0000000), wk =   0.2500000

     Dense  grid:  1421981 G-vectors     FFT dimensions: (  80,  96, 375)

     Smooth grid:   257505 G-vectors     FFT dimensions: (  45,  54, 216)

     Largest allocated arrays     est. size (Mb)     dimensions
        Kohn-Sham Wavefunctions        42.32 Mb     (   8086,  343)
        Atomic wavefunctions           23.32 Mb     (   8086,  189)
        NL pseudopotentials            51.08 Mb     (   8086,  414)
        Each V/rho on FFT grid         11.02 Mb     ( 721920)
        Each G-vector array             2.71 Mb     ( 355495)
        G-vector shells                 1.17 Mb     ( 153576)
     Largest temporary arrays     est. size (Mb)     dimensions
        Auxiliary wavefunctions       169.28 Mb     (   8086, 1372)
        Each subspace H/S matrix       28.72 Mb     (1372,1372)
        Each <psi_i|beta_j> matrix      2.17 Mb     (    414,  343)
        Arrays for rho mixing          88.13 Mb     ( 721920,   8)

     Check: negative/imaginary core charge=   -0.000003    0.000000

     Initial potential from superposition of free atoms
     Check: negative starting charge=   -0.003307

     starting charge  228.97806, renormalised to  229.00000

     negative rho (up, down):  0.331E-02 0.000E+00
     Number of +U iterations with fixed ns =  0
     Starting occupations:
 --- enter write_ns ---
 LDA+U parameters:
U( 2)     =  5.00000000
alpha( 2) =  0.00000000
atom    3   Tr[ns(na)] =   3.00000
    eigenvalues: 
  0.300  0.300  0.300  0.300  0.300
    eigenvectors:
  1.000  0.000  0.000  0.000  0.000
  0.000  1.000  0.000  0.000  0.000
  0.000  0.000  1.000  0.000  0.000
  0.000  0.000  0.000  1.000  0.000
  0.000  0.000  0.000  0.000  1.000
    occupations:
  0.300  0.000  0.000  0.000  0.000
  0.000  0.300  0.000  0.000  0.000
  0.000  0.000  0.300  0.000  0.000
  0.000  0.000  0.000  0.300  0.000
  0.000  0.000  0.000  0.000  0.300
atom    4   Tr[ns(na)] =   3.00000
    eigenvalues: 
  0.300  0.300  0.300  0.300  0.300
    eigenvectors:
  1.000  0.000  0.000  0.000  0.000
  0.000  1.000  0.000  0.000  0.000
  0.000  0.000  1.000  0.000  0.000
  0.000  0.000  0.000  1.000  0.000
  0.000  0.000  0.000  0.000  1.000
    occupations:
  0.300  0.000  0.000  0.000  0.000
  0.000  0.300  0.000  0.000  0.000
  0.000  0.000  0.300  0.000  0.000
  0.000  0.000  0.000  0.300  0.000
  0.000  0.000  0.000  0.000  0.300
atom    9   Tr[ns(na)] =   3.00000
    eigenvalues: 
  0.300  0.300  0.300  0.300  0.300
    eigenvectors:
  1.000  0.000  0.000  0.000  0.000
  0.000  1.000  0.000  0.000  0.000
  0.000  0.000  1.000  0.000  0.000
  0.000  0.000  0.000  1.000  0.000
  0.000  0.000  0.000  0.000  1.000
    occupations:
  0.300  0.000  0.000  0.000  0.000
  0.000  0.300  0.000  0.000  0.000
  0.000  0.000  0.300  0.000  0.000
  0.000  0.000  0.000  0.300  0.000
  0.000  0.000  0.000  0.000  0.300
atom   10   Tr[ns(na)] =   3.00000
    eigenvalues: 
  0.300  0.300  0.300  0.300  0.300
    eigenvectors:
  1.000  0.000  0.000  0.000  0.000
  0.000  1.000  0.000  0.000  0.000
  0.000  0.000  1.000  0.000  0.000
  0.000  0.000  0.000  1.000  0.000
  0.000  0.000  0.000  0.000  1.000
    occupations:
  0.300  0.000  0.000  0.000  0.000
  0.000  0.300  0.000  0.000  0.000
  0.000  0.000  0.300  0.000  0.000
  0.000  0.000  0.000  0.300  0.000
  0.000  0.000  0.000  0.000  0.300
atom   16   Tr[ns(na)] =   3.00000
    eigenvalues: 
  0.300  0.300  0.300  0.300  0.300
    eigenvectors:
  1.000  0.000  0.000  0.000  0.000
  0.000  1.000  0.000  0.000  0.000
  0.000  0.000  1.000  0.000  0.000
  0.000  0.000  0.000  1.000  0.000
  0.000  0.000  0.000  0.000  1.000
    occupations:
  0.300  0.000  0.000  0.000  0.000
  0.000  0.300  0.000  0.000  0.000
  0.000  0.000  0.300  0.000  0.000
  0.000  0.000  0.000  0.300  0.000
  0.000  0.000  0.000  0.000  0.300
atom   17   Tr[ns(na)] =   3.00000
    eigenvalues: 
  0.300  0.300  0.300  0.300  0.300
    eigenvectors:
  1.000  0.000  0.000  0.000  0.000
  0.000  1.000  0.000  0.000  0.000
  0.000  0.000  1.000  0.000  0.000
  0.000  0.000  0.000  1.000  0.000
  0.000  0.000  0.000  0.000  1.000
    occupations:
  0.300  0.000  0.000  0.000  0.000
  0.000  0.300  0.000  0.000  0.000
  0.000  0.000  0.300  0.000  0.000
  0.000  0.000  0.000  0.300  0.000
  0.000  0.000  0.000  0.000  0.300
atom   22   Tr[ns(na)] =   3.00000
    eigenvalues: 
  0.300  0.300  0.300  0.300  0.300
    eigenvectors:
  1.000  0.000  0.000  0.000  0.000
  0.000  1.000  0.000  0.000  0.000
  0.000  0.000  1.000  0.000  0.000
  0.000  0.000  0.000  1.000  0.000
  0.000  0.000  0.000  0.000  1.000
    occupations:
  0.300  0.000  0.000  0.000  0.000
  0.000  0.300  0.000  0.000  0.000
  0.000  0.000  0.300  0.000  0.000
  0.000  0.000  0.000  0.300  0.000
  0.000  0.000  0.000  0.000  0.300
atom   23   Tr[ns(na)] =   3.00000
    eigenvalues: 
  0.300  0.300  0.300  0.300  0.300
    eigenvectors:
  1.000  0.000  0.000  0.000  0.000
  0.000  1.000  0.000  0.000  0.000
  0.000  0.000  1.000  0.000  0.000
  0.000  0.000  0.000  1.000  0.000
  0.000  0.000  0.000  0.000  1.000
    occupations:
  0.300  0.000  0.000  0.000  0.000
  0.000  0.300  0.000  0.000  0.000
  0.000  0.000  0.300  0.000  0.000
  0.000  0.000  0.000  0.300  0.000
  0.000  0.000  0.000  0.000  0.300
N of occupied +U levels =  24.0000000
 --- exit write_ns ---
 Atomic wfc used for LDA+U Projector are NOT orthogonalized
     Starting wfc are  189 randomized atomic wfcs

     total cpu time spent up to now is      111.0 secs

     per-process dynamical memory:   427.1 Mb

     Self-consistent Calculation

     iteration #  1     ecut=    40.00 Ry     beta=0.70
     Davidson diagonalization with overlap
     ethr =  1.00E-02,  avg # of iterations =  6.0
 --- enter write_ns ---
 LDA+U parameters:
U( 2)     =  5.00000000
alpha( 2) =  0.00000000
atom    3   Tr[ns(na)] =   3.60670
    eigenvalues: 
  0.222  0.234  0.401  0.434  0.513
    eigenvectors:
  0.000  0.000  0.002  0.666  0.333
  0.000  0.000  0.998  0.002  0.000
  0.136  0.864  0.000  0.000  0.000
  0.000  0.000  0.000  0.333  0.667
  0.864  0.136  0.000  0.000  0.000
    occupations:
  0.460 -0.002  0.000 -0.037  0.002
 -0.002  0.401  0.000  0.000 -0.001
  0.000  0.000  0.232 -0.000 -0.004
 -0.037  0.000 -0.000  0.487 -0.000
  0.002 -0.001 -0.004 -0.000  0.224
atom    4   Tr[ns(na)] =   3.78578
    eigenvalues: 
  0.218  0.287  0.415  0.439  0.535
    eigenvectors:
  0.000  0.000  0.000  0.964  0.036
  0.000  1.000  0.000  0.000  0.000
  1.000  0.000  0.000  0.000  0.000
  0.000  0.000  0.000  0.036  0.964
  0.000  0.000  1.000  0.000  0.000
    occupations:
  0.443  0.003  0.000 -0.018 -0.000
  0.003  0.287 -0.000 -0.002  0.000
  0.000 -0.000  0.218 -0.000  0.001
 -0.018 -0.002 -0.000  0.531  0.000
 -0.000  0.000  0.001  0.000  0.415
atom    9   Tr[ns(na)] =   3.44190
    eigenvalues: 
  0.234  0.266  0.273  0.474  0.475
    eigenvectors:
  0.000  0.880  0.000  0.023  0.096
  0.000  0.000  0.000  0.811  0.189
  0.999  0.000  0.000  0.000  0.000
  0.000  0.119  0.000  0.166  0.715
  0.000  0.000  1.000  0.000  0.000
    occupations:
  0.290  0.000 -0.000  0.068  0.000
  0.000  0.474  0.000 -0.001 -0.000
 -0.000  0.000  0.234  0.001 -0.000
  0.068 -0.001  0.001  0.450 -0.000
  0.000 -0.000 -0.000 -0.000  0.273
atom   10   Tr[ns(na)] =   3.42707
    eigenvalues: 
  0.197  0.218  0.356  0.409  0.534
    eigenvectors:
  0.000  0.000  0.994  0.000  0.006
  0.000  1.000  0.000  0.000  0.000
  1.000  0.000  0.000  0.000  0.000
  0.000  0.000  0.006  0.000  0.994
  0.000  0.000  0.000  1.000  0.000
    occupations:
  0.357  0.000 -0.001 -0.013 -0.000
  0.000  0.218 -0.000  0.000  0.001
 -0.001 -0.000  0.197  0.003 -0.000
 -0.013  0.000  0.003  0.533 -0.000
 -0.000  0.001 -0.000 -0.000  0.409
atom   16   Tr[ns(na)] =   3.60705
    eigenvalues: 
  0.223  0.233  0.401  0.434  0.513
    eigenvectors:
  0.000  0.000  0.002  0.666  0.333
  0.000  0.000  0.998  0.002  0.000
  0.039  0.961  0.000  0.000  0.000
  0.000  0.000  0.000  0.332  0.667
  0.961  0.039  0.000  0.000  0.000
    occupations:
  0.460  0.002  0.000 -0.037 -0.002
  0.002  0.401 -0.000 -0.000 -0.001
  0.000 -0.000  0.232 -0.000  0.002
 -0.037 -0.000 -0.000  0.487  0.000
 -0.002 -0.001  0.002  0.000  0.224
atom   17   Tr[ns(na)] =   3.79251
    eigenvalues: 
  0.218  0.288  0.415  0.441  0.534
    eigenvectors:
  0.000  0.000  0.000  0.963  0.036
  0.000  1.000  0.000  0.000  0.000
  1.000  0.000  0.000  0.000  0.000
  0.000  0.000  0.000  0.037  0.963
  0.000  0.000  1.000  0.000  0.000
    occupations:
  0.444  0.003  0.000 -0.017  0.000
  0.003  0.288 -0.000 -0.002  0.000
  0.000 -0.000  0.218 -0.000  0.001
 -0.017 -0.002 -0.000  0.531  0.000
  0.000  0.000  0.001  0.000  0.415
atom   22   Tr[ns(na)] =   3.44188
    eigenvalues: 
  0.234  0.266  0.273  0.474  0.475
    eigenvectors:
  0.000  0.880  0.000  0.023  0.096
  0.000  0.000  0.000  0.808  0.192
  0.999  0.000  0.000  0.000  0.000
  0.000  0.119  0.000  0.168  0.713
  0.000  0.000  1.000  0.000  0.000
    occupations:
  0.290 -0.000 -0.000  0.068 -0.000
 -0.000  0.474 -0.000  0.001 -0.000
 -0.000 -0.000  0.234  0.001  0.000
  0.068  0.001  0.001  0.450  0.000
 -0.000 -0.000  0.000  0.000  0.273
atom   23   Tr[ns(na)] =   4.13223
    eigenvalues: 
  0.259  0.377  0.415  0.480  0.535
    eigenvectors:
  0.000  0.199  0.000  0.668  0.133
  1.000  0.000  0.000  0.000  0.000
  0.000  0.801  0.000  0.168  0.031
  0.000  0.000  0.000  0.164  0.836
  0.000  0.000  1.000  0.000  0.000
    occupations:
  0.467 -0.000 -0.045 -0.018  0.000
 -0.000  0.259  0.000 -0.000 -0.001
 -0.045  0.000  0.399  0.008  0.000
 -0.018 -0.000  0.008  0.526 -0.000
  0.000 -0.001  0.000 -0.000  0.415
N of occupied +U levels =  29.2351316
 --- exit write_ns ---

     negative rho (up, down):  0.301E-02 0.000E+00

     total cpu time spent up to now is      458.7 secs

     total energy              =   -1581.35649705 Ry
     Harris-Foulkes estimate   =   -1595.86489314 Ry
     estimated scf accuracy    <      18.50160299 Ry

     iteration #  2     ecut=    40.00 Ry     beta=0.70
     Davidson diagonalization with overlap
     ethr =  8.08E-03,  avg # of iterations =  3.5

     negative rho (up, down):  0.152E-01 0.000E+00

     total cpu time spent up to now is      682.8 secs

     total energy              =   -1544.32037763 Ry
     Harris-Foulkes estimate   =   -1624.49677121 Ry
     estimated scf accuracy    <     517.95852661 Ry

     iteration #  3     ecut=    40.00 Ry     beta=0.70
     Davidson diagonalization with overlap
     ethr =  8.08E-03,  avg # of iterations =  4.2

     negative rho (up, down):  0.100E-01 0.000E+00

     total cpu time spent up to now is      977.6 secs

     total energy              =   -1541.15414233 Ry
     Harris-Foulkes estimate   =   -1641.07361360 Ry
     estimated scf accuracy    <    1626.64553261 Ry

     iteration #  4     ecut=    40.00 Ry     beta=0.70
     Davidson diagonalization with overlap
     ethr =  8.08E-03,  avg # of iterations =  4.0

     negative rho (up, down):  0.222E-02 0.000E+00

     total cpu time spent up to now is     1228.3 secs

     total energy              =   -1590.80212838 Ry
     Harris-Foulkes estimate   =   -1593.69980696 Ry
     estimated scf accuracy    <      12.51142186 Ry

     iteration #  5     ecut=    40.00 Ry     beta=0.70
     Davidson diagonalization with overlap
     ethr =  5.46E-03,  avg # of iterations =  3.0

     negative rho (up, down):  0.189E-02 0.000E+00

     total cpu time spent up to now is     1417.8 secs

     total energy              =   -1592.21005407 Ry
     Harris-Foulkes estimate   =   -1592.52636677 Ry
     estimated scf accuracy    <       1.54795895 Ry

     iteration #  6     ecut=    40.00 Ry     beta=0.70
     Davidson diagonalization with overlap
     ethr =  6.76E-04,  avg # of iterations =  3.7

     negative rho (up, down):  0.179E-02 0.000E+00

     total cpu time spent up to now is     1621.8 secs

     total energy              =   -1592.21972442 Ry
     Harris-Foulkes estimate   =   -1592.34030003 Ry
     estimated scf accuracy    <       0.93432630 Ry

     iteration #  7     ecut=    40.00 Ry     beta=0.70
     Davidson diagonalization with overlap
     ethr =  4.08E-04,  avg # of iterations =  1.7

     negative rho (up, down):  0.165E-02 0.000E+00

     total cpu time spent up to now is     1802.4 secs

     total energy              =   -1592.16207006 Ry
     Harris-Foulkes estimate   =   -1592.27514778 Ry
     estimated scf accuracy    <       0.73832648 Ry

     iteration #  8     ecut=    40.00 Ry     beta=0.70
     Davidson diagonalization with overlap
     ethr =  3.22E-04,  avg # of iterations =  5.4

     negative rho (up, down):  0.267E-02 0.000E+00

     total cpu time spent up to now is     2010.6 secs

     total energy              =   -1592.15429168 Ry
     Harris-Foulkes estimate   =   -1592.22906841 Ry
     estimated scf accuracy    <       0.29413566 Ry

     iteration #  9     ecut=    40.00 Ry     beta=0.70
     Davidson diagonalization with overlap
     ethr =  1.28E-04,  avg # of iterations =  5.9

     negative rho (up, down):  0.477E-02 0.000E+00

     total cpu time spent up to now is     2223.7 secs

     total energy              =   -1592.16726893 Ry
     Harris-Foulkes estimate   =   -1592.20057065 Ry
     estimated scf accuracy    <       0.35995928 Ry

     iteration # 10     ecut=    40.00 Ry     beta=0.70
     Davidson diagonalization with overlap
     ethr =  1.28E-04,  avg # of iterations =  1.0

     negative rho (up, down):  0.656E-02 0.000E+00

     total cpu time spent up to now is     2407.6 secs

     total energy              =   -1592.18136816 Ry
     Harris-Foulkes estimate   =   -1592.19225901 Ry
     estimated scf accuracy    <       0.07950487 Ry

     iteration # 11     ecut=    40.00 Ry     beta=0.70
     Davidson diagonalization with overlap
     ethr =  3.47E-05,  avg # of iterations =  5.8

     negative rho (up, down):  0.289E-02 0.000E+00

     total cpu time spent up to now is     2614.7 secs

     total energy              =   -1592.18088451 Ry
     Harris-Foulkes estimate   =   -1592.18522605 Ry
     estimated scf accuracy    <       0.05024333 Ry

     iteration # 12     ecut=    40.00 Ry     beta=0.70
     Davidson diagonalization with overlap
     ethr =  2.19E-05,  avg # of iterations =  2.8

     negative rho (up, down):  0.347E-02 0.000E+00

     total cpu time spent up to now is     2803.5 secs

     total energy              =   -1592.17569075 Ry
     Harris-Foulkes estimate   =   -1592.18423523 Ry
     estimated scf accuracy    <       0.02550745 Ry

     iteration # 13     ecut=    40.00 Ry     beta=0.70
     Davidson diagonalization with overlap
     ethr =  1.11E-05,  avg # of iterations =  5.6

     negative rho (up, down):  0.321E-02 0.000E+00

     total cpu time spent up to now is     3035.5 secs

     total energy              =   -1592.17969001 Ry
     Harris-Foulkes estimate   =   -1592.18433768 Ry
     estimated scf accuracy    <       0.03195094 Ry

     iteration # 14     ecut=    40.00 Ry     beta=0.70
     Davidson diagonalization with overlap
     ethr =  1.11E-05,  avg # of iterations =  2.8

     negative rho (up, down):  0.289E-02 0.000E+00

     total cpu time spent up to now is     3223.7 secs

     total energy              =   -1592.18144209 Ry
     Harris-Foulkes estimate   =   -1592.18241867 Ry
     estimated scf accuracy    <       0.01223063 Ry

     iteration # 15     ecut=    40.00 Ry     beta=0.70
     Davidson diagonalization with overlap
     ethr =  5.34E-06,  avg # of iterations =  3.9

     negative rho (up, down):  0.311E-02 0.000E+00

     total cpu time spent up to now is     3418.9 secs

     total energy              =   -1592.18198017 Ry
     Harris-Foulkes estimate   =   -1592.18207830 Ry
     estimated scf accuracy    <       0.00195758 Ry

     iteration # 16     ecut=    40.00 Ry     beta=0.70
     Davidson diagonalization with overlap
     ethr =  8.55E-07,  avg # of iterations =  6.1

     negative rho (up, down):  0.334E-02 0.000E+00

     total cpu time spent up to now is     3635.1 secs

     total energy              =   -1592.18209256 Ry
     Harris-Foulkes estimate   =   -1592.18229454 Ry
     estimated scf accuracy    <       0.00181734 Ry

     iteration # 17     ecut=    40.00 Ry     beta=0.70
     Davidson diagonalization with overlap
     ethr =  7.94E-07,  avg # of iterations =  1.2

     negative rho (up, down):  0.338E-02 0.000E+00

     total cpu time spent up to now is     3817.3 secs

     total energy              =   -1592.18224437 Ry
     Harris-Foulkes estimate   =   -1592.18232728 Ry
     estimated scf accuracy    <       0.00039324 Ry

     iteration # 18     ecut=    40.00 Ry     beta=0.70
     Davidson diagonalization with overlap
     ethr =  1.72E-07,  avg # of iterations =  1.2

     negative rho (up, down):  0.341E-02 0.000E+00

     total cpu time spent up to now is     3999.2 secs

     total energy              =   -1592.18229469 Ry
     Harris-Foulkes estimate   =   -1592.18234534 Ry
     estimated scf accuracy    <       0.00052742 Ry

     iteration # 19     ecut=    40.00 Ry     beta=0.70
     Davidson diagonalization with overlap
     ethr =  1.72E-07,  avg # of iterations =  1.0

     negative rho (up, down):  0.337E-02 0.000E+00

     total cpu time spent up to now is     4181.0 secs

     total energy              =   -1592.18236473 Ry
     Harris-Foulkes estimate   =   -1592.18237423 Ry
     estimated scf accuracy    <       0.00018786 Ry

     iteration # 20     ecut=    40.00 Ry     beta=0.70
     Davidson diagonalization with overlap
     ethr =  8.20E-08,  avg # of iterations =  1.0

     negative rho (up, down):  0.336E-02 0.000E+00

     total cpu time spent up to now is     4357.6 secs

     total energy              =   -1592.18238229 Ry
     Harris-Foulkes estimate   =   -1592.18238823 Ry
     estimated scf accuracy    <       0.00010675 Ry

     iteration # 21     ecut=    40.00 Ry     beta=0.70
     Davidson diagonalization with overlap
     ethr =  4.66E-08,  avg # of iterations =  1.2

     negative rho (up, down):  0.341E-02 0.000E+00

     total cpu time spent up to now is     4528.0 secs

     total energy              =   -1592.18240325 Ry
     Harris-Foulkes estimate   =   -1592.18240755 Ry
     estimated scf accuracy    <       0.00003967 Ry

     iteration # 22     ecut=    40.00 Ry     beta=0.70
     Davidson diagonalization with overlap
     ethr =  1.73E-08,  avg # of iterations =  1.0

     negative rho (up, down):  0.339E-02 0.000E+00

     total cpu time spent up to now is     4697.7 secs

     total energy              =   -1592.18241077 Ry
     Harris-Foulkes estimate   =   -1592.18241968 Ry
     estimated scf accuracy    <       0.00017439 Ry

     iteration # 23     ecut=    40.00 Ry     beta=0.70
     Davidson diagonalization with overlap
     ethr =  1.73E-08,  avg # of iterations =  1.4

     negative rho (up, down):  0.338E-02 0.000E+00

     total cpu time spent up to now is     4875.1 secs

     total energy              =   -1592.18241879 Ry
     Harris-Foulkes estimate   =   -1592.18242091 Ry
     estimated scf accuracy    <       0.00002760 Ry

     iteration # 24     ecut=    40.00 Ry     beta=0.70
     Davidson diagonalization with overlap
     ethr =  1.21E-08,  avg # of iterations =  1.3

     negative rho (up, down):  0.338E-02 0.000E+00

     total cpu time spent up to now is     5050.6 secs

     total energy              =   -1592.18241606 Ry
     Harris-Foulkes estimate   =   -1592.18242901 Ry
     estimated scf accuracy    <       0.00010938 Ry

     iteration # 25     ecut=    40.00 Ry     beta=0.70
     Davidson diagonalization with overlap
     ethr =  1.21E-08,  avg # of iterations =  1.2

     negative rho (up, down):  0.339E-02 0.000E+00

     total cpu time spent up to now is     5227.6 secs

     total energy              =   -1592.18242388 Ry
     Harris-Foulkes estimate   =   -1592.18242538 Ry
     estimated scf accuracy    <       0.00001894 Ry

     iteration # 26     ecut=    40.00 Ry     beta=0.70
     Davidson diagonalization with overlap
     ethr =  8.27E-09,  avg # of iterations =  1.0

     negative rho (up, down):  0.339E-02 0.000E+00

     total cpu time spent up to now is     5396.1 secs

     total energy              =   -1592.18242572 Ry
     Harris-Foulkes estimate   =   -1592.18242692 Ry
     estimated scf accuracy    <       0.00000955 Ry

     iteration # 27     ecut=    40.00 Ry     beta=0.70
     Davidson diagonalization with overlap
     ethr =  4.17E-09,  avg # of iterations =  2.0

     negative rho (up, down):  0.339E-02 0.000E+00

     total cpu time spent up to now is     5572.1 secs

     total energy              =   -1592.18242487 Ry
     Harris-Foulkes estimate   =   -1592.18242827 Ry
     estimated scf accuracy    <       0.00000454 Ry

     iteration # 28     ecut=    40.00 Ry     beta=0.70
     Davidson diagonalization with overlap
     ethr =  1.98E-09,  avg # of iterations =  2.0

     negative rho (up, down):  0.339E-02 0.000E+00

     total cpu time spent up to now is     5755.8 secs

     total energy              =   -1592.18242752 Ry
     Harris-Foulkes estimate   =   -1592.18242968 Ry
     estimated scf accuracy    <       0.00000833 Ry

     iteration # 29     ecut=    40.00 Ry     beta=0.70
     Davidson diagonalization with overlap
     ethr =  1.98E-09,  avg # of iterations =  1.9

     negative rho (up, down):  0.339E-02 0.000E+00

     total cpu time spent up to now is     5942.8 secs

     total energy              =   -1592.18242884 Ry
     Harris-Foulkes estimate   =   -1592.18242911 Ry
     estimated scf accuracy    <       0.00000181 Ry

     iteration # 30     ecut=    40.00 Ry     beta=0.70
     Davidson diagonalization with overlap
     ethr =  7.88E-10,  avg # of iterations =  1.0

     negative rho (up, down):  0.339E-02 0.000E+00

     total cpu time spent up to now is     6127.8 secs

     total energy              =   -1592.18242874 Ry
     Harris-Foulkes estimate   =   -1592.18242926 Ry
     estimated scf accuracy    <       0.00000126 Ry

     iteration # 31     ecut=    40.00 Ry     beta=0.70
     Davidson diagonalization with overlap
     ethr =  5.50E-10,  avg # of iterations =  2.0

     negative rho (up, down):  0.339E-02 0.000E+00

     total cpu time spent up to now is     6320.6 secs

     End of self-consistent calculation
 --- enter write_ns ---
 LDA+U parameters:
U( 2)     =  5.00000000
alpha( 2) =  0.00000000
atom    3   Tr[ns(na)] =   5.16099
    eigenvalues: 
  0.340  0.358  0.527  0.594  0.763
    eigenvectors:
  0.000  0.000  0.003  0.330  0.666
  0.000  0.000  0.995  0.004  0.001
  0.749  0.251  0.000  0.000  0.000
  0.000  0.000  0.001  0.666  0.333
  0.251  0.749  0.000  0.000  0.000
    occupations:
  0.706 -0.008  0.002 -0.080 -0.004
 -0.008  0.527 -0.001  0.000  0.001
  0.002 -0.001  0.344 -0.001 -0.008
 -0.080  0.000 -0.001  0.650  0.002
 -0.004  0.001 -0.008  0.002  0.353
atom    4   Tr[ns(na)] =   5.19785
    eigenvalues: 
  0.358  0.384  0.556  0.592  0.708
    eigenvectors:
  0.003  0.000  0.000  0.997  0.000
  0.996  0.000  0.000  0.003  0.001
  0.000  1.000  0.000  0.000  0.000
  0.001  0.000  0.000  0.000  0.999
  0.000  0.000  1.000  0.000  0.000
    occupations:
  0.592  0.013  0.000 -0.001 -0.000
  0.013  0.359 -0.000 -0.009  0.000
  0.000 -0.000  0.384  0.000  0.001
 -0.001 -0.009  0.000  0.708  0.000
 -0.000  0.000  0.001  0.000  0.556
atom    9   Tr[ns(na)] =   5.27444
    eigenvalues: 
  0.446  0.459  0.491  0.619  0.622
    eigenvectors:
  0.879  0.001  0.000  0.090  0.030
  0.000  0.000  0.000  0.252  0.748
  0.000  0.096  0.904  0.000  0.000
  0.121  0.000  0.000  0.657  0.222
  0.001  0.904  0.096  0.000  0.000
    occupations:
  0.467 -0.000 -0.000  0.057  0.000
 -0.000  0.621  0.000 -0.001 -0.000
 -0.000  0.000  0.488  0.000  0.009
  0.057 -0.001  0.000  0.599 -0.000
  0.000 -0.000  0.009 -0.000  0.462
atom   10   Tr[ns(na)] =   5.08685
    eigenvalues: 
  0.325  0.448  0.508  0.546  0.717
    eigenvectors:
  0.000  0.000  0.995  0.000  0.005
  0.000  1.000  0.000  0.000  0.000
  1.000  0.000  0.000  0.000  0.000
  0.000  0.000  0.005  0.000  0.995
  0.000  0.000  0.000  1.000  0.000
    occupations:
  0.509  0.000  0.001  0.015 -0.000
  0.000  0.448  0.000 -0.000  0.001
  0.001  0.000  0.325 -0.003 -0.000
  0.015 -0.000 -0.003  0.716 -0.000
 -0.000  0.001 -0.000 -0.000  0.546
atom   16   Tr[ns(na)] =   5.16110
    eigenvalues: 
  0.340  0.358  0.527  0.594  0.762
    eigenvectors:
  0.000  0.000  0.004  0.330  0.666
  0.000  0.000  0.995  0.004  0.001
  0.747  0.253  0.000  0.000  0.000
  0.000  0.000  0.001  0.666  0.333
  0.253  0.747  0.000  0.000  0.000
    occupations:
  0.706  0.008  0.002 -0.080  0.004
  0.008  0.527  0.001 -0.001  0.001
  0.002  0.001  0.344 -0.001  0.008
 -0.080 -0.001 -0.001  0.650 -0.002
  0.004  0.001  0.008 -0.002  0.353
atom   17   Tr[ns(na)] =   5.19834
    eigenvalues: 
  0.359  0.386  0.555  0.594  0.706
    eigenvectors:
  0.003  0.000  0.000  0.997  0.000
  0.996  0.000  0.000  0.003  0.001
  0.000  1.000  0.000  0.000  0.000
  0.001  0.000  0.000  0.000  0.999
  0.000  0.000  1.000  0.000  0.000
    occupations:
  0.593  0.013  0.000 -0.002 -0.000
  0.013  0.360 -0.000 -0.009  0.000
  0.000 -0.000  0.386 -0.000  0.001
 -0.002 -0.009 -0.000  0.705  0.000
 -0.000  0.000  0.001  0.000  0.555
atom   22   Tr[ns(na)] =   5.27443
    eigenvalues: 
  0.446  0.459  0.491  0.619  0.621
    eigenvectors:
  0.879  0.001  0.000  0.093  0.028
  0.000  0.000  0.000  0.231  0.769
  0.000  0.096  0.904  0.000  0.000
  0.121  0.000  0.000  0.676  0.203
  0.001  0.903  0.096  0.000  0.000
    occupations:
  0.467  0.000 -0.000  0.057 -0.000
  0.000  0.621 -0.000  0.001 -0.000
 -0.000 -0.000  0.488  0.000 -0.009
  0.057  0.001  0.000  0.599  0.000
 -0.000 -0.000 -0.009  0.000  0.462
atom   23   Tr[ns(na)] =   5.20922
    eigenvalues: 
  0.323  0.483  0.555  0.595  0.648
    eigenvectors:
  0.002  0.000  0.000  0.982  0.016
  0.000  0.996  0.004  0.000  0.000
  0.997  0.000  0.000  0.002  0.001
  0.001  0.000  0.000  0.016  0.983
  0.000  0.004  0.996  0.000  0.000
    occupations:
  0.596  0.000  0.013  0.006 -0.000
  0.000  0.483 -0.000 -0.000 -0.005
  0.013 -0.000  0.323  0.008  0.000
  0.006 -0.000  0.008  0.647 -0.000
 -0.000 -0.005  0.000 -0.000  0.555
N of occupied +U levels =  41.5632369
 --- exit write_ns ---

          k = 0.0000 0.0000 0.0000 ( 32167 PWs)   bands (ev):

   -56.0839 -55.9814 -55.6487 -55.6050 -55.5809 -55.5614 -55.5152 -55.4885
   -33.0063 -32.3006 -32.1945 -32.1728 -32.1119 -32.0887 -32.0670 -32.0496
   -32.0267 -31.9939 -31.9877 -31.9819 -31.9703 -31.9524 -31.8881 -31.5837
   -31.5286 -31.5147 -31.3541 -31.3456 -31.3233 -31.2584 -31.1373 -31.1193
   -22.4508 -20.1614 -19.8691 -19.2789 -19.0969 -19.0070 -18.9865 -18.8853
   -18.6566 -18.5796 -18.3666 -18.3216 -18.0708 -17.9982 -17.8269 -17.5797
   -17.5405 -17.5190 -17.3678 -16.2961  -8.9056  -8.1906  -7.8359  -7.5650
    -7.4760  -7.4713  -6.7604  -6.4548  -6.3824  -6.1513  -6.0667  -5.9656
    -5.8987  -5.8867  -5.8649  -5.6567  -5.5022  -5.4485  -5.3171  -5.1586
    -5.1298  -4.9748  -4.9251  -4.8504  -4.8441  -4.8088  -4.7642  -4.7510
    -4.7430  -4.4789  -4.1255  -3.9579  -3.9043  -3.8891  -3.5838  -3.5099
    -3.4850  -3.4535  -3.3269  -3.2552  -3.1650  -3.1311  -3.0769  -3.0045
    -2.9306  -2.8065  -2.7869  -2.7600  -2.6279  -2.6169  -2.5889  -2.5430
    -2.5040  -2.4299  -2.3483  -2.3249  -2.1372  -1.7275  -0.9578  -0.9378
    -0.7147  -0.5962   1.7729   1.7999   1.8446   1.8919   1.9716   2.1142
     2.1644   2.2189   2.4884   2.5721   2.6820   2.7618   2.7717   2.9414
     3.0592   3.0811   3.1810   3.2054   3.3216   3.4028   3.5191   3.6480
     3.8314   3.9894   4.1581   4.4349   4.5496   4.5824   4.9732   5.1310
     5.2520   5.3597   5.4551   5.8036   5.9261   5.9685   6.2398   6.3430
     6.3505   6.3953   6.4134   6.4280   6.4583   6.5174   6.7690   6.8885
     6.9865   7.0400   7.0856   7.2416   7.2735   7.2943   7.4471   7.5097
     7.6253   7.7720   8.0129   8.0912   8.1258   8.1991   8.2960   8.3022
     8.4314   8.6635   8.8482   8.9197   8.9656   9.0097   9.0922   9.1383
     9.1840   9.3627   9.4607   9.5288   9.6081   9.6798   9.8472  10.0227
    10.0504  10.1710  10.1847  10.2934  10.3382  10.3671  10.4184  10.4975
    10.6721  10.7507  10.8076  10.8178  10.9725  11.0998  11.1599  11.2510
    11.2710  11.3013  11.4039  11.4184  11.5215  11.5545  11.6042  11.6287
    11.6804  11.7953  11.8323  11.9381  12.0091  12.0927  12.2107  12.2756
    12.3867  12.3958  12.4389  12.4574  12.6114  12.6341  12.6499  12.7429
    12.8518  13.0114  13.0987  13.1491  13.2316  13.3140  13.3401  13.4971
    13.5900  13.6305  13.8118  13.8625  13.9254  14.0154  14.0779  14.1268
    14.2355  14.2911  14.3967  14.4358  14.6157  14.7162  14.8064  14.8312
    14.9163  15.0122  15.1795  15.2255  15.3099  15.3198  15.4630  15.4821
    15.6030  15.7006  15.8097  15.8334  15.9327  15.9886  15.9982  16.0361
    16.1625  16.2055  16.2104  16.2634  16.3485  16.3680  16.4513  16.5227
    16.6683  16.6993  16.7557  16.8569  16.9161  16.9443  17.0490  17.2899
    17.3383  17.3807  17.4248  17.4986  17.6109  17.6606  17.6880  17.7300
    17.8514  17.9040  18.0008  18.1837  18.2127  18.3803  18.4520  18.5398
    18.6401  18.7017  18.7379  18.7597  18.7975  18.9323  19.0345  19.1045
    19.1648  19.2078  19.2986  19.3006  19.3329  19.3785  19.4553  19.4876
    19.5218  19.5838  19.6664  19.7446  19.8608  19.9719  19.9768  20.0698
    20.1480  20.1749  20.2260  20.3421  20.3685  20.3768  20.4146  20.5008
    20.5201  20.5373  20.5526  20.5714  20.6055  20.7007  20.7277

          k = 0.0000 0.2118 0.0000 ( 32193 PWs)   bands (ev):

   -56.0790 -55.9822 -55.6442 -55.6007 -55.5783 -55.5588 -55.5163 -55.4877
   -33.0041 -32.2987 -32.1949 -32.1619 -32.1357 -32.0964 -32.0777 -32.0485
   -32.0273 -31.9921 -31.9819 -31.9577 -31.9524 -31.9354 -31.8880 -31.5999
   -31.5487 -31.5139 -31.3559 -31.3473 -31.3234 -31.2580 -31.1377 -31.1193
   -22.4503 -20.1568 -19.8668 -19.2684 -19.0945 -18.8835 -18.8243 -18.8012
   -18.7096 -18.6785 -18.6552 -18.5706 -17.8296 -17.7908 -17.7397 -17.6675
   -17.6189 -17.5343 -17.3646 -16.2957  -8.9024  -8.1865  -7.8315  -7.4698
    -7.1771  -7.0957  -6.7343  -6.5974  -6.4763  -6.3685  -6.2508  -6.2193
    -6.0652  -6.0523  -5.8875  -5.7782  -5.6430  -5.4349  -5.3590  -5.1214
    -4.9204  -4.8667  -4.8587  -4.8413  -4.7861  -4.6779  -4.5596  -4.5115
    -4.4157  -4.3681  -4.2107  -4.0050  -4.0002  -3.9647  -3.8331  -3.6432
    -3.4777  -3.4453  -3.3936  -3.2159  -3.1770  -3.0793  -3.0677  -3.0144
    -2.9546  -2.9108  -2.8747  -2.8433  -2.8161  -2.7352  -2.6369  -2.5915
    -2.5264  -2.4673  -2.3855  -2.3164  -2.1637  -1.8238  -0.9932  -0.9449
    -0.2185  -0.1289   1.1846   1.6015   1.6688   1.8394   2.0783   2.1642
     2.2771   2.5782   2.6597   2.7947   2.8085   2.8520   2.9615   3.0171
     3.0741   3.0921   3.2029   3.2208   3.3198   3.4458   3.5184   3.6277
     3.8391   4.0428   4.2046   4.3781   4.5685   4.7551   4.9854   5.1690
     5.2176   5.3203   5.3448   5.4782   5.5743   5.5951   5.7253   5.8461
     5.9284   6.0835   6.1551   6.3112   6.4608   6.4831   6.8875   7.1185
     7.1425   7.2750   7.2777   7.3913   7.4171   7.5560   7.5610   7.6965
     7.7389   7.9379   8.1679   8.2650   8.3111   8.3339   8.3805   8.4706
     8.6565   8.7287   8.8146   8.9199   9.0047   9.0182   9.2113   9.2721
     9.4026   9.4637   9.6211   9.6510   9.6799   9.7495   9.8160   9.8916
     9.9137   9.9679  10.0335  10.0841  10.2039  10.2656  10.3604  10.4289
    10.5055  10.5667  10.6476  10.8309  10.8576  10.9555  11.0668  11.1040
    11.2190  11.3656  11.3918  11.4165  11.5066  11.5598  11.6226  11.6901
    11.8223  11.9314  11.9726  12.1858  12.3630  12.3741  12.4665  12.5608
    12.5903  12.7132  12.7831  12.8249  12.8528  12.8776  12.9717  12.9815
    13.1289  13.1835  13.1881  13.2136  13.3283  13.3418  13.3949  13.4516
    13.5491  13.6086  13.6945  13.7938  13.8233  13.8703  13.9404  13.9626
    14.0759  14.1069  14.2270  14.3286  14.4190  14.5362  14.5787  14.7339
    14.7451  14.8087  14.8829  14.8930  15.0546  15.1106  15.1920  15.2718
    15.3258  15.3383  15.4812  15.5376  15.5761  15.6581  15.7307  15.8592
    16.0352  16.1888  16.3001  16.3394  16.4437  16.4552  16.5047  16.5447
    16.6330  16.7285  16.7622  16.8322  16.9821  17.0842  17.1288  17.1670
    17.3531  17.3903  17.4612  17.5353  17.5536  17.6200  17.6982  17.7763
    17.8108  17.8996  17.9531  18.0210  18.0424  18.0898  18.2420  18.2671
    18.3258  18.4031  18.4543  18.4833  18.6337  18.6870  18.7926  18.8616
    18.8954  18.9393  18.9770  19.0090  19.0532  19.1921  19.2241  19.3148
    19.3559  19.4396  19.4574  19.4913  19.5605  19.6184  19.6944  19.7980
    19.8614  19.9719  20.0043  20.0692  20.1581  20.2617  20.2874  20.3708
    20.4033  20.4707  20.5322  20.5508  20.6295  20.7137  20.7219

          k = 0.0000-0.4237 0.0000 ( 32162 PWs)   bands (ev):

   -56.0741 -55.9831 -55.6398 -55.5964 -55.5756 -55.5562 -55.5173 -55.4869
   -33.0018 -32.2969 -32.1949 -32.1533 -32.1508 -32.1163 -32.0659 -32.0473
   -32.0275 -31.9903 -31.9818 -31.9525 -31.9341 -31.9101 -31.8879 -31.6168
   -31.5697 -31.5131 -31.3575 -31.3490 -31.3235 -31.2575 -31.1381 -31.1194
   -22.4499 -20.1523 -19.8645 -19.2610 -19.0921 -18.8917 -18.8747 -18.8605
   -18.6558 -18.6130 -18.4441 -18.4235 -18.1847 -18.1328 -17.8164 -17.5293
   -17.4412 -17.3946 -17.3612 -16.2952  -8.8992  -8.1823  -7.8271  -7.4666
    -6.8381  -6.8317  -6.5757  -6.5462  -6.4984  -6.4345  -6.3645  -6.3328
    -6.2706  -6.0656  -5.9090  -5.8079  -5.7107  -5.3550  -5.3450  -5.2100
    -5.1955  -5.1476  -4.8594  -4.8349  -4.7542  -4.7253  -4.7199  -4.5114
    -4.2489  -4.2356  -4.1200  -4.0471  -3.9148  -3.7450  -3.6876  -3.6750
    -3.5136  -3.4269  -3.3776  -3.3376  -3.2977  -3.1448  -3.1038  -3.0573
    -3.0338  -2.9735  -2.9437  -2.9209  -2.8266  -2.6761  -2.6702  -2.6527
    -2.5126  -2.4334  -2.3690  -2.1896  -2.1376  -2.0180  -1.0627  -0.9366
     0.1290   0.2045   0.8903   1.2805   1.5289   1.8464   2.0527   2.4042
     2.4819   2.6791   2.6968   2.9096   2.9302   2.9375   3.0224   3.0318
     3.1204   3.2276   3.3235   3.3610   3.4185   3.4578   3.4995   3.6598
     3.7303   4.0332   4.1453   4.4298   4.6876   4.7117   4.7761   4.8894
     5.0340   5.1593   5.2500   5.5363   5.5805   5.6132   5.6526   5.7664
     5.7808   5.8557   6.0033   6.0647   6.2757   6.5912   6.7329   6.9993
     7.1433   7.2767   7.3072   7.3337   7.4580   7.5345   7.7055   7.8074
     7.9070   8.1500   8.1945   8.2448   8.4104   8.4840   8.5740   8.6213
     8.9282   8.9387   8.9684   8.9876   9.0553   9.1562   9.1655   9.3295
     9.3960   9.4156   9.4875   9.6059   9.6536   9.6734   9.7377   9.8735
     9.9136  10.0770  10.1338  10.2434  10.3079  10.3699  10.4135  10.5328
    10.7185  10.7541  10.8201  10.9036  11.0426  11.0656  11.1419  11.1769
    11.2930  11.3255  11.4924  11.5673  11.6012  11.6301  11.6809  11.7473
    11.7837  11.8586  11.9360  12.0343  12.0621  12.1095  12.1846  12.3045
    12.3524  12.3887  12.4919  12.5289  12.6794  12.7666  12.8251  12.9650
    12.9849  13.1053  13.1483  13.1932  13.2904  13.3243  13.4055  13.5660
    13.7765  13.8329  13.9193  13.9486  14.0104  14.1337  14.2547  14.2981
    14.3393  14.4970  14.5134  14.5493  14.6836  14.7641  14.8825  14.9037
    15.0106  15.0241  15.0479  15.0501  15.0969  15.1187  15.2719  15.2980
    15.3356  15.4257  15.4541  15.5099  15.5596  15.5952  15.6276  15.6904
    15.7230  15.8611  15.8629  15.9209  15.9365  15.9982  16.1337  16.2146
    16.3504  16.5015  16.5128  16.5771  16.6015  16.7154  16.7726  16.8216
    16.9126  17.1460  17.1667  17.2027  17.2602  17.2862  17.3474  17.3762
    17.4077  17.4456  17.5575  17.7338  17.9460  18.0863  18.0998  18.1614
    18.2252  18.2953  18.3487  18.4221  18.4839  18.5728  18.5856  18.6333
    18.7684  18.7830  18.8184  18.8435  18.8716  18.9025  19.0847  19.1855
    19.2326  19.3287  19.4486  19.4592  19.5230  19.6038  19.6410  19.6476
    19.7979  19.8699  19.9849  20.0725  20.1046  20.1890  20.2669  20.3234
    20.5539  20.5986  20.6800  20.7660  20.7932  20.8710  20.8717

          k = 0.2500 0.0000 0.0000 ( 32181 PWs)   bands (ev):

   -56.0670 -55.9950 -55.6193 -55.5719 -55.5597 -55.5584 -55.5089 -55.4883
   -32.8690 -32.2787 -32.1872 -32.1568 -32.1248 -32.0819 -32.0707 -32.0699
   -32.0291 -32.0034 -31.9994 -31.9839 -31.9182 -31.8746 -31.8556 -31.5669
   -31.5043 -31.4866 -31.4063 -31.3756 -31.3750 -31.3669 -31.2740 -31.2587
   -22.4495 -20.1013 -19.8525 -19.1744 -18.9842 -18.8730 -18.8333 -18.6703
   -18.6334 -18.5989 -18.2507 -18.2067 -18.2027 -18.1355 -17.8455 -17.7589
   -17.6941 -17.6348 -17.5815 -16.2953  -8.7120  -8.2170  -7.8422  -7.2968
    -7.2476  -7.1803  -6.7668  -6.4162  -6.2441  -6.0952  -5.9798  -5.9708
    -5.9246  -5.7309  -5.6969  -5.6509  -5.5140  -5.4718  -5.4130  -5.3998
    -5.3378  -5.1920  -5.1732  -5.0848  -4.9239  -4.5869  -4.4504  -4.3753
    -4.3438  -4.2950  -4.2653  -4.1032  -3.8804  -3.7726  -3.7437  -3.6019
    -3.5071  -3.4881  -3.4729  -3.4291  -3.2839  -3.2328  -3.2082  -3.1135
    -3.0897  -2.9420  -2.9342  -2.8983  -2.8191  -2.6843  -2.6585  -2.5760
    -2.5348  -2.4776  -2.4359  -2.3105  -2.1292  -1.7974  -0.9582  -0.4703
    -0.1450  -0.0660   1.5794   1.7746   1.9250   2.0486   2.0673   2.1269
     2.1689   2.2297   2.2714   2.3793   2.4636   2.5944   2.6358   2.7278
     2.7777   2.8553   3.0169   3.1071   3.1274   3.1725   3.2820   3.5929
     3.9153   4.1203   4.2776   4.4068   4.6931   4.8115   4.8814   5.3188
     5.3716   5.5209   5.6806   5.7417   5.9918   6.0431   6.1337   6.1754
     6.2553   6.2809   6.2826   6.3620   6.4250   6.4529   6.5852   6.6363
     6.6725   6.8629   6.9654   7.1558   7.2267   7.2492   7.4133   7.4622
     7.5075   7.7844   7.8011   7.9615   8.0163   8.0926   8.2755   8.3324
     8.5376   8.5917   8.6421   8.8585   9.0619   9.1318   9.1707   9.2803
     9.3635   9.3769   9.4187   9.5111   9.5938   9.6281   9.7357   9.7923
     9.9462  10.0195  10.0895  10.1063  10.1403  10.1804  10.4204  10.4361
    10.5842  10.6650  10.7260  10.8397  10.9319  11.0292  11.0686  11.1070
    11.2456  11.3471  11.4988  11.5266  11.6040  11.7063  11.8670  11.8900
    12.0038  12.1061  12.2513  12.3372  12.4279  12.4458  12.5701  12.6324
    12.6696  12.7255  12.8601  12.9365  12.9738  13.0635  13.1643  13.4653
    13.5052  13.5293  13.6449  13.6899  13.7273  13.7925  13.8157  13.8838
    13.9474  13.9833  14.0216  14.0507  14.1216  14.2445  14.3087  14.4181
    14.4880  14.6639  14.7442  14.7592  14.8816  14.8919  14.9231  15.0347
    15.0710  15.1216  15.3028  15.4354  15.4615  15.5074  15.6053  15.6283
    15.7546  15.7950  15.8131  15.8814  16.0239  16.0458  16.1749  16.2609
    16.3015  16.3502  16.3879  16.4267  16.4717  16.5099  16.5524  16.5957
    16.6451  16.7370  16.8347  16.8782  16.9089  16.9675  17.0270  17.0689
    17.0769  17.0959  17.1521  17.3251  17.4356  17.5006  17.5298  17.6353
    17.7103  17.7258  17.7543  17.8817  17.9488  18.0315  18.1093  18.1271
    18.2149  18.2703  18.3623  18.3982  18.4843  18.5644  18.5940  18.6745
    18.7349  18.7544  18.7984  18.8745  18.9302  18.9822  19.0273  19.0883
    19.1282  19.2101  19.2466  19.2786  19.3221  19.3873  19.4601  19.4863
    19.5654  19.6070  19.6385  19.7200  19.7975  19.8523  19.8684  19.8982
    19.9551  20.0066  20.0657  20.0777  20.1051  20.2127  20.2547

          k = 0.2500 0.2118 0.0000 ( 32165 PWs)   bands (ev):

   -56.0632 -55.9950 -55.6155 -55.5680 -55.5565 -55.5558 -55.5094 -55.4871
   -32.8669 -32.2773 -32.1878 -32.1478 -32.1240 -32.0928 -32.0718 -32.0619
   -32.0531 -32.0281 -31.9838 -31.9410 -31.9172 -31.8707 -31.8421 -31.5808
   -31.5224 -31.4859 -31.4039 -31.3801 -31.3792 -31.3670 -31.2738 -31.2576
   -22.4491 -20.0977 -19.8500 -19.1673 -18.9815 -18.7322 -18.6777 -18.6564
   -18.6342 -18.6266 -18.5988 -18.5634 -17.8804 -17.8467 -17.8196 -17.7744
   -17.7527 -17.7321 -17.5770 -16.2949  -8.7089  -8.2131  -7.8379  -7.2933
    -6.9688  -6.8451  -6.6761  -6.4600  -6.3897  -6.2877  -6.1742  -6.0871
    -6.0110  -5.9770  -5.7764  -5.6894  -5.6682  -5.4410  -5.4098  -5.3170
    -5.3085  -5.1495  -4.9743  -4.8809  -4.7057  -4.5536  -4.4023  -4.3565
    -4.2443  -4.1582  -4.0469  -4.0028  -3.9338  -3.8954  -3.7802  -3.7547
    -3.7010  -3.6624  -3.6120  -3.5444  -3.4058  -3.3216  -3.2656  -3.2348
    -3.1736  -2.9971  -2.9487  -2.8699  -2.8440  -2.7874  -2.7050  -2.5504
    -2.5078  -2.4459  -2.3134  -2.2723  -2.1591  -1.8605  -0.9853  -0.4506
     0.2597   0.3324   1.2707   1.6214   1.8573   1.9318   2.0470   2.1300
     2.2246   2.3389   2.4395   2.5261   2.6102   2.6903   2.7537   2.8251
     2.8771   2.9494   3.0733   3.1050   3.2352   3.2915   3.3090   3.5441
     3.8326   4.1772   4.3459   4.4480   4.7496   4.8384   5.0059   5.2322
     5.2518   5.2967   5.4949   5.6156   5.6400   5.7269   5.8489   5.8804
     5.9788   6.0403   6.1642   6.2207   6.4007   6.5178   6.5739   6.7430
     6.7697   6.8660   6.9317   7.0491   7.1660   7.3303   7.4201   7.4630
     7.5854   7.8100   7.8640   8.0084   8.0886   8.1389   8.2993   8.3532
     8.5384   8.6583   8.7181   8.8081   8.9389   9.0118   9.0706   9.2691
     9.3623   9.4126   9.4739   9.5618   9.6686   9.8302   9.8986   9.9785
    10.0292  10.1773  10.2353  10.3134  10.4067  10.4638  10.6163  10.7648
    10.8202  10.9869  11.0576  11.1173  11.1831  11.1984  11.3559  11.4063
    11.4784  11.5963  11.6553  11.6708  11.6936  11.8595  11.8867  12.0164
    12.1205  12.1840  12.2449  12.3201  12.4410  12.5598  12.6493  12.7239
    12.7506  12.7909  12.8733  12.9377  12.9650  13.0240  13.0899  13.1928
    13.2278  13.3571  13.4015  13.4379  13.5034  13.5973  13.6204  13.7253
    13.7703  13.8767  13.9190  14.0167  14.0593  14.1381  14.1512  14.2406
    14.3413  14.3835  14.4223  14.4824  14.6445  14.7493  14.8715  14.8827
    14.9886  15.1457  15.1669  15.2425  15.3056  15.3314  15.4054  15.4440
    15.5028  15.5752  15.6170  15.6986  15.7617  15.8081  15.8476  15.9131
    15.9881  16.0767  16.1424  16.1828  16.2692  16.3594  16.3865  16.4596
    16.5678  16.6754  16.7045  16.7550  16.8189  16.8877  16.9464  17.0236
    17.0596  17.1319  17.1893  17.2219  17.2967  17.3665  17.4409  17.5041
    17.5543  17.6144  17.7125  17.8200  17.8732  17.9193  18.0129  18.0519
    18.1223  18.2386  18.2953  18.3656  18.3963  18.5374  18.5702  18.6264
    18.6591  18.6996  18.8046  18.8852  18.9560  19.0188  19.0918  19.1052
    19.1678  19.2687  19.2957  19.3479  19.4463  19.4748  19.5294  19.6604
    19.6986  19.7420  19.7653  19.8335  19.8847  19.9540  19.9946  20.0416
    20.0717  20.1350  20.1973  20.2551  20.2810  20.3488  20.3972

          k = 0.2500-0.4237 0.0000 ( 32188 PWs)   bands (ev):

   -56.0593 -55.9950 -55.6116 -55.5642 -55.5532 -55.5532 -55.5099 -55.4859
   -32.8650 -32.2758 -32.1882 -32.1386 -32.1233 -32.1023 -32.0814 -32.0640
   -32.0526 -32.0274 -31.9837 -31.9172 -31.9126 -31.8693 -31.8274 -31.5951
   -31.5405 -31.4853 -31.4016 -31.3845 -31.3836 -31.3674 -31.2738 -31.2566
   -22.4486 -20.0941 -19.8476 -19.1619 -18.9786 -18.7887 -18.7534 -18.6629
   -18.6290 -18.6234 -18.2936 -18.2820 -18.2694 -18.2329 -17.8392 -17.7503
   -17.5834 -17.5812 -17.5316 -16.2945  -8.7056  -8.2092  -7.8335  -7.2889
    -6.8517  -6.5479  -6.5004  -6.4811  -6.4255  -6.1930  -6.1616  -6.0418
    -5.9701  -5.9693  -5.9409  -5.8422  -5.8152  -5.6842  -5.6336  -5.4349
    -5.3500  -5.1592  -4.8082  -4.7452  -4.4703  -4.4493  -4.3498  -4.2413
    -4.2349  -4.1346  -4.1017  -4.0916  -4.0661  -3.9233  -3.8774  -3.8124
    -3.7347  -3.6999  -3.6735  -3.5402  -3.5070  -3.4123  -3.3476  -3.3059
    -3.2622  -3.0884  -3.0426  -2.8910  -2.8262  -2.7404  -2.6667  -2.5001
    -2.4776  -2.4002  -2.2648  -2.1826  -2.0927  -2.0121  -1.0178  -0.4475
     0.5621   0.6103   1.0550   1.4016   1.6978   2.0442   2.0636   2.1163
     2.2954   2.4201   2.5899   2.6066   2.7909   2.8161   2.8734   2.9133
     3.0070   3.0751   3.1338   3.1685   3.2892   3.4240   3.5010   3.5839
     3.6724   4.1548   4.3484   4.5396   4.6862   4.7202   4.8664   4.9547
     4.9818   5.2368   5.2473   5.3172   5.4563   5.6292   5.6962   5.7969
     5.8657   5.9319   6.2540   6.3216   6.3991   6.4952   6.5187   6.6811
     6.8161   6.8757   7.0751   7.1265   7.1475   7.1920   7.3898   7.4366
     7.5466   7.6116   7.7480   7.8033   7.8864   8.0069   8.3093   8.4920
     8.5693   8.5994   8.6784   8.8785   8.9427   8.9741   9.2216   9.2743
     9.3178   9.4103   9.4365   9.8523   9.9702  10.0117  10.1253  10.3420
    10.4169  10.4926  10.5281  10.6178  10.7111  10.9577  11.0300  11.0802
    11.0906  11.1533  11.3085  11.4110  11.4127  11.4603  11.5669  11.6296
    11.6518  11.6957  11.7719  11.7940  11.8664  11.9488  11.9613  12.0326
    12.0742  12.0962  12.1918  12.2598  12.3928  12.4475  12.4871  12.5125
    12.6237  12.7157  12.8468  12.8952  12.9144  13.0988  13.1879  13.2220
    13.2502  13.2842  13.3309  13.3661  13.4085  13.4427  13.4731  13.5497
    13.5847  13.6012  13.6642  13.6869  13.7989  13.8705  13.9963  14.0180
    14.1516  14.1823  14.2797  14.3278  14.3635  14.4024  14.4584  14.5584
    14.7107  14.7980  14.8528  14.8824  14.9122  15.1640  15.2129  15.2817
    15.3728  15.4589  15.5145  15.5492  15.5859  15.6271  15.6901  15.7958
    15.8737  15.9622  16.1178  16.2263  16.3113  16.4135  16.4938  16.5884
    16.6538  16.7320  16.8529  16.9116  16.9382  17.0285  17.0478  17.1507
    17.2025  17.2438  17.3091  17.3819  17.3884  17.4121  17.4832  17.5420
    17.5765  17.6284  17.6417  17.7221  17.7761  17.7947  17.8491  17.8976
    17.9965  18.0236  18.0848  18.1551  18.1930  18.2630  18.2916  18.3994
    18.4610  18.5142  18.5915  18.6330  18.7474  18.7785  18.9050  18.9297
    18.9912  19.0566  19.1435  19.2505  19.3075  19.3319  19.4188  19.4856
    19.5221  19.5823  19.6600  19.7059  19.8059  19.9056  19.9351  20.0422
    20.0808  20.1520  20.2372  20.2757  20.3675  20.3886  20.4282

          k =-0.5000 0.0000 0.0000 ( 32166 PWs)   bands (ev):

   -56.0295 -56.0292 -55.5750 -55.5721 -55.5300 -55.5210 -55.5199 -55.4953
   -32.5305 -32.5164 -32.1833 -32.1691 -32.1609 -32.1204 -32.1172 -32.0322
   -32.0314 -32.0106 -31.9983 -31.9035 -31.7266 -31.7258 -31.6316 -31.6281
   -31.6105 -31.5454 -31.5247 -31.4427 -31.4418 -31.4133 -31.4090 -31.4017
   -22.4484 -20.0396 -19.8375 -19.0219 -18.9966 -18.6863 -18.5548 -18.4835
   -18.4758 -18.4623 -18.2686 -18.2597 -18.1167 -18.1082 -17.9848 -17.9598
   -17.9183 -17.9161 -17.8627 -16.2946  -8.4842  -8.2631  -7.8505  -7.0003
    -6.9871  -6.5480  -6.4983  -6.4265  -6.4116  -6.3333  -6.2518  -5.9699
    -5.9548  -5.8458  -5.7757  -5.6919  -5.6020  -5.5347  -5.2127  -4.9740
    -4.9620  -4.9590  -4.9366  -4.8639  -4.7519  -4.5823  -4.5696  -4.4989
    -4.4518  -4.3911  -4.3236  -4.2871  -4.2564  -4.0594  -3.9416  -3.8193
    -3.7751  -3.7106  -3.6973  -3.5236  -3.3486  -3.2605  -3.2538  -3.1758
    -3.0127  -2.9814  -2.9217  -2.9130  -2.9024  -2.8066  -2.7951  -2.5247
    -2.4941  -2.4047  -2.3376  -2.1442  -2.1172  -1.9512  -0.9734   0.4820
     0.7815   0.9762   1.0427   1.0508   1.1808   1.5594   1.6390   2.0654
     2.1204   2.1436   2.1606   2.2443   2.4780   2.4954   2.5327   2.6340
     2.6742   2.7463   2.7655   3.0920   3.3322   3.3557   3.5886   3.7817
     3.8090   3.8241   4.2543   4.6663   4.9441   4.9922   5.1073   5.2790
     5.4325   5.4521   5.5901   5.8067   5.8374   5.9210   5.9985   6.0480
     6.0555   6.1321   6.1701   6.1730   6.1777   6.3107   6.4806   6.5162
     6.6918   7.2148   7.2367   7.2736   7.2828   7.2902   7.4865   7.5178
     7.6040   7.7483   7.8864   8.0066   8.0326   8.0384   8.1082   8.1737
     8.2814   8.2853   8.5824   8.6238   8.6482   8.6967   8.7513   8.7873
     8.9336   9.0359   9.2072   9.3375   9.4280   9.5291   9.8432   9.9871
    10.0062  10.0455  10.0973  10.1299  10.1903  10.3402  10.3855  10.4351
    10.7321  10.7825  11.0551  11.1212  11.1810  11.2226  11.2573  11.4167
    11.4245  11.4893  11.5153  11.6420  11.7076  11.8553  12.1615  12.3165
    12.3989  12.5355  12.6026  12.6215  12.7514  12.8792  12.9850  13.0461
    13.1271  13.1417  13.2979  13.3477  13.3862  13.4589  13.4875  13.4895
    13.6835  13.7434  13.8913  13.9724  14.0688  14.1136  14.1728  14.1764
    14.2683  14.3853  14.4425  14.4538  14.5440  14.6653  14.7274  14.7470
    14.7892  14.8287  14.8723  14.8999  14.9503  14.9698  15.1536  15.2056
    15.5167  15.5241  15.5581  15.6448  15.7962  15.8157  15.9131  15.9590
    15.9928  16.0329  16.1005  16.2087  16.2330  16.2789  16.3797  16.3936
    16.4250  16.4437  16.4964  16.5126  16.5295  16.6491  16.6791  16.7191
    16.7643  16.7814  16.8636  16.8840  16.9033  16.9409  16.9709  17.0228
    17.0906  17.1266  17.1723  17.1940  17.2378  17.2561  17.2675  17.2830
    17.3384  17.4045  17.4896  17.5265  17.6028  17.6314  17.6517  17.6633
    17.6783  17.7086  17.7256  17.7614  17.8234  17.8467  18.0434  18.0620
    18.1852  18.2060  18.2255  18.3003  18.3231  18.4711  18.5697  18.6068
    18.6483  18.6742  18.7331  18.7587  18.7937  18.8369  18.8668  18.8866
    18.9481  19.1286  19.1779  19.2448  19.3309  19.3651  19.4066  19.4494
    19.5696  19.6072  19.7362  19.7682  19.9075  19.9428  19.9955

          k =-0.5000 0.2118 0.0000 ( 32144 PWs)   bands (ev):

   -56.0276 -56.0274 -55.5716 -55.5687 -55.5277 -55.5192 -55.5181 -55.4932
   -32.5293 -32.5148 -32.1827 -32.1693 -32.1599 -32.1170 -32.1145 -32.0320
   -32.0312 -32.0100 -31.9979 -31.9033 -31.7180 -31.7169 -31.6327 -31.6231
   -31.6116 -31.5569 -31.5184 -31.4524 -31.4522 -31.4124 -31.4103 -31.4086
   -22.4479 -20.0370 -19.8348 -19.0185 -18.9930 -18.6741 -18.5416 -18.5187
   -18.4828 -18.4686 -18.2682 -18.2586 -18.1148 -18.1071 -17.9625 -17.9444
   -17.9044 -17.9009 -17.8540 -16.2942  -8.4807  -8.2591  -7.8462  -6.9837
    -6.9686  -6.5014  -6.4638  -6.3877  -6.3701  -6.3399  -6.2630  -5.9870
    -5.9749  -5.7494  -5.7267  -5.6281  -5.4978  -5.4208  -5.2943  -5.0203
    -4.9896  -4.9474  -4.8344  -4.8126  -4.7837  -4.7424  -4.6882  -4.6497
    -4.6139  -4.4911  -4.4581  -4.1815  -4.1477  -4.0465  -4.0266  -3.7904
    -3.7547  -3.6462  -3.6079  -3.5414  -3.4919  -3.4370  -3.3339  -3.3144
    -3.2454  -3.0272  -2.9908  -2.8700  -2.8648  -2.7853  -2.6641  -2.5049
    -2.4880  -2.3667  -2.3148  -2.1394  -2.1234  -1.9814  -0.9742   0.5324
     0.8582   1.2125   1.2286   1.2387   1.3956   1.5812   1.7038   1.9764
     1.9861   2.1160   2.1182   2.3214   2.4017   2.5800   2.6231   2.6875
     2.7651   2.9308   2.9486   3.0959   3.2251   3.4458   3.5342   3.7335
     3.8917   3.9422   4.2276   4.7767   5.1070   5.1213   5.1971   5.2524
     5.2971   5.3168   5.3311   5.3821   5.5691   5.7219   5.7600   5.8574
     5.9802   6.0845   6.2038   6.2500   6.2970   6.5014   6.5398   6.5638
     6.6653   6.6721   6.7609   6.7928   6.9628   7.0306   7.0868   7.4126
     7.4870   7.5753   7.6221   7.6892   7.7996   7.8935   8.1092   8.2124
     8.4692   8.4760   8.7276   8.8457   8.8791   8.9631   9.0032   9.1349
     9.3300   9.4110   9.6214   9.6888   9.7924   9.8668  10.0349  10.1242
    10.1359  10.2082  10.2297  10.3420  10.3671  10.4532  10.6466  10.6985
    10.8457  10.9517  11.0235  11.1204  11.3504  11.4571  11.5514  11.6718
    11.8029  11.8206  11.8643  11.8984  11.9315  12.0317  12.1679  12.3493
    12.4315  12.5246  12.7130  12.7899  12.8528  12.9211  13.0941  13.1679
    13.2062  13.3862  13.4261  13.4915  13.5868  13.5929  13.6776  13.6905
    13.7721  13.7906  13.8385  13.8717  13.9766  13.9946  14.0407  14.0901
    14.1371  14.2250  14.2628  14.2826  14.3631  14.3901  14.4197  14.4286
    14.4956  14.5519  14.5952  14.6274  14.7420  14.7667  14.8876  14.9461
    15.0215  15.0393  15.0681  15.1216  15.1643  15.1813  15.2384  15.2545
    15.3008  15.3349  15.4854  15.4978  15.6301  15.6450  15.7178  15.7586
    15.8203  15.8905  15.9543  16.0054  16.0891  16.1738  16.1965  16.2095
    16.3647  16.3915  16.4593  16.4726  16.5549  16.6238  16.7694  16.8409
    16.9423  17.0143  17.0766  17.1385  17.2191  17.2416  17.3106  17.4063
    17.5004  17.5468  17.5691  17.6273  17.6976  17.7153  17.7899  17.8624
    17.9313  18.0403  18.0852  18.1695  18.1963  18.2365  18.2987  18.3205
    18.3463  18.5109  18.5262  18.6110  18.6359  18.6602  18.7662  18.8317
    18.9321  18.9581  18.9893  19.0707  19.2394  19.2708  19.3491  19.3962
    19.4254  19.5130  19.5610  19.6414  19.7130  19.7827  19.8737  19.9269
    20.0557  20.0703  20.1193  20.2015  20.2501  20.3627  20.4314

          k =-0.5000-0.4237 0.0000 ( 32256 PWs)   bands (ev):

   -56.0258 -56.0257 -55.5683 -55.5654 -55.5255 -55.5173 -55.5163 -55.4911
   -32.5282 -32.5132 -32.1822 -32.1693 -32.1590 -32.1136 -32.1118 -32.0317
   -32.0309 -32.0094 -31.9975 -31.9031 -31.7088 -31.7074 -31.6339 -31.6178
   -31.6127 -31.5659 -31.5149 -31.4630 -31.4627 -31.4192 -31.4118 -31.4084
   -22.4474 -20.0343 -19.8320 -19.0152 -18.9895 -18.6578 -18.5550 -18.5277
   -18.4906 -18.4747 -18.2677 -18.2572 -18.1121 -18.1055 -17.9682 -17.9047
   -17.8884 -17.8871 -17.8474 -16.2938  -8.4773  -8.2551  -7.8418  -6.9681
    -6.9513  -6.4507  -6.3935  -6.3390  -6.3167  -6.3013  -6.2818  -5.9987
    -5.9887  -5.7684  -5.6691  -5.5974  -5.3851  -5.3829  -5.3204  -5.0229
    -5.0052  -4.9793  -4.9340  -4.8748  -4.8401  -4.8204  -4.7101  -4.7016
    -4.6022  -4.4751  -4.4450  -4.1160  -4.0607  -4.0373  -3.8356  -3.8265
    -3.8052  -3.7416  -3.7336  -3.6724  -3.6659  -3.6517  -3.5415  -3.4530
    -3.3778  -2.9838  -2.9364  -2.8382  -2.8248  -2.6861  -2.6030  -2.4756
    -2.4623  -2.4485  -2.1991  -2.1099  -2.0791  -2.0656  -0.9760   0.5504
     0.8666   1.3516   1.3570   1.3974   1.4215   1.6707   1.7300   1.8488
     1.8715   2.2481   2.3375   2.5565   2.5586   2.6282   2.6608   2.7793
     2.9434   3.0397   3.1121   3.1285   3.2077   3.4423   3.5362   3.6352
     4.0232   4.1026   4.2122   4.7469   4.7609   4.7699   4.7713   4.9357
     5.1063   5.1107   5.5695   5.6388   5.6919   5.7234   5.7382   5.7916
     5.9828   6.0342   6.0437   6.1098   6.1207   6.2463   6.2908   6.5279
     6.5520   6.6019   6.7241   6.8074   6.8270   7.0043   7.1150   7.1858
     7.2162   7.2868   7.4503   7.4971   7.6773   8.0980   8.1293   8.2921
     8.3038   8.4328   8.5615   8.6374   9.1876   9.3107   9.3304   9.4221
     9.4916   9.5661   9.6437   9.6915   9.7211   9.7736   9.9409   9.9861
    10.5732  10.7469  10.8984  10.9934  11.0160  11.0625  11.0886  11.2049
    11.3317  11.4523  11.6125  11.6520  11.7682  11.8277  11.8468  11.8598
    11.9640  11.9786  12.1105  12.2828  12.3241  12.3260  12.4307  12.4623
    12.4948  12.5600  12.6026  12.7076  12.7911  12.7928  12.8334  12.9054
    13.0149  13.0354  13.1822  13.1866  13.2043  13.2723  13.3204  13.4363
    13.5081  13.6084  13.6569  13.6958  13.7126  13.7379  13.7961  13.9136
    13.9185  13.9614  14.0196  14.2200  14.2383  14.2611  14.2787  14.3032
    14.3392  14.3536  14.4401  14.4681  14.5276  14.5870  14.5946  14.6262
    14.6646  14.6735  14.7361  14.7997  14.8192  14.8389  14.9413  15.0111
    15.0565  15.0762  15.1739  15.2567  15.3255  15.3940  15.4274  15.5332
    15.5561  15.6278  15.7000  15.7421  15.8060  15.8779  15.9071  15.9733
    16.0360  16.0960  16.1210  16.1634  16.4431  16.5176  16.5656  16.6346
    16.7093  16.8191  17.0998  17.1372  17.1610  17.1933  17.3593  17.3791
    17.4162  17.4439  17.6079  17.6249  17.6696  17.7937  17.7960  17.8214
    17.9664  17.9745  18.0780  18.1598  18.2403  18.3170  18.5467  18.5608
    18.5694  18.7207  18.7410  18.8270  18.8761  18.9138  19.0385  19.0542
    19.1127  19.2607  19.4112  19.5060  19.6096  19.6388  19.7625  19.7873
    19.7891  19.8748  19.9603  20.1204  20.1597  20.2076  20.2505  20.2886
    20.3232  20.3518  20.3976  20.4254  20.4590  20.5025  20.5980

          k =-0.2500 0.2118 0.0000 ( 32165 PWs)   bands (ev):

   -56.0632 -55.9950 -55.6155 -55.5680 -55.5565 -55.5558 -55.5094 -55.4871
   -32.8669 -32.2773 -32.1878 -32.1478 -32.1240 -32.0928 -32.0718 -32.0619
   -32.0531 -32.0281 -31.9838 -31.9411 -31.9172 -31.8707 -31.8421 -31.5808
   -31.5224 -31.4859 -31.4039 -31.3801 -31.3792 -31.3670 -31.2738 -31.2576
   -22.4491 -20.0977 -19.8500 -19.1673 -18.9815 -18.7322 -18.6777 -18.6564
   -18.6342 -18.6266 -18.5989 -18.5633 -17.8804 -17.8466 -17.8196 -17.7744
   -17.7527 -17.7321 -17.5770 -16.2949  -8.7088  -8.2131  -7.8379  -7.2933
    -6.9687  -6.8454  -6.6763  -6.4599  -6.3891  -6.2879  -6.1745  -6.0865
    -6.0114  -5.9772  -5.7765  -5.6897  -5.6670  -5.4392  -5.4109  -5.3174
    -5.3112  -5.1497  -4.9734  -4.8810  -4.7060  -4.5525  -4.3983  -4.3512
    -4.2513  -4.1536  -4.0492  -4.0042  -3.9424  -3.8965  -3.7854  -3.7480
    -3.7006  -3.6586  -3.6113  -3.5407  -3.4117  -3.3285  -3.2614  -3.2314
    -3.1707  -2.9919  -2.9513  -2.8754  -2.8444  -2.7869  -2.7052  -2.5479
    -2.5044  -2.4477  -2.3130  -2.2742  -2.1599  -1.8607  -0.9853  -0.4505
     0.2596   0.3324   1.2707   1.6216   1.8573   1.9322   2.0475   2.1312
     2.2223   2.3385   2.4396   2.5265   2.6102   2.6885   2.7559   2.8250
     2.8782   2.9476   3.0728   3.1049   3.2367   3.2921   3.3084   3.5441
     3.8318   4.1780   4.3456   4.4482   4.7492   4.8392   5.0052   5.2320
     5.2521   5.2968   5.4948   5.6144   5.6405   5.7282   5.8479   5.8815
     5.9788   6.0393   6.1645   6.2199   6.4005   6.5172   6.5747   6.7453
     6.7707   6.8637   6.9317   7.0483   7.1652   7.3304   7.4210   7.4638
     7.5863   7.8078   7.8626   8.0088   8.0868   8.1382   8.3055   8.3516
     8.5428   8.6521   8.7162   8.8095   8.9389   9.0177   9.0657   9.2707
     9.3628   9.4151   9.4734   9.5628   9.6735   9.8194   9.9017   9.9612
    10.0701  10.1327  10.2322  10.3265  10.4264  10.4553  10.6162  10.7632
    10.8238  10.9893  11.0512  11.1150  11.1776  11.2089  11.3352  11.4130
    11.4865  11.6078  11.6572  11.6653  11.6901  11.8477  11.9036  12.0065
    12.1201  12.1819  12.2513  12.3190  12.4505  12.5521  12.6456  12.7158
    12.7587  12.7979  12.8860  12.9266  12.9510  13.0271  13.0846  13.1901
    13.2513  13.3552  13.3979  13.4269  13.5030  13.6025  13.6399  13.7122
    13.7733  13.8769  13.9226  14.0200  14.0470  14.1379  14.1448  14.2462
    14.3107  14.3933  14.4389  14.4810  14.6591  14.7659  14.8546  14.8903
    14.9728  15.1402  15.1670  15.2419  15.3052  15.3363  15.4081  15.4406
    15.4999  15.5746  15.6068  15.7053  15.7605  15.7937  15.8720  15.9128
    15.9969  16.0710  16.1406  16.1943  16.2840  16.3577  16.3785  16.4451
    16.5653  16.6740  16.6986  16.7632  16.8019  16.8802  16.9280  17.0327
    17.0753  17.1222  17.1881  17.2500  17.3083  17.3663  17.4510  17.4746
    17.5624  17.6144  17.6948  17.8342  17.8761  17.9295  17.9832  18.0621
    18.1322  18.2233  18.3191  18.3450  18.4097  18.5319  18.5618  18.6059
    18.6750  18.7330  18.8030  18.8810  18.9481  18.9945  19.0805  19.1111
    19.1802  19.2728  19.3050  19.3566  19.4524  19.4761  19.5174  19.6339
    19.7243  19.7518  19.7758  19.8250  19.8893  19.9276  19.9756  20.0334
    20.0721  20.1555  20.1926  20.2467  20.2859  20.3520  20.4086

     the Fermi energy is     1.2225 ev

!    total energy              =   -1592.18242910 Ry
     Harris-Foulkes estimate   =   -1592.18242935 Ry
     estimated scf accuracy    <       0.00000042 Ry

     The total energy is the sum of the following terms:

     one-electron contribution =  -19410.82466456 Ry
     hartree contribution      =    9739.01243311 Ry
     xc contribution           =    -294.78031839 Ry
     ewald contribution        =    8370.97126204 Ry
     Hubbard energy            =       3.43989356 Ry
     smearing contrib. (-TS)   =      -0.00103485 Ry

     convergence has been achieved in  31 iterations

     Forces acting on atoms (Ry/au):


     negative rho (up, down):  0.339E-02 0.000E+00
     atom    1 type  1   force =     0.00489411   -0.00028511   -0.00332670
     atom    2 type  1   force =    -0.00015402    0.00049746   -0.00911184
     atom    3 type  2   force =     0.01512204    0.00007340   -0.01249410
     atom    4 type  2   force =    -0.00387916    0.00009883   -0.00011053
     atom    5 type  1   force =    -0.00292010   -0.01357355    0.00082221
     atom    6 type  1   force =    -0.00265401    0.01342032    0.00079656
     atom    7 type  1   force =    -0.00010051    0.00017080    0.01121424
     atom    8 type  1   force =     0.00152517    0.00095199    0.00670701
     atom    9 type  2   force =     0.00022243   -0.00017558   -0.00671043
     atom   10 type  2   force =     0.00003635    0.00045683   -0.00484724
     atom   11 type  1   force =    -0.00790586    0.00017302    0.00507914
     atom   12 type  1   force =    -0.00567332    0.00258080    0.00480607
     atom   13 type  1   force =     0.00031306   -0.00136401   -0.00188103
     atom   14 type  1   force =     0.00430323   -0.00010886   -0.00210017
     atom   15 type  1   force =    -0.00008354    0.00030791   -0.01527983
     atom   16 type  2   force =    -0.01458020    0.00003515   -0.01312255
     atom   17 type  2   force =    -0.00474100    0.00009669   -0.00435004
     atom   18 type  1   force =     0.00383325   -0.01347618    0.00083705
     atom   19 type  1   force =     0.00343394    0.01335247    0.00080970
     atom   20 type  1   force =    -0.00019594   -0.00521896    0.03755437
     atom   21 type  1   force =     0.00162367    0.00058508    0.00975897
     atom   22 type  2   force =    -0.00046857   -0.00017539   -0.00674525
     atom   23 type  2   force =    -0.00002856    0.00285212   -0.02544900
     atom   24 type  1   force =     0.00791366    0.00017502    0.00515380
     atom   25 type  1   force =     0.00568475    0.00257246    0.00488721
     atom   26 type  1   force =     0.00033091   -0.00416550   -0.00255393
     atom   27 type  3   force =     0.00002736   -0.00008244    0.00455978
     atom   28 type  3   force =     0.00008897   -0.00037574   -0.00189826
     atom   29 type  3   force =    -0.00288540    0.00006109    0.00237010
     atom   30 type  3   force =    -0.00307016    0.00003616    0.00237741
     atom   31 type  1   force =    -0.00000346   -0.00731224    0.01974289
     atom   32 type  1   force =    -0.00000279    0.00732965   -0.00739605
     atom   33 type  3   force =    -0.00000630    0.00048631   -0.00009958

     Total force =     0.061926     Total SCF correction =     0.002688


     entering subroutine stress ...


     negative rho (up, down):  0.339E-02 0.000E+00
          total   stress  (Ry/bohr**3)                   (kbar)     P=   -0.33
  -0.00000678  -0.00000004   0.00000124         -1.00     -0.01      0.18
  -0.00000004   0.00000961   0.00000262         -0.01      1.41      0.39
   0.00000124   0.00000262  -0.00000965          0.18      0.39     -1.42


     BFGS Geometry Optimization

     number of scf cycles    =   1
     number of bfgs steps    =   0

     energy   new            =   -1592.1824290963 Ry

     new trust radius        =       0.0375543714 bohr
     new conv_thr            =       0.0000010000 Ry


ATOMIC_POSITIONS (crystal)
O0       0.000000000   0.000000000   0.372034766    0   0   1
O0       0.000000000   0.500000000   0.388631324    0   0   1
Nb1      0.250000000   0.500000000   0.444155001    0   0   1
Nb1      0.000000000   0.000000000   0.444757833    0   0   1
O0       0.250000000   0.790000000   0.447166123    0   0   1
O0       0.250000000   0.210000000   0.447135620    0   0   1
O0       0.000000000   0.500000000   0.500169902    0   0   1
O0       0.000000000   0.000000000   0.523401519    0   0   1
Nb1      0.250000000   0.000000000   0.577218414    0   0   1
Nb1      0.000000000   0.500000000   0.569324950    0   0   1
O0       0.250000000   0.710000000   0.575559598    0   0   1
O0       0.250000000   0.290000000   0.576054243    0   0   1
O0       0.000000000   0.000000000   0.621753115    0   0   1
O0       0.500000000   0.000000000   0.372328817    0   0   1
O0       0.500000000   0.500000000   0.389940375    0   0   1
Nb1      0.750000000   0.500000000   0.444182678    0   0   1
Nb1      0.500000000   0.000000000   0.445194699    0   0   1
O0       0.750000000   0.790000000   0.447156414    0   0   1
O0       0.750000000   0.210000000   0.447135878    0   0   1
O0       0.500000000   0.500000000   0.499526410    0   0   1
O0       0.500000000   0.000000000   0.523291365    0   0   1
Nb1      0.750000000   0.000000000   0.577217731    0   0   1
Nb1      0.500000000   0.500000000   0.575770966    0   0   1
O0       0.750000000   0.710000000   0.575551062    0   0   1
O0       0.750000000   0.290000000   0.576045834    0   0   1
O0       0.500000000   0.000000000   0.621479920    0   0   1
H2      -0.000517555   0.504903756   0.352639413
H2       0.499447953   0.501151539   0.353992777
H2       0.150512080   0.000704628   0.356376476
H2       0.650115564   0.000512739   0.356506619
O0       0.499999691   0.508776128   0.649447142
O0       0.499999750   0.348245191   0.683314970
H2       0.499999437   0.419996836   0.714798047


     Check: negative starting charge=   -0.003307
     NEW-OLD atomic charge density approx. for the potential

     Check: negative/imaginary core charge=   -0.000003    0.000000
     Check: negative starting charge=   -0.003305

     negative rho (up, down):  0.341E-02 0.000E+00
 Atomic wfc used for LDA+U Projector are NOT orthogonalized

     total cpu time spent up to now is     7268.4 secs

     per-process dynamical memory:   454.8 Mb

     Self-consistent Calculation

     iteration #  1     ecut=    40.00 Ry     beta=0.70
     Davidson diagonalization with overlap
     ethr =  1.00E-06,  avg # of iterations =  5.1
 --- enter write_ns ---
 LDA+U parameters:
U( 2)     =  5.00000000
alpha( 2) =  0.00000000
atom    3   Tr[ns(na)] =   5.14089
    eigenvalues: 
  0.338  0.353  0.523  0.592  0.764
    eigenvectors:
  0.000  0.000  0.003  0.334  0.663
  0.000  0.000  0.997  0.003  0.001
  0.732  0.268  0.000  0.000  0.000
  0.000  0.000  0.001  0.663  0.336
  0.268  0.731  0.000  0.000  0.000
    occupations:
  0.706 -0.007  0.002 -0.081 -0.004
 -0.007  0.523 -0.001  0.001  0.001
  0.002 -0.001  0.342 -0.001 -0.007
 -0.081  0.001 -0.001  0.650  0.002
 -0.004  0.001 -0.007  0.002  0.349
atom    4   Tr[ns(na)] =   5.19653
    eigenvalues: 
  0.357  0.383  0.556  0.592  0.711
    eigenvectors:
  0.003  0.000  0.000  0.997  0.000
  0.996  0.000  0.000  0.003  0.001
  0.000  1.000  0.000  0.000  0.000
  0.001  0.000  0.000  0.000  0.999
  0.000  0.000  1.000  0.000  0.000
    occupations:
  0.591  0.013  0.000 -0.002 -0.000
  0.013  0.358 -0.000 -0.009  0.000
  0.000 -0.000  0.383  0.000  0.001
 -0.002 -0.009  0.000  0.711  0.000
 -0.000  0.000  0.001  0.000  0.556
atom    9   Tr[ns(na)] =   5.27573
    eigenvalues: 
  0.446  0.460  0.490  0.620  0.622
    eigenvectors:
  0.879  0.001  0.000  0.099  0.022
  0.000  0.000  0.000  0.181  0.819
  0.000  0.095  0.905  0.000  0.000
  0.121  0.000  0.000  0.720  0.159
  0.001  0.904  0.095  0.000  0.000
    occupations:
  0.467 -0.000 -0.000  0.057  0.000
 -0.000  0.622  0.000 -0.001  0.000
 -0.000  0.000  0.487  0.000  0.009
  0.057 -0.001  0.000  0.599 -0.000
  0.000  0.000  0.009 -0.000  0.463
atom   10   Tr[ns(na)] =   5.09492
    eigenvalues: 
  0.328  0.446  0.509  0.546  0.718
    eigenvectors:
  0.000  0.000  0.995  0.000  0.005
  0.000  1.000  0.000  0.000  0.000
  1.000  0.000  0.000  0.000  0.000
  0.000  0.000  0.005  0.000  0.995
  0.000  0.000  0.000  1.000  0.000
    occupations:
  0.510  0.000  0.001  0.014  0.000
  0.000  0.446  0.000 -0.000  0.001
  0.001  0.000  0.328 -0.003 -0.000
  0.014 -0.000 -0.003  0.717 -0.000
  0.000  0.001 -0.000 -0.000  0.546
atom   16   Tr[ns(na)] =   5.14099
    eigenvalues: 
  0.338  0.354  0.523  0.592  0.764
    eigenvectors:
  0.000  0.000  0.003  0.334  0.663
  0.000  0.000  0.997  0.003  0.001
  0.731  0.269  0.000  0.000  0.000
  0.000  0.000  0.001  0.663  0.336
  0.269  0.731  0.000  0.000  0.000
    occupations:
  0.706  0.007  0.002 -0.081  0.004
  0.007  0.523  0.001 -0.001  0.001
  0.002  0.001  0.342 -0.001  0.007
 -0.081 -0.001 -0.001  0.650 -0.002
  0.004  0.001  0.007 -0.002  0.349
atom   17   Tr[ns(na)] =   5.19690
    eigenvalues: 
  0.358  0.384  0.555  0.593  0.708
    eigenvectors:
  0.003  0.000  0.000  0.996  0.000
  0.996  0.000  0.000  0.003  0.001
  0.000  1.000  0.000  0.000  0.000
  0.001  0.000  0.000  0.001  0.999
  0.000  0.000  1.000  0.000  0.000
    occupations:
  0.592  0.013  0.000 -0.002 -0.000
  0.013  0.359 -0.000 -0.009  0.000
  0.000 -0.000  0.384 -0.000  0.001
 -0.002 -0.009 -0.000  0.708  0.000
 -0.000  0.000  0.001  0.000  0.555
atom   22   Tr[ns(na)] =   5.27571
    eigenvalues: 
  0.446  0.460  0.490  0.620  0.622
    eigenvectors:
  0.879  0.001  0.000  0.101  0.019
  0.000  0.000  0.000  0.161  0.839
  0.000  0.096  0.904  0.000  0.000
  0.120  0.000  0.000  0.738  0.142
  0.001  0.904  0.096  0.000  0.000
    occupations:
  0.467  0.000 -0.000  0.057 -0.000
  0.000  0.622 -0.000  0.001  0.000
 -0.000 -0.000  0.487  0.000 -0.009
  0.057  0.001  0.000  0.599  0.000
 -0.000  0.000 -0.009  0.000  0.463
atom   23   Tr[ns(na)] =   5.21444
    eigenvalues: 
  0.325  0.484  0.555  0.596  0.647
    eigenvectors:
  0.002  0.000  0.000  0.979  0.019
  0.000  0.996  0.004  0.000  0.000
  0.997  0.000  0.000  0.002  0.001
  0.000  0.000  0.000  0.019  0.980
  0.000  0.004  0.996  0.000  0.000
    occupations:
  0.596  0.000  0.013  0.007 -0.000
  0.000  0.484 -0.000 -0.000 -0.004
  0.013 -0.000  0.326  0.007  0.000
  0.007 -0.000  0.007  0.646 -0.000
 -0.000 -0.004  0.000 -0.000  0.555
N of occupied +U levels =  41.5361144
 --- exit write_ns ---

     negative rho (up, down):  0.339E-02 0.000E+00

     total cpu time spent up to now is     7599.1 secs

     total energy              =   -1592.18372344 Ry
     Harris-Foulkes estimate   =   -1592.18521374 Ry
     estimated scf accuracy    <       0.00210981 Ry

     iteration #  2     ecut=    40.00 Ry     beta=0.70
     Davidson diagonalization with overlap
     ethr =  9.21E-07,  avg # of iterations =  5.9

     negative rho (up, down):  0.347E-02 0.000E+00

     total cpu time spent up to now is     7827.3 secs

     total energy              =   -1592.17700601 Ry
     Harris-Foulkes estimate   =   -1592.19337151 Ry
     estimated scf accuracy    <       0.18310232 Ry

     iteration #  3     ecut=    40.00 Ry     beta=0.70
     Davidson diagonalization with overlap
     ethr =  9.21E-07,  avg # of iterations =  6.8

     negative rho (up, down):  0.345E-02 0.000E+00

     total cpu time spent up to now is     8047.3 secs

     total energy              =   -1592.18393036 Ry
     Harris-Foulkes estimate   =   -1592.18580548 Ry
     estimated scf accuracy    <       0.01118466 Ry

     iteration #  4     ecut=    40.00 Ry     beta=0.70
     Davidson diagonalization with overlap
     ethr =  9.21E-07,  avg # of iterations =  4.5

     negative rho (up, down):  0.342E-02 0.000E+00

     total cpu time spent up to now is     8243.2 secs

[...]
    14.8017  14.8140  14.8618  14.8944  14.9706  14.9804  15.0895  15.2221
    15.4394  15.4469  15.5242  15.5927  15.7719  15.8011  15.9097  15.9389
    16.0185  16.0570  16.0866  16.1940  16.2595  16.3159  16.3862  16.4075
    16.4289  16.4516  16.5118  16.5153  16.5331  16.5602  16.6674  16.7428
    16.7892  16.8003  16.8598  16.8784  16.9282  16.9519  16.9813  17.0099
    17.1185  17.1247  17.1710  17.1962  17.2339  17.2577  17.2699  17.2831
    17.3421  17.4239  17.5111  17.5454  17.5896  17.6421  17.6793  17.6834
    17.6978  17.7170  17.7348  17.7815  17.8288  17.8790  18.0952  18.1069
    18.1756  18.2167  18.2526  18.3022  18.3426  18.4723  18.5865  18.5885
    18.6358  18.6523  18.7129  18.7549  18.7802  18.8070  18.8491  18.8918
    18.9917  19.1373  19.1945  19.2478  19.3476  19.3706  19.4100  19.4426
    19.5406  19.6014  19.7954  19.8102  19.9279  19.9491  20.0023

          k =-0.5000 0.2118 0.0000 ( 32144 PWs)   bands (ev):

   -56.1616 -56.1609 -55.6708 -55.6695 -55.5834 -55.5513 -55.5271 -55.4081
   -32.6287 -32.6145 -32.3081 -32.3013 -32.2520 -32.2513 -32.2089 -32.1587
   -32.1578 -32.0117 -31.9971 -31.9031 -31.7455 -31.7431 -31.7028 -31.6797
   -31.6555 -31.6241 -31.5516 -31.5429 -31.4324 -31.4071 -31.4061 -31.2539
   -22.4276 -20.0741 -19.9989 -19.0608 -19.0602 -18.7053 -18.5172 -18.4983
   -18.4972 -18.4891 -18.3107 -18.3043 -18.1530 -18.1500 -17.9408 -17.9400
   -17.9075 -17.8994 -17.8393 -16.0457  -8.4944  -8.4037  -7.7265  -7.0010
    -6.9959  -6.4767  -6.4563  -6.3977  -6.3847  -6.2970  -6.2790  -6.0290
    -6.0050  -5.7688  -5.6558  -5.6082  -5.5450  -5.4277  -5.3075  -5.0948
    -5.0295  -4.9971  -4.8614  -4.8278  -4.7792  -4.7184  -4.6593  -4.6453
    -4.6017  -4.4872  -4.4619  -4.1901  -4.1591  -4.0959  -4.0691  -3.8170
    -3.7742  -3.6519  -3.6118  -3.5987  -3.5123  -3.4801  -3.3686  -3.3188
    -3.2768  -3.0628  -3.0328  -2.8904  -2.8550  -2.7803  -2.6513  -2.5465
    -2.5155  -2.3869  -2.3500  -2.1591  -2.0609  -1.9047  -0.7296   0.3889
     0.5351   1.0706   1.1589   1.1710   1.4648   1.6281   1.7246   1.9637
     1.9873   2.0384   2.0859   2.3752   2.4018   2.5356   2.5545   2.6782
     2.7236   2.8823   2.9065   3.0944   3.2272   3.4682   3.4840   3.7269
     3.8012   3.8703   4.3584   4.8483   5.0487   5.0918   5.1713   5.1886
     5.2407   5.2759   5.2995   5.3481   5.5445   5.6537   5.7386   5.7562
     5.8317   6.0536   6.1548   6.1995   6.2559   6.4626   6.4787   6.5426
     6.6203   6.6378   6.7496   6.7779   6.9425   7.0296   7.0810   7.4216
     7.4851   7.5416   7.5889   7.7087   7.7564   7.8684   8.1209   8.2274
     8.3950   8.4008   8.7191   8.8041   8.8675   8.9808   9.0246   9.1492
     9.2841   9.3861   9.6452   9.7120   9.7818   9.8968  10.0049  10.1199
    10.1296  10.1933  10.2216  10.3450  10.3580  10.4669  10.6503  10.7021
    10.8172  10.9373  10.9972  11.0896  11.3819  11.4668  11.5427  11.6669
    11.7404  11.7595  11.7919  11.8751  11.9293  11.9973  12.1810  12.3392
    12.3954  12.5098  12.7228  12.7775  12.8535  12.8963  13.0665  13.1662
    13.1760  13.3763  13.4309  13.4641  13.5679  13.5909  13.6418  13.6610
    13.7244  13.7597  13.7976  13.8238  13.9464  13.9647  14.0519  14.0992
    14.1721  14.2170  14.2558  14.2650  14.3405  14.3580  14.4056  14.4142
    14.4874  14.5285  14.6055  14.6311  14.7621  14.7957  14.8858  14.9379
    15.0230  15.0371  15.0488  15.1110  15.1796  15.2057  15.2336  15.2537
    15.3081  15.3429  15.5199  15.5351  15.6368  15.6518  15.7126  15.7639
    15.8293  15.8993  15.9473  15.9993  16.0790  16.1558  16.1976  16.2079
    16.3751  16.3940  16.4563  16.4749  16.5652  16.6149  16.7624  16.8397
    16.9343  16.9986  17.0803  17.1286  17.2168  17.2370  17.2849  17.3988
    17.5011  17.5494  17.5738  17.6446  17.7233  17.7460  17.8007  17.8865
    17.9355  18.0214  18.0964  18.1722  18.1900  18.2302  18.2897  18.3126
    18.3487  18.5058  18.5207  18.6199  18.6451  18.6773  18.7640  18.8104
    18.9371  18.9973  19.0282  19.0949  19.2351  19.2810  19.3669  19.3959
    19.4429  19.5160  19.5441  19.6649  19.7321  19.7720  19.8711  19.9255
    20.0362  20.0766  20.1292  20.2035  20.2360  20.3536  20.4244

          k =-0.5000-0.4237 0.0000 ( 32256 PWs)   bands (ev):

   -56.1595 -56.1593 -55.6686 -55.6674 -55.5812 -55.5481 -55.5238 -55.4059
   -32.6278 -32.6127 -32.3072 -32.3006 -32.2537 -32.2480 -32.2063 -32.1579
   -32.1569 -32.0112 -31.9966 -31.9028 -31.7431 -31.7401 -31.6983 -31.6763
   -31.6517 -31.6329 -31.5515 -31.5430 -31.4414 -31.4162 -31.4022 -31.2608
   -22.4271 -20.0713 -19.9960 -19.0575 -19.0566 -18.6916 -18.5364 -18.5141
   -18.4972 -18.4726 -18.3106 -18.3048 -18.1522 -18.1463 -17.9376 -17.9193
   -17.9188 -17.8585 -17.8349 -16.0453  -8.4909  -8.3998  -7.7215  -6.9867
    -6.9826  -6.4078  -6.3647  -6.3247  -6.3103  -6.2976  -6.2878  -6.0420
    -6.0199  -5.7226  -5.6519  -5.6042  -5.4475  -5.3862  -5.3372  -5.0959
    -5.0436  -5.0033  -4.8824  -4.8750  -4.8690  -4.8311  -4.7408  -4.7321
    -4.6106  -4.4989  -4.3515  -4.1731  -4.1378  -4.0781  -3.8589  -3.8443
    -3.8244  -3.7791  -3.7563  -3.6895  -3.6679  -3.6307  -3.5884  -3.4439
    -3.4266  -3.0301  -2.9983  -2.8389  -2.8230  -2.7067  -2.6095  -2.5314
    -2.4613  -2.4365  -2.1636  -2.1399  -2.1179  -1.9301  -0.7343   0.4049
     0.5498   1.2648   1.2810   1.3060   1.5142   1.6332   1.6491   1.8449
     1.8545   2.2786   2.2980   2.5509   2.5817   2.6030   2.6552   2.8060
     2.8661   2.9811   3.1042   3.1177   3.1874   3.3454   3.4770   3.7288
     3.9401   4.0174   4.3619   4.6910   4.7302   4.7448   4.7897   5.0339
     5.0423   5.0435   5.4071   5.5034   5.7120   5.7136   5.7203   5.7460
     5.9759   5.9854   6.0316   6.0658   6.1191   6.2106   6.2303   6.4992
     6.5073   6.5324   6.6103   6.8186   6.8262   6.9972   7.0993   7.1843
     7.1931   7.2280   7.4483   7.4958   7.6553   8.1262   8.1489   8.2634
     8.3170   8.4492   8.5208   8.5985   9.1010   9.2129   9.2866   9.4177
     9.4549   9.5358   9.6342   9.6813   9.7123   9.7700   9.9118   9.9471
    10.5714  10.7843  10.9069  10.9282  10.9541  11.0093  11.0548  11.2166
    11.3898  11.5297  11.5513  11.5931  11.8031  11.8140  11.8713  11.9101
    11.9658  11.9729  12.1754  12.2991  12.3262  12.3451  12.4361  12.4485
    12.4877  12.5231  12.5288  12.6589  12.7279  12.7911  12.8581  12.9082
    12.9856  13.0249  13.1333  13.1879  13.1893  13.2298  13.2910  13.4393
    13.4883  13.5194  13.6287  13.6374  13.6745  13.6892  13.7585  13.8804
    13.9208  14.0076  14.0326  14.2015  14.2284  14.2597  14.2705  14.2920
    14.3607  14.3783  14.4104  14.4334  14.5153  14.5772  14.6265  14.6354
    14.6648  14.6763  14.7381  14.8183  14.8311  14.8519  14.8950  15.0055
    15.0877  15.1041  15.1722  15.2508  15.3176  15.3895  15.4488  15.5763
    15.5944  15.6186  15.7089  15.7206  15.8002  15.8750  15.8970  15.9841
    16.0367  16.0993  16.1371  16.1778  16.4154  16.5531  16.5838  16.6202
    16.7491  16.8302  17.1052  17.1232  17.1472  17.1768  17.3601  17.3801
    17.4018  17.4301  17.6079  17.6177  17.6560  17.7363  17.8240  17.8406
    17.9144  17.9508  18.0618  18.1553  18.2042  18.3266  18.5521  18.5632
    18.5929  18.6949  18.7055  18.8522  18.8679  18.9474  19.0473  19.0759
    19.1168  19.2636  19.4476  19.5350  19.6300  19.6406  19.7626  19.7863
    19.8163  19.8967  19.9860  20.0590  20.1120  20.2116  20.2564  20.2965
    20.3379  20.3999  20.4141  20.4456  20.5051  20.5166  20.6124

          k =-0.2500 0.2118 0.0000 ( 32165 PWs)   bands (ev):

   -56.1973 -56.1292 -55.7195 -55.6618 -55.6054 -55.5873 -55.5238 -55.4118
   -32.9661 -32.4157 -32.2828 -32.2276 -32.2247 -32.2143 -32.2051 -32.1888
   -32.1438 -32.0326 -32.0013 -31.9825 -31.9328 -31.8964 -31.8581 -31.6349
   -31.6161 -31.5041 -31.4917 -31.4117 -31.3512 -31.3440 -31.2389 -31.2137
   -22.4294 -20.1476 -19.9847 -19.2205 -19.0284 -18.7507 -18.7141 -18.7059
   -18.6726 -18.6187 -18.5895 -18.5761 -17.8738 -17.8355 -17.8292 -17.7762
   -17.7643 -17.7444 -17.5970 -16.0471  -8.7555  -8.3265  -7.7209  -7.3393
    -6.9859  -6.8809  -6.7018  -6.4501  -6.3161  -6.2879  -6.1860  -6.0776
    -6.0595  -6.0449  -5.7932  -5.7545  -5.6782  -5.4148  -5.3921  -5.3358
    -5.2909  -5.1435  -4.9337  -4.8589  -4.7376  -4.5476  -4.3899  -4.3730
    -4.2870  -4.1639  -4.0546  -4.0007  -3.9705  -3.9258  -3.8054  -3.7587
    -3.6910  -3.6734  -3.6418  -3.5698  -3.4378  -3.3407  -3.2794  -3.2629
    -3.1823  -3.0436  -3.0075  -2.9123  -2.8392  -2.8058  -2.7239  -2.5691
    -2.5066  -2.4564  -2.3642  -2.3327  -2.0168  -1.8536  -0.7793  -0.7038
     0.1986   0.2874   1.3484   1.5677   1.8134   1.8922   2.0025   2.0535
     2.1605   2.2966   2.4683   2.5266   2.5343   2.6867   2.7362   2.8064
     2.8199   2.9402   3.0320   3.0866   3.1946   3.2061   3.3308   3.5638
     3.8655   4.2158   4.3660   4.4281   4.7045   4.7966   4.9835   5.1676
     5.1945   5.2549   5.3626   5.4934   5.5190   5.6909   5.8176   5.8762
     5.9447   6.0375   6.0611   6.1661   6.4139   6.4931   6.5539   6.7053
     6.7712   6.7992   6.8654   7.0231   7.1284   7.3114   7.3536   7.4538
     7.5703   7.7645   7.8921   8.0081   8.0663   8.1454   8.3072   8.3387
     8.5115   8.5909   8.7312   8.7987   8.9458   8.9649   9.0604   9.2586
     9.3075   9.4218   9.4815   9.5604   9.6657   9.7883   9.8737   9.9520
    10.0598  10.1335  10.2176  10.3345  10.4192  10.4570  10.6102  10.7832
    10.8673  10.9913  11.0316  11.1059  11.1710  11.2283  11.3146  11.3892
    11.4807  11.5889  11.6116  11.6570  11.7027  11.8720  11.9102  12.0043
    12.1187  12.1812  12.2259  12.3301  12.4560  12.5515  12.6066  12.7099
    12.7494  12.8004  12.8620  12.9229  12.9438  13.0077  13.0566  13.1871
    13.2257  13.3054  13.3337  13.4220  13.5346  13.5881  13.6458  13.7181
    13.7664  13.8667  13.9112  13.9999  14.0494  14.0812  14.1338  14.2388
    14.3108  14.4016  14.4291  14.4864  14.6575  14.7509  14.8117  14.8807
    14.9554  15.0937  15.1695  15.2432  15.3064  15.3179  15.4093  15.4525
    15.5015  15.5517  15.5846  15.6982  15.7687  15.8104  15.8744  15.8993
    15.9855  16.0543  16.1240  16.2003  16.2889  16.3716  16.3923  16.4363
    16.5568  16.6770  16.7091  16.7432  16.7854  16.8767  16.9233  17.0389
    17.0709  17.1144  17.1803  17.2393  17.3191  17.3813  17.4854  17.5072
    17.5680  17.6274  17.6913  17.8270  17.8761  17.9350  17.9673  18.0685
    18.1211  18.2155  18.2940  18.3554  18.4131  18.5546  18.5856  18.6445
    18.6511  18.7539  18.8216  18.8752  18.9698  19.0133  19.0848  19.0987
    19.2048  19.2806  19.3034  19.3768  19.4321  19.4617  19.5212  19.5985
    19.6782  19.7455  19.7798  19.8139  19.8850  19.9167  19.9796  20.0370
    20.0622  20.1349  20.1714  20.2416  20.2911  20.3647  20.4263

     the Fermi energy is     1.2097 ev

!    total energy              =   -1592.18850375 Ry
     Harris-Foulkes estimate   =   -1592.18850376 Ry
     estimated scf accuracy    <          7.8E-09 Ry

     The total energy is the sum of the following terms:

     one-electron contribution =  -19318.15469289 Ry
     hartree contribution      =    9692.44015747 Ry
     xc contribution           =    -294.71894359 Ry
     ewald contribution        =    8324.82600238 Ry
     Hubbard energy            =       3.41955289 Ry
     smearing contrib. (-TS)   =      -0.00058003 Ry

     convergence has been achieved in  11 iterations

     Forces acting on atoms (Ry/au):


     negative rho (up, down):  0.341E-02 0.000E+00
     atom    1 type  1   force =     0.00146763   -0.00028601    0.00052787
     atom    2 type  1   force =    -0.00009339    0.00048781    0.00039086
     atom    3 type  2   force =     0.02894516   -0.00007714   -0.00030684
     atom    4 type  2   force =    -0.00291674    0.00005300    0.00041469
     atom    5 type  1   force =    -0.00183788   -0.02571693    0.00010603
     atom    6 type  1   force =    -0.00163258    0.02556141    0.00011113
     atom    7 type  1   force =    -0.00015093    0.00007113    0.00019755
     atom    8 type  1   force =     0.00125237    0.00089691   -0.00021919
     atom    9 type  2   force =     0.00059106   -0.00030270    0.00007462
     atom   10 type  2   force =     0.00001454   -0.00032382   -0.00013717
     atom   11 type  1   force =    -0.00303215    0.00262336   -0.00031525
     atom   12 type  1   force =    -0.00092051    0.00150997   -0.00024933
     atom   13 type  1   force =     0.00027392   -0.00130696    0.00018827
     atom   14 type  1   force =     0.00130123   -0.00000832    0.00047887
     atom   15 type  1   force =    -0.00009424    0.00016754   -0.00072389
     atom   16 type  2   force =    -0.02842588   -0.00014087   -0.00032597
     atom   17 type  2   force =    -0.00419606   -0.00000339    0.00030462
     atom   18 type  1   force =     0.00267588   -0.02551866    0.00005997
     atom   19 type  1   force =     0.00231432    0.02540215    0.00007389
     atom   20 type  1   force =    -0.00012382   -0.00439072   -0.00003119
     atom   21 type  1   force =     0.00130436    0.00067274   -0.00018499
     atom   22 type  2   force =    -0.00071459   -0.00030654    0.00007297
     atom   23 type  2   force =     0.00001296    0.00169494   -0.00007845
     atom   24 type  1   force =     0.00303701    0.00261497   -0.00032377
     atom   25 type  1   force =     0.00093122    0.00152320   -0.00025555
     atom   26 type  1   force =     0.00024769   -0.00445946    0.00034401
     atom   27 type  3   force =     0.00000613    0.00005522    0.00056261
     atom   28 type  3   force =     0.00000538   -0.00029855   -0.00057521
     atom   29 type  3   force =    -0.00014515    0.00002579    0.00040063
     atom   30 type  3   force =    -0.00009693   -0.00000526    0.00042684
     atom   31 type  1   force =     0.00000282    0.00024549    0.00044092
     atom   32 type  1   force =    -0.00000066   -0.00040782   -0.00064724
     atom   33 type  3   force =    -0.00000217   -0.00005250   -0.00080231

     Total force =     0.002219     Total SCF correction =     0.000263
     SCF correction compared to forces is large: reduce conv_thr to get better values


     entering subroutine stress ...


     negative rho (up, down):  0.341E-02 0.000E+00
          total   stress  (Ry/bohr**3)                   (kbar)     P=   -2.35
  -0.00001464  -0.00000005   0.00000064         -2.15     -0.01      0.09
  -0.00000005   0.00000216   0.00000002         -0.01      0.32      0.00
   0.00000064   0.00000002  -0.00003551          0.09      0.00     -5.22


     bfgs converged in  15 scf cycles and  14 bfgs steps
     (criteria: energy < 0.10E-03, force < 0.10E-02)

     End of BFGS Geometry Optimization

     Final energy   =   -1592.1885037546 Ry
Begin final coordinates

ATOMIC_POSITIONS (crystal)
O0       0.000000000   0.000000000   0.371682008    0   0   1
O0       0.000000000   0.500000000   0.387428484    0   0   1
Nb1      0.250000000   0.500000000   0.443051337    0   0   1
Nb1      0.000000000   0.000000000   0.444478819    0   0   1
O0       0.250000000   0.790000000   0.447402429    0   0   1
O0       0.250000000   0.210000000   0.447364651    0   0   1
O0       0.000000000   0.500000000   0.499346807    0   0   1
O0       0.000000000   0.000000000   0.524063152    0   0   1
Nb1      0.250000000   0.000000000   0.577753611    0   0   1
Nb1      0.000000000   0.500000000   0.568420877    0   0   1
O0       0.250000000   0.710000000   0.577564287    0   0   1
O0       0.250000000   0.290000000   0.578065853    0   0   1
O0       0.000000000   0.000000000   0.622140778    0   0   1
O0       0.500000000   0.000000000   0.371917011    0   0   1
O0       0.500000000   0.500000000   0.387919155    0   0   1
Nb1      0.750000000   0.500000000   0.443059200    0   0   1
Nb1      0.500000000   0.000000000   0.444759343    0   0   1
O0       0.750000000   0.790000000   0.447372559    0   0   1
O0       0.750000000   0.210000000   0.447348344    0   0   1
O0       0.500000000   0.500000000   0.500452044    0   0   1
O0       0.500000000   0.000000000   0.524131518    0   0   1
Nb1      0.750000000   0.000000000   0.577760733    0   0   1
Nb1      0.500000000   0.500000000   0.575565060    0   0   1
O0       0.750000000   0.710000000   0.577562208    0   0   1
O0       0.750000000   0.290000000   0.578064624    0   0   1
O0       0.500000000   0.000000000   0.621815089    0   0   1
H2      -0.000429900   0.505246100   0.351244977
H2       0.499589214   0.500056980   0.351712691
H2       0.151231202   0.000914101   0.356279102
H2       0.650966216   0.000615637   0.356398445
O0       0.499986501   0.510313831   0.649482551
O0       0.499990022   0.348319204   0.682950738
H2       0.499991008   0.417930705   0.714701515
End final coordinates



     init_run     :    107.33s CPU    109.88s WALL (       1 calls)
     electrons    :  43433.75s CPU  44653.92s WALL (      15 calls)
     update_pot   :    281.26s CPU    287.76s WALL (      14 calls)
     forces       :   2071.96s CPU   2118.76s WALL (      15 calls)
     stress       :  10544.28s CPU  10775.60s WALL (      15 calls)

     Called by init_run:
     wfcinit      :     37.71s CPU     38.95s WALL (       1 calls)
     potinit      :      7.47s CPU      7.75s WALL (       1 calls)

     Called by electrons:
     c_bands      :  22724.32s CPU  23350.15s WALL (     235 calls)
     sum_band     :   8915.39s CPU   9204.86s WALL (     235 calls)
     v_of_rho     :    247.53s CPU    261.60s WALL (     241 calls)
     newd         :  12204.80s CPU  12294.77s WALL (     241 calls)
     mix_rho      :     47.14s CPU     48.78s WALL (     235 calls)

     Called by c_bands:
     init_us_2    :     86.32s CPU     86.97s WALL (    1998 calls)
     cegterg      :  22385.94s CPU  22913.66s WALL (     705 calls)

     Called by *egterg:
     h_psi        :  13321.77s CPU  13612.65s WALL (    2037 calls)
     s_psi        :   1696.74s CPU   1718.48s WALL (    2532 calls)
     g_psi        :     28.05s CPU     28.09s WALL (    1329 calls)
     cdiaghg      :   1904.33s CPU   1909.92s WALL (    1965 calls)

     Called by h_psi:
     add_vuspsi   :   1296.83s CPU   1315.85s WALL (    2037 calls)
     vhpsi        :   1483.81s CPU   1495.43s WALL (    2037 calls)

     General routines
     calbec       :   4069.73s CPU   4119.82s WALL (   20289 calls)
     fft          :    408.21s CPU    550.04s WALL (    4221 calls)
     ffts         :      4.52s CPU      4.69s WALL (     476 calls)
     fftw         :   7245.97s CPU   7558.37s WALL ( 1261283 calls)
     interpolate  :     38.99s CPU     39.81s WALL (     476 calls)
     davcio       :      0.16s CPU     43.39s WALL (    2403 calls)

     Parallel routines
     fft_scatter  :   2845.91s CPU   3289.78s WALL ( 1265980 calls)
     Hubbard U routines
     new_ns       :    311.68s CPU    328.74s WALL (     235 calls)
     vhpsi        :   1483.81s CPU   1495.43s WALL (    2037 calls)
     force_hub    :    591.10s CPU    605.82s WALL (      15 calls)
     stres_hub    :   5576.52s CPU   5673.58s WALL (      15 calls)

     PWSCF        :    15h55m CPU       16h20m WALL


   This run was terminated on:  23:50:28   1Jun2014            

=------------------------------------------------------------------------------=
   JOB DONE.
=------------------------------------------------------------------------------=
---------------------------------------
Running PBS batch system epilogue script
Job id: 373368.audhumbla.fysik.dtu.dk
Username: zhonxu
Groupname: campgst
Jobname: NbO2/Eads-2-layers/OOH-U-5.0
Sessionid: 31823
Resources limits: neednodes=2:ppn=8:xeon8,nodes=2:ppn=8:xeon8,walltime=48:00:00
Resources used: cput=261:20:41,mem=17658108kb,vmem=21205308kb,walltime=16:20:49
Queuename: verylong
Accounting:
This job has allocated the following 16 nodes:
a092 a092 a092 a092 a092 a092 a092 a092 a002 a002 a002 a002 a002 a002 a002 a002
Finished epilogue job 373368.audhumbla.fysik.dtu.dk for zhonxu
