
     Program PWSCF v.5.0.2 (svn rev. 9656) starts on 24Jan2014 at 10:35:22 

     This program is part of the open-source Quantum ESPRESSO suite
     for quantum simulation of materials; please cite
         "P. Giannozzi et al., J. Phys.:Condens. Matter 21 395502 (2009);
          URL http://www.quantum-espresso.org", 
     in publications or presentations arising from this work. More details at
     http://www.quantum-espresso.org/quote.php

     Parallel version (MPI), running on     4 processors
     R & G space division:  proc/nbgrp/npool/nimage =       4

     Current dimensions of program PWSCF are:
     Max number of different atomic species (ntypx) = 10
     Max number of k-points (npk) =  40000
     Max angular momentum in pseudopotentials (lmaxx) =  3
     Reading input from MoO2-v-0.95.in

     Subspace diagonalization in iterative solution of the eigenvalue problem:
     a serial algorithm will be used


     Parallelization info
     --------------------
     sticks:   dense  smooth     PW     G-vecs:    dense   smooth      PW
     Min         749     243     72                19965     3619     604
     Max         750     244     74                19968     3628     605
     Sum        2997     973    293                79867    14491    2417



     bravais-lattice index     =            0
     lattice parameter (alat)  =       8.6936  a.u.
     unit-cell volume          =     423.4283 (a.u.)^3
     number of atoms/cell      =            6
     number of atomic types    =            2
     number of electrons       =        52.00
     number of Kohn-Sham states=           78
     kinetic-energy cutoff     =      40.0000  Ry
     charge density cutoff     =     500.0000  Ry
     convergence threshold     =      1.0E-06
     mixing beta               =       0.3000
     number of iterations used =            8  plain     mixing
     Exchange-correlation      = SLA  PW   PBE  PBE ( 1 4 3 4 0)
     EXX-fraction              =        0.00
     nstep                     =           50


     celldm(1)=   8.693570  celldm(2)=   0.000000  celldm(3)=   0.000000
     celldm(4)=   0.000000  celldm(5)=   0.000000  celldm(6)=   0.000000

     crystal axes: (cart. coord. in units of alat)
               a(1) = (   1.000000   0.000000   0.000000 )  
               a(2) = (   0.000000   1.000000   0.000000 )  
               a(3) = (   0.000000   0.000000   0.644444 )  

     reciprocal axes: (cart. coord. in units 2 pi/alat)
               b(1) = (  1.000000  0.000000  0.000000 )  
               b(2) = (  0.000000  1.000000  0.000000 )  
               b(3) = (  0.000000  0.000000  1.551724 )  


     PseudoPot. # 1 for Mo read from file:
     /home/camp/zhonxu/pseudo/mo_pbe_v1.uspp.F.UPF
     MD5 check sum: 30c4dcd161f5d35cd49bb5239c51a633
     Pseudo is Ultrasoft + core correction, Zval = 14.0
     Generated by new atomic code, or converted to UPF format
     Using radial grid of  889 points,  6 beta functions with: 
                l(1) =   0
                l(2) =   0
                l(3) =   1
                l(4) =   1
                l(5) =   2
                l(6) =   2
     Q(r) pseudized with  6 coefficients,  rinner =    1.000   1.000   1.000
                                                       1.000   1.000

     PseudoPot. # 2 for O  read from file:
     /home/camp/zhonxu/pseudo/o_pbe_v1.01.uspp.F.UPF
     MD5 check sum: 2bcb18d16ea4b960afae9ec6d52f22d2
     Pseudo is Ultrasoft + core correction, Zval =  6.0
     Generated by new atomic code, or converted to UPF format
     Using radial grid of  737 points,  5 beta functions with: 
                l(1) =   0
                l(2) =   0
                l(3) =   1
                l(4) =   1
                l(5) =   2
     Q(r) pseudized with  8 coefficients,  rinner =    0.900   0.900   0.900
                                                       0.900   0.900

     atomic species   valence    mass     pseudopotential
        Mo0           14.00    95.94000     Mo( 1.00)
        O1             6.00    15.99940     O ( 1.00)

     Starting magnetic structure 
     atomic species   magnetization
        Mo0          0.600
        O1           0.000

     16 Sym. Ops., with inversion, found ( 8 have fractional translation)



   Cartesian axes

     site n.     atom                  positions (alat units)
         1           Mo0 tau(   1) = (   0.0000000   0.0000000   0.0000000  )
         2           Mo0 tau(   2) = (   0.5000000   0.5000000   0.3222222  )
         3           O1  tau(   3) = (   0.3050000   0.3050000   0.0000000  )
         4           O1  tau(   4) = (  -0.3050000  -0.3050000   0.0000000  )
         5           O1  tau(   5) = (   0.8050000   0.1950000   0.3222222  )
         6           O1  tau(   6) = (   0.1950000   0.8050000   0.3222222  )

     number of k points=    36  Methfessel-Paxton smearing, width (Ry)=  0.0100
                       cart. coord. in units 2pi/alat
        k(    1) = (   0.0000000   0.0000000   0.0000000), wk =   0.0080000
        k(    2) = (   0.0000000   0.0000000   0.3103448), wk =   0.0160000
        k(    3) = (   0.0000000   0.0000000   0.6206897), wk =   0.0160000
        k(    4) = (   0.0000000   0.2000000   0.0000000), wk =   0.0320000
        k(    5) = (   0.0000000   0.2000000   0.3103448), wk =   0.0640000
        k(    6) = (   0.0000000   0.2000000   0.6206897), wk =   0.0640000
        k(    7) = (   0.0000000   0.4000000   0.0000000), wk =   0.0320000
        k(    8) = (   0.0000000   0.4000000   0.3103448), wk =   0.0640000
        k(    9) = (   0.0000000   0.4000000   0.6206897), wk =   0.0640000
        k(   10) = (   0.2000000   0.2000000   0.0000000), wk =   0.0320000
        k(   11) = (   0.2000000   0.2000000   0.3103448), wk =   0.0640000
        k(   12) = (   0.2000000   0.2000000   0.6206897), wk =   0.0640000
        k(   13) = (   0.2000000   0.4000000   0.0000000), wk =   0.0640000
        k(   14) = (   0.2000000   0.4000000   0.3103448), wk =   0.1280000
        k(   15) = (   0.2000000   0.4000000   0.6206897), wk =   0.1280000
        k(   16) = (   0.4000000   0.4000000   0.0000000), wk =   0.0320000
        k(   17) = (   0.4000000   0.4000000   0.3103448), wk =   0.0640000
        k(   18) = (   0.4000000   0.4000000   0.6206897), wk =   0.0640000
        k(   19) = (   0.0000000   0.0000000   0.0000000), wk =   0.0080000
        k(   20) = (   0.0000000   0.0000000   0.3103448), wk =   0.0160000
        k(   21) = (   0.0000000   0.0000000   0.6206897), wk =   0.0160000
        k(   22) = (   0.0000000   0.2000000   0.0000000), wk =   0.0320000
        k(   23) = (   0.0000000   0.2000000   0.3103448), wk =   0.0640000
        k(   24) = (   0.0000000   0.2000000   0.6206897), wk =   0.0640000
        k(   25) = (   0.0000000   0.4000000   0.0000000), wk =   0.0320000
        k(   26) = (   0.0000000   0.4000000   0.3103448), wk =   0.0640000
        k(   27) = (   0.0000000   0.4000000   0.6206897), wk =   0.0640000
        k(   28) = (   0.2000000   0.2000000   0.0000000), wk =   0.0320000
        k(   29) = (   0.2000000   0.2000000   0.3103448), wk =   0.0640000
        k(   30) = (   0.2000000   0.2000000   0.6206897), wk =   0.0640000
        k(   31) = (   0.2000000   0.4000000   0.0000000), wk =   0.0640000
        k(   32) = (   0.2000000   0.4000000   0.3103448), wk =   0.1280000
        k(   33) = (   0.2000000   0.4000000   0.6206897), wk =   0.1280000
        k(   34) = (   0.4000000   0.4000000   0.0000000), wk =   0.0320000
        k(   35) = (   0.4000000   0.4000000   0.3103448), wk =   0.0640000
        k(   36) = (   0.4000000   0.4000000   0.6206897), wk =   0.0640000

     Dense  grid:    79867 G-vectors     FFT dimensions: (  64,  64,  40)

     Smooth grid:    14491 G-vectors     FFT dimensions: (  36,  36,  24)

     Largest allocated arrays     est. size (Mb)     dimensions
        Kohn-Sham Wavefunctions         0.54 Mb     (    450,   78)
        NL pseudopotentials             0.60 Mb     (    450,   88)
        Each V/rho on FFT grid          1.25 Mb     (  40960,   2)
        Each G-vector array             0.15 Mb     (  19967)
        G-vector shells                 0.15 Mb     (  19967)
     Largest temporary arrays     est. size (Mb)     dimensions
        Auxiliary wavefunctions         2.14 Mb     (    450,  312)
        Each subspace H/S matrix        1.49 Mb     ( 312, 312)
        Each <psi_i|beta_j> matrix      0.10 Mb     (     88,   78)
        Arrays for rho mixing           5.00 Mb     (  40960,   8)

     Check: negative/imaginary core charge=   -0.000008    0.000000

     Initial potential from superposition of free atoms

     starting charge   51.99787, renormalised to   52.00000
     Starting wfc are   42 randomized atomic wfcs

     total cpu time spent up to now is       10.7 secs

     per-process dynamical memory:    46.6 Mb

     Self-consistent Calculation

     iteration #  1     ecut=    40.00 Ry     beta=0.30
     Davidson diagonalization with overlap
     ethr =  1.00E-02,  avg # of iterations =  5.4

     negative rho (up, down):  0.000E+00 0.185E-03

     total cpu time spent up to now is       57.4 secs

     total energy              =    -406.87817335 Ry
     Harris-Foulkes estimate   =    -407.06870893 Ry
     estimated scf accuracy    <       2.45870124 Ry

     total magnetization       =     4.00 Bohr mag/cell
     absolute magnetization    =     4.91 Bohr mag/cell

     iteration #  2     ecut=    40.00 Ry     beta=0.30
     Davidson diagonalization with overlap
     ethr =  4.73E-03,  avg # of iterations =  1.0

     negative rho (up, down):  0.000E+00 0.590E-03

     total cpu time spent up to now is       74.3 secs

     total energy              =    -407.43592335 Ry
     Harris-Foulkes estimate   =    -407.17922551 Ry
     estimated scf accuracy    <       0.44219012 Ry

     total magnetization       =     4.00 Bohr mag/cell
     absolute magnetization    =     5.08 Bohr mag/cell

     iteration #  3     ecut=    40.00 Ry     beta=0.30
     Davidson diagonalization with overlap
     ethr =  8.50E-04,  avg # of iterations =  1.0

     negative rho (up, down):  0.000E+00 0.216E-02

     total cpu time spent up to now is       91.5 secs

     total energy              =    -407.68182750 Ry
     Harris-Foulkes estimate   =    -407.44385635 Ry
     estimated scf accuracy    <       0.21135668 Ry

     total magnetization       =     4.00 Bohr mag/cell
     absolute magnetization    =     4.70 Bohr mag/cell

     iteration #  4     ecut=    40.00 Ry     beta=0.30
     Davidson diagonalization with overlap
     ethr =  4.06E-04,  avg # of iterations =  1.1

     negative rho (up, down):  0.000E+00 0.187E-02

     total cpu time spent up to now is      108.5 secs

     total energy              =    -407.71028487 Ry
     Harris-Foulkes estimate   =    -407.70389382 Ry
     estimated scf accuracy    <       0.01560728 Ry

     total magnetization       =     3.43 Bohr mag/cell
     absolute magnetization    =     3.56 Bohr mag/cell

     iteration #  5     ecut=    40.00 Ry     beta=0.30
     Davidson diagonalization with overlap
     ethr =  3.00E-05,  avg # of iterations =  2.8

     negative rho (up, down):  0.000E+00 0.113E-02

     total cpu time spent up to now is      128.7 secs

     total energy              =    -407.71962643 Ry
     Harris-Foulkes estimate   =    -407.71681144 Ry
     estimated scf accuracy    <       0.00357030 Ry

     total magnetization       =     2.82 Bohr mag/cell
     absolute magnetization    =     2.86 Bohr mag/cell

     iteration #  6     ecut=    40.00 Ry     beta=0.30
     Davidson diagonalization with overlap
     ethr =  6.87E-06,  avg # of iterations =  1.9

     negative rho (up, down):  0.000E+00 0.659E-03

     total cpu time spent up to now is      146.9 secs

     total energy              =    -407.72346764 Ry
     Harris-Foulkes estimate   =    -407.72150173 Ry
     estimated scf accuracy    <       0.00300094 Ry

     total magnetization       =     2.54 Bohr mag/cell
     absolute magnetization    =     2.56 Bohr mag/cell

     iteration #  7     ecut=    40.00 Ry     beta=0.30
     Davidson diagonalization with overlap
     ethr =  5.77E-06,  avg # of iterations =  2.5

     negative rho (up, down):  0.000E+00 0.617E-03

     total cpu time spent up to now is      165.4 secs

     total energy              =    -407.72664847 Ry
     Harris-Foulkes estimate   =    -407.72614959 Ry
     estimated scf accuracy    <       0.00042698 Ry

     total magnetization       =     2.15 Bohr mag/cell
     absolute magnetization    =     2.16 Bohr mag/cell

     iteration #  8     ecut=    40.00 Ry     beta=0.30
     Davidson diagonalization with overlap
     ethr =  8.21E-07,  avg # of iterations =  1.6

     negative rho (up, down):  0.000E+00 0.271E-03

     total cpu time spent up to now is      182.2 secs

     total energy              =    -407.72655514 Ry
     Harris-Foulkes estimate   =    -407.72675732 Ry
     estimated scf accuracy    <       0.00034076 Ry

     total magnetization       =     2.06 Bohr mag/cell
     absolute magnetization    =     2.07 Bohr mag/cell

     iteration #  9     ecut=    40.00 Ry     beta=0.30
     Davidson diagonalization with overlap
     ethr =  6.55E-07,  avg # of iterations =  2.9

     negative rho (up, down):  0.000E+00 0.271E-03

     total cpu time spent up to now is      206.1 secs

     total energy              =    -407.72925781 Ry
     Harris-Foulkes estimate   =    -407.72925902 Ry
     estimated scf accuracy    <       0.00039464 Ry

     total magnetization       =     1.60 Bohr mag/cell
     absolute magnetization    =     1.61 Bohr mag/cell

     iteration # 10     ecut=    40.00 Ry     beta=0.30
     Davidson diagonalization with overlap
     ethr =  6.55E-07,  avg # of iterations =  1.0

     negative rho (up, down):  0.000E+00 0.197E-03

     total cpu time spent up to now is      221.8 secs

     total energy              =    -407.72943246 Ry
     Harris-Foulkes estimate   =    -407.72925810 Ry
     estimated scf accuracy    <       0.00039244 Ry

     total magnetization       =     1.60 Bohr mag/cell
     absolute magnetization    =     1.61 Bohr mag/cell

     iteration # 11     ecut=    40.00 Ry     beta=0.30
     Davidson diagonalization with overlap
     ethr =  6.55E-07,  avg # of iterations =  1.0

     negative rho (up, down):  0.000E+00 0.101E-03

     total cpu time spent up to now is      237.7 secs

     total energy              =    -407.72937774 Ry
     Harris-Foulkes estimate   =    -407.72951127 Ry
     estimated scf accuracy    <       0.00029887 Ry

     total magnetization       =     1.53 Bohr mag/cell
     absolute magnetization    =     1.54 Bohr mag/cell

     iteration # 12     ecut=    40.00 Ry     beta=0.30
     Davidson diagonalization with overlap
     ethr =  5.75E-07,  avg # of iterations =  2.0

     negative rho (up, down):  0.000E+00 0.104E-03

     total cpu time spent up to now is      256.2 secs

     total energy              =    -407.72972297 Ry
     Harris-Foulkes estimate   =    -407.72973160 Ry
     estimated scf accuracy    <       0.00004436 Ry

     total magnetization       =     1.38 Bohr mag/cell
     absolute magnetization    =     1.39 Bohr mag/cell

     iteration # 13     ecut=    40.00 Ry     beta=0.30
     Davidson diagonalization with overlap
     ethr =  8.53E-08,  avg # of iterations =  1.0

     negative rho (up, down):  0.000E+00 0.112E-03

     total cpu time spent up to now is      272.0 secs

     total energy              =    -407.72972392 Ry
     Harris-Foulkes estimate   =    -407.72972789 Ry
     estimated scf accuracy    <       0.00000455 Ry

     total magnetization       =     1.38 Bohr mag/cell
     absolute magnetization    =     1.39 Bohr mag/cell

     iteration # 14     ecut=    40.00 Ry     beta=0.30
     Davidson diagonalization with overlap
     ethr =  8.75E-09,  avg # of iterations =  2.0

     negative rho (up, down):  0.000E+00 0.104E-03

     total cpu time spent up to now is      290.2 secs

     total energy              =    -407.72971879 Ry
     Harris-Foulkes estimate   =    -407.72972876 Ry
     estimated scf accuracy    <       0.00000224 Ry

     total magnetization       =     1.40 Bohr mag/cell
     absolute magnetization    =     1.40 Bohr mag/cell

     iteration # 15     ecut=    40.00 Ry     beta=0.30
     Davidson diagonalization with overlap
     ethr =  4.31E-09,  avg # of iterations =  2.0

     negative rho (up, down):  0.000E+00 0.104E-03

     total cpu time spent up to now is      309.7 secs

     total energy              =    -407.72973704 Ry
     Harris-Foulkes estimate   =    -407.72973723 Ry
     estimated scf accuracy    <       0.00000107 Ry

     total magnetization       =     1.36 Bohr mag/cell
     absolute magnetization    =     1.36 Bohr mag/cell

     iteration # 16     ecut=    40.00 Ry     beta=0.30
     Davidson diagonalization with overlap
     ethr =  2.05E-09,  avg # of iterations =  1.7

     negative rho (up, down):  0.000E+00 0.103E-03

     total cpu time spent up to now is      326.9 secs

     End of self-consistent calculation

 ------ SPIN UP ------------


          k = 0.0000 0.0000 0.0000 (  1843 PWs)   bands (ev):

   -47.8059 -47.7849 -22.0696 -22.0696 -21.9779 -21.9221 -21.8322 -21.8322
    -6.5223  -5.7350  -4.3551  -4.3551   5.2028   5.3738   6.3024   7.0350
     7.0350   9.3595   9.3595   9.9103  10.8820  11.0223  11.0223  11.6431
    13.4231  13.8590  14.2385  14.2385  14.3372  17.6602  17.7102  19.5071
    20.7029  20.7029  22.1970  23.3448  23.3448  26.8555  28.8841  29.5820
    29.9978  30.2634  31.4146  31.4146  33.9459  34.0897  34.8013  34.8013
    35.7244  35.7244  37.0511  40.6802  40.6802  40.9522  41.5124  41.7801
    43.6288  44.5204  44.5204  45.0046  45.1812  45.1837  45.1837  45.2552
    46.5315  47.2199  47.2199  47.8554  49.3620  51.4947  51.7594  51.7594
    52.3016  52.9386  52.9452  52.9452  53.9039  54.2132

          k = 0.0000 0.0000 0.3103 (  1823 PWs)   bands (ev):

   -47.7845 -47.7674 -22.2228 -22.1801 -22.0135 -22.0135 -21.8142 -21.8142
    -6.0341  -5.3699  -4.7261  -4.7261   5.7937   6.1035   6.7838   7.0408
     7.0408   8.7393   9.4558   9.7916   9.7916  10.2930  10.2930  11.4092
    14.0578  14.2742  14.4743  14.8529  14.8529  17.1540  18.4150  20.1075
    20.1075  20.3348  21.8661  25.0558  25.0558  27.0890  27.8680  29.3600
    29.4942  29.8974  30.7872  30.7872  32.0929  35.4481  35.5266  35.5266
    35.9272  35.9272  38.5323  39.8726  39.9454  40.0773  40.4911  40.4911
    40.7541  41.8967  42.0144  42.0144  46.7613  46.7613  46.8635  47.8849
    48.2883  48.6642  48.6642  49.0694  50.0318  50.6336  51.0155  51.0155
    51.9231  52.6447  52.6447  54.3203  55.0941  55.4972

          k = 0.0000 0.0000 0.6207 (  1796 PWs)   bands (ev):

   -47.7476 -47.7411 -22.5942 -22.5792 -21.9197 -21.9197 -21.7858 -21.7858
    -5.2905  -5.2905  -5.1466  -4.8725   6.6670   6.9284   7.3716   7.3716
     7.8557   8.1397   8.1678   8.9291   8.9291  10.0108  10.4308  10.4308
    14.5125  14.9766  15.5800  15.7095  15.7095  15.8339  19.1831  19.5019
    20.0004  20.0004  23.4408  25.5496  27.4314  27.4314  27.7531  28.5843
    29.4891  29.4891  29.5371  29.6308  30.5759  32.1719  35.4297  35.4297
    37.0773  37.0773  38.1123  38.8849  39.0316  39.2972  40.4678  40.4678
    40.7662  42.4080  42.4080  44.4375  46.4816  46.4816  46.4876  48.5025
    48.5025  48.9308  48.9308  48.9584  49.5662  49.6332  50.7882  52.2062
    52.2062  53.1748  53.3717  54.4463  54.9283  54.9283

          k = 0.0000 0.2000 0.0000 (  1811 PWs)   bands (ev):

   -47.8038 -47.7868 -22.0490 -22.0473 -21.9725 -21.9274 -21.8570 -21.8552
    -6.3679  -5.6732  -4.5382  -4.4761   5.4899   5.6737   6.5865   7.0660
     7.0758   8.9578   9.1044   9.8348  10.2783  10.5892  10.7230  11.4974
    13.7595  14.2227  14.4905  14.5511  14.7416  17.3647  18.0477  20.0399
    20.4883  20.5160  21.7517  23.2817  23.6782  26.7513  28.3857  28.6442
    29.7097  30.7089  31.4700  32.3430  33.7852  34.0742  34.1668  34.3199
    35.9130  36.5880  38.3606  39.3417  40.6990  40.7360  41.6235  42.3948
    43.3318  43.6341  44.2579  44.7973  45.1634  45.6446  46.2857  46.8166
    46.9362  47.4574  47.9327  48.4077  49.3654  50.2996  51.3731  51.4345
    51.9359  51.9746  52.3783  52.4428  53.0605  53.3110

          k = 0.0000 0.2000 0.3103 (  1813 PWs)   bands (ev):

   -47.7828 -47.7690 -22.2238 -22.1884 -21.9939 -21.9922 -21.8319 -21.8310
    -5.9152  -5.3183  -4.8582  -4.7987   6.0309   6.2634   6.7942   7.0385
     7.4164   8.5081   8.7787   9.7318   9.7800  10.1902  10.2188  11.2759
    14.0225  14.6706  14.6985  14.8230  15.2262  16.9106  18.6480  19.4431
    19.8957  21.2146  21.6193  24.6281  25.2692  27.3118  27.8953  28.5888
    29.3771  29.7735  30.1405  31.9856  32.5967  34.4689  35.3169  35.4908
    35.8044  36.4854  39.0118  39.1533  39.3682  39.6554  40.2788  41.0395
    41.8615  42.1413  42.6785  43.6153  46.6689  46.9513  46.9696  47.4918
    48.2688  48.5373  48.9105  48.9710  50.3079  50.6572  50.7096  50.9465
    51.1845  52.0185  52.9481  53.7479  54.3847  55.0101

          k = 0.0000 0.2000 0.6207 (  1794 PWs)   bands (ev):

   -47.7469 -47.7416 -22.5967 -22.5844 -21.9128 -21.9120 -21.7897 -21.7890
    -5.5446  -5.4860  -4.8450  -4.6793   6.5187   6.6654   7.0088   7.3659
     7.9280   8.1964   8.7421   9.0835   9.3169  10.1669  10.2194  10.3234
    14.0599  14.9522  15.1547  15.5833  15.9850  16.2171  18.8716  19.0300
    20.2743  20.7718  23.3754  25.1025  26.7601  27.4854  27.8061  28.2720
    28.9522  29.3501  29.9354  30.3301  31.5841  32.2003  34.9939  35.2015
    36.3945  37.0247  38.2244  38.3806  39.5659  39.8185  40.6078  41.2443
    41.9558  42.2310  42.2649  45.1058  46.4791  46.8162  47.0092  47.3106
    48.2656  48.3173  48.6239  49.4374  49.8691  50.0820  50.5267  51.7023
    51.9689  53.0819  53.3047  54.4926  55.2745  55.5180

          k = 0.0000 0.4000 0.0000 (  1820 PWs)   bands (ev):

   -47.7986 -47.7921 -21.9936 -21.9890 -21.9586 -21.9413 -21.9195 -21.9148
    -5.9733  -5.6327  -4.8441  -4.7427   6.1417   6.2525   7.1265   7.1372
     7.4592   8.2451   8.3466   8.8447   9.8072  10.0847  10.7161  11.0946
    14.2807  14.5041  14.9390  14.9951  15.6002  16.5525  19.1555  20.1403
    20.1707  20.5624  21.2996  22.5773  24.7018  26.1368  27.8352  27.9752
    29.6900  30.9899  31.5324  31.9461  32.1991  33.4613  35.1858  36.2636
    36.4325  37.6766  38.5757  39.4585  40.6036  40.7168  40.8208  40.8886
    43.1759  43.4874  44.3781  45.0591  45.8527  46.1498  46.6116  47.0157
    48.2131  48.2457  49.1081  49.3991  49.4950  49.6171  50.8182  50.8896
    51.0999  51.5467  51.8511  52.1044  52.6653  52.8379

          k = 0.0000 0.4000 0.3103 (  1808 PWs)   bands (ev):

   -47.7785 -47.7732 -22.2198 -22.2059 -21.9470 -21.9438 -21.8760 -21.8736
    -5.5991  -5.2029  -5.1670  -4.9761   6.5842   6.6196   6.9823   7.0103
     7.8112   8.0078   8.5653   9.1547   9.1645   9.6480  10.6773  11.0004
    14.3721  14.6887  15.1123  15.2193  15.8053  16.3382  18.9093  18.9318
    19.9160  20.7816  22.4898  23.6469  26.0282  27.2049  27.8439  28.1224
    29.0199  29.1558  30.2730  31.7016  33.4202  34.4784  35.2582  35.6917
    35.9247  36.9958  38.2146  38.4135  39.3944  39.5478  40.7062  40.9024
    42.4372  43.7757  44.1917  44.9656  45.8443  46.4542  47.1822  47.5089
    48.2156  48.6346  48.8583  49.0439  49.9957  50.3003  50.6182  50.6719
    51.7929  52.4652  52.9557  53.7203  54.0235  54.8369

          k = 0.0000 0.4000 0.6207 (  1805 PWs)   bands (ev):

   -47.7453 -47.7433 -22.5991 -22.5944 -21.9003 -21.8994 -21.7963 -21.7954
    -5.7123  -5.6870  -4.5718  -4.5098   6.3271   6.3285   6.8612   6.9789
     8.3390   8.7465   8.8479   9.5241   9.6341   9.7643  10.1380  10.6824
    13.5640  14.0230  15.4376  15.5815  16.2748  16.3463  18.5097  18.6731
    20.8987  21.2635  23.5405  24.2411  26.5815  26.9768  27.4946  27.6972
    28.8327  29.5229  30.6559  31.0923  32.0530  32.2625  34.3408  34.7119
    36.7633  37.0825  38.2322  38.2993  39.8046  39.9757  41.2960  41.5173
    42.4574  42.5015  44.7640  44.9523  45.1052  46.0001  47.2011  47.2249
    48.1822  48.2968  48.7604  49.4282  49.8627  49.8779  51.1356  51.9594
    52.8031  53.0886  53.6455  54.0274  54.4245  54.8259

          k = 0.2000 0.2000 0.0000 (  1808 PWs)   bands (ev):

   -47.8022 -47.7884 -22.0765 -21.9851 -21.9682 -21.9316 -21.9226 -21.8276
    -6.2824  -5.6223  -4.7861  -4.3944   5.2891   6.2417   6.8423   7.0105
     7.1413   8.3377   9.2826   9.7908  10.0427  10.5516  10.5584  11.3707
    13.5486  14.2512  14.4716  14.9670  15.0937  17.1588  18.2241  20.1570
    20.6629  20.6970  21.3124  23.4837  23.7186  26.5257  27.5601  28.0848
    29.7666  31.1534  31.3050  33.8124  33.9293  34.0825  34.5673  34.8039
    35.0067  36.2854  38.2140  38.6060  40.1797  41.2134  41.3715  41.5782
    43.1884  44.2360  44.3454  45.8186  45.8637  46.4337  46.5465  47.0397
    47.1044  47.3055  47.9564  49.4951  49.6776  49.6793  50.0285  51.1806
    51.2736  51.5561  52.3339  52.9227  53.6802  53.7169

          k = 0.2000 0.2000 0.3103 (  1815 PWs)   bands (ev):

   -47.7815 -47.7703 -22.2217 -22.1925 -22.0193 -21.9413 -21.8782 -21.8107
    -5.8381  -5.2512  -5.0514  -4.7606   5.9423   6.5948   6.7073   7.1871
     7.5926   8.1137   9.1040   9.2020   9.6604  10.2490  10.4055  11.1040
    14.0496  14.3197  14.8228  15.3089  15.3433  16.7135  18.7279  19.1657
    20.0759  21.1995  21.8271  24.5641  25.0808  27.2953  27.6496  27.9341
    29.4137  29.6024  31.2442  31.6210  32.9181  34.1379  34.7705  35.8375
    36.0148  36.8085  38.5942  38.9077  39.4649  39.5452  40.8828  41.2861
    41.7459  42.6170  43.9598  44.0420  46.2108  46.3991  46.8889  47.4380
    48.2038  48.6945  48.9837  49.6505  50.1903  50.3982  50.6308  50.9899
    51.1551  51.7010  52.2104  52.8463  54.9705  55.1903

          k = 0.2000 0.2000 0.6207 (  1802 PWs)   bands (ev):

   -47.7464 -47.7421 -22.5979 -22.5853 -21.9219 -21.8991 -21.7960 -21.7857
    -5.7015  -5.3191  -4.9844  -4.5308   6.3894   6.7730   6.9479   7.1816
     7.6135   8.7338   8.8941   9.0454   9.5156   9.8419  10.3265  10.5554
    13.8372  15.1765  15.1800  15.3281  15.6601  16.4641  18.4798  19.5942
    19.9694  21.0460  23.3592  25.0370  25.6470  27.2435  27.6203  28.1965
    29.4859  29.5577  29.8646  30.9114  31.8086  32.5502  34.3477  35.0788
    36.2414  36.8806  37.5621  39.5206  39.9146  40.6603  41.1097  41.6744
    42.0184  42.1238  42.9387  45.3864  45.9581  46.5672  47.0515  47.4796
    47.6171  48.2937  48.5847  49.0191  49.7091  50.1320  50.6274  51.6682
    51.6934  52.7247  53.8989  53.9001  54.7372  54.8498

          k = 0.2000 0.4000 0.0000 (  1810 PWs)   bands (ev):

   -47.7979 -47.7926 -22.0591 -22.0012 -21.9568 -21.9429 -21.9083 -21.8482
    -6.0376  -5.7225  -4.8194  -4.5563   5.5843   6.2203   7.0367   7.1180
     7.5953   8.3290   8.7530   9.5069   9.9175  10.2772  10.3493  10.8816
    13.9101  14.3953  14.5352  14.9751  15.8158  16.5759  19.0599  20.1522
    20.2584  20.4948  21.8197  22.9118  24.6741  25.9897  26.8359  27.1418
    30.0049  30.7987  32.3832  33.3142  33.4612  33.7731  35.0664  36.1122
    36.2321  36.6990  37.7804  38.6760  39.6807  39.7241  40.3792  41.8055
    43.2977  43.5133  44.9907  45.6484  46.1726  46.2550  47.4425  47.7338
    48.1365  48.3351  48.7293  49.7855  49.9271  50.1038  50.2325  50.7328
    51.3752  51.4662  51.9270  52.6067  52.7717  53.8375

          k = 0.2000 0.4000 0.3103 (  1806 PWs)   bands (ev):

   -47.7780 -47.7737 -22.2152 -22.2037 -22.0018 -21.9521 -21.8690 -21.8256
    -5.6306  -5.3466  -5.0723  -4.8695   6.1635   6.6204   6.7824   6.9825
     8.0217   8.2656   8.8224   9.2598   9.4569   9.9103  10.4062  10.7410
    14.3783  14.5691  14.8181  15.2453  15.7313  16.2263  18.9418  19.3472
    19.9533  20.5882  22.7635  23.7374  25.6917  26.8002  27.3562  27.4646
    29.4219  29.5088  31.0729  31.7676  33.1494  33.7709  35.2278  36.3726
    36.4545  37.0267  38.2575  38.3662  39.6320  40.1370  40.6195  41.2973
    42.4277  43.2741  44.3065  44.9534  45.8624  46.6947  46.9168  47.5430
    47.7857  48.6739  49.0510  49.2942  49.5119  50.3025  50.3730  50.7542
    51.7336  52.1021  52.7359  53.0191  53.5231  54.2751

          k = 0.2000 0.4000 0.6207 (  1809 PWs)   bands (ev):

   -47.7451 -47.7434 -22.5965 -22.5903 -21.9155 -21.9011 -21.7956 -21.7890
    -5.7041  -5.5265  -4.7450  -4.5298   6.3027   6.4853   6.9308   7.1967
     7.7830   8.5054   9.0209   9.2948   9.5804  10.0308  10.4015  10.8131
    13.7116  14.2994  15.3763  15.5239  15.8374  16.2907  18.5664  19.1121
    20.5764  21.0890  23.5421  24.2322  25.4551  26.2334  27.5752  28.1662
    29.3460  29.4713  30.5942  31.3219  32.0403  32.8930  33.9462  34.7185
    36.9444  37.2739  37.7408  39.0667  40.5401  40.8885  41.6186  41.7479
    42.7522  43.4842  44.4584  45.0322  45.1707  45.9788  46.7963  47.1792
    47.5852  47.9244  48.1891  48.8455  49.8541  50.6616  50.8416  51.2835
    51.6055  52.1316  53.1526  53.4009  54.3727  54.9554

          k = 0.4000 0.4000 0.0000 (  1810 PWs)   bands (ev):

   -47.7963 -47.7942 -22.0879 -22.0660 -21.9524 -21.9470 -21.8433 -21.8201
    -6.0613  -5.9350  -4.5908  -4.4556   5.3088   5.5969   6.9709   7.0160
     8.2099   8.8569   9.1320   9.6922  10.0722  10.2426  10.4487  10.7009
    13.5014  13.8913  14.2733  14.5475  16.2190  16.5011  19.2356  19.6954
    20.4900  20.6881  22.6613  23.1762  24.8958  25.6929  25.8493  26.1225
    30.3713  30.7645  33.6118  34.3609  34.9509  34.9576  35.2925  35.3501
    35.7842  35.8812  36.5305  37.6592  38.7000  39.8620  40.4925  41.8436
    42.6994  43.5759  44.2272  44.8719  46.1144  47.0715  48.0559  48.0833
    48.2922  48.4003  49.5916  50.0299  50.3899  50.6710  50.8995  51.1948
    51.4849  51.9603  52.5064  52.7496  53.1339  53.3969

          k = 0.4000 0.4000 0.3103 (  1807 PWs)   bands (ev):

   -47.7766 -47.7750 -22.2059 -22.2009 -22.0286 -22.0071 -21.8219 -21.8051
    -5.6300  -5.5302  -4.9021  -4.8144   5.9677   6.1749   6.6827   6.7785
     8.6923   8.7998   9.1278   9.4528   9.8361   9.9479   9.9988  10.3565
    14.2920  14.5442  14.6240  14.8133  15.7612  15.9658  19.4489  19.7059
    20.0193  20.1894  23.2728  23.6989  25.4448  25.9834  27.0955  27.1931
    29.2958  29.3784  31.4863  31.9062  33.0107  33.8895  35.6328  36.7696
    36.8787  37.0586  38.4858  38.9154  40.0001  40.5737  41.1056  41.7045
    42.6414  42.7162  44.1485  44.2389  45.8260  46.6105  47.0508  47.1464
    47.6694  47.7185  48.1774  48.8303  49.1836  50.4362  50.6572  51.0806
    51.6870  51.8714  53.3015  53.4071  53.9566  54.3275

          k = 0.4000 0.4000 0.6207 (  1799 PWs)   bands (ev):

   -47.7445 -47.7439 -22.5895 -22.5861 -21.9255 -21.9174 -21.7888 -21.7855
    -5.5378  -5.3642  -4.9186  -4.7240   6.4360   6.6833   7.1380   7.2396
     7.5501   7.9287   8.8506   9.0637   9.8876  10.1128  10.7838  10.9587
    14.1866  14.8102  15.1559  15.3573  15.4321  15.7932  19.0772  19.8005
    19.9015  20.5696  23.4739  23.7710  25.3373  26.1592  26.6445  27.4965
    29.3196  29.4791  31.3035  31.5477  32.5546  33.0705  34.1999  34.6571
    37.8312  37.8485  37.9376  39.1193  41.0387  41.1229  42.6923  43.1105
    43.3783  44.0528  45.0160  45.0713  45.8120  45.8871  46.5045  46.6440
    47.1550  47.1628  47.8266  47.9267  48.9353  48.9886  49.3165  51.2620
    51.8019  52.1985  52.3894  53.3878  53.5056  53.7607

 ------ SPIN DOWN ----------


          k = 0.0000 0.0000 0.0000 (  1843 PWs)   bands (ev):

   -47.3996 -47.3782 -21.6828 -21.6828 -21.4437 -21.4127 -21.4127 -21.3867
    -6.4669  -5.6836  -4.3069  -4.3069   5.3426   5.5608   6.4191   7.1760
     7.1760   9.4247   9.4247   9.9670  10.9287  11.0674  11.0674  11.6968
    13.9473  14.2560  14.7021  15.0390  15.0390  17.9672  18.0079  19.6633
    20.9724  20.9724  22.4077  23.5305  23.5305  26.9192  29.0806  29.7853
    30.2671  30.3790  31.5929  31.5929  34.2864  34.3634  35.1369  35.1369
    35.9550  35.9550  37.1095  40.8485  40.8485  41.0959  41.8771  41.9152
    43.7137  44.6324  44.6324  45.2992  45.2992  45.3924  45.3933  45.4494
    46.7929  47.3947  47.3947  47.9122  49.6490  51.8103  51.9620  51.9620
    52.6873  53.1633  53.1633  53.2621  54.0035  54.3779

          k = 0.0000 0.0000 0.3103 (  1823 PWs)   bands (ev):

   -47.3781 -47.3608 -21.6958 -21.6522 -21.6166 -21.6166 -21.4033 -21.4033
    -5.9747  -5.3140  -4.6756  -4.6756   5.9255   6.2772   6.8982   7.1875
     7.1875   8.8274   9.5643   9.8930   9.8930  10.4017  10.4017  11.4459
    14.4374  14.6661  14.9738  15.4989  15.4989  17.4522  18.7295  20.4023
    20.4023  20.4862  22.0665  25.2506  25.2506  27.1556  28.0378  29.5589
    29.5880  30.2061  30.9559  30.9559  32.4722  35.5846  35.7481  35.7481
    36.2712  36.2712  38.8151  40.0200  40.0799  40.2585  40.6405  40.6405
    41.0687  42.1401  42.2022  42.2022  46.9576  46.9576  47.0914  47.9570
    48.5595  48.7609  48.7609  49.2919  50.2093  50.9566  51.1881  51.1881
    52.0956  52.8372  52.8372  54.5377  55.2537  55.7078

          k = 0.0000 0.0000 0.6207 (  1796 PWs)   bands (ev):

   -47.3411 -47.3345 -22.0770 -22.0618 -21.4866 -21.4866 -21.4087 -21.4087
    -5.2374  -5.2374  -5.0834  -4.8106   6.7933   7.0744   7.5792   7.5792
     7.9490   8.2443   8.2764   9.0724   9.0724  10.0863  10.4912  10.4912
    14.8491  15.4240  16.1069  16.1398  16.2836  16.2836  19.5137  19.7523
    20.2741  20.2741  23.5592  25.6918  27.6367  27.6367  27.8238  28.6607
    29.6633  29.6633  29.8229  29.8769  30.8820  32.4132  35.6247  35.6247
    37.2508  37.2508  38.3262  39.0905  39.1807  39.5434  40.7834  40.7834
    41.0327  42.7825  42.7825  44.6137  46.6098  46.6561  46.6561  48.6757
    48.6757  49.0530  49.0969  49.0969  49.9663  50.0324  50.9004  52.4540
    52.4540  53.2516  53.5617  54.6579  55.1156  55.1156

          k = 0.0000 0.2000 0.0000 (  1811 PWs)   bands (ev):

   -47.3975 -47.3802 -21.6641 -21.6626 -21.4382 -21.4356 -21.4339 -21.3921
    -6.3125  -5.6215  -4.4886  -4.4272   5.6294   5.8572   6.7021   7.2027
     7.2116   9.0458   9.1851   9.9208  10.3619  10.6784  10.7766  11.5467
    14.2507  14.6253  15.0863  15.2745  15.3233  17.6646  18.3283  20.1856
    20.7492  20.7771  21.9640  23.4418  23.8724  26.8573  28.5643  28.8377
    30.0072  30.8264  31.6237  32.6055  33.9439  34.2609  34.3909  34.7319
    36.1885  36.8546  38.6099  39.4814  40.8775  40.8801  41.9043  42.5921
    43.4231  43.7769  44.3775  45.0740  45.3303  45.8100  46.4277  47.0868
    47.2045  47.5605  48.0909  48.5333  49.6449  50.5853  51.5678  51.6154
    52.0797  52.1952  52.6045  52.8143  53.1823  53.6189

          k = 0.0000 0.2000 0.3103 (  1813 PWs)   bands (ev):

   -47.3764 -47.3624 -21.7016 -21.6628 -21.5984 -21.5923 -21.4190 -21.4167
    -5.8564  -5.2627  -4.8065  -4.7475   6.1621   6.4290   6.9254   7.1840
     7.5484   8.6217   8.9128   9.8057   9.8510  10.3162  10.3397  11.3216
    14.4830  15.0650  15.1730  15.4773  15.8041  17.2263  18.9456  19.7026
    20.1732  21.4068  21.8016  24.7738  25.4691  27.4290  28.0788  28.7681
    29.4822  30.0788  30.3007  32.2982  32.8313  34.7575  35.5014  35.7835
    36.0279  36.7012  39.2508  39.4201  39.5596  39.7991  40.5111  41.2819
    42.0804  42.2602  42.8647  43.7861  46.8011  47.1424  47.1720  47.7072
    48.4408  48.7878  49.0454  49.1899  50.5430  50.8431  50.9079  51.1273
    51.3827  52.1926  53.1339  53.9754  54.5623  55.2263

          k = 0.0000 0.2000 0.6207 (  1794 PWs)   bands (ev):

   -47.3404 -47.3350 -22.0804 -22.0679 -21.4784 -21.4761 -21.4143 -21.4122
    -5.4897  -5.4322  -4.7840  -4.6183   6.6788   6.8466   7.1523   7.5346
     8.0395   8.2998   8.8440   9.2245   9.4428  10.2342  10.2953  10.3927
    14.4672  15.3866  15.6193  16.1106  16.5089  16.6719  19.1467  19.3536
    20.5383  21.0208  23.4915  25.2373  26.8731  27.6791  27.9200  28.4486
    29.1418  29.5339  30.1951  30.6057  31.8108  32.4592  35.2157  35.4147
    36.6183  37.2201  38.4097  38.5602  39.7901  39.9831  40.8943  41.5220
    42.3413  42.5089  42.5774  45.2785  46.6405  47.0169  47.1348  47.4602
    48.4584  48.5624  48.7748  49.7408  50.0281  50.4176  50.7016  51.9565
    52.1997  53.2142  53.5173  54.7066  55.4837  55.6778

          k = 0.0000 0.4000 0.0000 (  1820 PWs)   bands (ev):

   -47.3922 -47.3856 -21.6212 -21.6186 -21.4840 -21.4812 -21.4240 -21.4064
    -5.9183  -5.5797  -4.7930  -4.6924   6.2859   6.4202   7.2546   7.2642
     7.5756   8.3564   8.4513   8.9573   9.9374  10.2193  10.7664  11.1438
    14.7388  14.9374  15.7042  15.7526  15.9227  16.8600  19.3932  20.3818
    20.4129  20.7750  21.4307  22.7005  24.9163  26.3535  27.9661  28.1291
    29.9973  31.2984  31.6754  32.0683  32.3403  33.6039  35.5768  36.5953
    36.6036  37.9048  38.8263  39.6299  40.8043  40.8686  41.0573  41.0849
    43.3764  43.6284  44.5293  45.3151  46.0198  46.2890  46.7671  47.2153
    48.3847  48.4714  49.3846  49.5212  49.6267  49.8954  51.0205  51.0971
    51.3107  51.7790  52.1493  52.2686  53.0169  53.0319

          k = 0.0000 0.4000 0.3103 (  1808 PWs)   bands (ev):

   -47.3721 -47.3667 -21.7000 -21.6835 -21.5599 -21.5525 -21.4522 -21.4478
    -5.5418  -5.1466  -5.1142  -4.9233   6.7123   6.7627   7.1306   7.1588
     7.9371   8.1505   8.7019   9.2449   9.2575   9.7687  10.7619  11.0682
    14.9230  15.3065  15.5302  15.6479  16.3238  16.7283  19.1803  19.1837
    20.1481  20.9981  22.6226  23.7658  26.2425  27.4302  27.9817  28.2895
    29.1408  29.3001  30.5645  32.0069  33.7251  34.7944  35.4699  35.8685
    36.1223  37.2302  38.4174  38.6150  39.5800  39.7801  40.8853  41.0635
    42.6747  44.0089  44.3524  45.1796  46.0083  46.6703  47.3725  47.7212
    48.4363  48.8538  49.0344  49.2434  50.1802  50.4345  50.8516  50.9508
    52.0005  52.6434  53.1306  53.9630  54.2180  55.0567

          k = 0.0000 0.4000 0.6207 (  1805 PWs)   bands (ev):

   -47.3388 -47.3367 -22.0841 -22.0793 -21.4598 -21.4555 -21.4274 -21.4232
    -5.6586  -5.6336  -4.5105  -4.4487   6.5172   6.5216   6.9963   7.1156
     8.4379   8.8410   8.9415   9.5973   9.7555   9.8460  10.2477  10.7255
    14.0552  14.4926  15.9245  16.0944  16.7638  16.8152  18.8050  18.9876
    21.1381  21.4972  23.6565  24.3616  26.6958  27.0983  27.6589  27.8627
    29.0438  29.7375  30.8788  31.3598  32.3618  32.5131  34.5652  34.9278
    37.0140  37.3157  38.4729  38.5368  39.9987  40.1434  41.4436  41.7139
    42.6802  42.8396  44.9953  45.2349  45.3226  46.1872  47.4271  47.4566
    48.3523  48.5023  48.9587  49.6120  50.1159  50.1601  51.3343  52.2134
    52.9821  53.2794  53.8758  54.2319  54.6440  54.9677

          k = 0.2000 0.2000 0.0000 (  1808 PWs)   bands (ev):

   -47.3958 -47.3819 -21.6894 -21.6164 -21.4852 -21.4338 -21.4085 -21.3965
    -6.2273  -5.5701  -4.7352  -4.3460   5.4465   6.4069   6.9552   7.1517
     7.2686   8.4465   9.3653   9.9052  10.0966  10.6291  10.6293  11.4160
    14.0351  14.9008  15.0516  15.4203  15.7274  17.4580  18.4870  20.3994
    20.8068  20.9653  21.5297  23.6210  23.9195  26.6557  27.7548  28.2702
    30.0658  31.2723  31.5184  33.9838  34.0517  34.2868  34.9553  35.0576
    35.2518  36.5246  38.4416  38.8647  40.3625  41.4131  41.5520  41.7427
    43.3005  44.4383  44.5243  45.9535  46.0138  46.6236  46.7952  47.2174
    47.3980  47.5758  48.0184  49.7914  49.8321  49.8435  50.2258  51.3610
    51.4165  51.9310  52.4703  53.1312  53.9326  53.9869

          k = 0.2000 0.2000 0.3103 (  1815 PWs)   bands (ev):

   -47.3751 -47.3637 -21.6984 -21.6673 -21.6223 -21.5534 -21.4519 -21.4000
    -5.7795  -5.1960  -4.9979  -4.7098   6.0866   6.7370   6.8451   7.3394
     7.7137   8.2621   9.2070   9.2872   9.7712  10.3489  10.4954  11.1592
    14.5446  14.7913  15.3975  15.8391  15.8531  17.0391  19.0093  19.4119
    20.3607  21.4191  21.9698  24.6791  25.2785  27.4528  27.8169  28.1329
    29.5364  29.8962  31.4056  31.8984  33.1632  34.4723  35.0043  36.0079
    36.2087  37.0324  38.8464  39.1138  39.6339  39.7989  41.1073  41.5748
    41.9748  42.7669  44.0931  44.1832  46.4166  46.5942  47.0264  47.6539
    48.3833  48.9203  49.2284  49.7894  50.4013  50.5810  50.8752  51.2405
    51.3097  51.8770  52.3793  53.0544  55.1693  55.4931

          k = 0.2000 0.2000 0.6207 (  1802 PWs)   bands (ev):

   -47.3399 -47.3355 -22.0823 -22.0686 -21.4895 -21.4560 -21.4263 -21.4079
    -5.6478  -5.2659  -4.9219  -4.4697   6.5788   6.9124   7.1415   7.3021
     7.7334   8.8422   8.9887   9.1735   9.5800   9.9857  10.3892  10.6185
    14.2724  15.5180  15.6509  15.9342  16.1686  16.9509  18.7812  19.8797
    20.2403  21.2839  23.4742  25.1744  25.7417  27.3729  27.8189  28.4070
    29.7007  29.7786  30.1037  31.0518  32.1152  32.7822  34.5674  35.2831
    36.4934  37.1103  37.7343  39.7256  40.0895  40.9901  41.2404  42.0059
    42.3485  42.3596  43.2478  45.5734  46.1505  46.6932  47.2716  47.6317
    47.7766  48.4985  48.7371  49.2385  49.8932  50.4920  50.9485  51.8629
    51.8833  52.8927  54.0882  54.1249  54.9914  55.0740

          k = 0.2000 0.4000 0.0000 (  1810 PWs)   bands (ev):

   -47.3915 -47.3861 -21.6734 -21.6263 -21.4774 -21.4280 -21.4222 -21.4080
    -5.9831  -5.6689  -4.7686  -4.5069   5.7414   6.3778   7.1735   7.2459
     7.7027   8.4352   8.8621   9.5980  10.0429  10.3707  10.4173  10.9376
    14.3698  14.8380  15.3142  15.7367  16.1239  16.8763  19.3037  20.3933
    20.4877  20.7541  21.9419  23.0248  24.8854  26.1999  27.0062  27.3126
    30.2882  31.0539  32.5057  33.4542  33.6266  33.9247  35.4539  36.4358
    36.4372  36.9018  37.9484  38.8904  39.8551  39.9151  40.6299  42.0370
    43.4561  43.6608  45.1902  45.8259  46.4178  46.4295  47.6111  47.9551
    48.2637  48.5956  48.9182  50.0702  50.0833  50.2537  50.5037  50.8868
    51.5346  51.7879  52.0931  52.7950  53.0608  54.0112

          k = 0.2000 0.4000 0.3103 (  1806 PWs)   bands (ev):

   -47.3715 -47.3672 -21.6936 -21.6820 -21.6029 -21.5600 -21.4462 -21.4126
    -5.5730  -5.2905  -5.0190  -4.8179   6.3075   6.7545   6.9252   7.1338
     8.1552   8.3904   8.9460   9.3550   9.5586  10.0142  10.4939  10.8152
    14.9416  15.0882  15.3557  15.7155  16.1891  16.5957  19.1983  19.6121
    20.1992  20.8132  22.8899  23.8444  25.8901  26.9917  27.5279  27.6506
    29.5923  29.7541  31.2872  32.0401  33.4235  34.0150  35.4413  36.5663
    36.6402  37.2521  38.4647  38.5770  39.8531  40.3272  40.8577  41.5030
    42.6915  43.5174  44.4562  45.1781  46.0170  46.8827  47.1041  47.7358
    47.9717  48.8724  49.2469  49.5147  49.7329  50.4779  50.6044  50.8867
    51.9644  52.3299  52.9127  53.2419  53.7157  54.5217

          k = 0.2000 0.4000 0.6207 (  1809 PWs)   bands (ev):

   -47.3385 -47.3369 -22.0811 -22.0742 -21.4816 -21.4603 -21.4237 -21.4117
    -5.6505  -5.4725  -4.6835  -4.4685   6.4927   6.6672   7.0687   7.3334
     7.8928   8.6016   9.1308   9.3905   9.6868  10.1094  10.4896  10.8577
    14.1863  14.7509  15.8675  16.0401  16.3326  16.7854  18.8648  19.4032
    20.8252  21.3204  23.6521  24.3393  25.5802  26.3792  27.7534  28.3535
    29.6023  29.7217  30.7865  31.5297  32.3101  33.1172  34.1561  34.9203
    37.1973  37.5327  37.9791  39.3048  40.7629  41.1041  41.7732  41.9825
    43.0288  43.7036  44.7092  45.2380  45.3824  46.1895  47.0701  47.3741
    47.7641  48.1012  48.3531  49.0946  50.0649  50.8822  51.1204  51.5264
    51.8952  52.2633  53.3635  53.6360  54.5504  55.1272

          k = 0.4000 0.4000 0.0000 (  1810 PWs)   bands (ev):

   -47.3898 -47.3877 -21.7002 -21.6797 -21.4237 -21.4176 -21.4122 -21.4017
    -6.0074  -5.8812  -4.5412  -4.4068   5.4676   5.7548   7.1126   7.1531
     8.3065   8.9257   9.2525   9.7803  10.1472  10.3272  10.5028  10.7548
    13.9828  14.3468  15.0736  15.3266  16.5117  16.7921  19.4958  19.9487
    20.7484  20.9545  22.7577  23.2567  25.1175  25.9000  26.0458  26.3174
    30.6371  31.0212  33.7274  34.5379  35.0512  35.3423  35.4119  35.5629
    36.0773  36.1004  36.7507  37.8439  38.8326  40.1039  40.7951  42.0433
    42.8605  43.7333  44.4265  45.0667  46.3346  47.3047  48.2621  48.2907
    48.5374  48.6095  49.6695  50.4622  50.4983  51.0694  51.0995  51.3707
    51.6161  52.1312  52.6495  52.9168  53.2998  53.5362

          k = 0.4000 0.4000 0.3103 (  1807 PWs)   bands (ev):

   -47.3701 -47.3685 -21.6820 -21.6754 -21.6315 -21.6066 -21.4093 -21.3946
    -5.5721  -5.4728  -4.8504  -4.7634   6.1134   6.3184   6.8266   6.9231
     8.8169   8.9105   9.2341   9.5710   9.9408  10.0137  10.1162  10.4185
    14.7719  15.0892  15.1830  15.4860  16.0904  16.2910  19.7139  19.9655
    20.2873  20.4315  23.3754  23.7811  25.6578  26.1814  27.2852  27.3874
    29.5324  29.5830  31.8010  32.2240  33.1535  34.0363  35.8326  36.9364
    37.0937  37.2694  38.6748  39.1157  40.2166  40.7880  41.4335  41.9614
    42.9378  42.9605  44.2730  44.4275  46.0381  46.7759  47.1990  47.3237
    47.8760  47.9431  48.4508  49.1151  49.3184  50.5615  50.8278  51.2289
    51.8850  52.0382  53.5578  53.6165  54.1222  54.5163

          k = 0.4000 0.4000 0.6207 (  1799 PWs)   bands (ev):

   -47.3380 -47.3373 -22.0729 -22.0690 -21.4942 -21.4842 -21.4109 -21.4068
    -5.4839  -5.3109  -4.8560  -4.6624   6.6174   6.8728   7.2507   7.3735
     7.6738   8.0476   8.9698   9.1774   9.9833  10.1999  10.8442  11.0054
    14.6197  15.1302  15.7629  15.8928  15.9335  16.3236  19.3595  20.0664
    20.1646  20.8103  23.5644  23.8526  25.5066  26.3960  26.7551  27.6717
    29.6115  29.7660  31.5179  31.8104  32.6958  33.2345  34.3987  34.8509
    38.1060  38.1330  38.2034  39.3427  41.2263  41.3133  42.9891  43.3041
    43.6963  44.2783  45.2154  45.2740  45.9728  46.1009  46.6648  46.8314
    47.3446  47.4201  48.0829  48.1452  49.1560  49.2129  49.5733  51.4418
    51.9743  52.5206  52.6116  53.6284  53.6707  53.9376

     the Fermi energy is    14.9204 ev

!    total energy              =    -407.72974012 Ry
     Harris-Foulkes estimate   =    -407.72973864 Ry
     estimated scf accuracy    <       0.00000080 Ry

     The total energy is the sum of the following terms:

     one-electron contribution =    -102.61653997 Ry
     hartree contribution      =      82.68603867 Ry
     xc contribution           =     -67.84130853 Ry
     ewald contribution        =    -319.95806539 Ry
     smearing contrib. (-TS)   =       0.00013510 Ry

     total magnetization       =     1.35 Bohr mag/cell
     absolute magnetization    =     1.35 Bohr mag/cell

     convergence has been achieved in  16 iterations

     Forces acting on atoms (Ry/au):


     negative rho (up, down):  0.000E+00 0.103E-03
     atom    1 type  1   force =     0.00000000    0.00000000    0.00000000
     atom    2 type  1   force =     0.00000000    0.00000000    0.00000000
     atom    3 type  2   force =    -0.05366826   -0.05366826   -0.00000000
     atom    4 type  2   force =     0.05366826    0.05366826    0.00000000
     atom    5 type  2   force =    -0.05366826    0.05366826   -0.00000000
     atom    6 type  2   force =     0.05366826   -0.05366826   -0.00000000

     Total force =     0.151797     Total SCF correction =     0.000094


     entering subroutine stress ...


     negative rho (up, down):  0.000E+00 0.103E-03
          total   stress  (Ry/bohr**3)                   (kbar)     P=  267.08
   0.00195156   0.00000000   0.00000000        287.08      0.00      0.00
   0.00000000   0.00195156   0.00000000          0.00    287.08      0.00
   0.00000000   0.00000000   0.00154369          0.00      0.00    227.08

     Volume is kept fixed: isostatic pressure set to zero

     BFGS Geometry Optimization

     number of scf cycles    =   1
     number of bfgs steps    =   0

     enthalpy new            =    -407.7297401198 Ry

     new trust radius        =       0.0758983746 bohr
     new conv_thr            =       0.0000010000 Ry

     new unit-cell volume =    423.42830 a.u.^3 (    62.74560 Ang^3 )

CELL_PARAMETERS (alat=  8.69356955)
   1.003410571   0.000000000   0.000000000
   0.000000000   1.003410571   0.000000000
   0.000000000   0.000000000   0.640070984

ATOMIC_POSITIONS (crystal)
Mo0      0.000000000   0.000000000   0.000000000    0   0   0
Mo0      0.500000000   0.500000000   0.500000000    0   0   0
O1       0.298826672   0.298826672   0.000000000    1   1   0
O1      -0.298826672  -0.298826672   0.000000000    1   1   0
O1       0.798826672   0.201173328   0.500000000    1   1   0
O1       0.201173328   0.798826672   0.500000000    1   1   0


     NEW-OLD atomic charge density approx. for the potential
     NEW k-points:
        k(    1) = (   0.0000000   0.0000000   0.0000000), wk =   0.0080000
        k(    2) = (   0.0000000   0.0000000   0.3124653), wk =   0.0160000
        k(    3) = (   0.0000000   0.0000000   0.6249307), wk =   0.0160000
        k(    4) = (   0.0000000   0.1993202   0.0000000), wk =   0.0320000
        k(    5) = (   0.0000000   0.1993202   0.3124653), wk =   0.0640000
        k(    6) = (   0.0000000   0.1993202   0.6249307), wk =   0.0640000
        k(    7) = (   0.0000000   0.3986404   0.0000000), wk =   0.0320000
        k(    8) = (   0.0000000   0.3986404   0.3124653), wk =   0.0640000
        k(    9) = (   0.0000000   0.3986404   0.6249307), wk =   0.0640000
        k(   10) = (   0.1993202   0.1993202   0.0000000), wk =   0.0320000
        k(   11) = (   0.1993202   0.1993202   0.3124653), wk =   0.0640000
        k(   12) = (   0.1993202   0.1993202   0.6249307), wk =   0.0640000
        k(   13) = (   0.1993202   0.3986404   0.0000000), wk =   0.0640000
        k(   14) = (   0.1993202   0.3986404   0.3124653), wk =   0.1280000
        k(   15) = (   0.1993202   0.3986404   0.6249307), wk =   0.1280000
        k(   16) = (   0.3986404   0.3986404   0.0000000), wk =   0.0320000
        k(   17) = (   0.3986404   0.3986404   0.3124653), wk =   0.0640000
        k(   18) = (   0.3986404   0.3986404   0.6249307), wk =   0.0640000
        k(   19) = (   0.0000000   0.0000000   0.0000000), wk =   0.0080000
        k(   20) = (   0.0000000   0.0000000   0.3124653), wk =   0.0160000
        k(   21) = (   0.0000000   0.0000000   0.6249307), wk =   0.0160000
        k(   22) = (   0.0000000   0.1993202   0.0000000), wk =   0.0320000
        k(   23) = (   0.0000000   0.1993202   0.3124653), wk =   0.0640000
        k(   24) = (   0.0000000   0.1993202   0.6249307), wk =   0.0640000
        k(   25) = (   0.0000000   0.3986404   0.0000000), wk =   0.0320000
        k(   26) = (   0.0000000   0.3986404   0.3124653), wk =   0.0640000
        k(   27) = (   0.0000000   0.3986404   0.6249307), wk =   0.0640000
        k(   28) = (   0.1993202   0.1993202   0.0000000), wk =   0.0320000
        k(   29) = (   0.1993202   0.1993202   0.3124653), wk =   0.0640000
        k(   30) = (   0.1993202   0.1993202   0.6249307), wk =   0.0640000
        k(   31) = (   0.1993202   0.3986404   0.0000000), wk =   0.0640000
        k(   32) = (   0.1993202   0.3986404   0.3124653), wk =   0.1280000
        k(   33) = (   0.1993202   0.3986404   0.6249307), wk =   0.1280000
        k(   34) = (   0.3986404   0.3986404   0.0000000), wk =   0.0320000
        k(   35) = (   0.3986404   0.3986404   0.3124653), wk =   0.0640000
        k(   36) = (   0.3986404   0.3986404   0.6249307), wk =   0.0640000

     Check: negative/imaginary core charge=   -0.000008    0.000000

     negative rho (up, down):  0.000E+00 0.103E-03

     total cpu time spent up to now is      358.2 secs

     per-process dynamical memory:    49.1 Mb

     Self-consistent Calculation

     iteration #  1     ecut=    40.00 Ry     beta=0.30
     Davidson diagonalization with overlap
     ethr =  1.00E-06,  avg # of iterations =  5.3

     negative rho (up, down):  0.000E+00 0.998E-04

     total cpu time spent up to now is      401.0 secs

     total energy              =    -407.75009393 Ry
     Harris-Foulkes estimate   =    -407.75053086 Ry
     estimated scf accuracy    <       0.00292029 Ry

     total magnetization       =     1.13 Bohr mag/cell
     absolute magnetization    =     1.14 Bohr mag/cell

     iteration #  2     ecut=    40.00 Ry     beta=0.30
     Davidson diagonalization with overlap
     ethr =  5.62E-06,  avg # of iterations =  1.0

     negative rho (up, down):  0.000E+00 0.917E-04

     total cpu time spent up to now is      416.7 secs

     total energy              =    -407.75007623 Ry
     Harris-Foulkes estimate   =    -407.75018194 Ry
     estimated scf accuracy    <       0.00112285 Ry

     total magnetization       =     1.10 Bohr mag/cell
     absolute magnetization    =     1.11 Bohr mag/cell

     iteration #  3     ecut=    40.00 Ry     beta=0.30
     Davidson diagonalization with overlap
     ethr =  2.16E-06,  avg # of iterations =  1.0

     negative rho (up, down):  0.000E+00 0.882E-04

     total cpu time spent up to now is      432.3 secs

     total energy              =    -407.75033735 Ry
     Harris-Foulkes estimate   =    -407.75024031 Ry
     estimated scf accuracy    <       0.00010708 Ry

     total magnetization       =     1.04 Bohr mag/cell
     absolute magnetization    =     1.05 Bohr mag/cell

     iteration #  4     ecut=    40.00 Ry     beta=0.30
     Davidson diagonalization with overlap
     ethr =  2.06E-07,  avg # of iterations =  1.0

     negative rho (up, down):  0.000E+00 0.815E-04

     total cpu time spent up to now is      448.0 secs

     total energy              =    -407.75043004 Ry
     Harris-Foulkes estimate   =    -407.75035031 Ry
     estimated scf accuracy    <       0.00005305 Ry

     total magnetization       =     1.02 Bohr mag/cell
     absolute magnetization    =     1.03 Bohr mag/cell

     iteration #  5     ecut=    40.00 Ry     beta=0.30
     Davidson diagonalization with overlap
     ethr =  1.02E-07,  avg # of iterations =  1.5

     negative rho (up, down):  0.000E+00 0.742E-04

     total cpu time spent up to now is      464.5 secs

     total energy              =    -407.75048930 Ry
     Harris-Foulkes estimate   =    -407.75046449 Ry
     estimated scf accuracy    <       0.00001473 Ry

     total magnetization       =     0.97 Bohr mag/cell
     absolute magnetization    =     0.98 Bohr mag/cell

     iteration #  6     ecut=    40.00 Ry     beta=0.30
     Davidson diagonalization with overlap
     ethr =  2.83E-08,  avg # of iterations =  2.0

     negative rho (up, down):  0.000E+00 0.711E-04

     total cpu time spent up to now is      483.1 secs

     total energy              =    -407.75054235 Ry
     Harris-Foulkes estimate   =    -407.75053274 Ry
     estimated scf accuracy    <       0.00000323 Ry

     total magnetization       =     0.92 Bohr mag/cell
     absolute magnetization    =     0.93 Bohr mag/cell

     iteration #  7     ecut=    40.00 Ry     beta=0.30
     Davidson diagonalization with overlap
     ethr =  6.22E-09,  avg # of iterations =  2.0

     negative rho (up, down):  0.000E+00 0.678E-04

     total cpu time spent up to now is      501.5 secs

     total energy              =    -407.75054846 Ry
     Harris-Foulkes estimate   =    -407.75055060 Ry
     estimated scf accuracy    <       0.00000109 Ry

     total magnetization       =     0.90 Bohr mag/cell
     absolute magnetization    =     0.90 Bohr mag/cell

     iteration #  8     ecut=    40.00 Ry     beta=0.30
     Davidson diagonalization with overlap
     ethr =  2.10E-09,  avg # of iterations =  2.0

     negative rho (up, down):  0.000E+00 0.677E-04

     total cpu time spent up to now is      520.6 secs

     End of self-consistent calculation

 ------ SPIN UP ------------


          k = 0.0000 0.0000 0.0000 (  1843 PWs)   bands (ev):

   -47.7754 -47.7547 -22.0862 -22.0862 -21.8498 -21.8089 -21.8089 -21.7944
    -6.4658  -5.6688  -4.3643  -4.3643   5.2628   5.4905   6.2458   7.3178
     7.3178   9.3793   9.3793   9.9423  10.9152  11.0194  11.0194  11.7645
    13.3229  13.5447  14.2388  14.3687  14.3687  17.7913  17.8103  19.5104
    20.3647  20.3647  22.3321  23.2735  23.2735  26.9666  28.6184  29.6351
    29.8146  30.4459  31.5416  31.5416  34.1101  34.5846  34.8050  34.8050
    35.5927  35.5927  36.9013  40.8643  40.8643  40.9454  41.3541  41.7601
    43.7498  44.7955  44.9726  44.9726  45.4379  45.4379  45.5036  45.5192
    46.5127  46.9034  46.9034  47.3420  49.5171  51.5792  51.5792  51.6154
    52.6383  52.8217  52.8217  53.3615  53.9687  54.1058

          k = 0.0000 0.0000 0.3125 (  1823 PWs)   bands (ev):

   -47.7534 -47.7366 -22.0935 -22.0512 -22.0412 -22.0412 -21.7793 -21.7793
    -6.0136  -5.3469  -4.6928  -4.6928   5.8315   6.2045   6.7284   7.1552
     7.1552   8.7760   9.4962   9.9408   9.9408  10.2268  10.2268  11.4419
    14.0892  14.1027  14.4294  14.8815  14.8815  17.2642  18.5498  19.9101
    19.9101  20.5953  21.8612  25.0283  25.0283  27.1706  28.0135  29.0194
    29.4744  29.7531  30.9253  30.9253  32.2537  35.4722  35.4722  35.7451
    35.9376  35.9376  38.6272  39.7110  39.7482  40.2999  40.5885  40.6383
    40.6383  41.9536  42.3079  42.3079  46.7091  46.7091  46.8860  47.8438
    47.8778  48.8331  48.8331  49.2079  50.2683  50.8128  50.9661  50.9661
    51.8471  52.5686  52.5686  54.4899  55.0107  55.9607

          k = 0.0000 0.0000 0.6249 (  1796 PWs)   bands (ev):

   -47.7155 -47.7091 -22.4638 -22.4489 -21.9716 -21.9716 -21.7259 -21.7259
    -5.2023  -5.2023  -5.1884  -4.9170   6.6407   6.9090   7.3839   7.3839
     7.9271   8.0854   8.2162   8.8719   8.8719   9.9609  10.4659  10.4659
    14.6739  15.2170  15.6479  15.6479  15.8291  15.9911  19.3028  19.8288
    19.9209  19.9209  23.4101  25.6783  27.6270  27.6270  27.7490  28.4891
    29.2808  29.3408  29.6243  29.6243  30.5206  32.1112  35.5314  35.5314
    37.1500  37.1500  38.1025  38.6441  38.8806  38.9260  40.5796  40.5796
    41.0318  42.4358  42.4358  44.5597  46.7957  46.8673  46.8673  48.2503
    48.2503  48.9409  48.9409  49.0258  49.5205  49.5340  50.7454  52.7733
    52.7733  53.5396  53.6530  54.6758  54.7902  54.7902

          k = 0.0000 0.1993 0.0000 (  1811 PWs)   bands (ev):

   -47.7734 -47.7566 -22.0686 -22.0672 -21.8445 -21.8305 -21.8290 -21.7997
    -6.3036  -5.5903  -4.5660  -4.4931   5.5659   5.8031   6.5361   7.3567
     7.3697   8.9424   9.0670   9.8479  10.2763  10.6040  10.7486  11.6018
    13.6443  13.9447  14.6485  14.6778  14.7164  17.4240  18.1734  20.0099
    20.1250  20.1583  21.9112  23.2732  23.6412  26.8464  28.2234  28.6888
    29.5052  30.8909  31.5962  32.3233  33.6985  34.1473  34.5111  34.5221
    35.8559  36.4673  38.5376  39.3127  40.5540  40.9497  42.0314  42.0936
    43.4232  43.8067  44.5782  44.7705  45.3487  45.9503  46.5428  46.5998
    46.9042  47.2271  47.6744  48.3179  49.2770  50.6563  51.0740  51.4694
    51.9556  51.9785  52.0698  52.7809  53.1671  53.6683

          k = 0.0000 0.1993 0.3125 (  1813 PWs)   bands (ev):

   -47.7517 -47.7382 -22.1054 -22.0728 -22.0129 -22.0124 -21.7932 -21.7919
    -5.8940  -5.2968  -4.8228  -4.7655   6.0657   6.3386   6.8121   7.1576
     7.4893   8.5625   8.8433   9.7001   9.7618  10.2331  10.3100  11.3430
    14.0376  14.5094  14.6402  14.8551  15.2878  17.0115  18.7752  19.3590
    19.7028  21.3199  21.6335  24.6500  25.2646  27.3832  28.0283  28.4020
    29.3566  29.5904  30.2402  32.1220  32.6158  34.4132  35.4149  35.5917
    35.7972  36.6170  39.0596  39.2015  39.2693  39.8776  40.2875  41.0130
    42.1081  42.1740  42.9213  43.6038  46.5224  46.9701  47.0977  47.5052
    48.0962  48.1335  49.1873  49.2983  50.3391  50.5431  50.7646  50.8643
    51.2764  51.9669  52.8291  53.8581  54.3049  54.8665

          k = 0.0000 0.1993 0.6249 (  1794 PWs)   bands (ev):

   -47.7149 -47.7097 -22.4678 -22.4556 -21.9647 -21.9641 -21.7280 -21.7275
    -5.5234  -5.4476  -4.8169  -4.6704   6.4789   6.6795   6.9285   7.3653
     7.9075   8.1958   8.7890   9.0521   9.3619  10.2004  10.2819  10.2828
    14.1679  14.9743  15.3772  15.7689  16.0327  16.2720  18.9378  19.0691
    20.2953  20.9294  23.3826  25.2736  26.8199  27.6856  27.7600  28.2933
    28.6623  29.3017  29.9330  30.3991  31.5082  32.2073  35.0036  35.2232
    36.4334  37.0690  38.1713  38.2724  39.3913  39.7437  40.7568  41.3959
    42.1445  42.2138  42.3675  45.1975  46.7243  46.9686  47.2606  47.2977
    48.0361  48.2088  48.7677  49.4595  49.7280  50.1316  50.5572  52.1863
    52.2859  53.1392  53.5123  54.6168  55.3055  55.4731

          k = 0.0000 0.3986 0.0000 (  1820 PWs)   bands (ev):

   -47.7682 -47.7618 -22.0298 -22.0276 -21.8743 -21.8720 -21.8307 -21.8136
    -5.8787  -5.4948  -4.9308  -4.7890   6.2892   6.4340   7.4316   7.4348
     7.4498   8.1362   8.1989   8.8286   9.7907  10.0707  10.7908  11.1872
    14.1260  14.2908  15.1556  15.2202  15.5802  16.5707  19.2117  19.7273
    19.7653  20.4445  21.5592  22.6798  24.7061  26.1682  27.8658  27.9070
    29.4999  30.8798  31.5894  32.1379  32.1789  33.7428  35.4453  36.3291
    36.5380  37.5674  38.4235  39.3695  40.6644  40.8852  40.9927  41.2508
    43.0733  43.7878  44.4540  45.0295  45.9760  46.2496  46.6340  46.7482
    47.8497  47.9447  49.4323  49.4840  49.5287  50.0840  50.1398  50.8648
    51.3337  51.3596  52.1235  52.1477  52.5930  53.0393

          k = 0.0000 0.3986 0.3125 (  1808 PWs)   bands (ev):

   -47.7475 -47.7423 -22.1090 -22.0954 -21.9767 -21.9743 -21.8200 -21.8182
    -5.5772  -5.2139  -5.0987  -4.9418   6.5962   6.6433   7.0950   7.1620
     7.8863   8.0446   8.5471   9.1307   9.1539   9.6861  10.7702  11.0924
    14.3682  14.6493  15.0668  15.1822  15.8961  16.4264  18.7879  18.8182
    19.9135  20.8335  22.5606  23.7105  26.0743  27.2826  27.8946  28.0159
    29.0515  29.1704  30.1201  31.6425  33.5292  34.5799  35.2441  35.8365
    35.9326  37.1188  38.1268  38.3417  39.6733  39.7263  40.8199  40.9029
    42.5342  43.7684  44.4200  45.0240  45.7744  46.3210  47.1294  47.5218
    48.1700  48.6901  48.9789  49.2631  50.0856  50.1663  50.3136  50.4903
    51.8515  52.3049  53.0382  53.6498  53.8429  54.8371

          k = 0.0000 0.3986 0.6249 (  1805 PWs)   bands (ev):

   -47.7133 -47.7113 -22.4725 -22.4678 -21.9531 -21.9525 -21.7313 -21.7308
    -5.6974  -5.6679  -4.5327  -4.4755   6.3146   6.3490   6.6987   6.8443
     8.3939   8.7462   8.9233   9.5254   9.7268   9.7729  10.2376  10.7005
    13.6124  14.0357  15.6637  15.7960  16.3167  16.3758  18.4870  18.6455
    21.0199  21.4361  23.6440  24.4147  26.6409  27.0475  27.4202  27.6078
    28.7480  29.5508  30.5500  31.1221  32.1294  32.2070  34.3290  34.7085
    36.8223  37.0312  38.0943  38.3711  39.8126  40.0396  41.4377  41.4799
    42.6597  42.7212  44.6401  45.0429  45.0749  46.0153  47.1872  47.5274
    47.9523  47.9716  49.0544  49.6965  49.9183  50.3022  51.0996  52.1394
    52.7172  53.2773  53.5485  53.9904  54.1892  54.8672

          k = 0.1993 0.1993 0.0000 (  1808 PWs)   bands (ev):

   -47.7718 -47.7582 -22.0924 -22.0256 -21.8755 -21.8402 -21.8050 -21.8040
    -6.2171  -5.5083  -4.8534  -4.4041   5.3680   6.4210   6.7976   7.2921
     7.4529   8.2062   9.2939   9.7830  10.0881  10.5483  10.5824  11.4336
    13.3814  14.2516  14.3846  15.0591  15.1871  17.2114  18.3285  19.7480
    20.3579  20.5732  21.5214  23.4627  23.7693  26.6120  27.4913  28.0850
    29.5580  31.3344  31.3585  33.7966  33.8287  34.4720  34.8080  34.8446
    34.8589  36.1805  38.3723  38.8299  40.2686  41.1959  41.2392  41.6248
    43.4258  44.4257  44.6404  45.5732  45.8725  46.4495  46.5539  46.7842
    47.2384  47.6255  47.9079  49.0466  49.3908  50.1068  50.1531  51.1732
    51.1827  51.9700  52.3623  52.5392  53.6580  53.9869

          k = 0.1993 0.1993 0.3125 (  1815 PWs)   bands (ev):

   -47.7504 -47.7395 -22.1059 -22.0688 -22.0459 -21.9734 -21.8203 -21.7768
    -5.8162  -5.2359  -5.0093  -4.7279   6.0029   6.6217   6.7699   7.3523
     7.6013   8.1645   9.1526   9.1793   9.7486  10.1758  10.4779  11.1933
    14.0537  14.2319  14.7357  15.3441  15.4050  16.8080  18.7130  19.1752
    19.8785  21.3278  21.8381  24.5780  25.1361  27.3443  27.6231  27.9745
    29.4258  29.4634  31.2545  31.7644  32.8596  34.1222  34.7388  35.9973
    36.0368  36.9481  38.6415  39.0351  39.3927  39.4873  41.1105  41.3451
    42.0900  42.5289  44.0241  44.1182  46.2513  46.2806  47.0086  47.3710
    47.9594  48.6513  49.1366  49.8318  49.9700  50.4268  50.6453  50.9670
    51.0927  51.6685  52.3331  52.7913  54.8650  55.2265

          k = 0.1993 0.1993 0.6249 (  1802 PWs)   bands (ev):

   -47.7144 -47.7102 -22.4707 -22.4556 -21.9733 -21.9522 -21.7310 -21.7262
    -5.6864  -5.2314  -5.0239  -4.4958   6.4019   6.6339   6.9612   7.1747
     7.6069   8.6550   9.0030   9.0568   9.4627   9.9977  10.3449  10.5120
    13.9424  15.1679  15.3109  15.4516  15.9137  16.4962  18.4537  19.8239
    19.8922  21.1955  23.3820  25.2132  25.6891  27.4004  27.4127  28.3202
    29.3678  29.5553  29.8137  30.9175  31.8226  32.5082  34.3197  35.0598
    36.2983  36.8599  37.6047  39.3272  39.9185  40.6111  41.2727  41.7302
    42.1057  42.2915  42.9875  45.4359  46.2084  46.4252  47.2700  47.4854
    47.7524  48.0351  48.5712  49.2898  49.5392  50.1080  50.9717  51.7408
    51.8003  52.9373  53.9182  54.0376  54.8740  54.8750

          k = 0.1993 0.3986 0.0000 (  1810 PWs)   bands (ev):

   -47.7676 -47.7624 -22.0773 -22.0342 -21.8688 -21.8289 -21.8234 -21.8151
    -5.9616  -5.6072  -4.8865  -4.5786   5.6772   6.3818   7.3268   7.4272
     7.5647   8.2465   8.7032   9.4859   9.9059  10.2890  10.3884  10.9270
    13.7363  14.2042  14.7007  15.1979  15.8182  16.6061  19.1241  19.7420
    20.1329  20.2630  21.9586  22.9986  24.7021  26.0011  26.8385  27.1590
    29.8333  30.7335  32.5730  33.2966  33.4574  34.0617  35.3232  36.0433
    36.3648  36.6329  37.6620  38.9075  39.4692  40.0334  40.3550  41.7986
    43.2378  43.8617  45.3012  45.5250  46.2101  46.3822  47.3925  47.5071
    47.9481  48.1469  48.8059  49.8878  49.9992  50.1052  50.3074  50.6423
    51.3714  51.8888  51.9081  52.3477  53.0928  53.7756

          k = 0.1993 0.3986 0.3125 (  1806 PWs)   bands (ev):

   -47.7470 -47.7428 -22.1035 -22.0896 -22.0185 -21.9777 -21.8168 -21.7886
    -5.6079  -5.3279  -5.0340  -4.8366   6.2135   6.6301   6.8916   7.1496
     8.0535   8.2813   8.8309   9.2771   9.4353   9.8878  10.4990  10.8404
    14.3556  14.5374  14.7368  15.2588  15.8145  16.3113  18.8071  19.3389
    19.8873  20.6570  22.8177  23.7941  25.7371  26.7822  27.3816  27.5383
    29.4237  29.5122  31.0503  31.7595  33.2134  33.7855  35.1488  36.3376
    36.5575  37.1589  38.2914  38.3417  39.6742  40.1984  40.7449  41.4844
    42.6077  43.3307  44.3772  45.0881  45.8973  46.6371  46.6897  47.5148
    47.8356  48.6630  48.9924  49.4795  49.6173  50.1439  50.2924  50.6458
    51.5653  52.0897  52.5973  53.0538  53.5610  54.3376

          k = 0.1993 0.3986 0.6249 (  1809 PWs)   bands (ev):

   -47.7131 -47.7115 -22.4697 -22.4617 -21.9667 -21.9536 -21.7312 -21.7281
    -5.6856  -5.4897  -4.7332  -4.4957   6.3148   6.4848   6.7766   7.1253
     7.8143   8.5515   9.0467   9.3363   9.5738  10.0128  10.4932  10.8360
    13.7784  14.3163  15.6054  15.6758  15.9406  16.3109  18.5380  19.1437
    20.7015  21.2407  23.6139  24.3394  25.5301  26.2454  27.5411  28.1674
    29.3037  29.5234  30.6393  31.3082  32.0452  32.8222  33.8841  34.6710
    36.8971  37.3450  37.8364  38.9415  40.6808  40.9702  41.6558  41.7655
    42.8892  43.6120  44.4134  45.0375  45.1801  45.9108  46.8050  47.3439
    47.4701  47.6820  48.2968  49.3054  49.8893  50.4964  50.9168  51.3724
    51.7475  52.2421  53.0507  53.5221  54.4226  55.0377

          k = 0.3986 0.3986 0.0000 (  1810 PWs)   bands (ev):

   -47.7659 -47.7639 -22.1027 -22.0832 -21.8245 -21.8194 -21.8193 -21.7985
    -5.9967  -5.8598  -4.6146  -4.4660   5.3824   5.6852   7.2507   7.3049
     8.2116   8.9170   9.1154   9.7386   9.9930  10.2583  10.4797  10.6307
    13.3198  13.7092  14.4116  14.7154  16.2504  16.5418  19.3145  19.7667
    20.1271  20.3474  22.7589  23.2442  24.9451  25.6741  25.8614  26.1269
    30.3053  30.7718  33.8023  34.6492  34.8799  35.1499  35.2278  35.2595
    35.7513  36.0221  36.6960  37.8760  38.4954  39.6947  40.4615  41.8266
    42.3033  43.6431  44.5159  44.8999  46.5168  47.4143  47.9182  48.1415
    48.1967  48.6215  49.5066  50.2052  50.3467  50.5051  51.1420  51.1587
    51.2731  51.8421  52.4643  52.8060  53.2486  53.3850

          k = 0.3986 0.3986 0.3125 (  1807 PWs)   bands (ev):

   -47.7457 -47.7441 -22.0905 -22.0729 -22.0537 -22.0209 -21.7861 -21.7726
    -5.6065  -5.5068  -4.8696  -4.7827   6.0283   6.2220   6.7938   6.9087
     8.7331   8.8028   9.1520   9.4377   9.8072   9.9899  10.0446  10.4030
    14.2117  14.5231  14.5681  14.8581  15.8417  16.0464  19.3788  19.8233
    19.8385  20.2436  23.3248  23.7501  25.4608  25.9578  27.1124  27.2189
    29.3874  29.5538  31.6344  32.0123  32.8661  33.7502  35.5447  36.7484
    36.7543  37.0584  38.6089  39.0748  39.9276  40.5195  41.1809  41.9926
    42.8415  42.8508  44.0626  44.3711  45.8000  46.4797  47.1769  47.1934
    47.7386  47.9568  48.0000  49.1674  49.3433  50.0285  50.6782  50.8387
    51.3096  51.5230  53.2449  53.5525  53.9471  54.5055

          k = 0.3986 0.3986 0.6249 (  1799 PWs)   bands (ev):

   -47.7125 -47.7119 -22.4606 -22.4559 -21.9761 -21.9681 -21.7283 -21.7267
    -5.4977  -5.2773  -4.9615  -4.7170   6.4475   6.7049   7.0997   7.1951
     7.5633   7.9787   8.7751   9.0740   9.8265  10.0601  10.8655  11.0066
    14.2595  14.9596  15.0593  15.5876  15.6765  15.7979  19.1043  19.8284
    20.0620  20.7005  23.5198  23.8065  25.3824  25.9435  26.8956  27.5182
    29.4466  29.6076  31.4616  31.7370  32.2903  32.8706  34.0330  34.5037
    37.7444  38.1236  38.2133  38.8724  41.1205  41.2524  42.7880  43.0852
    43.5022  44.0856  44.9305  44.9320  45.8252  45.8909  46.5266  46.6143
    46.9945  47.2796  47.9034  48.0343  48.8603  49.0109  49.2315  50.8703
    51.6803  52.5183  52.7425  53.4253  53.6419  53.8690

 ------ SPIN DOWN ----------


          k = 0.0000 0.0000 0.0000 (  1843 PWs)   bands (ev):

   -47.5054 -47.4845 -21.8123 -21.8123 -21.5599 -21.5599 -21.4819 -21.4257
    -6.4376  -5.6436  -4.3422  -4.3422   5.3509   5.6157   6.3050   7.4134
     7.4134   9.4124   9.4124   9.9742  10.9401  11.0363  11.0363  11.7736
    13.6758  13.7960  14.4550  14.9171  14.9171  17.9586  18.0141  19.6074
    20.5574  20.5574  22.4593  23.3911  23.3911  26.9948  28.7514  29.7809
    29.9702  30.5210  31.6470  31.6470  34.3982  34.7192  35.0181  35.0181
    35.7315  35.7315  36.9271  40.9694  40.9694  41.0306  41.4366  42.0079
    43.7989  45.0523  45.0523  45.0734  45.4967  45.4967  45.6001  45.6606
    46.7240  47.0124  47.0124  47.3775  49.7116  51.7136  51.7136  51.8358
    52.9160  52.9521  52.9521  53.5933  54.0149  54.2197

          k = 0.0000 0.0000 0.3125 (  1823 PWs)   bands (ev):

   -47.4833 -47.4664 -21.7589 -21.7589 -21.7300 -21.6871 -21.5378 -21.5378
    -5.9834  -5.3191  -4.6689  -4.6689   5.9147   6.3195   6.7860   7.2544
     7.2544   8.8293   9.5623   9.9838   9.9838  10.3046  10.3046  11.4466
    14.3098  14.3517  14.7647  15.3222  15.3222  17.4321  18.7594  20.1168
    20.1168  20.6803  21.9923  25.1522  25.1522  27.2006  28.1278  29.1550
    29.5303  29.9456  31.0175  31.0175  32.5135  35.6209  35.6209  35.8318
    36.1496  36.1496  38.8211  39.8027  39.8482  40.4001  40.7373  40.7373
    40.7929  42.1355  42.4300  42.4300  46.8260  46.8260  47.0293  47.9265
    48.0278  48.8876  48.8876  49.3775  50.3828  51.0232  51.0845  51.0845
    51.9509  52.6891  52.6891  54.6293  55.1056  56.0989

          k = 0.0000 0.0000 0.6249 (  1796 PWs)   bands (ev):

   -47.4455 -47.4390 -22.1064 -22.0914 -21.6728 -21.6728 -21.4994 -21.4994
    -5.1761  -5.1761  -5.1563  -4.8859   6.7231   7.0036   7.5209   7.5209
     7.9841   8.1368   8.2805   8.9666   8.9666   9.9944  10.4943  10.4943
    14.8650  15.5064  16.0405  16.0405  16.1641  16.1812  19.5236  19.9900
    20.1079  20.1079  23.4820  25.7714  27.7512  27.7512  27.7822  28.5288
    29.4344  29.5206  29.7193  29.7193  30.7429  32.2868  35.6568  35.6568
    37.2576  37.2576  38.2462  38.7773  38.9752  39.0881  40.7869  40.7869
    41.2122  42.6934  42.6934  44.6711  46.8730  46.9641  46.9641  48.3904
    48.3904  49.0281  49.0281  49.0781  49.7951  49.8044  50.8031  52.9466
    52.9466  53.5876  53.7757  54.8196  54.9075  54.9075

          k = 0.0000 0.1993 0.0000 (  1811 PWs)   bands (ev):

   -47.5033 -47.4864 -21.7915 -21.7899 -21.5850 -21.5832 -21.4765 -21.4310
    -6.2754  -5.5649  -4.5428  -4.4704   5.6535   5.9255   6.5951   7.4487
     7.4609   8.9925   9.1138   9.9030  10.3195  10.6620  10.7679  11.6109
    13.9724  14.2000  14.8785  15.1843  15.2431  17.5935  18.3580  20.1006
    20.3109  20.3444  22.0392  23.3733  23.7641  26.9066  28.3417  28.8055
    29.7028  30.9673  31.6785  32.4952  33.7844  34.2825  34.6476  34.7954
    36.0272  36.6360  38.7060  39.3856  40.6420  41.0621  42.2226  42.2271
    43.4782  43.8925  44.6638  44.9748  45.4539  46.0494  46.6279  46.7307
    46.9715  47.4451  47.7726  48.3922  49.4721  50.8518  51.2021  51.5901
    52.0752  52.0893  52.2002  53.0450  53.2300  53.8910

          k = 0.0000 0.1993 0.3125 (  1813 PWs)   bands (ev):

   -47.4817 -47.4680 -21.7714 -21.7518 -21.6978 -21.6872 -21.5549 -21.5504
    -5.8641  -5.2694  -4.7978  -4.7409   6.1486   6.4473   6.8835   7.2553
     7.5777   8.6317   8.9252   9.7474   9.8032  10.3055  10.3721  11.3513
    14.3341  14.7619  14.9526  15.3010  15.6703  17.1919  18.9743  19.5466
    19.8958  21.4077  21.7722  24.7396  25.3913  27.4509  28.1487  28.5199
    29.4190  29.7829  30.3296  32.3223  32.7698  34.6027  35.6191  35.7005
    35.9364  36.7490  39.1891  39.3827  39.4109  39.9705  40.4443  41.1810
    42.2496  42.2605  43.0306  43.7205  46.6156  47.0929  47.2050  47.6390
    48.2231  48.3003  49.2703  49.4462  50.4853  50.7000  50.8862  50.9584
    51.4021  52.0853  52.9427  54.0036  54.4160  54.9848

          k = 0.0000 0.1993 0.6249 (  1794 PWs)   bands (ev):

   -47.4448 -47.4396 -22.1117 -22.0993 -21.6642 -21.6630 -21.5026 -21.5016
    -5.4956  -5.4206  -4.7868  -4.6402   6.5830   6.7967   7.0233   7.4754
     7.9797   8.2519   8.8502   9.1388   9.4361  10.2350  10.3140  10.3217
    14.4279  15.2803  15.6766  16.1202  16.3708  16.5398  19.1222  19.2864
    20.4746  21.0930  23.4531  25.3581  26.8826  27.8048  27.8204  28.4043
    28.7906  29.4301  30.0717  30.5781  31.6519  32.3911  35.1498  35.3616
    36.5744  37.1964  38.2842  38.3972  39.5354  39.8555  40.9279  41.5879
    42.3730  42.4111  42.6018  45.3131  46.8224  47.0539  47.3683  47.3877
    48.1762  48.3666  48.8623  49.6678  49.8553  50.3344  50.6583  52.3454
    52.4453  53.2365  53.6469  54.7588  55.4239  55.5884

          k = 0.0000 0.3986 0.0000 (  1820 PWs)   bands (ev):

   -47.4981 -47.4917 -21.7384 -21.7346 -21.6447 -21.6408 -21.4625 -21.4451
    -5.8510  -5.4686  -4.9061  -4.7651   6.3798   6.5434   7.4942   7.5191
     7.5329   8.2028   8.2618   8.8918   9.8807  10.1639  10.8049  11.1986
    14.4281  14.5713  15.6792  15.7384  15.7650  16.7453  19.3633  19.8964
    19.9354  20.5663  21.6479  22.7537  24.8430  26.3096  27.9419  28.0068
    29.7005  31.0781  31.6643  32.2172  32.2551  33.8344  35.7157  36.4320
    36.7690  37.7076  38.5820  39.4668  40.7572  41.0114  41.1240  41.4107
    43.1991  43.8709  44.5579  45.2072  46.0776  46.3310  46.7245  46.8901
    47.9353  48.1349  49.5187  49.6128  49.6648  50.2662  50.2749  50.9776
    51.4729  51.4817  52.2276  52.3537  52.7236  53.2980

          k = 0.0000 0.3986 0.3125 (  1808 PWs)   bands (ev):

   -47.4775 -47.4722 -21.7703 -21.7553 -21.6639 -21.6515 -21.5941 -21.5835
    -5.5488  -5.1883  -5.0706  -4.9158   6.6785   6.7363   7.1859   7.2593
     7.9637   8.1317   8.6320   9.1862   9.2087   9.7576  10.8075  11.1159
    14.7431  15.0465  15.3270  15.4828  16.2349  16.6624  18.9632  19.0042
    20.0666  20.9663  22.6439  23.7806  26.2103  27.4271  27.9834  28.1242
    29.1212  29.2541  30.3039  31.8407  33.7386  34.7985  35.3686  35.9407
    36.0618  37.2729  38.2540  38.4675  39.7941  39.8791  40.9389  41.0079
    42.6880  43.9316  44.5055  45.1694  45.8896  46.4599  47.2589  47.6376
    48.3000  48.8301  49.0992  49.3968  50.2663  50.2737  50.4076  50.6761
    51.9794  52.4182  53.1423  53.8069  53.9572  54.9520

          k = 0.0000 0.3986 0.6249 (  1805 PWs)   bands (ev):

   -47.4432 -47.4412 -22.1182 -22.1134 -21.6491 -21.6478 -21.5075 -21.5064
    -5.6705  -5.6412  -4.5023  -4.4453   6.4375   6.4761   6.7868   6.9354
     8.4550   8.7967   8.9792   9.5623   9.7970   9.8185  10.2956  10.7129
    13.9445  14.3585  15.9807  16.1321  16.6226  16.6604  18.6861  18.8587
    21.1791  21.5887  23.7158  24.4878  26.7105  27.1146  27.5299  27.7134
    28.8800  29.6826  30.6869  31.2931  32.3419  32.3747  34.4773  34.8506
    36.9818  37.1829  38.2474  38.5138  39.9442  40.1530  41.5208  41.5995
    42.8101  42.9526  44.7935  45.2131  45.2311  46.1568  47.3304  47.6885
    48.0672  48.0854  49.1687  49.8217  50.0858  50.4726  51.2464  52.3030
    52.8188  53.4057  53.7012  54.1174  54.3371  54.9545

          k = 0.1993 0.1993 0.0000 (  1808 PWs)   bands (ev):

   -47.5017 -47.4880 -21.8192 -21.7313 -21.6471 -21.5553 -21.4721 -21.4354
    -6.1892  -5.4826  -4.8290  -4.3818   5.4694   6.5303   6.8545   7.3879
     7.5363   8.2736   9.3357   9.8621  10.1070  10.5871  10.6244  11.4436
    13.7008  14.5320  14.9332  15.2461  15.7072  17.3798  18.4995  19.9181
    20.5496  20.6704  21.6470  23.5460  23.8977  26.6891  27.6150  28.2066
    29.7492  31.4118  31.4870  33.8960  33.8962  34.6270  35.0020  35.0155
    35.0579  36.3231  38.5219  39.0074  40.3734  41.3162  41.3386  41.7568
    43.4923  44.5521  44.7837  45.6662  45.9720  46.5437  46.7246  46.9399
    47.3481  47.8274  47.9445  49.1584  49.6062  50.2133  50.2650  51.2730
    51.2905  52.2297  52.4693  52.6267  53.8075  54.2074

          k = 0.1993 0.1993 0.3125 (  1815 PWs)   bands (ev):

   -47.4804 -47.4693 -21.7644 -21.7632 -21.7096 -21.6533 -21.5909 -21.5345
    -5.7866  -5.2092  -4.9825  -4.7038   6.0950   6.7142   6.8529   7.4554
     7.6735   8.2593   9.2123   9.2330   9.8022  10.2418  10.5222  11.2075
    14.3800  14.5376  15.1061  15.7205  15.7327  16.9952  18.9015  19.3448
    20.0787  21.4561  21.9331  24.6445  25.2628  27.4402  27.7299  28.1041
    29.5335  29.6153  31.3506  31.9414  33.0205  34.3455  34.8859  36.1107
    36.1565  37.0870  38.8059  39.1680  39.5100  39.6564  41.2512  41.5403
    42.2423  42.6229  44.1036  44.2152  46.3859  46.3882  47.1039  47.5198
    48.0784  48.8064  49.2918  49.9227  50.1099  50.5463  50.8147  51.0633
    51.2369  51.7822  52.4361  52.9133  54.9810  55.4200

          k = 0.1993 0.1993 0.6249 (  1802 PWs)   bands (ev):

   -47.4443 -47.4401 -22.1158 -22.0988 -21.6749 -21.6477 -21.5071 -21.4995
    -5.6595  -5.2051  -4.9923  -4.4655   6.5263   6.7261   7.0860   7.2519
     7.6822   8.7193   9.0778   9.1147   9.4997  10.0799  10.3735  10.5398
    14.2225  15.5118  15.5744  15.7703  16.2503  16.8007  18.6574  20.0112
    20.0774  21.3522  23.4522  25.3015  25.7377  27.4702  27.5464  28.4536
    29.5343  29.6399  29.9896  30.9971  32.0261  32.6677  34.4629  35.1947
    36.4591  37.0078  37.7107  39.4641  40.0292  40.8108  41.3651  41.9402
    42.3380  42.4440  43.2071  45.5624  46.3312  46.5008  47.4142  47.5772
    47.8475  48.1740  48.6859  49.4067  49.6719  50.3515  51.1709  51.8602
    51.9254  53.0391  54.0554  54.1992  55.0148  55.0272

          k = 0.1993 0.3986 0.0000 (  1810 PWs)   bands (ev):

   -47.4975 -47.4922 -21.8016 -21.7451 -21.6352 -21.5764 -21.4607 -21.4467
    -5.9342  -5.5806  -4.8622  -4.5555   5.7785   6.4835   7.4189   7.5112
     7.6189   8.3132   8.7601   9.5398   9.9927  10.3492  10.4150  10.9450
[...]
    51.9343  52.2379  54.1240  54.5136  54.7092  54.8674

          k = 0.3787 0.3787 0.3462 (  1803 PWs)   bands (ev):

   -48.0003 -47.9992 -22.4181 -22.4115 -22.0726 -22.0633 -21.9499 -21.9481
    -5.5840  -5.4963  -4.8445  -4.7769   6.3090   6.3658   7.1986   7.3687
     8.5574   8.8804   9.1266   9.3075   9.6836   9.7285  10.4460  10.6873
    13.3971  13.5691  14.5604  14.8126  15.8339  16.0401  18.6790  19.1758
    19.6504  20.0146  23.4313  23.8605  25.4743  25.7797  28.2121  28.2759
    29.7243  30.0366  31.9219  32.4817  32.7594  32.7671  35.2696  36.9323
    37.2806  37.6840  38.2084  38.9483  39.1174  39.8071  40.1240  41.5434
    42.1656  43.0858  45.1470  45.3323  46.0948  46.1847  47.0079  47.0446
    48.0131  48.4047  48.4597  49.1434  49.2547  49.2789  49.7319  49.8260
    51.0947  52.3085  53.0002  53.3619  54.3379  55.0108

          k = 0.3787 0.3787 0.6924 (  1823 PWs)   bands (ev):

   -47.9099 -47.9095 -22.6812 -22.6782 -22.3155 -22.3108 -21.9289 -21.9281
    -5.3619  -5.0981  -4.9056  -4.6084   6.2930   6.6581   6.8490   7.1782
     7.4492   7.8634   8.0671   8.9064   9.6809   9.8937  10.8483  10.9846
    13.9125  14.1470  15.0270  15.4144  16.8591  16.9603  18.7255  19.6810
    20.0667  20.8169  23.8244  24.0804  25.1394  25.2010  28.2022  28.2726
    30.6236  30.8853  30.9712  31.0598  32.5632  32.9516  33.9181  34.4322
    37.5342  37.8110  38.1572  38.6168  40.2665  40.9265  41.9668  42.3557
    43.5075  43.8285  44.3620  45.0503  45.3707  45.8870  46.2214  46.8310
    47.3098  47.4390  47.6876  48.4555  48.9317  49.1056  49.6819  49.7093
    51.2359  52.3485  54.9912  55.2214  55.6309  55.9195

 ------ SPIN DOWN ----------


          k = 0.0000 0.0000 0.0000 (  1807 PWs)   bands (ev):

   -48.0611 -48.0476 -22.4748 -22.4748 -22.1467 -22.1467 -21.4818 -21.4495
    -6.4109  -5.6520  -4.5226  -4.5226   5.3387   5.8294   6.0300   8.8548
     8.8548   9.1018   9.1018  10.8236  10.8819  10.8819  11.4669  11.4980
    11.8186  11.8264  13.6705  15.1226  15.1226  17.5935  17.6266  19.3168
    19.3168  19.5126  22.0135  23.6298  23.6298  26.4994  27.3614  28.4864
    30.6677  30.8844  30.8844  33.2538  33.2538  33.7042  34.3282  34.3282
    36.0985  36.3993  38.0193  39.4085  40.6101  42.1649  42.1649  42.8328
    42.8328  43.2740  44.2376  45.3501  45.3501  45.5940  45.7265  47.0661
    47.3941  48.0756  48.0756  49.1512  50.8652  50.8652  51.1115  51.4578
    51.4578  52.3549  52.3966  53.0544  54.0632  54.0801

          k = 0.0000 0.0000 0.3462 (  1830 PWs)   bands (ev):

   -48.0051 -47.9941 -22.4118 -22.4118 -22.0666 -22.0666 -21.9613 -21.9383
    -5.9458  -5.3176  -4.7080  -4.7080   6.0165   6.6050   6.6534   7.4106
     7.4106   9.0337   9.6550  10.0476  10.0476  10.2046  10.2046  11.6463
    13.0971  13.5228  13.6500  14.8911  14.8911  17.1900  18.3031  19.2362
    19.2362  21.0599  21.6661  25.9235  25.9235  26.6810  27.6819  27.8732
    30.1619  30.2739  30.6990  30.6990  33.3674  34.1372  34.1372  35.0877
    35.0877  38.0128  38.3380  39.4300  40.0802  40.7382  40.7382  41.7059
    42.9738  43.2818  43.2818  43.7089  44.2792  44.2792  47.3342  47.5372
    48.5266  49.2733  49.2733  50.0900  50.2585  50.7892  50.7892  51.9836
    51.9836  52.1397  52.5508  54.0559  54.4964  54.5440

          k = 0.0000 0.0000 0.6924 (  1806 PWs)   bands (ev):

   -47.9117 -47.9073 -22.6815 -22.6742 -22.3132 -22.3132 -21.9278 -21.9278
    -5.0932  -5.0454  -5.0454  -4.8378   6.6496   6.8747   7.0403   7.0403
     7.9811   8.1240   8.1882   8.2537   8.2537  10.2456  10.4070  10.4070
    14.4948  14.8697  14.8697  15.9718  16.7296  16.7770  18.8122  19.7468
    19.7468  20.4315  23.7633  26.0151  27.2236  28.0987  28.2083  28.6667
    29.0356  29.0356  29.8168  29.8168  30.7063  33.5906  34.9102  34.9102
    36.3679  36.3679  36.5425  36.6148  38.4858  38.7215  41.0250  41.0250
    43.6335  43.6335  44.0053  46.3329  46.3329  47.2864  47.4199  48.2431
    49.1343  49.1343  49.4907  49.7431  49.8476  49.8476  50.8488  53.5857
    53.5857  53.7337  54.5929  54.6946  54.6946  56.8255

          k = 0.0000 0.1894 0.0000 (  1807 PWs)   bands (ev):

   -48.0598 -48.0489 -22.4640 -22.4635 -22.1596 -22.1591 -21.4788 -21.4527
    -6.2547  -5.5634  -4.7246  -4.6435   5.6287   6.1038   6.3245   8.6618
     8.6820   8.9078   8.9230  10.0298  10.6030  10.7052  11.2369  11.6686
    12.0215  12.1372  14.2321  15.4018  15.4527  17.2489  17.9215  19.0827
    19.1111  19.8637  21.6794  23.5282  23.9975  26.4936  27.2522  28.2439
    29.1618  31.2121  31.5588  32.5638  33.6858  34.0958  34.1152  35.2192
    36.5392  37.6760  37.8828  40.0904  40.4067  40.5791  41.5657  42.6357
    43.0223  43.7680  44.1824  44.4872  45.2478  45.7088  45.9640  46.9497
    47.0728  48.0888  48.5784  49.7486  50.0386  50.2913  50.7481  51.2048
    51.2155  51.7278  52.4399  53.1354  53.3076  54.1007

          k = 0.0000 0.1894 0.3462 (  1804 PWs)   bands (ev):

   -48.0040 -47.9951 -22.4064 -22.4057 -22.0764 -22.0746 -21.9574 -21.9378
    -5.8392  -5.2833  -4.8124  -4.7653   6.1518   6.5674   6.8039   7.4466
     7.7034   8.9354   9.0636   9.7554   9.8202  10.2501  10.3900  11.5304
    13.4656  13.5399  13.9777  14.8229  15.2020  16.9371  18.3753  18.7726
    19.2363  21.1775  21.8509  25.0408  26.1250  27.2614  27.6092  28.0106
    29.7906  30.0241  30.1898  31.7636  32.8974  34.2913  34.5495  35.3716
    35.3980  37.7834  38.3570  38.9709  40.3506  40.4009  41.0165  41.6149
    43.2084  43.4855  43.7986  44.0245  44.3013  44.7803  46.4743  47.6462
    47.8553  48.7390  49.2856  50.1303  50.5734  50.5821  51.1996  51.5362
    51.5585  52.3350  52.4649  53.3964  53.5446  54.3220

          k = 0.0000 0.1894 0.6924 (  1810 PWs)   bands (ev):

   -47.9113 -47.9077 -22.6843 -22.6783 -22.3090 -22.3088 -21.9287 -21.9286
    -5.4001  -5.3180  -4.6814  -4.5542   6.2289   6.5081   6.5851   7.1386
     7.6341   8.0995   8.7589   8.8874   9.2425  10.0927  10.2929  10.4961
    13.8101  14.3694  15.2903  16.0161  16.7776  16.9691  18.5733  18.7675
    20.2100  21.3072  23.7565  25.7681  26.7094  27.3717  27.7792  28.0670
    29.4641  29.8459  30.0728  30.7096  31.0559  33.3565  34.3652  34.7452
    35.6601  36.0289  37.8597  37.9799  38.6337  38.7127  41.1153  41.4148
    42.9356  43.9204  44.7196  45.8609  46.3395  46.8877  47.0662  47.4925
    48.6503  49.0982  49.6748  49.9597  50.1916  50.4446  51.0265  52.3447
    53.0662  53.6628  54.2851  54.6156  55.2431  55.3276

          k = 0.0000 0.3787 0.0000 (  1802 PWs)   bands (ev):

   -48.0564 -48.0522 -22.4440 -22.4434 -22.1824 -22.1818 -21.4707 -21.4607
    -5.8332  -5.3897  -5.1496  -4.9369   6.3900   6.6928   7.2344   7.7117
     7.7892   8.5946   9.0204   9.0400  10.5748  10.7762  10.7791  11.2359
    12.4664  12.4707  15.2712  15.9366  15.9924  16.3487  18.6523  18.6895
    18.8083  19.8423  21.7904  22.8581  24.9200  26.0447  27.2501  27.6251
    28.8917  30.2208  31.5162  31.7411  35.0351  35.2218  35.7893  36.8213
    36.8320  37.5011  37.6411  38.8841  39.3571  40.2684  42.1238  42.7954
    43.3185  43.3342  43.5510  45.0119  45.5613  46.1021  46.1607  46.3196
    47.0282  47.0349  47.6471  48.4377  49.3586  49.4208  50.8507  50.9609
    51.3693  51.9256  52.3760  52.9835  54.0712  54.1126

          k = 0.0000 0.3787 0.3462 (  1814 PWs)   bands (ev):

   -48.0013 -47.9978 -22.3967 -22.3960 -22.0909 -22.0891 -21.9485 -21.9405
    -5.5627  -5.2812  -4.9885  -4.9017   6.4116   6.5207   7.2969   7.5560
     8.0760   8.3033   8.7419   9.1606   9.6316   9.9933  10.7871  11.2026
    13.5993  13.7179  14.7726  15.0288  15.7977  16.3364  17.9795  18.0059
    19.8598  20.6886  22.7632  23.8858  26.7410  27.2587  27.5148  28.1762
    29.6020  29.6800  29.9007  31.4214  33.8967  34.9184  35.1100  35.6963
    36.7445  36.9182  36.9964  38.2059  40.5060  40.8421  41.6240  41.7419
    42.6295  43.0968  43.8489  43.9048  45.4105  46.5183  46.6141  47.1447
    48.3678  48.6029  49.3348  49.6048  49.8818  49.9549  50.4909  50.8983
    51.2310  51.7457  52.2482  52.2938  53.5621  54.5855

          k = 0.0000 0.3787 0.6924 (  1812 PWs)   bands (ev):

   -47.9101 -47.9088 -22.6879 -22.6855 -22.3021 -22.3019 -21.9303 -21.9301
    -5.5717  -5.5408  -4.3897  -4.3388   5.9324   6.0048   6.3009   6.4543
     8.3945   8.5526   9.1117   9.4212   9.7845   9.8996  10.3395  10.7756
    13.1314  13.4966  15.6820  15.9344  16.9873  17.2762  17.8429  18.0524
    21.1437  21.7336  24.0778  24.9023  26.6061  26.8113  27.2226  27.3344
    29.5936  29.7371  31.2771  31.6029  32.1377  32.7001  33.7831  34.4783
    35.8883  35.9081  38.4455  39.0311  39.5776  39.7310  40.5552  41.1267
    43.1036  43.9789  44.9382  45.3154  46.1101  46.3343  46.4222  46.5924
    49.3485  49.4942  49.7193  50.0697  50.5353  50.6885  51.2732  51.3637
    53.0156  53.2419  53.6142  53.7508  54.8454  55.1728

          k = 0.1894 0.1894 0.0000 (  1799 PWs)   bands (ev):

   -48.0587 -48.0499 -22.4780 -22.4425 -22.1829 -22.1445 -21.4763 -21.4551
    -6.1769  -5.4446  -5.0384  -4.5536   5.5223   6.5685   6.6824   7.7940
     8.8401   8.9881   9.0373  10.0539  10.2253  10.5919  11.2469  11.4748
    11.6496  12.4689  14.7177  15.1355  15.9622  17.0383  18.1212  18.6725
    19.3111  20.0834  21.5241  23.6698  24.0663  26.4467  26.8424  27.8992
    29.1031  30.6656  32.7589  32.7961  34.0554  34.0703  34.4870  34.7453
    36.7592  37.8871  38.3300  39.6521  40.3614  40.6437  41.0153  41.9603
    42.4561  43.5309  44.2558  44.7409  44.8899  45.7153  46.2639  47.1405
    47.4136  48.3971  48.6926  49.0506  49.8547  50.3051  50.5341  51.1889
    51.6403  51.9843  52.3052  52.7775  53.5506  53.8980

          k = 0.1894 0.1894 0.3462 (  1800 PWs)   bands (ev):

   -48.0031 -47.9959 -22.4140 -22.3956 -22.0904 -22.0654 -21.9548 -21.9393
    -5.7708  -5.2569  -4.9460  -4.7346   6.2254   6.5415   6.9109   7.5993
     7.7446   8.5891   9.3322   9.5972   9.7524   9.9965  10.4730  11.3877
    13.3401  13.7388  13.9830  15.2528  15.2943  16.7398  17.9192  19.1067
    19.2145  21.0366  22.1372  24.7889  25.7855  27.1492  27.8786  28.0718
    29.6047  30.0206  30.5994  31.9737  32.8465  34.1163  34.1911  35.5091
    36.0393  38.1255  38.5819  38.9626  39.2603  40.2515  41.6066  42.0988
    42.3953  43.4160  44.1001  44.4772  44.7700  45.4075  46.5314  46.8975
    47.6196  48.8232  49.0799  49.8174  49.8860  50.3776  51.0290  51.0954
    51.3997  52.2769  52.6750  53.0472  53.7386  54.7670

          k = 0.1894 0.1894 0.6924 (  1810 PWs)   bands (ev):

   -47.9109 -47.9081 -22.6868 -22.6777 -22.3140 -22.3018 -21.9301 -21.9280
    -5.5604  -5.0656  -4.9459  -4.3573   5.9805   6.3336   6.8294   7.1257
     7.5207   8.0674   8.8858   9.0661   9.4699  10.1136  10.2113  10.6532
    13.6811  14.2030  15.1807  16.0747  16.8006  17.0910  17.8444  19.7268
    19.7823  21.4961  23.7205  25.6819  25.7363  26.6583  28.0490  28.5234
    29.7542  29.9909  30.3750  30.6208  31.5576  33.2403  33.9637  34.7871
    35.5680  36.7916  37.6484  37.8926  39.5023  39.5160  41.4150  41.7208
    42.5325  43.7044  44.9945  45.4476  46.2940  46.5941  47.0684  47.2325
    48.6737  48.7568  48.9044  49.6986  50.3948  50.8434  50.8507  50.8818
    52.6968  53.2625  54.0177  54.1527  55.4144  55.5093

          k = 0.1894 0.3787 0.0000 (  1799 PWs)   bands (ev):

   -48.0560 -48.0526 -22.4684 -22.4459 -22.1805 -22.1562 -21.4697 -21.4617
    -5.9341  -5.5561  -5.0505  -4.7186   5.8236   6.5557   7.3130   7.9670
     8.3475   8.8938   9.0204   9.1747  10.3023  10.6645  10.8920  11.0060
    12.0472  12.4526  15.4433  15.5972  15.9730  16.4318  18.6661  18.7884
    19.0892  19.6810  22.1095  23.1325  24.8241  25.8588  26.6915  27.1138
    29.3365  30.1883  32.5223  32.8784  34.6156  35.6094  35.7346  36.1212
    37.1154  37.2620  37.5027  38.6176  38.8216  40.1349  41.1339  42.3418
    42.4696  42.8636  43.4364  45.1347  45.6592  45.8217  46.6017  47.3258
    47.4301  48.2563  48.4700  49.0152  49.1458  49.5456  50.0898  50.3183
    51.3788  52.5873  53.2890  53.3817  53.6922  54.5352

          k = 0.1894 0.3787 0.3462 (  1814 PWs)   bands (ev):

   -48.0009 -47.9982 -22.4092 -22.3977 -22.0893 -22.0738 -21.9488 -21.9430
    -5.5867  -5.3533  -4.9619  -4.8197   6.3529   6.4783   7.2326   7.5833
     8.0832   8.4395   8.9489   9.2941   9.6979   9.9366  10.6078  11.0154
    13.5225  13.6955  14.4875  15.1558  15.7368  16.2501  17.9632  18.7036
    19.7595  20.4852  22.9609  23.9275  26.0044  26.5535  28.1010  28.4046
    29.4137  29.7899  30.7545  31.9403  33.5012  33.6959  34.7189  36.5089
    36.7974  37.3345  37.9783  38.5718  39.7831  40.1945  40.8952  41.6104
    43.2883  43.4681  43.9753  44.2479  45.6611  46.4750  46.7714  47.4016
    47.6282  48.1880  48.8507  49.6070  49.7955  49.8964  50.1162  50.5784
    50.7384  51.5538  52.3295  53.6319  53.8473  54.6990

          k = 0.1894 0.3787 0.6924 (  1819 PWs)   bands (ev):

   -47.9100 -47.9089 -22.6864 -22.6813 -22.3099 -22.3024 -21.9303 -21.9289
    -5.5577  -5.3581  -4.6161  -4.3598   5.9778   6.2657   6.3961   6.8560
     7.7131   8.4081   8.9607   9.3441   9.6541   9.8721  10.5191  10.8681
    13.4110  13.7070  15.4072  15.8382  16.9290  17.1827  17.8651  18.8018
    20.8063  21.4732  23.9375  24.6298  25.6712  25.9086  28.0105  28.1925
    29.8383  30.0738  31.1478  31.2886  32.2621  32.8941  33.7389  34.5560
    36.3200  36.7970  37.9359  38.7217  40.4687  40.6077  40.9275  41.3029
    43.2484  44.1635  44.4958  45.0697  45.4647  46.0111  46.6381  46.9426
    48.5196  48.7144  49.0671  49.1067  49.9790  50.0420  50.3213  51.1994
    52.0401  53.3003  53.8598  54.3069  54.5726  55.3420

          k = 0.3787 0.3787 0.0000 (  1783 PWs)   bands (ev):

   -48.0549 -48.0537 -22.4836 -22.4714 -22.1540 -22.1408 -21.4672 -21.4641
    -5.9823  -5.8451  -4.7479  -4.6022   5.5444   5.8294   7.9847   8.6930
     8.8167   8.8811   8.9242   9.5948   9.6810  10.2982  10.9896  11.1866
    11.6150  12.0202  15.1569  15.4549  16.1304  16.4337  18.9437  19.0840
    19.2965  19.3023  22.8497  23.3481  24.9178  25.4975  26.0178  26.2829
    30.0213  30.4892  33.7315  34.2238  34.2686  35.0907  36.2196  36.7423
    37.3382  37.4116  37.5350  37.9144  38.5072  38.8881  39.8858  40.3102
    40.8699  42.1796  43.6900  44.5945  45.8731  46.6381  47.2305  48.0026
    48.4946  48.4950  49.1163  49.7235  49.8572  49.9877  50.2674  51.3829
    51.9343  52.2380  54.1241  54.5137  54.7093  54.8676

          k = 0.3787 0.3787 0.3462 (  1803 PWs)   bands (ev):

   -48.0000 -47.9990 -22.4178 -22.4112 -22.0727 -22.0633 -21.9494 -21.9476
    -5.5839  -5.4961  -4.8443  -4.7767   6.3091   6.3659   7.1987   7.3688
     8.5575   8.8806   9.1268   9.3076   9.6838   9.7287  10.4462  10.6875
    13.3973  13.5693  14.5613  14.8135  15.8339  16.0400  18.6793  19.1760
    19.6506  20.0148  23.4314  23.8606  25.4745  25.7800  28.2125  28.2764
    29.7242  30.0366  31.9219  32.4818  32.7595  32.7671  35.2697  36.9324
    37.2808  37.6842  38.2086  38.9485  39.1175  39.8071  40.1240  41.5436
    42.1656  43.0858  45.1471  45.3325  46.0948  46.1847  47.0081  47.0447
    48.0133  48.4049  48.4599  49.1436  49.2548  49.2792  49.7320  49.8262
    51.0947  52.3086  53.0003  53.3621  54.3380  55.0109

          k = 0.3787 0.3787 0.6924 (  1823 PWs)   bands (ev):

   -47.9097 -47.9093 -22.6807 -22.6777 -22.3152 -22.3105 -21.9290 -21.9282
    -5.3617  -5.0979  -4.9054  -4.6082   6.2932   6.6584   6.8491   7.1783
     7.4492   7.8636   8.0673   8.9065   9.6811   9.8939  10.8486  10.9849
    13.9131  14.1479  15.0268  15.4146  16.8593  16.9605  18.7257  19.6812
    20.0669  20.8170  23.8245  24.0804  25.1399  25.2014  28.2023  28.2727
    30.6236  30.8853  30.9713  31.0599  32.5635  32.9519  33.9183  34.4323
    37.5343  37.8110  38.1573  38.6168  40.2666  40.9266  41.9671  42.3560
    43.5078  43.8286  44.3622  45.0504  45.3708  45.8872  46.2216  46.8312
    47.3099  47.4391  47.6880  48.4559  48.9320  49.1058  49.6822  49.7095
    51.2360  52.3487  54.9912  55.2215  55.6309  55.9195

     the Fermi energy is    14.1752 ev

!    total energy              =    -407.81621860 Ry
     Harris-Foulkes estimate   =    -407.81621846 Ry
     estimated scf accuracy    <          5.6E-09 Ry

     The total energy is the sum of the following terms:

     one-electron contribution =    -105.90083180 Ry
     hartree contribution      =      83.92432891 Ry
     xc contribution           =     -67.73453490 Ry
     ewald contribution        =    -318.10508090 Ry
     smearing contrib. (-TS)   =      -0.00009991 Ry

     total magnetization       =     0.00 Bohr mag/cell
     absolute magnetization    =     0.00 Bohr mag/cell

     convergence has been achieved in  15 iterations

     Forces acting on atoms (Ry/au):


     negative rho (up, down):  0.369E-05 0.376E-05
     atom    1 type  1   force =     0.00000000    0.00000000    0.00000000
     atom    2 type  1   force =     0.00000000    0.00000000    0.00000000
     atom    3 type  2   force =    -0.00000587   -0.00000587   -0.00000000
     atom    4 type  2   force =     0.00000587    0.00000587    0.00000000
     atom    5 type  2   force =    -0.00000587    0.00000587   -0.00000000
     atom    6 type  2   force =     0.00000587   -0.00000587   -0.00000000

     Total force =     0.000017     Total SCF correction =     0.000012
     SCF correction compared to forces is large: reduce conv_thr to get better values


     entering subroutine stress ...


     negative rho (up, down):  0.369E-05 0.376E-05
          total   stress  (Ry/bohr**3)                   (kbar)     P=  172.23
   0.00117564   0.00000000   0.00000000        172.94      0.00      0.00
   0.00000000   0.00117564   0.00000000          0.00    172.94      0.00
   0.00000000   0.00000000   0.00116114          0.00      0.00    170.81


     init_run     :     18.56s CPU     18.95s WALL (       2 calls)
     electrons    :   1616.74s CPU   1662.85s WALL (       9 calls)
     update_pot   :     28.34s CPU     28.54s WALL (       7 calls)
     forces       :     61.79s CPU     61.89s WALL (       9 calls)
     stress       :    159.98s CPU    160.22s WALL (       9 calls)

     Called by init_run:
     wfcinit      :     10.20s CPU     10.49s WALL (       2 calls)
     potinit      :      1.64s CPU      1.67s WALL (       2 calls)

     Called by electrons:
     c_bands      :   1300.00s CPU   1340.27s WALL (      77 calls)
     sum_band     :    204.94s CPU    207.51s WALL (      77 calls)
     v_of_rho     :     17.87s CPU     17.96s WALL (      85 calls)
     newd         :    101.55s CPU    101.68s WALL (      85 calls)
     mix_rho      :      1.80s CPU      1.86s WALL (      77 calls)

     Called by c_bands:
     init_us_2    :      5.70s CPU      5.76s WALL (    6264 calls)
     cegterg      :   1279.46s CPU   1319.59s WALL (    2772 calls)

     Called by *egterg:
     h_psi        :    595.65s CPU    610.93s WALL (    8751 calls)
     s_psi        :     42.76s CPU     42.79s WALL (    8751 calls)
     g_psi        :      3.57s CPU      3.60s WALL (    5907 calls)
     cdiaghg      :    339.07s CPU    340.15s WALL (    8391 calls)

     Called by h_psi:
     add_vuspsi   :     43.43s CPU     43.64s WALL (    8751 calls)

     General routines
     calbec       :     77.19s CPU     81.77s WALL (   12171 calls)
     fft          :     16.67s CPU     16.83s WALL (    2949 calls)
     ffts         :      0.27s CPU      0.28s WALL (     324 calls)
     fftw         :    514.83s CPU    519.59s WALL ( 1249612 calls)
     interpolate  :      1.86s CPU      1.88s WALL (     324 calls)

     Parallel routines
     fft_scatter  :    174.25s CPU    171.22s WALL ( 1252885 calls)

     PWSCF        : 31m33.99s CPU    32m21.31s WALL


   This run was terminated on:  11: 7:43  24Jan2014            

=------------------------------------------------------------------------------=
   JOB DONE.
=------------------------------------------------------------------------------=
