ScientificPython/2.8-dl160g6-numpy-1.7.1-1(15):ERROR:151: Module 'ScientificPython/2.8-dl160g6-numpy-1.7.1-1' depends on one of the module(s) 'numpy/1.7.1-dl160g6-gfortran-internal-1'
ScientificPython/2.8-dl160g6-numpy-1.7.1-1(15):ERROR:102: Tcl command execution failed: prereq numpy/1.7.1-dl160g6-gfortran-internal-1


     Program PWSCF v.5.0.2 (svn rev. 9656) starts on 10May2014 at  2: 2:14 

     This program is part of the open-source Quantum ESPRESSO suite
     for quantum simulation of materials; please cite
         "P. Giannozzi et al., J. Phys.:Condens. Matter 21 395502 (2009);
          URL http://www.quantum-espresso.org", 
     in publications or presentations arising from this work. More details at
     http://www.quantum-espresso.org/quote.php

     Parallel version (MPI), running on    16 processors
     K-points division:     npool     =       4
     R & G space division:  proc/nbgrp/npool/nimage =       4

     Current dimensions of program PWSCF are:
     Max number of different atomic species (ntypx) = 10
     Max number of k-points (npk) =  40000
     Max angular momentum in pseudopotentials (lmaxx) =  3
     Reading input from pwscf.in
Warning: card &CELL ignored
Warning: card / ignored

     Subspace diagonalization in iterative solution of the eigenvalue problem:
     a serial algorithm will be used


     Parallelization info
     --------------------
     sticks:   dense  smooth     PW     G-vecs:    dense   smooth      PW
     Min        1491     475    132               353925    64028    9441
     Max        1492     476    134               353934    64061    9444
     Sum        5965    1901    531              1415713   256153   37769



     bravais-lattice index     =            0
     lattice parameter (alat)  =      12.2076  a.u.
     unit-cell volume          =    7496.5096 (a.u.)^3
     number of atoms/cell      =           31
     number of atomic types    =            3
     number of electrons       =       246.00
     number of Kohn-Sham states=          369
     kinetic-energy cutoff     =      40.0000  Ry
     charge density cutoff     =     500.0000  Ry
     convergence threshold     =      1.0E-06
     mixing beta               =       0.7000
     number of iterations used =            8  plain     mixing
     Exchange-correlation      = SLA  PW   PBE  PBE ( 1 4 3 4 0)
     EXX-fraction              =        0.00
     nstep                     =           50


     celldm(1)=  12.207631  celldm(2)=   0.000000  celldm(3)=   0.000000
     celldm(4)=   0.000000  celldm(5)=   0.000000  celldm(6)=   0.000000

     crystal axes: (cart. coord. in units of alat)
               a(1) = (   1.000000   0.000000   0.000000 )  
               a(2) = (   0.000000   1.004836   0.000000 )  
               a(3) = (   0.000000   0.000000   4.100811 )  

     reciprocal axes: (cart. coord. in units 2 pi/alat)
               b(1) = (  1.000000  0.000000  0.000000 )  
               b(2) = (  0.000000  0.995187  0.000000 )  
               b(3) = (  0.000000  0.000000  0.243854 )  


     PseudoPot. # 1 for O  read from file:
     /home/camp/zhonxu/pseudo/o_pbe_v1.01.uspp.F.UPF
     MD5 check sum: 2bcb18d16ea4b960afae9ec6d52f22d2
     Pseudo is Ultrasoft + core correction, Zval =  6.0
     Generated by new atomic code, or converted to UPF format
     Using radial grid of  737 points,  5 beta functions with: 
                l(1) =   0
                l(2) =   0
                l(3) =   1
                l(4) =   1
                l(5) =   2
     Q(r) pseudized with  8 coefficients,  rinner =    0.900   0.900   0.900
                                                       0.900   0.900

     PseudoPot. # 2 for Pt read from file:
     /home/camp/zhonxu/pseudo/pt_pbe_v1.uspp.F.UPF
     MD5 check sum: 4c71d6ad5ef119f1eb26a4d0b7884226
     Pseudo is Ultrasoft + core correction, Zval = 16.0
     Generated by new atomic code, or converted to UPF format
     Using radial grid of  985 points,  6 beta functions with: 
                l(1) =   0
                l(2) =   0
                l(3) =   1
                l(4) =   1
                l(5) =   2
                l(6) =   2
     Q(r) pseudized with  8 coefficients,  rinner =    1.300   1.300   1.300
                                                       1.300   1.300

     PseudoPot. # 3 for H  read from file:
     /home/camp/zhonxu/pseudo/h_pbe_v1.uspp.F.UPF
     MD5 check sum: 3408e3ff4ec8b0a4e358431e7e038a48
     Pseudo is Ultrasoft, Zval =  1.0
     Generated by new atomic code, or converted to UPF format
     Using radial grid of  615 points,  2 beta functions with: 
                l(1) =   0
                l(2) =   0
     Q(r) pseudized with  8 coefficients,  rinner =    0.700

     atomic species   valence    mass     pseudopotential
        O0             6.00    15.99940     O ( 1.00)
        Pt1           16.00   195.08000     Pt( 1.00)
        H2             1.00     1.00794     H ( 1.00)


     Simplified LDA+U calculation (l_max = 2) with parameters (eV):
     atomic species    L          U    alpha       J0     beta
        Pt1            2     0.0000   0.0000   0.0000   0.0000



     No symmetry found



   Cartesian axes

     site n.     atom                  positions (alat units)
         1           O0  tau(   1) = (   0.0000000   0.0000000   1.5489174  )
         2           O0  tau(   2) = (   0.0000000   0.5024180   1.6470088  )
         3           Pt1 tau(   3) = (   0.2500000   0.5024180   1.8504500  )
         4           Pt1 tau(   4) = (   0.0000000   0.0000000   1.8564782  )
         5           O0  tau(   5) = (   0.2500000   0.8139171   1.8182587  )
         6           O0  tau(   6) = (   0.2500000   0.1909188   1.8867012  )
         7           O0  tau(   7) = (   0.0000000   0.5024180   2.0373240  )
         8           O0  tau(   8) = (   0.0000000   0.0000000   2.1721997  )
         9           Pt1 tau(   9) = (   0.2500000   0.0000000   2.3623543  )
        10           Pt1 tau(  10) = (   0.0000000   0.5024180   2.3594017  )
        11           O0  tau(  11) = (   0.2500000   0.6933368   2.3215512  )
        12           O0  tau(  12) = (   0.2500000   0.3114991   2.4021322  )
        13           O0  tau(  13) = (   0.0000000   0.0000000   2.5481621  )
        14           O0  tau(  14) = (   0.5000000   0.0000000   1.5492455  )
        15           O0  tau(  15) = (   0.5000000   0.5024180   1.6439332  )
        16           Pt1 tau(  16) = (   0.7500000   0.5024180   1.8504910  )
        17           Pt1 tau(  17) = (   0.5000000   0.0000000   1.8565192  )
        18           O0  tau(  18) = (   0.7500000   0.8139171   1.8184227  )
        19           O0  tau(  19) = (   0.7500000   0.1909188   1.8866602  )
        20           O0  tau(  20) = (   0.5000000   0.5024180   2.0431061  )
        21           O0  tau(  21) = (   0.5000000   0.0000000   2.1716256  )
        22           Pt1 tau(  22) = (   0.7500000   0.0000000   2.3623953  )
        23           Pt1 tau(  23) = (   0.5000000   0.5024180   2.3697358  )
        24           O0  tau(  24) = (   0.7500000   0.6933368   2.3215102  )
        25           O0  tau(  25) = (   0.7500000   0.3114991   2.4021732  )
        26           O0  tau(  26) = (   0.5000000   0.0000000   2.5480390  )
        27           H2  tau(  27) = (   0.0001100   0.6425926   1.5814778  )
        28           H2  tau(  28) = (   0.5001800   0.6431151   1.5801656  )
        29           H2  tau(  29) = (   0.1426600   0.0364956   1.5073762  )
        30           H2  tau(  30) = (   0.6419200   0.0388771   1.5073762  )
        31           O0  tau(  31) = (   0.5000900   0.5753691   2.6428088  )

     number of k points=    10  Methfessel-Paxton smearing, width (Ry)=  0.0100
                       cart. coord. in units 2pi/alat
        k(    1) = (   0.0000000   0.0000000   0.0000000), wk =   0.1250000
        k(    2) = (   0.0000000   0.2487968   0.0000000), wk =   0.2500000
        k(    3) = (   0.0000000  -0.4975937   0.0000000), wk =   0.1250000
        k(    4) = (   0.2500000   0.0000000   0.0000000), wk =   0.2500000
        k(    5) = (   0.2500000   0.2487968   0.0000000), wk =   0.2500000
        k(    6) = (   0.2500000  -0.4975937   0.0000000), wk =   0.2500000
        k(    7) = (  -0.5000000   0.0000000   0.0000000), wk =   0.1250000
        k(    8) = (  -0.5000000   0.2487968   0.0000000), wk =   0.2500000
        k(    9) = (  -0.5000000  -0.4975937   0.0000000), wk =   0.1250000
        k(   10) = (  -0.2500000   0.2487968   0.0000000), wk =   0.2500000

     Dense  grid:  1415713 G-vectors     FFT dimensions: (  90,  90, 360)

     Smooth grid:   256153 G-vectors     FFT dimensions: (  50,  50, 216)

     Largest allocated arrays     est. size (Mb)     dimensions
        Kohn-Sham Wavefunctions        45.60 Mb     (   8098,  369)
        Atomic wavefunctions           21.75 Mb     (   8098,  176)
        NL pseudopotentials            49.30 Mb     (   8098,  399)
        Each V/rho on FFT grid         11.12 Mb     ( 729000)
        Each G-vector array             2.70 Mb     ( 353934)
        G-vector shells                 1.17 Mb     ( 153301)
     Largest temporary arrays     est. size (Mb)     dimensions
        Auxiliary wavefunctions       182.38 Mb     (   8098, 1476)
        Each subspace H/S matrix       33.24 Mb     (1476,1476)
        Each <psi_i|beta_j> matrix      2.25 Mb     (    399,  369)
        Arrays for rho mixing          88.99 Mb     ( 729000,   8)

     Check: negative/imaginary core charge=   -0.000003    0.000000

     Initial potential from superposition of free atoms
     Check: negative starting charge=   -1.533958

     starting charge  241.99985, renormalised to  246.00000

     negative rho (up, down):  0.156E+01 0.000E+00
     Number of +U iterations with fixed ns =  0
     Starting occupations:
 --- enter write_ns ---
 LDA+U parameters:
U( 2)     =  0.00000000
alpha( 2) =  0.00000000
atom    3   Tr[ns(na)] =   8.00000
    eigenvalues: 
  0.800  0.800  0.800  0.800  0.800
    eigenvectors:
  1.000  0.000  0.000  0.000  0.000
  0.000  1.000  0.000  0.000  0.000
  0.000  0.000  1.000  0.000  0.000
  0.000  0.000  0.000  1.000  0.000
  0.000  0.000  0.000  0.000  1.000
    occupations:
  0.800  0.000  0.000  0.000  0.000
  0.000  0.800  0.000  0.000  0.000
  0.000  0.000  0.800  0.000  0.000
  0.000  0.000  0.000  0.800  0.000
  0.000  0.000  0.000  0.000  0.800
atom    4   Tr[ns(na)] =   8.00000
    eigenvalues: 
  0.800  0.800  0.800  0.800  0.800
    eigenvectors:
  1.000  0.000  0.000  0.000  0.000
  0.000  1.000  0.000  0.000  0.000
  0.000  0.000  1.000  0.000  0.000
  0.000  0.000  0.000  1.000  0.000
  0.000  0.000  0.000  0.000  1.000
    occupations:
  0.800  0.000  0.000  0.000  0.000
  0.000  0.800  0.000  0.000  0.000
  0.000  0.000  0.800  0.000  0.000
  0.000  0.000  0.000  0.800  0.000
  0.000  0.000  0.000  0.000  0.800
atom    9   Tr[ns(na)] =   8.00000
    eigenvalues: 
  0.800  0.800  0.800  0.800  0.800
    eigenvectors:
  1.000  0.000  0.000  0.000  0.000
  0.000  1.000  0.000  0.000  0.000
  0.000  0.000  1.000  0.000  0.000
  0.000  0.000  0.000  1.000  0.000
  0.000  0.000  0.000  0.000  1.000
    occupations:
  0.800  0.000  0.000  0.000  0.000
  0.000  0.800  0.000  0.000  0.000
  0.000  0.000  0.800  0.000  0.000
  0.000  0.000  0.000  0.800  0.000
  0.000  0.000  0.000  0.000  0.800
atom   10   Tr[ns(na)] =   8.00000
    eigenvalues: 
  0.800  0.800  0.800  0.800  0.800
    eigenvectors:
  1.000  0.000  0.000  0.000  0.000
  0.000  1.000  0.000  0.000  0.000
  0.000  0.000  1.000  0.000  0.000
  0.000  0.000  0.000  1.000  0.000
  0.000  0.000  0.000  0.000  1.000
    occupations:
  0.800  0.000  0.000  0.000  0.000
  0.000  0.800  0.000  0.000  0.000
  0.000  0.000  0.800  0.000  0.000
  0.000  0.000  0.000  0.800  0.000
  0.000  0.000  0.000  0.000  0.800
atom   16   Tr[ns(na)] =   8.00000
    eigenvalues: 
  0.800  0.800  0.800  0.800  0.800
    eigenvectors:
  1.000  0.000  0.000  0.000  0.000
  0.000  1.000  0.000  0.000  0.000
  0.000  0.000  1.000  0.000  0.000
  0.000  0.000  0.000  1.000  0.000
  0.000  0.000  0.000  0.000  1.000
    occupations:
  0.800  0.000  0.000  0.000  0.000
  0.000  0.800  0.000  0.000  0.000
  0.000  0.000  0.800  0.000  0.000
  0.000  0.000  0.000  0.800  0.000
  0.000  0.000  0.000  0.000  0.800
atom   17   Tr[ns(na)] =   8.00000
    eigenvalues: 
  0.800  0.800  0.800  0.800  0.800
    eigenvectors:
  1.000  0.000  0.000  0.000  0.000
  0.000  1.000  0.000  0.000  0.000
  0.000  0.000  1.000  0.000  0.000
  0.000  0.000  0.000  1.000  0.000
  0.000  0.000  0.000  0.000  1.000
    occupations:
  0.800  0.000  0.000  0.000  0.000
  0.000  0.800  0.000  0.000  0.000
  0.000  0.000  0.800  0.000  0.000
  0.000  0.000  0.000  0.800  0.000
  0.000  0.000  0.000  0.000  0.800
atom   22   Tr[ns(na)] =   8.00000
    eigenvalues: 
  0.800  0.800  0.800  0.800  0.800
    eigenvectors:
  1.000  0.000  0.000  0.000  0.000
  0.000  1.000  0.000  0.000  0.000
  0.000  0.000  1.000  0.000  0.000
  0.000  0.000  0.000  1.000  0.000
  0.000  0.000  0.000  0.000  1.000
    occupations:
  0.800  0.000  0.000  0.000  0.000
  0.000  0.800  0.000  0.000  0.000
  0.000  0.000  0.800  0.000  0.000
  0.000  0.000  0.000  0.800  0.000
  0.000  0.000  0.000  0.000  0.800
atom   23   Tr[ns(na)] =   8.00000
    eigenvalues: 
  0.800  0.800  0.800  0.800  0.800
    eigenvectors:
  1.000  0.000  0.000  0.000  0.000
  0.000  1.000  0.000  0.000  0.000
  0.000  0.000  1.000  0.000  0.000
  0.000  0.000  0.000  1.000  0.000
  0.000  0.000  0.000  0.000  1.000
    occupations:
  0.800  0.000  0.000  0.000  0.000
  0.000  0.800  0.000  0.000  0.000
  0.000  0.000  0.800  0.000  0.000
  0.000  0.000  0.000  0.800  0.000
  0.000  0.000  0.000  0.000  0.800
N of occupied +U levels =  64.0000000
 --- exit write_ns ---
 Atomic wfc used for LDA+U Projector are NOT orthogonalized
     Starting wfc are  176 randomized atomic wfcs

     total cpu time spent up to now is      120.0 secs

     per-process dynamical memory:   437.2 Mb

     Self-consistent Calculation

     iteration #  1     ecut=    40.00 Ry     beta=0.70
     Davidson diagonalization with overlap
     ethr =  1.00E-02,  avg # of iterations =  5.2
 --- enter write_ns ---
 LDA+U parameters:
U( 2)     =  0.00000000
alpha( 2) =  0.00000000
atom    3   Tr[ns(na)] =   6.92078
    eigenvalues: 
  0.396  0.438  0.729  0.944  0.954
    eigenvectors:
  0.002  0.143  0.043  0.785  0.026
  0.990  0.010  0.000  0.000  0.000
  0.000  0.024  0.950  0.024  0.002
  0.008  0.823  0.006  0.157  0.006
  0.000  0.000  0.000  0.034  0.966
    occupations:
  0.861  0.006 -0.014 -0.180 -0.001
  0.006  0.397 -0.000  0.002 -0.005
 -0.014 -0.000  0.727  0.055  0.004
 -0.180  0.002  0.055  0.522  0.001
 -0.001 -0.005  0.004  0.001  0.954
atom    4   Tr[ns(na)] =   6.81029
    eigenvalues: 
  0.416  0.438  0.771  0.828  0.953
    eigenvectors:
  0.000  0.974  0.009  0.001  0.017
  0.032  0.000  0.075  0.893  0.000
  0.000  0.012  0.903  0.076  0.009
  0.000  0.014  0.011  0.001  0.974
  0.968  0.000  0.003  0.029  0.000
    occupations:
  0.449 -0.004 -0.039  0.062 -0.001
 -0.004  0.810  0.015  0.002  0.072
 -0.039  0.015  0.773 -0.012  0.002
  0.062  0.002 -0.012  0.944  0.000
 -0.001  0.072  0.002  0.000  0.429
atom    9   Tr[ns(na)] =   7.56537
    eigenvalues: 
  0.433  0.452  0.957  0.968  0.973
    eigenvectors:
  0.000  0.135  0.338  0.052  0.475
  1.000  0.000  0.000  0.000  0.000
  0.000  0.019  0.540  0.016  0.425
  0.000  0.845  0.118  0.006  0.031
  0.000  0.000  0.005  0.926  0.070
    occupations:
  0.897 -0.000 -0.033 -0.173  0.001
 -0.000  0.433  0.000 -0.000 -0.002
 -0.033  0.000  0.954 -0.063 -0.001
 -0.173 -0.000 -0.063  0.531  0.001
  0.001 -0.002 -0.001  0.001  0.968
atom   10   Tr[ns(na)] =   8.30193
    eigenvalues: 
  0.420  0.798  0.971  0.979  0.983
    eigenvectors:
  0.000  0.881  0.118  0.001  0.000
  0.036  0.000  0.000  0.000  0.964
  0.000  0.034  0.308  0.658  0.000
  0.000  0.085  0.574  0.341  0.000
  0.964  0.000  0.000  0.000  0.036
    occupations:
  0.819  0.000  0.030  0.048 -0.000
  0.000  0.963  0.000 -0.000 -0.105
  0.030  0.000  0.970 -0.013  0.000
  0.048 -0.000 -0.013  0.959 -0.000
 -0.000 -0.105  0.000 -0.000  0.440
atom   16   Tr[ns(na)] =   6.92013
    eigenvalues: 
  0.396  0.438  0.728  0.944  0.954
    eigenvectors:
  0.002  0.143  0.043  0.771  0.040
  0.990  0.010  0.000  0.000  0.000
  0.000  0.023  0.951  0.024  0.002
  0.008  0.823  0.006  0.155  0.008
  0.000  0.000  0.000  0.050  0.950
    occupations:
  0.861 -0.006 -0.014 -0.180  0.002
 -0.006  0.397  0.001 -0.002 -0.005
 -0.014  0.001  0.727  0.055 -0.001
 -0.180 -0.002  0.055  0.522 -0.001
  0.002 -0.005 -0.001 -0.001  0.953
atom   17   Tr[ns(na)] =   6.79584
    eigenvalues: 
  0.415  0.439  0.771  0.821  0.951
    eigenvectors:
  0.000  0.973  0.008  0.002  0.016
  0.032  0.000  0.114  0.853  0.000
  0.000  0.013  0.864  0.115  0.009
  0.000  0.014  0.010  0.002  0.975
  0.968  0.000  0.004  0.028  0.000
    occupations:
  0.450 -0.004 -0.040  0.061 -0.001
 -0.004  0.802  0.015  0.002  0.071
 -0.040  0.015  0.775 -0.012  0.002
  0.061  0.002 -0.012  0.942  0.000
 -0.001  0.071  0.002  0.000  0.428
atom   22   Tr[ns(na)] =   7.56554
    eigenvalues: 
  0.433  0.452  0.957  0.968  0.973
    eigenvectors:
  0.000  0.135  0.342  0.020  0.503
  0.998  0.002  0.000  0.000  0.000
  0.000  0.019  0.533  0.001  0.446
  0.001  0.844  0.119  0.003  0.033
  0.000  0.000  0.006  0.976  0.018
    occupations:
  0.897  0.001 -0.033 -0.173 -0.000
  0.001  0.433  0.001  0.000 -0.002
 -0.033  0.001  0.954 -0.063  0.001
 -0.173  0.000 -0.063  0.531 -0.001
 -0.000 -0.002  0.001 -0.001  0.968
atom   23   Tr[ns(na)] =   7.56557
    eigenvalues: 
  0.414  0.477  0.954  0.967  0.971
    eigenvectors:
  0.000  0.908  0.086  0.007  0.000
  0.032  0.000  0.000  0.000  0.968
  0.000  0.072  0.876  0.052  0.000
  0.000  0.020  0.038  0.942  0.000
  0.968  0.000  0.000  0.000  0.032
    occupations:
  0.521  0.000  0.122  0.066 -0.000
  0.000  0.953 -0.000 -0.000 -0.098
  0.122 -0.000  0.920 -0.021  0.000
  0.066 -0.000 -0.021  0.957 -0.000
 -0.000 -0.098  0.000 -0.000  0.432
N of occupied +U levels =  58.4454501
 --- exit write_ns ---

     negative rho (up, down):  0.151E+01 0.000E+00

     total cpu time spent up to now is      507.1 secs

     total energy              =   -2261.20314069 Ry
     Harris-Foulkes estimate   =   -2287.18814741 Ry
     estimated scf accuracy    <      30.93766927 Ry

     iteration #  2     ecut=    40.00 Ry     beta=0.70
     Davidson diagonalization with overlap
     ethr =  1.00E-02,  avg # of iterations =  4.8

     negative rho (up, down):  0.127E+01 0.000E+00

     total cpu time spent up to now is      875.3 secs

     total energy              =   -2181.90654179 Ry
     Harris-Foulkes estimate   =   -2368.46948449 Ry
     estimated scf accuracy    <    1708.45939747 Ry

     iteration #  3     ecut=    40.00 Ry     beta=0.70
     Davidson diagonalization with overlap
     ethr =  1.00E-02,  avg # of iterations =  5.0

     negative rho (up, down):  0.671E+00 0.000E+00

     total cpu time spent up to now is     1257.0 secs

     total energy              =   -2242.74049118 Ry
     Harris-Foulkes estimate   =   -2315.90655278 Ry
     estimated scf accuracy    <     625.69174434 Ry

     iteration #  4     ecut=    40.00 Ry     beta=0.70
     Davidson diagonalization with overlap
     ethr =  1.00E-02,  avg # of iterations =  4.0

     negative rho (up, down):  0.800E+00 0.000E+00

     total cpu time spent up to now is     1496.3 secs

     total energy              =   -2277.78946403 Ry
     Harris-Foulkes estimate   =   -2283.24539425 Ry
     estimated scf accuracy    <      18.15637396 Ry

     iteration #  5     ecut=    40.00 Ry     beta=0.70
     Davidson diagonalization with overlap
     ethr =  7.38E-03,  avg # of iterations =  1.1

     negative rho (up, down):  0.969E+00 0.000E+00

     total cpu time spent up to now is     1683.0 secs

     total energy              =   -2280.11954521 Ry
     Harris-Foulkes estimate   =   -2282.78077893 Ry
     estimated scf accuracy    <      17.41419045 Ry

     iteration #  6     ecut=    40.00 Ry     beta=0.70
     Davidson diagonalization with overlap
     ethr =  7.08E-03,  avg # of iterations =  1.0

     negative rho (up, down):  0.104E+01 0.000E+00

     total cpu time spent up to now is     1867.4 secs

     total energy              =   -2280.75169820 Ry
     Harris-Foulkes estimate   =   -2281.73782022 Ry
     estimated scf accuracy    <       4.31815347 Ry

     iteration #  7     ecut=    40.00 Ry     beta=0.70
     Davidson diagonalization with overlap
     ethr =  1.76E-03,  avg # of iterations =  3.5

     negative rho (up, down):  0.107E+01 0.000E+00

     total cpu time spent up to now is     2076.3 secs

     total energy              =   -2280.95006536 Ry
     Harris-Foulkes estimate   =   -2281.25963241 Ry
     estimated scf accuracy    <       1.96756653 Ry

     iteration #  8     ecut=    40.00 Ry     beta=0.70
     Davidson diagonalization with overlap
     ethr =  8.00E-04,  avg # of iterations =  3.2

     negative rho (up, down):  0.111E+01 0.000E+00

     total cpu time spent up to now is     2280.3 secs

     total energy              =   -2280.96205377 Ry
     Harris-Foulkes estimate   =   -2281.16252491 Ry
     estimated scf accuracy    <       2.39247045 Ry

     iteration #  9     ecut=    40.00 Ry     beta=0.70
     Davidson diagonalization with overlap
     ethr =  8.00E-04,  avg # of iterations =  1.0

     negative rho (up, down):  0.119E+01 0.000E+00

     total cpu time spent up to now is     2469.5 secs

     total energy              =   -2280.92557761 Ry
     Harris-Foulkes estimate   =   -2281.10412303 Ry
     estimated scf accuracy    <       1.15344445 Ry

     iteration # 10     ecut=    40.00 Ry     beta=0.70
     Davidson diagonalization with overlap
     ethr =  4.69E-04,  avg # of iterations =  5.1

     negative rho (up, down):  0.132E+01 0.000E+00

     total cpu time spent up to now is     2689.2 secs

     total energy              =   -2280.86751680 Ry
     Harris-Foulkes estimate   =   -2280.99083062 Ry
     estimated scf accuracy    <       0.52076068 Ry

     iteration # 11     ecut=    40.00 Ry     beta=0.70
     Davidson diagonalization with overlap
     ethr =  2.12E-04,  avg # of iterations =  5.7

     negative rho (up, down):  0.150E+01 0.000E+00

     total cpu time spent up to now is     2959.8 secs

     total energy              =   -2280.81540115 Ry
     Harris-Foulkes estimate   =   -2280.94168701 Ry
     estimated scf accuracy    <       0.74108674 Ry

     iteration # 12     ecut=    40.00 Ry     beta=0.70
     Davidson diagonalization with overlap
     ethr =  2.12E-04,  avg # of iterations =  4.0

     negative rho (up, down):  0.157E+01 0.000E+00

     total cpu time spent up to now is     3165.2 secs

     total energy              =   -2280.73948677 Ry
     Harris-Foulkes estimate   =   -2280.94246985 Ry
     estimated scf accuracy    <       1.16939533 Ry

     iteration # 13     ecut=    40.00 Ry     beta=0.70
     Davidson diagonalization with overlap
     ethr =  2.12E-04,  avg # of iterations =  5.1

     negative rho (up, down):  0.150E+01 0.000E+00

     total cpu time spent up to now is     3391.7 secs

     total energy              =   -2280.41690462 Ry
     Harris-Foulkes estimate   =   -2281.12582231 Ry
     estimated scf accuracy    <      11.93586758 Ry

     iteration # 14     ecut=    40.00 Ry     beta=0.70
     Davidson diagonalization with overlap
     ethr =  2.12E-04,  avg # of iterations =  4.3

     negative rho (up, down):  0.155E+01 0.000E+00

     total cpu time spent up to now is     3607.1 secs

     total energy              =   -2280.81636866 Ry
     Harris-Foulkes estimate   =   -2280.88838347 Ry
     estimated scf accuracy    <       0.25952254 Ry

     iteration # 15     ecut=    40.00 Ry     beta=0.70
     Davidson diagonalization with overlap
     ethr =  1.05E-04,  avg # of iterations =  1.2

     negative rho (up, down):  0.156E+01 0.000E+00

     total cpu time spent up to now is     3793.2 secs

     total energy              =   -2280.82087592 Ry
     Harris-Foulkes estimate   =   -2280.87759998 Ry
     estimated scf accuracy    <       0.28723880 Ry

     iteration # 16     ecut=    40.00 Ry     beta=0.70
     Davidson diagonalization with overlap
     ethr =  1.05E-04,  avg # of iterations =  1.0

     negative rho (up, down):  0.157E+01 0.000E+00

     total cpu time spent up to now is     3978.7 secs

     total energy              =   -2280.84035545 Ry
     Harris-Foulkes estimate   =   -2280.85975905 Ry
     estimated scf accuracy    <       0.22667518 Ry

     iteration # 17     ecut=    40.00 Ry     beta=0.70
     Davidson diagonalization with overlap
     ethr =  9.21E-05,  avg # of iterations =  1.0

     negative rho (up, down):  0.157E+01 0.000E+00

     total cpu time spent up to now is     4163.7 secs

     total energy              =   -2280.84783694 Ry
     Harris-Foulkes estimate   =   -2280.85411417 Ry
     estimated scf accuracy    <       0.04075563 Ry

     iteration # 18     ecut=    40.00 Ry     beta=0.70
     Davidson diagonalization with overlap
     ethr =  1.66E-05,  avg # of iterations =  1.4

     negative rho (up, down):  0.158E+01 0.000E+00

     total cpu time spent up to now is     4353.6 secs

     total energy              =   -2280.84751495 Ry
     Harris-Foulkes estimate   =   -2280.85338201 Ry
     estimated scf accuracy    <       0.05206448 Ry

     iteration # 19     ecut=    40.00 Ry     beta=0.70
     Davidson diagonalization with overlap
     ethr =  1.66E-05,  avg # of iterations =  1.0

     negative rho (up, down):  0.157E+01 0.000E+00

     total cpu time spent up to now is     4538.8 secs

     total energy              =   -2280.84791538 Ry
     Harris-Foulkes estimate   =   -2280.85319187 Ry
     estimated scf accuracy    <       0.08625412 Ry

     iteration # 20     ecut=    40.00 Ry     beta=0.70
     Davidson diagonalization with overlap
     ethr =  1.66E-05,  avg # of iterations =  1.0

     negative rho (up, down):  0.158E+01 0.000E+00

     total cpu time spent up to now is     4724.6 secs

     total energy              =   -2280.85002731 Ry
     Harris-Foulkes estimate   =   -2280.85142211 Ry
     estimated scf accuracy    <       0.01605481 Ry

     iteration # 21     ecut=    40.00 Ry     beta=0.70
     Davidson diagonalization with overlap
     ethr =  6.53E-06,  avg # of iterations =  1.0

     negative rho (up, down):  0.158E+01 0.000E+00

     total cpu time spent up to now is     4910.9 secs

     total energy              =   -2280.85034375 Ry
     Harris-Foulkes estimate   =   -2280.85067054 Ry
     estimated scf accuracy    <       0.00522015 Ry

     iteration # 22     ecut=    40.00 Ry     beta=0.70
     Davidson diagonalization with overlap
     ethr =  2.12E-06,  avg # of iterations =  6.0

     negative rho (up, down):  0.158E+01 0.000E+00

     total cpu time spent up to now is     5130.5 secs

     total energy              =   -2280.84913984 Ry
     Harris-Foulkes estimate   =   -2280.85046731 Ry
     estimated scf accuracy    <       0.00387068 Ry

     iteration # 23     ecut=    40.00 Ry     beta=0.70
     Davidson diagonalization with overlap
     ethr =  1.57E-06,  avg # of iterations =  5.1

     negative rho (up, down):  0.158E+01 0.000E+00

     total cpu time spent up to now is     5363.6 secs

     total energy              =   -2280.84889609 Ry
     Harris-Foulkes estimate   =   -2280.85138101 Ry
     estimated scf accuracy    <       0.02184615 Ry

     iteration # 24     ecut=    40.00 Ry     beta=0.70
     Davidson diagonalization with overlap
     ethr =  1.57E-06,  avg # of iterations =  4.2

     negative rho (up, down):  0.158E+01 0.000E+00

     total cpu time spent up to now is     5573.2 secs

     total energy              =   -2280.85007099 Ry
     Harris-Foulkes estimate   =   -2280.85018809 Ry
     estimated scf accuracy    <       0.00037111 Ry

     iteration # 25     ecut=    40.00 Ry     beta=0.70
     Davidson diagonalization with overlap
     ethr =  1.51E-07,  avg # of iterations =  1.0

     negative rho (up, down):  0.158E+01 0.000E+00

     total cpu time spent up to now is     5759.9 secs

     total energy              =   -2280.85010170 Ry
     Harris-Foulkes estimate   =   -2280.85018035 Ry
     estimated scf accuracy    <       0.00028981 Ry

     iteration # 26     ecut=    40.00 Ry     beta=0.70
     Davidson diagonalization with overlap
     ethr =  1.18E-07,  avg # of iterations =  1.0

     negative rho (up, down):  0.158E+01 0.000E+00

     total cpu time spent up to now is     5949.2 secs

     total energy              =   -2280.85013512 Ry
     Harris-Foulkes estimate   =   -2280.85014364 Ry
     estimated scf accuracy    <       0.00003236 Ry

     iteration # 27     ecut=    40.00 Ry     beta=0.70
     Davidson diagonalization with overlap
     ethr =  1.32E-08,  avg # of iterations =  1.6

     negative rho (up, down):  0.158E+01 0.000E+00

     total cpu time spent up to now is     6141.0 secs

     total energy              =   -2280.85012680 Ry
     Harris-Foulkes estimate   =   -2280.85015433 Ry
     estimated scf accuracy    <       0.00031645 Ry

     iteration # 28     ecut=    40.00 Ry     beta=0.70
     Davidson diagonalization with overlap
     ethr =  1.32E-08,  avg # of iterations =  1.2

     negative rho (up, down):  0.158E+01 0.000E+00

     total cpu time spent up to now is     6329.3 secs

     total energy              =   -2280.85013835 Ry
     Harris-Foulkes estimate   =   -2280.85014311 Ry
     estimated scf accuracy    <       0.00003478 Ry

     iteration # 29     ecut=    40.00 Ry     beta=0.70
     Davidson diagonalization with overlap
     ethr =  1.32E-08,  avg # of iterations =  1.0

     negative rho (up, down):  0.158E+01 0.000E+00

     total cpu time spent up to now is     6516.4 secs

     total energy              =   -2280.85014033 Ry
     Harris-Foulkes estimate   =   -2280.85014122 Ry
     estimated scf accuracy    <       0.00000810 Ry

     iteration # 30     ecut=    40.00 Ry     beta=0.70
     Davidson diagonalization with overlap
     ethr =  3.29E-09,  avg # of iterations =  1.0

     negative rho (up, down):  0.158E+01 0.000E+00

     total cpu time spent up to now is     6704.8 secs

     total energy              =   -2280.85014057 Ry
     Harris-Foulkes estimate   =   -2280.85014108 Ry
     estimated scf accuracy    <       0.00000495 Ry

     iteration # 31     ecut=    40.00 Ry     beta=0.70
     Davidson diagonalization with overlap
     ethr =  2.01E-09,  avg # of iterations =  1.0

     negative rho (up, down):  0.158E+01 0.000E+00

     total cpu time spent up to now is     6892.7 secs

     total energy              =   -2280.85014062 Ry
     Harris-Foulkes estimate   =   -2280.85014103 Ry
     estimated scf accuracy    <       0.00000227 Ry

     iteration # 32     ecut=    40.00 Ry     beta=0.70
     Davidson diagonalization with overlap
     ethr =  9.23E-10,  avg # of iterations =  1.0

     negative rho (up, down):  0.158E+01 0.000E+00

     total cpu time spent up to now is     7081.5 secs

     total energy              =   -2280.85014071 Ry
     Harris-Foulkes estimate   =   -2280.85014102 Ry
     estimated scf accuracy    <       0.00000179 Ry

     iteration # 33     ecut=    40.00 Ry     beta=0.70
     Davidson diagonalization with overlap
     ethr =  7.27E-10,  avg # of iterations =  1.0

     negative rho (up, down):  0.158E+01 0.000E+00

     total cpu time spent up to now is     7270.4 secs

     End of self-consistent calculation
 --- enter write_ns ---
 LDA+U parameters:
U( 2)     =  0.00000000
alpha( 2) =  0.00000000
atom    3   Tr[ns(na)] =   8.64053
    eigenvalues: 
  0.681  0.695  0.980  0.981  0.984
    eigenvectors:
  0.048  0.129  0.444  0.340  0.039
  0.740  0.260  0.000  0.000  0.000
  0.000  0.003  0.005  0.180  0.812
  0.212  0.607  0.098  0.060  0.022
  0.000  0.000  0.453  0.420  0.126
    occupations:
  0.929  0.004  0.007 -0.110 -0.001
  0.004  0.685  0.002  0.005 -0.004
  0.007  0.002  0.982  0.016  0.001
 -0.110  0.005  0.016  0.743  0.001
 -0.001 -0.004  0.001  0.001  0.981
atom    4   Tr[ns(na)] =   8.62696
    eigenvalues: 
  0.681  0.699  0.974  0.978  0.981
    eigenvectors:
  0.000  0.987  0.005  0.002  0.006
  0.007  0.000  0.078  0.910  0.004
  0.000  0.004  0.891  0.068  0.036
  0.000  0.008  0.026  0.013  0.953
  0.993  0.000  0.001  0.007  0.000
    occupations:
  0.703 -0.005 -0.018  0.026 -0.001
 -0.005  0.976  0.001  0.000  0.025
 -0.018  0.001  0.973  0.003  0.000
  0.026  0.000  0.003  0.979  0.000
 -0.001  0.025  0.000  0.000  0.683
atom    9   Tr[ns(na)] =   8.59046
    eigenvalues: 
  0.701  0.715  0.946  0.951  0.982
    eigenvectors:
  0.002  0.135  0.001  0.010  0.852
  0.988  0.011  0.000  0.000  0.000
  0.000  0.010  0.017  0.969  0.004
  0.010  0.843  0.001  0.005  0.142
  0.000  0.000  0.981  0.016  0.002
    occupations:
  0.945  0.001 -0.007 -0.092  0.001
  0.001  0.702  0.001  0.001 -0.004
 -0.007  0.001  0.949 -0.023  0.001
 -0.092  0.001 -0.023  0.754 -0.001
  0.001 -0.004  0.001 -0.001  0.946
atom   10   Tr[ns(na)] =   8.67151
    eigenvalues: 
  0.660  0.749  0.968  0.977  0.982
    eigenvectors:
  0.000  0.982  0.000  0.003  0.015
  0.010  0.000  0.990  0.000  0.000
  0.000  0.001  0.000  0.563  0.436
  0.000  0.017  0.000  0.434  0.550
  0.990  0.000  0.010  0.000  0.000
    occupations:
  0.753  0.000 -0.009  0.030  0.000
  0.000  0.965  0.000 -0.000 -0.030
 -0.009  0.000  0.979 -0.001 -0.000
  0.030 -0.000 -0.001  0.976 -0.000
  0.000 -0.030 -0.000 -0.000  0.663
atom   16   Tr[ns(na)] =   8.64064
    eigenvalues: 
  0.681  0.695  0.980  0.981  0.984
    eigenvectors:
  0.048  0.129  0.457  0.325  0.042
  0.739  0.261  0.000  0.000  0.000
  0.000  0.003  0.002  0.176  0.819
  0.212  0.607  0.100  0.057  0.023
  0.000  0.000  0.442  0.442  0.117
    occupations:
  0.929 -0.004  0.006 -0.110  0.001
 -0.004  0.685 -0.002 -0.005 -0.004
  0.006 -0.002  0.982  0.015 -0.001
 -0.110 -0.005  0.015  0.743 -0.001
  0.001 -0.004 -0.001 -0.001  0.981
atom   17   Tr[ns(na)] =   8.62473
    eigenvalues: 
  0.682  0.700  0.970  0.978  0.982
    eigenvectors:
  0.000  0.987  0.005  0.001  0.007
  0.007  0.000  0.037  0.953  0.002
  0.000  0.004  0.949  0.034  0.013
  0.000  0.009  0.009  0.004  0.978
  0.993  0.000  0.000  0.007  0.000
    occupations:
  0.704 -0.005 -0.018  0.026 -0.001
 -0.005  0.976  0.001  0.000  0.025
 -0.018  0.001  0.969  0.003  0.000
  0.026  0.000  0.003  0.979  0.000
 -0.001  0.025  0.000  0.000  0.685
atom   22   Tr[ns(na)] =   8.59042
    eigenvalues: 
  0.702  0.715  0.946  0.951  0.982
    eigenvectors:
  0.000  0.137  0.001  0.011  0.852
  0.997  0.002  0.000  0.000  0.000
  0.000  0.010  0.027  0.959  0.004
  0.002  0.851  0.001  0.004  0.142
  0.000  0.000  0.972  0.026  0.002
    occupations:
  0.945  0.000 -0.007 -0.092 -0.001
  0.000  0.702 -0.001 -0.001 -0.004
 -0.007 -0.001  0.949 -0.023 -0.001
 -0.092 -0.001 -0.023  0.754  0.001
 -0.001 -0.004 -0.001  0.001  0.946
atom   23   Tr[ns(na)] =   8.56811
    eigenvalues: 
  0.712  0.733  0.908  0.947  0.985
    eigenvectors:
  0.000  0.897  0.097  0.000  0.006
  0.013  0.000  0.000  0.987  0.000
  0.000  0.089  0.891  0.000  0.020
  0.000  0.014  0.012  0.000  0.973
  0.987  0.000  0.000  0.013  0.000
    occupations:
  0.752  0.000  0.049  0.026 -0.000
  0.000  0.944 -0.000  0.000 -0.027
  0.049 -0.000  0.894 -0.017 -0.000
  0.026  0.000 -0.017  0.980 -0.000
 -0.000 -0.027 -0.000 -0.000  0.715
N of occupied +U levels =  68.9533542
 --- exit write_ns ---

          k = 0.0000 0.0000 0.0000 ( 32157 PWs)   bands (ev):

   -56.4582 -56.3516 -56.2306 -56.0676 -56.0125 -55.9414 -55.9234 -55.9198
   -55.9009 -55.8893 -55.8420 -55.7634 -55.7572 -55.6976 -55.6573 -55.6373
   -55.6303 -55.6102 -55.5869 -55.5803 -55.5708 -55.2561 -55.0021 -54.7042
   -22.1920 -21.7898 -21.4427 -21.2480 -20.6121 -20.6043 -20.5212 -20.4065
   -20.3771 -20.3427 -20.2797 -20.2626 -20.1953 -19.9903 -19.9535 -19.8499
   -19.2204 -18.9895 -18.8373 -10.6081 -10.4760 -10.2262  -9.5678  -9.3790
    -9.2817  -9.1937  -9.1801  -9.1484  -9.0781  -8.9710  -8.9215  -8.8621
    -8.7916  -8.7634  -8.5563  -8.4592  -8.4013  -8.0477  -7.8591  -7.8048
    -7.7637  -7.6109  -7.6083  -7.1008  -7.0404  -7.0143  -6.5880  -6.3762
    -6.3246  -6.1570  -6.0867  -5.9820  -5.9620  -5.9266  -5.8226  -5.7090
    -5.6010  -5.4758  -5.4587  -5.3748  -5.3321  -5.2376  -5.1836  -5.1584
    -5.0425  -5.0043  -4.9303  -4.9115  -4.8573  -4.7896  -4.7562  -4.6543
    -4.6259  -4.5825  -4.4678  -4.4372  -4.3768  -4.3443  -4.2763  -4.2395
    -4.0765  -3.9943  -3.8080  -3.5588  -3.4177  -3.2002  -3.0310  -2.9824
    -2.9126  -2.8689  -2.6021  -2.5119  -2.3779  -2.2553  -2.2355  -2.0841
    -1.8526  -1.7446  -1.6206  -1.5023  -1.3767  -0.9847  -0.6136  -0.5861
    -0.5729  -0.5418  -0.2088   0.0553   0.3836   0.7528   0.9642   1.2202
     1.2456   1.2547   1.7781   1.9543   2.2853   3.3020   4.1867   4.6733
     4.8816   5.4840   5.6005   5.6959   5.8266   6.3261   6.4240   6.5564
     6.7468   6.7884   6.8062   6.9382   7.2135   7.3343   7.4009   7.4585
     7.5288   7.6320   7.7111   7.7287   7.8801   7.9619   8.2029   8.2056
     8.2243   8.2464   8.3151   8.3774   8.5251   8.5658   8.5803   8.7658
     8.8995   8.9316   8.9947   9.0981   9.1762   9.1939   9.4315   9.4712
     9.5904   9.7630   9.7907   9.8926   9.9537   9.9881  10.0613  10.2441
    10.4190  10.4812  10.6297  10.7215  10.8294  10.8416  10.8662  10.9437
    10.9961  11.0847  11.2170  11.2545  11.3543  11.4261  11.5293  11.5430
    11.5857  11.7090  11.8247  11.8916  11.9947  12.0180  12.0647  12.1082
    12.2009  12.2380  12.2511  12.2797  12.3796  12.4101  12.6215  12.6385
    12.6942  12.7792  12.7904  12.9933  13.1172  13.1572  13.2718  13.3849
    13.3915  13.5605  13.6256  13.6835  13.7261  13.8397  13.9433  14.0459
    14.0681  14.1914  14.2491  14.3196  14.4000  14.4404  14.4968  14.6060
    14.6664  14.8252  14.8586  15.0530  15.1589  15.3104  15.3236  15.3544
    15.4329  15.4561  15.5491  15.6147  15.6925  15.7145  15.7993  15.8338
    15.9394  15.9698  16.0339  16.1537  16.1827  16.2954  16.3186  16.3778
    16.4014  16.4281  16.4473  16.5144  16.6170  16.6470  16.7781  16.8048
    16.8630  16.8978  17.0457  17.1658  17.1783  17.2562  17.2749  17.3273
    17.4513  17.5802  17.6440  17.8066  17.8451  17.8837  17.9688  18.0477
    18.1269  18.1987  18.2400  18.3303  18.3449  18.3802  18.4198  18.5905
    18.6299  18.6600  18.7077  18.7570  18.7614  18.8480  18.9645  19.0296
    19.0648  19.0912  19.1056  19.2035  19.2966  19.3404  19.3775  19.4380
    19.4512  19.5009  19.5539  19.6049  19.6812  19.7132  19.8199  19.8565
    19.9503  19.9948  20.0325  20.1071  20.1454  20.1883  20.3029  20.3778
    20.5365  20.5942  20.6280  20.8068  20.8829  20.9264  20.9546  20.9794
    21.0107  21.0772  21.1790  21.2521  21.3562  21.4356  21.4907  21.5276
    21.5478  21.5946  21.6242  21.6819  21.7000  21.7307  21.7406  21.7887
    21.8809  21.8997  21.9330  21.9849  22.0298  22.0705  22.1486  22.2408
    22.2871

          k = 0.0000 0.2488 0.0000 ( 32033 PWs)   bands (ev):

   -56.4582 -56.3517 -56.2305 -56.0676 -56.0125 -55.9414 -55.9234 -55.9198
   -55.9011 -55.8892 -55.8420 -55.7630 -55.7570 -55.6977 -55.6574 -55.6373
   -55.6303 -55.6101 -55.5869 -55.5803 -55.5711 -55.2561 -55.0021 -54.7042
   -22.1687 -21.7844 -21.3624 -21.1707 -20.6748 -20.6476 -20.5689 -20.4168
   -20.3605 -20.3213 -20.2757 -20.2379 -20.2142 -20.0202 -19.9905 -19.9453
   -19.2186 -18.9907 -18.8372 -10.3256 -10.0768 -10.0206  -9.7742  -9.3766
    -9.2821  -9.2205  -9.2144  -9.1723  -9.0780  -8.9798  -8.9704  -8.8768
    -8.8139  -8.7507  -8.5764  -8.4751  -8.0950  -7.8880  -7.8008  -7.6693
    -7.6230  -7.5664  -7.2427  -7.0648  -7.0444  -6.9835  -6.8688  -6.7082
    -6.6651  -6.5496  -6.3113  -6.1536  -6.0968  -6.0756  -5.9949  -5.8755
    -5.8434  -5.7682  -5.6732  -5.6195  -5.5317  -5.4022  -5.1744  -5.1236
    -5.0685  -4.9442  -4.8415  -4.7248  -4.7022  -4.6393  -4.5596  -4.4979
    -4.4484  -4.4151  -4.3445  -4.3122  -4.2908  -4.1316  -4.1023  -4.0541
    -3.9467  -3.9044  -3.7646  -3.6531  -3.5390  -3.4613  -3.3767  -3.1868
    -2.9928  -2.8908  -2.6436  -2.4057  -2.3621  -2.2293  -2.1252  -2.0898
    -1.8703  -1.8020  -1.7169  -1.5323  -1.4176  -1.2985  -1.1663  -0.7851
    -0.5489  -0.2157   0.1539   0.7408   0.8968   0.9293   1.0055   1.0214
     1.2497   1.3136   1.7778   1.7918   2.6640   3.5224   4.3888   4.8161
     4.8864   5.1051   5.5337   5.8297   5.8725   5.9521   6.2113   6.3861
     6.5289   6.6961   6.8104   6.9689   7.0361   7.1930   7.2442   7.3113
     7.4270   7.5100   7.6109   7.6398   7.7443   7.8920   8.0183   8.1619
     8.2704   8.3388   8.4173   8.4546   8.5322   8.5468   8.6752   8.8630
     8.9317   9.0036   9.0691   9.1682   9.2755   9.4252   9.5033   9.5311
     9.8240   9.8449   9.9712  10.0106  10.0877  10.1336  10.1728  10.1850
    10.3702  10.3889  10.4430  10.5933  10.6286  10.6526  10.8579  10.9038
    10.9129  11.0078  11.0351  11.2128  11.3199  11.3535  11.4536  11.5471
    11.5860  11.7485  11.8219  11.8811  12.0734  12.1462  12.2151  12.2726
    12.2998  12.3946  12.4133  12.5115  12.5819  12.6656  12.7345  12.8851
    13.0199  13.2075  13.2705  13.3598  13.4475  13.5300  13.5878  13.6136
    13.6937  13.7411  13.7466  13.8287  13.9003  14.0831  14.1496  14.2310
    14.2648  14.3662  14.3944  14.5528  14.5702  14.6359  14.6629  14.7247
    14.7979  14.8864  14.9597  15.1370  15.2354  15.2930  15.3372  15.3932
    15.4632  15.5325  15.6018  15.6562  15.7114  15.7234  15.7392  15.8302
    15.8787  15.9459  15.9997  16.0460  16.1243  16.1755  16.1787  16.2177
    16.2613  16.3382  16.3513  16.4079  16.4338  16.4430  16.4873  16.6009
    16.6349  16.6835  16.7505  16.7826  16.8901  16.9901  17.0691  17.1392
    17.2037  17.2540  17.3307  17.3815  17.5139  17.6503  17.6934  17.7623
    17.9534  18.0029  18.0490  18.1784  18.1918  18.2873  18.3638  18.4126
    18.4553  18.5252  18.5574  18.5939  18.6177  18.6720  18.7894  18.8544
    18.9499  18.9782  19.0123  19.0345  19.0891  19.1287  19.1787  19.1953
    19.3048  19.3367  19.3473  19.4413  19.4961  19.5083  19.6132  19.6396
    19.6523  19.6923  19.7825  19.8243  19.8614  19.9267  20.0774  20.1832
    20.2066  20.2429  20.3008  20.3641  20.3961  20.4338  20.4773  20.5436
    20.6254  20.7727  20.8144  20.8283  20.8584  20.9142  20.9823  21.0257
    21.0742  21.1372  21.2186  21.2385  21.2577  21.3686  21.4216  21.4655
    21.4780  21.4994  21.5889  21.6573  21.6816  21.7464  21.8681  21.9225
    21.9377

          k = 0.0000-0.4976 0.0000 ( 31948 PWs)   bands (ev):

   -56.4582 -56.3517 -56.2305 -56.0675 -56.0124 -55.9414 -55.9235 -55.9198
   -55.9012 -55.8891 -55.8421 -55.7626 -55.7569 -55.6979 -55.6574 -55.6373
   -55.6303 -55.6100 -55.5869 -55.5803 -55.5713 -55.2561 -55.0021 -54.7042
   -22.1461 -21.7790 -21.2553 -21.0474 -20.7995 -20.6769 -20.6043 -20.4623
   -20.3548 -20.3008 -20.2881 -20.2386 -20.2043 -20.0784 -20.0237 -19.9907
   -19.2166 -18.9916 -18.8378 -10.2726  -9.9190  -9.4532  -9.4179  -9.3642
    -9.3096  -9.2706  -9.1947  -9.1169  -9.0693  -8.9476  -8.9039  -8.8764
    -8.7650  -8.7309  -8.6197  -8.3706  -8.0935  -8.0043  -7.9314  -7.9152
    -7.6951  -7.5869  -7.3710  -7.2069  -7.0223  -6.9344  -6.7932  -6.6291
    -6.6171  -6.5543  -6.5174  -6.5108  -6.4624  -6.3125  -6.0853  -6.0520
    -5.9436  -5.8742  -5.7654  -5.4773  -5.4554  -5.3915  -5.2589  -5.1832
    -5.0831  -4.9210  -4.8188  -4.7874  -4.5748  -4.5274  -4.4999  -4.4449
    -4.4253  -4.4032  -4.3868  -4.3642  -4.1728  -4.0816  -4.0420  -3.9489
    -3.8629  -3.6895  -3.6607  -3.6317  -3.5883  -3.5647  -3.5062  -3.0749
    -2.9683  -2.9356  -2.6396  -2.4740  -2.4450  -2.4303  -2.3285  -2.1814
    -1.9642  -1.8621  -1.8264  -1.5545  -1.4696  -1.3661  -1.2057  -0.6836
    -0.5301   0.2424   0.4599   0.7153   0.8161   0.8364   1.1540   1.2886
     1.3713   1.4386   1.6811   1.7792   3.4965   3.8400   4.0390   4.7205
     4.9382   5.2048   5.4106   5.6704   5.7362   5.7432   6.0532   6.2179
     6.3723   6.5177   6.7065   6.7206   6.9885   7.0225   7.3045   7.4205
     7.4502   7.5198   7.5869   7.6936   7.9183   7.9828   8.0386   8.0542
     8.2281   8.3423   8.3647   8.5589   8.6404   8.6969   8.7962   8.8228
     8.8660   8.8973   9.0222   9.1222   9.1746   9.2138   9.2421   9.4620
     9.5558   9.5754   9.7121   9.8037   9.9797  10.0040  10.0325  10.0700
    10.2466  10.6998  10.7724  10.8426  10.8956  10.9476  11.0068  11.0794
    11.1342  11.2318  11.2733  11.3589  11.5120  11.5524  11.6090  11.6613
    11.9961  12.0080  12.0699  12.0940  12.1878  12.3009  12.3488  12.3789
    12.4905  12.5444  12.7067  12.7794  12.8114  12.8687  12.9177  12.9329
    12.9716  13.0115  13.0437  13.1457  13.2764  13.2941  13.5242  13.6292
    13.7042  13.8278  13.9115  14.0977  14.1200  14.2393  14.2858  14.3208
    14.3653  14.5426  14.5632  14.6618  14.8114  14.8908  14.9249  14.9484
    15.0418  15.0674  15.1222  15.1369  15.1760  15.4471  15.5480  15.5906
    15.6125  15.6370  15.6591  15.7603  15.7910  15.8411  15.9195  15.9393
    16.0345  16.0458  16.1217  16.1393  16.1851  16.2021  16.2372  16.3131
    16.3232  16.3380  16.3733  16.3843  16.3933  16.4019  16.4327  16.4493
    16.4994  16.5360  16.6517  16.6973  16.7748  16.7883  16.8273  16.8590
    16.9981  17.0797  17.1770  17.1834  17.2833  17.2941  17.3896  17.4302
    17.5055  17.5250  17.6258  17.7393  17.7628  17.8103  17.8397  17.9084
    17.9984  18.0039  18.1393  18.1629  18.2288  18.3453  18.3722  18.4540
    18.5300  18.6208  18.6331  18.7450  18.7807  18.9153  18.9487  19.0210
    19.1326  19.1450  19.2340  19.2405  19.3153  19.3261  19.4605  19.5264
    19.5761  19.6591  19.7275  19.7471  19.7743  19.8820  19.8923  19.9403
    19.9856  20.0417  20.1157  20.1975  20.2521  20.2753  20.3012  20.3642
    20.4010  20.4431  20.4692  20.4995  20.5383  20.6112  20.6488  20.6852
    20.7079  20.7983  20.8386  20.8671  20.8699  20.9677  21.0052  21.2174
    21.2509  21.2804  21.3167  21.4437  21.5215  21.5635  21.6620  21.7791
    21.7869

          k = 0.2500 0.0000 0.0000 ( 32013 PWs)   bands (ev):

   -56.4582 -56.3513 -56.2306 -56.0595 -56.0206 -55.9338 -55.9228 -55.9203
   -55.8970 -55.8939 -55.8489 -55.7626 -55.7580 -55.6975 -55.6574 -55.6363
   -55.6313 -55.6101 -55.5860 -55.5813 -55.5708 -55.2565 -55.0021 -54.7042
   -22.1313 -21.8107 -21.3486 -21.1535 -20.7954 -20.6412 -20.5367 -20.3921
   -20.3379 -20.3144 -20.2853 -20.2053 -20.1781 -20.0126 -20.0076 -19.9083
   -19.2483 -19.0414 -18.8409 -10.4498 -10.3128 -10.1147  -9.6898  -9.4562
    -9.3760  -9.3451  -9.1605  -9.0856  -9.0584  -8.9835  -8.7416  -8.6135
    -8.5903  -8.5594  -8.4995  -8.3035  -8.2767  -8.2334  -8.0278  -7.7276
    -7.6814  -7.6307  -7.3936  -7.0634  -6.9785  -6.8762  -6.7955  -6.7018
    -6.5235  -6.5103  -6.4410  -6.2412  -6.1870  -6.1486  -6.0553  -6.0116
    -5.8874  -5.6537  -5.6137  -5.5510  -5.4714  -5.3851  -5.3734  -5.3418
    -5.2091  -5.0864  -5.0667  -5.0170  -4.9246  -4.7638  -4.6271  -4.4856
    -4.4414  -4.4041  -4.3614  -4.3237  -4.1457  -4.0878  -3.9382  -3.8555
    -3.7374  -3.5741  -3.5333  -3.4478  -3.4132  -3.0707  -3.0058  -2.8182
    -2.7446  -2.6557  -2.6179  -2.5446  -2.4029  -2.3205  -2.1909  -2.1020
    -1.9392  -1.7725  -1.6864  -1.5911  -1.4428  -0.8418  -0.4859  -0.4482
    -0.3872  -0.3018  -0.1504   0.0450   0.3674   0.4078   0.8621   0.9087
     0.9960   1.2322   1.3423   1.8304   2.6931   3.6005   4.3992   4.8168
     4.8654   5.1085   5.5547   5.8272   5.9631   6.0571   6.1927   6.4703
     6.6508   6.7213   6.8533   6.9464   7.0851   7.1109   7.2370   7.2997
     7.4488   7.5449   7.6324   7.7003   7.8690   7.9520   8.0662   8.1224
     8.4339   8.4422   8.4700   8.5961   8.6442   8.7140   8.7691   8.8642
     8.9041   9.0519   9.1890   9.2722   9.3269   9.4157   9.6511   9.7060
     9.7635   9.8057   9.9612   9.9899  10.0246  10.1436  10.1560  10.2256
    10.2580  10.3451  10.3656  10.4374  10.5913  10.7254  10.7819  10.8743
    10.8809  10.9209  10.9512  11.0726  11.1774  11.2197  11.2913  11.3950
    11.5446  11.6029  11.7351  11.8155  11.9842  12.1181  12.1521  12.2434
    12.2791  12.3159  12.4577  12.5698  12.7039  12.7702  12.7954  12.9284
    13.0458  13.1080  13.1871  13.3064  13.4236  13.4860  13.5246  13.6080
    13.6375  13.6738  13.7123  13.7390  13.7918  13.9177  13.9498  14.0769
    14.1016  14.2094  14.2282  14.2473  14.3400  14.4526  14.5039  14.6110
    14.7394  14.8136  14.8979  15.0064  15.1590  15.2302  15.2897  15.4024
    15.4200  15.4335  15.4849  15.5775  15.6776  15.7019  15.7933  15.9042
    15.9285  15.9636  15.9695  16.1131  16.1623  16.1831  16.2064  16.3153
    16.3515  16.3629  16.3978  16.4188  16.4383  16.4707  16.5481  16.6463
    16.8233  16.8683  16.9163  17.0131  17.0865  17.1508  17.1742  17.2379
    17.2906  17.4627  17.5684  17.5906  17.6160  17.6896  17.8008  17.8595
    17.9266  18.0340  18.1023  18.2482  18.3446  18.3763  18.4401  18.5489
    18.5953  18.6530  18.6733  18.7428  18.8035  18.8582  18.8736  18.9026
    18.9423  18.9877  19.0408  19.0539  19.1187  19.1852  19.2168  19.2523
    19.3285  19.3720  19.4147  19.4636  19.5252  19.5525  19.6141  19.6620
    19.7061  19.7523  19.8100  19.8529  19.9076  19.9980  20.0110  20.0705
    20.1191  20.1587  20.2553  20.3366  20.4026  20.4665  20.5041  20.5445
    20.5908  20.6756  20.7212  20.7671  20.9099  20.9295  21.0129  21.0424
    21.1379  21.1727  21.1959  21.2268  21.2889  21.3407  21.3796  21.4632
    21.5350  21.5445  21.6299  21.6915  21.7916  21.8761  21.9329  21.9715
    22.0103

          k = 0.2500 0.2488 0.0000 ( 32025 PWs)   bands (ev):

   -56.4582 -56.3514 -56.2305 -56.0595 -56.0205 -55.9338 -55.9229 -55.9203
   -55.8970 -55.8940 -55.8490 -55.7622 -55.7578 -55.6977 -55.6575 -55.6363
   -55.6313 -55.6100 -55.5860 -55.5813 -55.5711 -55.2565 -55.0021 -54.7042
   -22.1144 -21.8047 -21.2667 -21.0712 -20.7481 -20.6131 -20.6052 -20.4421
   -20.4080 -20.3397 -20.2578 -20.2246 -20.1915 -20.0604 -20.0137 -19.9939
   -19.2475 -19.0414 -18.8405 -10.1969  -9.9515  -9.8924  -9.7591  -9.3715
    -9.3282  -9.3008  -9.0922  -9.0551  -9.0380  -8.9207  -8.8639  -8.7052
    -8.5944  -8.5433  -8.5171  -8.3480  -8.2106  -8.0128  -7.8503  -7.7566
    -7.7223  -7.6314  -7.4582  -7.0573  -6.9499  -6.9078  -6.8586  -6.7703
    -6.6810  -6.6444  -6.5457  -6.4849  -6.4459  -6.3816  -6.3092  -6.1552
    -6.0673  -5.9307  -5.8703  -5.7196  -5.6491  -5.5144  -5.4662  -5.2050
    -5.1580  -5.0751  -4.9839  -4.9284  -4.7786  -4.7183  -4.6375  -4.3841
    -4.3391  -4.2376  -4.1740  -4.0381  -3.9710  -3.8311  -3.7656  -3.7169
    -3.6575  -3.5494  -3.5073  -3.4842  -3.4185  -3.3066  -3.1814  -3.1427
    -2.9358  -2.6845  -2.5875  -2.4282  -2.3387  -2.2532  -2.1799  -2.1032
    -1.9478  -1.8155  -1.7111  -1.6183  -1.4902  -1.1197  -1.0228  -0.6652
    -0.3504  -0.1641   0.1037   0.3831   0.6081   0.7550   0.7885   0.9383
     1.1189   1.3159   1.3466   1.7473   3.0488   3.8064   4.6024   5.0004
     5.0328   5.0895   5.3354   5.6502   6.0500   6.1589   6.1849   6.3650
     6.4607   6.5451   6.6997   6.8537   6.9560   7.0162   7.1133   7.2087
     7.3602   7.4685   7.5088   7.5641   7.6672   7.8680   7.9017   7.9663
     8.1255   8.2227   8.2841   8.4508   8.5524   8.6367   8.6666   8.7480
     8.8584   8.9820   9.0899   9.2762   9.3438   9.4592   9.5144   9.5971
     9.6937   9.9248  10.0054  10.0803  10.2076  10.2634  10.3320  10.3735
    10.5256  10.6198  10.6747  10.7736  10.8126  10.9053  11.0327  11.0660
    11.1619  11.2039  11.3328  11.4572  11.4884  11.6967  11.7168  11.7663
    11.8375  11.9302  11.9639  12.0594  12.1100  12.1796  12.2431  12.3082
    12.3976  12.4736  12.4979  12.5408  12.6129  12.7343  12.8032  12.8395
    12.9091  12.9842  13.1465  13.1690  13.2285  13.4363  13.4812  13.5499
    13.6613  13.6970  13.7444  13.8591  13.8947  13.9498  14.0173  14.1063
    14.1807  14.2623  14.4184  14.4719  14.5558  14.6298  14.6918  14.8094
    14.8615  14.9881  15.0737  15.2356  15.3003  15.3399  15.3783  15.4337
    15.5248  15.5604  15.6179  15.6592  15.7019  15.7431  15.7816  15.8298
    15.9271  15.9748  16.0329  16.0982  16.1313  16.1697  16.1813  16.2068
    16.2800  16.3256  16.3949  16.4031  16.4070  16.4279  16.4581  16.5364
    16.5972  16.7094  16.7561  16.8442  16.9071  16.9359  16.9734  17.0832
    17.1314  17.1390  17.1857  17.1998  17.2409  17.2874  17.4067  17.4418
    17.4808  17.5517  17.5729  17.6145  17.6986  17.7665  17.8936  17.9373
    18.0249  18.0721  18.1161  18.2018  18.2720  18.3349  18.4280  18.4919
    18.5352  18.5814  18.6251  18.7090  18.7546  18.8191  18.8697  18.9496
    19.0090  19.1401  19.1864  19.2370  19.3121  19.3917  19.4397  19.4897
    19.6157  19.7370  19.7981  19.8865  19.9121  19.9410  19.9935  20.0566
    20.1058  20.1916  20.2502  20.2927  20.3227  20.3763  20.4226  20.4645
    20.6154  20.6932  20.8265  20.8923  20.9294  20.9694  21.0169  21.0831
    21.1700  21.2216  21.2672  21.3010  21.4232  21.4379  21.5041  21.5607
    21.6113  21.6561  21.7647  21.8087  21.8567  21.9456  22.0034  22.0519
    22.1199

          k = 0.2500-0.4976 0.0000 ( 32026 PWs)   bands (ev):

   -56.4582 -56.3514 -56.2305 -56.0595 -56.0205 -55.9338 -55.9229 -55.9203
   -55.8970 -55.8941 -55.8491 -55.7619 -55.7576 -55.6978 -55.6575 -55.6363
   -55.6313 -55.6099 -55.5860 -55.5812 -55.5714 -55.2564 -55.0022 -54.7042
   -22.0983 -21.7986 -21.1470 -20.9526 -20.7202 -20.6529 -20.6177 -20.4998
   -20.4819 -20.4010 -20.2540 -20.2442 -20.2075 -20.1018 -20.0591 -20.0127
   -19.2465 -19.0414 -18.8405 -10.1497  -9.7925  -9.3862  -9.2550  -9.2458
    -9.1868  -9.1601  -9.1436  -9.0709  -9.0221  -8.9532  -8.9101  -8.8337
    -8.5955  -8.5772  -8.4380  -8.4078  -8.1678  -7.9631  -7.8651  -7.6410
    -7.6050  -7.5686  -7.5198  -7.4813  -7.4086  -7.2304  -7.0989  -6.9577
    -6.8358  -6.7157  -6.6486  -6.5727  -6.5102  -6.4153  -6.3254  -6.2428
    -6.1522  -6.1112  -5.9580  -5.7747  -5.6184  -5.5631  -5.5146  -5.3946
    -5.2718  -4.9379  -4.8394  -4.7149  -4.6735  -4.6044  -4.5411  -4.3103
    -4.2489  -4.0849  -4.0543  -3.9936  -3.9676  -3.8754  -3.8144  -3.7300
    -3.6912  -3.4792  -3.4130  -3.3737  -3.3342  -3.2793  -3.1840  -3.0970
    -3.0308  -2.7441  -2.5471  -2.4752  -2.4332  -2.2931  -2.2580  -2.1466
    -1.9846  -1.9113  -1.7621  -1.6596  -1.5339  -1.3620  -1.2286  -0.5915
    -0.3422   0.0671   0.1420   0.3976   0.4842   0.6947   1.1859   1.2257
     1.2367   1.3649   1.4288   1.5921   3.7954   4.1052   4.2569   5.0338
     5.1835   5.3754   5.4539   5.6287   5.9101   5.9263   5.9738   5.9922
     6.2295   6.5991   6.6536   6.7990   6.8290   6.9308   6.9851   7.2023
     7.3409   7.4716   7.5131   7.6233   7.6571   7.7001   7.8153   7.8891
     7.9331   8.0663   8.1817   8.2952   8.4359   8.4753   8.5564   8.6349
     8.6918   8.8108   8.8536   9.0456   9.0623   9.3113   9.3456   9.6072
     9.7984   9.9648   9.9916  10.1049  10.2534  10.6142  10.6754  10.7255
    10.7777  10.9303  10.9998  11.0737  11.1318  11.2529  11.3262  11.3387
    11.4385  11.4900  11.5388  11.6420  11.6548  11.7558  11.8212  11.9769
    12.0363  12.1084  12.1812  12.2412  12.2925  12.3798  12.4599  12.5208
    12.5786  12.7049  12.8233  12.8577  12.9025  12.9491  13.0247  13.0531
    13.1250  13.1549  13.2423  13.3901  13.4702  13.5554  13.6251  13.6355
    13.6908  13.7735  13.8116  13.9195  13.9689  14.0395  14.0897  14.1168
    14.2233  14.2752  14.3126  14.4056  14.4982  14.5953  14.6131  14.6563
    14.7315  14.7803  14.8073  14.9245  14.9897  15.0396  15.1373  15.1910
    15.2597  15.3817  15.4213  15.5156  15.6445  15.6935  15.7154  15.7694
    15.7879  15.8585  15.9339  15.9821  16.0040  16.1027  16.1242  16.1644
    16.1883  16.2387  16.2790  16.3428  16.3834  16.3941  16.4074  16.4329
    16.4625  16.5238  16.5387  16.6002  16.6737  16.6988  16.7200  16.7749
    16.8936  16.9745  16.9995  17.1257  17.1475  17.1818  17.2445  17.2992
    17.3177  17.4389  17.4930  17.5603  17.6653  17.7156  17.7598  17.8238
    17.8913  17.9948  18.0899  18.1424  18.1550  18.2181  18.2899  18.3269
    18.3747  18.3984  18.4201  18.5014  18.6185  18.6618  18.6940  18.8206
    18.8627  18.9086  18.9872  19.0180  19.0562  19.1427  19.1914  19.2639
    19.3101  19.3748  19.4165  19.4828  19.5573  19.6124  19.7034  19.7966
    19.9437  20.0442  20.0647  20.1347  20.2218  20.2637  20.3229  20.3921
    20.4430  20.4938  20.5644  20.6357  20.6936  20.7769  20.8388  20.8524
    20.9316  20.9990  21.1760  21.2099  21.2955  21.3994  21.4406  21.4735
    21.5377  21.6049  21.6534  21.8263  21.8312  21.9710  22.0013  22.1137
    22.1377

          k =-0.5000 0.0000 0.0000 ( 31984 PWs)   bands (ev):

   -56.4582 -56.3511 -56.2306 -56.0403 -56.0398 -55.9217 -55.9215 -55.9160
   -55.9146 -55.8836 -55.8594 -55.7613 -55.7594 -55.6974 -55.6575 -55.6340
   -55.6336 -55.6100 -55.5845 -55.5830 -55.5708 -55.2568 -55.0021 -54.7042
   -22.0509 -21.8501 -21.1050 -21.1009 -20.9192 -20.8981 -20.4351 -20.3962
   -20.3520 -20.2921 -20.2077 -20.1986 -20.0998 -20.0856 -20.0363 -20.0224
   -19.2662 -19.1041 -18.8435 -10.0688 -10.0240  -9.9375  -9.8849  -9.8116
    -9.7789  -9.1998  -9.1831  -8.9538  -8.9312  -8.8587  -8.8561  -8.7535
    -8.6942  -8.2462  -8.2352  -7.9307  -7.9040  -7.8736  -7.8258  -7.6109
    -7.5515  -7.5379  -7.4265  -7.3905  -7.2447  -7.2172  -7.1622  -6.9133
    -6.8915  -6.7878  -6.7233  -6.4185  -6.3050  -6.2698  -6.1870  -6.1363
    -6.1197  -6.0090  -5.8865  -5.7664  -5.6203  -5.5195  -5.4866  -5.3409
    -5.1296  -5.0902  -4.9747  -4.9454  -4.8639  -4.6828  -4.6265  -4.4518
    -4.4000  -4.3311  -4.2770  -4.1370  -4.0917  -3.8982  -3.7980  -3.5613
    -3.5353  -3.4571  -3.4334  -3.1651  -3.0735  -3.0069  -2.7964  -2.7502
    -2.6720  -2.6163  -2.5984  -2.4496  -2.3752  -2.3639  -2.1527  -2.0696
    -2.0240  -1.9722  -1.8484  -1.6042  -1.4646  -0.4919  -0.2926  -0.2786
    -0.1571  -0.0700   0.0742   0.1614   0.1622   0.2775   0.3169   0.4144
     0.4951   1.2044   1.3278   1.5648   3.6651   3.6680   4.1363   4.7667
     5.0148   5.2195   5.4715   5.6886   5.7322   5.8060   6.1722   6.3672
     6.3942   6.5701   6.6469   6.7431   6.9539   7.0924   7.3986   7.4235
     7.5164   7.6876   7.7137   7.9356   7.9495   8.0618   8.1743   8.3085
     8.3703   8.5731   8.6177   8.7122   8.7293   8.8682   8.9188   9.0030
     9.0368   9.1178   9.1702   9.2016   9.2623   9.3355   9.3801   9.4005
     9.4818   9.5786   9.6305   9.7317   9.8307   9.8576  10.1107  10.1494
    10.2920  10.3668  10.6294  10.6869  10.7602  10.7748  10.8168  10.8365
    11.1575  11.1810  11.2964  11.4344  11.4940  11.5086  11.5439  11.5568
    11.7500  11.7880  11.8932  11.9118  11.9961  12.1102  12.2481  12.3946
    12.4418  12.4803  12.5224  12.5362  12.6937  12.7182  12.8540  12.8804
    12.8900  12.9262  13.0065  13.0481  13.0934  13.1299  13.2766  13.3052
    13.5054  13.5751  13.6702  13.7601  13.8074  13.9191  14.0108  14.1149
    14.2147  14.2347  14.3230  14.4240  14.5449  14.5906  14.6677  14.7769
    15.0173  15.0340  15.1033  15.2802  15.4004  15.5214  15.5267  15.6083
    15.6345  15.6601  15.7318  15.7797  15.7918  15.9206  15.9724  16.0622
    16.1321  16.1409  16.1599  16.1917  16.2056  16.2323  16.2841  16.3324
    16.3632  16.3655  16.3962  16.4148  16.4265  16.4394  16.4474  16.4615
    16.5396  16.6695  16.6853  16.8268  16.8465  16.9377  17.0924  17.1316
    17.2011  17.2133  17.2536  17.2672  17.3539  17.5466  17.6111  17.6336
    17.7656  17.7979  17.8317  17.9013  17.9490  17.9911  18.0675  18.1705
    18.2080  18.3129  18.3340  18.4072  18.4401  18.4797  18.5918  18.6316
    18.7573  18.7836  18.8176  18.8278  18.8494  18.9679  19.0845  19.1063
    19.1508  19.2622  19.3033  19.3445  19.4113  19.4647  19.5382  19.5595
    19.5815  19.5872  19.6538  19.7602  19.8129  19.8381  19.9261  19.9611
    19.9926  20.0416  20.0914  20.1602  20.2495  20.2850  20.3301  20.3838
    20.4151  20.4365  20.5056  20.5278  20.5812  20.5977  20.6388  20.6726
    20.7347  20.7596  20.8447  20.8516  20.9414  21.1533  21.1675  21.2834
    21.3184  21.3658  21.4239  21.4331  21.6238  21.6666  21.7042  21.8100
    21.8436

          k =-0.5000 0.2488 0.0000 ( 32052 PWs)   bands (ev):

   -56.4582 -56.3511 -56.2305 -56.0403 -56.0398 -55.9217 -55.9216 -55.9160
   -55.9147 -55.8837 -55.8595 -55.7610 -55.7591 -55.6976 -55.6575 -55.6340
   -55.6336 -55.6100 -55.5843 -55.5830 -55.5712 -55.2568 -55.0021 -54.7042
   -22.0440 -21.8404 -21.0232 -21.0197 -20.8360 -20.8136 -20.5149 -20.4821
   -20.3795 -20.3494 -20.2413 -20.2225 -20.1643 -20.1091 -20.0577 -20.0532
   -19.2653 -19.1032 -18.8428  -9.9743  -9.8352  -9.6582  -9.6438  -9.6039
    -9.5604  -9.1921  -9.1752  -8.9310  -8.8375  -8.7542  -8.7321  -8.6464
    -8.5899  -8.3154  -8.2811  -8.1014  -8.0623  -7.9582  -7.9206  -7.7947
    -7.7765  -7.6338  -7.5934  -7.4205  -7.3236  -7.1967  -7.1230  -6.9735
    -6.9225  -6.7203  -6.6869  -6.5712  -6.4155  -6.3803  -6.2986  -6.2645
    -6.1898  -6.1593  -6.0351  -5.9617  -5.8434  -5.6846  -5.5292  -5.4212
    -5.3681  -5.2076  -5.0101  -4.9402  -4.8623  -4.7127  -4.5353  -4.3250
    -4.1289  -4.0703  -4.0307  -3.7964  -3.7825  -3.6574  -3.5652  -3.5400
    -3.5082  -3.4347  -3.3765  -3.3413  -3.2372  -3.1043  -2.9479  -2.7999
    -2.7026  -2.6511  -2.4920  -2.4759  -2.3390  -2.3008  -2.2229  -2.1357
    -2.0255  -1.9961  -1.9220  -1.6281  -1.4425  -0.6262  -0.5826  -0.4768
    -0.3138  -0.2168  -0.1527   0.1518   0.1869   0.4969   0.5844   0.8112
     0.8330   1.1558   1.3646   1.6280   3.9325   3.9485   4.2568   5.0076
     5.2353   5.4299   5.6277   5.6752   5.7335   5.9521   5.9750   6.0295
     6.2943   6.6155   6.6871   6.7407   6.7920   6.9017   7.0814   7.1820
     7.3069   7.5431   7.5731   7.6261   7.6779   7.7875   7.8591   7.9691
     8.0558   8.1613   8.1823   8.4022   8.4577   8.5398   8.5824   8.7435
     8.8167   9.0157   9.1737   9.1922   9.3300   9.3944   9.5370   9.5545
     9.6863   9.8952  10.0021  10.0202  10.3672  10.4565  10.5316  10.5580
    10.7699  10.7829  10.9312  10.9439  11.0140  11.0394  11.1447  11.2238
    11.3316  11.3904  11.5204  11.5616  11.6814  11.7679  11.8069  11.8621
    12.0617  12.0920  12.1495  12.1996  12.2651  12.3799  12.4937  12.5474
    12.5898  12.6541  12.7025  12.7549  12.8684  12.8751  12.9254  12.9956
    13.0789  13.1267  13.2314  13.2785  13.3104  13.3695  13.4017  13.5071
    13.5319  13.6153  13.7304  13.8559  13.9272  14.0169  14.0561  14.0715
    14.1686  14.2535  14.2774  14.3672  14.4435  14.4931  14.5424  14.5522
    14.6057  14.7333  14.7937  14.8915  14.9344  15.0039  15.1337  15.2322
    15.2829  15.3246  15.5552  15.6163  15.6839  15.7044  15.7306  15.7636
    15.8706  15.9177  15.9908  16.0318  16.0895  16.1316  16.1738  16.1908
    16.2180  16.2498  16.2870  16.3424  16.3882  16.4037  16.4164  16.4503
    16.4638  16.5386  16.5497  16.6219  16.6433  16.6935  16.8088  16.8552
    17.0034  17.0784  17.1136  17.1506  17.2258  17.2408  17.3028  17.3539
    17.3892  17.4688  17.5724  17.5991  17.6389  17.8098  17.8818  17.9426
    18.0221  18.0349  18.0964  18.1176  18.1767  18.2309  18.2553  18.3755
    18.4074  18.4680  18.5121  18.5998  18.6089  18.7401  18.7769  18.8535
    18.8982  18.9319  19.0319  19.0645  19.2173  19.2491  19.3013  19.3354
    19.3903  19.4786  19.5232  19.6156  19.6542  19.7194  19.7923  19.8424
    19.8791  19.9441  20.0015  20.1003  20.2690  20.3145  20.3404  20.4711
    20.5303  20.5892  20.6875  20.7574  20.7961  20.8822  20.9646  21.0157
    21.0470  21.0939  21.1287  21.2431  21.2727  21.4061  21.4776  21.5412
    21.6873  21.7126  21.7356  21.7868  21.8521  21.8867  21.9497  22.0181
    22.0727

          k =-0.5000-0.4976 0.0000 ( 31956 PWs)   bands (ev):

   -56.4581 -56.3511 -56.2305 -56.0403 -56.0398 -55.9217 -55.9215 -55.9160
   -55.9146 -55.8838 -55.8596 -55.7607 -55.7588 -55.6977 -55.6576 -55.6340
   -55.6336 -55.6099 -55.5841 -55.5830 -55.5715 -55.2568 -55.0022 -54.7042
   -22.0373 -21.8311 -20.8764 -20.8718 -20.7340 -20.7263 -20.5778 -20.5726
   -20.5211 -20.5131 -20.2684 -20.2439 -20.2109 -20.1284 -20.0729 -20.0642
   -19.2642 -19.1024 -18.8423  -9.9426  -9.7868  -9.2682  -9.2593  -9.2250
    -9.1245  -9.1157  -9.0443  -8.8689  -8.8115  -8.6357  -8.5624  -8.5495
    -8.5114  -8.4465  -8.3868  -8.3592  -8.2771  -8.2430  -8.2048  -7.8824
    -7.7533  -7.6533  -7.6280  -7.3983  -7.3266  -7.1620  -7.1316  -7.0606
    -7.0516  -6.9857  -6.9439  -6.9348  -6.7353  -6.7065  -6.5082  -6.4182
    -6.4023  -6.3430  -6.0462  -5.9533  -5.7302  -5.6785  -5.5223  -5.3726
    -5.3145  -5.1247  -4.9668  -4.8398  -4.8110  -4.6912  -4.4084  -4.2497
    -4.0434  -3.9808  -3.8098  -3.6210  -3.6103  -3.5987  -3.5221  -3.4700
    -3.4641  -3.3461  -3.3097  -3.2969  -3.2104  -3.1562  -3.1173  -2.8181
    -2.7082  -2.6992  -2.4870  -2.4334  -2.3271  -2.2448  -2.2257  -2.1944
    -2.0932  -2.0704  -1.9411  -1.6570  -1.4365  -0.9743  -0.8467  -0.8229
    -0.5187  -0.3085  -0.1119   0.2117   0.2314   0.8062   0.9149   0.9514
     1.0296   1.3507   1.3787   1.4778   4.3778   4.5075   4.5112   4.9115
     4.9341   5.6071   5.7600   5.8527   5.8854   6.0644   6.1353   6.1795
     6.3118   6.5064   6.5214   6.6111   6.6413   6.6492   6.6600   6.7528
     7.0651   7.1816   7.2886   7.3441   7.4592   7.5220   7.5679   7.5781
     7.8835   8.0281   8.2667   8.3236   8.3337   8.5251   8.5273   8.8511
     8.8618   8.9519   8.9943   9.2600   9.2952   9.3444   9.4034   9.4916
     9.5903   9.7416  10.1178  10.2144  10.3491  10.5789  10.6358  10.6574
    10.7654  10.7908  11.2044  11.2561  11.4293  11.5473  11.6585  11.6873
    11.8527  11.9119  11.9216  11.9725  12.0978  12.1600  12.3237  12.3532
    12.5245  12.5972  12.6227  12.7163  12.7953  12.8024  12.8646  12.8690
    13.0787  13.1065  13.1252  13.1401  13.2065  13.2691  13.2898  13.3143
    13.3356  13.3483  13.5261  13.5415  13.5683  13.5889  13.6458  13.6540
    13.6823  13.7338  13.7701  13.8031  13.8346  13.8392  13.8657  13.9171
    13.9678  13.9836  14.0242  14.0598  14.2846  14.3295  14.3862  14.4678
    14.5088  14.6208  14.6668  14.6937  14.7016  14.7687  14.7964  14.8283
    14.8806  14.9043  14.9535  14.9768  15.0211  15.0860  15.2270  15.2481
    15.2913  15.3191  15.4158  15.4353  15.5138  15.5677  15.6218  15.6859
    15.7500  15.7742  15.8446  16.1112  16.1709  16.1737  16.1881  16.3436
    16.3627  16.3847  16.3966  16.4231  16.4485  16.4595  16.4777  16.5271
    16.5688  16.5934  16.6398  16.6902  16.7806  17.0263  17.0933  17.1882
    17.2405  17.2657  17.3998  17.5441  17.6093  17.6709  17.7541  17.8006
    17.8771  17.9214  17.9640  17.9770  18.1396  18.2656  18.3727  18.4740
    18.5381  18.5915  18.6247  18.7778  18.8329  18.8887  18.9266  18.9651
    19.1179  19.1864  19.2581  19.3392  19.3697  19.5037  19.5995  19.6841
    19.7019  19.7699  19.8481  19.9284  19.9785  20.0323  20.1109  20.1744
    20.2537  20.3220  20.4342  20.4953  20.5099  20.5170  20.5697  20.6613
    20.6751  20.7198  20.7837  20.8289  20.8613  20.8817  21.0007  21.0408
    21.0597  21.1056  21.1410  21.1741  21.2390  21.2547  21.2877  21.2891
    21.3594  21.3953  21.4296  21.4973  21.5256  21.6270  21.6474  21.7075
    21.7336

          k =-0.2500 0.2488 0.0000 ( 32025 PWs)   bands (ev):

   -56.4582 -56.3514 -56.2305 -56.0595 -56.0205 -55.9338 -55.9229 -55.9203
   -55.8970 -55.8940 -55.8490 -55.7623 -55.7578 -55.6976 -55.6575 -55.6363
   -55.6313 -55.6100 -55.5860 -55.5813 -55.5711 -55.2565 -55.0021 -54.7042
   -22.1144 -21.8047 -21.2666 -21.0710 -20.7502 -20.6123 -20.6064 -20.4360
   -20.4059 -20.3398 -20.2653 -20.2244 -20.1917 -20.0628 -20.0101 -19.9935
   -19.2475 -19.0415 -18.8405 -10.1963  -9.9500  -9.8925  -9.7507  -9.3730
    -9.3557  -9.2991  -9.0941  -9.0475  -9.0165  -8.9194  -8.8486  -8.7346
    -8.5947  -8.5631  -8.5063  -8.3486  -8.2235  -8.0450  -7.8499  -7.7680
    -7.6804  -7.5592  -7.4310  -7.0552  -6.9911  -6.9181  -6.8666  -6.7498
    -6.7059  -6.6704  -6.5995  -6.4760  -6.4095  -6.3706  -6.3196  -6.1173
    -6.0717  -5.9328  -5.8770  -5.7069  -5.6636  -5.5417  -5.4832  -5.2213
    -5.1426  -5.0603  -4.9652  -4.8941  -4.8085  -4.7252  -4.6081  -4.4074
    -4.3161  -4.2355  -4.1761  -4.0281  -3.9610  -3.8278  -3.7743  -3.6981
    -3.6659  -3.5724  -3.5054  -3.4580  -3.4317  -3.4009  -3.1440  -3.1191
    -2.9452  -2.6877  -2.5711  -2.4262  -2.3430  -2.2675  -2.1854  -2.0725
    -1.9496  -1.8159  -1.7106  -1.6208  -1.4911  -1.1287  -1.0229  -0.6650
    -0.3523  -0.1613   0.1033   0.3826   0.6058   0.7570   0.7916   0.9381
     1.1194   1.3143   1.3470   1.7475   3.0470   3.8051   4.6041   5.0123
     5.0452   5.1215   5.3379   5.6493   6.0485   6.1560   6.1830   6.3074
     6.4398   6.5347   6.6781   6.8449   6.9617   7.0122   7.1003   7.2026
     7.3642   7.4693   7.5376   7.5841   7.6695   7.8607   7.9168   8.0060
     8.1299   8.2252   8.2850   8.4278   8.5436   8.6418   8.6694   8.7413
     8.8344   8.9716   9.1293   9.2909   9.3510   9.4576   9.5250   9.5822
     9.7018   9.8650   9.9977  10.1236  10.2007  10.2618  10.3216  10.3805
    10.5281  10.5819  10.6582  10.7771  10.8122  10.9413  11.0392  11.0748
    11.1721  11.2068  11.3541  11.4459  11.4801  11.7000  11.7177  11.7727
    11.8413  11.9448  11.9780  12.0561  12.1281  12.1974  12.2516  12.3247
    12.3987  12.4513  12.5057  12.5640  12.6336  12.7298  12.8158  12.8648
    12.9158  13.0163  13.1411  13.1637  13.2132  13.4012  13.4899  13.5295
    13.6050  13.6887  13.7537  13.8435  13.8847  13.9473  14.0109  14.1133
    14.1679  14.2524  14.4077  14.4650  14.5310  14.6198  14.7237  14.7930
    14.8597  14.9297  15.0448  15.1974  15.2301  15.3212  15.3966  15.4422
    15.5178  15.5694  15.6133  15.6549  15.6870  15.7532  15.7799  15.8219
    15.8864  15.9920  16.0388  16.0888  16.1387  16.1690  16.1907  16.2038
    16.2533  16.3397  16.3900  16.4044  16.4081  16.4239  16.4577  16.4996
    16.5883  16.7320  16.7973  16.8535  16.9051  16.9177  17.0101  17.0913
    17.1273  17.1806  17.1920  17.2049  17.2465  17.2978  17.3986  17.4583
    17.5010  17.5511  17.5818  17.6171  17.7237  17.7686  17.8805  17.9429
    18.0454  18.0787  18.1246  18.2075  18.2664  18.3623  18.4553  18.4999
    18.5848  18.6127  18.6937  18.7072  18.7994  18.8246  18.8949  19.0097
    19.0283  19.1396  19.1639  19.1957  19.3134  19.3556  19.4168  19.4379
    19.6317  19.7465  19.8161  19.8774  19.9322  19.9444  19.9802  20.0525
    20.1046  20.1887  20.2311  20.2926  20.3494  20.3651  20.4876  20.5632
    20.6356  20.6788  20.7547  20.8230  20.9092  20.9752  21.0116  21.0755
    21.0828  21.2244  21.2690  21.3734  21.4191  21.4711  21.5183  21.5568
    21.6053  21.6558  21.7220  21.7811  21.8199  21.8836  21.9775  22.0899
    22.1170

     the Fermi energy is    -1.6671 ev

!    total energy              =   -2280.85014027 Ry
     Harris-Foulkes estimate   =   -2280.85014090 Ry
     estimated scf accuracy    <       0.00000067 Ry

     The total energy is the sum of the following terms:

     one-electron contribution =  -23635.91359930 Ry
     hartree contribution      =   11857.91444589 Ry
     xc contribution           =    -572.00329645 Ry
     ewald contribution        =   10069.15257164 Ry
     Hubbard energy            =       0.00000000 Ry
     smearing contrib. (-TS)   =      -0.00026205 Ry

     convergence has been achieved in  33 iterations

     Forces acting on atoms (Ry/au):


     negative rho (up, down):  0.158E+01 0.000E+00
     atom    1 type  1   force =    -0.00853027   -0.00454305    0.00026218
     atom    2 type  1   force =     0.00014046    0.00415483    0.00053090
     atom    3 type  2   force =     0.01374906    0.00688898    0.00016183
     atom    4 type  2   force =     0.01081926    0.00456663    0.00009274
     atom    5 type  1   force =     0.00125323   -0.00492452   -0.00009096
     atom    6 type  1   force =    -0.00019434   -0.00183906   -0.00018556
     atom    7 type  1   force =     0.00011603   -0.00088170   -0.00078787
     atom    8 type  1   force =    -0.00416890    0.00264965    0.00016280
     atom    9 type  2   force =     0.00552712   -0.00450394    0.00019048
     atom   10 type  2   force =    -0.00002397   -0.01656456   -0.00077602
     atom   11 type  1   force =    -0.00637962    0.00178500   -0.00017062
     atom   12 type  1   force =    -0.01021309    0.01269622   -0.00035687
     atom   13 type  1   force =    -0.00111851   -0.00817128    0.00022344
     atom   14 type  1   force =    -0.00888857   -0.00338102    0.00010088
     atom   15 type  1   force =     0.00024740    0.00172032    0.00057465
     atom   16 type  2   force =    -0.01445955    0.00682916    0.00001783
     atom   17 type  2   force =     0.01076600    0.00473690    0.00003161
     atom   18 type  1   force =     0.00114936   -0.00488551   -0.00008738
     atom   19 type  1   force =     0.00006315   -0.00176713   -0.00018743
     atom   20 type  1   force =     0.00007135   -0.00295774   -0.00023698
     atom   21 type  1   force =    -0.00399310    0.00276020    0.00022201
     atom   22 type  2   force =    -0.00171577   -0.00440295   -0.00001670
     atom   23 type  2   force =    -0.00025195    0.01100545   -0.00060655
     atom   24 type  1   force =     0.00647936    0.00182586   -0.00017857
     atom   25 type  1   force =     0.01034970    0.01267602   -0.00033579
     atom   26 type  1   force =    -0.00114619   -0.01446746    0.00010143
     atom   27 type  3   force =    -0.00000790   -0.00030710    0.00028916
     atom   28 type  3   force =    -0.00002482    0.00017873   -0.00003245
     atom   29 type  3   force =     0.00013192   -0.00043582    0.00012043
     atom   30 type  3   force =     0.00023706   -0.00071440    0.00015319
     atom   31 type  1   force =     0.00001607    0.00027327    0.00081418

     Total force =     0.002167     Total SCF correction =     0.002879
     SCF correction compared to forces is large: reduce conv_thr to get better values

     BFGS Geometry Optimization

     bfgs converged in   1 scf cycles and   0 bfgs steps
     (criteria: energy < 0.10E-03, force < 0.10E-02)

     End of BFGS Geometry Optimization

     Final energy   =   -2280.8501402716 Ry
Begin final coordinates

ATOMIC_POSITIONS (crystal)
O0       0.000000000   0.000000000   0.377710000    0   0   1
O0       0.000000000   0.500000000   0.401630000    0   0   1
Pt1      0.250000000   0.500000000   0.451240000    0   0   1
Pt1      0.000000000   0.000000000   0.452710000    0   0   1
O0       0.250000000   0.810000000   0.443390000    0   0   1
O0       0.250000000   0.190000000   0.460080000    0   0   1
O0       0.000000000   0.500000000   0.496810000    0   0   1
O0       0.000000000   0.000000000   0.529700000    0   0   1
Pt1      0.250000000   0.000000000   0.576070000    0   0   1
Pt1      0.000000000   0.500000000   0.575350000    0   0   1
O0       0.250000000   0.690000000   0.566120000    0   0   1
O0       0.250000000   0.310000000   0.585770000    0   0   1
O0       0.000000000   0.000000000   0.621380000    0   0   1
O0       0.500000000   0.000000000   0.377790000    0   0   1
O0       0.500000000   0.500000000   0.400880000    0   0   1
Pt1      0.750000000   0.500000000   0.451250000    0   0   1
Pt1      0.500000000   0.000000000   0.452720000    0   0   1
O0       0.750000000   0.810000000   0.443430000    0   0   1
O0       0.750000000   0.190000000   0.460070000    0   0   1
O0       0.500000000   0.500000000   0.498220000    0   0   1
O0       0.500000000   0.000000000   0.529560000    0   0   1
Pt1      0.750000000   0.000000000   0.576080000    0   0   1
Pt1      0.500000000   0.500000000   0.577870000    0   0   1
O0       0.750000000   0.690000000   0.566110000    0   0   1
O0       0.750000000   0.310000000   0.585780000    0   0   1
O0       0.500000000   0.000000000   0.621350000    0   0   1
H2       0.000110000   0.639500000   0.385650000
H2       0.500180000   0.640020000   0.385330000
H2       0.142660000   0.036320000   0.367580000
H2       0.641920000   0.038690000   0.367580000
O0       0.500090000   0.572600000   0.644460000
End final coordinates



     init_run     :    115.09s CPU    117.87s WALL (       1 calls)
     electrons    :   6912.14s CPU   7151.27s WALL (       1 calls)
     forces       :    132.18s CPU    134.34s WALL (       1 calls)

     Called by init_run:
     wfcinit      :     42.38s CPU     43.58s WALL (       1 calls)
     potinit      :      8.67s CPU      8.94s WALL (       1 calls)

     Called by electrons:
     c_bands      :   4101.35s CPU   4253.21s WALL (      33 calls)
     sum_band     :   1175.65s CPU   1215.85s WALL (      33 calls)
     v_of_rho     :     40.50s CPU     44.04s WALL (      34 calls)
     newd         :   1614.49s CPU   1633.16s WALL (      34 calls)
     mix_rho      :      6.85s CPU      7.08s WALL (      33 calls)

     Called by c_bands:
     init_us_2    :      6.43s CPU      6.52s WALL (     210 calls)
     cegterg      :   4041.43s CPU   4165.27s WALL (      99 calls)

     Called by *egterg:
     h_psi        :   2041.47s CPU   2114.95s WALL (     365 calls)
     s_psi        :    229.04s CPU    233.06s WALL (     371 calls)
     g_psi        :      5.21s CPU      5.21s WALL (     263 calls)
     cdiaghg      :    578.79s CPU    581.35s WALL (     362 calls)

     Called by h_psi:
     add_vuspsi   :    226.00s CPU    230.54s WALL (     365 calls)
     vhpsi        :    205.04s CPU    208.34s WALL (     365 calls)

     General routines
     calbec       :    498.42s CPU    505.36s WALL (    1777 calls)
     fft          :     45.68s CPU     53.63s WALL (     551 calls)
     ffts         :      0.62s CPU      0.63s WALL (      67 calls)
     fftw         :   1219.62s CPU   1299.50s WALL (  202231 calls)
     interpolate  :      5.80s CPU      5.96s WALL (      67 calls)
     davcio       :      0.02s CPU      2.71s WALL (     213 calls)

     Parallel routines
     fft_scatter  :    430.30s CPU    514.47s WALL (  202849 calls)
     Hubbard U routines
     new_ns       :     46.13s CPU     48.51s WALL (      33 calls)
     vhpsi        :    205.04s CPU    208.34s WALL (     365 calls)
     force_hub    :     38.22s CPU     39.51s WALL (       1 calls)

     PWSCF        :     1h59m CPU        2h 3m WALL


   This run was terminated on:   4: 5:40  10May2014            

=------------------------------------------------------------------------------=
   JOB DONE.
=------------------------------------------------------------------------------=
---------------------------------------
Running PBS batch system epilogue script
Job id: 351067.audhumbla.fysik.dtu.dk
Username: zhonxu
Groupname: campgst
Jobname: PtO2/Eads-2-layers/O-U-0.0
Sessionid: 16855
Resources limits: neednodes=2:ppn=8:xeon8,nodes=2:ppn=8:xeon8,walltime=48:00:00
Resources used: cput=32:51:08,mem=18549240kb,vmem=22207316kb,walltime=02:03:28
Queuename: verylong
Accounting:
This job has allocated the following 16 nodes:
d101 d101 d101 d101 d101 d101 d101 d101 d028 d028 d028 d028 d028 d028 d028 d028
Finished epilogue job 351067.audhumbla.fysik.dtu.dk for zhonxu
