
     Program PWSCF v.5.0.2 (svn rev. 9656) starts on 24Jan2014 at 15:47:26 

     This program is part of the open-source Quantum ESPRESSO suite
     for quantum simulation of materials; please cite
         "P. Giannozzi et al., J. Phys.:Condens. Matter 21 395502 (2009);
          URL http://www.quantum-espresso.org", 
     in publications or presentations arising from this work. More details at
     http://www.quantum-espresso.org/quote.php

     Parallel version (MPI), running on     4 processors
     R & G space division:  proc/nbgrp/npool/nimage =       4

     Current dimensions of program PWSCF are:
     Max number of different atomic species (ntypx) = 10
     Max number of k-points (npk) =  40000
     Max angular momentum in pseudopotentials (lmaxx) =  3
     Reading input from RhO2-v-1.00.in

     Subspace diagonalization in iterative solution of the eigenvalue problem:
     a serial algorithm will be used


     Parallelization info
     --------------------
     sticks:   dense  smooth     PW     G-vecs:    dense   smooth      PW
     Min         765     243     73                20509     3717     609
     Max         766     244     74                20510     3723     612
     Sum        3061     973    293                82037    14883    2441



     bravais-lattice index     =            0
     lattice parameter (alat)  =       8.7695  a.u.
     unit-cell volume          =     434.6265 (a.u.)^3
     number of atoms/cell      =            6
     number of atomic types    =            2
     number of electrons       =        54.00
     number of Kohn-Sham states=           81
     kinetic-energy cutoff     =      40.0000  Ry
     charge density cutoff     =     500.0000  Ry
     convergence threshold     =      1.0E-06
     mixing beta               =       0.3000
     number of iterations used =            8  plain     mixing
     Exchange-correlation      = SLA  PW   PBE  PBE ( 1 4 3 4 0)
     EXX-fraction              =        0.00
     nstep                     =           50


     celldm(1)=   8.769542  celldm(2)=   0.000000  celldm(3)=   0.000000
     celldm(4)=   0.000000  celldm(5)=   0.000000  celldm(6)=   0.000000

     crystal axes: (cart. coord. in units of alat)
               a(1) = (   1.000000   0.000000   0.000000 )  
               a(2) = (   0.000000   1.000000   0.000000 )  
               a(3) = (   0.000000   0.000000   0.644444 )  

     reciprocal axes: (cart. coord. in units 2 pi/alat)
               b(1) = (  1.000000  0.000000  0.000000 )  
               b(2) = (  0.000000  1.000000  0.000000 )  
               b(3) = (  0.000000  0.000000  1.551724 )  


     PseudoPot. # 1 for Rh read from file:
     /home/camp/zhonxu/pseudo/rh_pbe_v1.uspp.F.UPF
     MD5 check sum: 37b626987ad0dd8ec6bf4cc9ef289918
     Pseudo is Ultrasoft + core correction, Zval = 15.0
     Generated by new atomic code, or converted to UPF format
     Using radial grid of  969 points,  7 beta functions with: 
                l(1) =   0
                l(2) =   0
                l(3) =   1
                l(4) =   1
                l(5) =   2
                l(6) =   2
                l(7) =   2
     Q(r) pseudized with  6 coefficients,  rinner =    1.050   1.050   1.050
                                                       1.050   1.050

     PseudoPot. # 2 for O  read from file:
     /home/camp/zhonxu/pseudo/o_pbe_v1.01.uspp.F.UPF
     MD5 check sum: 2bcb18d16ea4b960afae9ec6d52f22d2
     Pseudo is Ultrasoft + core correction, Zval =  6.0
     Generated by new atomic code, or converted to UPF format
     Using radial grid of  737 points,  5 beta functions with: 
                l(1) =   0
                l(2) =   0
                l(3) =   1
                l(4) =   1
                l(5) =   2
     Q(r) pseudized with  8 coefficients,  rinner =    0.900   0.900   0.900
                                                       0.900   0.900

     atomic species   valence    mass     pseudopotential
        Rh0           15.00   102.90550     Rh( 1.00)
        O1             6.00    15.99940     O ( 1.00)

     Starting magnetic structure 
     atomic species   magnetization
        Rh0          0.600
        O1           0.000

      8 Sym. Ops., with inversion, found
          (note:  8 additional sym.ops. were found but ignored
           their fractional translations are incommensurate with FFT grid)


   Cartesian axes

     site n.     atom                  positions (alat units)
         1           Rh0 tau(   1) = (   0.0000000   0.0000000   0.0000000  )
         2           Rh0 tau(   2) = (   0.5000000   0.5000000   0.3222222  )
         3           O1  tau(   3) = (   0.3050000   0.3050000   0.0000000  )
         4           O1  tau(   4) = (  -0.3050000  -0.3050000   0.0000000  )
         5           O1  tau(   5) = (   0.8050000   0.1950000   0.3222222  )
         6           O1  tau(   6) = (   0.1950000   0.8050000   0.3222222  )

     number of k points=    54  Methfessel-Paxton smearing, width (Ry)=  0.0100
                       cart. coord. in units 2pi/alat
        k(    1) = (   0.0000000   0.0000000   0.0000000), wk =   0.0080000
        k(    2) = (   0.0000000   0.0000000   0.3103448), wk =   0.0160000
        k(    3) = (   0.0000000   0.0000000   0.6206897), wk =   0.0160000
        k(    4) = (   0.0000000   0.2000000   0.0000000), wk =   0.0320000
        k(    5) = (   0.0000000   0.2000000   0.3103448), wk =   0.0640000
        k(    6) = (   0.0000000   0.2000000   0.6206897), wk =   0.0640000
        k(    7) = (   0.0000000   0.4000000   0.0000000), wk =   0.0320000
        k(    8) = (   0.0000000   0.4000000   0.3103448), wk =   0.0640000
        k(    9) = (   0.0000000   0.4000000   0.6206897), wk =   0.0640000
        k(   10) = (   0.2000000   0.2000000   0.0000000), wk =   0.0160000
        k(   11) = (   0.2000000   0.2000000   0.3103448), wk =   0.0320000
        k(   12) = (   0.2000000   0.2000000   0.6206897), wk =   0.0320000
        k(   13) = (   0.2000000   0.4000000   0.0000000), wk =   0.0320000
        k(   14) = (   0.2000000   0.4000000   0.3103448), wk =   0.0640000
        k(   15) = (   0.2000000   0.4000000   0.6206897), wk =   0.0640000
        k(   16) = (   0.4000000   0.4000000   0.0000000), wk =   0.0160000
        k(   17) = (   0.4000000   0.4000000   0.3103448), wk =   0.0320000
        k(   18) = (   0.4000000   0.4000000   0.6206897), wk =   0.0320000
        k(   19) = (  -0.2000000   0.2000000   0.0000000), wk =   0.0160000
        k(   20) = (  -0.2000000   0.2000000  -0.3103448), wk =   0.0320000
        k(   21) = (  -0.2000000   0.2000000  -0.6206897), wk =   0.0320000
        k(   22) = (  -0.2000000   0.4000000   0.0000000), wk =   0.0320000
        k(   23) = (  -0.2000000   0.4000000  -0.3103448), wk =   0.0640000
        k(   24) = (  -0.2000000   0.4000000  -0.6206897), wk =   0.0640000
        k(   25) = (  -0.4000000   0.4000000   0.0000000), wk =   0.0160000
        k(   26) = (  -0.4000000   0.4000000  -0.3103448), wk =   0.0320000
        k(   27) = (  -0.4000000   0.4000000  -0.6206897), wk =   0.0320000
        k(   28) = (   0.0000000   0.0000000   0.0000000), wk =   0.0080000
        k(   29) = (   0.0000000   0.0000000   0.3103448), wk =   0.0160000
        k(   30) = (   0.0000000   0.0000000   0.6206897), wk =   0.0160000
        k(   31) = (   0.0000000   0.2000000   0.0000000), wk =   0.0320000
        k(   32) = (   0.0000000   0.2000000   0.3103448), wk =   0.0640000
        k(   33) = (   0.0000000   0.2000000   0.6206897), wk =   0.0640000
        k(   34) = (   0.0000000   0.4000000   0.0000000), wk =   0.0320000
        k(   35) = (   0.0000000   0.4000000   0.3103448), wk =   0.0640000
        k(   36) = (   0.0000000   0.4000000   0.6206897), wk =   0.0640000
        k(   37) = (   0.2000000   0.2000000   0.0000000), wk =   0.0160000
        k(   38) = (   0.2000000   0.2000000   0.3103448), wk =   0.0320000
        k(   39) = (   0.2000000   0.2000000   0.6206897), wk =   0.0320000
        k(   40) = (   0.2000000   0.4000000   0.0000000), wk =   0.0320000
        k(   41) = (   0.2000000   0.4000000   0.3103448), wk =   0.0640000
        k(   42) = (   0.2000000   0.4000000   0.6206897), wk =   0.0640000
        k(   43) = (   0.4000000   0.4000000   0.0000000), wk =   0.0160000
        k(   44) = (   0.4000000   0.4000000   0.3103448), wk =   0.0320000
        k(   45) = (   0.4000000   0.4000000   0.6206897), wk =   0.0320000
        k(   46) = (  -0.2000000   0.2000000   0.0000000), wk =   0.0160000
        k(   47) = (  -0.2000000   0.2000000  -0.3103448), wk =   0.0320000
        k(   48) = (  -0.2000000   0.2000000  -0.6206897), wk =   0.0320000
        k(   49) = (  -0.2000000   0.4000000   0.0000000), wk =   0.0320000
        k(   50) = (  -0.2000000   0.4000000  -0.3103448), wk =   0.0640000
        k(   51) = (  -0.2000000   0.4000000  -0.6206897), wk =   0.0640000
        k(   52) = (  -0.4000000   0.4000000   0.0000000), wk =   0.0160000
        k(   53) = (  -0.4000000   0.4000000  -0.3103448), wk =   0.0320000
        k(   54) = (  -0.4000000   0.4000000  -0.6206897), wk =   0.0320000

     Dense  grid:    82037 G-vectors     FFT dimensions: (  64,  64,  45)

     Smooth grid:    14883 G-vectors     FFT dimensions: (  36,  36,  24)

     Largest allocated arrays     est. size (Mb)     dimensions
        Kohn-Sham Wavefunctions         0.58 Mb     (    466,   81)
        NL pseudopotentials             0.70 Mb     (    466,   98)
        Each V/rho on FFT grid          1.50 Mb     (  49152,   2)
        Each G-vector array             0.16 Mb     (  20509)
        G-vector shells                 0.16 Mb     (  20509)
     Largest temporary arrays     est. size (Mb)     dimensions
        Auxiliary wavefunctions         2.30 Mb     (    466,  324)
        Each subspace H/S matrix        1.60 Mb     ( 324, 324)
        Each <psi_i|beta_j> matrix      0.12 Mb     (     98,   81)
        Arrays for rho mixing           6.00 Mb     (  49152,   8)

     Check: negative/imaginary core charge=   -0.000004    0.000000

     Initial potential from superposition of free atoms
     Check: negative starting charge=(component1):   -0.129561
     Check: negative starting charge=(component2):   -0.032065

     starting charge   52.99980, renormalised to   54.00000

     negative rho (up, down):  0.132E+00 0.327E-01
     Starting wfc are   40 randomized atomic wfcs

     total cpu time spent up to now is       15.3 secs

     per-process dynamical memory:    62.4 Mb

     Self-consistent Calculation

     iteration #  1     ecut=    40.00 Ry     beta=0.30
     Davidson diagonalization with overlap
     ethr =  1.00E-02,  avg # of iterations =  7.1

     negative rho (up, down):  0.117E+00 0.506E-01

     total cpu time spent up to now is      114.0 secs

     total energy              =    -467.86742373 Ry
     Harris-Foulkes estimate   =    -469.57760384 Ry
     estimated scf accuracy    <       4.90882161 Ry

     total magnetization       =     8.91 Bohr mag/cell
     absolute magnetization    =     8.92 Bohr mag/cell

     iteration #  2     ecut=    40.00 Ry     beta=0.30
     Davidson diagonalization with overlap
     ethr =  9.09E-03,  avg # of iterations =  1.0

     negative rho (up, down):  0.110E+00 0.596E-01

     total cpu time spent up to now is      143.4 secs

     total energy              =    -469.09081672 Ry
     Harris-Foulkes estimate   =    -468.90800124 Ry
     estimated scf accuracy    <       1.18491339 Ry

     total magnetization       =     4.36 Bohr mag/cell
     absolute magnetization    =     4.71 Bohr mag/cell

     iteration #  3     ecut=    40.00 Ry     beta=0.30
     Davidson diagonalization with overlap
     ethr =  2.19E-03,  avg # of iterations =  1.0

     negative rho (up, down):  0.798E-01 0.973E-01

     total cpu time spent up to now is      172.5 secs

     total energy              =    -469.56841345 Ry
     Harris-Foulkes estimate   =    -469.14733544 Ry
     estimated scf accuracy    <       0.49945514 Ry

     total magnetization       =     4.14 Bohr mag/cell
     absolute magnetization    =     4.50 Bohr mag/cell

     iteration #  4     ecut=    40.00 Ry     beta=0.30
     Davidson diagonalization with overlap
     ethr =  9.25E-04,  avg # of iterations =  1.0

     negative rho (up, down):  0.822E-01 0.940E-01

     total cpu time spent up to now is      200.6 secs

     total energy              =    -469.79135444 Ry
     Harris-Foulkes estimate   =    -469.82002222 Ry
     estimated scf accuracy    <       0.10828149 Ry

     total magnetization       =     1.38 Bohr mag/cell
     absolute magnetization    =     1.58 Bohr mag/cell

     iteration #  5     ecut=    40.00 Ry     beta=0.30
     Davidson diagonalization with overlap
     ethr =  2.01E-04,  avg # of iterations =  1.4

     negative rho (up, down):  0.828E-01 0.924E-01

     total cpu time spent up to now is      229.7 secs

     total energy              =    -469.80024103 Ry
     Harris-Foulkes estimate   =    -469.79899354 Ry
     estimated scf accuracy    <       0.02823203 Ry

     total magnetization       =     1.44 Bohr mag/cell
     absolute magnetization    =     1.63 Bohr mag/cell

     iteration #  6     ecut=    40.00 Ry     beta=0.30
     Davidson diagonalization with overlap
     ethr =  5.23E-05,  avg # of iterations =  1.6

     negative rho (up, down):  0.837E-01 0.911E-01

     total cpu time spent up to now is      259.4 secs

     total energy              =    -469.80759640 Ry
     Harris-Foulkes estimate   =    -469.80811608 Ry
     estimated scf accuracy    <       0.00507142 Ry

     total magnetization       =     0.96 Bohr mag/cell
     absolute magnetization    =     1.04 Bohr mag/cell

     iteration #  7     ecut=    40.00 Ry     beta=0.30
     Davidson diagonalization with overlap
     ethr =  9.39E-06,  avg # of iterations =  2.3

     negative rho (up, down):  0.845E-01 0.901E-01

     total cpu time spent up to now is      291.3 secs

     total energy              =    -469.80816875 Ry
     Harris-Foulkes estimate   =    -469.80922559 Ry
     estimated scf accuracy    <       0.01115849 Ry

     total magnetization       =     0.93 Bohr mag/cell
     absolute magnetization    =     1.00 Bohr mag/cell

     iteration #  8     ecut=    40.00 Ry     beta=0.30
     Davidson diagonalization with overlap
     ethr =  9.39E-06,  avg # of iterations =  1.0

     negative rho (up, down):  0.862E-01 0.879E-01

     total cpu time spent up to now is      319.8 secs

     total energy              =    -469.80966960 Ry
     Harris-Foulkes estimate   =    -469.80892492 Ry
     estimated scf accuracy    <       0.00081252 Ry

     total magnetization       =     0.92 Bohr mag/cell
     absolute magnetization    =     0.98 Bohr mag/cell

     iteration #  9     ecut=    40.00 Ry     beta=0.30
     Davidson diagonalization with overlap
     ethr =  1.50E-06,  avg # of iterations =  2.3

     negative rho (up, down):  0.862E-01 0.878E-01

     total cpu time spent up to now is      352.3 secs

     total energy              =    -469.81047042 Ry
     Harris-Foulkes estimate   =    -469.81042658 Ry
     estimated scf accuracy    <       0.00033462 Ry

     total magnetization       =     0.68 Bohr mag/cell
     absolute magnetization    =     0.71 Bohr mag/cell

     iteration # 10     ecut=    40.00 Ry     beta=0.30
     Davidson diagonalization with overlap
     ethr =  6.20E-07,  avg # of iterations =  1.0

     negative rho (up, down):  0.861E-01 0.879E-01

     total cpu time spent up to now is      380.7 secs

     total energy              =    -469.81022668 Ry
     Harris-Foulkes estimate   =    -469.81047320 Ry
     estimated scf accuracy    <       0.00030786 Ry

     total magnetization       =     0.66 Bohr mag/cell
     absolute magnetization    =     0.69 Bohr mag/cell

     iteration # 11     ecut=    40.00 Ry     beta=0.30
     Davidson diagonalization with overlap
     ethr =  5.70E-07,  avg # of iterations =  1.0

     negative rho (up, down):  0.867E-01 0.874E-01

     total cpu time spent up to now is      409.2 secs

     total energy              =    -469.81039817 Ry
     Harris-Foulkes estimate   =    -469.81026273 Ry
     estimated scf accuracy    <       0.00039281 Ry

     total magnetization       =     0.72 Bohr mag/cell
     absolute magnetization    =     0.75 Bohr mag/cell

     iteration # 12     ecut=    40.00 Ry     beta=0.30
     Davidson diagonalization with overlap
     ethr =  5.70E-07,  avg # of iterations =  2.0

     negative rho (up, down):  0.870E-01 0.871E-01

     total cpu time spent up to now is      442.2 secs

     total energy              =    -469.81064476 Ry
     Harris-Foulkes estimate   =    -469.81136391 Ry
     estimated scf accuracy    <       0.00022139 Ry

     total magnetization       =     0.42 Bohr mag/cell
     absolute magnetization    =     0.44 Bohr mag/cell

     iteration # 13     ecut=    40.00 Ry     beta=0.30
     Davidson diagonalization with overlap
     ethr =  4.10E-07,  avg # of iterations =  2.1

     negative rho (up, down):  0.869E-01 0.872E-01

     total cpu time spent up to now is      477.4 secs

     total energy              =    -469.81181079 Ry
     Harris-Foulkes estimate   =    -469.81182863 Ry
     estimated scf accuracy    <       0.00002871 Ry

     total magnetization       =     0.10 Bohr mag/cell
     absolute magnetization    =     0.10 Bohr mag/cell

     iteration # 14     ecut=    40.00 Ry     beta=0.30
     Davidson diagonalization with overlap
     ethr =  5.32E-08,  avg # of iterations =  1.0

     negative rho (up, down):  0.869E-01 0.872E-01

     total cpu time spent up to now is      505.8 secs

     total energy              =    -469.81183151 Ry
     Harris-Foulkes estimate   =    -469.81182967 Ry
     estimated scf accuracy    <       0.00000240 Ry

     total magnetization       =     0.14 Bohr mag/cell
     absolute magnetization    =     0.14 Bohr mag/cell

     iteration # 15     ecut=    40.00 Ry     beta=0.30
     Davidson diagonalization with overlap
     ethr =  4.45E-09,  avg # of iterations =  1.0

     negative rho (up, down):  0.870E-01 0.871E-01

     total cpu time spent up to now is      534.2 secs

     End of self-consistent calculation

 ------ SPIN UP ------------


          k = 0.0000 0.0000 0.0000 (  1875 PWs)   bands (ev):

   -36.1982 -36.1981 -36.0687 -36.0686 -36.0127 -36.0027  -8.2646  -7.1821
    -6.4522  -6.4515   3.3022   3.4033   4.7252   4.8359   4.8361   7.4228
     7.4229   7.9095   8.9217   9.0203   9.1885   9.4034   9.4037   9.5736
     9.5740   9.5779  10.4400  11.6537  12.4037  15.0930  15.0932  16.1329
    17.5975  21.6482  21.6482  24.9552  25.4550  25.8776  27.3182  28.8004
    28.8006  29.7822  30.3620  32.7537  33.8869  33.8869  35.3389  35.3390
    35.9342  37.0761  37.4499  37.4500  38.3412  39.8184  39.8674  40.3073
    40.3866  40.6506  42.3300  42.6310  42.7156  42.7157  43.4030  43.4030
    45.4018  45.4019  46.1131  46.5226  49.3252  50.9858  51.1236  51.1236
    51.1768  51.1768  51.4879  52.4389  52.4390  52.4405  52.7746  52.9471
    53.4865

          k = 0.0000 0.0000 0.3103 (  1871 PWs)   bands (ev):

   -36.1934 -36.1933 -36.0688 -36.0601 -36.0600 -36.0592  -7.9175  -7.0008
    -6.6261  -6.6255   3.7235   3.9694   4.8872   4.8874   5.1577   6.6121
     7.3490   7.7375   7.7381   8.1011   8.1014   9.1646   9.7201   9.9222
    10.1228  10.8770  10.8776  12.0767  12.5102  14.4753  14.4755  15.4121
    18.8569  23.0301  23.0301  25.0975  25.4069  26.2435  26.3964  28.3308
    28.4521  28.4522  28.6618  33.5927  33.5971  33.5973  34.6195  34.6369
    34.6370  37.0709  37.7621  39.0980  39.0980  39.2729  39.8673  39.8696
    40.3580  40.3580  40.9323  41.2360  43.5090  44.5701  44.5701  45.9748
    46.2709  47.4087  47.4087  47.5098  48.6522  48.9613  49.5259  49.7192
    49.7193  51.1754  51.1755  51.8970  54.1370  54.5238  54.5238  54.6439
    55.9595

          k = 0.0000 0.0000 0.6207 (  1848 PWs)   bands (ev):

   -36.1849 -36.1848 -36.1565 -36.1529 -36.0461 -36.0460  -7.2005  -6.8982
    -6.8975  -6.8201   4.3956   4.6509   5.3667   5.3667   5.6837   6.0722
     6.3687   6.6041   6.6042   8.0381   8.3192   8.3193   9.9477  10.2507
    10.5060  11.2345  11.7176  11.7183  13.2726  13.8968  14.0737  14.0739
    21.3413  23.6945  25.2276  25.2277  25.6296  26.0567  26.2971  26.6750
    27.4272  27.4272  27.8628  29.9345  32.5971  32.5973  34.9792  34.9794
    36.4860  37.3649  37.5085  38.9598  39.4257  39.4258  39.4785  39.8721
    39.8789  41.6771  41.6772  41.9991  44.7454  44.7454  45.5458  46.4280
    47.4233  47.4234  48.1397  48.1397  48.2035  48.2334  49.3783  50.3270
    51.1833  51.8450  51.8450  52.3295  54.1414  54.1414  54.3893  55.4633
    55.6718

          k = 0.0000 0.2000 0.0000 (  1870 PWs)   bands (ev):

   -36.1971 -36.1970 -36.0693 -36.0691 -36.0118 -36.0036  -8.1391  -7.2007
    -6.5718  -6.5031   3.5328   3.6771   4.8581   4.8669   4.9707   6.8864
     6.9472   7.7391   8.1993   8.4934   9.0899   9.3382   9.7445   9.8071
    10.0584  10.1119  10.5492  12.1682  12.3024  14.9546  14.9843  15.8303
    18.1150  21.4659  21.8681  24.8278  25.3179  25.7938  26.9931  29.0538
    29.3079  30.1571  30.7656  32.5345  32.6338  33.0400  34.1992  35.8322
    35.9194  37.0486  37.5881  37.6458  39.7474  39.7755  39.8697  39.8730
    40.3365  41.4726  41.6390  41.9236  42.6791  43.7263  44.0285  44.6790
    45.7857  45.8950  46.8344  47.1251  48.7806  49.3203  49.6503  50.1353
    50.3584  50.4664  51.4076  51.7857  52.2752  52.3939  54.5100  54.5838
    55.4005

          k = 0.0000 0.2000 0.3103 (  1862 PWs)   bands (ev):

   -36.1927 -36.1925 -36.0681 -36.0626 -36.0600 -36.0580  -7.8111  -6.9952
    -6.7381  -6.6617   3.9313   4.1288   4.8700   4.8798   5.4985   6.4152
     6.7602   7.4565   7.6457   7.9326   8.1135   9.1506   9.9201  10.2135
    10.4771  10.7214  10.9476  11.9141  12.8707  14.0390  14.4196  15.5256
    19.2597  22.6043  23.1867  25.2026  25.4379  26.0219  26.5624  27.9134
    27.9482  28.7601  29.7339  32.1935  32.3517  33.8423  34.5885  34.6863
    36.1944  36.9404  37.7662  38.3587  38.9627  39.5029  39.8696  39.8696
    40.3227  40.4078  41.5113  42.7492  44.1536  44.2970  45.1295  45.8642
    45.9987  46.7518  47.5352  47.6070  48.5700  48.8179  49.4233  49.5198
    49.6753  51.0066  51.8247  52.3056  53.6153  53.8050  54.6815  54.6846
    55.6942

          k = 0.0000 0.2000 0.6207 (  1852 PWs)   bands (ev):

   -36.1868 -36.1861 -36.1546 -36.1516 -36.0463 -36.0460  -7.2187  -7.0232
    -6.8380  -6.7246   4.4004   4.6020   4.8747   5.2996   5.7136   6.1792
     6.5081   6.9905   7.0668   8.0112   8.0531   8.4091   9.9459  10.0842
    10.5408  10.8294  11.7915  11.8008  12.9791  13.0106  14.5589  14.9906
    21.4318  23.4244  24.5861  25.2816  25.8322  25.9106  26.6276  26.6559
    27.1066  27.2863  28.8247  29.4149  32.1760  32.7056  34.9774  35.2732
    36.4355  37.1272  38.0663  38.9915  39.0736  39.5492  39.8723  39.8758
    40.4636  41.4290  41.4581  42.7242  44.0764  45.1461  45.5929  45.6794
    46.7239  47.0661  47.6611  48.7077  48.8159  49.5009  49.8799  50.6835
    50.9418  51.5914  52.4394  52.4643  53.8028  53.8972  54.6646  54.8946
    55.0842

          k = 0.0000 0.4000 0.0000 (  1860 PWs)   bands (ev):

   -36.1956 -36.1955 -36.0703 -36.0702 -36.0093 -36.0057  -7.8023  -7.3987
    -6.6948  -6.6199   4.0832   4.2088   4.9045   4.9134   5.7218   6.0817
     6.0989   6.9072   7.6267   7.8857   9.1713   9.4760   9.9486  10.1701
    10.2919  10.4653  11.0559  11.6871  13.6059  14.7410  14.7750  14.9215
    19.3553  20.6632  22.6017  23.7638  25.8242  25.8595  26.8943  28.3746
    29.6875  30.9251  31.1277  31.8902  32.1215  33.3538  33.6772  34.7333
    36.5110  36.6948  37.4077  37.6183  37.9752  38.7641  39.8725  39.8730
    41.8578  41.9888  42.7646  42.8974  43.8118  44.1690  45.3028  45.8510
    46.6582  47.0234  47.3145  47.6542  47.8245  48.8766  48.9209  49.4088
    49.4315  49.7255  50.7170  51.1698  51.3471  52.2073  53.5980  54.1754
    56.3328

          k = 0.0000 0.4000 0.3103 (  1852 PWs)   bands (ev):

   -36.1918 -36.1917 -36.0669 -36.0655 -36.0592 -36.0580  -7.5243  -7.1626
    -6.8287  -6.7482   4.4324   4.4694   4.8391   4.9337   5.8506   6.0866
     6.5261   6.8283   6.9735   7.4140   8.6259   8.9669  10.2037  10.4697
    10.8308  10.9121  11.1664  11.5179  13.2949  13.4870  14.6224  15.2421
    20.3085  21.5630  23.7477  24.6105  25.9257  25.9541  26.8427  27.1798
    27.8079  29.1199  30.1856  30.9392  32.0754  33.9041  34.7279  34.7741
    36.5816  36.7843  37.6550  38.0082  38.9324  39.1187  39.7216  39.8739
    39.8917  41.6208  42.3120  43.3774  44.1782  44.7457  45.6081  46.6207
    46.7854  47.1512  47.6595  47.6623  48.6024  48.8381  49.4710  49.6021
    49.9985  50.4164  50.6506  52.6823  53.3040  53.8900  54.1285  54.2137
    54.7341

          k = 0.0000 0.4000 0.6207 (  1852 PWs)   bands (ev):

   -36.1888 -36.1887 -36.1515 -36.1507 -36.0462 -36.0459  -7.2181  -7.1518
    -6.7340  -6.6814   4.4114   4.4750   4.6559   4.8438   6.0147   6.4482
     6.7443   7.3282   7.4971   7.5479   8.1220   9.0697   9.2350  10.0372
    10.3497  10.5493  11.8765  11.8837  12.4366  12.5929  15.2794  15.5144
    21.8343  22.6232  24.4153  24.8214  25.9600  25.9885  26.3344  26.6325
    27.3310  27.9314  28.3238  29.1855  32.1860  32.9232  35.3491  35.5964
    36.6312  36.9586  38.5662  38.5861  38.8817  39.0202  39.8751  39.8752
    40.1077  41.1947  43.2593  43.3544  44.0304  44.7256  45.5662  45.7955
    46.4568  46.8435  48.2571  48.5154  49.0284  49.2110  50.6311  50.9868
    51.6118  51.7903  52.7745  52.7824  53.5553  53.9557  54.6264  55.1126
    55.3202

          k = 0.2000 0.2000 0.0000 (  1863 PWs)   bands (ev):

   -36.1981 -36.1955 -36.0704 -36.0681 -36.0110 -36.0039  -8.0404  -7.2442
    -6.6663  -6.4940   3.3498   4.1833   4.8181   4.9152   5.1945   6.1004
     7.2561   7.6324   8.4071   8.5758   8.6410   9.0807   9.4096   9.7975
    10.1841  10.4160  10.8506  12.1187  12.5779  14.7577  15.0882  15.5055
    18.6279  21.6740  21.7312  24.5316  25.0673  26.0161  26.7740  28.5082
    30.5291  30.5929  31.0499  32.4510  32.5722  32.6551  33.1977  34.8283
    35.3192  37.0942  38.1631  38.1825  39.5732  39.8597  39.8668  40.1136
    40.5258  41.2204  42.1601  42.3391  42.8794  43.1148  44.9863  45.3505
    45.8023  46.8013  46.8267  47.1648  48.3486  48.4745  48.9396  49.7120
    50.4516  50.8726  51.5218  51.8923  52.6492  53.3842  53.6839  54.1746
    55.7811

          k = 0.2000 0.2000 0.3103 (  1851 PWs)   bands (ev):

   -36.1930 -36.1917 -36.0679 -36.0627 -36.0595 -36.0582  -7.7256  -7.0175
    -6.8169  -6.6626   3.8333   4.4472   4.7218   4.9944   5.7251   6.1356
     6.8095   7.0912   7.5258   8.0613   8.3383   8.9958   9.8872  10.0191
    10.5205  10.9101  11.1500  11.8110  13.0052  13.8459  14.4909  15.4330
    19.6448  22.6950  22.8588  25.0522  25.5369  25.6032  26.6523  27.6017
    28.5622  29.2749  29.6608  31.0372  32.5232  34.0559  34.5889  34.7415
    35.8031  36.7576  37.9786  38.9576  39.0059  39.2291  39.8695  39.8753
    40.1381  40.9237  42.2096  42.5876  44.2889  44.6023  45.0826  45.5726
    46.1427  47.3461  47.5891  48.2722  48.3582  48.4723  48.5263  49.6791
    49.7860  50.8809  51.2014  52.6249  53.6437  53.7883  54.6072  55.2359
    55.4472

          k = 0.2000 0.2000 0.6207 (  1849 PWs)   bands (ev):

   -36.1887 -36.1851 -36.1552 -36.1504 -36.0460 -36.0460  -7.2270  -6.9605
    -6.9274  -6.6827   4.4597   4.5504   4.8961   5.0624   5.4878   6.4539
     6.5879   7.0427   7.3684   7.6082   8.1380   8.7543   9.7273  10.1389
    10.5533  10.8891  11.3776  12.0066  12.3922  13.8484  14.0770  15.3476
    21.5064  23.4050  23.9554  25.0150  25.4623  25.6564  26.3046  27.1778
    27.4992  27.9795  28.6218  29.8788  31.7269  32.9469  34.8478  35.0133
    35.7865  37.9120  38.3334  39.0638  39.2404  39.8102  39.8710  39.9204
    41.0833  41.2342  41.9577  43.0204  43.8953  44.5347  44.7185  45.9040
    46.7710  46.7810  47.7447  48.5834  48.7905  49.4011  49.9873  51.0030
    51.0518  52.0380  52.1292  52.6990  53.3816  54.1862  54.4754  54.9897
    55.7324

          k = 0.2000 0.4000 0.0000 (  1868 PWs)   bands (ev):

   -36.1975 -36.1961 -36.0706 -36.0688 -36.0087 -36.0059  -7.7781  -7.4554
    -6.6821  -6.5784   3.5967   4.1527   4.8388   4.8992   5.8317   6.1804
     6.7150   7.4036   7.7368   8.1862   8.6722   9.1531   9.7238   9.8702
    10.0760  10.3883  11.3644  11.8229  13.5079  14.6291  14.7558  14.9661
    19.7887  20.9778  22.4482  23.5403  25.3876  25.7934  26.9573  27.9750
    30.8446  31.4456  31.4876  31.9275  32.2206  33.0204  33.3851  33.5568
    35.0615  37.0163  37.2751  38.1921  38.8518  39.2806  39.8722  39.8774
    41.5969  41.9246  42.5290  42.6338  43.4386  44.1577  45.4685  46.2608
    46.6151  46.7569  47.0013  47.5921  47.9844  49.2150  49.4631  49.7703
    50.2478  50.8681  51.1065  51.1886  51.3383  52.7101  52.9345  53.4688
    55.4332

          k = 0.2000 0.4000 0.3103 (  1856 PWs)   bands (ev):

   -36.1928 -36.1920 -36.0669 -36.0642 -36.0592 -36.0585  -7.4985  -7.2130
    -6.8114  -6.7269   4.0362   4.4740   4.7371   4.8405   6.0684   6.2749
     6.7164   6.9898   7.3098   7.6455   8.3892   8.7042  10.1904  10.2724
    10.4735  10.8790  11.2940  11.5408  13.3795  13.7679  14.5650  15.0551
    20.6047  21.7549  23.3843  24.2524  25.6070  25.7799  26.8830  27.2450
    28.4364  29.1329  30.0959  30.9179  32.2424  34.0315  34.6315  34.9648
    36.2305  36.3997  37.8110  38.1814  38.9181  39.4972  39.8703  39.8726
    40.4457  41.4522  42.4012  42.8928  44.1015  45.0297  45.4862  45.9261
    46.7680  47.4378  47.6821  48.1657  48.3628  48.8051  49.0768  49.7440
    50.2129  51.0321  51.1637  52.4031  52.6139  53.0359  53.5916  54.0305
    55.4216

          k = 0.2000 0.4000 0.6207 (  1853 PWs)   bands (ev):

   -36.1887 -36.1866 -36.1536 -36.1509 -36.0462 -36.0460  -7.1920  -7.0886
    -6.8054  -6.7003   4.4384   4.5374   4.7352   4.9559   5.6072   6.2101
     6.7316   7.0601   7.4777   7.8582   8.3288   9.1500   9.4513  10.2630
    10.2859  10.4830  11.5575  11.8669  12.5094  13.1702  14.8820  15.4141
    21.8591  22.6426  23.8110  24.3850  25.2434  25.5710  26.2731  26.9957
    27.8308  28.2659  29.0231  30.1301  31.9181  33.2800  34.8408  35.2102
    35.5164  36.7883  38.7753  38.8640  39.6094  39.8690  39.8712  40.4864
    40.8869  42.0930  42.8400  43.1722  43.6575  44.4965  44.9586  45.9159
    46.3984  46.6646  47.2287  48.2720  48.8526  49.7511  50.0481  50.6237
    51.0915  51.5729  51.8541  52.8552  53.6872  54.1209  54.7118  55.1753
    56.1313

          k = 0.4000 0.4000 0.0000 (  1848 PWs)   bands (ev):

   -36.1983 -36.1975 -36.0684 -36.0674 -36.0074 -36.0065  -7.7027  -7.5817
    -6.6144  -6.5597   3.3587   3.6028   4.7905   4.8245   6.3894   6.9757
     7.0026   7.7402   8.1657   8.2870   8.5771   9.0256   9.0478   9.4195
     9.6847   9.8819  11.7644  11.9226  13.5649  14.0201  14.9629  15.0821
    20.7372  21.5142  22.1192  22.8759  25.1648  25.3506  27.3544  27.8476
    31.1828  31.6878  31.9986  32.2281  32.3707  32.4555  32.6687  33.2114
    35.8700  36.4624  36.9920  37.8672  39.0337  39.8519  39.8716  40.0005
    40.8420  41.9058  42.4158  42.4433  42.9247  43.5891  45.3232  46.2016
    47.1882  47.6228  47.6291  47.7338  49.6763  49.7170  50.0282  50.2448
    50.4583  51.1079  51.2314  51.3069  52.0743  52.2431  52.9334  53.0159
    55.2123

          k = 0.4000 0.4000 0.3103 (  1864 PWs)   bands (ev):

   -36.1936 -36.1931 -36.0654 -36.0635 -36.0595 -36.0592  -7.4260  -7.3205
    -6.7603  -6.7203   3.8485   4.0471   4.6469   4.7071   6.6057   6.7920
     6.9382   7.2636   7.6520   7.8260   8.0001   8.3720   9.8482  10.2745
    10.3357  10.3871  11.4506  11.5264  13.7653  14.0016  14.5026  14.6751
    21.3306  22.0427  22.7843  23.4012  25.6783  25.7659  26.9256  27.2987
    28.0918  28.5328  30.8372  31.6644  32.5769  34.1580  34.1993  34.3898
    36.6874  36.9509  37.8178  38.4778  38.7703  38.9796  39.8678  39.8704
    41.4458  41.6353  42.0478  42.3440  43.6463  44.0112  45.6824  45.7601
    47.2814  47.5099  47.9024  48.5690  48.7995  49.0757  49.7545  50.2882
    50.4514  50.9013  51.9606  52.0458  52.2422  52.4702  53.0653  53.6294
    53.7966

          k = 0.4000 0.4000 0.6207 (  1867 PWs)   bands (ev):

   -36.1870 -36.1854 -36.1550 -36.1531 -36.0465 -36.0465  -7.0973  -6.9738
    -6.9225  -6.7946   4.5244   4.7913   4.8235   4.9257   5.3980   5.7326
     6.4847   6.7257   7.7399   7.9184   8.7515   9.0754  10.1207  10.2359
    10.3052  10.6984  11.0915  11.5100  13.1734  14.0667  14.0767  14.9011
    22.0024  22.4146  23.3343  23.7213  25.0355  25.1760  25.9852  26.2664
    28.8908  28.9150  30.1995  30.6723  32.4913  33.7183  34.4578  34.5573
    35.0002  35.9440  39.0036  39.0234  39.8605  39.8664  40.3871  41.0933
    41.8848  42.3007  43.3420  43.6264  43.9756  44.6989  44.8289  45.4214
    46.1725  46.6344  46.8459  47.6734  48.1262  49.0516  49.1038  50.3558
    50.5670  51.2503  51.2982  52.1311  52.9126  53.5475  54.5926  55.3528
    55.7937

          k =-0.2000 0.2000 0.0000 (  1863 PWs)   bands (ev):

   -36.1982 -36.1954 -36.0703 -36.0682 -36.0110 -36.0039  -8.0403  -7.2444
    -6.6669  -6.4934   3.3501   4.1831   4.8183   4.9150   5.1945   6.1002
     7.2558   7.6323   8.4073   8.5766   8.6414   9.0807   9.4093   9.7973
    10.1841  10.4160  10.8502  12.1189  12.5779  14.7574  15.0885  15.5055
    18.6279  21.6740  21.7311  24.5318  25.0674  26.0160  26.7740  28.5081
    30.5291  30.5930  31.0498  32.4510  32.5722  32.6551  33.1977  34.8283
    35.3192  37.0941  38.1631  38.1825  39.5732  39.8597  39.8668  40.1137
    40.5258  41.2204  42.1601  42.3390  42.8794  43.1148  44.9863  45.3506
    45.8023  46.8013  46.8267  47.1648  48.3486  48.4744  48.9395  49.7120
    50.4516  50.8726  51.5217  51.8924  52.6492  53.3842  53.6839  54.1747
    55.7811

          k =-0.2000 0.2000-0.3103 (  1851 PWs)   bands (ev):

   -36.1931 -36.1916 -36.0678 -36.0627 -36.0596 -36.0581  -7.7255  -7.0178
    -6.8174  -6.6620   3.8335   4.4470   4.7219   4.9942   5.7252   6.1355
     6.8093   7.0913   7.5253   8.0616   8.3387   8.9958   9.8874  10.0189
    10.5209  10.9100  11.1495  11.8112  13.0051  13.8458  14.4911  15.4330
    19.6448  22.6949  22.8588  25.0524  25.5370  25.6031  26.6523  27.6017
    28.5622  29.2748  29.6608  31.0373  32.5232  34.0560  34.5889  34.7416
    35.8031  36.7575  37.9785  38.9575  39.0059  39.2291  39.8695  39.8752
    40.1381  40.9238  42.2097  42.5876  44.2889  44.6024  45.0825  45.5726
    46.1427  47.3461  47.5892  48.2722  48.3582  48.4723  48.5262  49.6791
    49.7860  50.8808  51.2014  52.6250  53.6437  53.7882  54.6072  55.2359
    55.4472

          k =-0.2000 0.2000-0.6207 (  1849 PWs)   bands (ev):

   -36.1886 -36.1851 -36.1551 -36.1505 -36.0461 -36.0459  -7.2273  -6.9602
    -6.9267  -6.6832   4.4597   4.5502   4.8963   5.0623   5.4879   6.4540
     6.5876   7.0429   7.3681   7.6085   8.1379   8.7539   9.7271  10.1389
    10.5533  10.8895  11.3783  12.0059  12.3922  13.8485  14.0772  15.3474
    21.5064  23.4050  23.9555  25.0149  25.4623  25.6564  26.3045  27.1777
    27.4994  27.9797  28.6219  29.8787  31.7267  32.9470  34.8478  35.0135
    35.7865  37.9119  38.3334  39.0640  39.2402  39.8101  39.8711  39.9204
    41.0832  41.2343  41.9576  43.0204  43.8953  44.5348  44.7186  45.9040
    46.7710  46.7810  47.7446  48.5834  48.7905  49.4010  49.9873  51.0030
    51.0518  52.0380  52.1292  52.6990  53.3815  54.1863  54.4753  54.9898
    55.7323

          k =-0.2000 0.4000 0.0000 (  1868 PWs)   bands (ev):

   -36.1976 -36.1960 -36.0705 -36.0689 -36.0087 -36.0059  -7.7779  -7.4558
    -6.6826  -6.5778   3.5969   4.1524   4.8390   4.8990   5.8317   6.1802
     6.7149   7.4039   7.7366   8.1865   8.6727   9.1527   9.7238   9.8701
    10.0759  10.3884  11.3639  11.8233  13.5079  14.6291  14.7555  14.9664
    19.7888  20.9777  22.4481  23.5404  25.3876  25.7934  26.9573  27.9750
    30.8447  31.4456  31.4876  31.9275  32.2206  33.0204  33.3851  33.5568
    35.0616  37.0162  37.2750  38.1922  38.8518  39.2806  39.8722  39.8774
    41.5969  41.9247  42.5290  42.6338  43.4386  44.1578  45.4685  46.2608
    46.6151  46.7569  47.0013  47.5921  47.9844  49.2150  49.4631  49.7702
    50.2478  50.8681  51.1065  51.1886  51.3384  52.7102  52.9344  53.4688
    55.4332

          k =-0.2000 0.4000-0.3103 (  1856 PWs)   bands (ev):

   -36.1929 -36.1919 -36.0668 -36.0643 -36.0593 -36.0584  -7.4982  -7.2134
    -6.8118  -6.7264   4.0365   4.4737   4.7372   4.8403   6.0684   6.2749
     6.7165   6.9895   7.3097   7.6457   8.3894   8.7042  10.1906  10.2723
    10.4737  10.8789  11.2934  11.5412  13.3794  13.7680  14.5651  15.0550
    20.6047  21.7548  23.3842  24.2525  25.6069  25.7800  26.8830  27.2450
    28.4364  29.1330  30.0959  30.9179  32.2423  34.0315  34.6315  34.9648
    36.2306  36.3996  37.8110  38.1813  38.9181  39.4972  39.8703  39.8726
    40.4457  41.4523  42.4013  42.8929  44.1015  45.0296  45.4862  45.9261
    46.7680  47.4378  47.6820  48.1657  48.3628  48.8051  49.0768  49.7440
    50.2129  51.0322  51.1636  52.4031  52.6139  53.0359  53.5915  54.0305
    55.4217

          k =-0.2000 0.4000-0.6207 (  1853 PWs)   bands (ev):

   -36.1887 -36.1867 -36.1534 -36.1511 -36.0462 -36.0460  -7.1925  -7.0881
    -6.8049  -6.7009   4.4383   4.5374   4.7350   4.9560   5.6073   6.2100
     6.7317   7.0600   7.4780   7.8580   8.3288   9.1499   9.4509  10.2634
    10.2861  10.4830  11.5582  11.8661  12.5094  13.1703  14.8821  15.4139
    21.8591  22.6426  23.8110  24.3849  25.2433  25.5711  26.2730  26.9959
    27.8308  28.2659  29.0231  30.1300  31.9180  33.2801  34.8408  35.2103
    35.5164  36.7883  38.7752  38.8641  39.6094  39.8689  39.8713  40.4863
    40.8869  42.0931  42.8399  43.1723  43.6575  44.4965  44.9586  45.9159
    46.3985  46.6646  47.2287  48.2720  48.8525  49.7511  50.0481  50.6237
    51.0916  51.5728  51.8541  52.8552  53.6872  54.1210  54.7118  55.1753
    56.1307

          k =-0.4000 0.4000 0.0000 (  1848 PWs)   bands (ev):

   -36.1984 -36.1974 -36.0683 -36.0675 -36.0074 -36.0065  -7.7023  -7.5822
    -6.6150  -6.5590   3.3589   3.6026   4.7907   4.8243   6.3895   6.9753
     7.0026   7.7403   8.1654   8.2875   8.5776   9.0254   9.0478   9.4192
     9.6846   9.8820  11.7638  11.9232  13.5648  14.0201  14.9627  15.0824
    20.7373  21.5139  22.1192  22.8761  25.1648  25.3506  27.3544  27.8476
    31.1829  31.6878  31.9986  32.2281  32.3707  32.4555  32.6686  33.2115
    35.8701  36.4623  36.9921  37.8671  39.0336  39.8520  39.8716  40.0006
    40.8419  41.9057  42.4158  42.4434  42.9247  43.5891  45.3231  46.2017
    47.1882  47.6228  47.6290  47.7339  49.6763  49.7170  50.0283  50.2449
    50.4583  51.1079  51.2314  51.3070  52.0743  52.2430  52.9334  53.0160
    55.2123

          k =-0.4000 0.4000-0.3103 (  1864 PWs)   bands (ev):

   -36.1936 -36.1930 -36.0653 -36.0636 -36.0596 -36.0591  -7.4255  -7.3211
    -6.7609  -6.7196   3.8487   4.0469   4.6470   4.7070   6.6056   6.7921
     6.9384   7.2631   7.6519   7.8260   8.0003   8.3722   9.8483  10.2744
    10.3353  10.3876  11.4500  11.5270  13.7651  14.0017  14.5028  14.6749
    21.3307  22.0425  22.7843  23.4013  25.6783  25.7659  26.9256  27.2987
    28.0917  28.5329  30.8372  31.6644  32.5769  34.1580  34.1993  34.3898
    36.6874  36.9510  37.8176  38.4777  38.7704  38.9796  39.8678  39.8704
    41.4458  41.6353  42.0479  42.3441  43.6463  44.0113  45.6824  45.7601
    47.2814  47.5100  47.9023  48.5690  48.7995  49.0755  49.7547  50.2882
    50.4514  50.9014  51.9606  52.0459  52.2422  52.4703  53.0653  53.6294
    53.7966

          k =-0.4000 0.4000-0.6207 (  1867 PWs)   bands (ev):

   -36.1869 -36.1855 -36.1548 -36.1533 -36.0466 -36.0464  -7.0979  -6.9731
    -6.9220  -6.7952   4.5244   4.7916   4.8234   4.9256   5.3981   5.7325
     6.4849   6.7255   7.7404   7.9179   8.7515   9.0754  10.1202  10.2359
    10.3052  10.6990  11.0922  11.5093  13.1733  14.0667  14.0769  14.9009
    22.0024  22.4147  23.3343  23.7212  25.0354  25.1762  25.9851  26.2666
    28.8907  28.9151  30.1995  30.6723  32.4912  33.7185  34.4579  34.5573
    35.0001  35.9439  39.0038  39.0231  39.8604  39.8665  40.3871  41.0933
    41.8848  42.3007  43.3420  43.6264  43.9757  44.6989  44.8288  45.4215
    46.1725  46.6344  46.8459  47.6733  48.1261  49.0516  49.1037  50.3559
    50.5671  51.2503  51.2983  52.1310  52.9126  53.5474  54.5926  55.3528
    55.7938

 ------ SPIN DOWN ----------


          k = 0.0000 0.0000 0.0000 (  1875 PWs)   bands (ev):

   -36.1553 -36.1550 -36.0330 -36.0329 -35.9924 -35.9824  -8.2418  -7.1577
    -6.4251  -6.4250   3.3138   3.4117   4.7688   4.8494   4.8495   7.4481
     7.4483   7.9213   8.9365   9.0802   9.2015   9.4333   9.4336   9.5978
     9.6133   9.6136  10.5015  11.6716  12.4711  15.1137  15.1137  16.1541
    17.6112  21.6558  21.6558  24.9859  25.4687  25.8910  27.3255  28.8220
    28.8222  29.7896  30.3654  32.7618  33.8920  33.8920  35.3482  35.3482
    35.9461  37.0895  37.4574  37.4574  38.3423  39.8183  39.8648  40.3156
    40.3908  40.6560  42.3385  42.6434  42.7206  42.7206  43.4238  43.4238
    45.4131  45.4131  46.1156  46.5350  49.3321  51.0058  51.1372  51.1373
    51.1824  51.1824  51.5159  52.4444  52.4563  52.4563  52.7895  52.9510
    53.4938

          k = 0.0000 0.0000 0.3103 (  1871 PWs)   bands (ev):

   -36.1504 -36.1502 -36.0486 -36.0390 -36.0244 -36.0243  -7.8941  -6.9758
    -6.5995  -6.5994   3.7350   3.9781   4.9015   4.9016   5.2023   6.6230
     7.3614   7.7755   7.7758   8.1165   8.1166   9.2249   9.7410   9.9810
    10.1385  10.9188  10.9192  12.1433  12.5274  14.4962  14.4962  15.4319
    18.8703  23.0387  23.0387  25.1269  25.4173  26.2573  26.4085  28.3440
    28.4703  28.4704  28.6661  33.5981  33.6081  33.6082  34.6270  34.6439
    34.6440  37.0838  37.7632  39.1071  39.1071  39.2824  39.8644  39.8666
    40.3651  40.3651  40.9383  41.2485  43.5157  44.5844  44.5844  45.9827
    46.2835  47.4179  47.4179  47.5164  48.6590  48.9658  49.5466  49.7352
    49.7354  51.1841  51.1842  51.9165  54.1435  54.5375  54.5376  54.6667
    55.9698

          k = 0.0000 0.0000 0.6207 (  1848 PWs)   bands (ev):

   -36.1418 -36.1415 -36.1364 -36.1328 -36.0104 -36.0103  -7.1755  -6.8721
    -6.8720  -6.7945   4.4059   4.6603   5.3853   5.3854   5.6939   6.0838
     6.4164   6.6240   6.6242   8.0913   8.3456   8.3458   9.9685  10.3123
    10.5246  11.2989  11.7633  11.7637  13.2890  13.9134  14.0954  14.0955
    21.3535  23.7040  25.2367  25.2367  25.6556  26.0709  26.3097  26.6957
    27.4392  27.4392  27.8697  29.9408  32.6139  32.6140  34.9891  34.9891
    36.4909  37.3667  37.5197  38.9710  39.4311  39.4311  39.4844  39.8690
    39.8758  41.6876  41.6876  42.0064  44.7497  44.7498  45.5595  46.4447
    47.4341  47.4342  48.1479  48.1479  48.2094  48.2478  49.3858  50.3345
    51.1894  51.8599  51.8600  52.3457  54.1534  54.1534  54.3966  55.4864
    55.9012

          k = 0.0000 0.2000 0.0000 (  1870 PWs)   bands (ev):

   -36.1542 -36.1539 -36.0336 -36.0334 -35.9915 -35.9833  -8.1161  -7.1763
    -6.5453  -6.4765   3.5447   3.6862   4.8715   4.8803   5.0147   6.9097
     6.9656   7.7534   8.2421   8.5123   9.1358   9.3661   9.7724   9.8510
    10.0828  10.1317  10.6102  12.2172  12.3390  14.9747  15.0046  15.8511
    18.1304  21.4781  21.8765  24.8482  25.3355  25.8105  27.0045  29.0707
    29.3234  30.1645  30.7695  32.5441  32.6419  33.0484  34.2042  35.8425
    35.9266  37.0616  37.5954  37.6542  39.7586  39.7842  39.8672  39.8710
    40.3437  41.4874  41.6435  41.9298  42.6843  43.7385  44.0472  44.6859
    45.7972  45.9075  46.8461  47.1299  48.7861  49.3347  49.6563  50.1440
    50.3716  50.4849  51.4251  51.8062  52.2891  52.3993  54.5207  54.5988
    55.4078

          k = 0.0000 0.2000 0.3103 (  1862 PWs)   bands (ev):

   -36.1497 -36.1494 -36.0475 -36.0403 -36.0247 -36.0244  -7.7874  -6.9702
    -6.7120  -6.6354   3.9431   4.1381   4.8895   4.8939   5.5377   6.4296
     6.7820   7.4725   7.6628   7.9642   8.1479   9.2001   9.9779  10.2360
    10.4942  10.7613  10.9935  11.9790  12.8896  14.0593  14.4398  15.5453
    19.2746  22.6186  23.1959  25.2207  25.4543  26.0387  26.5731  27.9243
    27.9642  28.7665  29.7487  32.2018  32.3605  33.8489  34.5982  34.6952
    36.2023  36.9514  37.7713  38.3694  38.9706  39.5105  39.8666  39.8668
    40.3322  40.4187  41.5210  42.7575  44.1669  44.3040  45.1429  45.8738
    46.0062  46.7602  47.5417  47.6169  48.5819  48.8332  49.4336  49.5335
    49.6865  51.0178  51.8374  52.3222  53.6295  53.8210  54.6891  54.6950
    55.7086

          k = 0.0000 0.2000 0.6207 (  1852 PWs)   bands (ev):

   -36.1469 -36.1453 -36.1313 -36.1292 -36.0106 -36.0103  -7.1937  -6.9977
    -6.8121  -6.6986   4.4120   4.6127   4.8912   5.3184   5.7260   6.1992
     6.5321   7.0242   7.0864   8.0405   8.0804   8.4590  10.0010  10.1052
    10.5598  10.8863  11.8408  11.8527  12.9990  13.0307  14.5782  15.0097
    21.4443  23.4343  24.6041  25.2927  25.8470  25.9284  26.6383  26.6720
    27.1145  27.2979  28.8356  29.4245  32.1900  32.7183  34.9881  35.2840
    36.4410  37.1326  38.0778  39.0020  39.0828  39.5545  39.8693  39.8727
    40.4711  41.4381  41.4684  42.7323  44.0846  45.1502  45.6068  45.6881
    46.7365  47.0783  47.6710  48.7177  48.8235  49.5085  49.8896  50.6909
    50.9519  51.6049  52.4492  52.4792  53.8156  53.9070  54.6730  54.9076
    55.1048

          k = 0.0000 0.4000 0.0000 (  1860 PWs)   bands (ev):

   -36.1525 -36.1523 -36.0348 -36.0346 -35.9890 -35.9854  -7.7788  -7.3746
    -6.6688  -6.5937   4.0957   4.2205   4.9177   4.9266   5.7648   6.0970
     6.1178   6.9489   7.6436   7.9039   9.2239   9.5297   9.9666  10.1874
    10.3183  10.4909  11.1181  11.7511  13.6259  14.7603  14.7944  14.9418
    19.3731  20.6810  22.6125  23.7776  25.8433  25.8766  26.9067  28.3834
    29.6988  30.9337  31.1352  31.8956  32.1292  33.3671  33.6839  34.7386
    36.5239  36.7059  37.4189  37.6336  37.9823  38.7709  39.8695  39.8699
    41.8736  42.0052  42.7704  42.9040  43.8211  44.1797  45.3075  45.8549
    46.6705  47.0400  47.3188  47.6682  47.8400  48.8834  48.9348  49.4175
    49.4386  49.7365  50.7295  51.1755  51.3620  52.2169  53.6146  54.1944
    56.3470

          k = 0.0000 0.4000 0.3103 (  1852 PWs)   bands (ev):

   -36.1488 -36.1486 -36.0453 -36.0427 -36.0249 -36.0248  -7.5001  -7.1377
    -6.8030  -6.7223   4.4450   4.4805   4.8523   4.9506   5.8788   6.1114
     6.5559   6.8427   6.9899   7.4489   8.6615   9.0051  10.2547  10.5138
    10.8515  10.9355  11.2162  11.5785  13.3149  13.5070  14.6413  15.2612
    20.3258  21.5810  23.7591  24.6252  25.9403  25.9722  26.8561  27.1890
    27.8167  29.1279  30.1940  30.9479  32.0864  33.9120  34.7367  34.7836
    36.5947  36.7974  37.6606  38.0154  38.9423  39.1294  39.7319  39.8708
    39.8896  41.6308  42.3235  43.3873  44.1888  44.7557  45.6171  46.6289
    46.7969  47.1565  47.6709  47.6747  48.6131  48.8513  49.4791  49.6154
    50.0087  50.4260  50.6627  52.6953  53.3164  53.8992  54.1459  54.2281
    54.7445

          k = 0.0000 0.4000 0.6207 (  1852 PWs)   bands (ev):

   -36.1504 -36.1501 -36.1265 -36.1262 -36.0106 -36.0103  -7.1929  -7.1265
    -6.7080  -6.6553   4.4252   4.4895   4.6705   4.8598   6.0272   6.4598
     6.7752   7.3618   7.5134   7.5683   8.1636   9.1166   9.2858  10.0904
    10.3703  10.5691  11.9299  11.9365  12.4584  12.6154  15.2982  15.5335
    21.8476  22.6364  24.4302  24.8362  25.9701  26.0037  26.3478  26.6443
    27.3436  27.9398  28.3355  29.1943  32.1970  32.9329  35.3609  35.6093
    36.6365  36.9657  38.5804  38.5999  38.8892  39.0299  39.8719  39.8721
    40.1177  41.2054  43.2689  43.3632  44.0383  44.7339  45.5764  45.8078
    46.4647  46.8516  48.2659  48.5268  49.0378  49.2218  50.6398  50.9962
    51.6228  51.8009  52.7815  52.7892  53.5674  53.9720  54.6419  55.1229
    55.3323

          k = 0.2000 0.2000 0.0000 (  1863 PWs)   bands (ev):

   -36.1553 -36.1522 -36.0348 -36.0324 -35.9907 -35.9836  -8.0172  -7.2200
    -6.6405  -6.4669   3.3603   4.1944   4.8316   4.9283   5.2390   6.1140
     7.2931   7.6486   8.4429   8.6244   8.6553   9.0969   9.4392   9.8486
    10.2017  10.4417  10.9116  12.1851  12.5970  14.7769  15.1090  15.5261
    18.6445  21.6829  21.7477  24.5481  25.0870  26.0268  26.7862  28.5267
    30.5366  30.6046  31.0540  32.4576  32.5802  32.6661  33.2093  34.8376
    35.3259  37.1021  38.1743  38.1907  39.5813  39.8573  39.8640  40.1279
    40.5337  41.2340  42.1800  42.3431  42.8842  43.1195  44.9976  45.3577
    45.8163  46.8134  46.8388  47.1693  48.3617  48.4825  48.9451  49.7293
    50.4631  50.8966  51.5281  51.9088  52.6544  53.3969  53.6959  54.1909
    55.7877

          k = 0.2000 0.2000 0.3103 (  1851 PWs)   bands (ev):

   -36.1501 -36.1485 -36.0468 -36.0409 -36.0249 -36.0238  -7.7017  -6.9927
    -6.7914  -6.6359   3.8439   4.4586   4.7397   5.0071   5.7672   6.1534
     6.8233   7.1039   7.5702   8.0788   8.3707   9.0410   9.9082  10.0755
    10.5555  10.9309  11.2003  11.8755  13.0240  13.8652  14.5121  15.4524
    19.6607  22.7134  22.8688  25.0689  25.5535  25.6139  26.6636  27.6161
    28.5676  29.2899  29.6722  31.0450  32.5332  34.0630  34.5958  34.7529
    35.8118  36.7693  37.9873  38.9655  39.0181  39.2389  39.8665  39.8722
    40.1429  40.9347  42.2242  42.5951  44.3011  44.6123  45.0896  45.5797
    46.1542  47.3571  47.5939  48.2825  48.3688  48.4840  48.5395  49.6888
    49.8007  50.8892  51.2195  52.6401  53.6530  53.8026  54.6163  55.2535
    55.4541

          k = 0.2000 0.2000 0.6207 (  1849 PWs)   bands (ev):

   -36.1500 -36.1421 -36.1347 -36.1260 -36.0104 -36.0104  -7.2021  -6.9349
    -6.9012  -6.6570   4.4726   4.5621   4.9093   5.0846   5.4990   6.4755
     6.6000   7.0879   7.3805   7.6382   8.1741   8.8037   9.7758  10.1595
    10.5729  10.9511  11.4230  12.0589  12.4133  13.8661  14.0989  15.3661
    21.5189  23.4136  23.9741  25.0292  25.4772  25.6708  26.3132  27.1934
    27.5082  27.9898  28.6354  29.8889  31.7388  32.9569  34.8547  35.0281
    35.7937  37.9256  38.3398  39.0760  39.2530  39.8130  39.8680  39.9204
    41.0908  41.2449  41.9658  43.0275  43.9068  44.5413  44.7252  45.9114
    46.7808  46.7963  47.7581  48.5909  48.7994  49.4120  49.9934  51.0132
    51.0619  52.0450  52.1440  52.7074  53.3951  54.1992  54.4834  55.0097
    55.7434

          k = 0.2000 0.4000 0.0000 (  1868 PWs)   bands (ev):

   -36.1547 -36.1529 -36.0350 -36.0331 -35.9884 -35.9856  -7.7545  -7.4316
    -6.6563  -6.5516   3.6075   4.1643   4.8522   4.9123   5.8748   6.1956
     6.7553   7.4291   7.7540   8.2030   8.7219   9.1991   9.7462   9.8966
    10.0931  10.4144  11.4275  11.8885  13.5280  14.6496  14.7750  14.9864
    19.8073  20.9963  22.4619  23.5566  25.3999  25.8024  26.9712  27.9880
    30.8547  31.4529  31.4985  31.9330  32.2281  33.0306  33.3951  33.5633
    35.0755  37.0293  37.2829  38.2000  38.8626  39.2926  39.8692  39.8742
    41.6124  41.9409  42.5413  42.6380  43.4437  44.1687  45.4728  46.2693
    46.6272  46.7614  47.0172  47.6064  47.9967  49.2273  49.4704  49.7787
    50.2640  50.8802  51.1202  51.1963  51.3436  52.7239  52.9447  53.4843
    55.4426

          k = 0.2000 0.4000 0.3103 (  1856 PWs)   bands (ev):

   -36.1500 -36.1488 -36.0451 -36.0427 -36.0249 -36.0242  -7.4741  -7.1885
    -6.7859  -6.7005   4.0470   4.4858   4.7534   4.8544   6.0936   6.3055
     6.7424   7.0058   7.3470   7.6619   8.4252   8.7431  10.2202  10.3180
    10.5024  10.9010  11.3507  11.6033  13.3993  13.7881  14.5850  15.0743
    20.6225  21.7736  23.3986  24.2697  25.6166  25.7907  26.8935  27.2568
    28.4441  29.1419  30.1063  30.9286  32.2527  34.0387  34.6398  34.9754
    36.2424  36.4117  37.8215  38.1936  38.9288  39.5079  39.8674  39.8696
    40.4536  41.4620  42.4134  42.9012  44.1101  45.0402  45.4975  45.9358
    46.7795  47.4503  47.6912  48.1733  48.3717  48.8156  49.0861  49.7578
    50.2232  51.0461  51.1735  52.4132  52.6265  53.0479  53.6000  54.0411
    55.4316

          k = 0.2000 0.4000 0.6207 (  1853 PWs)   bands (ev):

   -36.1501 -36.1464 -36.1305 -36.1263 -36.0106 -36.0104  -7.1671  -7.0630
    -6.7793  -6.6746   4.4534   4.5519   4.7494   4.9712   5.6205   6.2240
     6.7520   7.0774   7.5202   7.8954   8.3599   9.1882   9.5034  10.2967
    10.3235  10.5072  11.6097  11.9194  12.5308  13.1909  14.9014  15.4329
    21.8721  22.6562  23.8228  24.3971  25.2593  25.5873  26.2830  27.0066
    27.8428  28.2753  29.0352  30.1397  31.9279  33.2891  34.8480  35.2241
    35.5265  36.7976  38.7944  38.8829  39.6181  39.8661  39.8683  40.4950
    40.8933  42.1013  42.8492  43.1817  43.6647  44.5054  44.9677  45.9238
    46.4084  46.6746  47.2377  48.2824  48.8635  49.7599  50.0571  50.6310
    51.1016  51.5859  51.8642  52.8642  53.6958  54.1327  54.7237  55.1887
    56.1400

          k = 0.4000 0.4000 0.0000 (  1848 PWs)   bands (ev):

   -36.1556 -36.1544 -36.0326 -36.0316 -35.9871 -35.9862  -7.6789  -7.5582
    -6.5883  -6.5327   3.3691   3.6134   4.8041   4.8377   6.4363   7.0228
     7.0262   7.7726   8.1818   8.3258   8.5898   9.0601   9.0640   9.4491
     9.7019   9.9085  11.8297  11.9894  13.5853  14.0407  14.9830  15.1029
    20.7581  21.5385  22.1323  22.8938  25.1700  25.3545  27.3670  27.8603
    31.1884  31.6939  32.0036  32.2343  32.3785  32.4732  32.6868  33.2185
    35.8837  36.4709  37.0005  37.8769  39.0513  39.8515  39.8686  40.0105
    40.8536  41.9224  42.4245  42.4578  42.9281  43.5928  45.3275  46.2061
    47.1991  47.6382  47.6420  47.7529  49.6896  49.7366  50.0323  50.2598
    50.4647  51.1176  51.2446  51.3116  52.0872  52.2505  52.9414  53.0310
    55.2169

          k = 0.4000 0.4000 0.3103 (  1864 PWs)   bands (ev):

   -36.1507 -36.1499 -36.0444 -36.0433 -36.0243 -36.0237  -7.4015  -7.2965
    -6.7345  -6.6936   3.8589   4.0578   4.6629   4.7223   6.6223   6.8390
     6.9500   7.3153   7.6688   7.8590   8.0297   8.3959   9.8674  10.2921
    10.3759  10.4233  11.5126  11.5914  13.7851  14.0215  14.5240  14.6949
    21.3502  22.0655  22.7974  23.4184  25.6855  25.7732  26.9341  27.3088
    28.0977  28.5393  30.8515  31.6781  32.5874  34.1640  34.2109  34.3963
    36.7029  36.9635  37.8346  38.4868  38.7847  38.9892  39.8649  39.8675
    41.4588  41.6448  42.0545  42.3533  43.6545  44.0191  45.6927  45.7698
    47.2894  47.5238  47.9090  48.5774  48.8131  49.0905  49.7707  50.2978
    50.4640  50.9079  51.9726  52.0587  52.2504  52.4797  53.0736  53.6341
    53.8093

          k = 0.4000 0.4000 0.6207 (  1867 PWs)   bands (ev):

   -36.1464 -36.1425 -36.1347 -36.1305 -36.0109 -36.0109  -7.0722  -6.9476
    -6.8968  -6.7691   4.5400   4.8019   4.8450   4.9398   5.4081   5.7458
     6.5026   6.7419   7.7936   7.9696   8.7756   9.1044  10.1738  10.2558
    10.3250  10.7604  11.1358  11.5604  13.1937  14.0844  14.0987  14.9201
    22.0150  22.4284  23.3435  23.7314  25.0527  25.1937  25.9958  26.2774
    28.8996  28.9218  30.2126  30.6834  32.4999  33.7233  34.4729  34.5678
    35.0115  35.9564  39.0275  39.0477  39.8580  39.8636  40.3949  41.1017
    41.8927  42.3094  43.3505  43.6339  43.9832  44.7074  44.8358  45.4294
    46.1788  46.6421  46.8579  47.6841  48.1345  49.0605  49.1152  50.3633
    50.5766  51.2572  51.3072  52.1403  52.9264  53.5593  54.6069  55.3663
    55.7992

          k =-0.2000 0.2000 0.0000 (  1863 PWs)   bands (ev):

   -36.1551 -36.1524 -36.0347 -36.0325 -35.9908 -35.9836  -8.0172  -7.2199
    -6.6404  -6.4670   3.3603   4.1943   4.8317   4.9283   5.2390   6.1139
     7.2933   7.6485   8.4429   8.6240   8.6553   9.0969   9.4396   9.8488
    10.2017  10.4414  10.9118  12.1850  12.5969  14.7769  15.1090  15.5261
    18.6445  21.6829  21.7477  24.5480  25.0869  26.0268  26.7862  28.5268
    30.5366  30.6045  31.0540  32.4576  32.5801  32.6660  33.2094  34.8376
    35.3258  37.1022  38.1743  38.1906  39.5813  39.8573  39.8640  40.1279
    40.5337  41.2340  42.1801  42.3431  42.8842  43.1196  44.9976  45.3577
    45.8163  46.8134  46.8387  47.1693  48.3617  48.4826  48.9451  49.7294
    50.4630  50.8967  51.5281  51.9089  52.6544  53.3969  53.6959  54.1909
    55.7877

          k =-0.2000 0.2000-0.3103 (  1851 PWs)   bands (ev):

   -36.1499 -36.1487 -36.0468 -36.0409 -36.0248 -36.0239  -7.7017  -6.9926
    -6.7914  -6.6360   3.8439   4.4585   4.7398   5.0070   5.7672   6.1533
     6.8232   7.1039   7.5705   8.0789   8.3704   9.0411   9.9081  10.0756
    10.5552  10.9309  11.2007  11.8754  13.0240  13.8652  14.5121  15.4524
    19.6606  22.7135  22.8688  25.0688  25.5535  25.6139  26.6636  27.6161
    28.5677  29.2899  29.6721  31.0450  32.5332  34.0629  34.5958  34.7529
    35.8117  36.7694  37.9873  38.9655  39.0182  39.2389  39.8666  39.8721
    40.1428  40.9347  42.2242  42.5951  44.3012  44.6123  45.0896  45.5797
    46.1542  47.3571  47.5939  48.2825  48.3688  48.4840  48.5395  49.6888
    49.8007  50.8892  51.2195  52.6402  53.6529  53.8026  54.6163  55.2535
    55.4541

          k =-0.2000 0.2000-0.6207 (  1849 PWs)   bands (ev):

   -36.1501 -36.1418 -36.1349 -36.1260 -36.0105 -36.0103  -7.2020  -6.9349
    -6.9013  -6.6569   4.4726   4.5620   4.9093   5.0848   5.4990   6.4756
     6.5999   7.0879   7.3805   7.6380   8.1742   8.8039   9.7760  10.1594
    10.5729  10.9509  11.4225  12.0593  12.4133  13.8661  14.0988  15.3661
    21.5189  23.4136  23.9740  25.0292  25.4772  25.6707  26.3132  27.1934
    27.5082  27.9897  28.6354  29.8889  31.7388  32.9568  34.8547  35.0281
    35.7937  37.9256  38.3398  39.0760  39.2530  39.8130  39.8681  39.9204
    41.0908  41.2449  41.9658  43.0275  43.9069  44.5414  44.7252  45.9113
    46.7808  46.7963  47.7582  48.5910  48.7994  49.4119  49.9934  51.0131
    51.0619  52.0450  52.1440  52.7074  53.3952  54.1992  54.4834  55.0097
    55.7434

          k =-0.2000 0.4000 0.0000 (  1868 PWs)   bands (ev):

   -36.1545 -36.1531 -36.0349 -36.0332 -35.9884 -35.9856  -7.7545  -7.4315
    -6.6562  -6.5517   3.6076   4.1643   4.8522   4.9123   5.8747   6.1956
     6.7554   7.4291   7.7538   8.2031   8.7217   9.1992   9.7463   9.8969
    10.0931  10.4141  11.4277  11.8883  13.5280  14.6496  14.7750  14.9864
    19.8073  20.9963  22.4620  23.5565  25.3998  25.8024  26.9711  27.9880
    30.8547  31.4529  31.4985  31.9330  32.2281  33.0305  33.3951  33.5633
    35.0755  37.0293  37.2829  38.2000  38.8626  39.2926  39.8691  39.8743
    41.6124  41.9408  42.5413  42.6379  43.4438  44.1686  45.4728  46.2693
    46.6272  46.7613  47.0172  47.6063  47.9968  49.2273  49.4704  49.7787
    50.2641  50.8802  51.1203  51.1963  51.3435  52.7239  52.9447  53.4843
    55.4425

          k =-0.2000 0.4000-0.3103 (  1856 PWs)   bands (ev):

   -36.1497 -36.1490 -36.0451 -36.0426 -36.0248 -36.0243  -7.4741  -7.1885
    -6.7858  -6.7006   4.0471   4.4857   4.7535   4.8543   6.0935   6.3055
     6.7424   7.0058   7.3471   7.6620   8.4251   8.7431  10.2201  10.3181
    10.5023  10.9009  11.3510  11.6032  13.3993  13.7881  14.5850  15.0743
    20.6225  21.7737  23.3987  24.2697  25.6167  25.7907  26.8935  27.2568
    28.4442  29.1419  30.1062  30.9286  32.2527  34.0387  34.6398  34.9754
    36.2424  36.4118  37.8215  38.1936  38.9288  39.5079  39.8673  39.8697
    40.4536  41.4620  42.4134  42.9012  44.1101  45.0403  45.4975  45.9358
    46.7795  47.4503  47.6913  48.1733  48.3717  48.8156  49.0861  49.7578
    50.2232  51.0460  51.1735  52.4132  52.6265  53.0479  53.6000  54.0410
    55.4316

          k =-0.2000 0.4000-0.6207 (  1853 PWs)   bands (ev):

   -36.1502 -36.1462 -36.1306 -36.1263 -36.0106 -36.0104  -7.1670  -7.0630
    -6.7794  -6.6745   4.4533   4.5520   4.7493   4.9714   5.6206   6.2239
     6.7520   7.0773   7.5201   7.8955   8.3598   9.1883   9.5036  10.2966
    10.3233  10.5072  11.6093  11.9198  12.5308  13.1909  14.9014  15.4328
    21.8721  22.6562  23.8227  24.3971  25.2593  25.5872  26.2831  27.0065
    27.8428  28.2753  29.0353  30.1397  31.9278  33.2891  34.8480  35.2241
    35.5265  36.7976  38.7944  38.8829  39.6180  39.8660  39.8683  40.4950
    40.8933  42.1013  42.8492  43.1816  43.6647  44.5054  44.9677  45.9238
    46.4084  46.6746  47.2377  48.2823  48.8636  49.7599  50.0572  50.6310
    51.1016  51.5859  51.8642  52.8642  53.6958  54.1327  54.7237  55.1888
    56.1400

          k =-0.4000 0.4000 0.0000 (  1848 PWs)   bands (ev):

   -36.1553 -36.1546 -36.0325 -36.0317 -35.9871 -35.9861  -7.6790  -7.5582
    -6.5882  -6.5328   3.3692   3.6133   4.8041   4.8377   6.4363   7.0227
     7.0264   7.7727   8.1816   8.3255   8.5898   9.0604   9.0640   9.4495
     9.7019   9.9082  11.8300  11.9891  13.5852  14.0407  14.9830  15.1029
    20.7580  21.5386  22.1324  22.8937  25.1700  25.3545  27.3670  27.8603
    31.1884  31.6939  32.0037  32.2342  32.3785  32.4731  32.6869  33.2185
    35.8836  36.4709  37.0005  37.8770  39.0514  39.8515  39.8686  40.0105
    40.8536  41.9224  42.4245  42.4578  42.9280  43.5929  45.3275  46.2060
    47.1991  47.6382  47.6420  47.7529  49.6896  49.7366  50.0323  50.2598
    50.4647  51.1176  51.2446  51.3116  52.0872  52.2505  52.9414  53.0310
    55.2169

          k =-0.4000 0.4000-0.3103 (  1864 PWs)   bands (ev):

   -36.1505 -36.1501 -36.0444 -36.0432 -36.0242 -36.0238  -7.4016  -7.2964
    -6.7344  -6.6937   3.8590   4.0577   4.6630   4.7222   6.6222   6.8389
     6.9500   7.3155   7.6687   7.8592   8.0295   8.3960   9.8674  10.2921
    10.3762  10.4229  11.5130  11.5911  13.7851  14.0216  14.5240  14.6950
    21.3502  22.0656  22.7975  23.4183  25.6855  25.7732  26.9341  27.3088
    28.0977  28.5393  30.8515  31.6782  32.5873  34.1640  34.2109  34.3963
    36.7029  36.9635  37.8347  38.4869  38.7847  38.9891  39.8649  39.8675
    41.4588  41.6448  42.0545  42.3533  43.6545  44.0190  45.6927  45.7698
    47.2894  47.5238  47.9090  48.5774  48.8131  49.0905  49.7707  50.2978
    50.4640  50.9079  51.9726  52.0587  52.2503  52.4798  53.0736  53.6341
    53.8094

          k =-0.4000 0.4000-0.6207 (  1867 PWs)   bands (ev):

   -36.1465 -36.1422 -36.1349 -36.1304 -36.0110 -36.0108  -7.0722  -6.9477
    -6.8968  -6.7691   4.5399   4.8020   4.8451   4.9397   5.4081   5.7457
     6.5027   6.7418   7.7934   7.9698   8.7754   9.1046  10.1741  10.2557
    10.3251  10.7602  11.1354  11.5608  13.1937  14.0845  14.0986  14.9201
    22.0150  22.4284  23.3434  23.7314  25.0528  25.1936  25.9958  26.2773
    28.8997  28.9218  30.2126  30.6835  32.4998  33.7233  34.4730  34.5678
    35.0114  35.9565  39.0274  39.0479  39.8579  39.8637  40.3949  41.1017
    41.8927  42.3094  43.3506  43.6339  43.9831  44.7074  44.8358  45.4294
    46.1789  46.6421  46.8579  47.6842  48.1345  49.0604  49.1153  50.3632
    50.5766  51.2572  51.3072  52.1404  52.9265  53.5593  54.6069  55.3664
    55.7992

     the Fermi energy is    11.5985 ev

!    total energy              =    -469.81183310 Ry
     Harris-Foulkes estimate   =    -469.81183186 Ry
     estimated scf accuracy    <       0.00000081 Ry

     The total energy is the sum of the following terms:

     one-electron contribution =    -141.63312716 Ry
     hartree contribution      =     106.75258590 Ry
     xc contribution           =     -87.10018735 Ry
     ewald contribution        =    -347.83073188 Ry
     smearing contrib. (-TS)   =      -0.00037260 Ry

     total magnetization       =     0.14 Bohr mag/cell
     absolute magnetization    =     0.14 Bohr mag/cell

     convergence has been achieved in  15 iterations

     Forces acting on atoms (Ry/au):


     negative rho (up, down):  0.870E-01 0.871E-01
     atom    1 type  1   force =     0.00000000    0.00000000    0.00000000
     atom    2 type  1   force =     0.00000000    0.00000000    0.00000000
     atom    3 type  2   force =    -0.00880834   -0.00880834    0.00000000
     atom    4 type  2   force =     0.00880834    0.00880834    0.00000000
     atom    5 type  2   force =    -0.00880128    0.00880128   -0.00000000
     atom    6 type  2   force =     0.00880128   -0.00880128   -0.00000000

     Total force =     0.024904     Total SCF correction =     0.000273


     entering subroutine stress ...


     negative rho (up, down):  0.870E-01 0.871E-01
          total   stress  (Ry/bohr**3)                   (kbar)     P=  -15.97
  -0.00053446   0.00000039   0.00000000        -78.62      0.06      0.00
   0.00000039  -0.00053446   0.00000000          0.06    -78.62      0.00
   0.00000000   0.00000000   0.00074317          0.00      0.00    109.32

     Volume is kept fixed: isostatic pressure set to zero

     BFGS Geometry Optimization

     number of scf cycles    =   1
     number of bfgs steps    =   0

     enthalpy new            =    -469.8118331002 Ry

     new trust radius        =       0.0887856083 bohr
     new conv_thr            =       0.0000010000 Ry

     new unit-cell volume =    434.62649 a.u.^3 (    64.40500 Ang^3 )

CELL_PARAMETERS (alat=  8.76954180)
   0.989464447   0.000009850   0.000000000
   0.000009850   0.989464447   0.000000000
   0.000000000   0.000000000   0.658241252

ATOMIC_POSITIONS (crystal)
Rh0      0.000000000   0.000000000   0.000000000    0   0   0
Rh0      0.500000000   0.500000000   0.500000000    0   0   0
O1       0.303995576   0.303995576   0.000000000    1   1   0
O1      -0.303995576  -0.303995576   0.000000000    1   1   0
O1       0.803996381   0.196003619   0.500000000    1   1   0
O1       0.196003619   0.803996381   0.500000000    1   1   0


     Check: negative starting charge=(component1):   -0.161626
     NEW-OLD atomic charge density approx. for the potential
     NEW k-points:
        k(    1) = (   0.0000000   0.0000000   0.0000000), wk =   0.0080000
        k(    2) = (   0.0000000   0.0000000   0.3038400), wk =   0.0160000
        k(    3) = (   0.0000000   0.0000000   0.6076799), wk =   0.0160000
        k(    4) = (  -0.0000020   0.2021295   0.0000000), wk =   0.0320000
        k(    5) = (  -0.0000020   0.2021295   0.3038400), wk =   0.0640000
        k(    6) = (  -0.0000020   0.2021295   0.6076799), wk =   0.0640000
        k(    7) = (  -0.0000040   0.4042591   0.0000000), wk =   0.0320000
        k(    8) = (  -0.0000040   0.4042591   0.3038400), wk =   0.0640000
        k(    9) = (  -0.0000040   0.4042591   0.6076799), wk =   0.0640000
        k(   10) = (   0.2021275   0.2021275   0.0000000), wk =   0.0160000
        k(   11) = (   0.2021275   0.2021275   0.3038400), wk =   0.0320000
        k(   12) = (   0.2021275   0.2021275   0.6076799), wk =   0.0320000
        k(   13) = (   0.2021255   0.4042571   0.0000000), wk =   0.0320000
        k(   14) = (   0.2021255   0.4042571   0.3038400), wk =   0.0640000
        k(   15) = (   0.2021255   0.4042571   0.6076799), wk =   0.0640000
        k(   16) = (   0.4042551   0.4042551   0.0000000), wk =   0.0160000
        k(   17) = (   0.4042551   0.4042551   0.3038400), wk =   0.0320000
        k(   18) = (   0.4042551   0.4042551   0.6076799), wk =   0.0320000
        k(   19) = (  -0.2021316   0.2021316   0.0000000), wk =   0.0160000
        k(   20) = (  -0.2021316   0.2021316  -0.3038400), wk =   0.0320000
        k(   21) = (  -0.2021316   0.2021316  -0.6076799), wk =   0.0320000
        k(   22) = (  -0.2021336   0.4042611   0.0000000), wk =   0.0320000
        k(   23) = (  -0.2021336   0.4042611  -0.3038400), wk =   0.0640000
        k(   24) = (  -0.2021336   0.4042611  -0.6076799), wk =   0.0640000
        k(   25) = (  -0.4042631   0.4042631   0.0000000), wk =   0.0160000
        k(   26) = (  -0.4042631   0.4042631  -0.3038400), wk =   0.0320000
        k(   27) = (  -0.4042631   0.4042631  -0.6076799), wk =   0.0320000
        k(   28) = (   0.0000000   0.0000000   0.0000000), wk =   0.0080000
        k(   29) = (   0.0000000   0.0000000   0.3038400), wk =   0.0160000
        k(   30) = (   0.0000000   0.0000000   0.6076799), wk =   0.0160000
        k(   31) = (  -0.0000020   0.2021295   0.0000000), wk =   0.0320000
        k(   32) = (  -0.0000020   0.2021295   0.3038400), wk =   0.0640000
        k(   33) = (  -0.0000020   0.2021295   0.6076799), wk =   0.0640000
        k(   34) = (  -0.0000040   0.4042591   0.0000000), wk =   0.0320000
        k(   35) = (  -0.0000040   0.4042591   0.3038400), wk =   0.0640000
        k(   36) = (  -0.0000040   0.4042591   0.6076799), wk =   0.0640000
        k(   37) = (   0.2021275   0.2021275   0.0000000), wk =   0.0160000
        k(   38) = (   0.2021275   0.2021275   0.3038400), wk =   0.0320000
        k(   39) = (   0.2021275   0.2021275   0.6076799), wk =   0.0320000
        k(   40) = (   0.2021255   0.4042571   0.0000000), wk =   0.0320000
        k(   41) = (   0.2021255   0.4042571   0.3038400), wk =   0.0640000
        k(   42) = (   0.2021255   0.4042571   0.6076799), wk =   0.0640000
        k(   43) = (   0.4042551   0.4042551   0.0000000), wk =   0.0160000
        k(   44) = (   0.4042551   0.4042551   0.3038400), wk =   0.0320000
        k(   45) = (   0.4042551   0.4042551   0.6076799), wk =   0.0320000
        k(   46) = (  -0.2021316   0.2021316   0.0000000), wk =   0.0160000
        k(   47) = (  -0.2021316   0.2021316  -0.3038400), wk =   0.0320000
        k(   48) = (  -0.2021316   0.2021316  -0.6076799), wk =   0.0320000
        k(   49) = (  -0.2021336   0.4042611   0.0000000), wk =   0.0320000
        k(   50) = (  -0.2021336   0.4042611  -0.3038400), wk =   0.0640000
        k(   51) = (  -0.2021336   0.4042611  -0.6076799), wk =   0.0640000
        k(   52) = (  -0.4042631   0.4042631   0.0000000), wk =   0.0160000
        k(   53) = (  -0.4042631   0.4042631  -0.3038400), wk =   0.0320000
        k(   54) = (  -0.4042631   0.4042631  -0.6076799), wk =   0.0320000

     Check: negative/imaginary core charge=   -0.000004    0.000000
     Check: negative starting charge=(component1):   -0.161884

     negative rho (up, down):  0.870E-01 0.872E-01

     total cpu time spent up to now is      575.6 secs

     per-process dynamical memory:    64.8 Mb

     Self-consistent Calculation

     iteration #  1     ecut=    40.00 Ry     beta=0.30
     Davidson diagonalization with overlap
     ethr =  1.00E-06,  avg # of iterations =  5.3

     negative rho (up, down):  0.870E-01 0.872E-01

     total cpu time spent up to now is      647.2 secs

     total energy              =    -469.82002795 Ry
     Harris-Foulkes estimate   =    -469.82006689 Ry
     estimated scf accuracy    <       0.00041416 Ry

     total magnetization       =     0.15 Bohr mag/cell
     absolute magnetization    =     0.15 Bohr mag/cell

     iteration #  2     ecut=    40.00 Ry     beta=0.30
     Davidson diagonalization with overlap
     ethr =  7.67E-07,  avg # of iterations =  1.0

     negative rho (up, down):  0.870E-01 0.871E-01

     total cpu time spent up to now is      675.1 secs

     total energy              =    -469.82004091 Ry
     Harris-Foulkes estimate   =    -469.82003967 Ry
     estimated scf accuracy    <       0.00014784 Ry

     total magnetization       =     0.15 Bohr mag/cell
     absolute magnetization    =     0.15 Bohr mag/cell

     iteration #  3     ecut=    40.00 Ry     beta=0.30
     Davidson diagonalization with overlap
     ethr =  2.74E-07,  avg # of iterations =  1.0

     negative rho (up, down):  0.870E-01 0.871E-01

     total cpu time spent up to now is      702.9 secs

     total energy              =    -469.82005995 Ry
     Harris-Foulkes estimate   =    -469.82005598 Ry
     estimated scf accuracy    <       0.00001714 Ry

     total magnetization       =     0.15 Bohr mag/cell
     absolute magnetization    =     0.15 Bohr mag/cell

     iteration #  4     ecut=    40.00 Ry     beta=0.30
     Davidson diagonalization with overlap
     ethr =  3.17E-08,  avg # of iterations =  1.0

     negative rho (up, down):  0.870E-01 0.871E-01

     total cpu time spent up to now is      731.4 secs

     total energy              =    -469.82006434 Ry
     Harris-Foulkes estimate   =    -469.82006237 Ry
     estimated scf accuracy    <       0.00001023 Ry

     total magnetization       =     0.15 Bohr mag/cell
     absolute magnetization    =     0.15 Bohr mag/cell

     iteration #  5     ecut=    40.00 Ry     beta=0.30
     Davidson diagonalization with overlap
     ethr =  1.89E-08,  avg # of iterations =  1.0

     negative rho (up, down):  0.870E-01 0.871E-01

     total cpu time spent up to now is      759.4 secs

     total energy              =    -469.82006583 Ry
     Harris-Foulkes estimate   =    -469.82006665 Ry
     estimated scf accuracy    <       0.00001437 Ry

     total magnetization       =     0.15 Bohr mag/cell
     absolute magnetization    =     0.15 Bohr mag/cell

     iteration #  6     ecut=    40.00 Ry     beta=0.30
     Davidson diagonalization with overlap
     ethr =  1.89E-08,  avg # of iterations =  1.0

     negative rho (up, down):  0.870E-01 0.871E-01

     total cpu time spent up to now is      787.4 secs

     End of self-consistent calculation

 ------ SPIN UP ------------


          k = 0.0000 0.0000 0.0000 (  1875 PWs)   bands (ev):

   -36.2258 -36.2248 -36.0420 -36.0410 -36.0296 -36.0186  -8.2381  -7.1374
    -6.4043  -6.4042   3.3151   3.4367   4.7385   4.8706   4.8710   7.5304
     7.5307   7.7568   9.0043   9.1640   9.1721   9.3411   9.3418   9.6196
     9.6197   9.6406  10.2969  11.7544  12.3980  14.9640  14.9640  16.2526
    17.5693  21.4970  21.4971  25.1575  25.2549  26.0480  27.4162  29.0547
    29.0552  29.2176  29.8042  32.3057  34.2797  34.2801  35.6435  35.6438
    35.6861  37.1021  37.1026  37.5291  38.4980  39.7679  39.8340  39.9242
    40.0459  40.2196  42.2548  42.3528  42.3528  42.6312  43.7036  43.7039
    45.6914  45.6922  45.9346  46.7067  48.3363  51.0186  51.0186  51.3155
    51.3162  51.3974  51.8916  52.1030  52.8438  52.8440  52.8463  53.0102
    53.4317

          k = 0.0000 0.0000 0.3038 (  1871 PWs)   bands (ev):

   -36.2222 -36.2211 -36.0742 -36.0634 -36.0352 -36.0342  -7.9173  -6.9891
    -6.5612  -6.5611   3.6900   3.9549   4.9668   4.9670   5.1491   6.5921
     7.4517   7.8327   7.8331   8.1136   8.1140   9.1277   9.7250   9.9690
    10.0843  10.8471  10.8475  12.0950  12.5618  14.3265  14.3266  15.5261
    18.7688  22.8235  22.8236  25.1071  25.2816  26.3655  26.6406  28.0485
    28.4403  28.6491  28.6497  33.0791  33.7243  33.7246  34.3607  35.0346
    35.0347  37.4149  37.9099  38.7895  39.1185  39.1185  39.8404  39.8446
    40.2019  40.2020  40.9390  41.3670  43.0030  44.8159  44.8165  45.6192
    46.4925  46.5458  47.3453  47.3458  48.3749  49.2003  49.7120  49.7125
    49.9624  51.3124  51.3124  52.1780  53.5839  54.5437  54.5443  54.7760
    55.8857

          k = 0.0000 0.0000 0.6077 (  1848 PWs)   bands (ev):

   -36.2155 -36.2144 -36.1432 -36.1391 -36.0241 -36.0231  -7.2477  -6.8659
    -6.8060  -6.8060   4.3215   4.6064   5.4453   5.4455   5.7297   6.1983
     6.2988   6.7270   6.7272   7.8858   8.4168   8.4171   9.8342  10.3165
    10.4177  11.3190  11.6931  11.6936  13.3643  13.7791  13.7795  14.0528
    21.2186  23.5540  24.9586  24.9586  25.7414  26.1993  26.3521  26.6410
    27.5843  27.5849  27.9922  29.9475  32.8013  32.8017  35.2092  35.2092
    36.0591  37.6022  37.8785  39.2450  39.2780  39.5393  39.5394  39.8460
    39.8509  40.9273  41.7038  41.7040  44.7517  44.7523  44.8125  46.8070
    47.3940  47.3943  48.0325  48.0328  48.4675  48.5669  49.2745  50.2655
    50.4293  51.3881  51.3888  52.1445  54.3144  54.3152  54.5851  55.3230
    55.5889

          k =-0.0000 0.2021 0.0000 (  1870 PWs)   bands (ev):

   -36.2250 -36.2240 -36.0424 -36.0414 -36.0287 -36.0195  -8.1063  -7.1405
    -6.5451  -6.4630   3.5647   3.7326   4.8976   4.9098   4.9899   6.9557
     7.0175   7.5710   8.2967   8.3939   9.1589   9.4673   9.7112   9.9069
    10.0701  10.1427  10.3610  12.1649  12.4147  14.8060  14.8434  15.9455
    18.1157  21.3723  21.7492  24.8182  25.3298  25.9394  27.1633  29.1632
    29.5722  29.6027  30.2193  32.1713  32.7299  33.1774  34.5603  35.4920
    36.0989  37.0918  37.2483  37.7979  39.8280  39.8381  39.8432  40.0323
    40.0830  41.2993  41.3049  41.7796  42.3253  43.9482  44.2687  44.5148
    46.0799  46.1657  46.8806  47.0592  48.0308  49.5228  49.5329  49.8211
    50.8338  50.8466  51.6894  51.7258  52.0886  52.6281  54.3251  54.7171
    55.0970

          k =-0.0000 0.2021 0.3038 (  1862 PWs)   bands (ev):

   -36.2216 -36.2205 -36.0731 -36.0647 -36.0353 -36.0343  -7.8048  -6.9701
    -6.6909  -6.6046   3.9157   4.1389   4.9336   4.9635   5.5217   6.3781
     6.8004   7.4618   7.6418   8.0389   8.2196   9.2742   9.8120  10.1931
    10.4323  10.6644  10.9442  11.9239  12.9709  13.9306  14.2623  15.5947
    19.1979  22.4901  23.0127  25.0185  25.4836  26.1306  26.7710  27.7433
    28.0684  28.5380  29.9026  32.2452  32.3113  33.3736  34.7519  35.0208
    36.2060  37.1898  37.5973  38.4972  38.8365  39.2769  39.8433  39.8449
    40.2228  40.4566  41.5357  42.7876  43.9824  44.2156  45.3208  45.8234
    46.1265  46.6819  46.7792  47.5038  48.4283  48.9510  49.2619  49.6934
    49.8063  51.1292  52.1298  52.5142  53.5521  53.8289  54.2726  54.7798
    55.6205

          k =-0.0000 0.2021 0.6077 (  1852 PWs)   bands (ev):

   -36.2164 -36.2153 -36.1422 -36.1385 -36.0242 -36.0231  -7.2358  -6.9815
    -6.7779  -6.7222   4.3692   4.5918   4.9249   5.3176   5.8515   6.2036
     6.5534   7.0138   7.1683   8.0192   8.1527   8.3712   9.9702  10.0904
    10.3501  10.8629  11.7801  11.7990  12.8915  12.9709  14.4247  14.9460
    21.3369  23.3380  24.4544  25.0308  25.8398  25.9688  26.6219  26.6775
    27.2329  27.4291  28.9968  29.4982  32.3399  32.8115  35.1210  35.4331
    36.2808  37.3583  38.3982  38.6675  39.2726  39.4675  39.8460  39.8488
    40.5680  41.0737  41.5976  42.1362  44.2150  44.8016  45.4494  45.9349
    46.5681  47.0401  47.4064  48.5153  48.9648  49.3996  49.8109  50.6606
    50.7050  51.3780  52.1863  52.4615  53.8556  54.0397  54.5077  54.8144
    55.2683

          k =-0.0000 0.4043 0.0000 (  1860 PWs)   bands (ev):

   -36.2239 -36.2228 -36.0432 -36.0422 -36.0259 -36.0219  -7.7511  -7.3231
    -6.6931  -6.5987   4.1760   4.3253   4.9552   4.9682   5.7583   6.0745
     6.1039   6.9751   7.4485   7.7338   9.2481   9.5953   9.9823  10.2051
    10.3125  10.5116  10.9483  11.6322  13.7475  14.5620  14.6055  15.0505
    19.3763  20.6574  22.5485  23.7439  25.9013  25.9362  27.0742  28.5361
    29.6824  30.5988  30.9422  31.3732  31.6252  33.2008  33.6213  34.9850
    36.7697  37.0193  37.2970  37.6608  37.8308  38.4845  39.8465  39.8482
    41.8054  42.1727  42.4042  42.4297  43.9286  44.3724  45.5271  45.6238
    46.8688  46.9136  47.4944  47.7816  48.0043  48.6724  48.9739  49.0109
    49.3798  50.2701  50.5060  51.1820  51.6821  52.6142  54.2714  54.7635
    55.6770

          k =-0.0000 0.4043 0.3038 (  1852 PWs)   bands (ev):

   -36.2210 -36.2199 -36.0706 -36.0673 -36.0356 -36.0346  -7.5004  -7.1136
    -6.8125  -6.7100   4.4731   4.5345   4.9286   5.0220   5.8210   6.0690
     6.5320   6.7802   6.9231   7.4883   8.7771   9.1387  10.0833  10.3870
    10.7682  10.8391  11.1825  11.5169  13.3467  13.4257  14.5486  15.2687
    20.2834  21.5331  23.6407  24.5118  25.9622  26.0456  26.9156  27.0801
    27.8407  29.0607  30.0996  30.7404  32.2119  33.6634  34.7400  34.9249
    36.7329  36.9152  37.5022  37.9951  38.7580  39.0505  39.6632  39.8482
    39.8635  41.6260  42.3765  43.3218  44.0834  44.6079  45.6914  46.4067
    46.7760  46.9987  47.5703  47.6922  48.6451  48.7927  49.7626  49.7938
    50.0228  50.2804  50.8600  52.8016  53.3246  53.9767  54.4780  54.5034
    54.5722

          k =-0.0000 0.4043 0.6077 (  1852 PWs)   bands (ev):

   -36.2176 -36.2166 -36.1402 -36.1388 -36.0242 -36.0231  -7.1932  -7.1076
[...]
     6.8578   7.4999   7.5488   7.6177   8.3180   9.1708   9.3627  10.0734
    10.1083  10.1914  11.9487  11.9589  12.3309  12.4922  15.1700  15.4191
    21.7347  22.5321  24.1167  24.5008  25.8384  26.2070  26.6088  26.6562
    27.5651  28.0672  28.6468  29.4300  32.6215  33.2677  35.4204  35.6508
    36.4861  37.1807  38.7050  38.9429  39.0857  39.2471  39.4153  39.8350
    39.8443  40.6645  42.5372  43.5073  43.7234  43.8516  45.8057  45.8966
    46.4755  46.8579  47.8950  48.0383  49.1468  49.1866  50.2452  51.2188
    51.3985  51.6585  52.4018  52.9028  53.8865  54.4862  54.6698  54.8901
    55.0828

          k = 0.2041 0.2041 0.0000 (  1852 PWs)   bands (ev):

   -36.1648 -36.1627 -36.0422 -36.0333 -35.9591 -35.9575  -7.9896  -7.1649
    -6.5858  -6.3677   3.3930   4.3305   4.7731   4.8970   5.3310   6.2313
     7.3530   7.4856   8.4834   8.6688   8.7041   9.3156   9.3332   9.9078
    10.3775  10.4253  10.7780  12.1545  12.7623  14.6663  15.0409  15.6373
    18.6687  21.5904  21.6150  24.4086  25.2894  26.0922  27.2623  28.8783
    29.5398  30.1171  30.8379  31.6158  32.7904  32.9661  33.6683  34.4314
    35.2495  36.4440  38.3827  38.6569  38.9794  39.8256  39.8294  40.5112
    40.8657  40.8964  41.5338  41.7206  43.0942  43.6549  45.0985  45.2530
    46.0066  46.5320  47.2786  47.3404  47.7748  48.2566  49.5593  50.2612
    50.3907  50.6506  51.5321  51.9469  52.8600  53.6802  54.2735  54.5119
    55.2907

          k = 0.2041 0.2041 0.2980 (  1854 PWs)   bands (ev):

   -36.1616 -36.1608 -36.0790 -36.0723 -35.9531 -35.9521  -7.7083  -6.9755
    -6.7264  -6.5213   3.8057   4.5653   4.8030   5.1273   5.8369   6.0407
     6.8044   7.1436   7.6536   8.2084   8.5819   9.2475   9.8867   9.8925
    10.4956  10.8476  11.2060  11.8837  13.1697  13.7684  14.3642  15.4637
    19.5904  22.5516  22.6790  24.7108  25.5748  25.6664  27.1037  27.4909
    28.3725  29.4059  29.8209  31.0080  32.8910  33.2957  34.7750  34.9351
    35.9351  36.6466  38.1610  38.4913  38.8238  39.0959  39.8329  39.8367
    40.2962  41.2134  42.2686  42.6703  44.4860  44.6440  44.6557  45.2104
    46.4334  46.4445  47.3578  47.9117  48.2861  49.0618  49.0749  49.4512
    49.7648  51.0896  51.5512  52.9424  53.1401  54.5626  54.7309  54.9325
    55.6262

          k = 0.2041 0.2041 0.5960 (  1859 PWs)   bands (ev):

   -36.1627 -36.1561 -36.1381 -36.1309 -35.9435 -35.9431  -7.1939  -6.9442
    -6.7599  -6.6901   4.4559   4.7046   4.8875   5.1507   5.7027   6.5805
     6.7495   7.1049   7.4377   7.8659   8.2100   8.7806   9.8935   9.9562
    10.1821  11.0580  11.3748  12.0915  12.3163  13.6325  13.9923  15.2337
    21.3818  23.2255  23.8999  24.7036  25.1615  25.5338  26.6159  27.2065
    27.7940  28.3916  28.8568  30.2807  32.1713  32.9424  35.0408  35.3248
    36.0687  37.4091  38.4082  39.3111  39.5217  39.6472  39.8350  39.8369
    40.7311  41.1702  42.0415  42.3906  43.9883  44.5341  44.6652  45.4178
    46.7381  46.8000  47.9967  48.1381  48.2904  49.4690  49.9272  50.2582
    50.9611  51.9306  52.1300  52.2766  53.3483  53.6812  54.8615  55.1006
    56.0440

          k = 0.2041 0.4082 0.0000 (  1848 PWs)   bands (ev):

   -36.1641 -36.1629 -36.0391 -36.0361 -35.9590 -35.9578  -7.7132  -7.3735
    -6.6049  -6.4711   3.6675   4.2951   4.7965   4.8727   5.9791   6.3161
     6.9077   7.4869   7.6438   7.9878   8.7751   9.3166   9.8252   9.8953
    10.2671  10.3905  11.3332  11.8298  13.6966  14.6647  14.8030  14.9029
    19.8283  20.9754  22.4160  23.5272  25.5439  25.8654  27.2848  28.2474
    30.4790  30.9437  31.0169  31.2633  31.6650  32.6639  33.4653  33.7487
    35.5711  36.6371  37.5519  37.7266  39.0020  39.4231  39.8376  39.8463
    41.5969  41.9334  42.2807  42.5626  43.2077  44.6814  44.7369  45.7967
    46.7498  47.1950  47.5797  48.1453  48.6301  48.6752  48.9800  49.6686
    50.1972  50.9167  51.0655  51.6047  52.1536  53.6897  54.1320  54.6237
    54.8238

          k = 0.2041 0.4082 0.2980 (  1853 PWs)   bands (ev):

   -36.1613 -36.1611 -36.0770 -36.0743 -35.9530 -35.9523  -7.4657  -7.1609
    -6.7295  -6.6078   4.0467   4.5947   4.8199   4.9349   6.0364   6.3334
     6.7982   6.9762   7.4607   7.7844   8.5624   8.9173  10.1555  10.2008
    10.4609  10.8091  11.3419  11.5933  13.4682  13.8088  14.4716  15.0642
    20.5736  21.7072  23.3011  24.1988  25.3693  25.6482  27.1515  27.3845
    28.3512  29.1468  30.0264  31.0160  32.3609  33.7020  34.6591  35.0024
    36.2767  36.4278  37.7414  38.0509  38.6413  39.2713  39.8355  39.8370
    40.7041  41.3154  42.2054  42.9510  44.5030  44.9420  45.0959  45.7540
    47.0676  47.2539  47.5832  48.1448  48.4662  48.7294  49.2941  49.9654
    50.5314  50.9529  51.1509  52.3054  52.6991  53.8164  54.0404  54.5603
    55.3744

          k = 0.2041 0.4082 0.5960 (  1865 PWs)   bands (ev):

   -36.1629 -36.1592 -36.1351 -36.1313 -35.9436 -35.9433  -7.1070  -7.0060
    -6.7559  -6.7128   4.5150   4.6098   4.8966   4.9860   5.7353   6.2729
     6.9394   7.1959   7.5460   7.9436   8.5076   9.3272   9.5018  10.0076
    10.1245  10.3878  11.6200  11.9429  12.3981  12.9982  14.7811  15.3067
    21.8050  22.6088  23.7076  24.3147  24.9160  25.3715  26.4235  27.2779
    27.9227  28.4667  29.2801  30.4635  32.3662  33.5794  34.9283  35.3562
    35.6513  36.8296  38.7130  39.0375  39.1980  39.7616  39.8337  39.8370
    41.3452  41.9195  42.3393  42.6662  43.5414  44.1557  45.1996  45.6775
    46.4960  47.2471  47.4979  48.1740  48.5928  49.4152  49.9724  50.3658
    50.9517  51.6420  52.0104  52.6075  53.7287  54.1426  54.5637  55.0887
    55.7329

          k = 0.4082 0.4082 0.0000 (  1838 PWs)   bands (ev):

   -36.1648 -36.1640 -36.0380 -36.0369 -35.9575 -35.9570  -7.6421  -7.5155
    -6.5134  -6.4429   3.4025   3.6731   4.7346   4.7762   6.5619   7.1712
     7.2178   7.9615   7.9746   8.3806   8.4013   9.1495   9.2820   9.3480
     9.8400   9.8920  11.7572  11.9259  13.7072  14.1730  14.8981  15.0321
    20.7597  21.4957  22.1819  22.9198  25.2480  25.4024  27.5541  28.0867
    31.0995  31.2045  31.3052  31.3931  31.7410  32.2401  32.9084  33.1473
    35.9306  36.4222  36.4600  38.5015  39.2434  39.8072  39.8371  39.9480
    41.3650  42.0393  42.2500  43.0808  43.2439  43.5256  43.9562  44.9314
    47.6658  47.9318  48.0762  48.1183  49.4682  50.1641  50.2243  50.4876
    50.5784  50.9780  51.2797  51.6150  52.4378  52.5981  53.7654  53.8001
    54.7659

          k = 0.4082 0.4082 0.2980 (  1857 PWs)   bands (ev):

   -36.1618 -36.1614 -36.0768 -36.0756 -35.9522 -35.9520  -7.4013  -7.2902
    -6.6476  -6.5888   3.8210   4.0561   4.7098   4.7778   6.6206   6.9372
     7.0146   7.4524   7.8084   7.9758   8.0681   8.5144   9.8213  10.2587
    10.3074  10.3750  11.4980  11.5748  13.8354  14.0707  14.3760  14.6209
    21.3064  22.0101  22.7984  23.4359  25.3038  25.4635  27.1516  27.5392
    27.9099  28.4370  31.0528  32.0631  32.3369  34.0081  34.0690  34.2412
    36.6558  37.0723  37.6219  38.5578  38.6480  38.7678  39.8311  39.8355
    40.8834  40.9707  42.2497  43.4769  43.5795  44.6150  45.3453  45.4524
    46.8946  47.4618  47.9638  48.6281  48.9588  49.4802  50.0025  50.1166
    50.9637  50.9819  51.7987  52.1376  52.2628  52.9260  53.4716  53.8659
    54.0203

          k = 0.4082 0.4082 0.5960 (  1857 PWs)   bands (ev):

   -36.1590 -36.1563 -36.1378 -36.1349 -35.9433 -35.9433  -7.0214  -6.9597
    -6.8166  -6.7726   4.5795   4.6716   4.8840   4.9190   5.5819   5.8966
     6.8328   6.9715   7.8137   8.0069   8.9091   9.2448   9.9444  10.0146
    10.2113  10.8679  11.0827  11.5812  12.9932  13.6327  14.2003  14.7942
    21.9778  22.3774  23.4556  23.9160  24.6949  24.8615  25.8328  26.2481
    28.9969  29.0895  30.6045  31.0900  32.9480  34.1804  34.5597  34.6551
    35.0795  36.0156  39.1915  39.2297  39.3545  39.8124  39.8363  39.9902
    41.4776  41.9946  42.5767  43.5283  44.2840  44.7244  45.3599  45.7191
    46.0571  46.4196  47.6329  48.2553  48.9020  49.2051  49.4189  50.2919
    50.3079  51.2340  51.7008  51.9692  52.4770  52.9229  53.6905  54.4026
    55.9127

          k =-0.2041 0.2041 0.0000 (  1852 PWs)   bands (ev):

   -36.1648 -36.1627 -36.0422 -36.0333 -35.9591 -35.9575  -7.9896  -7.1649
    -6.5858  -6.3677   3.3931   4.3305   4.7731   4.8970   5.3310   6.2313
     7.3530   7.4856   8.4834   8.6688   8.7041   9.3156   9.3333   9.9078
    10.3775  10.4253  10.7780  12.1545  12.7623  14.6664  15.0408  15.6373
    18.6687  21.5904  21.6150  24.4086  25.2894  26.0922  27.2623  28.8783
    29.5398  30.1171  30.8380  31.6158  32.7903  32.9661  33.6683  34.4314
    35.2495  36.4440  38.3827  38.6569  38.9794  39.8256  39.8294  40.5112
    40.8657  40.8964  41.5338  41.7206  43.0941  43.6549  45.0985  45.2530
    46.0065  46.5319  47.2786  47.3404  47.7749  48.2567  49.5593  50.2612
    50.3907  50.6507  51.5321  51.9469  52.8599  53.6802  54.2735  54.5120
    55.2907

          k =-0.2041 0.2041-0.2980 (  1854 PWs)   bands (ev):

   -36.1615 -36.1609 -36.0790 -36.0723 -35.9530 -35.9521  -7.7083  -6.9755
    -6.7264  -6.5213   3.8057   4.5653   4.8030   5.1273   5.8369   6.0407
     6.8044   7.1436   7.6536   8.2084   8.5819   9.2475   9.8867   9.8925
    10.4955  10.8476  11.2061  11.8837  13.1697  13.7685  14.3641  15.4637
    19.5904  22.5516  22.6790  24.7108  25.5748  25.6664  27.1037  27.4909
    28.3725  29.4059  29.8209  31.0080  32.8910  33.2957  34.7750  34.9351
    35.9352  36.6466  38.1609  38.4913  38.8238  39.0959  39.8330  39.8367
    40.2962  41.2134  42.2686  42.6704  44.4860  44.6440  44.6557  45.2104
    46.4334  46.4445  47.3578  47.9117  48.2861  49.0618  49.0748  49.4511
    49.7648  51.0896  51.5511  52.9424  53.1401  54.5626  54.7309  54.9325
    55.6261

          k =-0.2041 0.2041-0.5960 (  1859 PWs)   bands (ev):

   -36.1628 -36.1560 -36.1381 -36.1308 -35.9434 -35.9432  -7.1939  -6.9442
    -6.7599  -6.6901   4.4559   4.7046   4.8875   5.1507   5.7027   6.5805
     6.7495   7.1049   7.4377   7.8659   8.2100   8.7806   9.8935   9.9562
    10.1821  11.0580  11.3748  12.0915  12.3163  13.6325  13.9923  15.2337
    21.3818  23.2255  23.8999  24.7036  25.1615  25.5338  26.6159  27.2065
    27.7941  28.3916  28.8568  30.2807  32.1713  32.9424  35.0408  35.3248
    36.0687  37.4091  38.4082  39.3111  39.5217  39.6472  39.8351  39.8368
    40.7311  41.1702  42.0415  42.3906  43.9882  44.5340  44.6652  45.4179
    46.7381  46.8000  47.9966  48.1381  48.2904  49.4690  49.9272  50.2582
    50.9611  51.9306  52.1300  52.2766  53.3483  53.6812  54.8615  55.1006
    56.0442

          k =-0.2041 0.4082 0.0000 (  1848 PWs)   bands (ev):

   -36.1641 -36.1630 -36.0391 -36.0361 -35.9589 -35.9579  -7.7132  -7.3735
    -6.6049  -6.4711   3.6675   4.2951   4.7965   4.8727   5.9791   6.3161
     6.9077   7.4869   7.6438   7.9878   8.7751   9.3166   9.8252   9.8953
    10.2671  10.3905  11.3332  11.8298  13.6966  14.6647  14.8030  14.9028
    19.8283  20.9754  22.4160  23.5272  25.5439  25.8654  27.2848  28.2473
    30.4790  30.9437  31.0169  31.2633  31.6650  32.6639  33.4653  33.7487
    35.5712  36.6371  37.5519  37.7266  39.0020  39.4231  39.8375  39.8464
    41.5969  41.9334  42.2807  42.5626  43.2077  44.6815  44.7369  45.7967
    46.7499  47.1950  47.5797  48.1453  48.6301  48.6752  48.9800  49.6687
    50.1972  50.9167  51.0655  51.6047  52.1535  53.6897  54.1320  54.6237
    54.8238

          k =-0.2041 0.4082-0.2980 (  1853 PWs)   bands (ev):

   -36.1613 -36.1611 -36.0770 -36.0743 -35.9529 -35.9523  -7.4657  -7.1609
    -6.7295  -6.6078   4.0467   4.5947   4.8199   4.9349   6.0364   6.3334
     6.7982   6.9762   7.4607   7.7843   8.5624   8.9173  10.1555  10.2008
    10.4609  10.8091  11.3419  11.5933  13.4683  13.8088  14.4716  15.0642
    20.5736  21.7072  23.3011  24.1988  25.3693  25.6482  27.1515  27.3845
    28.3512  29.1468  30.0264  31.0160  32.3609  33.7020  34.6591  35.0024
    36.2767  36.4278  37.7414  38.0509  38.6412  39.2713  39.8355  39.8371
    40.7041  41.3155  42.2054  42.9510  44.5030  44.9419  45.0960  45.7540
    47.0676  47.2539  47.5833  48.1448  48.4663  48.7294  49.2941  49.9654
    50.5314  50.9529  51.1508  52.3054  52.6991  53.8164  54.0404  54.5603
    55.3744

          k =-0.2041 0.4082-0.5960 (  1865 PWs)   bands (ev):

   -36.1629 -36.1592 -36.1351 -36.1313 -35.9436 -35.9433  -7.1070  -7.0060
    -6.7559  -6.7128   4.5150   4.6098   4.8966   4.9860   5.7353   6.2729
     6.9394   7.1959   7.5460   7.9435   8.5076   9.3272   9.5018  10.0076
    10.1246  10.3878  11.6200  11.9429  12.3981  12.9982  14.7811  15.3067
    21.8050  22.6088  23.7076  24.3147  24.9160  25.3715  26.4236  27.2779
    27.9228  28.4667  29.2801  30.4635  32.3662  33.5794  34.9283  35.3562
    35.6513  36.8296  38.7130  39.0374  39.1980  39.7616  39.8337  39.8371
    41.3452  41.9195  42.3393  42.6662  43.5414  44.1556  45.1996  45.6775
    46.4960  47.2471  47.4979  48.1740  48.5928  49.4152  49.9724  50.3658
    50.9517  51.6420  52.0104  52.6075  53.7288  54.1426  54.5637  55.0888
    55.7330

          k =-0.4082 0.4082 0.0000 (  1838 PWs)   bands (ev):

   -36.1648 -36.1641 -36.0380 -36.0369 -35.9575 -35.9570  -7.6421  -7.5155
    -6.5134  -6.4429   3.4025   3.6731   4.7346   4.7762   6.5619   7.1712
     7.2178   7.9615   7.9746   8.3806   8.4012   9.1495   9.2820   9.3480
     9.8399   9.8920  11.7572  11.9259  13.7072  14.1730  14.8982  15.0320
    20.7597  21.4957  22.1819  22.9198  25.2480  25.4023  27.5541  28.0867
    31.0995  31.2045  31.3052  31.3931  31.7411  32.2401  32.9084  33.1473
    35.9306  36.4222  36.4601  38.5014  39.2434  39.8072  39.8370  39.9480
    41.3649  42.0393  42.2500  43.0808  43.2438  43.5256  43.9563  44.9313
    47.6659  47.9318  48.0761  48.1183  49.4682  50.1640  50.2244  50.4875
    50.5784  50.9781  51.2797  51.6151  52.4377  52.5982  53.7654  53.8001
    54.7658

          k =-0.4082 0.4082-0.2980 (  1857 PWs)   bands (ev):

   -36.1618 -36.1615 -36.0768 -36.0756 -35.9522 -35.9520  -7.4013  -7.2902
    -6.6476  -6.5888   3.8210   4.0561   4.7098   4.7778   6.6206   6.9372
     7.0146   7.4524   7.8084   7.9758   8.0681   8.5143   9.8213  10.2587
    10.3074  10.3750  11.4980  11.5748  13.8354  14.0707  14.3760  14.6209
    21.3064  22.0101  22.7985  23.4359  25.3038  25.4635  27.1516  27.5392
    27.9099  28.4370  31.0528  32.0631  32.3369  34.0081  34.0690  34.2412
    36.6558  37.0724  37.6219  38.5578  38.6480  38.7678  39.8312  39.8355
    40.8833  40.9707  42.2497  43.4768  43.5795  44.6150  45.3453  45.4523
    46.8946  47.4618  47.9638  48.6282  48.9588  49.4801  50.0024  50.1166
    50.9637  50.9819  51.7987  52.1376  52.2628  52.9260  53.4717  53.8659
    54.0203

          k =-0.4082 0.4082-0.5960 (  1857 PWs)   bands (ev):

   -36.1591 -36.1563 -36.1379 -36.1349 -35.9433 -35.9432  -7.0214  -6.9597
    -6.8166  -6.7726   4.5795   4.6716   4.8840   4.9190   5.5818   5.8966
     6.8327   6.9716   7.8137   8.0069   8.9091   9.2448   9.9444  10.0146
    10.2113  10.8679  11.0827  11.5812  12.9932  13.6326  14.2003  14.7942
    21.9778  22.3774  23.4555  23.9160  24.6949  24.8615  25.8329  26.2481
    28.9969  29.0895  30.6045  31.0900  32.9480  34.1804  34.5597  34.6551
    35.0795  36.0156  39.1915  39.2297  39.3545  39.8124  39.8363  39.9902
    41.4776  41.9946  42.5767  43.5283  44.2840  44.7244  45.3600  45.7191
    46.0570  46.4196  47.6329  48.2553  48.9020  49.2051  49.4189  50.2919
    50.3079  51.2340  51.7007  51.9691  52.4770  52.9230  53.6905  54.4026
    55.9127

     the Fermi energy is    11.5931 ev

!    total energy              =    -469.82301335 Ry
     Harris-Foulkes estimate   =    -469.82301320 Ry
     estimated scf accuracy    <          9.5E-09 Ry

     The total energy is the sum of the following terms:

     one-electron contribution =    -137.77150265 Ry
     hartree contribution      =     104.84183553 Ry
     xc contribution           =     -87.04713881 Ry
     ewald contribution        =    -349.84573793 Ry
     smearing contrib. (-TS)   =      -0.00046949 Ry

     total magnetization       =     0.16 Bohr mag/cell
     absolute magnetization    =     0.17 Bohr mag/cell

     convergence has been achieved in  17 iterations

     Forces acting on atoms (Ry/au):


     negative rho (up, down):  0.871E-01 0.873E-01
     atom    1 type  1   force =     0.00000000    0.00000000    0.00000000
     atom    2 type  1   force =     0.00000000    0.00000000    0.00000000
     atom    3 type  2   force =     0.00000753    0.00000753    0.00000000
     atom    4 type  2   force =    -0.00000753   -0.00000753    0.00000000
     atom    5 type  2   force =     0.00001852   -0.00001852   -0.00000000
     atom    6 type  2   force =    -0.00001852    0.00001852   -0.00000000

     Total force =     0.000040     Total SCF correction =     0.000094
     SCF correction compared to forces is large: reduce conv_thr to get better values


     entering subroutine stress ...


     negative rho (up, down):  0.871E-01 0.873E-01
          total   stress  (Ry/bohr**3)                   (kbar)     P=  -45.19
  -0.00032109  -0.00000003   0.00000000        -47.23     -0.00      0.00
  -0.00000003  -0.00032109   0.00000000         -0.00    -47.23      0.00
   0.00000000   0.00000000  -0.00027938          0.00      0.00    -41.10


     init_run     :     26.55s CPU     27.29s WALL (       2 calls)
     electrons    :   2700.43s CPU   2793.39s WALL (       8 calls)
     update_pot   :     26.59s CPU     27.01s WALL (       6 calls)
     forces       :     76.63s CPU     76.70s WALL (       8 calls)
     stress       :    198.99s CPU    199.24s WALL (       8 calls)

     Called by init_run:
     wfcinit      :     16.75s CPU     17.04s WALL (       2 calls)
     potinit      :      2.10s CPU      2.35s WALL (       2 calls)

     Called by electrons:
     c_bands      :   2160.63s CPU   2225.57s WALL (      81 calls)
     sum_band     :    388.53s CPU    393.02s WALL (      81 calls)
     v_of_rho     :     21.29s CPU     21.66s WALL (      86 calls)
     newd         :    139.33s CPU    139.45s WALL (      86 calls)
     mix_rho      :      2.56s CPU      2.61s WALL (      81 calls)

     Called by c_bands:
     init_us_2    :     11.91s CPU     11.97s WALL (    9720 calls)
     cegterg      :   2116.99s CPU   2181.67s WALL (    4374 calls)

     Called by *egterg:
     h_psi        :   1071.28s CPU   1097.30s WALL (   12161 calls)
     s_psi        :     75.61s CPU     75.75s WALL (   12161 calls)
     g_psi        :      5.58s CPU      5.57s WALL (    7679 calls)
     cdiaghg      :    511.11s CPU    512.25s WALL (   11567 calls)

     Called by h_psi:
     add_vuspsi   :     76.39s CPU     77.16s WALL (   12161 calls)

     General routines
     calbec       :    136.19s CPU    143.88s WALL (   17399 calls)
     fft          :     20.97s CPU     21.28s WALL (    2962 calls)
     ffts         :      0.27s CPU      0.27s WALL (     334 calls)
     fftw         :    843.43s CPU    847.08s WALL ( 1969238 calls)
     interpolate  :      2.41s CPU      2.45s WALL (     334 calls)

     Parallel routines
     fft_scatter  :    303.51s CPU    316.96s WALL ( 1972534 calls)

     PWSCF        : 50m39.72s CPU    52m14.33s WALL


   This run was terminated on:  16:39:40  24Jan2014            

=------------------------------------------------------------------------------=
   JOB DONE.
=------------------------------------------------------------------------------=
---------------------------------------
Running PBS batch system epilogue script
Job id: 251920.audhumbla.fysik.dtu.dk
Username: zhonxu
Groupname: campgst
Jobname: RhO2/fine-EOS/ferro/RhO2-v-1.00
Sessionid: 23120
Resources limits: neednodes=1:ppn=4:opteron4,nodes=1:ppn=4:opteron4,walltime=18:00:00
Resources used: cput=03:28:15,mem=388244kb,vmem=1278436kb,walltime=00:52:16
Queuename: verylong
Accounting:
This job has allocated the following 4 nodes:
q121 q121 q121 q121
Finished epilogue job 251920.audhumbla.fysik.dtu.dk for zhonxu
