ScientificPython/2.8-dl160g6-numpy-1.7.1-1(15):ERROR:151: Module 'ScientificPython/2.8-dl160g6-numpy-1.7.1-1' depends on one of the module(s) 'numpy/1.7.1-dl160g6-gfortran-internal-1'
ScientificPython/2.8-dl160g6-numpy-1.7.1-1(15):ERROR:102: Tcl command execution failed: prereq numpy/1.7.1-dl160g6-gfortran-internal-1


     Program PWSCF v.5.0.2 (svn rev. 9656) starts on 31May2014 at  7:51:28 

     This program is part of the open-source Quantum ESPRESSO suite
     for quantum simulation of materials; please cite
         "P. Giannozzi et al., J. Phys.:Condens. Matter 21 395502 (2009);
          URL http://www.quantum-espresso.org", 
     in publications or presentations arising from this work. More details at
     http://www.quantum-espresso.org/quote.php

     Parallel version (MPI), running on    16 processors
     K-points division:     npool     =       4
     R & G space division:  proc/nbgrp/npool/nimage =       4

     Current dimensions of program PWSCF are:
     Max number of different atomic species (ntypx) = 10
     Max number of k-points (npk) =  40000
     Max angular momentum in pseudopotentials (lmaxx) =  3
     Reading input from pwscf.in
Warning: card &CELL ignored
Warning: card / ignored

     Subspace diagonalization in iterative solution of the eigenvalue problem:
     a serial algorithm will be used


     Parallelization info
     --------------------
     sticks:   dense  smooth     PW     G-vecs:    dense   smooth      PW
     Min        1491     475    132               353925    64028    9441
     Max        1492     476    134               353934    64061    9444
     Sum        5965    1901    531              1415713   256153   37769



     bravais-lattice index     =            0
     lattice parameter (alat)  =      12.2076  a.u.
     unit-cell volume          =    7496.5096 (a.u.)^3
     number of atoms/cell      =           33
     number of atomic types    =            3
     number of electrons       =       253.00
     number of Kohn-Sham states=          379
     kinetic-energy cutoff     =      40.0000  Ry
     charge density cutoff     =     500.0000  Ry
     convergence threshold     =      1.0E-06
     mixing beta               =       0.7000
     number of iterations used =            8  plain     mixing
     Exchange-correlation      = SLA  PW   PBE  PBE ( 1 4 3 4 0)
     EXX-fraction              =        0.00
     nstep                     =           50


     celldm(1)=  12.207631  celldm(2)=   0.000000  celldm(3)=   0.000000
     celldm(4)=   0.000000  celldm(5)=   0.000000  celldm(6)=   0.000000

     crystal axes: (cart. coord. in units of alat)
               a(1) = (   1.000000   0.000000   0.000000 )  
               a(2) = (   0.000000   1.004836   0.000000 )  
               a(3) = (   0.000000   0.000000   4.100811 )  

     reciprocal axes: (cart. coord. in units 2 pi/alat)
               b(1) = (  1.000000  0.000000  0.000000 )  
               b(2) = (  0.000000  0.995187  0.000000 )  
               b(3) = (  0.000000  0.000000  0.243854 )  


     PseudoPot. # 1 for O  read from file:
     /home/camp/zhonxu/pseudo/o_pbe_v1.01.uspp.F.UPF
     MD5 check sum: 2bcb18d16ea4b960afae9ec6d52f22d2
     Pseudo is Ultrasoft + core correction, Zval =  6.0
     Generated by new atomic code, or converted to UPF format
     Using radial grid of  737 points,  5 beta functions with: 
                l(1) =   0
                l(2) =   0
                l(3) =   1
                l(4) =   1
                l(5) =   2
     Q(r) pseudized with  8 coefficients,  rinner =    0.900   0.900   0.900
                                                       0.900   0.900

     PseudoPot. # 2 for Pt read from file:
     /home/camp/zhonxu/pseudo/pt_pbe_v1.uspp.F.UPF
     MD5 check sum: 4c71d6ad5ef119f1eb26a4d0b7884226
     Pseudo is Ultrasoft + core correction, Zval = 16.0
     Generated by new atomic code, or converted to UPF format
     Using radial grid of  985 points,  6 beta functions with: 
                l(1) =   0
                l(2) =   0
                l(3) =   1
                l(4) =   1
                l(5) =   2
                l(6) =   2
     Q(r) pseudized with  8 coefficients,  rinner =    1.300   1.300   1.300
                                                       1.300   1.300

     PseudoPot. # 3 for H  read from file:
     /home/camp/zhonxu/pseudo/h_pbe_v1.uspp.F.UPF
     MD5 check sum: 3408e3ff4ec8b0a4e358431e7e038a48
     Pseudo is Ultrasoft, Zval =  1.0
     Generated by new atomic code, or converted to UPF format
     Using radial grid of  615 points,  2 beta functions with: 
                l(1) =   0
                l(2) =   0
     Q(r) pseudized with  8 coefficients,  rinner =    0.700

     atomic species   valence    mass     pseudopotential
        O0             6.00    15.99940     O ( 1.00)
        Pt1           16.00   195.08000     Pt( 1.00)
        H2             1.00     1.00794     H ( 1.00)


     Simplified LDA+U calculation (l_max = 2) with parameters (eV):
     atomic species    L          U    alpha       J0     beta
        Pt1            2     6.5000   0.0000   0.0000   0.0000



     No symmetry found



   Cartesian axes

     site n.     atom                  positions (alat units)
         1           O0  tau(   1) = (   0.0000000   0.0000000   1.5494095  )
         2           O0  tau(   2) = (   0.0000000   0.5024180   1.6475009  )
         3           Pt1 tau(   3) = (   0.2500000   0.5024180   1.8504910  )
         4           Pt1 tau(   4) = (   0.0000000   0.0000000   1.8570523  )
         5           O0  tau(   5) = (   0.2500000   0.8139171   1.8187098  )
         6           O0  tau(   6) = (   0.2500000   0.1909188   1.8864142  )
         7           O0  tau(   7) = (   0.0000000   0.5024180   2.0369959  )
         8           O0  tau(   8) = (   0.0000000   0.0000000   2.1720357  )
         9           Pt1 tau(   9) = (   0.2500000   0.0000000   2.3614521  )
        10           Pt1 tau(  10) = (   0.0000000   0.5024180   2.3598528  )
        11           O0  tau(  11) = (   0.2500000   0.6933368   2.3268823  )
        12           O0  tau(  12) = (   0.2500000   0.3114991   2.4033624  )
        13           O0  tau(  13) = (   0.0000000   0.0000000   2.5482851  )
        14           O0  tau(  14) = (   0.5000000   0.0000000   1.5485073  )
        15           O0  tau(  15) = (   0.5000000   0.5024180   1.6434821  )
        16           Pt1 tau(  16) = (   0.7500000   0.5024180   1.8504910  )
        17           Pt1 tau(  17) = (   0.5000000   0.0000000   1.8561092  )
        18           O0  tau(  18) = (   0.7500000   0.8139171   1.8187918  )
        19           O0  tau(  19) = (   0.7500000   0.1909188   1.8863321  )
        20           O0  tau(  20) = (   0.5000000   0.5024180   2.0428191  )
        21           O0  tau(  21) = (   0.5000000   0.0000000   2.1708874  )
        22           Pt1 tau(  22) = (   0.7500000   0.0000000   2.3614521  )
        23           Pt1 tau(  23) = (   0.5000000   0.5024180   2.3628874  )
        24           O0  tau(  24) = (   0.7500000   0.6933368   2.3268003  )
        25           O0  tau(  25) = (   0.7500000   0.3114991   2.4034034  )
        26           O0  tau(  26) = (   0.5000000   0.0000000   2.5460296  )
        27           H2  tau(  27) = (   0.0000200   0.6429744   1.5830361  )
        28           H2  tau(  28) = (   0.5000600   0.6435874   1.5806577  )
        29           H2  tau(  29) = (   0.1433700   0.0339333   1.5082373  )
        30           H2  tau(  30) = (   0.6430800   0.0354607   1.5076632  )
        31           O0  tau(  31) = (   0.5001100   0.5589199   2.6603192  )
        32           O0  tau(  32) = (   0.4999400   0.3687346   2.7792838  )
        33           H2  tau(  33) = (   0.4999900   0.4305019   2.9192445  )

     number of k points=    10  Methfessel-Paxton smearing, width (Ry)=  0.0100
                       cart. coord. in units 2pi/alat
        k(    1) = (   0.0000000   0.0000000   0.0000000), wk =   0.1250000
        k(    2) = (   0.0000000   0.2487968   0.0000000), wk =   0.2500000
        k(    3) = (   0.0000000  -0.4975937   0.0000000), wk =   0.1250000
        k(    4) = (   0.2500000   0.0000000   0.0000000), wk =   0.2500000
        k(    5) = (   0.2500000   0.2487968   0.0000000), wk =   0.2500000
        k(    6) = (   0.2500000  -0.4975937   0.0000000), wk =   0.2500000
        k(    7) = (  -0.5000000   0.0000000   0.0000000), wk =   0.1250000
        k(    8) = (  -0.5000000   0.2487968   0.0000000), wk =   0.2500000
        k(    9) = (  -0.5000000  -0.4975937   0.0000000), wk =   0.1250000
        k(   10) = (  -0.2500000   0.2487968   0.0000000), wk =   0.2500000

     Dense  grid:  1415713 G-vectors     FFT dimensions: (  90,  90, 360)

     Smooth grid:   256153 G-vectors     FFT dimensions: (  50,  50, 216)

     Largest allocated arrays     est. size (Mb)     dimensions
        Kohn-Sham Wavefunctions        46.83 Mb     (   8098,  379)
        Atomic wavefunctions           22.37 Mb     (   8098,  181)
        NL pseudopotentials            51.16 Mb     (   8098,  414)
        Each V/rho on FFT grid         11.12 Mb     ( 729000)
        Each G-vector array             2.70 Mb     ( 353934)
        G-vector shells                 1.17 Mb     ( 153301)
     Largest temporary arrays     est. size (Mb)     dimensions
        Auxiliary wavefunctions       187.33 Mb     (   8098, 1516)
        Each subspace H/S matrix       35.07 Mb     (1516,1516)
        Each <psi_i|beta_j> matrix      2.39 Mb     (    414,  379)
        Arrays for rho mixing          88.99 Mb     ( 729000,   8)

     Check: negative/imaginary core charge=   -0.000003    0.000000

     Initial potential from superposition of free atoms
     Check: negative starting charge=   -1.535323

     starting charge  248.99983, renormalised to  253.00000

     negative rho (up, down):  0.156E+01 0.000E+00
     Number of +U iterations with fixed ns =  0
     Starting occupations:
 --- enter write_ns ---
 LDA+U parameters:
U( 2)     =  6.50000000
alpha( 2) =  0.00000000
atom    3   Tr[ns(na)] =   8.00000
    eigenvalues: 
  0.800  0.800  0.800  0.800  0.800
    eigenvectors:
  1.000  0.000  0.000  0.000  0.000
  0.000  1.000  0.000  0.000  0.000
  0.000  0.000  1.000  0.000  0.000
  0.000  0.000  0.000  1.000  0.000
  0.000  0.000  0.000  0.000  1.000
    occupations:
  0.800  0.000  0.000  0.000  0.000
  0.000  0.800  0.000  0.000  0.000
  0.000  0.000  0.800  0.000  0.000
  0.000  0.000  0.000  0.800  0.000
  0.000  0.000  0.000  0.000  0.800
atom    4   Tr[ns(na)] =   8.00000
    eigenvalues: 
  0.800  0.800  0.800  0.800  0.800
    eigenvectors:
  1.000  0.000  0.000  0.000  0.000
  0.000  1.000  0.000  0.000  0.000
  0.000  0.000  1.000  0.000  0.000
  0.000  0.000  0.000  1.000  0.000
  0.000  0.000  0.000  0.000  1.000
    occupations:
  0.800  0.000  0.000  0.000  0.000
  0.000  0.800  0.000  0.000  0.000
  0.000  0.000  0.800  0.000  0.000
  0.000  0.000  0.000  0.800  0.000
  0.000  0.000  0.000  0.000  0.800
atom    9   Tr[ns(na)] =   8.00000
    eigenvalues: 
  0.800  0.800  0.800  0.800  0.800
    eigenvectors:
  1.000  0.000  0.000  0.000  0.000
  0.000  1.000  0.000  0.000  0.000
  0.000  0.000  1.000  0.000  0.000
  0.000  0.000  0.000  1.000  0.000
  0.000  0.000  0.000  0.000  1.000
    occupations:
  0.800  0.000  0.000  0.000  0.000
  0.000  0.800  0.000  0.000  0.000
  0.000  0.000  0.800  0.000  0.000
  0.000  0.000  0.000  0.800  0.000
  0.000  0.000  0.000  0.000  0.800
atom   10   Tr[ns(na)] =   8.00000
    eigenvalues: 
  0.800  0.800  0.800  0.800  0.800
    eigenvectors:
  1.000  0.000  0.000  0.000  0.000
  0.000  1.000  0.000  0.000  0.000
  0.000  0.000  1.000  0.000  0.000
  0.000  0.000  0.000  1.000  0.000
  0.000  0.000  0.000  0.000  1.000
    occupations:
  0.800  0.000  0.000  0.000  0.000
  0.000  0.800  0.000  0.000  0.000
  0.000  0.000  0.800  0.000  0.000
  0.000  0.000  0.000  0.800  0.000
  0.000  0.000  0.000  0.000  0.800
atom   16   Tr[ns(na)] =   8.00000
    eigenvalues: 
  0.800  0.800  0.800  0.800  0.800
    eigenvectors:
  1.000  0.000  0.000  0.000  0.000
  0.000  1.000  0.000  0.000  0.000
  0.000  0.000  1.000  0.000  0.000
  0.000  0.000  0.000  1.000  0.000
  0.000  0.000  0.000  0.000  1.000
    occupations:
  0.800  0.000  0.000  0.000  0.000
  0.000  0.800  0.000  0.000  0.000
  0.000  0.000  0.800  0.000  0.000
  0.000  0.000  0.000  0.800  0.000
  0.000  0.000  0.000  0.000  0.800
atom   17   Tr[ns(na)] =   8.00000
    eigenvalues: 
  0.800  0.800  0.800  0.800  0.800
    eigenvectors:
  1.000  0.000  0.000  0.000  0.000
  0.000  1.000  0.000  0.000  0.000
  0.000  0.000  1.000  0.000  0.000
  0.000  0.000  0.000  1.000  0.000
  0.000  0.000  0.000  0.000  1.000
    occupations:
  0.800  0.000  0.000  0.000  0.000
  0.000  0.800  0.000  0.000  0.000
  0.000  0.000  0.800  0.000  0.000
  0.000  0.000  0.000  0.800  0.000
  0.000  0.000  0.000  0.000  0.800
atom   22   Tr[ns(na)] =   8.00000
    eigenvalues: 
  0.800  0.800  0.800  0.800  0.800
    eigenvectors:
  1.000  0.000  0.000  0.000  0.000
  0.000  1.000  0.000  0.000  0.000
  0.000  0.000  1.000  0.000  0.000
  0.000  0.000  0.000  1.000  0.000
  0.000  0.000  0.000  0.000  1.000
    occupations:
  0.800  0.000  0.000  0.000  0.000
  0.000  0.800  0.000  0.000  0.000
  0.000  0.000  0.800  0.000  0.000
  0.000  0.000  0.000  0.800  0.000
  0.000  0.000  0.000  0.000  0.800
atom   23   Tr[ns(na)] =   8.00000
    eigenvalues: 
  0.800  0.800  0.800  0.800  0.800
    eigenvectors:
  1.000  0.000  0.000  0.000  0.000
  0.000  1.000  0.000  0.000  0.000
  0.000  0.000  1.000  0.000  0.000
  0.000  0.000  0.000  1.000  0.000
  0.000  0.000  0.000  0.000  1.000
    occupations:
  0.800  0.000  0.000  0.000  0.000
  0.000  0.800  0.000  0.000  0.000
  0.000  0.000  0.800  0.000  0.000
  0.000  0.000  0.000  0.800  0.000
  0.000  0.000  0.000  0.000  0.800
N of occupied +U levels =  64.0000000
 --- exit write_ns ---
 Atomic wfc used for LDA+U Projector are NOT orthogonalized
     Starting wfc are  181 randomized atomic wfcs

     total cpu time spent up to now is      129.7 secs

     per-process dynamical memory:   446.0 Mb

     Self-consistent Calculation

     iteration #  1     ecut=    40.00 Ry     beta=0.70
     Davidson diagonalization with overlap
     ethr =  1.00E-02,  avg # of iterations =  5.6
 --- enter write_ns ---
 LDA+U parameters:
U( 2)     =  6.50000000
alpha( 2) =  0.00000000
atom    3   Tr[ns(na)] =   7.69902
    eigenvalues: 
  0.470  0.506  0.946  0.954  0.973
    eigenvectors:
  0.000  0.163  0.220  0.616  0.001
  1.000  0.000  0.000  0.000  0.000
  0.000  0.012  0.769  0.219  0.000
  0.000  0.825  0.011  0.164  0.000
  0.000  0.000  0.000  0.001  0.999
    occupations:
  0.880 -0.003  0.017 -0.164 -0.000
 -0.003  0.470  0.000  0.002 -0.005
  0.017  0.000  0.943  0.045  0.000
 -0.164  0.002  0.045  0.584  0.000
 -0.000 -0.005  0.000  0.000  0.973
atom    4   Tr[ns(na)] =   7.70718
    eigenvalues: 
  0.486  0.511  0.918  0.969  0.969
    eigenvectors:
  0.000  0.978  0.009  0.010  0.003
  0.025  0.000  0.003  0.315  0.657
  0.000  0.007  0.983  0.002  0.008
  0.000  0.015  0.005  0.665  0.315
  0.975  0.000  0.000  0.008  0.017
    occupations:
  0.521 -0.004 -0.033  0.055 -0.001
 -0.004  0.957  0.002  0.000  0.076
 -0.033  0.002  0.916  0.008  0.000
  0.055  0.000  0.008  0.962  0.000
 -0.001  0.076  0.000  0.000  0.498
atom    9   Tr[ns(na)] =   7.82316
    eigenvalues: 
  0.502  0.523  0.940  0.972  0.974
    eigenvectors:
  0.001  0.128  0.000  0.328  0.543
  0.996  0.004  0.000  0.000  0.000
  0.000  0.016  0.959  0.005  0.020
  0.003  0.852  0.020  0.053  0.072
  0.000  0.000  0.021  0.614  0.365
    occupations:
  0.915 -0.002 -0.021 -0.149 -0.001
 -0.002  0.502  0.000 -0.000 -0.001
 -0.021  0.000  0.935 -0.048  0.005
 -0.149 -0.000 -0.048  0.587  0.001
 -0.001 -0.001  0.005  0.001  0.972
atom   10   Tr[ns(na)] =   7.94919
    eigenvalues: 
  0.490  0.549  0.971  0.980  0.984
    eigenvectors:
  0.000  0.977  0.014  0.009  0.000
  0.030  0.000  0.000  0.000  0.970
  0.000  0.000  0.419  0.581  0.000
  0.000  0.023  0.567  0.410  0.000
  0.970  0.000  0.000  0.000  0.030
    occupations:
  0.559 -0.000  0.001  0.064  0.000
 -0.000  0.969  0.000 -0.000 -0.084
  0.001  0.000  0.977 -0.005  0.000
  0.064 -0.000 -0.005  0.965 -0.000
  0.000 -0.084  0.000 -0.000  0.505
atom   16   Tr[ns(na)] =   7.69981
    eigenvalues: 
  0.470  0.506  0.947  0.954  0.973
    eigenvectors:
  0.000  0.163  0.224  0.613  0.001
  1.000  0.000  0.000  0.000  0.000
  0.000  0.012  0.765  0.223  0.000
  0.000  0.825  0.011  0.164  0.000
  0.000  0.000  0.001  0.001  0.999
    occupations:
  0.880  0.003  0.017 -0.164  0.001
  0.003  0.470  0.000 -0.002 -0.005
  0.017  0.000  0.943  0.045  0.000
 -0.164 -0.002  0.045  0.584 -0.000
  0.001 -0.005  0.000 -0.000  0.973
atom   17   Tr[ns(na)] =   7.72007
    eigenvalues: 
  0.486  0.511  0.926  0.968  0.969
    eigenvectors:
  0.000  0.978  0.008  0.001  0.013
  0.025  0.000  0.006  0.952  0.017
  0.000  0.007  0.984  0.004  0.005
  0.000  0.015  0.002  0.018  0.965
  0.975  0.000  0.000  0.025  0.000
    occupations:
  0.521 -0.004 -0.035  0.055 -0.001
 -0.004  0.955  0.003  0.000  0.076
 -0.035  0.003  0.923  0.007  0.000
  0.055  0.000  0.007  0.962  0.000
 -0.001  0.076  0.000  0.000  0.498
atom   22   Tr[ns(na)] =   7.82329
    eigenvalues: 
  0.502  0.523  0.940  0.972  0.975
    eigenvectors:
  0.001  0.128  0.000  0.352  0.519
  0.993  0.007  0.000  0.000  0.000
  0.000  0.016  0.958  0.005  0.021
  0.006  0.850  0.020  0.057  0.069
  0.000  0.000  0.022  0.586  0.392
    occupations:
  0.915  0.003 -0.021 -0.149  0.001
  0.003  0.502  0.000  0.001 -0.001
 -0.021  0.000  0.935 -0.048 -0.005
 -0.149  0.001 -0.048  0.587 -0.001
  0.001 -0.001 -0.005 -0.001  0.972
atom   23   Tr[ns(na)] =   7.75630
    eigenvalues: 
  0.482  0.529  0.946  0.957  0.965
    eigenvectors:
  0.000  0.954  0.029  0.000  0.017
  0.031  0.000  0.000  0.969  0.000
  0.000  0.032  0.963  0.000  0.004
  0.000  0.014  0.008  0.000  0.979
  0.969  0.000  0.000  0.031  0.000
    occupations:
  0.548  0.000  0.073  0.050 -0.000
  0.000  0.942  0.000 -0.000 -0.082
  0.073  0.000  0.932 -0.007 -0.000
  0.050 -0.000 -0.007  0.959  0.000
 -0.000 -0.082 -0.000  0.000  0.496
N of occupied +U levels =  62.1780126
 --- exit write_ns ---

     negative rho (up, down):  0.151E+01 0.000E+00

     total cpu time spent up to now is      522.3 secs

     total energy              =   -2302.01766964 Ry
     Harris-Foulkes estimate   =   -2316.58157969 Ry
     estimated scf accuracy    <      18.95159468 Ry

     iteration #  2     ecut=    40.00 Ry     beta=0.70
     Davidson diagonalization with overlap
     ethr =  7.49E-03,  avg # of iterations =  5.0

     negative rho (up, down):  0.142E+01 0.000E+00

     total cpu time spent up to now is      805.1 secs

     total energy              =   -2277.96665466 Ry
     Harris-Foulkes estimate   =   -2333.21597544 Ry
     estimated scf accuracy    <     258.73683273 Ry

     iteration #  3     ecut=    40.00 Ry     beta=0.70
     Davidson diagonalization with overlap
     ethr =  7.49E-03,  avg # of iterations =  4.1

     negative rho (up, down):  0.138E+01 0.000E+00

     total cpu time spent up to now is     1115.7 secs

     total energy              =   -2267.38738616 Ry
     Harris-Foulkes estimate   =   -2356.31285392 Ry
     estimated scf accuracy    <    1365.72387923 Ry

     iteration #  4     ecut=    40.00 Ry     beta=0.70
     Davidson diagonalization with overlap
     ethr =  7.49E-03,  avg # of iterations =  4.0

     negative rho (up, down):  0.140E+01 0.000E+00

     total cpu time spent up to now is     1401.5 secs

     total energy              =   -2310.80479213 Ry
     Harris-Foulkes estimate   =   -2313.96169679 Ry
     estimated scf accuracy    <      13.59564426 Ry

     iteration #  5     ecut=    40.00 Ry     beta=0.70
     Davidson diagonalization with overlap
     ethr =  5.37E-03,  avg # of iterations =  1.6

     negative rho (up, down):  0.143E+01 0.000E+00

     total cpu time spent up to now is     1625.2 secs

     total energy              =   -2311.83956333 Ry
     Harris-Foulkes estimate   =   -2312.98055408 Ry
     estimated scf accuracy    <       7.94390320 Ry

     iteration #  6     ecut=    40.00 Ry     beta=0.70
     Davidson diagonalization with overlap
     ethr =  3.14E-03,  avg # of iterations =  3.2

     negative rho (up, down):  0.146E+01 0.000E+00

     total cpu time spent up to now is     1859.0 secs

     total energy              =   -2312.36108284 Ry
     Harris-Foulkes estimate   =   -2312.61674469 Ry
     estimated scf accuracy    <       0.91652848 Ry

     iteration #  7     ecut=    40.00 Ry     beta=0.70
     Davidson diagonalization with overlap
     ethr =  3.62E-04,  avg # of iterations =  9.0

     negative rho (up, down):  0.148E+01 0.000E+00

     total cpu time spent up to now is     2147.5 secs

     total energy              =   -2312.30494694 Ry
     Harris-Foulkes estimate   =   -2312.56808029 Ry
     estimated scf accuracy    <       1.89424748 Ry

     iteration #  8     ecut=    40.00 Ry     beta=0.70
     Davidson diagonalization with overlap
     ethr =  3.62E-04,  avg # of iterations =  1.0

     negative rho (up, down):  0.151E+01 0.000E+00

     total cpu time spent up to now is     2357.0 secs

     total energy              =   -2312.39196566 Ry
     Harris-Foulkes estimate   =   -2312.51227447 Ry
     estimated scf accuracy    <       0.66506612 Ry

     iteration #  9     ecut=    40.00 Ry     beta=0.70
     Davidson diagonalization with overlap
     ethr =  2.63E-04,  avg # of iterations =  1.6

     negative rho (up, down):  0.153E+01 0.000E+00

     total cpu time spent up to now is     2566.7 secs

     total energy              =   -2312.37561032 Ry
     Harris-Foulkes estimate   =   -2312.49937903 Ry
     estimated scf accuracy    <       0.58439288 Ry

     iteration # 10     ecut=    40.00 Ry     beta=0.70
     Davidson diagonalization with overlap
     ethr =  2.31E-04,  avg # of iterations =  2.5

     negative rho (up, down):  0.156E+01 0.000E+00

     total cpu time spent up to now is     2797.7 secs

     total energy              =   -2312.39272118 Ry
     Harris-Foulkes estimate   =   -2312.45674600 Ry
     estimated scf accuracy    <       0.44852715 Ry

     iteration # 11     ecut=    40.00 Ry     beta=0.70
     Davidson diagonalization with overlap
     ethr =  1.77E-04,  avg # of iterations =  4.9

     negative rho (up, down):  0.157E+01 0.000E+00

     total cpu time spent up to now is     3036.2 secs

     total energy              =   -2312.40221194 Ry
     Harris-Foulkes estimate   =   -2312.44795102 Ry
     estimated scf accuracy    <       0.24140493 Ry

     iteration # 12     ecut=    40.00 Ry     beta=0.70
     Davidson diagonalization with overlap
     ethr =  9.54E-05,  avg # of iterations =  1.0

     negative rho (up, down):  0.158E+01 0.000E+00

     total cpu time spent up to now is     3245.3 secs

     total energy              =   -2312.39247235 Ry
     Harris-Foulkes estimate   =   -2312.43321911 Ry
     estimated scf accuracy    <       0.14503501 Ry

     iteration # 13     ecut=    40.00 Ry     beta=0.70
     Davidson diagonalization with overlap
     ethr =  5.73E-05,  avg # of iterations =  6.7

     negative rho (up, down):  0.157E+01 0.000E+00

     total cpu time spent up to now is     3501.6 secs

     total energy              =   -2312.37366998 Ry
     Harris-Foulkes estimate   =   -2312.44297931 Ry
     estimated scf accuracy    <       0.30384470 Ry

     iteration # 14     ecut=    40.00 Ry     beta=0.70
     Davidson diagonalization with overlap
     ethr =  5.73E-05,  avg # of iterations =  4.9

     negative rho (up, down):  0.157E+01 0.000E+00

     total cpu time spent up to now is     3742.1 secs

     total energy              =   -2312.36424583 Ry
     Harris-Foulkes estimate   =   -2312.45760785 Ry
     estimated scf accuracy    <       1.53566860 Ry

     iteration # 15     ecut=    40.00 Ry     beta=0.70
     Davidson diagonalization with overlap
     ethr =  5.73E-05,  avg # of iterations =  4.9

     negative rho (up, down):  0.158E+01 0.000E+00

     total cpu time spent up to now is     3982.9 secs

     total energy              =   -2312.40908416 Ry
     Harris-Foulkes estimate   =   -2312.41860400 Ry
     estimated scf accuracy    <       0.03029199 Ry

     iteration # 16     ecut=    40.00 Ry     beta=0.70
     Davidson diagonalization with overlap
     ethr =  1.20E-05,  avg # of iterations =  4.8

     negative rho (up, down):  0.157E+01 0.000E+00

     total cpu time spent up to now is     4222.0 secs

     total energy              =   -2312.41096688 Ry
     Harris-Foulkes estimate   =   -2312.41892986 Ry
     estimated scf accuracy    <       0.03783767 Ry

     iteration # 17     ecut=    40.00 Ry     beta=0.70
     Davidson diagonalization with overlap
     ethr =  1.20E-05,  avg # of iterations =  1.0

     negative rho (up, down):  0.157E+01 0.000E+00

     total cpu time spent up to now is     4432.0 secs

     total energy              =   -2312.41296496 Ry
     Harris-Foulkes estimate   =   -2312.41645884 Ry
     estimated scf accuracy    <       0.02280062 Ry

     iteration # 18     ecut=    40.00 Ry     beta=0.70
     Davidson diagonalization with overlap
     ethr =  9.01E-06,  avg # of iterations =  3.3

     negative rho (up, down):  0.157E+01 0.000E+00

     total cpu time spent up to now is     4654.8 secs

     total energy              =   -2312.41434595 Ry
     Harris-Foulkes estimate   =   -2312.41518629 Ry
     estimated scf accuracy    <       0.00429203 Ry

     iteration # 19     ecut=    40.00 Ry     beta=0.70
     Davidson diagonalization with overlap
     ethr =  1.70E-06,  avg # of iterations =  4.1

     negative rho (up, down):  0.157E+01 0.000E+00

     total cpu time spent up to now is     4887.5 secs

     total energy              =   -2312.41427355 Ry
     Harris-Foulkes estimate   =   -2312.41526938 Ry
     estimated scf accuracy    <       0.00588340 Ry

     iteration # 20     ecut=    40.00 Ry     beta=0.70
     Davidson diagonalization with overlap
     ethr =  1.70E-06,  avg # of iterations =  1.0

     negative rho (up, down):  0.157E+01 0.000E+00

     total cpu time spent up to now is     5092.6 secs

     total energy              =   -2312.41389462 Ry
     Harris-Foulkes estimate   =   -2312.41575385 Ry
     estimated scf accuracy    <       0.01685959 Ry

     iteration # 21     ecut=    40.00 Ry     beta=0.70
     Davidson diagonalization with overlap
     ethr =  1.70E-06,  avg # of iterations =  1.3

     negative rho (up, down):  0.157E+01 0.000E+00

     total cpu time spent up to now is     5296.6 secs

     total energy              =   -2312.41476100 Ry
     Harris-Foulkes estimate   =   -2312.41499546 Ry
     estimated scf accuracy    <       0.00208364 Ry

     iteration # 22     ecut=    40.00 Ry     beta=0.70
     Davidson diagonalization with overlap
     ethr =  8.24E-07,  avg # of iterations =  1.4

     negative rho (up, down):  0.157E+01 0.000E+00

     total cpu time spent up to now is     5500.2 secs

     total energy              =   -2312.41486074 Ry
     Harris-Foulkes estimate   =   -2312.41489439 Ry
     estimated scf accuracy    <       0.00023389 Ry

     iteration # 23     ecut=    40.00 Ry     beta=0.70
     Davidson diagonalization with overlap
     ethr =  9.24E-08,  avg # of iterations =  1.0

     negative rho (up, down):  0.157E+01 0.000E+00

     total cpu time spent up to now is     5694.8 secs

     total energy              =   -2312.41487427 Ry
     Harris-Foulkes estimate   =   -2312.41488849 Ry
     estimated scf accuracy    <       0.00009560 Ry

     iteration # 24     ecut=    40.00 Ry     beta=0.70
     Davidson diagonalization with overlap
     ethr =  3.78E-08,  avg # of iterations =  1.0

     negative rho (up, down):  0.157E+01 0.000E+00

     total cpu time spent up to now is     5900.9 secs

     total energy              =   -2312.41487594 Ry
     Harris-Foulkes estimate   =   -2312.41488710 Ry
     estimated scf accuracy    <       0.00006127 Ry

     iteration # 25     ecut=    40.00 Ry     beta=0.70
     Davidson diagonalization with overlap
     ethr =  2.42E-08,  avg # of iterations =  1.0

     negative rho (up, down):  0.157E+01 0.000E+00

     total cpu time spent up to now is     6102.9 secs

     total energy              =   -2312.41487779 Ry
     Harris-Foulkes estimate   =   -2312.41488720 Ry
     estimated scf accuracy    <       0.00003973 Ry

     iteration # 26     ecut=    40.00 Ry     beta=0.70
     Davidson diagonalization with overlap
     ethr =  1.57E-08,  avg # of iterations =  1.0

     negative rho (up, down):  0.157E+01 0.000E+00

     total cpu time spent up to now is     6309.7 secs

     total energy              =   -2312.41488134 Ry
     Harris-Foulkes estimate   =   -2312.41488313 Ry
     estimated scf accuracy    <       0.00000783 Ry

     iteration # 27     ecut=    40.00 Ry     beta=0.70
     Davidson diagonalization with overlap
     ethr =  3.09E-09,  avg # of iterations =  1.0

     negative rho (up, down):  0.157E+01 0.000E+00

     total cpu time spent up to now is     6517.2 secs

     total energy              =   -2312.41488153 Ry
     Harris-Foulkes estimate   =   -2312.41488326 Ry
     estimated scf accuracy    <       0.00001232 Ry

     iteration # 28     ecut=    40.00 Ry     beta=0.70
     Davidson diagonalization with overlap
     ethr =  3.09E-09,  avg # of iterations =  1.0

     negative rho (up, down):  0.157E+01 0.000E+00

     total cpu time spent up to now is     6727.3 secs

     total energy              =   -2312.41488148 Ry
     Harris-Foulkes estimate   =   -2312.41488278 Ry
     estimated scf accuracy    <       0.00000922 Ry

     iteration # 29     ecut=    40.00 Ry     beta=0.70
     Davidson diagonalization with overlap
     ethr =  3.09E-09,  avg # of iterations =  1.0

     negative rho (up, down):  0.157E+01 0.000E+00

     total cpu time spent up to now is     6935.0 secs

     total energy              =   -2312.41488042 Ry
     Harris-Foulkes estimate   =   -2312.41488454 Ry
     estimated scf accuracy    <       0.00002711 Ry

     iteration # 30     ecut=    40.00 Ry     beta=0.70
     Davidson diagonalization with overlap
     ethr =  3.09E-09,  avg # of iterations =  1.0

     negative rho (up, down):  0.157E+01 0.000E+00

     total cpu time spent up to now is     7158.6 secs

     End of self-consistent calculation
 --- enter write_ns ---
 LDA+U parameters:
U( 2)     =  6.50000000
alpha( 2) =  0.00000000
atom    3   Tr[ns(na)] =   8.78586
    eigenvalues: 
  0.702  0.721  0.988  0.989  0.992
    eigenvectors:
  0.056  0.116  0.810  0.011  0.007
  0.701  0.299  0.000  0.000  0.000
  0.001  0.003  0.015  0.000  0.982
  0.243  0.582  0.163  0.002  0.011
  0.000  0.000  0.012  0.988  0.000
    occupations:
  0.941  0.007  0.006 -0.103  0.001
  0.007  0.708  0.002  0.006 -0.003
  0.006  0.002  0.991  0.015 -0.000
 -0.103  0.006  0.015  0.763  0.001
  0.001 -0.003 -0.000  0.001  0.989
atom    4   Tr[ns(na)] =   8.77910
    eigenvalues: 
  0.703  0.724  0.986  0.988  0.989
    eigenvectors:
  0.000  0.986  0.008  0.003  0.003
  0.009  0.000  0.059  0.860  0.073
  0.000  0.004  0.835  0.016  0.144
  0.000  0.010  0.098  0.113  0.779
  0.991  0.000  0.000  0.007  0.001
    occupations:
  0.728 -0.004 -0.017  0.026 -0.001
 -0.004  0.985  0.000  0.000  0.026
 -0.017  0.000  0.985  0.003  0.000
  0.026  0.000  0.003  0.986  0.000
 -0.001  0.026  0.000  0.000  0.705
atom    9   Tr[ns(na)] =   8.77165
    eigenvalues: 
  0.724  0.733  0.966  0.974  0.989
    eigenvectors:
  0.000  0.134  0.001  0.013  0.852
  0.996  0.004  0.000  0.000  0.000
  0.000  0.010  0.046  0.937  0.007
  0.003  0.853  0.000  0.003  0.140
  0.000  0.000  0.953  0.047  0.000
    occupations:
  0.954 -0.001 -0.007 -0.087 -0.000
 -0.001  0.724  0.000  0.001 -0.003
 -0.007  0.000  0.971 -0.022  0.002
 -0.087  0.001 -0.022  0.770  0.000
 -0.000 -0.003  0.002  0.000  0.966
atom   10   Tr[ns(na)] =   8.85571
    eigenvalues: 
  0.666  0.799  0.986  0.987  0.990
    eigenvectors:
  0.000  0.976  0.000  0.014  0.010
  0.011  0.000  0.989  0.000  0.000
  0.000  0.001  0.000  0.208  0.790
  0.000  0.023  0.000  0.778  0.199
  0.989  0.000  0.011  0.000  0.000
    occupations:
  0.803  0.000 -0.007  0.028  0.000
  0.000  0.982 -0.000 -0.000 -0.034
 -0.007 -0.000  0.989 -0.000 -0.000
  0.028 -0.000 -0.000  0.983 -0.000
  0.000 -0.034 -0.000 -0.000  0.670
atom   16   Tr[ns(na)] =   8.78588
    eigenvalues: 
  0.702  0.721  0.988  0.989  0.992
    eigenvectors:
  0.056  0.115  0.814  0.007  0.007
  0.698  0.301  0.000  0.000  0.000
  0.001  0.003  0.015  0.000  0.982
  0.244  0.580  0.163  0.001  0.011
  0.000  0.000  0.008  0.992  0.000
    occupations:
  0.941 -0.007  0.006 -0.103 -0.001
 -0.007  0.708 -0.001 -0.006 -0.003
  0.006 -0.001  0.991  0.015 -0.000
 -0.103 -0.006  0.015  0.763 -0.001
 -0.001 -0.003 -0.000 -0.001  0.989
atom   17   Tr[ns(na)] =   8.77772
    eigenvalues: 
  0.702  0.725  0.986  0.988  0.989
    eigenvectors:
  0.000  0.986  0.007  0.004  0.003
  0.009  0.000  0.091  0.839  0.061
  0.000  0.004  0.791  0.032  0.174
  0.000  0.009  0.111  0.118  0.762
  0.991  0.000  0.001  0.007  0.001
    occupations:
  0.728 -0.004 -0.017  0.025 -0.001
 -0.004  0.985  0.000  0.000  0.027
 -0.017  0.000  0.985  0.003  0.000
  0.025  0.000  0.003  0.986  0.000
 -0.001  0.027  0.000  0.000  0.705
atom   22   Tr[ns(na)] =   8.77163
    eigenvalues: 
  0.724  0.733  0.966  0.974  0.989
    eigenvectors:
  0.001  0.134  0.001  0.013  0.852
  0.998  0.002  0.000  0.000  0.000
  0.000  0.010  0.052  0.931  0.007
  0.001  0.855  0.000  0.003  0.140
  0.000  0.000  0.947  0.053  0.000
    occupations:
  0.954  0.002 -0.007 -0.087  0.000
  0.002  0.724  0.000 -0.000 -0.003
 -0.007  0.000  0.971 -0.022 -0.002
 -0.087 -0.000 -0.022  0.770 -0.000
  0.000 -0.003 -0.002 -0.000  0.967
atom   23   Tr[ns(na)] =   8.77428
    eigenvalues: 
  0.716  0.721  0.974  0.987  0.989
    eigenvectors:
  0.000  0.961  0.000  0.031  0.008
  0.016  0.000  0.984  0.000  0.000
  0.000  0.030  0.000  0.968  0.002
  0.000  0.009  0.000  0.001  0.990
  0.984  0.000  0.016  0.000  0.000
    occupations:
  0.731  0.000  0.045  0.025 -0.000
  0.000  0.970  0.000 -0.000 -0.033
  0.045  0.000  0.979 -0.005 -0.000
  0.025 -0.000 -0.005  0.987 -0.000
 -0.000 -0.033 -0.000 -0.000  0.720
N of occupied +U levels =  70.3018353
 --- exit write_ns ---

          k = 0.0000 0.0000 0.0000 ( 32157 PWs)   bands (ev):

   -54.5197 -54.4721 -54.4372 -54.4166 -54.4104 -54.3780 -54.3668 -54.3101
   -54.2841 -54.2793 -54.2699 -54.2617 -54.2540 -54.1361 -54.1305 -54.1165
   -54.1103 -54.0415 -54.0364 -54.0012 -53.9943 -53.5922 -53.3608 -52.9544
   -23.7921 -21.5599 -21.2401 -20.8654 -20.8035 -20.3257 -20.0086 -19.9693
   -19.9238 -19.8852 -19.8402 -19.7602 -19.6938 -19.6095 -19.3638 -19.1307
   -19.0305 -18.6807 -18.3625 -17.5870 -11.1935 -11.0223 -10.7587 -10.2239
   -10.0652  -9.9799  -9.9116  -9.6341  -9.6237  -9.3110  -9.2870  -9.0805
    -8.8797  -8.8468  -8.7864  -8.7470  -8.5347  -8.5160  -8.3037  -8.1628
    -8.0689  -7.9933  -7.9651  -7.6426  -7.6297  -7.3900  -7.3760  -7.2083
    -6.9563  -6.8511  -6.8451  -6.6607  -6.5535  -6.4435  -6.4255  -6.3390
    -6.2318  -6.1440  -6.1243  -5.8702  -5.7392  -5.6389  -5.6054  -5.5768
    -5.5480  -5.3566  -5.3026  -5.1364  -4.9748  -4.9436  -4.8017  -4.7399
    -4.6757  -4.5957  -4.5399  -4.5135  -4.3910  -4.3039  -4.2407  -4.1674
    -4.0426  -3.9531  -3.9373  -3.7163  -3.6123  -3.5346  -3.3081  -3.0682
    -2.7711  -2.5976  -2.5920  -2.5445  -2.4042  -2.1580  -2.0516  -2.0004
    -1.9313  -1.7865  -1.7553  -1.6764  -1.3395  -1.2769  -1.0707  -1.0278
    -0.5409   0.0242   0.0503   0.0704   0.2487   0.4746   0.7310   1.1179
     1.3366   1.4672   1.9683   1.9808   2.1584   2.4768   2.5467   3.0755
     3.2249   3.6751   4.0836   4.5053   4.6606   5.4705   5.7727   6.2535
     6.3991   6.4393   6.8419   7.0519   7.1441   7.2661   7.3153   7.4060
     7.4998   7.6345   7.6611   7.7455   7.7509   7.8430   7.8565   7.8741
     7.9058   8.0774   8.1283   8.2314   8.2997   8.3260   8.3868   8.4736
     8.5519   8.6154   8.6863   8.7875   9.0356   9.0428   9.0930   9.1376
     9.4310   9.5879   9.6677   9.7458   9.7836   9.9600  10.0097  10.1235
    10.2373  10.3403  10.3708  10.4178  10.7211  10.7447  10.7902  10.8449
    10.8674  10.8898  11.0480  11.0610  11.1745  11.1917  11.2343  11.3413
    11.3640  11.4436  11.4772  11.5023  11.5459  11.6051  11.7919  11.8231
    11.8540  11.9745  12.0773  12.0951  12.2408  12.2489  12.3274  12.3742
    12.4241  12.4814  12.5851  12.6709  12.7051  12.8147  12.9574  13.0708
    13.2066  13.2374  13.4032  13.4604  13.5004  13.6354  13.7854  13.8662
    13.9253  13.9631  14.0355  14.1405  14.2618  14.2949  14.4652  14.5330
    14.6114  14.9054  14.9573  15.0096  15.0325  15.1346  15.2360  15.3397
    15.4040  15.4280  15.4980  15.5666  15.5919  15.7711  15.8018  15.8903
    16.0167  16.0860  16.1829  16.3641  16.4825  16.5291  16.5818  16.5869
    16.6410  16.8830  16.9148  16.9396  17.0234  17.1544  17.1920  17.2576
    17.2596  17.3307  17.4123  17.5081  17.5956  17.6707  17.7804  17.8841
    17.9344  17.9916  18.0025  18.0122  18.0241  18.0495  18.0590  18.0961
    18.1114  18.1629  18.2516  18.2675  18.3631  18.4025  18.4299  18.4959
    18.5708  18.5751  18.6064  18.6505  18.6548  18.7188  18.7718  18.8628
    18.9199  18.9408  18.9880  19.0546  19.0855  19.1350  19.1409  19.1768
    19.2355  19.3184  19.4251  19.4714  19.5588  19.6039  19.6424  19.7298
    19.8327  19.8777  19.9392  19.9857  20.0204  20.0636  20.0973  20.1674
    20.2031  20.2578  20.4247  20.4332  20.5613  20.6213  20.7578  20.7795
    20.8073  20.9120  20.9323  21.0694  21.1397  21.1894  21.1944  21.2906
    21.3466  21.3917  21.5019  21.5800  21.6110  21.6290  21.6981  21.7635
    21.8231  21.8402  21.8702  21.8910  21.9140  21.9331  21.9509  21.9940
    22.0373  22.0599  22.0712  22.0914  22.1235  22.1274  22.1611  22.1744
    22.2125  22.2563  22.2827

          k = 0.0000 0.2488 0.0000 ( 32033 PWs)   bands (ev):

   -54.5195 -54.4715 -54.4367 -54.4166 -54.4105 -54.3780 -54.3667 -54.3102
   -54.2843 -54.2785 -54.2682 -54.2612 -54.2559 -54.1363 -54.1300 -54.1169
   -54.1101 -54.0420 -54.0358 -54.0014 -53.9942 -53.5920 -53.3605 -52.9545
   -23.7924 -21.5494 -21.2371 -20.7433 -20.6498 -20.3180 -20.2808 -20.1529
   -19.9735 -19.8431 -19.6995 -19.6267 -19.6189 -19.4885 -19.3618 -19.3287
   -19.2403 -18.6776 -18.3728 -17.5820 -10.8591 -10.7300 -10.5754 -10.5318
   -10.1490 -10.1052  -9.9780  -9.7385  -9.6897  -9.2053  -9.1731  -8.9711
    -8.8860  -8.7895  -8.7223  -8.5467  -8.5124  -8.3742  -8.2687  -8.1863
    -8.0617  -7.8151  -7.7746  -7.7169  -7.4904  -7.4009  -7.2898  -7.1211
    -7.0415  -6.8666  -6.7828  -6.7661  -6.7081  -6.6414  -6.5782  -6.5144
    -6.4105  -6.3631  -6.2484  -6.1587  -6.1018  -5.9981  -5.6287  -5.5883
    -5.5583  -5.4148  -5.3040  -5.2760  -4.9134  -4.9010  -4.8643  -4.6643
    -4.5441  -4.4466  -4.3489  -4.3306  -4.2093  -4.1733  -4.1505  -4.0264
    -3.9347  -3.9136  -3.8366  -3.7655  -3.5320  -3.4507  -3.4031  -3.1362
    -3.0830  -2.9241  -2.7954  -2.5649  -2.4742  -2.1990  -2.0196  -1.9021
    -1.8180  -1.8049  -1.7379  -1.6660  -1.3709  -1.3021  -1.1477  -1.0401
    -0.7237  -0.4808  -0.3357   0.0628   0.3934   0.8479   1.2582   1.4621
     1.6741   1.7897   1.8745   2.0238   2.0885   2.3406   2.5465   3.2017
     3.4490   3.8319   4.3120   4.6901   4.8615   5.4906   5.5817   5.8100
     6.0226   6.2391   6.5333   6.5970   6.6875   6.8355   7.1808   7.2472
     7.3174   7.4993   7.5073   7.6640   7.8861   7.9502   8.0049   8.0727
     8.1041   8.1207   8.2680   8.3447   8.4075   8.4659   8.6291   8.6702
     8.7261   8.8315   8.9391   9.1171   9.1544   9.2010   9.3059   9.3476
     9.3770   9.4660   9.5200   9.6262   9.7486   9.8046   9.8347   9.9301
     9.9374  10.0764  10.1697  10.2228  10.2660  10.3598  10.4254  10.5475
    10.6395  10.7784  10.8635  10.9711  11.0803  11.1346  11.2097  11.3320
    11.4761  11.5808  11.6726  11.8692  11.9290  11.9947  12.0825  12.1639
    12.1719  12.2449  12.3800  12.4167  12.5526  12.6977  12.7842  12.8150
    12.8899  12.9381  13.0631  13.1359  13.2112  13.2771  13.3398  13.3635
    13.4441  13.5127  13.5876  13.6459  13.7796  13.8007  13.9161  13.9491
    13.9762  14.0132  14.1682  14.2371  14.3013  14.4328  14.5210  14.5639
    14.7155  14.7639  14.8153  14.9391  15.1255  15.1418  15.1814  15.2776
    15.3229  15.4465  15.4525  15.5789  15.6078  15.7281  15.7951  15.8427
    15.8778  15.9509  16.0295  16.1217  16.2062  16.2625  16.3478  16.4255
    16.4805  16.5407  16.5819  16.7519  16.7860  16.8786  16.8975  16.9372
    17.0665  17.1563  17.2056  17.2341  17.2727  17.3642  17.5284  17.6521
    17.6758  17.7453  17.8050  17.8524  17.8985  17.9508  17.9783  17.9967
    18.0110  18.0437  18.0691  18.1144  18.1508  18.2376  18.2833  18.3087
    18.3597  18.4100  18.5164  18.5515  18.6139  18.6332  18.6617  18.7031
    18.7481  18.8333  18.8719  18.9186  18.9821  19.0195  19.0794  19.1084
    19.1264  19.1841  19.1893  19.2323  19.2713  19.3301  19.3923  19.4380
    19.5447  19.5736  19.6524  19.7241  19.7662  19.8293  19.8761  19.9730
    20.0398  20.0823  20.1097  20.1517  20.1940  20.2497  20.3502  20.3786
    20.4053  20.4611  20.5040  20.5234  20.6005  20.6312  20.7783  20.8057
    20.8619  20.9117  20.9356  20.9889  21.0410  21.1033  21.1590  21.1961
    21.2949  21.3759  21.4042  21.4748  21.5142  21.5638  21.6260  21.7010
    21.7329  21.8110  21.8956  21.9482  22.0393  22.1344  22.1851  22.2182
    22.2695  22.3449  22.4355

          k = 0.0000-0.4976 0.0000 ( 31948 PWs)   bands (ev):

   -54.5194 -54.4709 -54.4360 -54.4166 -54.4106 -54.3780 -54.3666 -54.3103
   -54.2846 -54.2778 -54.2659 -54.2606 -54.2586 -54.1366 -54.1294 -54.1173
   -54.1099 -54.0424 -54.0352 -54.0016 -53.9942 -53.5919 -53.3603 -52.9545
   -23.7928 -21.5402 -21.2347 -20.5843 -20.4089 -20.3994 -20.3292 -20.2781
   -19.9691 -19.8439 -19.7416 -19.6830 -19.5266 -19.4882 -19.4818 -19.3529
   -19.3468 -18.6744 -18.3817 -17.5771 -10.8458 -10.7553 -10.4012 -10.2195
   -10.2179  -9.9987  -9.9411  -9.8381  -9.4532  -9.0147  -8.9679  -8.9557
    -8.7968  -8.7635  -8.7529  -8.7342  -8.4812  -8.3882  -8.2870  -8.1614
    -8.1022  -7.8527  -7.7457  -7.5498  -7.5011  -7.4263  -7.4062  -7.3112
    -7.2539  -7.1402  -6.9658  -6.8886  -6.8572  -6.7456  -6.6791  -6.5704
    -6.3149  -6.2474  -6.1033  -6.0090  -5.9737  -5.8955  -5.6152  -5.5778
    -5.5592  -5.4807  -5.4150  -5.3019  -5.2603  -5.2513  -4.8840  -4.8613
    -4.6088  -4.4338  -4.3189  -4.2793  -4.2074  -4.1273  -4.0647  -3.9646
    -3.9322  -3.8149  -3.5787  -3.4180  -3.4067  -3.3781  -3.3615  -3.2271
    -3.1350  -3.0161  -2.8305  -2.5906  -2.4134  -2.2902  -2.0498  -1.9976
    -1.9754  -1.9132  -1.8891  -1.8290  -1.4134  -1.3926  -1.2098  -1.0490
    -0.8783  -0.6297  -0.2051   0.0768   0.9030   0.9389   1.4489   1.5946
     1.6245   1.7607   1.9000   2.0780   2.1752   2.5003   2.5581   3.2174
     4.0678   4.2069   4.5971   4.9232   4.9330   5.1866   5.2271   5.4825
     5.7229   5.7697   6.0518   6.4724   6.6374   6.8040   6.8338   7.0108
     7.4513   7.5953   7.6479   7.6944   7.8764   7.8916   8.0952   8.1579
     8.3439   8.3668   8.4630   8.4726   8.5364   8.6003   8.6628   8.6735
     8.7379   8.8020   8.8277   8.9220   8.9282   8.9449   9.1116   9.2123
     9.2221   9.3228   9.3560   9.4391   9.4400   9.5174   9.5709   9.8582
     9.9063   9.9405   9.9578  10.0788  10.3420  10.6557  10.8059  10.8637
    10.9803  11.0680  11.1860  11.3771  11.3932  11.4086  11.4657  11.5557
    11.6830  11.7905  11.9143  12.0418  12.0731  12.2052  12.2457  12.2634
    12.4277  12.4559  12.5181  12.5981  12.6961  12.7183  12.7513  12.7856
    12.8939  12.9765  13.0967  13.1143  13.2188  13.2611  13.3329  13.4856
    13.5741  13.6091  13.6759  13.7298  13.8501  13.9253  14.0585  14.1723
    14.2829  14.4114  14.4503  14.5107  14.5469  14.6474  14.8106  14.9231
    15.0102  15.1096  15.1556  15.2020  15.3133  15.3183  15.3219  15.3494
    15.3879  15.4953  15.6440  15.6773  15.6785  15.7788  15.7916  15.8977
    15.9242  15.9450  16.0238  16.0487  16.0606  16.0945  16.1399  16.2159
    16.3087  16.3771  16.4130  16.4702  16.4936  16.5256  16.6041  16.6301
    16.7514  16.7708  16.8700  16.9307  17.1313  17.2053  17.2418  17.2884
    17.3811  17.4478  17.4931  17.5359  17.6385  17.6482  17.7351  17.8073
    17.8339  17.8719  17.8837  17.8989  17.9515  17.9958  18.0059  18.0516
    18.0601  18.0745  18.0960  18.1219  18.1858  18.2761  18.3101  18.3677
    18.4506  18.4738  18.5627  18.7061  18.7281  18.7768  18.8340  18.8654
    18.9488  19.0773  19.1154  19.1583  19.2079  19.3019  19.3230  19.3402
    19.3795  19.3962  19.4560  19.4829  19.5095  19.5207  19.6298  19.6974
    19.7434  19.8052  19.9350  19.9973  20.0266  20.0548  20.0989  20.1425
    20.1533  20.1920  20.2851  20.3127  20.4088  20.5080  20.5308  20.5462
    20.5929  20.6187  20.7227  20.7535  20.8403  20.8794  20.9159  20.9555
    21.0547  21.1606  21.2102  21.2555  21.3038  21.3219  21.4125  21.5214
    21.5327  21.6018  21.6921  21.8091  21.8339  21.8800  21.9819  22.0480
    22.0906  22.1887  22.2874

          k = 0.2500 0.0000 0.0000 ( 32013 PWs)   bands (ev):

   -54.5215 -54.4660 -54.4306 -54.4268 -54.4107 -54.3888 -54.3605 -54.3206
   -54.2837 -54.2803 -54.2701 -54.2628 -54.2533 -54.1357 -54.1314 -54.1158
   -54.1114 -54.0414 -54.0369 -54.0003 -53.9954 -53.5948 -53.3609 -52.9547
   -23.7922 -21.4972 -21.2095 -20.7358 -20.6597 -20.2054 -20.1194 -19.9910
   -19.9298 -19.8887 -19.8562 -19.7351 -19.6768 -19.5917 -19.3707 -19.2574
   -19.1512 -18.7600 -18.4973 -17.5876 -10.9109 -10.7393 -10.5134 -10.1028
    -9.8206  -9.8163  -9.7859  -9.5134  -9.4011  -9.3561  -9.2589  -9.1711
    -9.0494  -9.0063  -8.7693  -8.7429  -8.5995  -8.5063  -8.4144  -8.3206
    -8.0364  -7.9118  -7.8159  -7.7874  -7.6934  -7.5327  -7.4811  -7.3857
    -7.1052  -7.0954  -6.8725  -6.8387  -6.7702  -6.6282  -6.5416  -6.4657
    -6.4170  -6.3396  -6.1968  -6.1225  -6.0423  -6.0132  -5.8554  -5.7635
    -5.6607  -5.4495  -5.2188  -5.1364  -4.9994  -4.9193  -4.8371  -4.7873
    -4.6588  -4.5633  -4.4700  -4.3484  -4.2844  -4.1085  -4.0480  -3.9230
    -3.8500  -3.7471  -3.6984  -3.5684  -3.3276  -3.1707  -3.1265  -2.8665
    -2.8348  -2.4300  -2.3921  -2.3194  -2.2899  -2.2149  -2.1016  -2.0812
    -1.9029  -1.8506  -1.8121  -1.6909  -1.4218  -1.2879  -1.2256  -1.0877
    -0.3893   0.1492   0.2227   0.3023   0.4445   0.5585   0.7146   0.9925
     1.1350   1.4680   1.6251   1.8112   1.9528   2.0064   2.4123   3.2648
     3.4687   3.8749   4.3312   4.7232   4.8836   5.4314   5.5084   5.9316
     5.9834   6.2327   6.5557   6.6305   6.7723   7.0467   7.1127   7.3799
     7.4357   7.4703   7.6122   7.7091   7.7670   7.8506   7.9944   8.0327
     8.1399   8.2256   8.3032   8.3756   8.4103   8.5571   8.6008   8.6667
     8.8266   8.9093   9.0191   9.1210   9.2420   9.3083   9.3293   9.3479
     9.4353   9.5082   9.6006   9.7221   9.7685   9.8466   9.8963   9.9576
    10.0088  10.1205  10.2030  10.2699  10.2952  10.3478  10.5171  10.6597
    10.7236  10.8354  10.8831  10.9365  10.9818  11.0817  11.1435  11.2360
    11.3309  11.5196  11.5393  11.7115  11.8140  11.8666  11.9432  11.9867
    12.0549  12.2045  12.2306  12.3537  12.4708  12.5790  12.6870  12.7759
    12.8640  12.8932  13.0957  13.2165  13.2807  13.2986  13.3502  13.4162
    13.4567  13.5433  13.6557  13.6891  13.7794  13.8346  13.8633  13.9024
    14.0034  14.0776  14.1841  14.2403  14.2948  14.3307  14.4018  14.4796
    14.5107  14.6644  14.7190  14.8783  14.9432  15.0243  15.1488  15.1910
    15.2326  15.2749  15.4067  15.4660  15.5253  15.5887  15.6522  15.7044
    15.8084  15.8744  15.9200  16.0522  16.0880  16.1507  16.2463  16.3174
    16.3621  16.5143  16.6013  16.7835  16.8272  16.8675  16.9480  17.0624
    17.1167  17.1958  17.2573  17.3149  17.4096  17.4537  17.5437  17.7176
    17.8190  17.8486  17.8720  17.8996  17.9615  17.9759  17.9898  18.0127
    18.0330  18.0890  18.1024  18.1164  18.2121  18.3046  18.3608  18.4034
    18.4785  18.5636  18.5866  18.6263  18.6778  18.7040  18.7203  18.7931
    18.8283  18.8953  18.9508  18.9616  19.0015  19.0515  19.0649  19.1227
    19.1717  19.2717  19.3222  19.3343  19.3662  19.4325  19.4613  19.5062
    19.5516  19.6159  19.7076  19.7558  19.7763  19.8783  19.9173  19.9681
    20.0422  20.0770  20.1437  20.2521  20.2708  20.3078  20.3301  20.3636
    20.4009  20.4753  20.5103  20.5716  20.6006  20.6450  20.6943  20.8224
    20.8508  20.9422  20.9501  21.0470  21.1012  21.1618  21.1790  21.2590
    21.3101  21.3735  21.4082  21.4593  21.5162  21.5823  21.6239  21.6872
    21.8459  21.9033  21.9660  22.0009  22.1213  22.1370  22.1977  22.2236
    22.2912  22.3231  22.3684

          k = 0.2500 0.2488 0.0000 ( 32025 PWs)   bands (ev):

   -54.5214 -54.4656 -54.4302 -54.4267 -54.4108 -54.3888 -54.3605 -54.3206
   -54.2838 -54.2797 -54.2681 -54.2625 -54.2554 -54.1358 -54.1309 -54.1161
   -54.1113 -54.0416 -54.0366 -54.0005 -53.9954 -53.5946 -53.3607 -52.9547
   -23.7926 -21.4904 -21.2065 -20.6134 -20.5122 -20.2299 -20.1963 -20.1125
   -19.9646 -19.8921 -19.7340 -19.6951 -19.6200 -19.5738 -19.4247 -19.3725
   -19.3415 -18.7583 -18.5048 -17.5830 -10.6063 -10.4607 -10.3429 -10.2815
    -9.9290  -9.8395  -9.8148  -9.6018  -9.5379  -9.2468  -9.1379  -9.0646
    -8.9906  -8.8606  -8.6731  -8.6547  -8.6012  -8.4560  -8.3815  -8.1756
    -8.0319  -7.8846  -7.8004  -7.6380  -7.5825  -7.4764  -7.4002  -7.3837
    -7.2651  -7.0896  -7.0571  -6.9843  -6.9421  -6.8256  -6.7524  -6.6887
    -6.5880  -6.5228  -6.4269  -6.3379  -6.2543  -6.1048  -5.9514  -5.7321
    -5.6196  -5.3355  -5.2282  -5.0867  -5.0409  -4.9059  -4.8477  -4.7888
    -4.7125  -4.5232  -4.4579  -4.3246  -4.2809  -3.9926  -3.8483  -3.7707
    -3.6793  -3.6122  -3.5157  -3.3648  -3.2806  -3.2160  -3.1349  -2.9714
    -2.8901  -2.8270  -2.5969  -2.5128  -2.2750  -2.1546  -2.0732  -1.9436
    -1.8769  -1.8336  -1.7944  -1.6808  -1.4264  -1.3172  -1.2540  -1.1269
    -0.5027  -0.3062  -0.1743   0.2803   0.4543   0.8238   1.0092   1.3184
     1.3970   1.5443   1.6149   1.8875   2.0203   2.0801   2.3628   3.2567
     3.7973   4.0321   4.5596   4.8944   5.0859   5.5556   5.6951   5.7500
     5.9856   6.1533   6.2719   6.4399   6.5124   6.7644   6.8792   6.9720
     7.0375   7.2275   7.3292   7.4992   7.6284   7.6892   7.7935   7.9047
     7.9911   8.0991   8.2167   8.3118   8.4229   8.4941   8.6429   8.6863
     8.8067   8.8588   8.9924   9.0529   9.1777   9.2631   9.3755   9.4319
     9.5671   9.6134   9.7013   9.7489   9.9178   9.9881  10.0118  10.1508
    10.2183  10.3089  10.3695  10.4853  10.5617  10.6570  10.7190  10.8079
    10.9265  11.0709  11.0939  11.2126  11.2929  11.3425  11.4759  11.5455
    11.6101  11.7451  11.7982  11.8518  11.9516  12.0532  12.1064  12.1541
    12.2169  12.3280  12.3825  12.4355  12.5953  12.6326  12.7129  12.8174
    12.8802  12.8891  13.0016  13.0562  13.2273  13.2977  13.3279  13.4563
    13.5350  13.6497  13.6708  13.7523  13.8029  13.8603  13.9452  14.0202
    14.1177  14.1453  14.2728  14.4019  14.4559  14.5315  14.6541  14.7255
    14.8305  14.8847  14.9375  14.9955  15.0596  15.1386  15.1976  15.2891
    15.3293  15.3533  15.4096  15.4626  15.5200  15.5873  15.6356  15.6759
    15.7799  15.8518  15.8723  15.9502  16.0245  16.0967  16.1357  16.1678
    16.2795  16.2873  16.3181  16.4218  16.5232  16.6238  16.7013  16.7917
    16.8126  16.9377  17.0093  17.0267  17.0740  17.1341  17.2001  17.2557
    17.3305  17.3486  17.4051  17.4343  17.4765  17.5635  17.6034  17.6774
    17.7728  17.8455  17.8822  17.9491  17.9722  17.9980  18.0156  18.0272
    18.0478  18.0738  18.0993  18.1292  18.1556  18.2958  18.3170  18.3801
    18.4229  18.4802  18.5171  18.6044  18.6331  18.7446  18.8408  18.9185
    18.9510  19.0080  19.1075  19.1283  19.1574  19.2505  19.3277  19.3727
    19.4580  19.5131  19.5533  19.6466  19.7073  19.8152  19.9798  20.0439
    20.0656  20.1300  20.2314  20.2669  20.3055  20.3450  20.4263  20.4877
    20.5422  20.6147  20.6501  20.6902  20.7190  20.7990  20.8417  20.8591
    20.9445  20.9809  21.0482  21.1350  21.1484  21.1971  21.3151  21.3809
    21.4465  21.4888  21.5404  21.5809  21.6469  21.6856  21.7215  21.8985
    21.9344  22.0149  22.1146  22.1811  22.2144  22.2651  22.3201  22.3454
    22.4355  22.4816  22.5589

          k = 0.2500-0.4976 0.0000 ( 32026 PWs)   bands (ev):

   -54.5212 -54.4651 -54.4297 -54.4267 -54.4108 -54.3887 -54.3605 -54.3207
   -54.2839 -54.2791 -54.2654 -54.2616 -54.2587 -54.1359 -54.1305 -54.1164
   -54.1112 -54.0419 -54.0362 -54.0006 -53.9954 -53.5945 -53.3604 -52.9548
   -23.7929 -21.4842 -21.2039 -20.4442 -20.3111 -20.2567 -20.2056 -20.1848
   -19.9615 -19.9040 -19.8077 -19.7222 -19.6170 -19.5878 -19.5273 -19.4937
   -19.3680 -18.7566 -18.5116 -17.5784 -10.5737 -10.4842 -10.0844  -9.9886
    -9.9701  -9.8158  -9.7084  -9.6385  -9.4417  -9.1385  -8.9494  -8.9070
    -8.8456  -8.7733  -8.6535  -8.5869  -8.5160  -8.4388  -8.4238  -8.3058
    -8.1461  -7.9357  -7.8364  -7.7237  -7.6973  -7.5864  -7.5292  -7.4074
    -7.2745  -7.2354  -7.1931  -7.1051  -7.0552  -6.9308  -6.8391  -6.7459
    -6.6961  -6.5657  -6.5054  -6.3982  -6.2057  -6.0274  -5.8939  -5.7786
    -5.6686  -5.4916  -5.3697  -5.2474  -5.1688  -4.9587  -4.8458  -4.8151
    -4.7644  -4.3924  -4.3245  -4.1933  -4.1605  -4.0091  -3.8120  -3.7955
    -3.5549  -3.4208  -3.3595  -3.2748  -3.2300  -3.1777  -3.0484  -2.9481
    -2.8751  -2.7577  -2.6703  -2.5727  -2.3990  -2.1716  -2.0890  -2.0314
    -1.9848  -1.9438  -1.7537  -1.7179  -1.4789  -1.3822  -1.2733  -1.1450
    -0.8050  -0.5883  -0.0976   0.2884   0.7434   0.9081   1.0699   1.1848
     1.2636   1.7283   1.9326   1.9637   2.0578   2.1818   2.4096   3.2587
     4.2395   4.4928   4.8693   5.1011   5.1563   5.3533   5.4611   5.7277
     5.9986   6.0128   6.0675   6.1061   6.5978   6.6336   6.7124   6.8722
     6.9067   7.0593   7.1341   7.2849   7.3480   7.4430   7.7226   7.7909
     7.8090   7.9562   8.0721   8.0879   8.2773   8.4169   8.4410   8.6299
     8.6538   8.7447   8.9282   9.1912   9.2187   9.2541   9.3372   9.4937
     9.5441   9.6793   9.7574   9.8111   9.9070   9.9872  10.0861  10.1130
    10.3924  10.5269  10.5588  10.6883  10.7872  10.9802  11.1626  11.2471
    11.2773  11.3489  11.4157  11.5299  11.6002  11.6607  11.7556  11.8323
    11.8670  11.9458  11.9976  12.0803  12.1884  12.2350  12.4223  12.4705
    12.4991  12.6098  12.6403  12.7014  12.7422  12.7905  12.9315  12.9754
    13.0029  13.0655  13.1407  13.2403  13.2839  13.4248  13.4597  13.5147
    13.5433  13.6496  13.7383  13.8418  13.9023  13.9842  14.0144  14.0769
    14.1200  14.2054  14.2606  14.3050  14.4134  14.4792  14.4978  14.5338
    14.5750  14.6374  14.6644  14.6929  14.7872  14.8679  14.9053  15.0519
    15.0937  15.1731  15.1989  15.3184  15.4404  15.5036  15.5517  15.6435
    15.7280  15.7831  15.8560  15.8877  15.9674  16.0736  16.1205  16.1499
    16.2003  16.2376  16.2798  16.3054  16.3511  16.4003  16.4946  16.5213
    16.5618  16.6227  16.7625  16.8117  16.8593  16.9215  17.0352  17.0611
    17.1331  17.2291  17.3147  17.3352  17.4138  17.4790  17.5014  17.5290
    17.5945  17.7364  17.7778  17.7904  17.8269  17.8748  17.9695  17.9806
    17.9916  18.0115  18.0341  18.0950  18.1134  18.1291  18.1703  18.2327
    18.2477  18.3049  18.3714  18.4193  18.4732  18.4883  18.5337  18.5984
    18.7003  18.7388  18.8608  18.9096  18.9944  19.0743  19.0986  19.1230
    19.2171  19.2761  19.3415  19.4222  19.4272  19.4941  19.5168  19.5495
    19.6276  19.8285  19.9058  19.9483  20.1094  20.2182  20.2714  20.3217
    20.3594  20.4314  20.4775  20.5599  20.6632  20.7172  20.7550  20.8615
    20.8824  20.9424  21.0123  21.0909  21.1641  21.2219  21.3157  21.3472
    21.4402  21.4863  21.5401  21.6180  21.7804  21.8528  21.8986  21.9658
    21.9977  22.0773  22.1596  22.2596  22.3226  22.3594  22.4726  22.5864
    22.6351  22.7022  22.7197

          k =-0.5000 0.0000 0.0000 ( 31984 PWs)   bands (ev):

   -54.5233 -54.4492 -54.4479 -54.4120 -54.4117 -54.4109 -54.3432 -54.3421
   -54.2827 -54.2820 -54.2703 -54.2638 -54.2528 -54.1349 -54.1325 -54.1140
   -54.1135 -54.0412 -54.0375 -53.9984 -53.9976 -53.5974 -53.3611 -52.9549
   -23.7923 -21.4297 -21.1773 -20.4300 -20.4263 -20.3241 -20.3123 -20.0054
   -19.9664 -19.9538 -19.7619 -19.6122 -19.6004 -19.4881 -19.4340 -19.4226
   -19.3830 -18.7667 -18.7169 -17.5882 -10.2033 -10.1682 -10.0459 -10.0354
    -9.9023  -9.8528  -9.6622  -9.5010  -9.4697  -9.4302  -9.3351  -9.2682
    -9.2397  -9.1135  -8.9038  -8.7893  -8.6717  -8.6492  -8.4754  -8.1746
    -8.0926  -7.8166  -7.7023  -7.5931  -7.5487  -7.4853  -7.4460  -7.3577
    -7.2870  -7.1993  -7.1472  -7.0871  -6.9697  -6.8902  -6.7736  -6.7384
    -6.6974  -6.5648  -6.5451  -6.3961  -6.2690  -6.1423  -6.0549  -5.8990
    -5.8007  -5.7335  -5.0395  -4.9125  -4.8902  -4.8537  -4.8233  -4.7064
    -4.6636  -4.4956  -4.4015  -4.3391  -4.2634  -4.1614  -4.1113  -3.7403
    -3.5641  -3.4604  -3.4397  -3.3551  -3.0491  -2.9365  -2.9106  -2.7525
    -2.6191  -2.4603  -2.2764  -2.2326  -2.1982  -2.1499  -2.0878  -2.0735
    -1.9990  -1.9527  -1.6826  -1.6572  -1.5263  -1.5121  -1.4459  -1.0417
    -0.0439   0.3360   0.3786   0.4750   0.7085   0.7976   0.8763   0.9011
     0.9864   1.0509   1.1207   1.3291   1.6637   2.0437   2.1395   3.2961
     4.2493   4.3882   4.4073   4.6905   5.0206   5.0798   5.4151   5.5379
     5.6621   5.7794   6.3556   6.4618   6.5977   6.8288   7.0766   7.1750
     7.3882   7.5685   7.8326   7.8450   7.9818   8.0137   8.1017   8.2381
     8.2768   8.3065   8.4303   8.4553   8.5667   8.6759   8.7137   8.7913
     8.8219   8.8891   8.9396   8.9797   9.0026   9.0719   9.1621   9.3438
     9.3897   9.4671   9.5287   9.5550   9.6870   9.7054   9.7648   9.7998
     9.9935  10.0547  10.1919  10.2231  10.2576  10.4478  10.6240  10.7591
    10.8752  10.8906  11.0077  11.1762  11.2993  11.3924  11.5140  11.5885
    11.7244  11.8039  11.9332  11.9826  12.0840  12.1038  12.2390  12.2503
    12.2844  12.3107  12.4645  12.4976  12.5799  12.6121  12.7339  12.7678
    12.9239  12.9463  12.9561  12.9837  13.0205  13.1067  13.1855  13.2652
    13.3367  13.4943  13.6374  13.6623  13.8492  13.9041  13.9147  13.9886
    14.1154  14.1545  14.1985  14.2926  14.4020  14.4855  14.5917  14.6557
    14.7119  14.7863  14.8137  14.8626  15.0854  15.1196  15.2774  15.3686
    15.4137  15.4867  15.5302  15.5995  15.6499  15.7743  15.8136  15.8337
    15.8802  15.9395  15.9575  16.0136  16.1248  16.1961  16.2110  16.2417
    16.2512  16.3280  16.3930  16.4254  16.4913  16.5097  16.6103  16.6945
    16.7838  16.8420  16.9603  17.0063  17.0737  17.1240  17.2385  17.2459
    17.2978  17.4289  17.5539  17.7195  17.7339  17.8103  17.8413  17.8577
    17.9530  17.9829  17.9870  18.0141  18.0748  18.0926  18.1000  18.1258
    18.1928  18.2211  18.2426  18.3125  18.3360  18.3641  18.4161  18.5169
    18.5994  18.6740  18.7157  18.7408  18.8208  18.8486  18.9542  19.0854
    19.2002  19.2317  19.2405  19.2486  19.2536  19.2958  19.3346  19.3776
    19.5099  19.5169  19.5745  19.6659  19.7094  19.7301  19.7398  19.7907
    19.8220  19.8510  19.8849  19.9802  20.0014  20.0585  20.0781  20.1006
    20.3111  20.3553  20.4027  20.4603  20.5119  20.5738  20.6083  20.6289
    20.6558  20.6781  20.7128  20.7446  20.8632  20.8859  20.9652  20.9844
    21.0033  21.0650  21.0997  21.3139  21.3467  21.4785  21.5285  21.6146
    21.7504  21.7793  21.8020  21.8207  21.9564  21.9708  22.0685  22.0962
    22.1194  22.2842  22.3531

          k =-0.5000 0.2488 0.0000 ( 32052 PWs)   bands (ev):

   -54.5232 -54.4489 -54.4476 -54.4118 -54.4115 -54.4110 -54.3433 -54.3421
   -54.2824 -54.2817 -54.2678 -54.2638 -54.2550 -54.1347 -54.1324 -54.1141
   -54.1136 -54.0411 -54.0374 -53.9984 -53.9977 -53.5973 -53.3608 -52.9549
   -23.7927 -21.4269 -21.1745 -20.3372 -20.3307 -20.2263 -20.2044 -20.0120
   -19.9720 -19.9532 -19.7932 -19.7123 -19.6814 -19.6069 -19.5252 -19.4446
   -19.4322 -18.7710 -18.7171 -17.5839 -10.1465 -10.0136  -9.7920  -9.7849
    -9.7183  -9.6211  -9.5838  -9.5205  -9.4469  -9.4125  -9.3371  -9.2571
    -9.1864  -9.1387  -8.9724  -8.8435  -8.7244  -8.5055  -8.4538  -8.1916
    -8.1133  -7.7933  -7.7451  -7.6472  -7.5910  -7.5846  -7.5212  -7.4349
    -7.4079  -7.3412  -7.2950  -7.2033  -7.0704  -6.9141  -6.8993  -6.7569
    -6.7180  -6.6807  -6.5017  -6.4551  -6.3643  -6.2145  -5.9618  -5.8824
    -5.8225  -5.7214  -5.3373  -5.2742  -5.1678  -5.0773  -4.8960  -4.7187
    -4.6762  -4.5995  -4.5369  -3.8637  -3.8425  -3.7562  -3.6946  -3.5882
    -3.4635  -3.4399  -3.4327  -3.3567  -3.0293  -2.9471  -2.9275  -2.8372
    -2.6058  -2.5248  -2.3928  -2.3371  -2.2204  -2.1525  -2.1130  -1.9909
    -1.9582  -1.9231  -1.7483  -1.7174  -1.5874  -1.5528  -1.4391  -1.0207
    -0.0254   0.1247   0.2331   0.3134   0.4679   0.5215   0.8177   0.8840
     1.1139   1.2956   1.4513   1.6067   1.7646   2.1085   2.2474   3.2905
     4.3703   4.6403   4.6640   4.8522   5.2276   5.2997   5.6041   5.7431
     5.8866   5.9974   6.3281   6.3732   6.4937   6.5218   6.7863   6.8517
     6.9160   7.0749   7.1312   7.1469   7.4841   7.5611   7.6381   7.6545
     7.8531   7.9860   8.0791   8.2078   8.3902   8.4227   8.5067   8.6915
     8.8214   8.8874   9.0379   9.0509   9.3335   9.3670   9.5231   9.6245
     9.7156   9.7651   9.8093   9.8744   9.9551  10.1306  10.1999  10.2598
    10.3847  10.5064  10.5212  10.5973  10.7511  10.7741  10.9797  11.0825
    11.1023  11.1586  11.3743  11.4379  11.5682  11.6341  11.6591  11.7503
    11.9122  11.9881  12.1225  12.1546  12.1904  12.2229  12.3153  12.3672
    12.4464  12.4710  12.5990  12.6280  12.7324  12.7912  12.9150  12.9885
    13.1056  13.1181  13.1379  13.2269  13.3766  13.4163  13.4213  13.4447
    13.5698  13.6209  13.7525  13.7728  13.8747  13.8998  14.0001  14.0289
    14.1259  14.1631  14.2062  14.2222  14.2837  14.3081  14.3751  14.4517
    14.4845  14.5320  14.5943  14.6243  14.6880  14.7093  14.7970  14.8989
    14.9840  15.1051  15.1637  15.2298  15.3156  15.3756  15.4297  15.4650
    15.5928  15.7639  15.7798  15.8261  15.9065  15.9459  16.0206  16.0573
    16.2006  16.2445  16.2724  16.3246  16.3625  16.3845  16.5344  16.5671
    16.7264  16.7527  16.8219  16.8547  16.9284  17.0213  17.0820  17.1247
    17.2565  17.3306  17.3779  17.4611  17.5221  17.5450  17.5970  17.6364
    17.6809  17.7316  17.7911  17.8107  17.8681  17.9240  17.9834  17.9953
    17.9999  18.0195  18.0282  18.0915  18.1099  18.1484  18.1645  18.2064
    18.2630  18.3032  18.3295  18.3876  18.4634  18.5996  18.7139  18.7859
    18.8815  18.9519  18.9694  19.0030  19.0756  19.1015  19.1437  19.2071
    19.2888  19.3327  19.3498  19.3878  19.5070  19.5269  19.6129  19.7102
    19.7810  19.8554  19.9454  19.9768  20.0274  20.1038  20.2016  20.3433
    20.4012  20.4211  20.5852  20.6339  20.6707  20.7021  20.7562  20.9041
    21.0097  21.0507  21.1594  21.2105  21.2859  21.3239  21.3791  21.4023
    21.5652  21.5998  21.6214  21.6480  21.7901  21.8517  21.9091  21.9857
    22.0299  22.0918  22.1363  22.2313  22.3078  22.3402  22.4435  22.5121
    22.6103  22.6521  22.7331

          k =-0.5000-0.4976 0.0000 ( 31956 PWs)   bands (ev):

   -54.5230 -54.4486 -54.4472 -54.4115 -54.4112 -54.4111 -54.3433 -54.3422
   -54.2821 -54.2814 -54.2639 -54.2635 -54.2587 -54.1346 -54.1322 -54.1142
   -54.1137 -54.0411 -54.0374 -53.9985 -53.9977 -53.5971 -53.3606 -52.9550
   -23.7930 -21.4242 -21.1717 -20.1601 -20.1295 -20.0898 -20.0755 -20.0307
   -19.9632 -19.9584 -19.9255 -19.8538 -19.8070 -19.7955 -19.6522 -19.4544
   -19.4451 -18.7753 -18.7172 -17.5796 -10.1542 -10.0112  -9.6407  -9.6134
    -9.5377  -9.5195  -9.4772  -9.3571  -9.3370  -9.2624  -9.0688  -8.9819
    -8.9582  -8.9016  -8.8014  -8.7674  -8.6287  -8.5912  -8.5581  -8.5159
    -8.3148  -8.2824  -8.1907  -7.9267  -7.8580  -7.7271  -7.6383  -7.4879
    -7.4382  -7.3740  -7.2456  -7.1879  -7.0503  -6.9036  -6.8544  -6.8133
    -6.7405  -6.5671  -6.4874  -6.4474  -6.3315  -6.3121  -5.9993  -5.9083
    -5.8280  -5.7837  -5.6675  -5.5335  -5.4082  -5.3269  -4.8939  -4.7230
    -4.6410  -4.5490  -4.5251  -3.7378  -3.5425  -3.5312  -3.4932  -3.4162
    -3.3362  -3.3325  -3.3082  -3.1444  -2.9824  -2.9582  -2.8800  -2.8636
    -2.6926  -2.6746  -2.4194  -2.4010  -2.2363  -2.1896  -2.1147  -1.9529
    -1.9064  -1.8780  -1.8339  -1.7491  -1.7051  -1.6038  -1.4256  -1.0057
    -0.1927  -0.1817  -0.1138   0.1828   0.2575   0.5372   0.8968   0.9184
     1.1905   1.6188   1.6648   1.7583   1.9015   2.1908   2.2547   3.2887
     4.5233   5.0909   5.1648   5.1886   5.5767   5.5813   5.7949   5.8057
     5.8413   5.9632   6.1259   6.1571   6.1829   6.4057   6.4835   6.5565
     6.6630   6.6950   6.7687   6.8728   7.1436   7.2415   7.3531   7.5069
     7.5612   7.6416   7.8087   7.9343   8.1982   8.3446   8.5507   8.6080
     8.7444   8.7984   8.9633   9.0542   9.0808   9.1870   9.4154   9.7236
     9.8358   9.8507   9.9101  10.0284  10.0997  10.1046  10.3574  10.4382
    10.6788  10.6983  10.8922  11.0551  11.1093  11.1683  11.3087  11.6612
    11.7360  11.9016  12.1147  12.1283  12.1986  12.2476  12.2947  12.3602
    12.4335  12.5127  12.5301  12.6290  12.7036  12.7516  12.7682  12.8099
    12.8757  12.9511  12.9990  13.0448  13.0602  13.0720  13.1100  13.1404
    13.1579  13.1725  13.2523  13.2720  13.3158  13.3535  13.4147  13.4317
    13.4584  13.4886  13.5250  13.5412  13.5777  13.6238  13.6667  13.7298
    13.7551  13.8022  13.8542  13.9072  14.0195  14.0743  14.1506  14.1702
    14.2388  14.2693  14.3178  14.3635  14.4489  14.5575  14.6893  14.7679
    14.8074  14.8673  14.9489  14.9655  15.0094  15.0436  15.0798  15.1112
    15.1511  15.2520  15.3620  15.4255  15.4974  15.5032  15.5706  15.5974
    15.7511  15.7805  15.8687  15.9987  16.0382  16.0778  16.1124  16.2052
    16.2728  16.3391  16.5257  16.5533  16.6180  16.6409  16.6615  16.6840
    16.7887  16.8812  17.0922  17.1234  17.2206  17.2748  17.4847  17.5030
    17.5863  17.6995  17.8376  17.9350  17.9643  17.9750  17.9971  18.0160
    18.0391  18.0652  18.0950  18.1035  18.1147  18.1791  18.2311  18.2937
    18.4076  18.4431  18.4815  18.6101  18.6756  18.7613  18.7917  18.8911
    18.9345  19.0396  19.0773  19.1181  19.1818  19.3994  19.5004  19.5513
    19.5814  19.7504  19.7602  19.7879  19.8649  19.9360  19.9546  20.0041
    20.0656  20.0961  20.2329  20.2459  20.3201  20.3467  20.3930  20.4304
    20.4552  20.5769  20.6100  20.6594  20.6952  20.7353  20.8307  20.8659
    20.8799  20.9606  21.0156  21.0729  21.1080  21.1827  21.2055  21.2375
    21.2429  21.2661  21.3700  21.4111  21.4995  21.5422  21.5689  21.6594
    21.7260  21.7743  21.7944  21.8455  21.8995  21.9757  22.0351  22.0810
    22.1493  22.1928  22.3091

          k =-0.2500 0.2488 0.0000 ( 32025 PWs)   bands (ev):

   -54.5214 -54.4656 -54.4302 -54.4267 -54.4108 -54.3888 -54.3605 -54.3206
   -54.2838 -54.2797 -54.2681 -54.2625 -54.2554 -54.1357 -54.1310 -54.1161
   -54.1113 -54.0416 -54.0366 -54.0005 -53.9954 -53.5946 -53.3607 -52.9547
   -23.7926 -21.4904 -21.2065 -20.6131 -20.5122 -20.2324 -20.1974 -20.1121
   -19.9538 -19.8945 -19.7391 -19.7002 -19.6147 -19.5752 -19.4282 -19.3685
   -19.3409 -18.7583 -18.5049 -17.5830 -10.6043 -10.4638 -10.3430 -10.2817
    -9.9163  -9.8509  -9.8178  -9.6025  -9.5321  -9.2577  -9.1386  -9.0421
    -8.9900  -8.8686  -8.7004  -8.6677  -8.5828  -8.4592  -8.3762  -8.1621
    -8.0184  -7.8210  -7.8081  -7.6871  -7.6354  -7.5017  -7.3564  -7.3390
    -7.2817  -7.1019  -7.0595  -7.0020  -6.8988  -6.8607  -6.7577  -6.6337
    -6.5994  -6.5077  -6.4789  -6.3307  -6.2777  -6.0875  -5.9598  -5.7333
    -5.6077  -5.3726  -5.1669  -5.0598  -5.0273  -4.9580  -4.8457  -4.7601
    -4.7273  -4.5653  -4.4843  -4.3132  -4.2319  -4.0152  -3.8450  -3.7860
    -3.6908  -3.5748  -3.4892  -3.3948  -3.2569  -3.2140  -3.1376  -2.9965
    -2.8854  -2.8542  -2.5587  -2.5249  -2.2872  -2.1620  -2.0713  -1.9503
    -1.8746  -1.8332  -1.7872  -1.6600  -1.4252  -1.3175  -1.2569  -1.1285
    -0.5137  -0.3049  -0.1740   0.2780   0.4565   0.8236   1.0090   1.3156
     1.3986   1.5475   1.6169   1.8877   2.0192   2.0788   2.3631   3.2567
     3.7955   4.0315   4.5596   4.8941   5.0865   5.5563   5.7181   5.7721
     5.9877   6.1511   6.2735   6.4420   6.5130   6.7577   6.8704   6.9706
     7.0411   7.1646   7.3109   7.4870   7.6265   7.6995   7.8011   7.8995
     7.9810   8.1081   8.2147   8.2839   8.4437   8.5149   8.6435   8.7356
     8.8115   8.8535   8.9863   9.0635   9.1689   9.2540   9.3791   9.4474
     9.5470   9.6038   9.7132   9.7583   9.8898   9.9851  10.0140  10.1404
    10.2163  10.3113  10.3921  10.4733  10.5720  10.6587  10.7279  10.7938
    10.9504  11.0219  11.0846  11.2155  11.3131  11.3539  11.4586  11.5507
    11.6237  11.7412  11.8006  11.8651  11.9529  12.0520  12.1034  12.1596
    12.2200  12.3302  12.3931  12.4373  12.5841  12.6565  12.7351  12.8159
    12.8835  12.9160  12.9955  13.0813  13.2211  13.3013  13.3531  13.4636
    13.5508  13.6401  13.6719  13.7224  13.8153  13.8570  13.9617  14.0346
    14.1156  14.1638  14.2786  14.4105  14.4405  14.5022  14.6139  14.7287
    14.7739  14.8568  14.9553  14.9830  15.0566  15.1565  15.1964  15.2935
    15.3127  15.3363  15.3793  15.4195  15.5130  15.5695  15.6362  15.6534
    15.7783  15.8521  15.8831  15.9372  15.9840  16.0795  16.1315  16.1631
    16.2438  16.2889  16.3424  16.4203  16.5223  16.5934  16.7429  16.7768
    16.8208  16.9203  16.9817  17.0282  17.0586  17.1461  17.1969  17.2439
    17.3188  17.3576  17.3941  17.4472  17.4777  17.5919  17.6087  17.7035
    17.7563  17.8402  17.8981  17.9444  17.9663  17.9946  18.0121  18.0276
    18.0440  18.0813  18.1140  18.1304  18.1582  18.2843  18.3581  18.3893
    18.3981  18.5093  18.5667  18.6088  18.7013  18.7576  18.8687  18.9435
    18.9684  19.0367  19.1110  19.1270  19.1498  19.2308  19.3100  19.3909
    19.4612  19.5699  19.6247  19.6537  19.7167  19.8492  19.9722  20.0352
    20.1121  20.1669  20.2143  20.2534  20.3028  20.3446  20.3783  20.4500
    20.5437  20.5989  20.6355  20.7049  20.7411  20.8168  20.8276  20.8738
    20.9483  20.9870  21.0561  21.1143  21.1645  21.2394  21.3259  21.3463
    21.4122  21.5003  21.5275  21.5736  21.6272  21.6909  21.7777  21.8862
    21.9511  22.0103  22.0703  22.1500  22.1901  22.2625  22.3167  22.3407
    22.4498  22.4977  22.5209

     the Fermi energy is    -1.2391 ev

!    total energy              =   -2312.41488164 Ry
     Harris-Foulkes estimate   =   -2312.41488250 Ry
     estimated scf accuracy    <       0.00000095 Ry

     The total energy is the sum of the following terms:

     one-electron contribution =  -24129.38688547 Ry
     hartree contribution      =   12116.99064478 Ry
     xc contribution           =    -580.10347907 Ry
     ewald contribution        =   10278.37717960 Ry
     Hubbard energy            =       1.70770834 Ry
     smearing contrib. (-TS)   =      -0.00004982 Ry

     convergence has been achieved in  30 iterations

     Forces acting on atoms (Ry/au):


     negative rho (up, down):  0.157E+01 0.000E+00
     atom    1 type  1   force =    -0.00907706   -0.00511810   -0.00263988
     atom    2 type  1   force =     0.00013379    0.00280971    0.00007836
     atom    3 type  2   force =     0.00825865    0.00717365   -0.00176030
     atom    4 type  2   force =     0.01107363    0.00350109   -0.00237395
     atom    5 type  1   force =     0.00093794   -0.00333179   -0.00278067
     atom    6 type  1   force =     0.00012384   -0.00223756    0.00310567
     atom    7 type  1   force =     0.00008400   -0.00119901   -0.00319457
     atom    8 type  1   force =    -0.00427791    0.00015174    0.00517069
     atom    9 type  2   force =     0.00679981    0.00372445   -0.00811794
     atom   10 type  2   force =    -0.00006647   -0.02289809    0.00317844
     atom   11 type  1   force =    -0.00037798    0.00372711   -0.00366738
     atom   12 type  1   force =    -0.01135497    0.00868670    0.00299050
     atom   13 type  1   force =    -0.00115880   -0.00639343    0.00357292
     atom   14 type  1   force =    -0.00892220   -0.00490046   -0.00233516
     atom   15 type  1   force =     0.00012271    0.00030725    0.00312708
     atom   16 type  2   force =    -0.00922323    0.00726589   -0.00163540
     atom   17 type  2   force =     0.01062817    0.00504628   -0.00108028
     atom   18 type  1   force =     0.00123004   -0.00333866   -0.00282340
     atom   19 type  1   force =    -0.00012360   -0.00216276    0.00309103
     atom   20 type  1   force =     0.00003378   -0.00376522    0.00105257
     atom   21 type  1   force =    -0.00407696    0.00237933    0.00535137
     atom   22 type  2   force =    -0.00301797    0.00367667   -0.00812505
     atom   23 type  2   force =     0.00006334    0.00628402   -0.00937753
     atom   24 type  1   force =     0.00043647    0.00376117   -0.00368031
     atom   25 type  1   force =     0.01144907    0.00876475    0.00291248
     atom   26 type  1   force =    -0.00113845   -0.01504764    0.00473331
     atom   27 type  3   force =    -0.00000899    0.00087673    0.00238748
     atom   28 type  3   force =    -0.00001215    0.00042942    0.00252260
     atom   29 type  3   force =     0.00074107    0.00027164    0.00199518
     atom   30 type  3   force =     0.00071069    0.00013755    0.00160596
     atom   31 type  1   force =     0.00004842   -0.00843746    0.01361212
     atom   32 type  1   force =    -0.00005153    0.00846678   -0.00858575
     atom   33 type  3   force =     0.00001285    0.00138824    0.00168980

     Total force =     0.029552     Total SCF correction =     0.001988


     entering subroutine stress ...


     negative rho (up, down):  0.157E+01 0.000E+00
          total   stress  (Ry/bohr**3)                   (kbar)     P=  -20.67
  -0.00022763   0.00000021   0.00000430        -33.49      0.03      0.63
   0.00000021  -0.00014341  -0.00000365          0.03    -21.10     -0.54
   0.00000430  -0.00000365  -0.00005040          0.63     -0.54     -7.41


     BFGS Geometry Optimization

     number of scf cycles    =   1
     number of bfgs steps    =   0

     energy   new            =   -2312.4148816366 Ry

     new trust radius        =       0.0160150834 bohr
     new conv_thr            =       0.0000010000 Ry


ATOMIC_POSITIONS (crystal)
O0       0.000000000   0.000000000   0.377777267    0   0   1
O0       0.000000000   0.500000000   0.401751565    0   0   1
Pt1      0.250000000   0.500000000   0.451214837    0   0   1
Pt1      0.000000000   0.000000000   0.452802579    0   0   1
O0       0.250000000   0.810000000   0.443444455    0   0   1
O0       0.250000000   0.190000000   0.460072038    0   0   1
O0       0.000000000   0.500000000   0.496666187    0   0   1
O0       0.000000000   0.000000000   0.529763287    0   0   1
Pt1      0.250000000   0.000000000   0.575687840    0   0   1
Pt1      0.000000000   0.500000000   0.575523491    0   0   1
O0       0.250000000   0.690000000   0.567346742    0   0   1
O0       0.250000000   0.310000000   0.586129737    0   0   1
O0       0.000000000   0.000000000   0.621481371    0   0   1
O0       0.500000000   0.000000000   0.377563354    0   0   1
O0       0.500000000   0.500000000   0.400832465    0   0   1
Pt1      0.750000000   0.500000000   0.451217332    0   0   1
Pt1      0.500000000   0.000000000   0.452598421    0   0   1
O0       0.750000000   0.810000000   0.443463601    0   0   1
O0       0.750000000   0.190000000   0.460051745    0   0   1
O0       0.500000000   0.500000000   0.498171026    0   0   1
O0       0.500000000   0.000000000   0.529486897    0   0   1
Pt1      0.750000000   0.000000000   0.575687698    0   0   1
Pt1      0.500000000   0.500000000   0.576012679    0   0   1
O0       0.750000000   0.690000000   0.567326484    0   0   1
O0       0.750000000   0.310000000   0.586138178    0   0   1
O0       0.500000000   0.000000000   0.620954551    0   0   1
H2       0.000019264   0.639951473   0.386077691
H2       0.500059005   0.640525007   0.385500390
H2       0.143430705   0.033792144   0.367829855
H2       0.643138216   0.035301214   0.367682080
O0       0.500113966   0.555542164   0.649001910
O0       0.499935779   0.367650227   0.677568495
H2       0.499991053   0.428543172   0.711903755


     Check: negative starting charge=   -1.535323
     NEW-OLD atomic charge density approx. for the potential

     Check: negative/imaginary core charge=   -0.000003    0.000000
     Check: negative starting charge=   -1.535302

     negative rho (up, down):  0.157E+01 0.000E+00
 Atomic wfc used for LDA+U Projector are NOT orthogonalized

     total cpu time spent up to now is     8212.9 secs

     per-process dynamical memory:   472.4 Mb

     Self-consistent Calculation

     iteration #  1     ecut=    40.00 Ry     beta=0.70
     Davidson diagonalization with overlap
     ethr =  1.00E-06,  avg # of iterations =  3.7
 --- enter write_ns ---
 LDA+U parameters:
U( 2)     =  6.50000000
alpha( 2) =  0.00000000
atom    3   Tr[ns(na)] =   8.79139
    eigenvalues: 
  0.703  0.722  0.988  0.989  0.992
    eigenvectors:
  0.066  0.105  0.806  0.015  0.008
  0.647  0.352  0.000  0.000  0.000
  0.001  0.003  0.015  0.000  0.981
  0.286  0.540  0.161  0.003  0.011
  0.000  0.000  0.018  0.982  0.000
    occupations:
  0.942  0.008  0.006 -0.103  0.001
  0.008  0.710  0.002  0.007 -0.003
  0.006  0.002  0.991  0.015 -0.000
 -0.103  0.007  0.015  0.763  0.001
  0.001 -0.003 -0.000  0.001  0.989
atom    4   Tr[ns(na)] =   8.78161
    eigenvalues: 
  0.703  0.725  0.986  0.988  0.989
    eigenvectors:
  0.000  0.986  0.008  0.004  0.002
  0.009  0.000  0.074  0.835  0.083
  0.000  0.004  0.768  0.013  0.215
  0.000  0.010  0.150  0.142  0.699
  0.991  0.000  0.001  0.007  0.001
    occupations:
  0.729 -0.004 -0.017  0.026 -0.001
 -0.004  0.985  0.000  0.000  0.027
 -0.017  0.000  0.986  0.003  0.000
  0.026  0.000  0.003  0.986  0.000
 -0.001  0.027  0.000  0.000  0.705
atom    9   Tr[ns(na)] =   8.77384
    eigenvalues: 
  0.725  0.733  0.967  0.974  0.989
    eigenvectors:
  0.000  0.134  0.001  0.013  0.852
  0.995  0.005  0.000  0.000  0.000
  0.000  0.010  0.043  0.940  0.007
  0.004  0.851  0.000  0.003  0.141
  0.000  0.000  0.956  0.043  0.000
    occupations:
  0.954 -0.001 -0.008 -0.087 -0.000
 -0.001  0.725  0.000  0.001 -0.003
 -0.008  0.000  0.972 -0.022  0.002
 -0.087  0.001 -0.022  0.770  0.000
 -0.000 -0.003  0.002  0.000  0.967
atom   10   Tr[ns(na)] =   8.87612
    eigenvalues: 
  0.666  0.809  0.985  0.987  0.990
    eigenvectors:
  0.000  0.975  0.000  0.015  0.010
  0.011  0.000  0.989  0.000  0.000
  0.000  0.001  0.000  0.199  0.800
  0.000  0.024  0.000  0.786  0.190
  0.989  0.000  0.011  0.000  0.000
    occupations:
  0.814  0.000 -0.007  0.027  0.000
  0.000  0.982 -0.000 -0.000 -0.034
 -0.007 -0.000  0.989 -0.000 -0.000
  0.027 -0.000 -0.000  0.983 -0.000
  0.000 -0.034 -0.000 -0.000  0.670
atom   16   Tr[ns(na)] =   8.79139
    eigenvalues: 
  0.703  0.722  0.988  0.989  0.992
    eigenvectors:
  0.066  0.105  0.812  0.010  0.007
  0.646  0.354  0.000  0.000  0.000
  0.001  0.003  0.015  0.000  0.981
  0.287  0.538  0.162  0.002  0.011
  0.000  0.000  0.011  0.988  0.000
    occupations:
  0.942 -0.008  0.006 -0.103 -0.001
 -0.008  0.710 -0.001 -0.007 -0.003
[...]

          k =-0.5000 0.2488 0.0000 ( 32052 PWs)   bands (ev):

   -54.4815 -54.4547 -54.4534 -54.4000 -54.3996 -54.3741 -54.3300 -54.3300
   -54.2903 -54.2897 -54.2485 -54.2472 -54.2164 -54.1355 -54.1348 -54.1115
   -54.1111 -54.0138 -54.0119 -53.9773 -53.9762 -53.5753 -53.3480 -52.9338
   -24.0040 -21.4353 -21.2175 -20.3395 -20.3337 -20.2023 -20.1799 -20.0089
   -19.9727 -19.9450 -19.8150 -19.7208 -19.6914 -19.5870 -19.5109 -19.4432
   -19.4293 -18.7470 -18.7000 -17.5284 -10.1393 -10.0339  -9.7781  -9.7740
    -9.6877  -9.6179  -9.5659  -9.5035  -9.4378  -9.3892  -9.3440  -9.2305
    -9.1662  -9.1129  -8.9669  -8.8226  -8.7119  -8.4964  -8.4542  -8.1943
    -8.0907  -7.7930  -7.7446  -7.6322  -7.5995  -7.5751  -7.5217  -7.4434
    -7.3989  -7.3323  -7.2863  -7.1960  -7.0705  -6.8953  -6.8770  -6.7786
    -6.6997  -6.6844  -6.4898  -6.4395  -6.3423  -6.1900  -5.9384  -5.8522
    -5.7916  -5.6976  -5.3551  -5.2836  -5.1803  -5.0785  -4.9526  -4.7236
    -4.6760  -4.6022  -4.5377  -3.8741  -3.8509  -3.7542  -3.6792  -3.5910
    -3.4603  -3.4333  -3.4301  -3.3529  -3.0260  -2.9581  -2.9476  -2.8469
    -2.6050  -2.5273  -2.4040  -2.3510  -2.2226  -2.1697  -2.1327  -2.0071
    -1.9890  -1.9595  -1.7585  -1.7254  -1.6073  -1.5722  -1.4371  -1.0262
    -0.0438   0.1050   0.2232   0.3055   0.4569   0.5292   0.8095   0.8759
     1.1116   1.2767   1.4189   1.5818   1.7407   2.0653   2.2052   3.4496
     4.3592   4.6642   4.6879   4.8202   5.2142   5.2966   5.5958   5.7408
     5.8819   5.9885   6.3467   6.3917   6.4767   6.5110   6.7715   6.8370
     6.9048   7.0574   7.1268   7.1464   7.4721   7.5296   7.6222   7.6420
     7.8380   7.9717   8.0601   8.1950   8.3716   8.3950   8.4800   8.6710
     8.8010   8.8588   9.0021   9.0164   9.3041   9.3267   9.5108   9.6136
     9.7141   9.7645   9.8003   9.8593   9.9217  10.1394  10.2061  10.2593
    10.3663  10.5224  10.5347  10.5883  10.7515  10.7737  10.9727  11.0746
    11.0950  11.1613  11.3742  11.4232  11.5743  11.6388  11.6622  11.7409
    11.8993  11.9694  12.1140  12.1499  12.1970  12.2267  12.3230  12.3791
    12.4443  12.4782  12.5891  12.6169  12.7259  12.7854  12.9129  12.9853
    13.1047  13.1212  13.1341  13.2270  13.3732  13.4134  13.4234  13.4422
    13.5619  13.6179  13.7459  13.7601  13.8665  13.8965  13.9977  14.0323
    14.1317  14.1705  14.2114  14.2274  14.2898  14.3157  14.3853  14.4667
    14.5007  14.5372  14.6028  14.6357  14.6969  14.7107  14.8150  14.9039
    15.0022  15.1069  15.1756  15.2441  15.3194  15.3747  15.4419  15.4762
    15.6066  15.7488  15.7709  15.8422  15.9187  15.9514  16.0248  16.0592
    16.2065  16.2523  16.2742  16.3310  16.3657  16.3944  16.5367  16.5773
    16.7261  16.7557  16.8200  16.8526  16.9356  17.0320  17.0876  17.1289
    17.2603  17.3284  17.3775  17.4673  17.5368  17.5749  17.6027  17.6434
    17.6770  17.7357  17.8023  17.8230  17.8900  17.9304  17.9895  18.0034
    18.0052  18.0254  18.0347  18.0953  18.1163  18.1561  18.1685  18.2018
    18.2636  18.3098  18.3287  18.3968  18.4654  18.6038  18.7250  18.7921
    18.8806  18.9451  18.9709  19.0071  19.0690  19.1014  19.1448  19.2091
    19.2847  19.3303  19.3529  19.3913  19.4959  19.5239  19.6147  19.7089
    19.7625  19.8309  19.9371  19.9675  20.0248  20.0948  20.2013  20.3280
    20.3925  20.4190  20.5887  20.6230  20.6757  20.7108  20.7544  20.9111
    20.9908  21.0354  21.1443  21.1954  21.2913  21.3207  21.3742  21.3945
    21.5652  21.5941  21.6270  21.6404  21.7883  21.8614  21.9127  21.9965
    22.0321  22.0816  22.1300  22.2168  22.3041  22.3421  22.4422  22.4998
    22.6036  22.6330  22.7265

          k =-0.5000-0.4976 0.0000 ( 31956 PWs)   bands (ev):

   -54.4814 -54.4544 -54.4531 -54.3997 -54.3994 -54.3741 -54.3301 -54.3301
   -54.2900 -54.2894 -54.2477 -54.2468 -54.2171 -54.1353 -54.1346 -54.1116
   -54.1112 -54.0138 -54.0118 -53.9774 -53.9763 -53.5751 -53.3477 -52.9338
   -24.0043 -21.4326 -21.2148 -20.1645 -20.1376 -20.0964 -20.0860 -20.0261
   -19.9614 -19.9401 -19.9074 -19.8433 -19.8013 -19.7673 -19.6498 -19.4559
   -19.4460 -18.7512 -18.7002 -17.5242 -10.1466 -10.0348  -9.6400  -9.6109
    -9.5303  -9.5111  -9.4696  -9.3648  -9.3282  -9.2529  -9.0724  -8.9804
    -8.9532  -8.8818  -8.7699  -8.7609  -8.6122  -8.5628  -8.5424  -8.5004
    -8.2940  -8.2443  -8.1749  -7.9030  -7.8414  -7.7281  -7.6193  -7.4709
    -7.4410  -7.3744  -7.2337  -7.1860  -7.0554  -6.8985  -6.8331  -6.8074
    -6.7291  -6.5640  -6.4916  -6.4441  -6.3203  -6.2941  -5.9921  -5.8995
    -5.8183  -5.7702  -5.6602  -5.4974  -5.4021  -5.3124  -4.9735  -4.7311
    -4.6401  -4.5484  -4.5258  -3.7261  -3.5421  -3.5293  -3.5028  -3.4081
    -3.3374  -3.3364  -3.3010  -3.1313  -2.9990  -2.9778  -2.8707  -2.8675
    -2.6931  -2.6726  -2.4321  -2.4180  -2.2408  -2.2015  -2.1421  -1.9879
    -1.9454  -1.9196  -1.8372  -1.7560  -1.7153  -1.6180  -1.4252  -1.0215
    -0.2055  -0.1858  -0.1168   0.1735   0.2608   0.5481   0.8951   0.9110
     1.1740   1.5989   1.6414   1.7187   1.8592   2.1422   2.2110   3.4540
     4.4963   5.0436   5.2120   5.2302   5.5843   5.5901   5.7824   5.7836
     5.8286   5.9588   6.1176   6.1557   6.1775   6.4005   6.4776   6.5392
     6.6556   6.6824   6.7469   6.8561   7.1299   7.2207   7.3432   7.4947
     7.5537   7.6317   7.7832   7.9093   8.1788   8.3150   8.5285   8.5829
     8.7195   8.7747   8.9398   9.0383   9.0493   9.1675   9.3935   9.6716
     9.8135   9.8358   9.8932  10.0064  10.0630  10.0938  10.3442  10.4519
    10.6685  10.6861  10.9088  11.0654  11.0994  11.1579  11.2881  11.6687
    11.7348  11.8969  12.1011  12.1222  12.1855  12.2547  12.2946  12.3617
    12.4261  12.5167  12.5413  12.6159  12.6945  12.7372  12.7662  12.8082
    12.8816  12.9521  13.0005  13.0450  13.0624  13.0717  13.1143  13.1385
    13.1611  13.1746  13.2492  13.2672  13.3072  13.3454  13.4254  13.4411
    13.4630  13.4902  13.5296  13.5460  13.5801  13.6245  13.6646  13.7262
    13.7468  13.7968  13.8440  13.9069  14.0334  14.0743  14.1533  14.1625
    14.2479  14.2841  14.3227  14.3644  14.4548  14.5634  14.6808  14.7752
    14.8027  14.8595  14.9474  14.9823  15.0155  15.0467  15.0894  15.1168
    15.1574  15.2758  15.3594  15.4265  15.4967  15.5121  15.5755  15.6059
    15.7790  15.8114  15.8972  16.0136  16.0513  16.1017  16.1152  16.2138
    16.2877  16.3482  16.5409  16.5606  16.6386  16.6600  16.6807  16.6902
    16.8001  16.8854  17.1037  17.1385  17.2197  17.2782  17.4866  17.5045
    17.5720  17.6945  17.8691  17.9513  17.9762  17.9871  17.9977  18.0202
    18.0500  18.0727  18.1084  18.1239  18.1501  18.1859  18.2482  18.3055
    18.4249  18.4504  18.4682  18.6205  18.6880  18.7697  18.7902  18.8901
    18.9301  19.0380  19.0671  19.1065  19.2041  19.3996  19.5054  19.5434
    19.5672  19.7433  19.7528  19.7799  19.8533  19.9262  19.9777  20.0203
    20.0598  20.0840  20.2351  20.2437  20.3222  20.3444  20.3883  20.4254
    20.4479  20.5726  20.6026  20.6451  20.6875  20.7275  20.8158  20.8626
    20.8773  20.9529  21.0097  21.0647  21.1062  21.1731  21.1947  21.2252
    21.2355  21.2633  21.3689  21.4114  21.4850  21.5527  21.5704  21.6655
    21.7316  21.7666  21.7839  21.8347  21.8861  21.9775  22.0175  22.0605
    22.1460  22.1670  22.3093

          k =-0.2500 0.2488 0.0000 ( 32025 PWs)   bands (ev):

   -54.4798 -54.4714 -54.4325 -54.4184 -54.3769 -54.3738 -54.3477 -54.3081
   -54.2919 -54.2876 -54.2493 -54.2457 -54.2164 -54.1370 -54.1328 -54.1134
   -54.1088 -54.0146 -54.0107 -53.9792 -53.9741 -53.5726 -53.3478 -52.9336
   -24.0039 -21.5043 -21.2441 -20.6126 -20.4833 -20.2378 -20.1914 -20.0889
   -19.9532 -19.8877 -19.7628 -19.7064 -19.6265 -19.5547 -19.4261 -19.3724
   -19.3251 -18.7384 -18.4848 -17.5276 -10.5986 -10.4470 -10.3587 -10.2332
    -9.9101  -9.8319  -9.8123  -9.6048  -9.5240  -9.2594  -9.1392  -9.0349
    -8.9743  -8.8383  -8.6782  -8.6451  -8.5662  -8.4648  -8.3598  -8.1479
    -8.0248  -7.8171  -7.8084  -7.6909  -7.6445  -7.5107  -7.3584  -7.3393
    -7.2638  -7.0788  -7.0445  -6.9951  -6.8785  -6.8427  -6.7464  -6.6170
    -6.5703  -6.5064  -6.4578  -6.3027  -6.2512  -6.0678  -5.9268  -5.7450
    -5.6022  -5.3850  -5.2000  -5.0639  -5.0251  -4.9684  -4.8610  -4.7608
    -4.7189  -4.5734  -4.4868  -4.3006  -4.2297  -4.0237  -3.8376  -3.7838
    -3.6952  -3.5739  -3.4936  -3.3926  -3.2577  -3.2190  -3.1355  -3.0168
    -2.8861  -2.8511  -2.5626  -2.5256  -2.3100  -2.1731  -2.0794  -1.9809
    -1.9193  -1.8724  -1.8246  -1.7043  -1.4321  -1.3318  -1.2576  -1.1356
    -0.5090  -0.2905  -0.1707   0.2884   0.4490   0.8029   1.0077   1.2840
     1.3736   1.5120   1.5824   1.8629   1.9932   2.0593   2.3293   3.3958
     3.8062   4.0409   4.5540   4.8804   5.0839   5.5352   5.7518   5.7945
     5.9710   6.1342   6.2640   6.4379   6.5116   6.7488   6.8675   6.9654
     7.0215   7.1591   7.3012   7.4664   7.6066   7.6736   7.7845   7.8813
     7.9638   8.0899   8.1981   8.2610   8.4286   8.4992   8.6273   8.7048
     8.8106   8.8361   8.9865   9.0312   9.1522   9.2328   9.3595   9.4313
     9.5272   9.5941   9.7018   9.7517   9.8812   9.9770  10.0098  10.1358
    10.2024  10.2992  10.3945  10.4695  10.5644  10.6484  10.7190  10.8015
    10.9421  11.0200  11.0782  11.1997  11.3178  11.3484  11.4581  11.5415
    11.6203  11.7355  11.7974  11.8655  11.9512  12.0484  12.0943  12.1611
    12.2175  12.3075  12.3841  12.4370  12.5836  12.6508  12.7337  12.8218
    12.8833  12.9288  13.0020  13.0865  13.2359  13.3072  13.3584  13.4698
    13.5553  13.6520  13.6744  13.7267  13.8236  13.8585  13.9711  14.0385
    14.1163  14.1670  14.2795  14.4258  14.4336  14.5092  14.6173  14.7265
    14.7768  14.8540  14.9563  14.9853  15.0541  15.1574  15.1976  15.2969
    15.3213  15.3459  15.3766  15.4247  15.5164  15.5728  15.6453  15.6584
    15.7798  15.8574  15.8867  15.9425  15.9898  16.0817  16.1395  16.1750
    16.2410  16.2834  16.3426  16.4299  16.5281  16.6081  16.7430  16.7773
    16.8288  16.9312  16.9837  17.0372  17.0624  17.1541  17.2012  17.2455
    17.3330  17.3545  17.4020  17.4605  17.4871  17.6018  17.6124  17.7078
    17.7536  17.8638  17.9082  17.9516  17.9804  18.0032  18.0201  18.0314
    18.0504  18.0873  18.1263  18.1369  18.1617  18.2859  18.3622  18.3953
    18.4088  18.5052  18.5613  18.6117  18.7061  18.7524  18.8683  18.9554
    18.9665  19.0405  19.1078  19.1275  19.1540  19.2290  19.3127  19.3884
    19.4549  19.5707  19.6272  19.6538  19.7178  19.8514  19.9808  20.0337
    20.1021  20.1675  20.2038  20.2465  20.2880  20.3332  20.3732  20.4384
    20.5430  20.5923  20.6358  20.7044  20.7378  20.8200  20.8286  20.8655
    20.9467  20.9895  21.0466  21.1222  21.1629  21.2358  21.3217  21.3510
    21.4106  21.5015  21.5218  21.5749  21.6214  21.6901  21.7739  21.8806
    21.9473  21.9959  22.0713  22.1447  22.1845  22.2588  22.3138  22.3339
    22.4559  22.4925  22.5216

     the Fermi energy is    -1.2464 ev

!    total energy              =   -2312.41629104 Ry
     Harris-Foulkes estimate   =   -2312.41629104 Ry
     estimated scf accuracy    <          1.2E-09 Ry

     The total energy is the sum of the following terms:

     one-electron contribution =  -24128.35359763 Ry
     hartree contribution      =   12116.47344809 Ry
     xc contribution           =    -580.07119630 Ry
     ewald contribution        =   10277.82967972 Ry
     Hubbard energy            =       1.70542160 Ry
     smearing contrib. (-TS)   =      -0.00004652 Ry

     convergence has been achieved in  15 iterations

     Forces acting on atoms (Ry/au):


     negative rho (up, down):  0.157E+01 0.000E+00
     atom    1 type  1   force =    -0.00711168   -0.00315008    0.00001596
     atom    2 type  1   force =     0.00010925    0.00463559    0.00068974
     atom    3 type  2   force =     0.00707580    0.00538439   -0.00003324
     atom    4 type  2   force =     0.00939451    0.00372336    0.00015859
     atom    5 type  1   force =     0.00112673   -0.00335189    0.00050174
     atom    6 type  1   force =     0.00012903   -0.00299284    0.00025648
     atom    7 type  1   force =     0.00011567   -0.00057115   -0.00054027
     atom    8 type  1   force =    -0.00395222   -0.00000705    0.00022395
     atom    9 type  2   force =     0.00650858    0.00376367    0.00014553
     atom   10 type  2   force =    -0.00006918   -0.02334881    0.00061240
     atom   11 type  1   force =    -0.00040336    0.00261046   -0.00043248
     atom   12 type  1   force =    -0.01217039    0.01033422   -0.00031749
     atom   13 type  1   force =    -0.00109169   -0.00763885   -0.00015064
     atom   14 type  1   force =    -0.00738798   -0.00291482   -0.00006708
     atom   15 type  1   force =     0.00012484    0.00115418    0.00024299
     atom   16 type  2   force =    -0.00795207    0.00549229   -0.00002823
     atom   17 type  2   force =     0.00932585    0.00528186    0.00007619
     atom   18 type  1   force =     0.00135677   -0.00337542    0.00050133
     atom   19 type  1   force =     0.00007866   -0.00294402    0.00026735
     atom   20 type  1   force =    -0.00002647   -0.00381803   -0.00036095
     atom   21 type  1   force =    -0.00383728    0.00243583    0.00018679
     atom   22 type  2   force =    -0.00303559    0.00369478    0.00014600
     atom   23 type  2   force =     0.00012093    0.00869890   -0.00000692
     atom   24 type  1   force =     0.00048527    0.00267494   -0.00043519
     atom   25 type  1   force =     0.01223219    0.01036471   -0.00031101
     atom   26 type  1   force =    -0.00101932   -0.01641435   -0.00007585
     atom   27 type  3   force =     0.00000108   -0.00039973    0.00013184
     atom   28 type  3   force =    -0.00000295   -0.00011902    0.00012806
     atom   29 type  3   force =    -0.00008567   -0.00006963   -0.00039834
     atom   30 type  3   force =    -0.00001818   -0.00012575   -0.00030331
     atom   31 type  1   force =     0.00002642    0.00050187   -0.00042469
     atom   32 type  1   force =    -0.00006873    0.00003870   -0.00024858
     atom   33 type  3   force =     0.00002120    0.00045170   -0.00015067

     Total force =     0.001989     Total SCF correction =     0.000147


     entering subroutine stress ...


     negative rho (up, down):  0.157E+01 0.000E+00
          total   stress  (Ry/bohr**3)                   (kbar)     P=  -21.33
  -0.00023126   0.00000010   0.00000364        -34.02      0.01      0.53
   0.00000010  -0.00015007  -0.00000762          0.01    -22.08     -1.12
   0.00000364  -0.00000762  -0.00005365          0.53     -1.12     -7.89


     bfgs converged in  10 scf cycles and   9 bfgs steps
     (criteria: energy < 0.10E-03, force < 0.10E-02)

     End of BFGS Geometry Optimization

     Final energy   =   -2312.4162910381 Ry
Begin final coordinates

ATOMIC_POSITIONS (crystal)
O0       0.000000000   0.000000000   0.377569582    0   0   1
O0       0.000000000   0.500000000   0.401669786    0   0   1
Pt1      0.250000000   0.500000000   0.451214336    0   0   1
Pt1      0.000000000   0.000000000   0.452689589    0   0   1
O0       0.250000000   0.810000000   0.442299365    0   0   1
O0       0.250000000   0.190000000   0.461132527    0   0   1
O0       0.000000000   0.500000000   0.496548399    0   0   1
O0       0.000000000   0.000000000   0.529751211    0   0   1
Pt1      0.250000000   0.000000000   0.575735479    0   0   1
Pt1      0.000000000   0.500000000   0.575511134    0   0   1
O0       0.250000000   0.690000000   0.565876997    0   0   1
O0       0.250000000   0.310000000   0.587032515    0   0   1
O0       0.000000000   0.000000000   0.621444966    0   0   1
O0       0.500000000   0.000000000   0.377441901    0   0   1
O0       0.500000000   0.500000000   0.401081742    0   0   1
Pt1      0.750000000   0.500000000   0.451217938    0   0   1
Pt1      0.500000000   0.000000000   0.452546488    0   0   1
O0       0.750000000   0.810000000   0.442309680    0   0   1
O0       0.750000000   0.190000000   0.461117612    0   0   1
O0       0.500000000   0.500000000   0.498104186    0   0   1
O0       0.500000000   0.000000000   0.529533393    0   0   1
Pt1      0.750000000   0.000000000   0.575732607    0   0   1
Pt1      0.500000000   0.500000000   0.575916923    0   0   1
O0       0.750000000   0.690000000   0.565852677    0   0   1
O0       0.750000000   0.310000000   0.587018117    0   0   1
O0       0.500000000   0.000000000   0.620988317    0   0   1
H2       0.000026669   0.641519902   0.386784400
H2       0.500059335   0.641543358   0.386341866
H2       0.144013132   0.033984369   0.368093397
H2       0.643632955   0.035261577   0.367920944
O0       0.500223696   0.556780835   0.649017990
O0       0.499794572   0.368704615   0.677418155
H2       0.500024679   0.428124217   0.711815781
End final coordinates



     init_run     :    110.64s CPU    113.72s WALL (       1 calls)
     electrons    :  38630.25s CPU  41192.54s WALL (      10 calls)
     update_pot   :    191.79s CPU    195.58s WALL (       9 calls)
     forces       :   1457.49s CPU   1566.73s WALL (      10 calls)
     stress       :   7353.05s CPU   7685.24s WALL (      10 calls)

     Called by init_run:
     wfcinit      :     40.98s CPU     42.85s WALL (       1 calls)
     potinit      :      7.70s CPU      7.78s WALL (       1 calls)

     Called by electrons:
     c_bands      :  20256.88s CPU  20810.82s WALL (     190 calls)
     sum_band     :   7287.91s CPU   7619.11s WALL (     190 calls)
     v_of_rho     :    212.75s CPU    223.76s WALL (     197 calls)
     newd         :   9650.05s CPU   9712.35s WALL (     197 calls)
     mix_rho      :     39.13s CPU     40.04s WALL (     190 calls)

     Called by c_bands:
     init_us_2    :     57.25s CPU     58.12s WALL (    1533 calls)
     cegterg      :  19954.49s CPU  20400.08s WALL (     570 calls)

     Called by *egterg:
     h_psi        :  11303.34s CPU  11550.66s WALL (    1564 calls)
     s_psi        :   1434.76s CPU   1451.41s WALL (    1894 calls)
     g_psi        :     24.81s CPU     24.82s WALL (     991 calls)
     cdiaghg      :   1851.36s CPU   1855.18s WALL (    1525 calls)

     Called by h_psi:
     add_vuspsi   :   1141.28s CPU   1155.75s WALL (    1564 calls)
     vhpsi        :   1199.44s CPU   1209.52s WALL (    1564 calls)

     General routines
     calbec       :   3339.11s CPU   3382.03s WALL (   14138 calls)
     fft          :    264.59s CPU    302.52s WALL (    3383 calls)
     ffts         :      3.53s CPU      3.60s WALL (     387 calls)
     fftw         :   6412.87s CPU   6686.24s WALL ( 1123810 calls)
     interpolate  :     33.30s CPU     33.70s WALL (     387 calls)
     davcio       :      0.15s CPU     28.47s WALL (    1803 calls)

     Parallel routines
     fft_scatter  :   2310.20s CPU   2605.34s WALL ( 1127580 calls)
     Hubbard U routines
     new_ns       :    262.79s CPU    275.53s WALL (     190 calls)
     vhpsi        :   1199.44s CPU   1209.52s WALL (    1564 calls)
     force_hub    :    404.82s CPU    418.61s WALL (      10 calls)
     stres_hub    :   3932.98s CPU   4008.10s WALL (      10 calls)

     PWSCF        :    13h25m CPU       14h16m WALL


   This run was terminated on:  22: 7:30  31May2014            

=------------------------------------------------------------------------------=
   JOB DONE.
=------------------------------------------------------------------------------=
---------------------------------------
Running PBS batch system epilogue script
Job id: 373320.audhumbla.fysik.dtu.dk
Username: zhonxu
Groupname: campgst
Jobname: PtO2/Eads-2-layers/OOH-U-6.5
Sessionid: 32351
Resources limits: neednodes=2:ppn=8:xeon8,nodes=2:ppn=8:xeon8,walltime=48:00:00
Resources used: cput=228:06:52,mem=19234152kb,vmem=22943824kb,walltime=14:16:04
Queuename: verylong
Accounting:
This job has allocated the following 16 nodes:
b132 b132 b132 b132 b132 b132 b132 b132 b105 b105 b105 b105 b105 b105 b105 b105
Finished epilogue job 373320.audhumbla.fysik.dtu.dk for zhonxu
