
     Program PWSCF v.5.0.2 (svn rev. 9656) starts on 15May2014 at 14:38:16 

     This program is part of the open-source Quantum ESPRESSO suite
     for quantum simulation of materials; please cite
         "P. Giannozzi et al., J. Phys.:Condens. Matter 21 395502 (2009);
          URL http://www.quantum-espresso.org", 
     in publications or presentations arising from this work. More details at
     http://www.quantum-espresso.org/quote.php

     Parallel version (MPI), running on    16 processors
     K-points division:     npool     =       4
     R & G space division:  proc/nbgrp/npool/nimage =       4

     Current dimensions of program PWSCF are:
     Max number of different atomic species (ntypx) = 10
     Max number of k-points (npk) =  40000
     Max angular momentum in pseudopotentials (lmaxx) =  3
     Reading input from pwscf.in
Warning: card &CELL ignored
Warning: card / ignored

     Subspace diagonalization in iterative solution of the eigenvalue problem:
     a serial algorithm will be used


     Parallelization info
     --------------------
     sticks:   dense  smooth     PW     G-vecs:    dense   smooth      PW
     Min        1333     428    119               322637    58444    8739
     Max        1334     429    120               322642    58462    8748
     Sum        5335    1713    477              1290557   233813   34969



     bravais-lattice index     =            0
     lattice parameter (alat)  =      10.1289  a.u.
     unit-cell volume          =    6836.7721 (a.u.)^3
     number of atoms/cell      =           30
     number of atomic types    =            3
     number of electrons       =       232.00
     number of Kohn-Sham states=          348
     kinetic-energy cutoff     =      40.0000  Ry
     charge density cutoff     =     500.0000  Ry
     convergence threshold     =      1.0E-06
     mixing beta               =       0.3000
     number of iterations used =            8  plain     mixing
     Exchange-correlation      = SLA  PW   PBE  PBE ( 1 4 3 4 0)
     EXX-fraction              =        0.00
     nstep                     =           50


     celldm(1)=  10.128932  celldm(2)=   0.000000  celldm(3)=   0.000000
     celldm(4)=   0.000000  celldm(5)=   0.000000  celldm(6)=   0.000000

     crystal axes: (cart. coord. in units of alat)
               a(1) = (   1.000000   0.000000   0.000000 )  
               a(2) = (   0.000000   1.306037   0.000000 )  
               a(3) = (   0.000000   0.000000   5.037380 )  

     reciprocal axes: (cart. coord. in units 2 pi/alat)
               b(1) = (  1.000000  0.000000  0.000000 )  
               b(2) = (  0.000000  0.765675  0.000000 )  
               b(3) = (  0.000000  0.000000  0.198516 )  


     PseudoPot. # 1 for O  read from file:
     /home/camp/zhonxu/pseudo/o_pbe_v1.01.uspp.F.UPF
     MD5 check sum: 2bcb18d16ea4b960afae9ec6d52f22d2
     Pseudo is Ultrasoft + core correction, Zval =  6.0
     Generated by new atomic code, or converted to UPF format
     Using radial grid of  737 points,  5 beta functions with: 
                l(1) =   0
                l(2) =   0
                l(3) =   1
                l(4) =   1
                l(5) =   2
     Q(r) pseudized with  8 coefficients,  rinner =    0.900   0.900   0.900
                                                       0.900   0.900

     PseudoPot. # 2 for Re read from file:
     /home/camp/zhonxu/pseudo/re_pbe_v1.uspp.F.UPF
     MD5 check sum: 6f5a5dcaf9c96c20d0ffdde0de57afc6
     Pseudo is Ultrasoft + core correction, Zval = 15.0
     Generated by new atomic code, or converted to UPF format
     Using radial grid of  981 points,  8 beta functions with: 
                l(1) =   0
                l(2) =   0
                l(3) =   1
                l(4) =   1
                l(5) =   2
                l(6) =   2
                l(7) =   3
                l(8) =   3
     Q(r) pseudized with  8 coefficients,  rinner =    1.000   1.000   1.000
                                                       1.000   1.000   1.000
                                                       1.000

     PseudoPot. # 3 for H  read from file:
     /home/camp/zhonxu/pseudo/h_pbe_v1.uspp.F.UPF
     MD5 check sum: 3408e3ff4ec8b0a4e358431e7e038a48
     Pseudo is Ultrasoft, Zval =  1.0
     Generated by new atomic code, or converted to UPF format
     Using radial grid of  615 points,  2 beta functions with: 
                l(1) =   0
                l(2) =   0
     Q(r) pseudized with  8 coefficients,  rinner =    0.700

     atomic species   valence    mass     pseudopotential
        O0             6.00    15.99940     O ( 1.00)
        Re1           15.00   186.20700     Re( 1.00)
        H2             1.00     1.00794     H ( 1.00)


     Simplified LDA+U calculation (l_max = 2) with parameters (eV):
     atomic species    L          U    alpha       J0     beta
        Re1            2     5.0000   0.0000   0.0000   0.0000



     No symmetry found



   Cartesian axes

     site n.     atom                  positions (alat units)
         1           O0  tau(   1) = (   0.0000000   0.0000000   1.8688176  )
         2           O0  tau(   2) = (   0.0000000   0.6530184   1.9243296  )
         3           Re1 tau(   3) = (   0.2500000   0.6530184   2.2228951  )
         4           Re1 tau(   4) = (   0.0000000   0.0000000   2.2352367  )
         5           O0  tau(   5) = (   0.2500000   1.0187087   2.2249100  )
         6           O0  tau(   6) = (   0.2500000   0.2873281   2.2250611  )
         7           O0  tau(   7) = (   0.0000000   0.6530184   2.5071041  )
         8           O0  tau(   8) = (   0.0000000   0.0000000   2.5966183  )
         9           Re1 tau(   9) = (   0.2500000   0.0000000   2.8989619  )
        10           Re1 tau(  10) = (   0.0000000   0.6530184   2.8608793  )
        11           O0  tau(  11) = (   0.2500000   0.9403465   2.8908013  )
        12           O0  tau(  12) = (   0.2500000   0.3656903   2.8907005  )
        13           O0  tau(  13) = (   0.0000000   0.0000000   3.1620138  )
        14           O0  tau(  14) = (   0.5000000   0.0000000   1.8688176  )
        15           O0  tau(  15) = (   0.5000000   0.6530184   1.9243296  )
        16           Re1 tau(  16) = (   0.7500000   0.6530184   2.2228951  )
        17           Re1 tau(  17) = (   0.5000000   0.0000000   2.2352367  )
        18           O0  tau(  18) = (   0.7500000   1.0187087   2.2249604  )
        19           O0  tau(  19) = (   0.7500000   0.2873281   2.2250611  )
        20           O0  tau(  20) = (   0.5000000   0.6530184   2.5071041  )
        21           O0  tau(  21) = (   0.5000000   0.0000000   2.5966183  )
        22           Re1 tau(  22) = (   0.7500000   0.0000000   2.8989619  )
        23           Re1 tau(  23) = (   0.5000000   0.6530184   2.8609296  )
        24           O0  tau(  24) = (   0.7500000   0.9403465   2.8908013  )
        25           O0  tau(  25) = (   0.7500000   0.3656903   2.8907005  )
        26           O0  tau(  26) = (   0.5000000   0.0000000   3.1620138  )
        27           H2  tau(  27) = (  -0.0003800   0.8172395   1.8403061  )
        28           H2  tau(  28) = (   0.4996200   0.8172395   1.8403061  )
        29           H2  tau(  29) = (   0.1698700   0.0284977   1.7974380  )
        30           H2  tau(  30) = (   0.6698800   0.0284977   1.7974380  )

     number of k points=    10  Methfessel-Paxton smearing, width (Ry)=  0.0100
                       cart. coord. in units 2pi/alat
        k(    1) = (   0.0000000   0.0000000   0.0000000), wk =   0.1250000
        k(    2) = (   0.0000000   0.1914188   0.0000000), wk =   0.2500000
        k(    3) = (   0.0000000  -0.3828376   0.0000000), wk =   0.1250000
        k(    4) = (   0.2500000   0.0000000   0.0000000), wk =   0.2500000
        k(    5) = (   0.2500000   0.1914188   0.0000000), wk =   0.2500000
        k(    6) = (   0.2500000  -0.3828376   0.0000000), wk =   0.2500000
        k(    7) = (  -0.5000000   0.0000000   0.0000000), wk =   0.1250000
        k(    8) = (  -0.5000000   0.1914188   0.0000000), wk =   0.2500000
        k(    9) = (  -0.5000000  -0.3828376   0.0000000), wk =   0.1250000
        k(   10) = (  -0.2500000   0.1914188   0.0000000), wk =   0.2500000

     Dense  grid:  1290557 G-vectors     FFT dimensions: (  75,  96, 375)

     Smooth grid:   233813 G-vectors     FFT dimensions: (  45,  54, 216)

     Largest allocated arrays     est. size (Mb)     dimensions
        Kohn-Sham Wavefunctions        39.11 Mb     (   7365,  348)
        Atomic wavefunctions           20.23 Mb     (   7365,  180)
        NL pseudopotentials            55.97 Mb     (   7365,  498)
        Each V/rho on FFT grid         10.33 Mb     ( 676800)
        Each G-vector array             2.46 Mb     ( 322642)
        G-vector shells                 1.07 Mb     ( 139625)
     Largest temporary arrays     est. size (Mb)     dimensions
        Auxiliary wavefunctions       156.43 Mb     (   7365, 1392)
        Each subspace H/S matrix       29.57 Mb     (1392,1392)
        Each <psi_i|beta_j> matrix      2.64 Mb     (    498,  348)
        Arrays for rho mixing          82.62 Mb     ( 676800,   8)

     Check: negative/imaginary core charge=   -0.000003    0.000000

     Initial potential from superposition of free atoms
     Check: negative starting charge=   -0.237311

     starting charge  227.99958, renormalised to  232.00000

     negative rho (up, down):  0.241E+00 0.000E+00
     Number of +U iterations with fixed ns =  0
     Starting occupations:
 --- enter write_ns ---
 LDA+U parameters:
U( 2)     =  5.00000000
alpha( 2) =  0.00000000
atom    3   Tr[ns(na)] =   5.00000
    eigenvalues: 
  0.500  0.500  0.500  0.500  0.500
    eigenvectors:
  1.000  0.000  0.000  0.000  0.000
  0.000  1.000  0.000  0.000  0.000
  0.000  0.000  1.000  0.000  0.000
  0.000  0.000  0.000  1.000  0.000
  0.000  0.000  0.000  0.000  1.000
    occupations:
  0.500  0.000  0.000  0.000  0.000
  0.000  0.500  0.000  0.000  0.000
  0.000  0.000  0.500  0.000  0.000
  0.000  0.000  0.000  0.500  0.000
  0.000  0.000  0.000  0.000  0.500
atom    4   Tr[ns(na)] =   5.00000
    eigenvalues: 
  0.500  0.500  0.500  0.500  0.500
    eigenvectors:
  1.000  0.000  0.000  0.000  0.000
  0.000  1.000  0.000  0.000  0.000
  0.000  0.000  1.000  0.000  0.000
  0.000  0.000  0.000  1.000  0.000
  0.000  0.000  0.000  0.000  1.000
    occupations:
  0.500  0.000  0.000  0.000  0.000
  0.000  0.500  0.000  0.000  0.000
  0.000  0.000  0.500  0.000  0.000
  0.000  0.000  0.000  0.500  0.000
  0.000  0.000  0.000  0.000  0.500
atom    9   Tr[ns(na)] =   5.00000
    eigenvalues: 
  0.500  0.500  0.500  0.500  0.500
    eigenvectors:
  1.000  0.000  0.000  0.000  0.000
  0.000  1.000  0.000  0.000  0.000
  0.000  0.000  1.000  0.000  0.000
  0.000  0.000  0.000  1.000  0.000
  0.000  0.000  0.000  0.000  1.000
    occupations:
  0.500  0.000  0.000  0.000  0.000
  0.000  0.500  0.000  0.000  0.000
  0.000  0.000  0.500  0.000  0.000
  0.000  0.000  0.000  0.500  0.000
  0.000  0.000  0.000  0.000  0.500
atom   10   Tr[ns(na)] =   5.00000
    eigenvalues: 
  0.500  0.500  0.500  0.500  0.500
    eigenvectors:
  1.000  0.000  0.000  0.000  0.000
  0.000  1.000  0.000  0.000  0.000
  0.000  0.000  1.000  0.000  0.000
  0.000  0.000  0.000  1.000  0.000
  0.000  0.000  0.000  0.000  1.000
    occupations:
  0.500  0.000  0.000  0.000  0.000
  0.000  0.500  0.000  0.000  0.000
  0.000  0.000  0.500  0.000  0.000
  0.000  0.000  0.000  0.500  0.000
  0.000  0.000  0.000  0.000  0.500
atom   16   Tr[ns(na)] =   5.00000
    eigenvalues: 
  0.500  0.500  0.500  0.500  0.500
    eigenvectors:
  1.000  0.000  0.000  0.000  0.000
  0.000  1.000  0.000  0.000  0.000
  0.000  0.000  1.000  0.000  0.000
  0.000  0.000  0.000  1.000  0.000
  0.000  0.000  0.000  0.000  1.000
    occupations:
  0.500  0.000  0.000  0.000  0.000
  0.000  0.500  0.000  0.000  0.000
  0.000  0.000  0.500  0.000  0.000
  0.000  0.000  0.000  0.500  0.000
  0.000  0.000  0.000  0.000  0.500
atom   17   Tr[ns(na)] =   5.00000
    eigenvalues: 
  0.500  0.500  0.500  0.500  0.500
    eigenvectors:
  1.000  0.000  0.000  0.000  0.000
  0.000  1.000  0.000  0.000  0.000
  0.000  0.000  1.000  0.000  0.000
  0.000  0.000  0.000  1.000  0.000
  0.000  0.000  0.000  0.000  1.000
    occupations:
  0.500  0.000  0.000  0.000  0.000
  0.000  0.500  0.000  0.000  0.000
  0.000  0.000  0.500  0.000  0.000
  0.000  0.000  0.000  0.500  0.000
  0.000  0.000  0.000  0.000  0.500
atom   22   Tr[ns(na)] =   5.00000
    eigenvalues: 
  0.500  0.500  0.500  0.500  0.500
    eigenvectors:
  1.000  0.000  0.000  0.000  0.000
  0.000  1.000  0.000  0.000  0.000
  0.000  0.000  1.000  0.000  0.000
  0.000  0.000  0.000  1.000  0.000
  0.000  0.000  0.000  0.000  1.000
    occupations:
  0.500  0.000  0.000  0.000  0.000
  0.000  0.500  0.000  0.000  0.000
  0.000  0.000  0.500  0.000  0.000
  0.000  0.000  0.000  0.500  0.000
  0.000  0.000  0.000  0.000  0.500
atom   23   Tr[ns(na)] =   5.00000
    eigenvalues: 
  0.500  0.500  0.500  0.500  0.500
    eigenvectors:
  1.000  0.000  0.000  0.000  0.000
  0.000  1.000  0.000  0.000  0.000
  0.000  0.000  1.000  0.000  0.000
  0.000  0.000  0.000  1.000  0.000
  0.000  0.000  0.000  0.000  1.000
    occupations:
  0.500  0.000  0.000  0.000  0.000
  0.000  0.500  0.000  0.000  0.000
  0.000  0.000  0.500  0.000  0.000
  0.000  0.000  0.000  0.500  0.000
  0.000  0.000  0.000  0.000  0.500
N of occupied +U levels =  40.0000000
 --- exit write_ns ---
 Atomic wfc used for LDA+U Projector are NOT orthogonalized
     Starting wfc are  180 randomized atomic wfcs

     total cpu time spent up to now is      150.0 secs

     per-process dynamical memory:   413.0 Mb

     Self-consistent Calculation

     iteration #  1     ecut=    40.00 Ry     beta=0.30
     Davidson diagonalization with overlap
     ethr =  1.00E-02,  avg # of iterations =  5.7
 --- enter write_ns ---
 LDA+U parameters:
U( 2)     =  5.00000000
alpha( 2) =  0.00000000
atom    3   Tr[ns(na)] =   4.93051
    eigenvalues: 
  0.345  0.457  0.493  0.503  0.668
    eigenvectors:
  0.003  0.000  0.502  0.000  0.495
  0.000  0.996  0.000  0.004  0.000
  0.997  0.000  0.001  0.000  0.002
  0.000  0.000  0.497  0.000  0.503
  0.000  0.004  0.000  0.996  0.000
    occupations:
  0.579  0.000  0.013 -0.087  0.000
  0.000  0.457 -0.000 -0.000  0.003
  0.013 -0.000  0.345 -0.006 -0.000
 -0.087 -0.000 -0.006  0.581 -0.000
  0.000  0.003 -0.000 -0.000  0.503
atom    4   Tr[ns(na)] =   5.01473
    eigenvalues: 
  0.334  0.453  0.508  0.521  0.692
    eigenvectors:
  0.000  0.000  0.806  0.150  0.044
  0.000  0.000  0.158  0.842  0.000
  1.000  0.000  0.000  0.000  0.000
  0.000  0.000  0.036  0.008  0.956
  0.000  1.000  0.000  0.000  0.000
    occupations:
  0.518  0.005  0.002 -0.037  0.000
  0.005  0.519  0.000 -0.000 -0.000
  0.002  0.000  0.334 -0.001  0.000
 -0.037 -0.000 -0.001  0.684  0.000
  0.000 -0.000  0.000  0.000  0.453
atom    9   Tr[ns(na)] =   6.36076
    eigenvalues: 
  0.506  0.507  0.632  0.741  0.794
    eigenvectors:
  0.028  0.341  0.000  0.631  0.000
  0.924  0.076  0.000  0.000  0.000
  0.000  0.000  1.000  0.000  0.000
  0.048  0.584  0.000  0.369  0.000
  0.000  0.000  0.000  0.000  1.000
    occupations:
  0.654  0.000 -0.000 -0.113  0.000
  0.000  0.506 -0.000  0.000 -0.000
 -0.000 -0.000  0.632  0.000 -0.000
 -0.113  0.000  0.000  0.593 -0.000
  0.000 -0.000 -0.000 -0.000  0.794
atom   10   Tr[ns(na)] =   6.64020
    eigenvalues: 
  0.476  0.478  0.732  0.806  0.828
    eigenvectors:
  0.000  0.977  0.023  0.000  0.000
  0.000  0.000  0.000  1.000  0.000
  0.000  0.000  0.000  0.000  1.000
  0.000  0.023  0.977  0.000  0.000
  1.000  0.000  0.000  0.000  0.000
    occupations:
  0.484 -0.000  0.000 -0.038  0.000
 -0.000  0.806  0.000  0.000 -0.000
  0.000  0.000  0.828 -0.000  0.000
 -0.038  0.000 -0.000  0.726  0.000
  0.000 -0.000  0.000  0.000  0.476
atom   16   Tr[ns(na)] =   4.93049
    eigenvalues: 
  0.345  0.457  0.493  0.503  0.668
    eigenvectors:
  0.003  0.000  0.502  0.000  0.495
  0.000  0.996  0.000  0.004  0.000
  0.997  0.000  0.001  0.000  0.002
  0.000  0.000  0.497  0.000  0.503
  0.000  0.004  0.000  0.996  0.000
    occupations:
  0.579  0.000  0.013 -0.087  0.000
  0.000  0.457 -0.000  0.000  0.003
  0.013 -0.000  0.345 -0.006 -0.000
 -0.087  0.000 -0.006  0.581 -0.000
  0.000  0.003 -0.000 -0.000  0.503
atom   17   Tr[ns(na)] =   5.01478
    eigenvalues: 
  0.334  0.453  0.508  0.521  0.692
    eigenvectors:
  0.000  0.000  0.806  0.150  0.044
  0.000  0.000  0.158  0.842  0.000
  1.000  0.000  0.000  0.000  0.000
  0.000  0.000  0.036  0.008  0.956
  0.000  1.000  0.000  0.000  0.000
    occupations:
  0.518  0.005  0.002 -0.037  0.000
  0.005  0.519  0.001 -0.000 -0.000
  0.002  0.001  0.334 -0.001  0.000
 -0.037 -0.000 -0.001  0.684  0.000
  0.000 -0.000  0.000  0.000  0.453
atom   22   Tr[ns(na)] =   6.36076
    eigenvalues: 
  0.506  0.507  0.632  0.741  0.794
    eigenvectors:
  0.028  0.340  0.000  0.631  0.000
  0.924  0.076  0.000  0.000  0.000
  0.000  0.000  1.000  0.000  0.000
  0.048  0.583  0.000  0.369  0.000
  0.000  0.000  0.000  0.000  1.000
    occupations:
  0.654  0.000 -0.000 -0.113  0.000
  0.000  0.506 -0.000  0.000 -0.000
 -0.000 -0.000  0.632  0.000  0.000
 -0.113  0.000  0.000  0.593 -0.000
  0.000 -0.000  0.000 -0.000  0.794
atom   23   Tr[ns(na)] =   6.64060
    eigenvalues: 
  0.476  0.478  0.732  0.806  0.828
    eigenvectors:
  0.000  0.977  0.023  0.000  0.000
  0.000  0.000  0.000  1.000  0.000
  0.000  0.000  0.000  0.000  1.000
  0.000  0.023  0.977  0.000  0.000
  1.000  0.000  0.000  0.000  0.000
    occupations:
  0.484 -0.000  0.000 -0.038  0.000
 -0.000  0.806  0.000  0.000 -0.000
  0.000  0.000  0.828 -0.000  0.000
 -0.038  0.000 -0.000  0.726  0.000
  0.000 -0.000  0.000  0.000  0.476
N of occupied +U levels =  45.8928358
 --- exit write_ns ---

     negative rho (up, down):  0.258E+00 0.000E+00

     total cpu time spent up to now is      533.5 secs

     total energy              =   -2133.97094745 Ry
     Harris-Foulkes estimate   =   -2141.14066085 Ry
     estimated scf accuracy    <      15.76369147 Ry

     iteration #  2     ecut=    40.00 Ry     beta=0.30
     Davidson diagonalization with overlap
     ethr =  6.79E-03,  avg # of iterations =  4.0

     negative rho (up, down):  0.256E+00 0.000E+00

     total cpu time spent up to now is      794.0 secs

     total energy              =   -2114.21109768 Ry
     Harris-Foulkes estimate   =   -2161.55458072 Ry
     estimated scf accuracy    <     717.53489859 Ry

     iteration #  3     ecut=    40.00 Ry     beta=0.30
     Davidson diagonalization with overlap
     ethr =  6.79E-03,  avg # of iterations =  3.9

     negative rho (up, down):  0.247E+00 0.000E+00

     total cpu time spent up to now is     1051.6 secs

     total energy              =   -2139.43988844 Ry
     Harris-Foulkes estimate   =   -2140.16203816 Ry
     estimated scf accuracy    <      11.12123078 Ry

     iteration #  4     ecut=    40.00 Ry     beta=0.30
     Davidson diagonalization with overlap
     ethr =  4.79E-03,  avg # of iterations =  1.2

     negative rho (up, down):  0.248E+00 0.000E+00

     total cpu time spent up to now is     1277.5 secs

     total energy              =   -2139.72093183 Ry
     Harris-Foulkes estimate   =   -2139.90276042 Ry
     estimated scf accuracy    <       1.95275754 Ry

     iteration #  5     ecut=    40.00 Ry     beta=0.30
     Davidson diagonalization with overlap
     ethr =  8.42E-04,  avg # of iterations =  3.3

     negative rho (up, down):  0.249E+00 0.000E+00

     total cpu time spent up to now is     1511.8 secs

     total energy              =   -2139.77899724 Ry
     Harris-Foulkes estimate   =   -2139.80031397 Ry
     estimated scf accuracy    <       0.55635837 Ry

     iteration #  6     ecut=    40.00 Ry     beta=0.30
     Davidson diagonalization with overlap
     ethr =  2.40E-04,  avg # of iterations =  4.9

     negative rho (up, down):  0.243E+00 0.000E+00

     total cpu time spent up to now is     1751.6 secs

     total energy              =   -2139.79448690 Ry
     Harris-Foulkes estimate   =   -2139.79354919 Ry
     estimated scf accuracy    <       0.39595480 Ry

     iteration #  7     ecut=    40.00 Ry     beta=0.30
     Davidson diagonalization with overlap
     ethr =  1.71E-04,  avg # of iterations =  4.7

     negative rho (up, down):  0.239E+00 0.000E+00

     total cpu time spent up to now is     2005.9 secs

     total energy              =   -2139.83815534 Ry
     Harris-Foulkes estimate   =   -2139.82480206 Ry
     estimated scf accuracy    <       0.20365261 Ry

     iteration #  8     ecut=    40.00 Ry     beta=0.30
     Davidson diagonalization with overlap
     ethr =  8.78E-05,  avg # of iterations =  4.9

     negative rho (up, down):  0.238E+00 0.000E+00

     total cpu time spent up to now is     2252.5 secs

     total energy              =   -2139.84319975 Ry
     Harris-Foulkes estimate   =   -2139.85709497 Ry
     estimated scf accuracy    <       0.18408395 Ry

     iteration #  9     ecut=    40.00 Ry     beta=0.30
     Davidson diagonalization with overlap
     ethr =  7.93E-05,  avg # of iterations =  1.1

     negative rho (up, down):  0.237E+00 0.000E+00

     total cpu time spent up to now is     2475.3 secs

     total energy              =   -2139.85804938 Ry
     Harris-Foulkes estimate   =   -2139.85801166 Ry
     estimated scf accuracy    <       0.03212578 Ry

     iteration # 10     ecut=    40.00 Ry     beta=0.30
     Davidson diagonalization with overlap
     ethr =  1.38E-05,  avg # of iterations =  5.7

     negative rho (up, down):  0.236E+00 0.000E+00

     total cpu time spent up to now is     2742.2 secs

     total energy              =   -2139.86095791 Ry
     Harris-Foulkes estimate   =   -2139.86041108 Ry
     estimated scf accuracy    <       0.00758061 Ry

     iteration # 11     ecut=    40.00 Ry     beta=0.30
     Davidson diagonalization with overlap
     ethr =  3.27E-06,  avg # of iterations =  2.1

     negative rho (up, down):  0.236E+00 0.000E+00

     total cpu time spent up to now is     2985.9 secs

     total energy              =   -2139.86187423 Ry
     Harris-Foulkes estimate   =   -2139.86156852 Ry
     estimated scf accuracy    <       0.00276117 Ry

     iteration # 12     ecut=    40.00 Ry     beta=0.30
     Davidson diagonalization with overlap
     ethr =  1.19E-06,  avg # of iterations =  2.9

     negative rho (up, down):  0.235E+00 0.000E+00

     total cpu time spent up to now is     3220.3 secs

     total energy              =   -2139.86211851 Ry
     Harris-Foulkes estimate   =   -2139.86201711 Ry
     estimated scf accuracy    <       0.00156981 Ry

     iteration # 13     ecut=    40.00 Ry     beta=0.30
     Davidson diagonalization with overlap
     ethr =  6.77E-07,  avg # of iterations =  1.0

     negative rho (up, down):  0.235E+00 0.000E+00

     total cpu time spent up to now is     3447.5 secs

     total energy              =   -2139.86232751 Ry
     Harris-Foulkes estimate   =   -2139.86222223 Ry
     estimated scf accuracy    <       0.00037554 Ry

     iteration # 14     ecut=    40.00 Ry     beta=0.30
     Davidson diagonalization with overlap
     ethr =  1.62E-07,  avg # of iterations =  1.0

     negative rho (up, down):  0.235E+00 0.000E+00

     total cpu time spent up to now is     3669.6 secs

     total energy              =   -2139.86244003 Ry
     Harris-Foulkes estimate   =   -2139.86238225 Ry
     estimated scf accuracy    <       0.00023882 Ry

     iteration # 15     ecut=    40.00 Ry     beta=0.30
     Davidson diagonalization with overlap
     ethr =  1.03E-07,  avg # of iterations =  1.0

     negative rho (up, down):  0.235E+00 0.000E+00

     total cpu time spent up to now is     3893.5 secs

     total energy              =   -2139.86250449 Ry
     Harris-Foulkes estimate   =   -2139.86247704 Ry
     estimated scf accuracy    <       0.00019336 Ry

     iteration # 16     ecut=    40.00 Ry     beta=0.30
     Davidson diagonalization with overlap
     ethr =  8.33E-08,  avg # of iterations =  1.0

     negative rho (up, down):  0.235E+00 0.000E+00

     total cpu time spent up to now is     4118.5 secs

     total energy              =   -2139.86254785 Ry
     Harris-Foulkes estimate   =   -2139.86254029 Ry
     estimated scf accuracy    <       0.00007996 Ry

     iteration # 17     ecut=    40.00 Ry     beta=0.30
     Davidson diagonalization with overlap
     ethr =  3.45E-08,  avg # of iterations =  2.0

     negative rho (up, down):  0.235E+00 0.000E+00

     total cpu time spent up to now is     4339.9 secs

     total energy              =   -2139.86257655 Ry
     Harris-Foulkes estimate   =   -2139.86258565 Ry
     estimated scf accuracy    <       0.00031475 Ry

     iteration # 18     ecut=    40.00 Ry     beta=0.30
     Davidson diagonalization with overlap
     ethr =  3.45E-08,  avg # of iterations =  1.0

     negative rho (up, down):  0.235E+00 0.000E+00

     total cpu time spent up to now is     4562.1 secs

     total energy              =   -2139.86258637 Ry
     Harris-Foulkes estimate   =   -2139.86258897 Ry
     estimated scf accuracy    <       0.00004684 Ry

     iteration # 19     ecut=    40.00 Ry     beta=0.30
     Davidson diagonalization with overlap
     ethr =  2.02E-08,  avg # of iterations =  2.0

     negative rho (up, down):  0.235E+00 0.000E+00

     total cpu time spent up to now is     4797.5 secs

     total energy              =   -2139.86260677 Ry
     Harris-Foulkes estimate   =   -2139.86260555 Ry
     estimated scf accuracy    <       0.00003326 Ry

     iteration # 20     ecut=    40.00 Ry     beta=0.30
     Davidson diagonalization with overlap
     ethr =  1.43E-08,  avg # of iterations =  1.0

     negative rho (up, down):  0.235E+00 0.000E+00

     total cpu time spent up to now is     5029.4 secs

     total energy              =   -2139.86260795 Ry
     Harris-Foulkes estimate   =   -2139.86261140 Ry
     estimated scf accuracy    <       0.00002189 Ry

     iteration # 21     ecut=    40.00 Ry     beta=0.30
     Davidson diagonalization with overlap
     ethr =  9.44E-09,  avg # of iterations =  2.0

     negative rho (up, down):  0.235E+00 0.000E+00

     total cpu time spent up to now is     5261.4 secs

     total energy              =   -2139.86262008 Ry
     Harris-Foulkes estimate   =   -2139.86261979 Ry
     estimated scf accuracy    <       0.00001590 Ry

     iteration # 22     ecut=    40.00 Ry     beta=0.30
     Davidson diagonalization with overlap
     ethr =  6.85E-09,  avg # of iterations =  1.0

     negative rho (up, down):  0.235E+00 0.000E+00

     total cpu time spent up to now is     5483.5 secs

     total energy              =   -2139.86262371 Ry
     Harris-Foulkes estimate   =   -2139.86262376 Ry
     estimated scf accuracy    <       0.00000717 Ry

     iteration # 23     ecut=    40.00 Ry     beta=0.30
     Davidson diagonalization with overlap
     ethr =  3.09E-09,  avg # of iterations =  2.0

     negative rho (up, down):  0.235E+00 0.000E+00

     total cpu time spent up to now is     5711.2 secs

     total energy              =   -2139.86262614 Ry
     Harris-Foulkes estimate   =   -2139.86262663 Ry
     estimated scf accuracy    <       0.00000333 Ry

     iteration # 24     ecut=    40.00 Ry     beta=0.30
     Davidson diagonalization with overlap
     ethr =  1.43E-09,  avg # of iterations =  2.0

     negative rho (up, down):  0.235E+00 0.000E+00

     total cpu time spent up to now is     5946.4 secs

     End of self-consistent calculation
 --- enter write_ns ---
 LDA+U parameters:
U( 2)     =  5.00000000
alpha( 2) =  0.00000000
atom    3   Tr[ns(na)] =   6.61581
    eigenvalues: 
  0.529  0.566  0.593  0.771  0.848
    eigenvectors:
  0.000  0.339  0.000  0.660  0.000
  0.999  0.000  0.000  0.000  0.001
  0.000  0.009  0.983  0.008  0.000
  0.000  0.652  0.016  0.332  0.000
  0.001  0.000  0.000  0.000  0.999
    occupations:
  0.701  0.000  0.014 -0.096  0.000
  0.000  0.530 -0.000 -0.000 -0.008
  0.014 -0.000  0.594 -0.007  0.000
 -0.096 -0.000 -0.007  0.635  0.000
  0.000 -0.008  0.000  0.000  0.848
atom    4   Tr[ns(na)] =   6.58259
    eigenvalues: 
  0.570  0.599  0.604  0.728  0.789
    eigenvectors:
  0.001  0.003  0.987  0.001  0.009
  0.000  0.008  0.001  0.991  0.000
  0.000  0.989  0.003  0.008  0.000
  0.000  0.000  0.009  0.000  0.991
  0.999  0.000  0.001  0.000  0.000
    occupations:
  0.606  0.003  0.000 -0.018  0.001
  0.003  0.727  0.011 -0.000 -0.002
  0.000  0.011  0.600  0.001 -0.000
 -0.018 -0.000  0.001  0.788 -0.000
  0.001 -0.002 -0.000 -0.000  0.570
atom    9   Tr[ns(na)] =   6.58958
    eigenvalues: 
  0.587  0.592  0.605  0.749  0.762
    eigenvectors:
  0.000  0.234  0.000  0.066  0.700
  0.000  0.000  1.000  0.000  0.000
  0.999  0.001  0.000  0.000  0.000
  0.001  0.764  0.000  0.019  0.216
  0.000  0.000  0.000  0.915  0.084
    occupations:
  0.721  0.000 -0.001 -0.072  0.003
  0.000  0.605  0.000  0.000  0.000
 -0.001  0.000  0.587  0.001 -0.000
 -0.072  0.000  0.001  0.631 -0.002
  0.003  0.000 -0.000 -0.002  0.750
atom   10   Tr[ns(na)] =   6.57877
    eigenvalues: 
  0.460  0.531  0.678  0.770  0.851
    eigenvectors:
  0.998  0.000  0.000  0.002  0.000
  0.000  0.000  0.000  0.000  1.000
  0.000  0.000  1.000  0.000  0.000
  0.002  0.000  0.000  0.998  0.000
  0.000  1.000  0.000  0.000  0.000
    occupations:
  0.461  0.000 -0.000 -0.012  0.000
  0.000  0.851  0.002 -0.000  0.001
 -0.000  0.002  0.678  0.000  0.000
 -0.012 -0.000  0.000  0.769 -0.000
  0.000  0.001  0.000 -0.000  0.531
atom   16   Tr[ns(na)] =   6.61606
    eigenvalues: 
  0.530  0.566  0.593  0.771  0.848
    eigenvectors:
  0.000  0.339  0.000  0.660  0.000
  0.999  0.000  0.000  0.000  0.001
  0.000  0.008  0.984  0.008  0.000
  0.000  0.652  0.016  0.332  0.000
  0.001  0.000  0.000  0.000  0.999
    occupations:
  0.701  0.000  0.014 -0.096  0.000
  0.000  0.530 -0.000 -0.000 -0.008
  0.014 -0.000  0.594 -0.007  0.000
 -0.096 -0.000 -0.007  0.635  0.000
  0.000 -0.008  0.000  0.000  0.848
atom   17   Tr[ns(na)] =   6.58194
    eigenvalues: 
  0.570  0.599  0.604  0.728  0.789
    eigenvectors:
  0.001  0.003  0.987  0.001  0.009
  0.000  0.008  0.001  0.991  0.000
  0.000  0.989  0.003  0.008  0.000
  0.000  0.000  0.009  0.000  0.991
  0.999  0.000  0.001  0.000  0.000
    occupations:
  0.606  0.003  0.000 -0.018  0.001
  0.003  0.727  0.011 -0.000 -0.002
  0.000  0.011  0.600  0.001 -0.000
 -0.018 -0.000  0.001  0.788 -0.000
  0.001 -0.002 -0.000 -0.000  0.570
atom   22   Tr[ns(na)] =   6.59034
    eigenvalues: 
  0.587  0.592  0.605  0.749  0.762
    eigenvectors:
  0.000  0.235  0.000  0.066  0.699
  0.000  0.000  1.000  0.000  0.000
  0.999  0.001  0.000  0.000  0.000
  0.001  0.764  0.000  0.019  0.216
  0.000  0.000  0.000  0.915  0.085
    occupations:
  0.721  0.000 -0.001 -0.072  0.003
  0.000  0.605  0.000  0.000  0.000
 -0.001  0.000  0.587  0.001  0.000
 -0.072  0.000  0.001  0.632 -0.002
  0.003  0.000  0.000 -0.002  0.750
atom   23   Tr[ns(na)] =   6.57898
    eigenvalues: 
  0.460  0.531  0.678  0.770  0.851
    eigenvectors:
  0.998  0.000  0.000  0.002  0.000
  0.000  0.000  0.000  0.000  1.000
  0.000  0.000  1.000  0.000  0.000
  0.002  0.000  0.000  0.998  0.000
  0.000  1.000  0.000  0.000  0.000
    occupations:
  0.460  0.000 -0.000 -0.012  0.000
  0.000  0.851  0.002 -0.000  0.001
 -0.000  0.002  0.678  0.000  0.000
 -0.012 -0.000  0.000  0.769 -0.000
  0.000  0.001  0.000 -0.000  0.531
N of occupied +U levels =  52.7340662
 --- exit write_ns ---

          k = 0.0000 0.0000 0.0000 ( 29221 PWs)   bands (ev):

   -81.0311 -80.9750 -80.8000 -80.7427 -80.4585 -80.4032 -80.3274 -80.2708
   -43.2054 -43.0159 -42.9814 -42.9751 -42.8865 -42.8342 -42.8160 -42.7244
   -42.7113 -42.6334 -42.5750 -42.5611 -42.5347 -42.4876 -42.3693 -42.3550
   -42.3327 -42.3249 -42.2700 -42.2454 -42.2280 -42.1142 -41.6908 -41.6414
   -21.0088 -20.5448 -20.5002 -20.3784 -20.0965 -19.9455 -19.6702 -19.6349
   -19.6060 -19.6028 -19.4815 -19.3323 -19.3032 -19.1835 -19.1513 -18.9051
   -18.3214 -18.0216  -9.8124  -9.5752  -9.3043  -9.1183  -8.8384  -8.7828
    -8.5103  -8.1158  -8.0913  -8.0604  -8.0168  -7.9104  -7.8059  -7.3942
    -7.2650  -7.2487  -6.9576  -6.8384  -6.7705  -6.7410  -6.7025  -6.4035
    -6.3041  -5.6937  -5.6783  -5.6631  -5.4142  -5.3961  -5.2602  -5.2268
    -5.1201  -5.0918  -4.8764  -4.8085  -4.7993  -4.7336  -4.5030  -4.5000
    -4.3054  -4.2444  -4.2154  -4.1217  -3.9515  -3.9179  -3.7588  -3.6443
    -3.3923  -3.3549  -3.3193  -3.2793  -3.2576  -3.1796  -2.9903  -2.9756
    -2.9174  -2.6859  -2.5029  -1.4590  -1.3110  -1.0762  -0.5857  -0.3466
    -0.3165   0.0691   0.1710   0.3195   0.4247   0.4755   0.4923   0.8782
     0.9310   1.0821   1.4902   1.8982   2.2884   2.6541   2.6710   3.0441
     3.0663   3.1752   3.2426   3.4901   3.8404   4.2149   4.3564   4.5265
     4.6519   4.6732   4.9107   4.9431   4.9556   5.0406   5.0936   5.1028
     5.2986   5.3301   5.5661   5.5934   6.0784   6.4061   6.4761   6.7249
     7.3309   7.5081   7.6261   7.6587   7.7742   7.9053   8.0365   8.1606
     8.2189   8.2773   8.4715   8.4787   8.7316   8.7373   8.8881   8.9248
     8.9877   9.0655   9.1478   9.3486   9.4642   9.5906   9.7268   9.7405
     9.7695   9.8569   9.9915  10.0133  10.1480  10.1499  10.1729  10.4565
    10.5552  10.5802  10.6902  10.7938  10.9586  10.9826  11.1350  11.3663
    11.3708  11.4060  11.4572  11.8494  11.8945  11.9020  11.9934  12.0381
    12.0558  12.1950  12.2648  12.3539  12.5469  12.7331  12.8298  12.8940
    12.9444  12.9501  12.9674  13.0067  13.0232  13.1414  13.1779  13.2464
    13.2486  13.2756  13.3256  13.4745  13.5509  13.5775  13.6357  13.7913
    13.8859  13.9254  13.9683  13.9856  14.0300  14.0488  14.0630  14.2251
    14.2432  14.2916  14.3088  14.5360  14.5441  14.8027  14.8637  14.9291
    14.9886  15.0330  15.0874  15.1360  15.2058  15.4484  15.5093  15.5291
    15.6121  15.6415  15.7286  15.8691  15.9261  15.9980  16.0146  16.0971
    16.2841  16.3655  16.4902  16.5522  16.5929  16.7668  16.7733  16.8479
    16.9167  17.0022  17.0301  17.0848  17.1433  17.2030  17.2232  17.3484
    17.4558  17.4696  17.5549  17.6254  17.8433  17.9941  18.0790  18.0927
    18.2319  18.3437  18.3771  18.5388  18.5520  18.5719  18.7586  18.7939
    18.8456  18.9281  18.9817  18.9978  19.2034  19.2922  19.3467  19.3472
    19.4441  19.5899  19.6514  19.6614  19.8018  19.8649  19.9383  20.0539
    20.0957  20.0965  20.1597  20.1836  20.3876  20.5061  20.5244  20.6133
    20.6779  20.7369  20.8905  20.9652  20.9912  21.0715  21.0770  21.2244
    21.3172  21.4560  21.5623  21.5938  21.6633  21.7491  21.8608  21.9276
    21.9808  22.0444  22.0630  22.1306  22.1312  22.1439  22.1561  22.2302
    22.2478  22.3500  22.3739  22.4364  22.4598  22.5146  22.5746  22.6028
    22.6558  22.7285  22.7413  22.7465

          k = 0.0000 0.1914 0.0000 ( 29141 PWs)   bands (ev):

   -81.0309 -80.9754 -80.7997 -80.7428 -80.4580 -80.4032 -80.3272 -80.2710
   -43.2055 -43.0157 -42.9806 -42.9750 -42.8865 -42.8335 -42.8146 -42.7255
   -42.7114 -42.6335 -42.5745 -42.5611 -42.5332 -42.4875 -42.3718 -42.3573
   -42.3327 -42.3249 -42.2693 -42.2453 -42.2273 -42.1142 -41.6908 -41.6415
   -20.9592 -20.4695 -20.3783 -20.3603 -20.0906 -19.9223 -19.9198 -19.8093
   -19.6610 -19.6185 -19.6148 -19.3710 -19.3460 -18.9805 -18.9516 -18.8951
   -18.3194 -18.0209  -9.4935  -9.2829  -9.2643  -9.1020  -9.0759  -8.7986
    -8.7580  -8.5077  -8.2442  -8.2289  -8.1366  -7.9399  -7.9008  -7.3217
    -7.3204  -7.2385  -6.7497  -6.6379  -6.5692  -6.4631  -6.3471  -6.2487
    -6.0943  -5.9311  -5.8136  -5.6996  -5.5893  -5.5447  -5.4080  -5.2977
    -5.2714  -5.2131  -4.9423  -4.8579  -4.8448  -4.5383  -4.4937  -4.4257
    -4.3978  -4.0937  -4.0667  -4.0367  -3.7579  -3.6469  -3.5935  -3.5646
    -3.5425  -3.4968  -3.3085  -3.2932  -3.2425  -3.1758  -3.0681  -2.9007
    -2.8990  -2.7336  -2.5399  -1.7088  -1.6836  -1.4553  -1.2124  -0.3893
    -0.0811   0.3092   0.3160   0.5668   0.7119   0.7984   0.8454   0.8889
     0.9389   1.1519   1.3069   1.7367   2.3300   2.4747   2.8181   3.0601
     3.1490   3.2429   3.4630   3.6410   3.8344   3.8830   4.2699   4.2948
     4.3307   4.3611   4.5175   4.6248   4.8121   5.0197   5.0995   5.1274
     5.3921   5.5931   5.9091   6.3554   6.4498   6.4970   6.5345   6.6524
     6.8090   6.9132   7.0460   7.4150   7.6686   7.7957   7.9378   8.0673
     8.1729   8.2075   8.4499   8.5426   8.9235   8.9468   8.9599   9.2298
     9.3934   9.4473   9.5611   9.5914   9.6717   9.8187   9.9036   9.9701
     9.9941  10.0968  10.1359  10.3252  10.3353  10.3413  10.4011  10.6680
    10.7087  10.7567  10.7743  10.8964  11.1112  11.1753  11.2061  11.3057
    11.4267  11.4315  11.5562  11.6631  11.7015  11.7584  11.8043  11.8723
    11.9137  12.0914  12.1480  12.1492  12.2162  12.2678  12.2971  12.4130
    12.5044  12.5721  12.6526  12.7968  12.8197  12.9890  13.0486  13.1856
    13.2386  13.3159  13.4698  13.5396  13.6370  13.6839  13.7122  13.7246
    13.8167  13.9431  14.0122  14.0389  14.1632  14.2267  14.2925  14.3249
    14.4601  14.4611  14.5323  14.5731  14.6504  14.7570  14.8040  14.8372
    14.9487  14.9696  15.0542  15.1309  15.2661  15.2782  15.3293  15.4948
    15.4980  15.5863  15.6451  15.6893  15.7197  15.7450  15.8250  15.8731
    15.8926  16.2000  16.2480  16.4204  16.4817  16.6345  16.6812  16.7620
    16.9395  17.0298  17.0920  17.1743  17.2650  17.2953  17.3037  17.3415
    17.3799  17.6099  17.7100  17.7836  17.9523  18.0372  18.2077  18.2848
    18.3237  18.3709  18.4790  18.5358  18.6701  18.7644  18.9149  18.9755
    18.9759  19.0213  19.0564  19.0900  19.1545  19.3538  19.4047  19.4692
    19.4795  19.4961  19.5989  19.6216  19.6599  19.7699  19.7720  19.8045
    19.9174  19.9246  20.1263  20.1996  20.2375  20.3664  20.3842  20.4055
    20.4113  20.4625  20.5568  20.7073  20.7509  20.8279  20.8914  20.9190
    21.0387  21.0437  21.1137  21.1969  21.3721  21.4281  21.5307  21.5310
    21.6404  21.6568  21.6814  21.7225  21.8014  21.9716  22.0498  22.1365
    22.1679  22.2882  22.2931  22.3765  22.4434  22.4770  22.6047  22.6536
    22.6707  22.7111  22.8022  22.8707

          k = 0.0000-0.3828 0.0000 ( 29262 PWs)   bands (ev):

   -81.0308 -80.9757 -80.7994 -80.7428 -80.4576 -80.4033 -80.3270 -80.2713
   -43.2056 -43.0155 -42.9798 -42.9748 -42.8865 -42.8330 -42.8132 -42.7267
   -42.7115 -42.6336 -42.5739 -42.5611 -42.5318 -42.4876 -42.3744 -42.3596
   -42.3328 -42.3250 -42.2688 -42.2454 -42.2267 -42.1142 -41.6909 -41.6415
   -20.9162 -20.3782 -20.3644 -20.1757 -20.0771 -19.9765 -19.9611 -19.8178
   -19.7822 -19.6695 -19.6436 -19.6320 -19.5309 -18.9153 -18.7529 -18.7514
   -18.3180 -18.0203  -9.5152  -9.3841  -9.0989  -9.0452  -8.8423  -8.7548
    -8.6503  -8.5859  -8.5184  -8.3656  -8.2565  -7.9348  -7.7202  -7.2954
    -7.1889  -7.0984  -7.0691  -7.0167  -6.8807  -6.6370  -6.5941  -6.0094
    -5.8934  -5.6854  -5.6604  -5.5932  -5.4411  -5.3501  -5.3471  -5.2880
    -5.2323  -5.0921  -5.0092  -4.9661  -4.8906  -4.6501  -4.5601  -4.4800
    -4.1856  -4.0836  -3.9593  -3.9126  -3.8646  -3.8095  -3.6797  -3.6744
    -3.5973  -3.3295  -3.3173  -3.2200  -3.1156  -3.0863  -2.9528  -2.8500
    -2.7947  -2.7332  -2.5436  -2.1462  -2.1249  -1.7932  -1.4522  -0.3884
     0.1543   0.3296   0.5097   0.6630   0.8034   0.8667   1.1179   1.1431
     1.1450   1.1992   1.4117   1.4870   2.3053   2.3546   2.9286   2.9384
     2.9438   3.1193   3.3703   3.4066   3.7102   3.9477   4.0517   4.2924
     4.3588   4.3734   4.7450   4.8937   4.9895   5.1005   5.1517   5.1672
     5.4761   5.5897   5.8050   5.8953   6.1608   6.3076   6.5769   6.6733
     6.8018   7.1499   7.1536   7.2818   7.3525   7.4783   7.6986   7.9124
     8.1360   8.3007   8.5182   8.5781   8.7525   8.7812   9.1343   9.2560
     9.4754   9.7026   9.8230   9.9271  10.0159  10.1701  10.2398  10.3185
    10.3879  10.4572  10.5168  10.6425  10.6789  10.7994  10.8289  10.8437
    10.8863  10.9925  11.0717  11.1284  11.2466  11.2910  11.3590  11.4155
    11.4678  11.5122  11.5268  11.5273  11.6467  11.6512  11.6829  11.7022
    11.7950  11.8333  11.9006  12.0163  12.0464  12.0626  12.1085  12.2860
    12.3125  12.3575  12.4000  12.4211  12.4927  12.5366  12.7574  12.9452
    12.9537  12.9847  13.0536  13.1251  13.4340  13.4889  13.5119  13.5822
    13.6534  13.7131  13.7577  13.8032  13.8366  14.1117  14.1492  14.2079
    14.2968  14.3002  14.3527  14.4968  14.4980  14.7082  14.8270  14.8363
    14.9134  15.0440  15.0603  15.2998  15.3223  15.3241  15.5195  15.6326
    15.8531  15.9316  16.0051  16.1356  16.2474  16.3843  16.4762  16.4842
    16.4880  16.5581  16.6996  16.7169  16.7741  16.8232  16.8597  16.9669
    16.9865  17.0212  17.0492  17.0732  17.3138  17.3415  17.3861  17.4285
    17.5050  17.5484  17.5848  17.5979  17.6320  17.7374  17.7669  17.7904
    17.8981  18.0062  18.1518  18.1610  18.2107  18.2860  18.3475  18.5234
    18.5717  18.6110  18.7195  18.7308  18.7452  18.8298  19.0387  19.0631
    19.0670  19.0972  19.1882  19.4043  19.5026  19.6230  19.8040  19.8169
    19.8447  19.8708  19.9286  19.9504  19.9758  20.1089  20.1855  20.4555
    20.5468  20.5634  20.6117  20.6633  20.7002  20.8606  20.9243  21.0020
    21.0333  21.1977  21.2131  21.3347  21.4238  21.4376  21.4461  21.5435
    21.6791  21.7541  21.9622  22.0126  22.0353  22.1578  22.1855  22.2452
    22.3244  22.5495  22.5798  22.5977  22.6351  22.7612  22.8119  22.9292
    22.9956  23.0692  23.0750  23.0830

          k = 0.2500 0.0000 0.0000 ( 29190 PWs)   bands (ev):

   -81.0144 -80.9751 -80.7845 -80.7443 -80.4427 -80.4039 -80.3124 -80.2727
   -43.0962 -42.9660 -42.9602 -42.9091 -42.8938 -42.8559 -42.8049 -42.7399
   -42.6912 -42.6132 -42.5840 -42.5119 -42.4741 -42.4628 -42.4182 -42.3498
   -42.3449 -42.3228 -42.2853 -42.2646 -42.2608 -42.2491 -41.8397 -41.7898
   -20.8468 -20.4166 -20.3719 -20.3347 -20.0374 -19.8821 -19.8571 -19.6585
   -19.5701 -19.4941 -19.4779 -19.4381 -19.4292 -19.2431 -19.2006 -18.9983
   -18.3479 -18.1577  -9.3318  -9.1462  -8.9503  -8.8142  -8.6955  -8.2994
    -8.2573  -7.9353  -7.9333  -7.8528  -7.7822  -7.7308  -7.5751  -7.5210
    -7.4661  -7.2139  -6.9986  -6.8124  -6.6859  -6.5833  -6.4930  -6.4869
    -6.2793  -6.2421  -6.0094  -5.9728  -5.7975  -5.6665  -5.4752  -5.3379
    -5.1379  -4.9886  -4.9516  -4.8110  -4.7784  -4.6408  -4.5497  -4.5295
    -4.4806  -4.4268  -4.3072  -4.1904  -4.0038  -3.9445  -3.7856  -3.7256
    -3.5934  -3.4661  -3.3373  -3.2627  -3.2211  -2.9966  -2.8688  -2.8491
    -2.6917  -2.6359  -2.3673  -1.2538  -1.1824  -1.0453  -0.6058  -0.5790
    -0.3239  -0.2940  -0.0135   0.0068   0.2223   0.4727   0.5618   1.0016
     1.0585   1.0789   1.3026   1.4568   1.4864   1.6444   1.6922   1.7912
     2.3637   2.5286   3.5172   3.8616   4.2277   4.3009   4.4489   4.5488
     4.7996   4.8148   4.8317   4.8673   4.9219   5.0801   5.1554   5.2387
     5.3072   5.3425   5.7349   5.9553   6.2929   6.4426   6.6014   6.8772
     7.0341   7.3225   7.5559   7.6414   7.8167   7.8691   7.9514   8.1161
     8.2161   8.2252   8.2579   8.5064   8.5825   8.6031   8.6446   8.8446
     9.0579   9.1235   9.3068   9.3223   9.4323   9.4748   9.5080   9.7042
     9.7874   9.8318   9.9777   9.9879  10.0265  10.0619  10.3661  10.4517
    10.4813  10.5247  10.7158  10.7713  10.8187  10.9738  11.0124  11.1036
    11.1487  11.1949  11.2868  11.5103  11.5578  11.6472  11.6886  11.8186
    11.8228  12.1164  12.2963  12.3130  12.3734  12.5910  12.6084  12.7834
    12.8303  12.9370  13.1052  13.1666  13.2067  13.3257  13.3358  13.4366
    13.5194  13.5385  13.5925  13.6942  13.8154  13.9115  14.0553  14.0768
    14.1043  14.3994  14.3998  14.4896  14.5162  14.5554  14.7636  14.8301
    14.8992  14.9312  14.9900  15.0637  15.1677  15.2169  15.3623  15.4392
    15.6058  15.6110  15.7136  15.7253  15.7722  15.8944  16.0068  16.0364
    16.1057  16.1493  16.2239  16.2793  16.4492  16.4726  16.5404  16.5951
    16.6780  16.6811  16.7394  16.8507  17.0632  17.0647  17.1641  17.2651
    17.2686  17.3242  17.3832  17.4109  17.4737  17.5310  17.5786  17.6409
    17.6886  17.7267  17.8349  17.9785  18.0782  18.1151  18.1442  18.2815
    18.3095  18.3144  18.3921  18.4799  18.5805  18.6455  18.6740  18.8239
    18.8327  18.9773  19.0063  19.0930  19.2661  19.2814  19.3099  19.3848
    19.4374  19.4767  19.5934  19.6214  19.6474  19.8510  19.8693  19.9261
    19.9519  20.0405  20.0885  20.1556  20.1905  20.2532  20.2875  20.4301
    20.4644  20.4717  20.5120  20.5148  20.6313  20.7230  20.7890  20.8398
    20.8608  20.9178  20.9275  20.9961  21.0397  21.1318  21.1833  21.2642
    21.3080  21.4201  21.5098  21.5424  21.7198  21.9301  21.9309  21.9837
    22.0417  22.0823  22.0955  22.2098  22.2580  22.2615  22.3482  22.4270
    22.4341  22.5104  22.5241  22.6348

          k = 0.2500 0.1914 0.0000 ( 29229 PWs)   bands (ev):

   -81.0143 -80.9754 -80.7843 -80.7443 -80.4423 -80.4039 -80.3123 -80.2729
   -43.0962 -42.9658 -42.9592 -42.9090 -42.8938 -42.8551 -42.8038 -42.7401
   -42.6912 -42.6132 -42.5840 -42.5119 -42.4742 -42.4625 -42.4175 -42.3520
   -42.3469 -42.3229 -42.2853 -42.2645 -42.2608 -42.2489 -41.8397 -41.7898
   -20.8087 -20.3723 -20.3414 -20.2188 -20.0373 -19.9418 -19.8516 -19.8142
   -19.7385 -19.6448 -19.4975 -19.4029 -19.3540 -19.1507 -19.1020 -18.9879
   -18.3465 -18.1583  -9.0618  -8.9625  -8.8718  -8.7140  -8.7133  -8.4689
    -8.4200  -8.2515  -8.1363  -7.9721  -7.9195  -7.8535  -7.7016  -7.4286
    -7.3392  -7.1376  -6.8740  -6.7285  -6.6539  -6.6268  -6.5236  -6.2442
    -6.1756  -6.1295  -5.8225  -5.8196  -5.6169  -5.5637  -5.5371  -5.3907
    -5.2312  -5.0793  -4.9332  -4.9178  -4.8897  -4.7987  -4.7460  -4.6530
    -4.6400  -4.6053  -4.2319  -4.0885  -4.0846  -3.9118  -3.8160  -3.6634
    -3.6097  -3.5020  -3.4064  -3.2596  -3.2211  -2.9535  -2.8199  -2.7662
    -2.4580  -2.3631  -2.1763  -1.6936  -1.3610  -1.1855  -1.1814  -0.4264
    -0.3012  -0.0146   0.1329   0.2307   0.4389   0.5841   0.7172   1.0205
     1.1209   1.2264   1.3153   1.4222   1.5367   1.6727   1.7413   1.7980
     2.3819   2.3933   3.6762   3.7462   3.9284   3.9351   4.1538   4.3043
     4.5239   4.5610   4.8015   4.8472   4.9100   4.9355   5.2259   5.4007
     5.7823   5.8591   5.9904   6.2345   6.2624   6.4806   6.6607   6.7050
     6.8495   6.9690   7.2353   7.3536   7.4135   7.6929   7.7455   8.0099
     8.1353   8.3016   8.3222   8.4643   8.5704   8.5890   8.7573   8.9074
     9.0790   9.3555   9.3804   9.4072   9.6014   9.6788   9.7156   9.7611
     9.8076   9.9137   9.9164  10.1527  10.2078  10.2933  10.3234  10.3293
    10.4308  10.6980  10.7347  10.8003  10.9421  10.9802  11.0459  11.2481
    11.3718  11.4319  11.4819  11.6823  11.7898  11.8968  11.9564  12.1215
    12.2959  12.4186  12.4907  12.5162  12.6104  12.6705  12.7159  12.8333
    12.8396  12.9667  13.0435  13.1889  13.2248  13.3226  13.4819  13.5468
    13.6147  13.6665  13.7765  13.8029  13.9223  13.9445  13.9686  14.0370
    14.1211  14.2515  14.3063  14.3174  14.4237  14.5256  14.5440  14.5798
    14.7283  14.7746  14.8038  14.8420  14.8781  14.9516  14.9709  15.0422
    15.0994  15.2155  15.2940  15.3729  15.5019  15.5324  15.6802  15.6976
    15.8997  15.9536  16.0890  16.1431  16.1902  16.2276  16.2710  16.4275
    16.5364  16.5632  16.6257  16.6980  16.7811  16.8660  16.8848  16.9783
    17.1222  17.1225  17.2232  17.3234  17.3368  17.4746  17.5632  17.6641
    17.6989  17.7043  17.7810  17.8884  17.9788  18.0346  18.1201  18.2069
    18.2116  18.3193  18.3704  18.3939  18.4934  18.5311  18.6528  18.6782
    18.7693  18.8937  18.9352  19.0271  19.0603  19.0651  19.1583  19.3347
    19.4316  19.5152  19.5849  19.6586  19.7794  19.9509  19.9702  20.0203
    20.0434  20.1432  20.2494  20.2589  20.4680  20.4882  20.5231  20.6006
    20.6107  20.7717  20.7833  20.8078  20.8688  20.9322  20.9405  21.0409
    21.1268  21.1556  21.2687  21.3070  21.4152  21.4443  21.4828  21.5102
    21.6287  21.6659  21.7785  21.8189  21.9211  21.9373  22.0975  22.1121
    22.1715  22.2209  22.2549  22.3396  22.3421  22.4177  22.4695  22.5270
    22.5450  22.6112  22.6405  22.7288

          k = 0.2500-0.3828 0.0000 ( 29202 PWs)   bands (ev):

   -81.0143 -80.9757 -80.7840 -80.7443 -80.4419 -80.4039 -80.3122 -80.2731
   -43.0963 -42.9657 -42.9582 -42.9089 -42.8937 -42.8541 -42.8025 -42.7404
   -42.6913 -42.6133 -42.5840 -42.5119 -42.4744 -42.4621 -42.4167 -42.3541
   -42.3487 -42.3229 -42.2852 -42.2643 -42.2608 -42.2487 -41.8396 -41.7898
   -20.7755 -20.3729 -20.2198 -20.1409 -20.0454 -19.9326 -19.8671 -19.7653
   -19.7540 -19.7099 -19.6693 -19.6534 -19.4472 -19.0431 -18.9433 -18.9294
   -18.3454 -18.1592  -9.0562  -8.9932  -8.7008  -8.6376  -8.5243  -8.5205
    -8.4199  -8.2777  -8.2196  -7.9596  -7.8968  -7.7271  -7.7269  -7.5856
    -7.5804  -7.2779  -7.1423  -6.9585  -6.9085  -6.5481  -6.2938  -6.0408
    -5.8623  -5.8577  -5.7384  -5.6487  -5.5759  -5.4742  -5.3934  -5.3008
    -5.2570  -5.1306  -5.1108  -5.0838  -4.9898  -4.9691  -4.9083  -4.7875
    -4.7197  -4.6300  -4.2673  -4.0372  -3.9528  -3.9202  -3.8488  -3.6984
    -3.6163  -3.4179  -3.3955  -3.2472  -3.0743  -2.9780  -2.8512  -2.6470
    -2.4813  -2.3000  -1.9932  -1.8783  -1.8379  -1.5806  -1.1944  -0.3454
    -0.3190   0.1500   0.3209   0.5753   0.7378   0.8322   0.8348   0.9962
     1.1189   1.1824   1.4914   1.5470   1.5991   1.6258   1.7611   2.0797
     2.2737   2.4298   2.9352   3.1208   3.4967   3.7697   3.8883   4.3211
     4.5848   4.6019   4.8723   4.8826   5.1343   5.3450   5.4046   5.5302
     5.8116   5.9280   6.1584   6.2253   6.2663   6.4055   6.5317   6.6919
     6.7650   6.9966   7.0283   7.1540   7.1863   7.5660   7.7379   7.7500
     7.8749   8.3178   8.3428   8.4662   8.5994   8.6437   8.7213   8.9109
     8.9740   9.0349   9.1683   9.1743   9.4834   9.6036   9.6878   9.7722
    10.0663  10.0993  10.2869  10.3479  10.4953  10.5382  10.6047  10.6853
    10.7062  10.8009  10.8411  11.0448  11.2575  11.3315  11.4194  11.6733
    11.6856  11.8272  11.8741  11.9733  12.0015  12.0820  12.1042  12.2055
    12.2387  12.3050  12.3862  12.4080  12.5018  12.6564  12.6996  12.7320
    12.7948  12.9789  13.1537  13.2185  13.3267  13.3488  13.4247  13.5891
    13.6600  13.7407  13.7917  13.8083  13.8768  13.9615  13.9941  14.0674
    14.1152  14.2065  14.2634  14.3510  14.3536  14.4175  14.4480  14.5110
    14.5191  14.6145  14.6278  14.6385  14.7265  14.7447  14.7789  14.8081
    14.8539  15.1891  15.2525  15.3227  15.3395  15.3608  15.4036  15.4865
    15.6021  15.6498  15.6657  15.7663  15.7937  15.9654  16.0099  16.1891
    16.1964  16.2691  16.3497  16.4628  16.5841  16.6462  16.6794  16.8358
    16.8537  16.8791  17.0024  17.0228  17.2596  17.4378  17.4716  17.5053
    17.5173  17.6410  17.6490  17.7121  17.7522  17.7986  17.9313  18.1603
    18.1620  18.2262  18.2864  18.3078  18.4408  18.5230  18.7415  18.7901
    18.8789  19.0351  19.1183  19.2241  19.3665  19.4319  19.5375  19.6093
    19.6922  19.7381  19.7783  19.8041  19.8833  19.9016  19.9994  20.0982
    20.1342  20.1577  20.1925  20.2154  20.2702  20.3499  20.4007  20.5276
    20.5980  20.7537  20.8504  20.9660  21.0022  21.0260  21.1507  21.1850
    21.2329  21.2806  21.2860  21.3361  21.4104  21.5172  21.5499  21.6256
    21.6538  21.7318  21.7620  21.8325  21.8607  21.8705  21.9470  22.0317
    22.1336  22.1374  22.2097  22.3344  22.3863  22.4491  22.4639  22.5199
    22.5914  22.6237  22.6424  22.6849

          k =-0.5000 0.0000 0.0000 ( 29180 PWs)   bands (ev):

   -80.9870 -80.9858 -80.7580 -80.7569 -80.4160 -80.4155 -80.2864 -80.2856
   -42.9367 -42.9356 -42.9153 -42.9142 -42.7998 -42.7988 -42.7755 -42.7745
   -42.6466 -42.6458 -42.5933 -42.5925 -42.5633 -42.5628 -42.3186 -42.3182
   -42.3012 -42.3001 -42.2957 -42.2945 -42.1688 -42.1684 -42.1209 -42.1206
   -20.4978 -20.4975 -20.1813 -20.1806 -19.9412 -19.9409 -19.8729 -19.8724
   -19.6578 -19.6575 -19.3979 -19.3977 -19.3147 -19.3144 -19.2110 -19.2106
   -18.3438 -18.3437  -8.5322  -8.5321  -8.3581  -8.3580  -8.2352  -8.2349
    -8.0978  -8.0976  -7.9284  -7.9276  -7.6239  -7.6235  -7.4205  -7.4205
    -7.1698  -7.1696  -6.9951  -6.9949  -6.7470  -6.7469  -6.3043  -6.3042
    -6.1579  -6.1577  -6.0454  -6.0452  -5.7555  -5.7554  -5.4343  -5.4342
    -5.3907  -5.3907  -5.1930  -5.1928  -5.1144  -5.1141  -4.8070  -4.8068
    -4.7629  -4.7629  -4.5569  -4.5567  -4.0366  -4.0366  -3.5803  -3.5802
    -3.5123  -3.5121  -3.1811  -3.1810  -3.0025  -3.0024  -2.9099  -2.9097
    -1.4211  -1.4207  -1.2029  -1.2024  -1.0320  -1.0318  -0.9545  -0.9543
    -0.8244  -0.8242  -0.5122  -0.5121  -0.2771  -0.2770   0.1553   0.1555
     0.3809   0.3812   0.7359   0.7361   1.4552   1.4553   1.9774   1.9778
     2.0584   2.0587   4.0079   4.0081   4.2936   4.2938   4.5665   4.5670
     4.8550   4.8559   4.9041   4.9042   4.9461   4.9465   5.2809   5.2811
     5.7555   5.7557   6.0351   6.0357   6.2716   6.2720   6.6564   6.6568
     6.8399   6.8402   7.3423   7.3426   7.7316   7.7319   7.8452   7.8456
     8.4960   8.4967   8.6487   8.6491   8.6717   8.6718   8.9412   8.9417
     9.0875   9.0883   9.1815   9.1821   9.4058   9.4064   9.5328   9.5336
     9.7198   9.7200   9.7597   9.7597   9.8993   9.8998  10.2838  10.2845
    10.3819  10.3821  10.4583  10.4586  10.5967  10.5968  10.7042  10.7044
    10.8871  10.8875  11.4393  11.4395  11.5002  11.5004  11.9039  11.9043
    12.0344  12.0348  12.1321  12.1325  12.3397  12.3407  12.7568  12.7571
    13.1807  13.1809  13.3672  13.3675  13.4372  13.4377  13.6816  13.6821
    13.8054  13.8056  13.9557  13.9558  14.3833  14.3834  14.4804  14.4805
    14.5953  14.5956  14.8674  14.8678  14.9675  14.9676  15.1371  15.1373
    15.3223  15.3227  15.5297  15.5300  15.5621  15.5625  15.7094  15.7096
    15.9082  15.9084  16.1581  16.1582  16.3844  16.3846  16.4372  16.4374
    16.5193  16.5194  16.6622  16.6626  16.7977  16.7979  16.9700  16.9704
    17.0770  17.0772  17.1628  17.1630  17.3874  17.3879  17.5149  17.5153
    17.7780  17.7782  17.8177  17.8183  17.8586  17.8587  18.0526  18.0533
    18.2041  18.2047  18.2273  18.2275  18.3407  18.3414  18.5447  18.5454
    18.5934  18.5944  18.7487  18.7489  18.8571  18.8579  18.9756  18.9757
    19.1055  19.1058  19.2294  19.2296  19.3755  19.3757  19.3952  19.3955
    19.4202  19.4204  19.5742  19.5749  19.6002  19.6008  19.6661  19.6667
    19.7525  19.7529  19.8413  19.8417  19.9312  19.9316  20.0081  20.0085
    20.1345  20.1348  20.2567  20.2573  20.3123  20.3128  20.4226  20.4229
    20.6785  20.6791  20.8347  20.8352  20.9414  20.9417  20.9676  20.9681
    21.0387  21.0392  21.0823  21.0826  21.2204  21.2207  21.3019  21.3021
    21.4483  21.4486  21.5782  21.5785  21.7353  21.7355  21.8163  21.8167
    22.0490  22.0493  22.3043  22.3045

          k =-0.5000 0.1914 0.0000 ( 29244 PWs)   bands (ev):

   -80.9871 -80.9860 -80.7579 -80.7568 -80.4158 -80.4153 -80.2865 -80.2857
   -42.9367 -42.9357 -42.9141 -42.9131 -42.7999 -42.7988 -42.7749 -42.7739
   -42.6466 -42.6458 -42.5933 -42.5925 -42.5633 -42.5629 -42.3197 -42.3193
   -42.3019 -42.3009 -42.2959 -42.2947 -42.1686 -42.1682 -42.1207 -42.1204
   -20.4906 -20.4902 -20.1477 -20.1470 -19.9140 -19.9127 -19.8878 -19.8859
   -19.7020 -19.6988 -19.3999 -19.3966 -19.3344 -19.3340 -19.2088 -19.2083
   -18.3440 -18.3439  -8.5333  -8.5325  -8.3300  -8.3190  -8.2492  -8.2447
    -8.1329  -8.1255  -7.9319  -7.9311  -7.5221  -7.5059  -7.2858  -7.2799
    -7.1741  -7.1509  -6.9952  -6.9529  -6.6422  -6.6197  -6.4413  -6.4123
    -6.3206  -6.3139  -6.0937  -6.0438  -5.7900  -5.7532  -5.6425  -5.6253
    -5.4173  -5.4159  -5.3055  -5.2727  -5.0249  -5.0134  -4.9130  -4.8544
    -4.7833  -4.7639  -4.4596  -4.4538  -4.0768  -4.0712  -3.6048  -3.5623
    -3.5024  -3.4898  -3.2024  -3.1843  -3.0835  -3.0727  -2.8048  -2.7567
    -1.4999  -1.4991  -1.2449  -1.2161  -1.1224  -1.0928  -0.8360  -0.8260
    -0.6711  -0.6661  -0.4922  -0.4893  -0.0223  -0.0031   0.2185   0.2270
     0.4544   0.4767   0.9014   0.9326   1.3382   1.3561   1.7958   1.8026
     2.1433   2.1449   3.7254   3.7325   3.9205   3.9224   4.1918   4.1946
     4.4405   4.4438   5.1672   5.1715   5.3976   5.4038   5.6364   5.6406
     5.7632   5.7742   6.2071   6.2097   6.3553   6.3560   6.6848   6.6955
     6.9240   6.9270   7.1408   7.1562   7.6347   7.6374   7.7505   7.7556
     7.8605   7.8685   8.0890   8.0981   8.3648   8.3660   8.5859   8.6145
     8.9641   8.9662   9.1235   9.1480   9.4012   9.4037   9.5166   9.5599
     9.7811   9.8451  10.1460  10.1520  10.3692  10.3714  10.6145  10.6211
    10.7097  10.7115  10.8094  10.8136  10.8554  10.9140  11.0817  11.1127
    11.2508  11.2618  11.5624  11.5683  11.7780  11.7913  12.0140  12.0518
    12.2152  12.2334  12.2756  12.2842  12.7421  12.7587  12.7909  12.8402
    13.0755  13.1093  13.3464  13.3986  13.5423  13.5544  13.7131  13.7327
    13.8766  13.9052  14.0726  14.0739  14.3433  14.3540  14.4589  14.4738
    14.6075  14.6119  14.7503  14.7770  14.8602  14.8864  14.9057  14.9142
    15.0878  15.1286  15.3814  15.3939  15.4376  15.4453  15.5944  15.6017
    15.7218  15.7272  15.8417  15.8533  16.0076  16.0308  16.1706  16.2454
    16.2961  16.2987  16.4302  16.4378  16.5357  16.5531  16.6089  16.6405
    16.7268  16.7291  16.8569  16.8641  17.0252  17.0282  17.1451  17.1588
    17.2212  17.2276  17.2842  17.2896  17.5048  17.5214  17.6061  17.6550
    17.8283  17.8515  17.8994  17.9098  17.9999  18.0213  18.2476  18.2557
    18.2636  18.2797  18.3792  18.3975  18.4811  18.5001  18.6279  18.6287
    18.8350  18.8379  18.9651  18.9836  19.1691  19.1957  19.2894  19.3050
    19.4014  19.4134  19.5826  19.5849  19.6628  19.6639  19.8293  19.8504
    19.9739  19.9849  20.1831  20.2113  20.2730  20.2966  20.4050  20.4151
    20.6046  20.6160  20.7429  20.7508  20.8052  20.8059  20.9215  20.9259
    21.0121  21.0152  21.2024  21.2266  21.3004  21.3062  21.3855  21.3965
    21.5940  21.5975  21.6487  21.6533  21.7658  21.7673  21.8326  21.8374
    21.9172  21.9263  21.9513  21.9558  22.0877  22.0881  22.2992  22.3115
    22.3786  22.3995  22.4272  22.4447

          k =-0.5000-0.3828 0.0000 ( 29192 PWs)   bands (ev):

   -80.9873 -80.9862 -80.7577 -80.7566 -80.4156 -80.4151 -80.2865 -80.2857
   -42.9368 -42.9357 -42.9130 -42.9119 -42.7999 -42.7989 -42.7742 -42.7732
   -42.6466 -42.6458 -42.5932 -42.5924 -42.5633 -42.5629 -42.3207 -42.3203
   -42.3026 -42.3016 -42.2959 -42.2947 -42.1684 -42.1680 -42.1205 -42.1202
   -20.4837 -20.4834 -20.0994 -20.0984 -19.9440 -19.9438 -19.8145 -19.8142
   -19.7855 -19.7852 -19.3983 -19.3981 -19.3546 -19.3544 -19.2069 -19.2065
   -18.3442 -18.3441  -8.4913  -8.4912  -8.3134  -8.3132  -8.2401  -8.2399
    -8.1231  -8.1229  -7.9204  -7.9197  -7.4807  -7.4803  -7.2553  -7.2552
    -7.1593  -7.1591  -6.9521  -6.9520  -6.7021  -6.7020  -6.4242  -6.4240
    -6.2892  -6.2888  -6.0025  -6.0024  -5.8420  -5.8419  -5.6687  -5.6686
    -5.5389  -5.5387  -5.4138  -5.4137  -5.0377  -5.0376  -4.9001  -4.9000
    -4.8212  -4.8211  -4.2388  -4.2387  -4.0692  -4.0691  -3.7266  -3.7265
    -3.4602  -3.4600  -3.2272  -3.2269  -3.1629  -3.1629  -2.6239  -2.6237
    -1.6616  -1.6613  -1.3808  -1.3806  -1.2163  -1.2161  -0.9180  -0.9176
    -0.5635  -0.5630  -0.0155  -0.0154   0.1954   0.1956   0.5613   0.5615
     0.6946   0.6953   1.0012   1.0016   1.4421   1.4423   1.4831   1.4833
     2.1988   2.1992   3.0085   3.0090   3.2368   3.2375   4.2471   4.2472
     4.4996   4.4999   5.3085   5.3086   5.5211   5.5212   5.9016   5.9017
     6.2009   6.2011   6.2915   6.2918   6.3999   6.4005   6.7608   6.7615
     6.8874   6.8882   7.1028   7.1034   7.2295   7.2299   7.4714   7.4720
     7.6561   7.6567   7.9381   7.9386   8.1668   8.1672   8.5321   8.5325
     8.7025   8.7027   8.8685   8.8688   9.2798   9.2802   9.5817   9.5822
     9.9155   9.9158  10.0636  10.0639  10.5112  10.5115  10.7760  10.7762
    11.0070  11.0072  11.0830  11.0831  11.2862  11.2864  11.5732  11.5736
    11.6870  11.6876  12.1306  12.1310  12.3761  12.3765  12.4957  12.4962
    12.7746  12.7752  12.9303  12.9309  12.9829  12.9837  13.0701  13.0706
    13.2192  13.2197  13.3707  13.3710  13.4367  13.4374  13.4860  13.4864
    13.7137  13.7138  13.7930  13.7938  13.9970  13.9971  14.1391  14.1395
    14.2267  14.2271  14.4147  14.4151  14.5934  14.5936  14.6490  14.6491
    14.7621  14.7624  15.0381  15.0385  15.1428  15.1435  15.2722  15.2723
    15.4027  15.4032  15.6241  15.6248  15.8063  15.8067  15.8954  15.8957
    16.1774  16.1776  16.3038  16.3039  16.3329  16.3332  16.5209  16.5211
    16.6607  16.6614  16.7384  16.7385  16.9847  16.9850  17.1912  17.1916
    17.2281  17.2283  17.3259  17.3263  17.5365  17.5372  17.6361  17.6363
    17.7016  17.7020  17.7424  17.7428  17.9697  17.9701  18.1051  18.1052
    18.1493  18.1496  18.2102  18.2105  18.3259  18.3264  18.4076  18.4078
    18.5106  18.5107  18.5801  18.5807  18.8571  18.8575  18.9111  18.9113
    19.0311  19.0313  19.4301  19.4305  19.5671  19.5675  19.6757  19.6760
    19.8721  19.8724  20.0724  20.0725  20.1873  20.1877  20.5000  20.5002
    20.6323  20.6326  20.7573  20.7575  20.7918  20.7925  21.0247  21.0255
    21.2330  21.2330  21.2714  21.2715  21.4620  21.4627  21.7326  21.7327
    21.7946  21.7949  22.1026  22.1028  22.2096  22.2099  22.2701  22.2704
    22.3892  22.3893  22.5309  22.5312  22.5658  22.5664  22.7704  22.7704
    22.8650  22.8651  22.9513  22.9514

          k =-0.2500 0.1914 0.0000 ( 29229 PWs)   bands (ev):

   -81.0143 -80.9754 -80.7843 -80.7443 -80.4423 -80.4039 -80.3123 -80.2729
   -43.0963 -42.9658 -42.9592 -42.9090 -42.8938 -42.8549 -42.8038 -42.7402
   -42.6912 -42.6132 -42.5840 -42.5119 -42.4743 -42.4625 -42.4174 -42.3519
   -42.3468 -42.3229 -42.2853 -42.2645 -42.2608 -42.2489 -41.8397 -41.7898
   -20.8088 -20.3722 -20.3415 -20.2184 -20.0369 -19.9412 -19.8510 -19.8150
   -19.7388 -19.6458 -19.4976 -19.4042 -19.3541 -19.1504 -19.1014 -18.9869
   -18.3465 -18.1583  -9.0583  -8.9713  -8.8734  -8.7124  -8.7022  -8.4740
    -8.4239  -8.2545  -8.1390  -7.9696  -7.9189  -7.8562  -7.6986  -7.4346
    -7.3417  -7.1328  -6.8564  -6.7432  -6.6427  -6.6199  -6.5205  -6.2428
    -6.1557  -6.1224  -5.8677  -5.8248  -5.6134  -5.5636  -5.5609  -5.3523
    -5.2265  -5.0881  -4.9349  -4.9345  -4.8834  -4.8079  -4.7356  -4.6451
    -4.6371  -4.6059  -4.2679  -4.0871  -4.0362  -3.9017  -3.8089  -3.6934
    -3.6898  -3.4568  -3.3855  -3.2705  -3.2047  -2.9435  -2.8518  -2.7367
    -2.4688  -2.3656  -2.1767  -1.6907  -1.3874  -1.1911  -1.1115  -0.4481
    -0.3100  -0.0178   0.1170   0.2141   0.4399   0.6236   0.6887   1.0354
     1.1388   1.2284   1.3184   1.4101   1.5365   1.6767   1.7402   1.7913
     2.3794   2.3934   3.6783   3.7427   3.9363   3.9384   4.1516   4.2958
     4.5293   4.5577   4.8009   4.8466   4.9030   4.9416   5.2264   5.4004
     5.7841   5.8675   5.9968   6.2288   6.2610   6.4884   6.6480   6.7055
     6.8461   6.9724   7.2270   7.3504   7.4145   7.6823   7.7573   8.0005
     8.1347   8.3110   8.3161   8.4600   8.5947   8.6166   8.7381   8.8825
     9.0838   9.3415   9.3838   9.4075   9.5978   9.6710   9.7359   9.7536
     9.8155   9.9082   9.9537  10.1412  10.1629  10.2898  10.3164  10.4119
    10.4215  10.6482  10.7438  10.7950  10.9312  11.0385  11.0418  11.2355
    11.3853  11.4426  11.4483  11.6964  11.7909  11.8925  11.9577  12.0985
    12.3069  12.4189  12.4950  12.5024  12.6297  12.6754  12.6879  12.8382
    12.8388  12.9707  13.0305  13.1907  13.2241  13.3248  13.4821  13.5468
    13.6211  13.6652  13.7833  13.8101  13.9017  13.9145  13.9667  14.0491
    14.1260  14.2478  14.2768  14.3353  14.4250  14.5220  14.5455  14.5885
    14.7181  14.7727  14.8084  14.8560  14.8797  14.9306  15.0047  15.0352
    15.1014  15.2293  15.2965  15.3875  15.4996  15.5661  15.6542  15.7220
    15.8836  15.9522  16.0880  16.1156  16.1934  16.2293  16.2668  16.4218
    16.5246  16.5760  16.6330  16.6911  16.7794  16.8516  16.8876  17.0010
    17.1275  17.1279  17.2005  17.3203  17.3544  17.4890  17.5489  17.6542
    17.7019  17.7221  17.7646  17.8923  17.9769  18.0423  18.1036  18.2010
    18.2235  18.3178  18.3309  18.3987  18.5214  18.5410  18.6641  18.6675
    18.7764  18.8891  18.8911  18.9859  19.0679  19.0829  19.1679  19.3244
    19.4473  19.5139  19.5800  19.6701  19.7789  19.9221  19.9747  19.9959
    20.0617  20.1417  20.2390  20.2467  20.4526  20.4793  20.5470  20.6046
    20.6467  20.7525  20.7862  20.8070  20.8616  20.8911  20.9711  21.0499
    21.1396  21.1773  21.2699  21.3144  21.4068  21.4597  21.5135  21.5156
    21.6466  21.6519  21.7648  21.8252  21.9169  21.9437  22.0946  22.1233
    22.1711  22.2504  22.2724  22.3495  22.3562  22.4082  22.4566  22.5371
    22.5462  22.6161  22.6350  22.7183

     the Fermi energy is     0.2598 ev

!    total energy              =   -2139.86262775 Ry
     Harris-Foulkes estimate   =   -2139.86262797 Ry
     estimated scf accuracy    <       0.00000092 Ry

     The total energy is the sum of the following terms:

     one-electron contribution =  -23478.01192004 Ry
     hartree contribution      =   11755.28905145 Ry
     xc contribution           =    -587.20218126 Ry
     ewald contribution        =   10166.94488344 Ry
     Hubbard energy            =       3.11798928 Ry
     smearing contrib. (-TS)   =      -0.00045062 Ry

     convergence has been achieved in  24 iterations

     Forces acting on atoms (Ry/au):


     negative rho (up, down):  0.235E+00 0.000E+00
     atom    1 type  1   force =    -0.00518314   -0.00681621    0.01367632
     atom    2 type  1   force =     0.00002828    0.00989405    0.00128190
     atom    3 type  2   force =    -0.00018027   -0.00450128    0.00405772
     atom    4 type  2   force =     0.00170117    0.00736388   -0.00002877
     atom    5 type  1   force =     0.00153967    0.00689694    0.00199453
     atom    6 type  1   force =     0.00048225   -0.00757103    0.00091710
     atom    7 type  1   force =    -0.00001051   -0.00038000   -0.00073571
     atom    8 type  1   force =     0.00268730   -0.00140845   -0.01251329
     atom    9 type  2   force =    -0.00167847    0.00052767    0.00481620
     atom   10 type  2   force =    -0.00000023   -0.00134211   -0.00779425
     atom   11 type  1   force =     0.00047367    0.00168889   -0.00108392
     atom   12 type  1   force =    -0.00055911   -0.00121852   -0.00079794
     atom   13 type  1   force =    -0.00027301    0.00026318   -0.00377124
     atom   14 type  1   force =    -0.00506861   -0.00679984    0.01375673
     atom   15 type  1   force =    -0.00001022    0.00988514    0.00128503
     atom   16 type  2   force =    -0.00018985   -0.00448769    0.00407073
     atom   17 type  2   force =     0.00177517    0.00736360   -0.00007299
     atom   18 type  1   force =     0.00142014    0.00690859    0.00192058
     atom   19 type  1   force =     0.00035975   -0.00759583    0.00090693
     atom   20 type  1   force =    -0.00009133   -0.00037695   -0.00070579
     atom   21 type  1   force =     0.00254037   -0.00140860   -0.01261003
     atom   22 type  2   force =    -0.00157765    0.00051968    0.00471152
     atom   23 type  2   force =     0.00008082   -0.00134158   -0.00794770
     atom   24 type  1   force =     0.00050925    0.00160012   -0.00107107
     atom   25 type  1   force =    -0.00052620   -0.00112817   -0.00078513
     atom   26 type  1   force =    -0.00044916    0.00026615   -0.00377246
     atom   27 type  3   force =     0.00001150   -0.00389428    0.00021320
     atom   28 type  3   force =     0.00000935   -0.00389089    0.00021871
     atom   29 type  3   force =     0.00112236    0.00049580   -0.00008084
     atom   30 type  3   force =     0.00105673    0.00048775   -0.00005607

     Total force =     0.031196     Total SCF correction =     0.001887

     BFGS Geometry Optimization

     number of scf cycles    =   1
     number of bfgs steps    =   0

     energy   new            =   -2139.8626277531 Ry

     new trust radius        =       0.0137567259 bohr
     new conv_thr            =       0.0000010000 Ry


ATOMIC_POSITIONS (crystal)
O0       0.000000000   0.000000000   0.371258041    0   0   1
O0       0.000000000   0.500000000   0.382035124    0   0   1
Re1      0.250000000   0.500000000   0.441359527    0   0   1
Re1      0.000000000   0.000000000   0.443729436    0   0   1
O0       0.250000000   0.780000000   0.441719091    0   0   1
O0       0.250000000   0.220000000   0.441727974    0   0   1
O0       0.000000000   0.500000000   0.497685581    0   0   1
O0       0.000000000   0.000000000   0.515224753    0   0   1
Re1      0.250000000   0.000000000   0.575584392    0   0   1
Re1      0.000000000   0.500000000   0.567777241    0   0   1
O0       0.250000000   0.720000000   0.573848756    0   0   1
O0       0.250000000   0.280000000   0.573834361    0   0   1
O0       0.000000000   0.000000000   0.627636088    0   0   1
O0       0.500000000   0.000000000   0.371259617    0   0   1
O0       0.500000000   0.500000000   0.382035185    0   0   1
Re1      0.750000000   0.500000000   0.441359782    0   0   1
Re1      0.500000000   0.000000000   0.443728569    0   0   1
O0       0.750000000   0.780000000   0.441727641    0   0   1
O0       0.750000000   0.220000000   0.441727775    0   0   1
O0       0.500000000   0.500000000   0.497686167    0   0   1
O0       0.500000000   0.000000000   0.515222857    0   0   1
Re1      0.750000000   0.000000000   0.575582341    0   0   1
Re1      0.500000000   0.500000000   0.567784234    0   0   1
O0       0.750000000   0.720000000   0.573849008    0   0   1
O0       0.750000000   0.280000000   0.573834612    0   0   1
O0       0.500000000   0.000000000   0.627636064    0   0   1
H2      -0.000378864   0.625445620   0.365334178
H2       0.499620923   0.625445876   0.365334287
H2       0.169980807   0.021857479   0.356818416
H2       0.669984328   0.021856870   0.356818901


     Check: negative starting charge=   -0.237311
     NEW-OLD atomic charge density approx. for the potential

     Check: negative/imaginary core charge=   -0.000003    0.000000
     Check: negative starting charge=   -0.237488

     negative rho (up, down):  0.235E+00 0.000E+00
 Atomic wfc used for LDA+U Projector are NOT orthogonalized

     total cpu time spent up to now is     6313.5 secs

     per-process dynamical memory:   444.8 Mb

     Self-consistent Calculation

     iteration #  1     ecut=    40.00 Ry     beta=0.30
     Davidson diagonalization with overlap
     ethr =  1.00E-06,  avg # of iterations =  3.0
 --- enter write_ns ---
 LDA+U parameters:
U( 2)     =  5.00000000
alpha( 2) =  0.00000000
atom    3   Tr[ns(na)] =   6.62262
    eigenvalues: 
  0.530  0.566  0.595  0.771  0.849
    eigenvectors:
  0.000  0.338  0.001  0.661  0.000
  0.999  0.000  0.000  0.000  0.001
  0.000  0.007  0.985  0.008  0.000
  0.000  0.654  0.014  0.331  0.000
  0.001  0.000  0.000  0.000  0.999
    occupations:
  0.702  0.000  0.014 -0.096  0.000
  0.000  0.530 -0.000 -0.000 -0.008
  0.014 -0.000  0.596 -0.007  0.000
 -0.096 -0.000 -0.007  0.635  0.000
  0.000 -0.008  0.000  0.000  0.849
atom    4   Tr[ns(na)] =   6.58152
    eigenvalues: 
  0.570  0.598  0.606  0.727  0.789
    eigenvectors:
  0.000  0.001  0.988  0.001  0.009
  0.000  0.007  0.001  0.991  0.000
  0.000  0.991  0.001  0.008  0.000
  0.000  0.000  0.009  0.000  0.990
  0.999  0.000  0.000  0.000  0.000
    occupations:
  0.608  0.003  0.001 -0.018  0.001
  0.003  0.726  0.011 -0.000 -0.002
  0.001  0.011  0.599  0.001 -0.000
 -0.018 -0.000  0.001  0.788 -0.000
  0.001 -0.002 -0.000 -0.000  0.570
atom    9   Tr[ns(na)] =   6.59693
    eigenvalues: 
  0.588  0.592  0.605  0.752  0.763
    eigenvectors:
  0.000  0.235  0.000  0.087  0.678
  0.000  0.000  0.999  0.000  0.000
  0.998  0.001  0.000  0.000  0.000
  0.001  0.764  0.000  0.025  0.209
  0.000  0.000  0.000  0.888  0.112
    occupations:
  0.722  0.000 -0.001 -0.072  0.003
  0.000  0.605  0.000  0.000  0.000
 -0.001  0.000  0.588  0.001 -0.000
 -0.072  0.000  0.001  0.631 -0.002
  0.003  0.000 -0.000 -0.002  0.753
atom   10   Tr[ns(na)] =   6.57915
    eigenvalues: 
  0.460  0.531  0.676  0.770  0.852
    eigenvectors:
  0.998  0.000  0.000  0.002  0.000
  0.000  0.000  0.000  0.000  1.000
  0.000  0.000  1.000  0.000  0.000
  0.002  0.000  0.000  0.998  0.000
  0.000  1.000  0.000  0.000  0.000
    occupations:
  0.461  0.000 -0.000 -0.012  0.000
  0.000  0.852  0.002 -0.000  0.001
 -0.000  0.002  0.676  0.000  0.000
 -0.012 -0.000  0.000  0.770 -0.000
  0.000  0.001  0.000 -0.000  0.531
atom   16   Tr[ns(na)] =   6.62088
    eigenvalues: 
  0.530  0.566  0.595  0.771  0.848
    eigenvectors:
  0.000  0.339  0.001  0.661  0.000
  0.999  0.000  0.000  0.000  0.001
  0.000  0.007  0.985  0.008  0.000
  0.000  0.654  0.015  0.331  0.000
  0.001  0.000  0.000  0.000  0.999
    occupations:
  0.702  0.000  0.014 -0.096  0.000
  0.000  0.530 -0.000 -0.000 -0.008
  0.014 -0.000  0.596 -0.007  0.000
 -0.096 -0.000 -0.007  0.635  0.000
  0.000 -0.008  0.000  0.000  0.848
atom   17   Tr[ns(na)] =   6.58649
    eigenvalues: 
  0.570  0.599  0.606  0.728  0.790
    eigenvectors:
  0.000  0.002  0.988  0.001  0.009
  0.000  0.007  0.001  0.991  0.000
  0.000  0.991  0.002  0.008  0.000
  0.000  0.000  0.009  0.000  0.990
  0.999  0.000  0.001  0.000  0.000
    occupations:
  0.608  0.003  0.001 -0.018  0.001
  0.003  0.727  0.011 -0.000 -0.002
  0.001  0.011  0.600  0.001 -0.000
 -0.018 -0.000  0.001  0.788 -0.000
  0.001 -0.002 -0.000 -0.000  0.570
atom   22   Tr[ns(na)] =   6.59078
    eigenvalues: 
  0.587  0.591  0.604  0.751  0.762
    eigenvectors:
  0.000  0.234  0.000  0.079  0.686
  0.000  0.000  1.000  0.000  0.000
  0.999  0.001  0.000  0.000  0.000
  0.001  0.764  0.000  0.023  0.212
  0.000  0.000  0.000  0.898  0.102
    occupations:
  0.721  0.000 -0.001 -0.072  0.003
  0.000  0.604  0.000  0.000  0.000
 -0.001  0.000  0.587  0.001  0.000
 -0.072  0.000  0.001  0.631 -0.002
  0.003  0.000  0.000 -0.002  0.752
atom   23   Tr[ns(na)] =   6.57806
    eigenvalues: 
  0.460  0.531  0.676  0.770  0.852
    eigenvectors:
  0.998  0.000  0.000  0.002  0.000
  0.000  0.000  0.000  0.000  1.000
  0.000  0.000  1.000  0.000  0.000
  0.002  0.000  0.000  0.998  0.000
  0.000  1.000  0.000  0.000  0.000
    occupations:
  0.461  0.000 -0.000 -0.012  0.000
  0.000  0.852  0.002 -0.000  0.001
 -0.000  0.002  0.676  0.000  0.000
 -0.012 -0.000  0.000  0.769 -0.000
  0.000  0.001  0.000 -0.000  0.531
N of occupied +U levels =  52.7564360
 --- exit write_ns ---

     negative rho (up, down):  0.235E+00 0.000E+00

     total cpu time spent up to now is     6640.4 secs

     total energy              =   -2139.86323719 Ry
     Harris-Foulkes estimate   =   -2139.86336224 Ry
     estimated scf accuracy    <       0.00035400 Ry

     iteration #  2     ecut=    40.00 Ry     beta=0.30
     Davidson diagonalization with overlap
     ethr =  1.53E-07,  avg # of iterations =  1.0

     negative rho (up, down):  0.235E+00 0.000E+00

     total cpu time spent up to now is     6867.3 secs

     total energy              =   -2139.86323252 Ry
     Harris-Foulkes estimate   =   -2139.86334885 Ry
     estimated scf accuracy    <       0.00057485 Ry

     iteration #  3     ecut=    40.00 Ry     beta=0.30
     Davidson diagonalization with overlap
     ethr =  1.53E-07,  avg # of iterations =  1.0

     negative rho (up, down):  0.235E+00 0.000E+00

     total cpu time spent up to now is     7092.7 secs

     total energy              =   -2139.86323385 Ry
     Harris-Foulkes estimate   =   -2139.86336776 Ry
     estimated scf accuracy    <       0.00201075 Ry

     iteration #  4     ecut=    40.00 Ry     beta=0.30
     Davidson diagonalization with overlap
     ethr =  1.53E-07,  avg # of iterations =  1.0

     negative rho (up, down):  0.235E+00 0.000E+00

     total cpu time spent up to now is     7319.8 secs

     total energy              =   -2139.86329945 Ry
     Harris-Foulkes estimate   =   -2139.86331550 Ry
     estimated scf accuracy    <       0.00015185 Ry

     iteration #  5     ecut=    40.00 Ry     beta=0.30
     Davidson diagonalization with overlap
     ethr =  6.55E-08,  avg # of iterations =  1.0

     negative rho (up, down):  0.235E+00 0.000E+00

     total cpu time spent up to now is     7549.6 secs

     total energy              =   -2139.86330109 Ry
     Harris-Foulkes estimate   =   -2139.86331368 Ry
     estimated scf accuracy    <       0.00009349 Ry

     iteration #  6     ecut=    40.00 Ry     beta=0.30
     Davidson diagonalization with overlap
     ethr =  4.03E-08,  avg # of iterations =  1.0

     negative rho (up, down):  0.235E+00 0.000E+00

     total cpu time spent up to now is     7776.9 secs

     total energy              =   -2139.86330894 Ry
     Harris-Foulkes estimate   =   -2139.86331416 Ry
     estimated scf accuracy    <       0.00008683 Ry

     iteration #  7     ecut=    40.00 Ry     beta=0.30
     Davidson diagonalization with overlap
     ethr =  3.74E-08,  avg # of iterations =  1.0

     negative rho (up, down):  0.235E+00 0.000E+00

     total cpu time spent up to now is     8007.2 secs

     total energy              =   -2139.86331330 Ry
     Harris-Foulkes estimate   =   -2139.86331277 Ry
     estimated scf accuracy    <       0.00000898 Ry

     iteration #  8     ecut=    40.00 Ry     beta=0.30
     Davidson diagonalization with overlap
     ethr =  3.87E-09,  avg # of iterations =  1.0

     negative rho (up, down):  0.235E+00 0.000E+00

     total cpu time spent up to now is     8235.4 secs

     total energy              =   -2139.86331501 Ry
     Harris-Foulkes estimate   =   -2139.86331387 Ry
     estimated scf accuracy    <       0.00000555 Ry

     iteration #  9     ecut=    40.00 Ry     beta=0.30
     Davidson diagonalization with overlap
     ethr =  2.39E-09,  avg # of iterations =  1.0

     negative rho (up, down):  0.235E+00 0.000E+00

     total cpu time spent up to now is     8463.8 secs

     total energy              =   -2139.86331620 Ry
     Harris-Foulkes estimate   =   -2139.86331544 Ry
     estimated scf accuracy    <       0.00000407 Ry

     iteration # 10     ecut=    40.00 Ry     beta=0.30
     Davidson diagonalization with overlap
     ethr =  1.75E-09,  avg # of iterations =  1.0

     negative rho (up, down):  0.235E+00 0.000E+00

     total cpu time spent up to now is     8693.2 secs

     total energy              =   -2139.86331715 Ry
     Harris-Foulkes estimate   =   -2139.86331648 Ry
     estimated scf accuracy    <       0.00000332 Ry

     iteration # 11     ecut=    40.00 Ry     beta=0.30
     Davidson diagonalization with overlap
     ethr =  1.43E-09,  avg # of iterations =  1.0

     negative rho (up, down):  0.235E+00 0.000E+00

     total cpu time spent up to now is     8914.3 secs

     total energy              =   -2139.86331806 Ry
     Harris-Foulkes estimate   =   -2139.86331739 Ry
     estimated scf accuracy    <       0.00000285 Ry

     iteration # 12     ecut=    40.00 Ry     beta=0.30
     Davidson diagonalization with overlap
     ethr =  1.23E-09,  avg # of iterations =  1.0

     negative rho (up, down):  0.235E+00 0.000E+00

     total cpu time spent up to now is     9135.7 secs

     total energy              =   -2139.86331893 Ry
     Harris-Foulkes estimate   =   -2139.86331832 Ry
     estimated scf accuracy    <       0.00000250 Ry

     iteration # 13     ecut=    40.00 Ry     beta=0.30
     Davidson diagonalization with overlap
[...]
    -3.5098  -3.5098  -3.1596  -3.1596  -2.9913  -2.9912  -2.9238  -2.9237
    -1.4215  -1.4215  -1.2454  -1.2454  -0.9589  -0.9589  -0.8805  -0.8805
    -0.7797  -0.7796  -0.4865  -0.4865  -0.2737  -0.2737   0.2365   0.2365
     0.4650   0.4650   0.8449   0.8449   1.5318   1.5319   2.0334   2.0334
     2.1684   2.1684   4.0576   4.0577   4.3643   4.3643   4.5945   4.5945
     4.7698   4.7699   4.8887   4.8888   4.9814   4.9814   5.3125   5.3128
     5.8190   5.8192   6.0395   6.0404   6.2970   6.2976   6.6763   6.6767
     6.8496   6.8502   7.3379   7.3382   7.7689   7.7692   7.8487   7.8491
     8.4783   8.4792   8.6731   8.6735   8.6845   8.6848   8.9443   8.9454
     9.0880   9.0888   9.1807   9.1814   9.4132   9.4137   9.5390   9.5400
     9.7179   9.7183   9.7642   9.7645   9.9150   9.9156  10.3076  10.3080
    10.3986  10.3990  10.4621  10.4623  10.6461  10.6463  10.7288  10.7291
    10.8951  10.8957  11.4464  11.4467  11.5166  11.5168  11.8969  11.8976
    12.0379  12.0386  12.1361  12.1365  12.3667  12.3673  12.7402  12.7406
    13.1916  13.1918  13.3655  13.3660  13.4567  13.4571  13.6881  13.6884
    13.8201  13.8205  13.9543  13.9547  14.4276  14.4279  14.4553  14.4554
    14.6217  14.6218  14.8897  14.8901  14.9559  14.9559  15.1206  15.1209
    15.3275  15.3279  15.5218  15.5223  15.5711  15.5716  15.7495  15.7498
    15.9174  15.9175  16.1821  16.1822  16.3815  16.3816  16.4278  16.4283
    16.5561  16.5563  16.6804  16.6807  16.8479  16.8481  16.9735  16.9739
    17.0937  17.0938  17.1792  17.1795  17.3818  17.3821  17.5130  17.5135
    17.7716  17.7720  17.8405  17.8411  17.8833  17.8833  18.0596  18.0599
    18.2011  18.2020  18.2205  18.2207  18.3441  18.3450  18.5552  18.5561
    18.6031  18.6038  18.7459  18.7461  18.8514  18.8522  18.9633  18.9639
    19.1002  19.1003  19.2311  19.2312  19.3835  19.3838  19.4118  19.4119
    19.4244  19.4252  19.5749  19.5751  19.6057  19.6062  19.6733  19.6737
    19.7499  19.7506  19.8465  19.8469  19.9378  19.9383  20.0149  20.0150
    20.1455  20.1458  20.2591  20.2598  20.3195  20.3199  20.4390  20.4392
    20.6787  20.6791  20.8418  20.8421  20.9450  20.9457  20.9756  20.9759
    21.0407  21.0414  21.0830  21.0836  21.2272  21.2278  21.3297  21.3299
    21.4471  21.4474  21.5688  21.5689  21.7493  21.7494  21.8071  21.8072
    22.0396  22.0398  22.2965  22.2969

          k =-0.5000 0.1914 0.0000 ( 29244 PWs)   bands (ev):

   -80.9533 -80.9533 -80.6631 -80.6630 -80.3319 -80.3319 -80.3198 -80.3198
   -42.9257 -42.9257 -42.8828 -42.8826 -42.7670 -42.7667 -42.6929 -42.6929
   -42.5922 -42.5922 -42.5041 -42.5039 -42.4728 -42.4727 -42.4620 -42.4618
   -42.3702 -42.3702 -42.2303 -42.2302 -42.0949 -42.0949 -41.9948 -41.9947
   -20.4500 -20.4498 -20.2623 -20.2622 -19.9720 -19.9716 -19.8850 -19.8848
   -19.7151 -19.7111 -19.3784 -19.3764 -19.3558 -19.3539 -19.2016 -19.2015
   -18.3007 -18.3006  -8.5197  -8.5190  -8.3184  -8.3089  -8.2439  -8.2372
    -8.1582  -8.1475  -8.0807  -8.0794  -7.5475  -7.5360  -7.3483  -7.3364
    -7.2269  -7.2260  -7.0669  -7.0409  -6.6490  -6.6103  -6.4167  -6.3855
    -6.3510  -6.3431  -6.0973  -6.0372  -5.7698  -5.7363  -5.5973  -5.5786
    -5.3845  -5.3735  -5.3110  -5.2808  -5.0307  -5.0144  -4.9011  -4.8396
    -4.7628  -4.7444  -4.4667  -4.4592  -4.0602  -4.0567  -3.5987  -3.5657
    -3.5019  -3.4752  -3.1932  -3.1640  -3.0716  -3.0708  -2.8073  -2.7541
    -1.4784  -1.4775  -1.2371  -1.2364  -1.1369  -1.0815  -0.8386  -0.8292
    -0.6489  -0.6446  -0.4332  -0.4313   0.0313   0.0507   0.2767   0.2772
     0.5639   0.5992   1.0231   1.0504   1.4019   1.4232   1.8817   1.8873
     2.2226   2.2244   3.7614   3.7683   3.8702   3.8715   4.2361   4.2387
     4.5294   4.5325   5.2191   5.2230   5.4113   5.4164   5.6054   5.6107
     5.8209   5.8315   6.2062   6.2088   6.3733   6.3746   6.6907   6.7013
     6.9235   6.9266   7.1367   7.1520   7.6384   7.6407   7.7704   7.7793
     7.8642   7.8744   8.1064   8.1153   8.3761   8.3787   8.6047   8.6369
     8.9771   8.9794   9.1364   9.1538   9.4068   9.4135   9.5383   9.5747
     9.7857   9.8472  10.1589  10.1631  10.3916  10.3964  10.6259  10.6312
    10.7120  10.7297  10.8011  10.8171  10.8686  10.9371  11.1009  11.1432
    11.2612  11.2671  11.5773  11.5792  11.7712  11.7860  12.0136  12.0576
    12.2206  12.2391  12.2836  12.2979  12.7491  12.7627  12.7950  12.8288
    13.0880  13.1173  13.3658  13.4182  13.5549  13.5638  13.7101  13.7228
    13.9146  13.9473  14.0846  14.0849  14.3468  14.3538  14.4662  14.4763
    14.6135  14.6162  14.7602  14.7877  14.8600  14.8904  14.9253  14.9328
    15.0917  15.1287  15.3840  15.3957  15.4355  15.4418  15.6004  15.6059
    15.7394  15.7459  15.8553  15.8669  16.0177  16.0467  16.1627  16.2325
    16.3164  16.3197  16.4297  16.4417  16.5434  16.5671  16.6142  16.6563
    16.7281  16.7343  16.8627  16.8715  17.0268  17.0297  17.1525  17.1672
    17.2399  17.2455  17.2961  17.3051  17.5218  17.5400  17.6133  17.6600
    17.8397  17.8658  17.8913  17.9055  18.0113  18.0383  18.2428  18.2501
    18.2825  18.3007  18.3831  18.4023  18.4870  18.5044  18.6298  18.6324
    18.8394  18.8420  18.9761  18.9925  19.1730  19.1999  19.3011  19.3176
    19.4115  19.4216  19.5899  19.5948  19.6679  19.6707  19.8248  19.8539
    19.9492  19.9658  20.1933  20.2189  20.2749  20.2988  20.4195  20.4318
    20.6198  20.6284  20.7498  20.7542  20.8016  20.8042  20.9465  20.9467
    21.0066  21.0103  21.2119  21.2332  21.3062  21.3131  21.3826  21.3971
    21.6091  21.6118  21.6519  21.6566  21.7780  21.7796  21.8399  21.8457
    21.9173  21.9253  21.9555  21.9618  22.0626  22.0637  22.2959  22.3075
    22.3707  22.3931  22.4336  22.4516

          k =-0.5000-0.3828 0.0000 ( 29192 PWs)   bands (ev):

   -80.9534 -80.9534 -80.6629 -80.6629 -80.3320 -80.3320 -80.3196 -80.3196
   -42.9257 -42.9257 -42.8817 -42.8816 -42.7669 -42.7669 -42.6907 -42.6907
   -42.5922 -42.5922 -42.5071 -42.5071 -42.4727 -42.4727 -42.4611 -42.4611
   -42.3702 -42.3702 -42.2312 -42.2312 -42.0947 -42.0947 -41.9946 -41.9945
   -20.4401 -20.4401 -20.2431 -20.2431 -19.9736 -19.9735 -19.8092 -19.8092
   -19.7924 -19.7924 -19.3921 -19.3921 -19.3718 -19.3718 -19.1997 -19.1997
   -18.3008 -18.3007  -8.4861  -8.4860  -8.2881  -8.2881  -8.2597  -8.2597
    -8.1420  -8.1420  -8.0575  -8.0575  -7.5126  -7.5126  -7.3669  -7.3669
    -7.2106  -7.2106  -7.0138  -7.0138  -6.6780  -6.6780  -6.4374  -6.4374
    -6.2885  -6.2884  -5.9967  -5.9967  -5.7991  -5.7991  -5.6320  -5.6320
    -5.5222  -5.5222  -5.3739  -5.3739  -5.0340  -5.0340  -4.8850  -4.8850
    -4.8255  -4.8255  -4.2147  -4.2147  -4.0668  -4.0667  -3.7275  -3.7275
    -3.4591  -3.4591  -3.2352  -3.2351  -3.1410  -3.1410  -2.6207  -2.6207
    -1.6124  -1.6124  -1.4359  -1.4359  -1.1722  -1.1722  -0.9613  -0.9613
    -0.5640  -0.5640   0.0756   0.0756   0.2368   0.2368   0.6037   0.6037
     0.8615   0.8615   1.0671   1.0672   1.5280   1.5280   1.5624   1.5624
     2.2767   2.2767   3.0434   3.0434   3.1861   3.1861   4.3023   4.3024
     4.5956   4.5956   5.3474   5.3476   5.5955   5.5956   5.9199   5.9200
     6.1574   6.1576   6.3009   6.3011   6.4026   6.4033   6.7589   6.7600
     6.8868   6.8875   7.1124   7.1132   7.2317   7.2322   7.4735   7.4741
     7.6523   7.6529   7.9524   7.9531   8.1726   8.1733   8.5428   8.5432
     8.7401   8.7406   8.8935   8.8940   9.3230   9.3232   9.5868   9.5876
     9.9286   9.9289  10.0973  10.0978  10.5166  10.5167  10.7745  10.7747
    11.0134  11.0136  11.0918  11.0919  11.2953  11.2955  11.5638  11.5644
    11.6850  11.6857  12.1445  12.1448  12.3699  12.3703  12.5156  12.5157
    12.7776  12.7790  12.9351  12.9358  12.9908  12.9915  13.0711  13.0716
    13.2226  13.2236  13.3846  13.3850  13.4571  13.4576  13.5049  13.5052
    13.7372  13.7376  13.7967  13.7972  14.0161  14.0164  14.1479  14.1483
    14.2411  14.2417  14.4256  14.4260  14.5931  14.5936  14.6449  14.6450
    14.7624  14.7626  15.0471  15.0476  15.1601  15.1608  15.2759  15.2762
    15.3989  15.3991  15.6325  15.6330  15.8043  15.8047  15.9036  15.9039
    16.1891  16.1893  16.3057  16.3059  16.3359  16.3362  16.5446  16.5446
    16.6769  16.6773  16.7430  16.7433  16.9835  16.9836  17.2094  17.2097
    17.2334  17.2335  17.3305  17.3309  17.5477  17.5484  17.6409  17.6411
    17.7116  17.7120  17.7549  17.7552  17.9793  17.9796  18.0960  18.0962
    18.1485  18.1487  18.2161  18.2164  18.3432  18.3435  18.4214  18.4217
    18.5170  18.5175  18.5864  18.5867  18.8544  18.8547  18.9178  18.9181
    19.0112  19.0117  19.4336  19.4340  19.5771  19.5774  19.6849  19.6852
    19.8761  19.8766  20.0585  20.0587  20.2223  20.2228  20.4977  20.4981
    20.6581  20.6584  20.7465  20.7470  20.8024  20.8027  21.0101  21.0103
    21.2179  21.2180  21.2713  21.2714  21.4769  21.4773  21.7390  21.7392
    21.8258  21.8259  22.1148  22.1152  22.2259  22.2263  22.3075  22.3078
    22.4227  22.4228  22.5424  22.5425  22.5720  22.5722  22.7509  22.7512
    22.8717  22.8718  22.9753  22.9754

          k =-0.2500 0.1914 0.0000 ( 29229 PWs)   bands (ev):

   -80.9811 -80.9422 -80.6899 -80.6502 -80.3574 -80.3466 -80.3193 -80.3080
   -43.0641 -42.9550 -42.9286 -42.8921 -42.8237 -42.7660 -42.7234 -42.6576
   -42.6414 -42.5511 -42.5343 -42.5240 -42.4538 -42.4417 -42.4199 -42.3962
   -42.3917 -42.3345 -42.2906 -42.2585 -42.1960 -42.1297 -41.7638 -41.6648
   -20.8191 -20.3730 -20.3498 -20.2429 -20.1026 -19.9943 -19.8868 -19.8257
   -19.7849 -19.6700 -19.4960 -19.3829 -19.3595 -19.1367 -19.1114 -18.9874
   -18.3096 -18.1213  -9.0830  -8.9885  -8.8577  -8.7565  -8.6707  -8.6238
    -8.4822  -8.2521  -8.1664  -7.9957  -7.9844  -7.9067  -7.7216  -7.4313
    -7.3954  -7.1249  -6.8668  -6.7387  -6.6466  -6.6320  -6.5364  -6.2735
    -6.1876  -6.0677  -5.8423  -5.8163  -5.6536  -5.6138  -5.5521  -5.3498
    -5.2294  -5.0642  -4.9513  -4.9158  -4.8822  -4.8011  -4.7019  -4.6946
    -4.6688  -4.5798  -4.2405  -4.0934  -4.0168  -3.8725  -3.8101  -3.6985
    -3.6855  -3.4434  -3.3802  -3.2619  -3.1783  -2.9391  -2.8628  -2.7098
    -2.4512  -2.3706  -2.2011  -1.6460  -1.3699  -1.1512  -1.0528  -0.4675
    -0.2992  -0.0031   0.1542   0.4087   0.4520   0.7179   0.7450   1.1148
     1.2699   1.2861   1.3816   1.4739   1.6030   1.7253   1.7668   1.8628
     2.4288   2.4770   3.7052   3.7797   3.8821   3.9732   4.1115   4.3494
     4.5895   4.6244   4.7858   4.9131   4.9341   4.9776   5.2264   5.4185
     5.7824   5.9352   5.9975   6.2445   6.2474   6.5299   6.7038   6.7067
     6.8490   6.9857   7.2559   7.3564   7.4211   7.6841   7.7716   8.0019
     8.1396   8.3082   8.3522   8.4691   8.5958   8.6346   8.7802   8.8886
     9.0975   9.3389   9.3918   9.4232   9.5998   9.6915   9.7647   9.7699
     9.8420   9.9332   9.9592  10.1598  10.1634  10.3037  10.3060  10.4447
    10.4652  10.6453  10.7599  10.7904  10.9259  11.0504  11.0572  11.2441
    11.3995  11.4524  11.4797  11.7027  11.7927  11.9144  11.9623  12.0913
    12.3107  12.4357  12.5022  12.5159  12.6426  12.6995  12.7031  12.8336
    12.8478  12.9615  13.0405  13.1944  13.2236  13.3255  13.4969  13.5739
    13.6167  13.6696  13.7921  13.8140  13.9037  13.9159  13.9743  14.0552
    14.1317  14.2416  14.2846  14.3392  14.4202  14.5346  14.5634  14.5989
    14.7666  14.7807  14.8159  14.8667  14.8836  14.9468  15.0231  15.0321
    15.1116  15.2336  15.3111  15.3934  15.5068  15.5640  15.6518  15.7216
    15.8856  15.9547  16.0999  16.1205  16.1812  16.2285  16.2765  16.4222
    16.5263  16.5707  16.6275  16.6970  16.7859  16.8619  16.8775  17.0190
    17.1159  17.1234  17.2084  17.3265  17.3450  17.4874  17.5488  17.6629
    17.7118  17.7361  17.7795  17.9013  17.9900  18.0500  18.1457  18.2003
    18.2398  18.3269  18.3399  18.4119  18.5324  18.5651  18.6619  18.6838
    18.7853  18.8913  18.8951  18.9849  19.0778  19.0824  19.1898  19.3298
    19.4706  19.5267  19.5957  19.6554  19.8090  19.9408  19.9778  20.0072
    20.0912  20.1682  20.2452  20.2543  20.4754  20.5092  20.5445  20.6165
    20.6598  20.7729  20.7748  20.8214  20.8793  20.8990  20.9667  21.0452
    21.1415  21.1879  21.2703  21.3142  21.4341  21.4518  21.5256  21.5306
    21.6565  21.6579  21.7606  21.8388  21.9185  21.9584  22.1029  22.1399
    22.1890  22.2528  22.2758  22.3366  22.3600  22.4322  22.4705  22.5441
    22.5450  22.6188  22.6285  22.7164

     the Fermi energy is     0.3287 ev

!    total energy              =   -2139.86539268 Ry
     Harris-Foulkes estimate   =   -2139.86539268 Ry
     estimated scf accuracy    <          3.6E-09 Ry

     The total energy is the sum of the following terms:

     one-electron contribution =  -23551.41970888 Ry
     hartree contribution      =   11792.17528308 Ry
     xc contribution           =    -587.34061052 Ry
     ewald contribution        =   10203.63279732 Ry
     Hubbard energy            =       3.08576027 Ry
     smearing contrib. (-TS)   =       0.00108605 Ry

     convergence has been achieved in  15 iterations

     Forces acting on atoms (Ry/au):


     negative rho (up, down):  0.235E+00 0.000E+00
     atom    1 type  1   force =    -0.00458617   -0.00630079   -0.00069239
     atom    2 type  1   force =     0.00000040    0.00535531    0.00033819
     atom    3 type  2   force =    -0.00032616   -0.00261155   -0.00000056
     atom    4 type  2   force =     0.00144909    0.00659395   -0.00005284
     atom    5 type  1   force =     0.00180303    0.00919877    0.00027147
     atom    6 type  1   force =     0.00010166   -0.00966332    0.00016694
     atom    7 type  1   force =     0.00011648   -0.00128244   -0.00022607
     atom    8 type  1   force =     0.00262155   -0.00113285    0.00069501
     atom    9 type  2   force =    -0.00163919    0.00063057    0.00027128
     atom   10 type  2   force =     0.00001790   -0.00103613   -0.00078243
     atom   11 type  1   force =     0.00032041   -0.00852128    0.00040163
     atom   12 type  1   force =    -0.00033735    0.00887117    0.00038500
     atom   13 type  1   force =    -0.00032228    0.00012874   -0.00007892
     atom   14 type  1   force =    -0.00457519   -0.00630009   -0.00069422
     atom   15 type  1   force =     0.00000466    0.00534975    0.00033864
     atom   16 type  2   force =    -0.00033667   -0.00261123   -0.00000231
     atom   17 type  2   force =     0.00144904    0.00659400   -0.00005367
     atom   18 type  1   force =     0.00180105    0.00919655    0.00026438
     atom   19 type  1   force =     0.00009874   -0.00966221    0.00016906
     atom   20 type  1   force =     0.00011716   -0.00128165   -0.00022527
     atom   21 type  1   force =     0.00261930   -0.00113325    0.00068972
     atom   22 type  2   force =    -0.00166217    0.00063060    0.00027101
     atom   23 type  2   force =     0.00001953   -0.00103634   -0.00079203
     atom   24 type  1   force =     0.00031704   -0.00852452    0.00040031
     atom   25 type  1   force =    -0.00033904    0.00887424    0.00038321
     atom   26 type  1   force =    -0.00032706    0.00012965   -0.00008966
     atom   27 type  3   force =     0.00000425   -0.00051036   -0.00020789
     atom   28 type  3   force =     0.00000397   -0.00051262   -0.00020553
     atom   29 type  3   force =     0.00079491    0.00028346   -0.00047162
     atom   30 type  3   force =     0.00079110    0.00028388   -0.00047045

     Total force =     0.002635     Total SCF correction =     0.000169

     bfgs converged in  16 scf cycles and  14 bfgs steps
     (criteria: energy < 0.10E-03, force < 0.10E-02)

     End of BFGS Geometry Optimization

     Final energy   =   -2139.8653926822 Ry
Begin final coordinates

ATOMIC_POSITIONS (crystal)
O0       0.000000000   0.000000000   0.372422978    0   0   1
O0       0.000000000   0.500000000   0.381606632    0   0   1
Re1      0.250000000   0.500000000   0.440823991    0   0   1
Re1      0.000000000   0.000000000   0.444568822    0   0   1
O0       0.250000000   0.780000000   0.442363086    0   0   1
O0       0.250000000   0.220000000   0.442223743    0   0   1
O0       0.000000000   0.500000000   0.496839969    0   0   1
O0       0.000000000   0.000000000   0.515572740    0   0   1
Re1      0.250000000   0.000000000   0.575864216    0   0   1
Re1      0.000000000   0.500000000   0.566308229    0   0   1
O0       0.250000000   0.720000000   0.573277330    0   0   1
O0       0.250000000   0.280000000   0.573294637    0   0   1
O0       0.000000000   0.000000000   0.628005204    0   0   1
O0       0.500000000   0.000000000   0.372422644    0   0   1
O0       0.500000000   0.500000000   0.381606849    0   0   1
Re1      0.750000000   0.500000000   0.440824148    0   0   1
Re1      0.500000000   0.000000000   0.444568756    0   0   1
O0       0.750000000   0.780000000   0.442364236    0   0   1
O0       0.750000000   0.220000000   0.442223521    0   0   1
O0       0.500000000   0.500000000   0.496840341    0   0   1
O0       0.500000000   0.000000000   0.515572983    0   0   1
Re1      0.750000000   0.000000000   0.575864238    0   0   1
Re1      0.500000000   0.500000000   0.566308967    0   0   1
O0       0.750000000   0.720000000   0.573277761    0   0   1
O0       0.750000000   0.280000000   0.573295114    0   0   1
O0       0.500000000   0.000000000   0.628005940    0   0   1
H2      -0.000420976   0.624131513   0.364341778
H2       0.499579413   0.624130352   0.364341330
H2       0.169318874   0.022473029   0.358064846
H2       0.669320958   0.022470975   0.358064972
End final coordinates



     init_run     :    145.30s CPU    148.57s WALL (       1 calls)
     electrons    :  61250.43s CPU  62892.20s WALL (      16 calls)
     update_pot   :    290.01s CPU    296.87s WALL (      15 calls)
     forces       :   3136.78s CPU   3273.94s WALL (      16 calls)

     Called by init_run:
     wfcinit      :     36.22s CPU     37.06s WALL (       1 calls)
     potinit      :      7.01s CPU      7.28s WALL (       1 calls)

     Called by electrons:
     c_bands      :  25249.02s CPU  25946.94s WALL (     272 calls)
     sum_band     :  13722.26s CPU  14105.81s WALL (     272 calls)
     v_of_rho     :    273.20s CPU    297.50s WALL (     279 calls)
     newd         :  23235.96s CPU  23433.45s WALL (     279 calls)
     mix_rho      :     48.07s CPU     48.92s WALL (     272 calls)

     Called by c_bands:
     init_us_2    :     74.39s CPU     75.30s WALL (    1779 calls)
     cegterg      :  24684.30s CPU  25291.42s WALL (     816 calls)

     Called by *egterg:
     h_psi        :  14993.90s CPU  15360.15s WALL (    2108 calls)
     s_psi        :   1702.82s CPU   1723.65s WALL (    2204 calls)
     g_psi        :     29.65s CPU     29.68s WALL (    1289 calls)
     cdiaghg      :   1832.11s CPU   1837.34s WALL (    2033 calls)

     Called by h_psi:
     add_vuspsi   :   1640.75s CPU   1662.87s WALL (    2108 calls)
     vhpsi        :   1499.21s CPU   1512.35s WALL (    2108 calls)

     General routines
     calbec       :   3879.87s CPU   3926.37s WALL (   19000 calls)
     fft          :    394.55s CPU    526.84s WALL (    4627 calls)
     ffts         :      4.72s CPU      4.84s WALL (     551 calls)
     fftw         :   8211.83s CPU   8608.66s WALL ( 1473378 calls)
     interpolate  :     39.67s CPU     40.24s WALL (     551 calls)
     davcio       :      0.14s CPU     28.76s WALL (    1827 calls)

     Parallel routines
     fft_scatter  :   3091.75s CPU   3603.00s WALL ( 1478556 calls)
     Hubbard U routines
     new_ns       :    315.13s CPU    332.36s WALL (     272 calls)
     vhpsi        :   1499.21s CPU   1512.35s WALL (    2108 calls)
     force_hub    :    602.15s CPU    610.60s WALL (      16 calls)

     PWSCF        :    18h26m CPU       18h56m WALL


   This run was terminated on:   9:34:53  16May2014            

=------------------------------------------------------------------------------=
   JOB DONE.
=------------------------------------------------------------------------------=
