
     Program PWSCF v.5.0.2 (svn rev. 9656) starts on 24Jan2014 at 15:25:43 

     This program is part of the open-source Quantum ESPRESSO suite
     for quantum simulation of materials; please cite
         "P. Giannozzi et al., J. Phys.:Condens. Matter 21 395502 (2009);
          URL http://www.quantum-espresso.org", 
     in publications or presentations arising from this work. More details at
     http://www.quantum-espresso.org/quote.php

     Parallel version (MPI), running on     4 processors
     R & G space division:  proc/nbgrp/npool/nimage =       4

     Current dimensions of program PWSCF are:
     Max number of different atomic species (ntypx) = 10
     Max number of k-points (npk) =  40000
     Max angular momentum in pseudopotentials (lmaxx) =  3
     Reading input from TiO2-v-0.95.in

     Subspace diagonalization in iterative solution of the eigenvalue problem:
     a serial algorithm will be used


     Parallelization info
     --------------------
     sticks:   dense  smooth     PW     G-vecs:    dense   smooth      PW
     Min         739     237     72                19469     3525     580
     Max         740     238     74                19472     3532     581
     Sum        2957     949    293                77883    14115    2321



     bravais-lattice index     =            0
     lattice parameter (alat)  =       8.6146  a.u.
     unit-cell volume          =     411.9976 (a.u.)^3
     number of atoms/cell      =            6
     number of atomic types    =            2
     number of electrons       =        48.00
     number of Kohn-Sham states=           69
     kinetic-energy cutoff     =      40.0000  Ry
     charge density cutoff     =     500.0000  Ry
     convergence threshold     =      1.0E-06
     mixing beta               =       0.3000
     number of iterations used =            8  plain     mixing
     Exchange-correlation      = SLA  PW   PBE  PBE ( 1 4 3 4 0)
     EXX-fraction              =        0.00
     nstep                     =           50


     celldm(1)=   8.614626  celldm(2)=   0.000000  celldm(3)=   0.000000
     celldm(4)=   0.000000  celldm(5)=   0.000000  celldm(6)=   0.000000

     crystal axes: (cart. coord. in units of alat)
               a(1) = (   1.000000   0.000000   0.000000 )  
               a(2) = (   0.000000   1.000000   0.000000 )  
               a(3) = (   0.000000   0.000000   0.644444 )  

     reciprocal axes: (cart. coord. in units 2 pi/alat)
               b(1) = (  1.000000  0.000000  0.000000 )  
               b(2) = (  0.000000  1.000000  0.000000 )  
               b(3) = (  0.000000  0.000000  1.551724 )  


     PseudoPot. # 1 for Ti read from file:
     /home/camp/zhonxu/pseudo/ti_pbe_v1.uspp.F.UPF
     MD5 check sum: bcc8f6961b3b91f0cac3ca967d22d0fb
     Pseudo is Ultrasoft + core correction, Zval = 12.0
     Generated by new atomic code, or converted to UPF format
     Using radial grid of  851 points,  6 beta functions with: 
                l(1) =   0
                l(2) =   0
                l(3) =   1
                l(4) =   1
                l(5) =   2
                l(6) =   2
     Q(r) pseudized with  6 coefficients,  rinner =    1.000   1.000   1.000
                                                       1.000   1.000

     PseudoPot. # 2 for O  read from file:
     /home/camp/zhonxu/pseudo/o_pbe_v1.01.uspp.F.UPF
     MD5 check sum: 2bcb18d16ea4b960afae9ec6d52f22d2
     Pseudo is Ultrasoft + core correction, Zval =  6.0
     Generated by new atomic code, or converted to UPF format
     Using radial grid of  737 points,  5 beta functions with: 
                l(1) =   0
                l(2) =   0
                l(3) =   1
                l(4) =   1
                l(5) =   2
     Q(r) pseudized with  8 coefficients,  rinner =    0.900   0.900   0.900
                                                       0.900   0.900

     atomic species   valence    mass     pseudopotential
        Ti0           12.00    47.88000     Ti( 1.00)
        O1             6.00    15.99940     O ( 1.00)

     Starting magnetic structure 
     atomic species   magnetization
        Ti0          0.600
        O1           0.000

     16 Sym. Ops., with inversion, found ( 8 have fractional translation)



   Cartesian axes

     site n.     atom                  positions (alat units)
         1           Ti0 tau(   1) = (   0.0000000   0.0000000   0.0000000  )
         2           Ti0 tau(   2) = (   0.5000000   0.5000000   0.3222222  )
         3           O1  tau(   3) = (   0.3050000   0.3050000   0.0000000  )
         4           O1  tau(   4) = (  -0.3050000  -0.3050000   0.0000000  )
         5           O1  tau(   5) = (   0.8050000   0.1950000   0.3222222  )
         6           O1  tau(   6) = (   0.1950000   0.8050000   0.3222222  )

     number of k points=    36  Methfessel-Paxton smearing, width (Ry)=  0.0100
                       cart. coord. in units 2pi/alat
        k(    1) = (   0.0000000   0.0000000   0.0000000), wk =   0.0080000
        k(    2) = (   0.0000000   0.0000000   0.3103448), wk =   0.0160000
        k(    3) = (   0.0000000   0.0000000   0.6206897), wk =   0.0160000
        k(    4) = (   0.0000000   0.2000000   0.0000000), wk =   0.0320000
        k(    5) = (   0.0000000   0.2000000   0.3103448), wk =   0.0640000
        k(    6) = (   0.0000000   0.2000000   0.6206897), wk =   0.0640000
        k(    7) = (   0.0000000   0.4000000   0.0000000), wk =   0.0320000
        k(    8) = (   0.0000000   0.4000000   0.3103448), wk =   0.0640000
        k(    9) = (   0.0000000   0.4000000   0.6206897), wk =   0.0640000
        k(   10) = (   0.2000000   0.2000000   0.0000000), wk =   0.0320000
        k(   11) = (   0.2000000   0.2000000   0.3103448), wk =   0.0640000
        k(   12) = (   0.2000000   0.2000000   0.6206897), wk =   0.0640000
        k(   13) = (   0.2000000   0.4000000   0.0000000), wk =   0.0640000
        k(   14) = (   0.2000000   0.4000000   0.3103448), wk =   0.1280000
        k(   15) = (   0.2000000   0.4000000   0.6206897), wk =   0.1280000
        k(   16) = (   0.4000000   0.4000000   0.0000000), wk =   0.0320000
        k(   17) = (   0.4000000   0.4000000   0.3103448), wk =   0.0640000
        k(   18) = (   0.4000000   0.4000000   0.6206897), wk =   0.0640000
        k(   19) = (   0.0000000   0.0000000   0.0000000), wk =   0.0080000
        k(   20) = (   0.0000000   0.0000000   0.3103448), wk =   0.0160000
        k(   21) = (   0.0000000   0.0000000   0.6206897), wk =   0.0160000
        k(   22) = (   0.0000000   0.2000000   0.0000000), wk =   0.0320000
        k(   23) = (   0.0000000   0.2000000   0.3103448), wk =   0.0640000
        k(   24) = (   0.0000000   0.2000000   0.6206897), wk =   0.0640000
        k(   25) = (   0.0000000   0.4000000   0.0000000), wk =   0.0320000
        k(   26) = (   0.0000000   0.4000000   0.3103448), wk =   0.0640000
        k(   27) = (   0.0000000   0.4000000   0.6206897), wk =   0.0640000
        k(   28) = (   0.2000000   0.2000000   0.0000000), wk =   0.0320000
        k(   29) = (   0.2000000   0.2000000   0.3103448), wk =   0.0640000
        k(   30) = (   0.2000000   0.2000000   0.6206897), wk =   0.0640000
        k(   31) = (   0.2000000   0.4000000   0.0000000), wk =   0.0640000
        k(   32) = (   0.2000000   0.4000000   0.3103448), wk =   0.1280000
        k(   33) = (   0.2000000   0.4000000   0.6206897), wk =   0.1280000
        k(   34) = (   0.4000000   0.4000000   0.0000000), wk =   0.0320000
        k(   35) = (   0.4000000   0.4000000   0.3103448), wk =   0.0640000
        k(   36) = (   0.4000000   0.4000000   0.6206897), wk =   0.0640000

     Dense  grid:    77883 G-vectors     FFT dimensions: (  64,  64,  40)

     Smooth grid:    14115 G-vectors     FFT dimensions: (  36,  36,  24)

     Largest allocated arrays     est. size (Mb)     dimensions
        Kohn-Sham Wavefunctions         0.47 Mb     (    448,   69)
        NL pseudopotentials             0.60 Mb     (    448,   88)
        Each V/rho on FFT grid          1.25 Mb     (  40960,   2)
        Each G-vector array             0.15 Mb     (  19471)
        G-vector shells                 0.15 Mb     (  19471)
     Largest temporary arrays     est. size (Mb)     dimensions
        Auxiliary wavefunctions         1.89 Mb     (    448,  276)
        Each subspace H/S matrix        1.16 Mb     ( 276, 276)
        Each <psi_i|beta_j> matrix      0.09 Mb     (     88,   69)
        Arrays for rho mixing           5.00 Mb     (  40960,   8)

     Check: negative/imaginary core charge=   -0.000015    0.000000

     Initial potential from superposition of free atoms
     Check: negative starting charge=(component1):   -0.020371
     Check: negative starting charge=(component2):   -0.004999

     starting charge   45.99991, renormalised to   48.00000

     negative rho (up, down):  0.213E-01 0.522E-02
     Starting wfc are   36 randomized atomic wfcs

     total cpu time spent up to now is       10.1 secs

     per-process dynamical memory:    43.9 Mb

     Self-consistent Calculation

     iteration #  1     ecut=    40.00 Ry     beta=0.30
     Davidson diagonalization with overlap
     ethr =  1.00E-02,  avg # of iterations =  5.1

     negative rho (up, down):  0.191E-01 0.830E-02

     total cpu time spent up to now is       44.7 secs

     total energy              =    -365.45999970 Ry
     Harris-Foulkes estimate   =    -365.20745447 Ry
     estimated scf accuracy    <       2.57865791 Ry

     total magnetization       =     0.00 Bohr mag/cell
     absolute magnetization    =     1.77 Bohr mag/cell

     iteration #  2     ecut=    40.00 Ry     beta=0.30
     Davidson diagonalization with overlap
     ethr =  5.37E-03,  avg # of iterations =  1.0

     negative rho (up, down):  0.162E-01 0.985E-02

     total cpu time spent up to now is       59.4 secs

     total energy              =    -365.98169351 Ry
     Harris-Foulkes estimate   =    -365.74047164 Ry
     estimated scf accuracy    <       0.81742506 Ry

     total magnetization       =     0.14 Bohr mag/cell
     absolute magnetization    =     3.07 Bohr mag/cell

     iteration #  3     ecut=    40.00 Ry     beta=0.30
     Davidson diagonalization with overlap
     ethr =  1.70E-03,  avg # of iterations =  1.0

     negative rho (up, down):  0.105E-01 0.150E-01

     total cpu time spent up to now is       74.3 secs

     total energy              =    -366.42028821 Ry
     Harris-Foulkes estimate   =    -366.05419875 Ry
     estimated scf accuracy    <       0.48427586 Ry

     total magnetization       =    -0.00 Bohr mag/cell
     absolute magnetization    =     1.83 Bohr mag/cell

     iteration #  4     ecut=    40.00 Ry     beta=0.30
     Davidson diagonalization with overlap
     ethr =  1.01E-03,  avg # of iterations =  1.0

     negative rho (up, down):  0.107E-01 0.146E-01

     total cpu time spent up to now is       88.5 secs

     total energy              =    -366.48295884 Ry
     Harris-Foulkes estimate   =    -366.49100275 Ry
     estimated scf accuracy    <       0.06088885 Ry

     total magnetization       =    -0.00 Bohr mag/cell
     absolute magnetization    =     0.71 Bohr mag/cell

     iteration #  5     ecut=    40.00 Ry     beta=0.30
     Davidson diagonalization with overlap
     ethr =  1.27E-04,  avg # of iterations =  1.9

     negative rho (up, down):  0.120E-01 0.132E-01

     total cpu time spent up to now is      103.8 secs

     total energy              =    -366.48676869 Ry
     Harris-Foulkes estimate   =    -366.48589874 Ry
     estimated scf accuracy    <       0.01466074 Ry

     total magnetization       =    -0.00 Bohr mag/cell
     absolute magnetization    =     0.58 Bohr mag/cell

     iteration #  6     ecut=    40.00 Ry     beta=0.30
     Davidson diagonalization with overlap
     ethr =  3.05E-05,  avg # of iterations =  1.7

     negative rho (up, down):  0.127E-01 0.127E-01

     total cpu time spent up to now is      118.8 secs

     total energy              =    -366.49023921 Ry
     Harris-Foulkes estimate   =    -366.48999718 Ry
     estimated scf accuracy    <       0.00121143 Ry

     total magnetization       =     0.00 Bohr mag/cell
     absolute magnetization    =     0.28 Bohr mag/cell

     iteration #  7     ecut=    40.00 Ry     beta=0.30
     Davidson diagonalization with overlap
     ethr =  2.52E-06,  avg # of iterations =  3.7

     negative rho (up, down):  0.127E-01 0.127E-01

     total cpu time spent up to now is      138.3 secs

     total energy              =    -366.49133662 Ry
     Harris-Foulkes estimate   =    -366.49174537 Ry
     estimated scf accuracy    <       0.00146874 Ry

     total magnetization       =     0.00 Bohr mag/cell
     absolute magnetization    =     0.05 Bohr mag/cell

     iteration #  8     ecut=    40.00 Ry     beta=0.30
     Davidson diagonalization with overlap
     ethr =  2.52E-06,  avg # of iterations =  1.1

     negative rho (up, down):  0.127E-01 0.127E-01

     total cpu time spent up to now is      152.3 secs

     total energy              =    -366.49176564 Ry
     Harris-Foulkes estimate   =    -366.49181076 Ry
     estimated scf accuracy    <       0.00023368 Ry

     total magnetization       =     0.00 Bohr mag/cell
     absolute magnetization    =     0.04 Bohr mag/cell

     iteration #  9     ecut=    40.00 Ry     beta=0.30
     Davidson diagonalization with overlap
     ethr =  4.87E-07,  avg # of iterations =  1.0

     negative rho (up, down):  0.127E-01 0.127E-01

     total cpu time spent up to now is      166.1 secs

     total energy              =    -366.49180873 Ry
     Harris-Foulkes estimate   =    -366.49181455 Ry
     estimated scf accuracy    <       0.00003295 Ry

     total magnetization       =    -0.00 Bohr mag/cell
     absolute magnetization    =     0.01 Bohr mag/cell

     iteration # 10     ecut=    40.00 Ry     beta=0.30
     Davidson diagonalization with overlap
     ethr =  6.86E-08,  avg # of iterations =  1.0

     negative rho (up, down):  0.127E-01 0.127E-01

     total cpu time spent up to now is      179.9 secs

     total energy              =    -366.49182017 Ry
     Harris-Foulkes estimate   =    -366.49182077 Ry
     estimated scf accuracy    <       0.00000914 Ry

     total magnetization       =     0.00 Bohr mag/cell
     absolute magnetization    =     0.00 Bohr mag/cell

     iteration # 11     ecut=    40.00 Ry     beta=0.30
     Davidson diagonalization with overlap
     ethr =  1.90E-08,  avg # of iterations =  1.0

     negative rho (up, down):  0.127E-01 0.127E-01

     total cpu time spent up to now is      193.8 secs

     total energy              =    -366.49182128 Ry
     Harris-Foulkes estimate   =    -366.49182083 Ry
     estimated scf accuracy    <       0.00000107 Ry

     total magnetization       =     0.00 Bohr mag/cell
     absolute magnetization    =     0.00 Bohr mag/cell

     iteration # 12     ecut=    40.00 Ry     beta=0.30
     Davidson diagonalization with overlap
     ethr =  2.22E-09,  avg # of iterations =  1.0

     negative rho (up, down):  0.127E-01 0.127E-01

     total cpu time spent up to now is      207.5 secs

     End of self-consistent calculation

 ------ SPIN UP ------------


          k = 0.0000 0.0000 0.0000 (  1787 PWs)   bands (ev):

   -47.3114 -47.2923 -23.6603 -23.6603 -23.4764 -23.4764 -23.4292 -23.3890
    -8.8226  -7.6166  -6.8091  -6.8091   3.6105   4.0079   4.4180   5.5650
     5.5650   6.8973   6.8973   7.4810   8.7818   9.0375   9.0375   9.4827
    11.4350  11.7624  11.9797  12.0775  12.0775  14.0736  14.2219  16.3506
    16.3506  17.3610  17.5829  21.3168  21.3168  24.1966  25.3134  26.3271
    28.1907  29.0028  29.2264  29.2264  31.1377  32.7422  33.8034  33.8034
    34.8299  35.4112  35.4112  35.7521  35.9905  35.9905  36.6913  38.6061
    41.3973  41.8547  41.9984  42.2436  42.2436  43.3422  43.8354  43.8354
    45.9860  46.5328  46.5328  46.8658  49.5382

          k = 0.0000 0.0000 0.3103 (  1767 PWs)   bands (ev):

   -47.2939 -47.2784 -23.6144 -23.6144 -23.6000 -23.5697 -23.4695 -23.4695
    -8.4077  -7.3895  -7.0068  -7.0068   4.1728   4.4290   4.8836   5.3055
     5.3055   6.4670   7.4589   7.5087   7.5087   8.3121   8.3121   9.2132
    11.7981  12.0503  12.1889  12.5436  12.5436  13.8927  14.5874  15.8984
    15.8984  16.7444  18.7225  22.7349  22.7349  24.3001  24.7801  26.8446
    27.3806  28.0726  28.6611  28.6611  29.6542  32.9639  33.1715  33.1715
    34.6201  34.6201  35.1184  35.7967  36.6193  38.7036  38.7824  38.7824
    39.9744  39.9744  40.9310  41.5223  44.4289  45.3932  45.3974  45.3974
    45.7297  47.7394  47.7394  48.0419  48.9186

          k = 0.0000 0.0000 0.6207 (  1755 PWs)   bands (ev):

   -47.2636 -47.2576 -23.8636 -23.8531 -23.5265 -23.5265 -23.4707 -23.4707
    -7.5795  -7.3230  -7.3230  -7.1589   4.9381   4.9662   5.5194   5.5194
     5.6102   6.0399   6.1795   7.0286   7.0286   7.9223   7.9981   7.9981
    12.1275  12.4841  12.8740  13.0463  13.1936  13.1936  15.1104  15.4930
    15.7296  15.7296  21.0031  23.1562  24.7397  24.8139  24.8139  25.6998
    27.4070  27.4070  27.6547  27.7802  28.5194  30.3893  32.4959  32.4959
    34.8441  34.8441  36.2067  36.7544  37.0566  38.7191  39.2414  39.2414
    39.8232  41.9967  41.9967  42.4002  45.1845  45.2005  45.2005  45.2506
    47.4140  48.0021  48.1441  48.1443  48.2637

          k = 0.0000 0.2000 0.0000 (  1775 PWs)   bands (ev):

   -47.3095 -47.2941 -23.6463 -23.6449 -23.4935 -23.4921 -23.4253 -23.3928
    -8.6762  -7.6247  -6.9507  -6.8681   3.8668   4.1729   4.6909   5.5813
     5.5916   6.6552   6.8302   7.5030   8.3472   8.5302   8.7362   9.3323
    11.6516  12.0160  12.2359  12.2635  12.2930  14.0104  14.3909  16.2166
    16.2432  17.1072  18.0614  21.1889  21.6327  24.2299  25.0629  26.1199
    27.9930  29.1247  29.3822  29.7063  31.5117  32.2028  32.5285  32.5404
    33.9253  35.1646  35.6455  35.8658  36.2142  36.7076  38.8534  39.2837
    40.0943  41.5033  42.2887  42.5648  42.5881  43.5853  44.2039  44.9388
    45.9679  46.7561  47.0819  47.6802  48.8895

          k = 0.0000 0.2000 0.3103 (  1774 PWs)   bands (ev):

   -47.2924 -47.2799 -23.6229 -23.6036 -23.5785 -23.5773 -23.4806 -23.4766
    -8.2876  -7.3734  -7.1389  -7.0461   4.3606   4.6096   4.9051   5.2681
     5.6382   6.3499   6.8505   7.4429   7.4608   8.2575   8.2763   9.1025
    11.8222  12.3181  12.3414  12.4965  12.7397  13.7359  14.7918  15.5434
    15.8181  16.8222  19.1187  22.3173  22.9630  24.5758  24.8603  26.4462
    27.1697  27.8961  28.0515  29.4258  30.0382  31.8053  32.2643  33.4429
    34.4923  34.5168  35.9833  36.3679  36.7286  38.1803  38.5947  38.9761
    39.8132  40.5437  41.2676  42.6436  44.3457  44.9478  45.9126  46.0081
    46.0927  47.0821  47.3590  48.2728  48.4123

          k = 0.0000 0.2000 0.6207 (  1756 PWs)   bands (ev):

   -47.2630 -47.2582 -23.8672 -23.8586 -23.5198 -23.5176 -23.4751 -23.4731
    -7.6484  -7.4714  -7.2085  -7.0437   4.8034   4.9186   5.0876   5.4082
     5.8884   6.0599   6.6582   7.0354   7.2117   7.8151   7.9141   8.2090
    11.8539  12.5327  12.6006  12.8762  13.3188  13.4043  14.9325  14.9795
    16.0300  16.3711  21.0658  22.9072  24.0993  25.0049  25.2898  25.5785
    26.8542  27.0096  27.8099  27.9956  28.9480  29.9780  32.1877  32.7031
    35.0230  35.2290  36.3588  36.7693  37.4245  38.6472  38.8922  39.4944
    40.4057  41.5141  41.8217  42.5889  43.8519  45.2382  45.7068  45.8917
    46.8223  47.5868  47.6975  48.5961  49.1017

          k = 0.0000 0.4000 0.0000 (  1758 PWs)   bands (ev):

   -47.3047 -47.2988 -23.6121 -23.6095 -23.5317 -23.5291 -23.4153 -23.4028
    -8.2863  -7.8264  -7.0993  -7.0055   4.3326   4.4644   5.5752   5.6159
     5.6270   6.2913   6.5057   6.9758   7.6577   8.0399   8.5865   8.9221
    12.0135  12.1899  12.5372  12.5934  12.8530  13.4915  15.2787  16.0037
    16.0340  16.3304  19.2256  20.4597  22.5561  23.7497  25.1793  25.7773
    27.9197  28.8105  29.2777  30.3334  30.4150  31.7004  32.4799  32.9229
    33.7404  33.9849  35.7005  35.7360  36.8761  37.3761  38.0920  38.2766
    41.8698  42.1957  42.5346  42.9657  43.3439  44.0526  45.4336  46.2539
    46.6830  47.0520  47.6411  47.7094  47.9878

          k = 0.0000 0.4000 0.3103 (  1766 PWs)   bands (ev):

   -47.2885 -47.2837 -23.6192 -23.6026 -23.5692 -23.5540 -23.5030 -23.4951
    -7.9650  -7.5550  -7.2397  -7.1421   4.7658   4.9475   5.1174   5.2208
     6.0080   6.1459   6.4956   6.9429   7.1522   7.7422   8.5513   8.8548
    12.1058  12.3632  12.6304  12.7064  13.0710  13.3678  15.0311  15.1205
    15.9523  16.5176  20.1292  21.3129  23.6987  24.6271  25.2234  25.9121
    26.8557  27.1142  28.0422  29.2594  30.3651  31.1435  32.0754  33.6905
    34.4684  34.6416  36.0558  36.6211  36.6979  37.3534  38.9814  39.2823
    39.5288  41.0241  42.1424  42.9846  44.4679  44.8887  45.9012  47.0823
    47.1639  47.4010  48.0599  48.3559  48.6873

          k = 0.0000 0.4000 0.6207 (  1750 PWs)   bands (ev):

   -47.2615 -47.2596 -23.8718 -23.8684 -23.5041 -23.4986 -23.4872 -23.4819
    -7.6924  -7.6302  -7.0492  -6.9799   4.5121   4.6108   5.2104   5.3977
     5.9386   6.4125   6.5515   7.1071   7.5695   7.5982   8.0971   8.5237
    11.5389  11.8703  12.7672  12.8661  13.4593  13.4815  14.6281  14.7274
    16.5685  16.7729  21.4302  22.1773  23.9885  24.4784  25.6172  25.9605
    26.3208  26.5402  27.9317  28.4524  28.7587  29.0804  32.5926  33.2448
    35.5958  35.7703  36.6882  36.7594  37.8506  37.9461  38.5928  38.8524
    39.8289  40.8070  42.9117  43.2144  44.6716  44.9647  46.0173  46.2544
    46.5681  47.0330  48.7975  48.8521  49.2564

          k = 0.2000 0.2000 0.0000 (  1762 PWs)   bands (ev):

   -47.3080 -47.2955 -23.6653 -23.6078 -23.5329 -23.4734 -23.4222 -23.3959
    -8.5636  -7.6637  -7.0646  -6.8585   3.8007   4.4759   4.9157   5.5399
     5.6310   6.4175   6.9702   7.5541   7.9544   8.4305   8.5620   9.2244
    11.5225  12.0848  12.1724  12.5201  12.5686  13.8899  14.5955  16.0184
    16.3467  16.8395  18.5486  21.3861  21.6216  24.2566  24.7600  25.7400
    27.9275  28.9978  29.7462  30.3579  31.7916  31.9081  32.3886  32.4246
    32.4501  34.5755  34.7800  36.0401  37.3550  37.5560  39.2882  39.7901
    39.8829  41.2586  41.6494  42.6016  43.5605  43.7644  44.8136  44.9010
    45.8473  47.0294  47.3854  47.7614  48.4880

          k = 0.2000 0.2000 0.3103 (  1764 PWs)   bands (ev):

   -47.2911 -47.2810 -23.6186 -23.6122 -23.5856 -23.5577 -23.5001 -23.4670
    -8.1911  -7.3863  -7.2348  -7.0504   4.2700   4.8521   4.9125   5.3531
     5.7936   6.1549   6.9727   7.0978   7.5042   8.1929   8.3369   8.9586
    11.8649  12.0774  12.4667  12.7891  12.7972  13.6130  14.8602  15.3944
    15.8995  16.7211  19.4877  22.2883  22.8159  24.7448  24.8956  25.7581
    27.1311  27.7534  28.9289  29.0190  30.0780  31.3321  31.7884  33.5831
    34.5332  34.5537  35.8588  36.0027  37.4617  38.5213  38.5494  39.1226
    39.9594  40.7489  41.7891  42.4943  44.4988  45.0407  45.5223  46.1793
    46.4939  47.3915  48.0295  48.1695  48.4516

          k = 0.2000 0.2000 0.6207 (  1750 PWs)   bands (ev):

   -47.2625 -47.2586 -23.8699 -23.8584 -23.5286 -23.4999 -23.4855 -23.4701
    -7.6909  -7.3585  -7.3293  -6.9852   4.6185   5.0292   5.0825   5.2313
     5.5427   6.5401   6.8033   7.0787   7.0900   7.8442   8.0012   8.4092
    11.7070  12.6198  12.6269  12.8042  12.9920  13.5870  14.5882  15.5097
    15.7236  16.6278  21.0932  22.9361  23.3065  24.8590  25.3907  25.9581
    26.2861  27.3951  27.7700  28.1452  28.6194  30.6017  31.3829  33.0957
    34.9451  35.1823  35.8753  37.5506  37.9677  38.6398  38.7772  39.6907
    41.2980  41.4269  42.0585  42.9851  43.3967  44.5922  44.9159  46.1378
    46.9666  47.1300  48.1262  48.7200  48.9593

          k = 0.2000 0.4000 0.0000 (  1766 PWs)   bands (ev):

   -47.3041 -47.2993 -23.6533 -23.6163 -23.5260 -23.4877 -23.4140 -23.4040
    -8.2644  -7.8962  -7.0824  -6.9570   4.0141   4.4239   5.5511   5.6067
     5.6249   6.4280   6.7904   7.4188   7.7690   8.1270   8.2817   8.7537
    11.7636  12.1044  12.2704  12.5702  13.0227  13.5258  15.2704  16.0159
    16.1376  16.2255  19.6223  20.7492  22.5184  23.7342  24.7319  25.2186
    27.9483  28.5468  30.2359  30.7209  30.7980  31.8463  32.3672  32.5413
    32.6335  33.5955  35.0352  36.5147  36.5809  37.6740  38.6939  39.4537
    41.7264  41.8197  41.8774  42.6313  42.9746  44.0900  45.6624  46.2743
    46.7264  47.0363  47.2508  47.8166  48.2076

          k = 0.2000 0.4000 0.3103 (  1757 PWs)   bands (ev):

   -47.2880 -47.2841 -23.6204 -23.6090 -23.5848 -23.5587 -23.4966 -23.4748
    -7.9355  -7.6130  -7.2187  -7.1224   4.4628   4.8849   4.9278   5.1242
     6.1786   6.4273   6.7572   7.1874   7.3486   7.8531   8.3178   8.6296
    12.1247  12.2584  12.4366  12.7333  13.0130  13.3057  15.0799  15.4092
    15.9348  16.3742  20.3765  21.4386  23.4727  24.5580  25.0198  25.1653
    27.1550  27.5228  28.3797  29.1623  30.0559  30.7047  32.2490  33.8507
    34.2600  34.5412  36.0988  36.3454  37.2690  37.5902  38.7371  39.4354
    40.5399  41.2771  42.2647  42.9687  43.9724  45.2406  45.4412  46.3604
    47.3023  47.8209  48.1045  48.4611  48.7356

          k = 0.2000 0.4000 0.6207 (  1753 PWs)   bands (ev):

   -47.2613 -47.2598 -23.8693 -23.8632 -23.5219 -23.5039 -23.4828 -23.4729
    -7.6682  -7.5393  -7.1410  -7.0023   4.4797   4.6366   5.1551   5.3118
     5.6841   6.3034   6.8491   6.9987   7.5463   7.8524   8.2882   8.6306
    11.6282  12.0512  12.7311  12.8273  13.1536  13.4558  14.6643  15.0861
    16.2793  16.6807  21.3582  22.0974  23.3922  24.2225  25.4314  25.7635
    26.9084  27.2012  27.3665  28.0289  28.9585  29.9117  32.2537  33.5684
    35.0210  35.4516  35.7143  36.8992  38.0998  38.3545  39.3431  40.4389
    40.6389  41.7950  43.0084  43.1125  44.1111  44.6012  44.9182  46.0301
    46.6790  47.1267  47.6912  48.7547  49.1549

          k = 0.4000 0.4000 0.0000 (  1774 PWs)   bands (ev):

   -47.3026 -47.3008 -23.6735 -23.6581 -23.4845 -23.4684 -23.4108 -23.4070
    -8.1868  -8.0489  -7.0004  -6.9356   3.8278   4.0260   5.4987   5.5297
     6.1158   6.6129   7.1772   7.6218   8.0114   8.0250   8.1907   8.5818
    11.4931  11.7522  12.0981  12.2777  13.3177  13.5019  15.4133  15.7446
    16.2218  16.3400  20.4486  21.0544  22.6091  23.3526  24.3367  24.5733
    28.0190  28.3063  30.8837  31.2127  31.4344  31.4651  31.5898  31.9774
    32.7430  33.1602  36.0016  36.1664  36.7149  37.3568  39.2673  39.8483
    41.3778  41.4938  42.0363  42.4459  42.6915  42.7497  46.2303  47.0252
    47.3051  47.3868  47.4205  47.7704  49.5413

          k = 0.4000 0.4000 0.3103 (  1755 PWs)   bands (ev):

   -47.2867 -47.2853 -23.6256 -23.6209 -23.5877 -23.5765 -23.4725 -23.4630
    -7.8532  -7.7348  -7.1630  -7.1187   4.2799   4.4752   4.8389   4.9169
     6.7528   6.9203   7.0346   7.5069   7.7067   7.8077   8.0082   8.1319
    12.0574  12.2729  12.2817  12.4611  13.0229  13.1452  15.4399  15.6778
    15.8940  16.0708  20.9487  21.4679  23.2973  23.8851  24.9835  24.9954
    27.2429  27.2940  28.6105  28.8230  30.0269  30.5910  32.6486  33.6333
    34.1085  34.2236  36.6161  37.1865  37.5385  38.0575  38.4892  38.7061
    41.2920  41.7250  42.4940  42.6384  44.2230  44.5105  45.5462  45.7607
    47.9590  48.0472  48.4721  48.6644  49.1341

          k = 0.4000 0.4000 0.6207 (  1752 PWs)   bands (ev):

   -47.2608 -47.2602 -23.8618 -23.8581 -23.5320 -23.5238 -23.4723 -23.4693
    -7.5515  -7.4147  -7.2628  -7.1205   4.5091   4.6719   4.9159   5.0480
     5.8047   6.0645   6.9088   6.9386   7.8754   8.0388   8.5656   8.7301
    11.9451  12.3525  12.6794  12.7358  12.7935  13.1212  15.0718  15.6680
    15.7108  16.2858  21.2851  21.5997  23.4555  24.2284  24.5637  25.2202
    27.0103  27.1541  27.9524  28.3643  29.2109  29.7612  32.9298  33.8614
    34.9153  34.9219  35.3914  36.1731  38.5612  38.6475  40.3166  41.0957
    42.3892  42.8041  43.2379  43.7029  43.8777  44.5090  44.6519  45.2664
    46.1713  46.8874  47.5793  48.3612  48.6997

 ------ SPIN DOWN ----------


          k = 0.0000 0.0000 0.0000 (  1787 PWs)   bands (ev):

   -47.3114 -47.2923 -23.6604 -23.6604 -23.4765 -23.4765 -23.4293 -23.3891
    -8.8224  -7.6165  -6.8089  -6.8089   3.6106   4.0081   4.4181   5.5650
     5.5650   6.8975   6.8975   7.4812   8.7820   9.0376   9.0376   9.4828
    11.4349  11.7624  11.9797  12.0775  12.0775  14.0735  14.2218  16.3505
    16.3505  17.3609  17.5831  21.3170  21.3170  24.1968  25.3137  26.3273
    28.1908  29.0031  29.2265  29.2265  31.1379  32.7425  33.8036  33.8036
    34.8301  35.4113  35.4113  35.7524  35.9907  35.9907  36.6915  38.6063
    41.3975  41.8547  41.9986  42.2439  42.2439  43.3423  43.8356  43.8356
    45.9862  46.5330  46.5330  46.8660  49.5383

          k = 0.0000 0.0000 0.3103 (  1767 PWs)   bands (ev):

   -47.2939 -47.2784 -23.6144 -23.6144 -23.6001 -23.5697 -23.4696 -23.4696
    -8.4075  -7.3894  -7.0067  -7.0067   4.1730   4.4292   4.8837   5.3056
     5.3056   6.4671   7.4590   7.5088   7.5088   8.3123   8.3123   9.2132
    11.7981  12.0502  12.1888  12.5435  12.5435  13.8927  14.5872  15.8984
    15.8984  16.7443  18.7227  22.7351  22.7351  24.3003  24.7804  26.8447
    27.3809  28.0726  28.6612  28.6612  29.6543  32.9642  33.1717  33.1717
    34.6203  34.6203  35.1185  35.7969  36.6194  38.7039  38.7826  38.7826
    39.9746  39.9746  40.9312  41.5225  44.4291  45.3934  45.3976  45.3976
    45.7299  47.7396  47.7396  48.0420  48.9188

          k = 0.0000 0.0000 0.6207 (  1755 PWs)   bands (ev):

   -47.2636 -47.2577 -23.8636 -23.8532 -23.5266 -23.5266 -23.4707 -23.4707
    -7.5793  -7.3228  -7.3228  -7.1588   4.9382   4.9663   5.5196   5.5196
     5.6104   6.0400   6.1796   7.0287   7.0287   7.9224   7.9982   7.9982
    12.1275  12.4840  12.8739  13.0463  13.1935  13.1935  15.1103  15.4929
    15.7295  15.7295  21.0033  23.1565  24.7399  24.8141  24.8141  25.7000
    27.4072  27.4072  27.6549  27.7803  28.5195  30.3894  32.4960  32.4960
    34.8443  34.8443  36.2069  36.7546  37.0568  38.7193  39.2416  39.2416
    39.8233  41.9969  41.9969  42.4004  45.1847  45.2007  45.2007  45.2508
    47.4142  48.1444  48.1444  48.2638  48.2639

          k = 0.0000 0.2000 0.0000 (  1775 PWs)   bands (ev):

   -47.3096 -47.2941 -23.6464 -23.6450 -23.4936 -23.4922 -23.4254 -23.3929
    -8.6760  -7.6245  -6.9506  -6.8680   3.8669   4.1730   4.6910   5.5813
     5.5917   6.6554   6.8304   7.5032   8.3473   8.5303   8.7363   9.3324
    11.6515  12.0159  12.2358  12.2635  12.2930  14.0103  14.3908  16.2165
    16.2431  17.1072  18.0616  21.1891  21.6329  24.2301  25.0631  26.1201
    27.9931  29.1248  29.3825  29.7064  31.5118  32.2030  32.5287  32.5406
    33.9255  35.1648  35.6457  35.8659  36.2145  36.7078  38.8536  39.2839
    40.0945  41.5035  42.2890  42.5649  42.5884  43.5855  44.2042  44.9390
    45.9682  46.7562  47.0821  47.6804  48.8897

          k = 0.0000 0.2000 0.3103 (  1774 PWs)   bands (ev):

   -47.2924 -47.2799 -23.6230 -23.6037 -23.5785 -23.5774 -23.4807 -23.4767
    -8.2874  -7.3732  -7.1387  -7.0460   4.3608   4.6098   4.9052   5.2682
     5.6383   6.3501   6.8506   7.4430   7.4609   8.2576   8.2764   9.1025
    11.8221  12.3181  12.3413  12.4964  12.7397  13.7358  14.7917  15.5434
    15.8181  16.8222  19.1189  22.3175  22.9632  24.5760  24.8606  26.4463
    27.1700  27.8961  28.0516  29.4260  30.0384  31.8055  32.2645  33.4431
    34.4925  34.5170  35.9835  36.3680  36.7288  38.1805  38.5949  38.9763
    39.8135  40.5439  41.2679  42.6439  44.3459  44.9480  45.9127  46.0082
    46.0929  47.0823  47.3592  48.2729  48.4124

          k = 0.0000 0.2000 0.6207 (  1756 PWs)   bands (ev):

   -47.2630 -47.2583 -23.8673 -23.8587 -23.5199 -23.5177 -23.4751 -23.4731
    -7.6482  -7.4713  -7.2084  -7.0435   4.8036   4.9187   5.0878   5.4084
     5.8885   6.0600   6.6583   7.0355   7.2119   7.8152   7.9142   8.2090
    11.8539  12.5327  12.6005  12.8761  13.3187  13.4043  14.9324  14.9794
    16.0300  16.3711  21.0661  22.9074  24.0995  25.0052  25.2900  25.5788
    26.8544  27.0098  27.8100  27.9957  28.9481  29.9781  32.1879  32.7033
    35.0232  35.2293  36.3590  36.7695  37.4247  38.6474  38.8923  39.4945
    40.4059  41.5143  41.8219  42.5890  43.8521  45.2384  45.7070  45.8919
    46.8225  47.5870  47.6977  48.5963  49.1018

          k = 0.0000 0.4000 0.0000 (  1758 PWs)   bands (ev):

   -47.3048 -47.2989 -23.6122 -23.6096 -23.5318 -23.5292 -23.4153 -23.4029
    -8.2861  -7.8262  -7.0991  -7.0054   4.3328   4.4646   5.5753   5.6160
     5.6271   6.2915   6.5059   6.9760   7.6578   8.0401   8.5866   8.9222
    12.0134  12.1899  12.5372  12.5933  12.8530  13.4915  15.2786  16.0037
    16.0339  16.3303  19.2258  20.4599  22.5563  23.7499  25.1796  25.7775
    27.9198  28.8106  29.2779  30.3336  30.4153  31.7007  32.4800  32.9231
    33.7405  33.9851  35.7006  35.7362  36.8764  37.3763  38.0922  38.2768
    41.8700  42.1959  42.5348  42.9659  43.3441  44.0529  45.4339  46.2540
    46.6832  47.0522  47.6414  47.7096  47.9879

          k = 0.0000 0.4000 0.3103 (  1766 PWs)   bands (ev):

   -47.2885 -47.2837 -23.6193 -23.6026 -23.5693 -23.5541 -23.5031 -23.4952
    -7.9649  -7.5548  -7.2396  -7.1419   4.7660   4.9476   5.1175   5.2209
     6.0081   6.1460   6.4957   6.9431   7.1523   7.7423   8.5513   8.8549
    12.1058  12.3632  12.6303  12.7063  13.0710  13.3678  15.0310  15.1204
    15.9523  16.5175  20.1294  21.3131  23.6989  24.6273  25.2237  25.9124
    26.8559  27.1144  28.0423  29.2596  30.3652  31.1436  32.0755  33.6907
    34.4686  34.6419  36.0560  36.6213  36.6981  37.3536  38.9816  39.2824
    39.5290  41.0243  42.1426  42.9849  44.4681  44.8889  45.9015  47.0825
    47.1640  47.4012  48.0601  48.3561  48.6874

          k = 0.0000 0.4000 0.6207 (  1750 PWs)   bands (ev):

   -47.2615 -47.2597 -23.8718 -23.8684 -23.5042 -23.4987 -23.4873 -23.4820
    -7.6923  -7.6301  -7.0491  -6.9798   4.5122   4.6109   5.2106   5.3978
     5.9388   6.4127   6.5516   7.1073   7.5696   7.5983   8.0972   8.5238
    11.5389  11.8703  12.7671  12.8661  13.4593  13.4814  14.6280  14.7273
    16.5684  16.7728  21.4304  22.1775  23.9887  24.4786  25.6174  25.9608
    26.3210  26.5405  27.9319  28.4525  28.7588  29.0805  32.5928  33.2450
    35.5960  35.7705  36.6884  36.7596  37.8508  37.9463  38.5931  38.8526
    39.8291  40.8072  42.9118  43.2146  44.6717  44.9649  46.0175  46.2545
    46.5682  47.0332  48.7977  48.8523  49.2565

          k = 0.2000 0.2000 0.0000 (  1762 PWs)   bands (ev):

   -47.3081 -47.2956 -23.6654 -23.6079 -23.5329 -23.4734 -23.4222 -23.3959
    -8.5635  -7.6635  -7.0645  -6.8584   3.8009   4.4761   4.9158   5.5399
     5.6311   6.4176   6.9704   7.5543   7.9545   8.4306   8.5622   9.2245
    11.5224  12.0848  12.1723  12.5201  12.5685  13.8899  14.5954  16.0183
    16.3467  16.8395  18.5488  21.3863  21.6218  24.2569  24.7602  25.7402
    27.9275  28.9979  29.7465  30.3580  31.7917  31.9084  32.3888  32.4249
    32.4503  34.5757  34.7802  36.0403  37.3552  37.5562  39.2884  39.7902
    39.8832  41.2588  41.6496  42.6017  43.5606  43.7646  44.8137  44.9012
    45.8476  47.0296  47.3856  47.7616  48.5965

          k = 0.2000 0.2000 0.3103 (  1764 PWs)   bands (ev):

   -47.2912 -47.2811 -23.6187 -23.6123 -23.5856 -23.5578 -23.5002 -23.4671
    -8.1909  -7.3861  -7.2346  -7.0503   4.2701   4.8523   4.9127   5.3532
     5.7937   6.1550   6.9729   7.0979   7.5043   8.1931   8.3370   8.9587
    11.8649  12.0773  12.4666  12.7891  12.7972  13.6130  14.8601  15.3943
    15.8995  16.7211  19.4879  22.2884  22.8161  24.7450  24.8959  25.7583
    27.1314  27.7534  28.9290  29.0192  30.0781  31.3322  31.7886  33.5833
    34.5335  34.5539  35.8590  36.0029  37.4619  38.5215  38.5495  39.1227
    39.9595  40.7492  41.7893  42.4945  44.4990  45.0408  45.5225  46.1795
    46.4941  47.3916  48.0296  48.1697  48.4518

          k = 0.2000 0.2000 0.6207 (  1750 PWs)   bands (ev):

   -47.2626 -47.2587 -23.8699 -23.8585 -23.5287 -23.4999 -23.4856 -23.4702
    -7.6907  -7.3584  -7.3292  -6.9851   4.6187   5.0293   5.0827   5.2314
     5.5429   6.5403   6.8034   7.0789   7.0902   7.8442   8.0012   8.4093
    11.7069  12.6198  12.6269  12.8041  12.9920  13.5869  14.5881  15.5096
    15.7235  16.6278  21.0934  22.9364  23.3067  24.8592  25.3909  25.9584
    26.2864  27.3952  27.7702  28.1454  28.6195  30.6018  31.3830  33.0958
    34.9453  35.1824  35.8755  37.5508  37.9679  38.6401  38.7773  39.6909
    41.2982  41.4270  42.0587  42.9852  43.3969  44.5924  44.9160  46.1380
    46.9668  47.1302  48.1265  48.7203  48.9595

          k = 0.2000 0.4000 0.0000 (  1766 PWs)   bands (ev):

   -47.3042 -47.2994 -23.6534 -23.6163 -23.5261 -23.4878 -23.4141 -23.4040
    -8.2642  -7.8961  -7.0823  -6.9568   4.0142   4.4240   5.5512   5.6068
     5.6250   6.4281   6.7905   7.4189   7.7691   8.1272   8.2818   8.7538
    11.7635  12.1044  12.2704  12.5701  13.0227  13.5257  15.2703  16.0159
    16.1375  16.2255  19.6225  20.7494  22.5186  23.7344  24.7322  25.2189
    27.9484  28.5469  30.2360  30.7212  30.7982  31.8466  32.3674  32.5414
    32.6337  33.5956  35.0354  36.5149  36.5811  37.6742  38.6940  39.4538
    41.7267  41.8199  41.8777  42.6315  42.9749  44.0902  45.6626  46.2745
    46.7266  47.0365  47.2510  47.8169  48.2078

          k = 0.2000 0.4000 0.3103 (  1757 PWs)   bands (ev):

   -47.2880 -47.2842 -23.6205 -23.6090 -23.5849 -23.5588 -23.4967 -23.4748
    -7.9353  -7.6129  -7.2186  -7.1223   4.4630   4.8851   4.9279   5.1243
     6.1787   6.4274   6.7573   7.1875   7.3487   7.8532   8.3178   8.6297
    12.1247  12.2584  12.4365  12.7332  13.0130  13.3057  15.0798  15.4091
    15.9347  16.3742  20.3767  21.4388  23.4729  24.5582  25.0201  25.1656
    27.1552  27.5229  28.3799  29.1625  30.0560  30.7049  32.2491  33.8509
    34.2602  34.5414  36.0990  36.3456  37.2692  37.5904  38.7373  39.4357
    40.5400  41.2772  42.2649  42.9689  43.9726  45.2408  45.4414  46.3606
    47.3025  47.8211  48.1046  48.4612  48.7358

          k = 0.2000 0.4000 0.6207 (  1753 PWs)   bands (ev):

   -47.2613 -47.2598 -23.8694 -23.8632 -23.5220 -23.5039 -23.4829 -23.4730
    -7.6681  -7.5392  -7.1409  -7.0022   4.4798   4.6368   5.1552   5.3120
     5.6843   6.3036   6.8493   6.9989   7.5464   7.8525   8.2883   8.6306
    11.6282  12.0512  12.7310  12.8272  13.1535  13.4558  14.6641  15.0860
    16.2792  16.6806  21.3585  22.0977  23.3925  24.2227  25.4317  25.7637
    26.9086  27.2013  27.3666  28.0290  28.9587  29.9119  32.2538  33.5686
    35.0211  35.4518  35.7145  36.8993  38.1000  38.3547  39.3433  40.4391
    40.6391  41.7952  43.0085  43.1126  44.1113  44.6014  44.9183  46.0303
    46.6792  47.1269  47.6914  48.7549  49.1551

          k = 0.4000 0.4000 0.0000 (  1774 PWs)   bands (ev):

   -47.3027 -47.3008 -23.6736 -23.6582 -23.4846 -23.4684 -23.4109 -23.4071
    -8.1867  -8.0487  -7.0003  -6.9354   3.8279   4.0262   5.4988   5.5298
     6.1159   6.6130   7.1773   7.6219   8.0116   8.0251   8.1909   8.5819
    11.4930  11.7522  12.0980  12.2777  13.3176  13.5018  15.4132  15.7445
    16.2217  16.3399  20.4488  21.0546  22.6092  23.3528  24.3370  24.5736
    28.0191  28.3063  30.8838  31.2128  31.4347  31.4654  31.5901  31.9777
    32.7431  33.1603  36.0018  36.1666  36.7152  37.3570  39.2674  39.8485
    41.3779  41.4940  42.0365  42.4461  42.6916  42.7499  46.2304  47.0253
    47.3053  47.3870  47.4207  47.7705  49.5415

          k = 0.4000 0.4000 0.3103 (  1755 PWs)   bands (ev):

   -47.2868 -47.2853 -23.6257 -23.6210 -23.5878 -23.5766 -23.4726 -23.4631
    -7.8531  -7.7347  -7.1629  -7.1186   4.2800   4.4754   4.8390   4.9170
     6.7529   6.9204   7.0347   7.5069   7.7069   7.8078   8.0084   8.1320
    12.0573  12.2728  12.2817  12.4610  13.0228  13.1451  15.4398  15.6777
    15.8939  16.0707  20.9489  21.4681  23.2974  23.8853  24.9838  24.9957
    27.2431  27.2942  28.6106  28.8232  30.0272  30.5912  32.6487  33.6335
    34.1087  34.2238  36.6163  37.1866  37.5387  38.0577  38.4894  38.7063
    41.2921  41.7252  42.4941  42.6385  44.2232  44.5107  45.5465  45.7609
    47.9592  48.0474  48.4722  48.6646  49.1464

          k = 0.4000 0.4000 0.6207 (  1752 PWs)   bands (ev):

   -47.2608 -47.2603 -23.8618 -23.8581 -23.5321 -23.5238 -23.4724 -23.4694
    -7.5514  -7.4146  -7.2626  -7.1203   4.5093   4.6720   4.9161   5.0482
     5.8048   6.0646   6.9090   6.9388   7.8754   8.0389   8.5657   8.7302
    11.9451  12.3524  12.6793  12.7357  12.7935  13.1212  15.0717  15.6679
    15.7107  16.2858  21.2854  21.5999  23.4557  24.2286  24.5639  25.2204
    27.0104  27.1542  27.9526  28.3645  29.2111  29.7614  32.9299  33.8616
    34.9155  34.9220  35.3916  36.1732  38.5614  38.6477  40.3168  41.0958
    42.3894  42.8043  43.2382  43.7031  43.8778  44.5092  44.6521  45.2667
    46.1714  46.8875  47.5795  48.3614  48.6999

     the Fermi energy is    10.2460 ev

!    total energy              =    -366.49182207 Ry
     Harris-Foulkes estimate   =    -366.49182143 Ry
     estimated scf accuracy    <       0.00000004 Ry

     The total energy is the sum of the following terms:

     one-electron contribution =    -121.98275956 Ry
     hartree contribution      =      85.19393709 Ry
     xc contribution           =     -63.42291731 Ry
     ewald contribution        =    -266.28008229 Ry
     smearing contrib. (-TS)   =       0.00000000 Ry

     total magnetization       =    -0.00 Bohr mag/cell
     absolute magnetization    =     0.00 Bohr mag/cell

     convergence has been achieved in  12 iterations

     Forces acting on atoms (Ry/au):


     negative rho (up, down):  0.127E-01 0.127E-01
     atom    1 type  1   force =     0.00000000    0.00000000   -0.00000000
     atom    2 type  1   force =     0.00000000    0.00000000    0.00000000
     atom    3 type  2   force =    -0.00631929   -0.00631929    0.00000000
     atom    4 type  2   force =     0.00631929    0.00631929    0.00000000
     atom    5 type  2   force =    -0.00631929    0.00631929    0.00000000
     atom    6 type  2   force =     0.00631929   -0.00631929    0.00000000

     Total force =     0.017874     Total SCF correction =     0.000053


     entering subroutine stress ...


     negative rho (up, down):  0.127E-01 0.127E-01
          total   stress  (Ry/bohr**3)                   (kbar)     P=  102.23
   0.00067816   0.00000000   0.00000000         99.76      0.00      0.00
   0.00000000   0.00067816   0.00000000          0.00     99.76      0.00
   0.00000000   0.00000000   0.00072855          0.00      0.00    107.17

     Volume is kept fixed: isostatic pressure set to zero

     BFGS Geometry Optimization

     number of scf cycles    =   1
     number of bfgs steps    =   0

     enthalpy new            =    -366.4918220691 Ry

     new trust radius        =       0.0089368213 bohr
     new conv_thr            =       0.0000010000 Ry

     new unit-cell volume =    411.99764 a.u.^3 (    61.05175 Ang^3 )

CELL_PARAMETERS (alat=  8.61462572)
   0.999580320   0.000000000   0.000000000
   0.000000000   0.999580320   0.000000000
   0.000000000   0.000000000   0.644985706

ATOMIC_POSITIONS (crystal)
Ti0      0.000000000   0.000000000   0.000000000    0   0   0
Ti0      0.500000000   0.500000000   0.500000000    0   0   0
O1       0.304266447   0.304266447   0.000000000    1   1   0
O1      -0.304266447  -0.304266447   0.000000000    1   1   0
O1       0.804266447   0.195733553   0.500000000    1   1   0
O1       0.195733553   0.804266447   0.500000000    1   1   0


     Check: negative starting charge=(component1):   -0.025370
     NEW-OLD atomic charge density approx. for the potential
     NEW k-points:
        k(    1) = (   0.0000000   0.0000000   0.0000000), wk =   0.0080000
        k(    2) = (   0.0000000   0.0000000   0.3100844), wk =   0.0160000
        k(    3) = (   0.0000000   0.0000000   0.6201688), wk =   0.0160000
        k(    4) = (   0.0000000   0.2000840   0.0000000), wk =   0.0320000
        k(    5) = (   0.0000000   0.2000840   0.3100844), wk =   0.0640000
        k(    6) = (   0.0000000   0.2000840   0.6201688), wk =   0.0640000
        k(    7) = (   0.0000000   0.4001679   0.0000000), wk =   0.0320000
        k(    8) = (   0.0000000   0.4001679   0.3100844), wk =   0.0640000
        k(    9) = (   0.0000000   0.4001679   0.6201688), wk =   0.0640000
        k(   10) = (   0.2000840   0.2000840   0.0000000), wk =   0.0320000
        k(   11) = (   0.2000840   0.2000840   0.3100844), wk =   0.0640000
        k(   12) = (   0.2000840   0.2000840   0.6201688), wk =   0.0640000
        k(   13) = (   0.2000840   0.4001679   0.0000000), wk =   0.0640000
        k(   14) = (   0.2000840   0.4001679   0.3100844), wk =   0.1280000
        k(   15) = (   0.2000840   0.4001679   0.6201688), wk =   0.1280000
        k(   16) = (   0.4001679   0.4001679   0.0000000), wk =   0.0320000
        k(   17) = (   0.4001679   0.4001679   0.3100844), wk =   0.0640000
        k(   18) = (   0.4001679   0.4001679   0.6201688), wk =   0.0640000
        k(   19) = (   0.0000000   0.0000000   0.0000000), wk =   0.0080000
        k(   20) = (   0.0000000   0.0000000   0.3100844), wk =   0.0160000
        k(   21) = (   0.0000000   0.0000000   0.6201688), wk =   0.0160000
        k(   22) = (   0.0000000   0.2000840   0.0000000), wk =   0.0320000
        k(   23) = (   0.0000000   0.2000840   0.3100844), wk =   0.0640000
        k(   24) = (   0.0000000   0.2000840   0.6201688), wk =   0.0640000
        k(   25) = (   0.0000000   0.4001679   0.0000000), wk =   0.0320000
        k(   26) = (   0.0000000   0.4001679   0.3100844), wk =   0.0640000
        k(   27) = (   0.0000000   0.4001679   0.6201688), wk =   0.0640000
        k(   28) = (   0.2000840   0.2000840   0.0000000), wk =   0.0320000
        k(   29) = (   0.2000840   0.2000840   0.3100844), wk =   0.0640000
        k(   30) = (   0.2000840   0.2000840   0.6201688), wk =   0.0640000
        k(   31) = (   0.2000840   0.4001679   0.0000000), wk =   0.0640000
        k(   32) = (   0.2000840   0.4001679   0.3100844), wk =   0.1280000
        k(   33) = (   0.2000840   0.4001679   0.6201688), wk =   0.1280000
        k(   34) = (   0.4001679   0.4001679   0.0000000), wk =   0.0320000
        k(   35) = (   0.4001679   0.4001679   0.3100844), wk =   0.0640000
        k(   36) = (   0.4001679   0.4001679   0.6201688), wk =   0.0640000

     Check: negative/imaginary core charge=   -0.000015    0.000000
     Check: negative starting charge=(component1):   -0.025370

     negative rho (up, down):  0.127E-01 0.127E-01

     total cpu time spent up to now is      241.5 secs

     per-process dynamical memory:    46.2 Mb

     Self-consistent Calculation

     iteration #  1     ecut=    40.00 Ry     beta=0.30
     Davidson diagonalization with overlap
     ethr =  1.00E-06,  avg # of iterations =  3.8

     negative rho (up, down):  0.127E-01 0.127E-01

     total cpu time spent up to now is      269.0 secs

     total energy              =    -366.49207821 Ry
     Harris-Foulkes estimate   =    -366.49210404 Ry
     estimated scf accuracy    <       0.00007690 Ry

     total magnetization       =     0.00 Bohr mag/cell
     absolute magnetization    =     0.00 Bohr mag/cell

     iteration #  2     ecut=    40.00 Ry     beta=0.30
     Davidson diagonalization with overlap
     ethr =  1.60E-07,  avg # of iterations =  1.0

     negative rho (up, down):  0.127E-01 0.127E-01

     total cpu time spent up to now is      282.7 secs

     total energy              =    -366.49207066 Ry
     Harris-Foulkes estimate   =    -366.49208172 Ry
     estimated scf accuracy    <       0.00002278 Ry

     total magnetization       =     0.00 Bohr mag/cell
     absolute magnetization    =     0.00 Bohr mag/cell

     iteration #  3     ecut=    40.00 Ry     beta=0.30
     Davidson diagonalization with overlap
     ethr =  4.75E-08,  avg # of iterations =  1.6

     negative rho (up, down):  0.127E-01 0.127E-01

     total cpu time spent up to now is      297.1 secs

     total energy              =    -366.49207389 Ry
     Harris-Foulkes estimate   =    -366.49207406 Ry
     estimated scf accuracy    <       0.00000241 Ry

     total magnetization       =    -0.00 Bohr mag/cell
     absolute magnetization    =     0.00 Bohr mag/cell

     iteration #  4     ecut=    40.00 Ry     beta=0.30
     Davidson diagonalization with overlap
     ethr =  5.03E-09,  avg # of iterations =  1.1

     negative rho (up, down):  0.127E-01 0.127E-01

     total cpu time spent up to now is      311.0 secs

     End of self-consistent calculation

 ------ SPIN UP ------------


          k = 0.0000 0.0000 0.0000 (  1787 PWs)   bands (ev):

   -47.3183 -47.2991 -23.6659 -23.6659 -23.4834 -23.4834 -23.4369 -23.3965
    -8.8174  -7.6070  -6.8102  -6.8102   3.6165   4.0148   4.4125   5.5845
     5.5845   6.9039   6.9039   7.4722   8.7830   9.0390   9.0390   9.5013
    11.4224  11.7320  11.9597  12.0694  12.0694  14.0869  14.2200  16.3089
    16.3089  17.3901  17.5710  21.2978  21.2978  24.2304  25.2947  26.2893
    28.1751  28.9770  29.2593  29.2593  31.1002  32.7516  33.8349  33.8349
    34.8270  35.4211  35.4211  35.7366  35.9924  35.9924  36.6616  38.6066
    41.4063  41.8117  41.9989  42.2376  42.2376  43.3655  43.8543  43.8543
    45.9589  46.5615  46.5615  46.8122  49.5293

          k = 0.0000 0.0000 0.3101 (  1767 PWs)   bands (ev):

   -47.3010 -47.2855 -23.6207 -23.6207 -23.6050 -23.5744 -23.4765 -23.4765
    -8.4069  -7.3858  -7.0035  -7.0035   4.1743   4.4295   4.8769   5.3172
     5.3172   6.4655   7.4648   7.5179   7.5179   8.3110   8.3110   9.2174
    11.7946  12.0269  12.1756  12.5331  12.5331  13.8944  14.5965  15.8639
    15.8639  16.7737  18.7146  22.7175  22.7175  24.3303  24.7755  26.7976
    27.3670  28.0577  28.6945  28.6945  29.6350  32.9527  33.1704  33.1704
    34.6534  34.6534  35.0896  35.7887  36.5989  38.6771  38.7956  38.7956
    39.9840  39.9840  40.9331  41.5015  44.4127  45.3987  45.3987  45.4078
    45.7281  47.7696  47.7696  48.0090  48.9619

          k = 0.0000 0.0000 0.6202 (  1755 PWs)   bands (ev):

   -47.2711 -47.2651 -23.8646 -23.8540 -23.5345 -23.5345 -23.4772 -23.4772
    -7.5862  -7.3130  -7.3130  -7.1650   4.9301   4.9563   5.5221   5.5221
     5.6170   6.0499   6.1697   7.0260   7.0260   7.9113   8.0081   8.0081
    12.1411  12.4776  12.8652  13.0562  13.1810  13.1810  15.1196  15.5183
    15.6948  15.6948  21.0032  23.1627  24.7584  24.8108  24.8108  25.7020
    27.4410  27.4410  27.6058  27.7613  28.5058  30.3563  32.4915  32.4915
    34.8680  34.8680  36.1768  36.7353  37.0527  38.6894  39.2726  39.2726
    39.8158  41.9963  41.9963  42.3533  45.1697  45.2329  45.2329  45.2798
    47.4303  48.0066  48.1220  48.1220  48.2305

          k = 0.0000 0.2001 0.0000 (  1775 PWs)   bands (ev):

   -47.3164 -47.3009 -23.6517 -23.6503 -23.5008 -23.4993 -23.4330 -23.4003
    -8.6700  -7.6121  -6.9554  -6.8700   3.8760   4.1833   4.6867   5.6015
     5.6125   6.6547   6.8295   7.4925   8.3499   8.5272   8.7406   9.3477
    11.6376  11.9877  12.2312  12.2468  12.2903  14.0067  14.4042  16.1717
    16.1993  17.1192  18.0674  21.1795  21.6182  24.2556  25.0494  26.0938
    27.9778  29.1492  29.3578  29.7307  31.4767  32.2057  32.5332  32.5377
    33.9455  35.1562  35.6492  35.8605  36.2185  36.7065  38.8635  39.2792
    40.1035  41.5069  42.2786  42.5344  42.6037  43.5943  44.2307  44.9206
    45.9864  46.7774  47.0943  47.6310  48.9191

          k = 0.0000 0.2001 0.3101 (  1774 PWs)   bands (ev):

   -47.2995 -47.2870 -23.6289 -23.6100 -23.5835 -23.5820 -23.4879 -23.4837
    -8.2862  -7.3674  -7.1383  -7.0433   4.3634   4.6130   4.9054   5.2783
     5.6457   6.3494   6.8578   7.4367   7.4560   8.2666   8.2825   9.1114
    11.8137  12.2952  12.3263  12.4856  12.7347  13.7365  14.8030  15.5171
    15.7834  16.8367  19.1169  22.3143  22.9494  24.5946  24.8543  26.4162
    27.1617  27.8882  28.0661  29.4249  30.0425  31.7945  32.2479  33.4390
    34.5040  34.5471  35.9767  36.3536  36.7158  38.1843  38.5977  38.9838
    39.8226  40.5365  41.2613  42.6416  44.3354  44.9527  45.9086  46.0329
    46.1181  47.1061  47.3619  48.2375  48.4324

          k = 0.0000 0.2001 0.6202 (  1756 PWs)   bands (ev):

   -47.2705 -47.2657 -23.8684 -23.8597 -23.5277 -23.5255 -23.4816 -23.4796
    -7.6509  -7.4674  -7.2026  -7.0438   4.8056   4.9153   5.0770   5.4039
     5.8905   6.0628   6.6576   7.0286   7.2128   7.8270   7.9283   8.2026
    11.8617  12.5307  12.5937  12.8666  13.3105  13.4001  14.9248  14.9749
    16.0122  16.3678  21.0694  22.9172  24.1102  25.0045  25.2940  25.5784
    26.8282  27.0224  27.8011  27.9967  28.9470  29.9580  32.1769  32.6977
    35.0310  35.2447  36.3424  36.7596  37.4419  38.6464  38.8815  39.5018
    40.3953  41.5343  41.8032  42.5879  43.8513  45.2227  45.7531  45.8807
    46.8044  47.5577  47.6755  48.5966  49.1068

          k = 0.0000 0.4002 0.0000 (  1758 PWs)   bands (ev):

   -47.3116 -47.3057 -23.6163 -23.6136 -23.5403 -23.5375 -23.4228 -23.4103
    -8.2771  -7.8119  -7.1074  -7.0097   4.3509   4.4848   5.5748   5.6378
     5.6497   6.2767   6.4881   6.9748   7.6452   8.0304   8.5986   8.9365
    11.9960  12.1672  12.5402  12.5983  12.8410  13.4837  15.2899  15.9532
    15.9848  16.3402  19.2351  20.4654  22.5501  23.7506  25.1827  25.7680
    27.9065  28.8148  29.2874  30.3309  30.3957  31.6923  32.4516  32.9153
    33.7207  33.9798  35.7003  35.7407  36.8858  37.3801  38.1041  38.2831
    41.8997  42.2143  42.5147  42.9410  43.3565  44.0867  45.4451  46.2116
    46.7030  47.0702  47.6682  47.6734  48.0100

          k = 0.0000 0.4002 0.3101 (  1766 PWs)   bands (ev):

   -47.2956 -47.2908 -23.6251 -23.6085 -23.5738 -23.5581 -23.5113 -23.5028
    -7.9619  -7.5481  -7.2411  -7.1405   4.7747   4.9632   5.1237   5.2240
     6.0127   6.1457   6.4889   6.9312   7.1431   7.7466   8.5656   8.8680
    12.0950  12.3493  12.6147  12.6903  13.0701  13.3669  15.0232  15.0961
    15.9374  16.5207  20.1348  21.3199  23.6936  24.6264  25.2276  25.9001
    26.8528  27.1187  28.0255  29.2542  30.3393  31.1221  32.0862  33.6977
    34.4788  34.6330  36.0592  36.6142  36.6921  37.3556  38.9817  39.2859
    39.5279  41.0255  42.1683  42.9757  44.4815  44.8814  45.9128  47.0602
    47.1255  47.4401  48.0648  48.3955  48.6965

          k = 0.0000 0.4002 0.6202 (  1750 PWs)   bands (ev):

   -47.2690 -47.2671 -23.8731 -23.8697 -23.5119 -23.5067 -23.4934 -23.4884
    -7.6922  -7.6283  -7.0458  -6.9780   4.5143   4.6130   5.1976   5.3838
     5.9389   6.4140   6.5492   7.1068   7.5725   7.6115   8.1108   8.5276
    11.5383  11.8666  12.7582  12.8565  13.4539  13.4765  14.6139  14.7141
    16.5640  16.7727  21.4405  22.1917  23.9940  24.4829  25.6205  25.9555
    26.3011  26.5488  27.9120  28.4422  28.7541  29.0682  32.5962  33.2539
    35.5932  35.7718  36.6779  36.7474  37.8797  37.9594  38.6034  38.8549
    39.8006  40.7991  42.8977  43.2243  44.6419  44.9326  46.0289  46.2845
    46.5348  46.9880  48.7860  48.8485  49.2750

          k = 0.2001 0.2001 0.0000 (  1762 PWs)   bands (ev):

   -47.3149 -47.3024 -23.6710 -23.6117 -23.5415 -23.4803 -23.4298 -23.4034
    -8.5569  -7.6492  -7.0724  -6.8599   3.8068   4.4966   4.9129   5.5590
     5.6536   6.3993   6.9760   7.5426   7.9620   8.4270   8.5685   9.2315
    11.5058  12.0770  12.1482  12.5064  12.5726  13.8855  14.6069  15.9684
    16.3050  16.8504  18.5565  21.3807  21.6145  24.2772  24.7473  25.7253
    27.9108  29.0225  29.7232  30.3674  31.7588  31.9157  32.3651  32.4267
    32.4568  34.5834  34.7693  36.0392  37.3469  37.5726  39.2958  39.8054
    39.8759  41.2724  41.6413  42.5983  43.5362  43.7838  44.7725  44.9365
    45.8749  47.0547  47.3936  47.7170  48.5218

          k = 0.2001 0.2001 0.3101 (  1764 PWs)   bands (ev):

   -47.2983 -47.2881 -23.6250 -23.6181 -23.5905 -23.5621 -23.5081 -23.4740
    -8.1893  -7.3769  -7.2382  -7.0475   4.2706   4.8567   4.9237   5.3621
     5.7958   6.1536   6.9719   7.0896   7.5117   8.1877   8.3492   8.9707
    11.8531  12.0605  12.4473  12.7813  12.7927  13.6131  14.8627  15.3757
    15.8649  16.7319  19.4895  22.2914  22.8091  24.7518  24.8885  25.7435
    27.1327  27.7356  28.9260  29.0379  30.0707  31.3045  31.7849  33.5836
    34.5451  34.5565  35.8383  36.0014  37.4555  38.5276  38.5569  39.1309
    39.9706  40.7454  41.7795  42.4939  44.4867  45.0557  45.5408  46.1716
    46.5455  47.3918  47.9917  48.1955  48.4553

          k = 0.2001 0.2001 0.6202 (  1750 PWs)   bands (ev):

   -47.2700 -47.2661 -23.8711 -23.8594 -23.5366 -23.5078 -23.4919 -23.4767
    -7.6913  -7.3489  -7.3329  -6.9834   4.6213   5.0285   5.0715   5.2257
     5.5386   6.5539   6.7984   7.0738   7.0836   7.8667   8.0087   8.4047
    11.7122  12.6124  12.6347  12.7871  12.9826  13.5824  14.5753  15.5279
    15.6887  16.6244  21.0986  22.9452  23.3185  24.8655  25.3828  25.9428
    26.2911  27.3886  27.7412  28.1674  28.6226  30.5934  31.3718  33.0790
    34.9448  35.1970  35.8746  37.5564  37.9497  38.6453  38.7838  39.6913
    41.2968  41.4156  42.0699  42.9769  43.4002  44.5834  44.9053  46.1084
    46.9588  47.1676  48.1207  48.6820  48.9484

          k = 0.2001 0.4002 0.0000 (  1766 PWs)   bands (ev):

   -47.3110 -47.3062 -23.6588 -23.6207 -23.5342 -23.4948 -23.4216 -23.4115
    -8.2557  -7.8838  -7.0889  -6.9598   4.0230   4.4427   5.5710   5.6248
     5.6287   6.4198   6.7834   7.4195   7.7583   8.1204   8.2897   8.7595
    11.7457  12.0839  12.2670  12.5743  13.0128  13.5190  15.2798  15.9661
    16.1471  16.1812  19.6327  20.7567  22.5162  23.7328  24.7347  25.2148
    27.9374  28.5547  30.2367  30.7030  30.7922  31.8388  32.3569  32.5144
    32.6200  33.5760  35.0406  36.5162  36.5783  37.6798  38.7040  39.4587
    41.7343  41.8501  41.8610  42.6504  42.9460  44.1082  45.6401  46.2882
    46.7662  47.0460  47.2268  47.8406  48.2566

          k = 0.2001 0.4002 0.3101 (  1757 PWs)   bands (ev):

   -47.2951 -47.2912 -23.6266 -23.6151 -23.5896 -23.5632 -23.5045 -23.4819
    -7.9324  -7.6075  -7.2188  -7.1203   4.4651   4.8963   4.9367   5.1300
     6.1789   6.4282   6.7563   7.1793   7.3455   7.8509   8.3300   8.6433
    12.1115  12.2442  12.4191  12.7227  13.0114  13.3046  15.0648  15.4001
    15.9138  16.3750  20.3836  21.4475  23.4716  24.5565  25.0138  25.1560
    27.1655  27.5211  28.3684  29.1509  30.0446  30.6980  32.2323  33.8431
    34.2511  34.5413  36.1008  36.3285  37.2697  37.5944  38.7484  39.4442
    40.5531  41.2850  42.2599  42.9721  43.9736  45.2382  45.4436  46.3386
    47.3444  47.8346  48.0947  48.4502  48.7389

          k = 0.2001 0.4002 0.6202 (  1753 PWs)   bands (ev):

   -47.2688 -47.2673 -23.8706 -23.8643 -23.5298 -23.5116 -23.4893 -23.4795
    -7.6670  -7.5365  -7.1396  -7.0004   4.4817   4.6369   5.1436   5.3012
     5.6828   6.3074   6.8509   7.0004   7.5454   7.8565   8.3034   8.6360
    11.6282  12.0490  12.7227  12.8175  13.1470  13.4503  14.6502  15.0758
    16.2746  16.6786  21.3673  22.1088  23.3977  24.2255  25.4210  25.7594
    26.9067  27.1985  27.3534  28.0320  28.9566  29.9010  32.2527  33.5655
    35.0050  35.4587  35.7238  36.8842  38.1266  38.3713  39.3236  40.4246
    40.6445  41.7955  43.0032  43.1094  44.0711  44.5763  44.9311  45.9977
    46.6647  47.1619  47.6988  48.7729  49.1418

          k = 0.4002 0.4002 0.0000 (  1774 PWs)   bands (ev):

   -47.3095 -47.3077 -23.6793 -23.6637 -23.4915 -23.4752 -23.4184 -23.4145
    -8.1785  -8.0394  -7.0038  -6.9375   3.8326   4.0341   5.5172   5.5492
     6.1217   6.6215   7.1818   7.6309   8.0007   8.0188   8.1869   8.5734
    11.4754  11.7338  12.0908  12.2746  13.3105  13.4958  15.4209  15.7529
    16.1774  16.2983  20.4616  21.0667  22.6103  23.3508  24.3369  24.5705
    28.0192  28.3181  30.8486  31.1767  31.4416  31.4519  31.5986  31.9696
    32.7193  33.1397  35.9985  36.1579  36.7100  37.3540  39.2606  39.8477
    41.3781  41.4767  42.0117  42.4895  42.7030  42.8009  46.2185  47.0057
    47.3177  47.4166  47.4363  47.8112  49.6020

          k = 0.4002 0.4002 0.3101 (  1755 PWs)   bands (ev):

   -47.2939 -47.2924 -23.6320 -23.6272 -23.5926 -23.5814 -23.4796 -23.4699
    -7.8502  -7.7310  -7.1614  -7.1163   4.2795   4.4769   4.8481   4.9266
     6.7554   6.9244   7.0368   7.5100   7.6978   7.8195   8.0020   8.1418
    12.0409  12.2614  12.2634  12.4526  13.0214  13.1438  15.4320  15.6851
    15.8591  16.0616  20.9590  21.4801  23.2954  23.8818  24.9722  24.9848
    27.2664  27.3047  28.5973  28.8019  30.0251  30.5895  32.6246  33.6207
    34.0819  34.1835  36.6266  37.1849  37.5402  38.0630  38.5059  38.7305
    41.2731  41.7143  42.5032  42.6611  44.2106  44.5196  45.5421  45.7631
    47.9715  48.0997  48.4538  48.6822  49.1472

          k = 0.4002 0.4002 0.6202 (  1752 PWs)   bands (ev):

   -47.2683 -47.2677 -23.8628 -23.8590 -23.5401 -23.5316 -23.4789 -23.4759
    -7.5481  -7.4056  -7.2681  -7.1204   4.5093   4.6708   4.9080   5.0400
     5.8055   6.0709   6.9069   6.9403   7.8705   8.0369   8.5807   8.7404
    11.9461  12.3612  12.6668  12.7243  12.7840  13.1135  15.0612  15.6759
    15.6889  16.2813  21.2923  21.6066  23.4561  24.2102  24.5779  25.2189
    26.9998  27.1472  27.9639  28.3741  29.2080  29.7514  32.9165  33.8295
    34.9029  34.9505  35.4118  36.1599  38.5793  38.6594  40.2995  41.0833
    42.3856  42.8011  43.1952  43.7073  43.8513  44.4941  44.6504  45.2707
    46.1569  46.8913  47.6216  48.3923  48.7258

 ------ SPIN DOWN ----------


          k = 0.0000 0.0000 0.0000 (  1787 PWs)   bands (ev):

   -47.3183 -47.2991 -23.6659 -23.6659 -23.4834 -23.4834 -23.4369 -23.3965
    -8.8174  -7.6069  -6.8102  -6.8102   3.6165   4.0148   4.4125   5.5845
     5.5845   6.9039   6.9039   7.4723   8.7830   9.0390   9.0390   9.5013
    11.4224  11.7320  11.9597  12.0693  12.0693  14.0869  14.2200  16.3089
    16.3089  17.3901  17.5710  21.2978  21.2978  24.2304  25.2947  26.2893
    28.1751  28.9770  29.2593  29.2593  31.1002  32.7516  33.8349  33.8349
    34.8270  35.4211  35.4211  35.7366  35.9925  35.9925  36.6616  38.6066
    41.4063  41.8116  41.9989  42.2376  42.2376  43.3655  43.8543  43.8543
    45.9590  46.5615  46.5615  46.8122  49.5293

          k = 0.0000 0.0000 0.3101 (  1767 PWs)   bands (ev):

   -47.3010 -47.2855 -23.6207 -23.6207 -23.6050 -23.5744 -23.4765 -23.4765
    -8.4069  -7.3858  -7.0035  -7.0035   4.1743   4.4295   4.8769   5.3172
     5.3172   6.4655   7.4648   7.5179   7.5179   8.3110   8.3110   9.2174
    11.7946  12.0269  12.1756  12.5331  12.5331  13.8944  14.5965  15.8639
    15.8639  16.7737  18.7147  22.7175  22.7175  24.3303  24.7755  26.7976
    27.3670  28.0577  28.6945  28.6945  29.6350  32.9527  33.1704  33.1704
    34.6534  34.6534  35.0896  35.7887  36.5989  38.6771  38.7956  38.7956
    39.9840  39.9840  40.9331  41.5015  44.4127  45.3987  45.3987  45.4078
    45.7281  47.7696  47.7696  48.0090  48.9619

          k = 0.0000 0.0000 0.6202 (  1755 PWs)   bands (ev):

   -47.2711 -47.2651 -23.8646 -23.8540 -23.5345 -23.5345 -23.4772 -23.4772
    -7.5862  -7.3130  -7.3130  -7.1650   4.9301   4.9563   5.5221   5.5221
     5.6170   6.0499   6.1697   7.0260   7.0260   7.9113   8.0081   8.0081
    12.1411  12.4776  12.8652  13.0562  13.1810  13.1810  15.1196  15.5183
    15.6948  15.6948  21.0032  23.1628  24.7584  24.8108  24.8108  25.7020
    27.4410  27.4410  27.6058  27.7613  28.5058  30.3563  32.4915  32.4915
    34.8680  34.8680  36.1768  36.7354  37.0527  38.6894  39.2726  39.2726
    39.8158  41.9963  41.9963  42.3533  45.1697  45.2329  45.2329  45.2798
    47.4303  48.1220  48.1220  48.2302  48.2305

          k = 0.0000 0.2001 0.0000 (  1775 PWs)   bands (ev):

   -47.3165 -47.3010 -23.6517 -23.6503 -23.5008 -23.4993 -23.4330 -23.4003
    -8.6700  -7.6121  -6.9554  -6.8699   3.8761   4.1833   4.6867   5.6015
     5.6125   6.6547   6.8295   7.4925   8.3499   8.5272   8.7406   9.3477
    11.6376  11.9876  12.2312  12.2468  12.2903  14.0067  14.4042  16.1717
    16.1993  17.1192  18.0674  21.1795  21.6182  24.2556  25.0494  26.0938
    27.9778  29.1492  29.3578  29.7307  31.4767  32.2057  32.5332  32.5377
    33.9455  35.1562  35.6492  35.8605  36.2185  36.7065  38.8635  39.2792
    40.1035  41.5069  42.2786  42.5344  42.6037  43.5943  44.2307  44.9206
    45.9864  46.7774  47.0943  47.6310  48.9191

          k = 0.0000 0.2001 0.3101 (  1774 PWs)   bands (ev):

   -47.2995 -47.2870 -23.6289 -23.6100 -23.5835 -23.5820 -23.4879 -23.4837
    -8.2862  -7.3674  -7.1383  -7.0433   4.3634   4.6130   4.9054   5.2783
     5.6457   6.3494   6.8578   7.4367   7.4560   8.2667   8.2825   9.1114
    11.8137  12.2952  12.3263  12.4856  12.7347  13.7365  14.8030  15.5171
    15.7834  16.8367  19.1169  22.3143  22.9494  24.5946  24.8543  26.4162
    27.1617  27.8882  28.0661  29.4249  30.0425  31.7946  32.2479  33.4390
    34.5040  34.5471  35.9768  36.3536  36.7158  38.1843  38.5977  38.9838
    39.8226  40.5365  41.2613  42.6416  44.3354  44.9527  45.9086  46.0329
    46.1181  47.1061  47.3619  48.2375  48.4324

          k = 0.0000 0.2001 0.6202 (  1756 PWs)   bands (ev):

   -47.2705 -47.2657 -23.8684 -23.8597 -23.5277 -23.5255 -23.4816 -23.4796
    -7.6509  -7.4674  -7.2026  -7.0438   4.8056   4.9153   5.0770   5.4040
     5.8905   6.0628   6.6576   7.0286   7.2128   7.8270   7.9283   8.2026
    11.8617  12.5307  12.5937  12.8666  13.3105  13.4001  14.9248  14.9749
    16.0122  16.3678  21.0694  22.9172  24.1102  25.0045  25.2940  25.5784
    26.8282  27.0224  27.8011  27.9967  28.9470  29.9580  32.1769  32.6977
    35.0310  35.2447  36.3424  36.7596  37.4419  38.6464  38.8815  39.5018
    40.3953  41.5343  41.8032  42.5879  43.8513  45.2227  45.7531  45.8807
    46.8044  47.5577  47.6755  48.5966  49.1068

          k = 0.0000 0.4002 0.0000 (  1758 PWs)   bands (ev):

   -47.3116 -47.3057 -23.6163 -23.6136 -23.5403 -23.5375 -23.4228 -23.4103
    -8.2771  -7.8119  -7.1074  -7.0097   4.3509   4.4848   5.5748   5.6378
     5.6497   6.2767   6.4881   6.9748   7.6452   8.0304   8.5986   8.9365
    11.9960  12.1672  12.5402  12.5983  12.8410  13.4836  15.2899  15.9532
    15.9848  16.3402  19.2351  20.4654  22.5501  23.7506  25.1827  25.7680
    27.9065  28.8148  29.2874  30.3309  30.3957  31.6923  32.4516  32.9153
    33.7207  33.9798  35.7003  35.7407  36.8858  37.3801  38.1041  38.2831
    41.8997  42.2143  42.5147  42.9410  43.3565  44.0867  45.4451  46.2116
    46.7030  47.0702  47.6682  47.6734  48.0100

          k = 0.0000 0.4002 0.3101 (  1766 PWs)   bands (ev):

   -47.2956 -47.2908 -23.6251 -23.6085 -23.5738 -23.5581 -23.5113 -23.5028
    -7.9619  -7.5480  -7.2411  -7.1405   4.7747   4.9633   5.1237   5.2240
     6.0127   6.1457   6.4889   6.9312   7.1431   7.7466   8.5656   8.8680
    12.0950  12.3493  12.6147  12.6903  13.0701  13.3669  15.0232  15.0961
    15.9374  16.5207  20.1348  21.3199  23.6936  24.6264  25.2276  25.9002
    26.8528  27.1187  28.0255  29.2542  30.3393  31.1221  32.0862  33.6977
    34.4788  34.6330  36.0592  36.6142  36.6921  37.3556  38.9817  39.2859
    39.5279  41.0255  42.1683  42.9757  44.4815  44.8814  45.9128  47.0602
    47.1255  47.4401  48.0648  48.3955  48.6965

          k = 0.0000 0.4002 0.6202 (  1750 PWs)   bands (ev):

   -47.2690 -47.2672 -23.8731 -23.8697 -23.5119 -23.5067 -23.4934 -23.4884
    -7.6922  -7.6283  -7.0458  -6.9780   4.5143   4.6130   5.1976   5.3838
     5.9389   6.4140   6.5492   7.1068   7.5725   7.6115   8.1108   8.5276
    11.5383  11.8666  12.7582  12.8565  13.4539  13.4765  14.6139  14.7141
    16.5640  16.7727  21.4405  22.1917  23.9940  24.4829  25.6205  25.9555
    26.3011  26.5488  27.9120  28.4422  28.7541  29.0682  32.5962  33.2539
    35.5932  35.7718  36.6779  36.7474  37.8798  37.9594  38.6034  38.8549
    39.8006  40.7991  42.8977  43.2243  44.6419  44.9326  46.0289  46.2845
    46.5348  46.9880  48.7860  48.8485  49.2750

          k = 0.2001 0.2001 0.0000 (  1762 PWs)   bands (ev):

   -47.3149 -47.3024 -23.6710 -23.6117 -23.5416 -23.4803 -23.4298 -23.4034
    -8.5569  -7.6492  -7.0724  -6.8599   3.8068   4.4966   4.9129   5.5590
     5.6536   6.3994   6.9760   7.5426   7.9620   8.4270   8.5685   9.2315
    11.5057  12.0770  12.1482  12.5064  12.5726  13.8854  14.6069  15.9684
    16.3050  16.8504  18.5566  21.3807  21.6145  24.2772  24.7473  25.7253
    27.9108  29.0225  29.7232  30.3674  31.7588  31.9158  32.3651  32.4267
    32.4568  34.5834  34.7693  36.0392  37.3469  37.5726  39.2958  39.8054
    39.8759  41.2724  41.6413  42.5983  43.5362  43.7838  44.7725  44.9365
    45.8749  47.0547  47.3936  47.7170  48.6273

          k = 0.2001 0.2001 0.3101 (  1764 PWs)   bands (ev):

   -47.2983 -47.2881 -23.6250 -23.6181 -23.5905 -23.5621 -23.5081 -23.4740
    -8.1893  -7.3769  -7.2382  -7.0475   4.2707   4.8567   4.9237   5.3621
     5.7958   6.1536   6.9719   7.0896   7.5117   8.1877   8.3492   8.9707
    11.8531  12.0605  12.4473  12.7813  12.7926  13.6131  14.8627  15.3757
    15.8649  16.7319  19.4895  22.2914  22.8091  24.7518  24.8885  25.7435
    27.1327  27.7356  28.9260  29.0379  30.0707  31.3045  31.7849  33.5836
    34.5451  34.5565  35.8383  36.0014  37.4555  38.5276  38.5569  39.1309
    39.9706  40.7454  41.7795  42.4939  44.4867  45.0557  45.5408  46.1716
    46.5455  47.3918  47.9917  48.1955  48.4553

          k = 0.2001 0.2001 0.6202 (  1750 PWs)   bands (ev):

   -47.2700 -47.2661 -23.8711 -23.8594 -23.5366 -23.5078 -23.4919 -23.4767
    -7.6913  -7.3489  -7.3329  -6.9834   4.6213   5.0285   5.0715   5.2257
     5.5386   6.5539   6.7984   7.0738   7.0836   7.8667   8.0087   8.4047
    11.7122  12.6124  12.6347  12.7871  12.9826  13.5824  14.5753  15.5278
    15.6887  16.6244  21.0986  22.9452  23.3185  24.8655  25.3828  25.9428
    26.2911  27.3886  27.7412  28.1675  28.6226  30.5934  31.3718  33.0790
    34.9448  35.1970  35.8746  37.5564  37.9497  38.6453  38.7838  39.6913
    41.2968  41.4156  42.0699  42.9769  43.4002  44.5834  44.9053  46.1084
    46.9588  47.1676  48.1207  48.6820  48.9484

          k = 0.2001 0.4002 0.0000 (  1766 PWs)   bands (ev):

   -47.3110 -47.3062 -23.6588 -23.6207 -23.5342 -23.4948 -23.4216 -23.4115
    -8.2557  -7.8838  -7.0889  -6.9598   4.0230   4.4427   5.5710   5.6248
     5.6287   6.4198   6.7834   7.4196   7.7583   8.1204   8.2897   8.7595
    11.7457  12.0839  12.2670  12.5743  13.0128  13.5189  15.2798  15.9660
    16.1470  16.1812  19.6327  20.7567  22.5162  23.7328  24.7347  25.2148
    27.9374  28.5547  30.2367  30.7030  30.7922  31.8388  32.3569  32.5144
    32.6200  33.5760  35.0406  36.5162  36.5783  37.6798  38.7040  39.4587
    41.7343  41.8501  41.8610  42.6504  42.9460  44.1082  45.6401  46.2882
    46.7662  47.0460  47.2268  47.8406  48.2566

          k = 0.2001 0.4002 0.3101 (  1757 PWs)   bands (ev):

   -47.2951 -47.2912 -23.6266 -23.6151 -23.5896 -23.5632 -23.5045 -23.4819
    -7.9324  -7.6075  -7.2188  -7.1203   4.4651   4.8963   4.9367   5.1300
     6.1789   6.4282   6.7563   7.1794   7.3455   7.8509   8.3300   8.6433
    12.1115  12.2442  12.4191  12.7227  13.0114  13.3046  15.0648  15.4001
    15.9138  16.3750  20.3837  21.4475  23.4716  24.5565  25.0138  25.1560
    27.1655  27.5211  28.3684  29.1509  30.0446  30.6980  32.2323  33.8431
    34.2511  34.5413  36.1008  36.3285  37.2697  37.5944  38.7484  39.4442
    40.5531  41.2850  42.2599  42.9721  43.9736  45.2382  45.4436  46.3386
    47.3444  47.8346  48.0947  48.4502  48.7389

          k = 0.2001 0.4002 0.6202 (  1753 PWs)   bands (ev):

   -47.2688 -47.2673 -23.8706 -23.8643 -23.5298 -23.5116 -23.4894 -23.4795
    -7.6670  -7.5365  -7.1396  -7.0004   4.4817   4.6369   5.1437   5.3012
     5.6828   6.3074   6.8509   7.0004   7.5454   7.8565   8.3034   8.6360
    11.6282  12.0490  12.7227  12.8175  13.1470  13.4503  14.6502  15.0758
    16.2746  16.6786  21.3673  22.1088  23.3977  24.2255  25.4210  25.7594
    26.9067  27.1985  27.3535  28.0320  28.9566  29.9010  32.2527  33.5655
    35.0050  35.4587  35.7238  36.8842  38.1266  38.3713  39.3236  40.4246
    40.6445  41.7955  43.0032  43.1094  44.0711  44.5763  44.9311  45.9977
    46.6647  47.1619  47.6988  48.7729  49.1418

          k = 0.4002 0.4002 0.0000 (  1774 PWs)   bands (ev):

   -47.3095 -47.3077 -23.6793 -23.6637 -23.4916 -23.4752 -23.4184 -23.4145
    -8.1785  -8.0394  -7.0037  -6.9375   3.8326   4.0341   5.5172   5.5492
     6.1217   6.6215   7.1818   7.6309   8.0007   8.0188   8.1870   8.5734
    11.4754  11.7337  12.0908  12.2746  13.3105  13.4957  15.4209  15.7529
    16.1774  16.2983  20.4616  21.0668  22.6103  23.3508  24.3369  24.5705
    28.0192  28.3181  30.8486  31.1767  31.4416  31.4519  31.5986  31.9696
    32.7193  33.1397  35.9985  36.1579  36.7100  37.3541  39.2606  39.8477
    41.3781  41.4768  42.0117  42.4895  42.7030  42.8009  46.2185  47.0057
    47.3177  47.4166  47.4363  47.8112  49.6020

          k = 0.4002 0.4002 0.3101 (  1755 PWs)   bands (ev):

   -47.2939 -47.2924 -23.6320 -23.6272 -23.5926 -23.5814 -23.4796 -23.4699
    -7.8502  -7.7310  -7.1614  -7.1163   4.2795   4.4769   4.8481   4.9266
     6.7554   6.9244   7.0368   7.5100   7.6978   7.8195   8.0020   8.1418
    12.0409  12.2614  12.2634  12.4526  13.0214  13.1438  15.4320  15.6851
    15.8591  16.0616  20.9590  21.4801  23.2954  23.8818  24.9723  24.9848
    27.2664  27.3047  28.5973  28.8019  30.0251  30.5895  32.6246  33.6207
    34.0819  34.1835  36.6266  37.1849  37.5402  38.0630  38.5059  38.7305
    41.2731  41.7143  42.5032  42.6611  44.2106  44.5196  45.5421  45.7631
    47.9715  48.0997  48.4538  48.6822  49.1604

          k = 0.4002 0.4002 0.6202 (  1752 PWs)   bands (ev):

   -47.2683 -47.2677 -23.8628 -23.8590 -23.5401 -23.5316 -23.4790 -23.4759
    -7.5481  -7.4056  -7.2681  -7.1204   4.5093   4.6708   4.9080   5.0400
     5.8055   6.0709   6.9069   6.9403   7.8705   8.0369   8.5807   8.7404
    11.9461  12.3612  12.6668  12.7243  12.7840  13.1135  15.0612  15.6758
    15.6889  16.2813  21.2923  21.6066  23.4561  24.2102  24.5779  25.2189
    26.9997  27.1472  27.9639  28.3741  29.2080  29.7514  32.9165  33.8295
    34.9029  34.9505  35.4118  36.1599  38.5793  38.6594  40.2995  41.0833
    42.3856  42.8011  43.1952  43.7073  43.8514  44.4941  44.6504  45.2707
    46.1569  46.8913  47.6216  48.3923  48.7258

     the Fermi energy is    10.2792 ev

!    total energy              =    -366.49207477 Ry
     Harris-Foulkes estimate   =    -366.49207424 Ry
     estimated scf accuracy    <       0.00000018 Ry

     The total energy is the sum of the following terms:

     one-electron contribution =    -121.73058846 Ry
     hartree contribution      =      85.06569217 Ry
     xc contribution           =     -63.41823819 Ry
     ewald contribution        =    -266.40894029 Ry
     smearing contrib. (-TS)   =       0.00000000 Ry

     total magnetization       =    -0.00 Bohr mag/cell
     absolute magnetization    =     0.00 Bohr mag/cell

     convergence has been achieved in   4 iterations

     Forces acting on atoms (Ry/au):


     negative rho (up, down):  0.127E-01 0.127E-01
     atom    1 type  1   force =     0.00000000    0.00000000    0.00000000
     atom    2 type  1   force =     0.00000000    0.00000000   -0.00000000
     atom    3 type  2   force =    -0.00334871   -0.00334871    0.00000000
     atom    4 type  2   force =     0.00334871    0.00334871   -0.00000000
     atom    5 type  2   force =    -0.00334871    0.00334871   -0.00000000
     atom    6 type  2   force =     0.00334871   -0.00334871    0.00000000

     Total force =     0.009472     Total SCF correction =     0.000204


     entering subroutine stress ...


     negative rho (up, down):  0.127E-01 0.127E-01
          total   stress  (Ry/bohr**3)                   (kbar)     P=  100.27
   0.00067631   0.00000000   0.00000000         99.49      0.00      0.00
   0.00000000   0.00067631   0.00000000          0.00     99.49      0.00
   0.00000000   0.00000000   0.00069226          0.00      0.00    101.83

     Volume is kept fixed: isostatic pressure set to zero

     number of scf cycles    =   2
     number of bfgs steps    =   1

     enthalpy old            =    -366.4918220691 Ry
     enthalpy new            =    -366.4920747723 Ry

     CASE: enthalpy_new < enthalpy_old

     new trust radius        =       0.0099165853 bohr
     new conv_thr            =       0.0000000253 Ry

     new unit-cell volume =    411.99764 a.u.^3 (    61.05175 Ang^3 )

CELL_PARAMETERS (alat=  8.61462572)
   0.999300635   0.000000000   0.000000000
   0.000000000   0.999300635   0.000000000
   0.000000000   0.000000000   0.645346794

ATOMIC_POSITIONS (crystal)
Ti0      0.000000000   0.000000000   0.000000000    0   0   0
Ti0      0.500000000   0.500000000   0.500000000    0   0   0
O1       0.303452131   0.303452131   0.000000000    1   1   0
O1      -0.303452131  -0.303452131   0.000000000    1   1   0
O1       0.803452131   0.196547869   0.500000000    1   1   0
O1       0.196547869   0.803452131   0.500000000    1   1   0


     Check: negative starting charge=(component1):   -0.025370
     NEW-OLD atomic charge density approx. for the potential
     NEW k-points:
        k(    1) = (   0.0000000   0.0000000   0.0000000), wk =   0.0080000
        k(    2) = (   0.0000000   0.0000000   0.3099109), wk =   0.0160000
        k(    3) = (   0.0000000   0.0000000   0.6198218), wk =   0.0160000
        k(    4) = (   0.0000000   0.2001400   0.0000000), wk =   0.0320000
        k(    5) = (   0.0000000   0.2001400   0.3099109), wk =   0.0640000
        k(    6) = (   0.0000000   0.2001400   0.6198218), wk =   0.0640000
        k(    7) = (   0.0000000   0.4002799   0.0000000), wk =   0.0320000
        k(    8) = (   0.0000000   0.4002799   0.3099109), wk =   0.0640000
        k(    9) = (   0.0000000   0.4002799   0.6198218), wk =   0.0640000
        k(   10) = (   0.2001400   0.2001400   0.0000000), wk =   0.0320000
        k(   11) = (   0.2001400   0.2001400   0.3099109), wk =   0.0640000
        k(   12) = (   0.2001400   0.2001400   0.6198218), wk =   0.0640000
        k(   13) = (   0.2001400   0.4002799   0.0000000), wk =   0.0640000
        k(   14) = (   0.2001400   0.4002799   0.3099109), wk =   0.1280000
        k(   15) = (   0.2001400   0.4002799   0.6198218), wk =   0.1280000
        k(   16) = (   0.4002799   0.4002799   0.0000000), wk =   0.0320000
        k(   17) = (   0.4002799   0.4002799   0.3099109), wk =   0.0640000
        k(   18) = (   0.4002799   0.4002799   0.6198218), wk =   0.0640000
        k(   19) = (   0.0000000   0.0000000   0.0000000), wk =   0.0080000
        k(   20) = (   0.0000000   0.0000000   0.3099109), wk =   0.0160000
        k(   21) = (   0.0000000   0.0000000   0.6198218), wk =   0.0160000
        k(   22) = (   0.0000000   0.2001400   0.0000000), wk =   0.0320000
        k(   23) = (   0.0000000   0.2001400   0.3099109), wk =   0.0640000
        k(   24) = (   0.0000000   0.2001400   0.6198218), wk =   0.0640000
        k(   25) = (   0.0000000   0.4002799   0.0000000), wk =   0.0320000
        k(   26) = (   0.0000000   0.4002799   0.3099109), wk =   0.0640000
        k(   27) = (   0.0000000   0.4002799   0.6198218), wk =   0.0640000
        k(   28) = (   0.2001400   0.2001400   0.0000000), wk =   0.0320000
        k(   29) = (   0.2001400   0.2001400   0.3099109), wk =   0.0640000
        k(   30) = (   0.2001400   0.2001400   0.6198218), wk =   0.0640000
        k(   31) = (   0.2001400   0.4002799   0.0000000), wk =   0.0640000
        k(   32) = (   0.2001400   0.4002799   0.3099109), wk =   0.1280000
        k(   33) = (   0.2001400   0.4002799   0.6198218), wk =   0.1280000
        k(   34) = (   0.4002799   0.4002799   0.0000000), wk =   0.0320000
        k(   35) = (   0.4002799   0.4002799   0.3099109), wk =   0.0640000
[...]
    -7.6675  -7.5355  -7.1377  -6.9977   4.4828   4.6361   5.1313   5.2872
     5.6795   6.3094   6.8512   6.9993   7.5433   7.8589   8.3170   8.6403
    11.6288  12.0470  12.7214  12.8147  13.1412  13.4447  14.6380  15.0680
    16.2754  16.6817  21.3775  22.1212  23.4047  24.2296  25.4086  25.7558
    26.9025  27.1972  27.3400  28.0357  28.9504  29.8842  32.2447  33.5563
    34.9902  35.4637  35.7326  36.8689  38.1475  38.3831  39.3147  40.4151
    40.6468  41.7933  43.0032  43.1123  44.0574  44.5645  44.9379  45.9740
    46.6444  47.1842  47.7070  48.7924  49.1331

          k = 0.4002 0.4002 0.0000 (  1770 PWs)   bands (ev):

   -47.3146 -47.3128 -23.6836 -23.6679 -23.4970 -23.4804 -23.4235 -23.4196
    -8.1712  -8.0310  -7.0086  -6.9410   3.8372   4.0415   5.5394   5.5725
     6.1260   6.6289   7.1829   7.6364   7.9870   8.0159   8.1861   8.5621
    11.4546  11.7120  12.0869  12.2746  13.3067  13.4928  15.4279  15.7601
    16.1335  16.2570  20.4746  21.0791  22.6111  23.3483  24.3372  24.5679
    28.0156  28.3271  30.8112  31.1384  31.4421  31.4583  31.6004  31.9817
    32.7122  33.1358  35.9834  36.1614  36.7173  37.3399  39.2511  39.8482
    41.3588  41.4703  41.9957  42.5225  42.7011  42.8464  46.2324  47.0112
    47.3243  47.4400  47.4422  47.8408  49.6546

          k = 0.4002 0.4002 0.3100 (  1759 PWs)   bands (ev):

   -47.2991 -47.2976 -23.6369 -23.6320 -23.5959 -23.5847 -23.4849 -23.4751
    -7.8474  -7.7277  -7.1612  -7.1156   4.2798   4.4787   4.8574   4.9362
     6.7581   6.9265   7.0388   7.5100   7.6863   7.8314   7.9917   8.1515
    12.0247  12.2450  12.2516  12.4455  13.0224  13.1450  15.4223  15.6935
    15.8265  16.0561  20.9700  21.4927  23.2928  23.8765  24.9666  24.9793
    27.2899  27.3121  28.5884  28.7829  30.0177  30.5817  32.6063  33.6149
    34.0583  34.1451  36.6394  37.1811  37.5457  38.0640  38.5300  38.7573
    41.2590  41.7128  42.4943  42.6755  44.1887  44.5325  45.5420  45.7709
    47.9836  48.1475  48.4440  48.6945  49.1677

          k = 0.4002 0.4002 0.6201 (  1750 PWs)   bands (ev):

   -47.2737 -47.2731 -23.8637 -23.8597 -23.5463 -23.5378 -23.4834 -23.4803
    -7.5464  -7.3986  -7.2726  -7.1197   4.5090   4.6695   4.9000   5.0326
     5.8036   6.0761   6.8985   6.9380   7.8643   8.0332   8.5944   8.7491
    11.9479  12.3713  12.6560  12.7188  12.7802  13.1057  15.0531  15.6489
    15.7107  16.2826  21.3005  21.6146  23.4550  24.1824  24.5985  25.2172
    26.9959  27.1469  27.9746  28.3826  29.1983  29.7346  32.8954  33.7905
    34.8838  34.9837  35.4357  36.1489  38.5927  38.6666  40.2919  41.0774
    42.3900  42.8051  43.1715  43.7036  43.8492  44.4762  44.6354  45.2618
    46.1552  46.9011  47.6469  48.4154  48.7380

 ------ SPIN DOWN ----------


          k = 0.0000 0.0000 0.0000 (  1787 PWs)   bands (ev):

   -47.3234 -47.3042 -23.6702 -23.6702 -23.4888 -23.4888 -23.4420 -23.4015
    -8.8127  -7.5980  -6.8131  -6.8131   3.6221   4.0214   4.4052   5.6076
     5.6076   6.9068   6.9068   7.4685   8.7855   9.0381   9.0381   9.5177
    11.4078  11.6963  11.9427  12.0645  12.0645  14.1005  14.2205  16.2675
    16.2675  17.4097  17.5686  21.2822  21.2822  24.2606  25.2864  26.2403
    28.1479  28.9716  29.2865  29.2865  31.0801  32.7804  33.8544  33.8544
    34.8333  35.4191  35.4191  35.7018  36.0094  36.0094  36.6233  38.6105
    41.4186  41.7938  42.0069  42.2463  42.2463  43.3936  43.8641  43.8641
    45.9151  46.5776  46.5776  46.7584  49.5131

          k = 0.0000 0.0000 0.3100 (  1767 PWs)   bands (ev):

   -47.3063 -47.2907 -23.6255 -23.6255 -23.6084 -23.5777 -23.4818 -23.4818
    -8.4061  -7.3821  -7.0022  -7.0022   4.1766   4.4308   4.8690   5.3278
     5.3278   6.4659   7.4697   7.5256   7.5256   8.3079   8.3079   9.2212
    11.7924  12.0020  12.1629  12.5239  12.5239  13.8982  14.6065  15.8318
    15.8318  16.8044  18.7084  22.7058  22.7058  24.3571  24.7781  26.7392
    27.3624  28.0337  28.7248  28.7248  29.6243  32.9597  33.1645  33.1645
    34.6755  34.6755  35.0656  35.7650  36.5708  38.6701  38.8094  38.8094
    40.0016  40.0016  40.9383  41.4730  44.4102  45.3904  45.3904  45.4096
    45.7452  47.8050  47.8050  48.0086  48.9949

          k = 0.0000 0.0000 0.6201 (  1763 PWs)   bands (ev):

   -47.2765 -47.2705 -23.8654 -23.8548 -23.5409 -23.5409 -23.4816 -23.4816
    -7.5917  -7.3054  -7.3054  -7.1699   4.9217   4.9473   5.5219   5.5219
     5.6241   6.0580   6.1603   7.0175   7.0175   7.9021   8.0165   8.0165
    12.1544  12.4775  12.8646  13.0668  13.1675  13.1675  15.1288  15.5437
    15.6679  15.6679  21.0057  23.1723  24.7749  24.8168  24.8168  25.7052
    27.4730  27.4730  27.5430  27.7328  28.4934  30.3233  32.4782  32.4782
    34.8859  34.8859  36.1572  36.6993  37.0423  38.6449  39.3032  39.3032
    39.8211  41.9967  41.9967  42.3438  45.1736  45.2673  45.2673  45.2957
    47.4485  48.0989  48.0989  48.1992  48.1992

          k = 0.0000 0.2001 0.0000 (  1775 PWs)   bands (ev):

   -47.3216 -47.3061 -23.6558 -23.6544 -23.5064 -23.5049 -23.4381 -23.4053
    -8.6645  -7.6003  -6.9619  -6.8735   3.8846   4.1933   4.6806   5.6253
     5.6369   6.6509   6.8249   7.4867   8.3497   8.5261   8.7434   9.3616
    11.6215  11.9548  12.2297  12.2331  12.2906  14.0056  14.4169  16.1272
    16.1557  17.1287  18.0753  21.1723  21.6064  24.2786  25.0439  26.0584
    27.9511  29.1710  29.3535  29.7484  31.4589  32.2021  32.5292  32.5574
    33.9550  35.1631  35.6412  35.8441  36.2378  36.7044  38.8714  39.2611
    40.1256  41.5164  42.2824  42.5271  42.6170  43.5918  44.2511  44.9083
    45.9983  46.7806  47.0978  47.5846  49.0301

          k = 0.0000 0.2001 0.3100 (  1774 PWs)   bands (ev):

   -47.3048 -47.2922 -23.6334 -23.6149 -23.5871 -23.5851 -23.4934 -23.4891
    -8.2849  -7.3616  -7.1394  -7.0422   4.3662   4.6167   4.9045   5.2873
     5.6517   6.3510   6.8651   7.4289   7.4496   8.2744   8.2867   9.1196
    11.8072  12.2713  12.3120  12.4762  12.7310  13.7394  14.8140  15.4920
    15.7514  16.8530  19.1166  22.3142  22.9408  24.6121  24.8552  26.3769
    27.1612  27.8688  28.0813  29.4253  30.0488  31.7768  32.2323  33.4514
    34.5120  34.5686  35.9573  36.3375  36.7076  38.1843  38.6077  39.0007
    39.8374  40.5288  41.2552  42.6381  44.3175  44.9616  45.8978  46.0689
    46.1452  47.1290  47.3672  48.2333  48.4471

          k = 0.0000 0.2001 0.6201 (  1756 PWs)   bands (ev):

   -47.2759 -47.2711 -23.8693 -23.8605 -23.5339 -23.5318 -23.4860 -23.4841
    -7.6538  -7.4654  -7.1974  -7.0430   4.8063   4.9105   5.0655   5.4005
     5.8877   6.0654   6.6549   7.0187   7.2112   7.8372   7.9411   8.1969
    11.8694  12.5305  12.5915  12.8648  13.3022  13.3961  14.9190  14.9716
    16.0009  16.3701  21.0752  22.9305  24.1223  25.0127  25.2990  25.5835
    26.7911  27.0286  27.7883  27.9976  28.9427  29.9353  32.1577  32.6875
    35.0348  35.2557  36.3297  36.7396  37.4505  38.6390  38.8784  39.5100
    40.3811  41.5562  41.7987  42.5983  43.8615  45.2137  45.7961  45.8776
    46.7861  47.5275  47.6729  48.6026  49.1052

          k = 0.0000 0.4002 0.0000 (  1758 PWs)   bands (ev):

   -47.3168 -47.3108 -23.6193 -23.6164 -23.5472 -23.5442 -23.4280 -23.4154
    -8.2688  -7.7985  -7.1168  -7.0152   4.3680   4.5044   5.5722   5.6633
     5.6758   6.2586   6.4668   6.9713   7.6369   8.0240   8.6096   8.9497
    11.9759  12.1411  12.5460  12.6061  12.8319  13.4786  15.2994  15.9032
    15.9360  16.3481  19.2451  20.4719  22.5455  23.7520  25.1868  25.7535
    27.8829  28.8123  29.2977  30.3267  30.3960  31.7036  32.4400  32.8998
    33.7172  33.9669  35.6872  35.7326  36.9103  37.3841  38.1303  38.2836
    41.9326  42.2251  42.5070  42.9305  43.3622  44.1147  45.4463  46.1804
    46.7153  47.0795  47.6441  47.6915  48.0170

          k = 0.0000 0.4002 0.3100 (  1764 PWs)   bands (ev):

   -47.3008 -47.2960 -23.6294 -23.6130 -23.5769 -23.5606 -23.5179 -23.5086
    -7.9592  -7.5422  -7.2432  -7.1403   4.7824   4.9792   5.1286   5.2246
     6.0179   6.1460   6.4811   6.9190   7.1347   7.7495   8.5784   8.8799
    12.0854  12.3354  12.6010  12.6761  13.0708  13.3681  15.0129  15.0714
    15.9261  16.5257  20.1416  21.3284  23.6920  24.6293  25.2319  25.8834
    26.8545  27.1252  28.0000  29.2439  30.3171  31.1046  32.0948  33.7137
    34.4863  34.6262  36.0530  36.5978  36.6962  37.3646  38.9877  39.2891
    39.5315  41.0280  42.1934  42.9673  44.4962  44.8725  45.9224  47.0340
    47.0896  47.4852  48.0777  48.4291  48.7127

          k = 0.0000 0.4002 0.6201 (  1752 PWs)   bands (ev):

   -47.2744 -47.2726 -23.8741 -23.8707 -23.5182 -23.5135 -23.4971 -23.4926
    -7.6936  -7.6283  -7.0419  -6.9752   4.5154   4.6141   5.1809   5.3648
     5.9391   6.4127   6.5483   7.1057   7.5741   7.6231   8.1231   8.5304
    11.5380  11.8632  12.7562  12.8545  13.4486  13.4716  14.6015  14.7028
    16.5646  16.7776  21.4527  22.2082  24.0013  24.4899  25.6257  25.9476
    26.2762  26.5600  27.8857  28.4315  28.7450  29.0551  32.5920  33.2567
    35.5899  35.7713  36.6699  36.7278  37.9051  37.9647  38.6091  38.8578
    39.7858  40.7986  42.8932  43.2347  44.6360  44.9190  46.0313  46.3126
    46.5064  46.9448  48.7852  48.8505  49.2934

          k = 0.2001 0.2001 0.0000 (  1770 PWs)   bands (ev):

   -47.3201 -47.3075 -23.6753 -23.6144 -23.5485 -23.4856 -23.4350 -23.4084
    -8.5508  -7.6356  -7.0817  -6.8631   3.8125   4.5163   4.9082   5.5814
     5.6795   6.3777   6.9779   7.5349   7.9686   8.4255   8.5706   9.2375
    11.4859  12.0725  12.1205  12.4957  12.5795  13.8836  14.6177  15.9187
    16.2635  16.8595  18.5652  21.3768  21.6093  24.2959  24.7399  25.7048
    27.8842  29.0414  29.7201  30.3733  31.7431  31.9194  32.3348  32.4480
    32.4550  34.5813  34.7745  36.0524  37.3301  37.5838  39.3160  39.8167
    39.8542  41.2933  41.6465  42.5791  43.5356  43.7973  44.7361  44.9680
    45.8993  47.0723  47.3762  47.6811  48.6647

          k = 0.2001 0.2001 0.3100 (  1762 PWs)   bands (ev):

   -47.3035 -47.2934 -23.6299 -23.6223 -23.5940 -23.5650 -23.5144 -23.4793
    -8.1877  -7.3678  -7.2431  -7.0464   4.2720   4.8606   4.9343   5.3689
     5.7967   6.1545   6.9700   7.0827   7.5173   8.1799   8.3598   8.9815
    11.8437  12.0436  12.4274  12.7755  12.7897  13.6154  14.8630  15.3600
    15.8326  16.7445  19.4926  22.2961  22.8061  24.7601  24.8883  25.7226
    27.1398  27.7095  28.9240  29.0530  30.0660  31.2769  31.7742  33.5980
    34.5544  34.5562  35.8173  36.0016  37.4446  38.5369  38.5706  39.1427
    39.9816  40.7386  41.7645  42.4996  44.4683  45.0701  45.5637  46.1704
    46.5917  47.3958  47.9603  48.2113  48.4651

          k = 0.2001 0.2001 0.6201 (  1750 PWs)   bands (ev):

   -47.2754 -47.2715 -23.8721 -23.8602 -23.5430 -23.5144 -23.4958 -23.4812
    -7.6931  -7.3415  -7.3361  -6.9808   4.6228   5.0268   5.0609   5.2177
     5.5311   6.5684   6.7894   7.0663   7.0756   7.8873   8.0145   8.4002
    11.7178  12.6115  12.6432  12.7723  12.9782  13.5778  14.5638  15.5465
    15.6618  16.6262  21.1057  22.9576  23.3307  24.8780  25.3806  25.9191
    26.2973  27.3823  27.7032  28.1861  28.6253  30.5808  31.3521  33.0608
    34.9431  35.2061  35.8704  37.5505  37.9418  38.6418  38.7921  39.6938
    41.2891  41.4101  42.0861  42.9841  43.4031  44.5817  44.9070  46.0860
    46.9551  47.1956  48.1250  48.6548  48.9413

          k = 0.2001 0.4002 0.0000 (  1766 PWs)   bands (ev):

   -47.3162 -47.3114 -23.6630 -23.6238 -23.5407 -23.5003 -23.4267 -23.4166
    -8.2479  -7.8724  -7.0966  -6.9643   4.0313   4.4606   5.5945   5.6228
     5.6543   6.4085   6.7733   7.4168   7.7515   8.1167   8.2957   8.7641
    11.7247  12.0602  12.2667  12.5813  13.0060  13.5150  15.2879  15.9166
    16.1372  16.1549  19.6434  20.7647  22.5144  23.7315  24.7377  25.2090
    27.9191  28.5574  30.2359  30.7047  30.7826  31.8508  32.3404  32.5043
    32.6007  33.5728  35.0342  36.5315  36.5633  37.6991  38.7115  39.4609
    41.7237  41.8558  41.8837  42.6632  42.9268  44.1143  45.6378  46.2941
    46.8000  47.0443  47.2191  47.8538  48.2968

          k = 0.2001 0.4002 0.3100 (  1757 PWs)   bands (ev):

   -47.3004 -47.2965 -23.6312 -23.6197 -23.5929 -23.5661 -23.5106 -23.4873
    -7.9297  -7.6028  -7.2198  -7.1198   4.4675   4.9067   4.9457   5.1345
     6.1793   6.4280   6.7555   7.1711   7.3408   7.8468   8.3412   8.6557
    12.0992  12.2312  12.4013  12.7145  13.0116  13.3057  15.0479  15.3906
    15.8967  16.3780  20.3918  21.4573  23.4719  24.5555  25.0119  25.1483
    27.1779  27.5143  28.3561  29.1377  30.0334  30.6895  32.2167  33.8421
    34.2441  34.5426  36.1030  36.3115  37.2672  37.6013  38.7674  39.4575
    40.5609  41.2950  42.2544  42.9766  43.9672  45.2311  45.4491  46.3194
    47.3824  47.8527  48.0897  48.4389  48.7455

          k = 0.2001 0.4002 0.6201 (  1754 PWs)   bands (ev):

   -47.2742 -47.2727 -23.8716 -23.8652 -23.5360 -23.5179 -23.4936 -23.4840
    -7.6675  -7.5355  -7.1377  -6.9977   4.4828   4.6361   5.1314   5.2872
     5.6795   6.3094   6.8512   6.9993   7.5433   7.8589   8.3170   8.6403
    11.6287  12.0470  12.7213  12.8147  13.1412  13.4447  14.6380  15.0680
    16.2754  16.6817  21.3775  22.1212  23.4047  24.2296  25.4086  25.7559
    26.9025  27.1972  27.3400  28.0357  28.9504  29.8842  32.2447  33.5563
    34.9902  35.4637  35.7326  36.8689  38.1475  38.3831  39.3147  40.4151
    40.6468  41.7933  43.0032  43.1122  44.0574  44.5645  44.9378  45.9740
    46.6444  47.1841  47.7069  48.7924  49.1331

          k = 0.4002 0.4002 0.0000 (  1770 PWs)   bands (ev):

   -47.3146 -47.3128 -23.6837 -23.6679 -23.4970 -23.4805 -23.4235 -23.4196
    -8.1712  -8.0310  -7.0085  -6.9410   3.8372   4.0415   5.5394   5.5724
     6.1260   6.6289   7.1828   7.6364   7.9870   8.0159   8.1861   8.5621
    11.4545  11.7119  12.0868  12.2746  13.3067  13.4928  15.4278  15.7601
    16.1335  16.2570  20.4746  21.0791  22.6111  23.3483  24.3372  24.5679
    28.0155  28.3270  30.8112  31.1384  31.4421  31.4583  31.6004  31.9817
    32.7122  33.1358  35.9834  36.1614  36.7173  37.3399  39.2511  39.8481
    41.3588  41.4703  41.9957  42.5225  42.7010  42.8464  46.2324  47.0112
    47.3243  47.4400  47.4422  47.8408  49.6546

          k = 0.4002 0.4002 0.3100 (  1759 PWs)   bands (ev):

   -47.2991 -47.2976 -23.6369 -23.6320 -23.5959 -23.5847 -23.4850 -23.4752
    -7.8474  -7.7277  -7.1612  -7.1156   4.2798   4.4787   4.8574   4.9362
     6.7581   6.9265   7.0388   7.5100   7.6863   7.8314   7.9917   8.1515
    12.0246  12.2449  12.2515  12.4455  13.0224  13.1450  15.4223  15.6934
    15.8265  16.0561  20.9700  21.4927  23.2928  23.8765  24.9667  24.9793
    27.2898  27.3120  28.5884  28.7829  30.0178  30.5817  32.6063  33.6149
    34.0583  34.1451  36.6394  37.1811  37.5457  38.0640  38.5300  38.7572
    41.2590  41.7128  42.4943  42.6755  44.1887  44.5325  45.5420  45.7709
    47.9835  48.1475  48.4440  48.6945  49.1677

          k = 0.4002 0.4002 0.6201 (  1750 PWs)   bands (ev):

   -47.2737 -47.2731 -23.8637 -23.8598 -23.5464 -23.5378 -23.4835 -23.4804
    -7.5464  -7.3986  -7.2726  -7.1197   4.5090   4.6695   4.9000   5.0326
     5.8036   6.0761   6.8986   6.9380   7.8642   8.0331   8.5944   8.7491
    11.9479  12.3713  12.6560  12.7188  12.7802  13.1057  15.0531  15.6489
    15.7106  16.2826  21.3005  21.6146  23.4550  24.1824  24.5985  25.2172
    26.9959  27.1469  27.9747  28.3826  29.1983  29.7346  32.8954  33.7905
    34.8837  34.9836  35.4357  36.1488  38.5927  38.6666  40.2919  41.0774
    42.3900  42.8051  43.1715  43.7035  43.8492  44.4762  44.6354  45.2618
    46.1551  46.9011  47.6469  48.4154  48.7380

     the Fermi energy is    10.3083 ev

!    total energy              =    -366.49217919 Ry
     Harris-Foulkes estimate   =    -366.49217886 Ry
     estimated scf accuracy    <          1.8E-10 Ry

     The total energy is the sum of the following terms:

     one-electron contribution =    -121.52410065 Ry
     hartree contribution      =      84.95767000 Ry
     xc contribution           =     -63.41379765 Ry
     ewald contribution        =    -266.51195088 Ry
     smearing contrib. (-TS)   =       0.00000000 Ry

     total magnetization       =    -0.00 Bohr mag/cell
     absolute magnetization    =     0.00 Bohr mag/cell

     convergence has been achieved in  13 iterations

     Forces acting on atoms (Ry/au):


     negative rho (up, down):  0.127E-01 0.127E-01
     atom    1 type  1   force =     0.00000000    0.00000000   -0.00000000
     atom    2 type  1   force =     0.00000000    0.00000000    0.00000000
     atom    3 type  2   force =    -0.00003503   -0.00003503    0.00000000
     atom    4 type  2   force =     0.00003503    0.00003503    0.00000000
     atom    5 type  2   force =    -0.00003503    0.00003503   -0.00000000
     atom    6 type  2   force =     0.00003503   -0.00003503    0.00000000

     Total force =     0.000099     Total SCF correction =     0.000008


     entering subroutine stress ...


     negative rho (up, down):  0.127E-01 0.127E-01
          total   stress  (Ry/bohr**3)                   (kbar)     P=   97.11
   0.00066016   0.00000000   0.00000000         97.11      0.00      0.00
   0.00000000   0.00066016   0.00000000          0.00     97.11      0.00
   0.00000000   0.00000000   0.00066001          0.00      0.00     97.09


     init_run     :     16.59s CPU     17.71s WALL (       2 calls)
     electrons    :    739.98s CPU    763.45s WALL (       6 calls)
     update_pot   :     15.44s CPU     15.57s WALL (       4 calls)
     forces       :     43.72s CPU     43.76s WALL (       6 calls)
     stress       :    112.29s CPU    112.44s WALL (       6 calls)

     Called by init_run:
     wfcinit      :      7.70s CPU      7.88s WALL (       2 calls)
     potinit      :      1.58s CPU      1.60s WALL (       2 calls)

     Called by electrons:
     c_bands      :    566.90s CPU    585.53s WALL (      44 calls)
     sum_band     :    104.86s CPU    106.08s WALL (      44 calls)
     v_of_rho     :     10.16s CPU     10.23s WALL (      48 calls)
     newd         :     63.08s CPU     63.14s WALL (      48 calls)
     mix_rho      :      0.98s CPU      0.99s WALL (      44 calls)

     Called by c_bands:
     init_us_2    :      3.72s CPU      3.73s WALL (    3672 calls)
     cegterg      :    554.87s CPU    573.47s WALL (    1584 calls)

     Called by *egterg:
     h_psi        :    274.97s CPU    283.24s WALL (    4538 calls)
     s_psi        :     22.00s CPU     22.05s WALL (    4538 calls)
     g_psi        :      1.67s CPU      1.66s WALL (    2882 calls)
     cdiaghg      :    133.67s CPU    134.10s WALL (    4250 calls)

     Called by h_psi:
     add_vuspsi   :     21.96s CPU     22.12s WALL (    4538 calls)

     General routines
     calbec       :     40.63s CPU     43.19s WALL (    6554 calls)
     fft          :      8.16s CPU      8.20s WALL (    1708 calls)
     ffts         :      0.14s CPU      0.14s WALL (     184 calls)
     fftw         :    233.27s CPU    236.55s WALL (  612726 calls)
     interpolate  :      1.06s CPU      1.06s WALL (     184 calls)

     Parallel routines
     fft_scatter  :     74.01s CPU     76.27s WALL (  614618 calls)

     PWSCF        : 15m33.06s CPU    15m58.28s WALL


   This run was terminated on:  15:41:42  24Jan2014            

=------------------------------------------------------------------------------=
   JOB DONE.
=------------------------------------------------------------------------------=
---------------------------------------
Running PBS batch system epilogue script
Job id: 251909.audhumbla.fysik.dtu.dk
Username: zhonxu
Groupname: campgst
Jobname: TiO2/fine-EOS/ferro/TiO2-v-0.95
Sessionid: 21051
Resources limits: neednodes=1:ppn=4:opteron4,nodes=1:ppn=4:opteron4,walltime=18:00:00
Resources used: cput=01:03:38,mem=305372kb,vmem=1190108kb,walltime=00:16:00
Queuename: verylong
Accounting:
This job has allocated the following 4 nodes:
q043 q043 q043 q043
Finished epilogue job 251909.audhumbla.fysik.dtu.dk for zhonxu
