
     Program PWSCF v.5.0.2 (svn rev. 9656) starts on  5May2014 at 20:31: 8 

     This program is part of the open-source Quantum ESPRESSO suite
     for quantum simulation of materials; please cite
         "P. Giannozzi et al., J. Phys.:Condens. Matter 21 395502 (2009);
          URL http://www.quantum-espresso.org", 
     in publications or presentations arising from this work. More details at
     http://www.quantum-espresso.org/quote.php

     Parallel version (MPI), running on    16 processors
     K-points division:     npool     =       4
     R & G space division:  proc/nbgrp/npool/nimage =       4

     Current dimensions of program PWSCF are:
     Max number of different atomic species (ntypx) = 10
     Max number of k-points (npk) =  40000
     Max angular momentum in pseudopotentials (lmaxx) =  3
     Reading input from pwscf.in
Warning: card &CELL ignored
Warning: card / ignored

     Subspace diagonalization in iterative solution of the eigenvalue problem:
     a serial algorithm will be used


     Parallelization info
     --------------------
     sticks:   dense  smooth     PW     G-vecs:    dense   smooth      PW
     Min        1450     467    129               343652    62241    9199
     Max        1451     468    130               343665    62278    9208
     Sum        5803    1869    517              1374641   249013   36807



     bravais-lattice index     =            0
     lattice parameter (alat)  =      12.0187  a.u.
     unit-cell volume          =    7280.5819 (a.u.)^3
     number of atoms/cell      =           30
     number of atomic types    =            3
     number of electrons       =       232.00
     number of Kohn-Sham states=          348
     kinetic-energy cutoff     =      40.0000  Ry
     charge density cutoff     =     500.0000  Ry
     convergence threshold     =      1.0E-06
     mixing beta               =       0.7000
     number of iterations used =            8  plain     mixing
     Exchange-correlation      = SLA  PW   PBE  PBE ( 1 4 3 4 0)
     EXX-fraction              =        0.00
     nstep                     =           50


     celldm(1)=  12.018658  celldm(2)=   0.000000  celldm(3)=   0.000000
     celldm(4)=   0.000000  celldm(5)=   0.000000  celldm(6)=   0.000000

     crystal axes: (cart. coord. in units of alat)
               a(1) = (   1.000000   0.000000   0.000000 )  
               a(2) = (   0.000000   1.009517   0.000000 )  
               a(3) = (   0.000000   0.000000   4.154171 )  

     reciprocal axes: (cart. coord. in units 2 pi/alat)
               b(1) = (  1.000000  0.000000  0.000000 )  
               b(2) = (  0.000000  0.990572  0.000000 )  
               b(3) = (  0.000000  0.000000  0.240722 )  


     PseudoPot. # 1 for O  read from file:
     /home/camp/zhonxu/pseudo/o_pbe_v1.01.uspp.F.UPF
     MD5 check sum: 2bcb18d16ea4b960afae9ec6d52f22d2
     Pseudo is Ultrasoft + core correction, Zval =  6.0
     Generated by new atomic code, or converted to UPF format
     Using radial grid of  737 points,  5 beta functions with: 
                l(1) =   0
                l(2) =   0
                l(3) =   1
                l(4) =   1
                l(5) =   2
     Q(r) pseudized with  8 coefficients,  rinner =    0.900   0.900   0.900
                                                       0.900   0.900

     PseudoPot. # 2 for Ir read from file:
     /home/camp/zhonxu/pseudo/ir_pbe_v1.uspp.F.UPF
     MD5 check sum: abf987a9674477536ede83817f8f8b70
     Pseudo is Ultrasoft + core correction, Zval = 15.0
     Generated by new atomic code, or converted to UPF format
     Using radial grid of  983 points,  7 beta functions with: 
                l(1) =   0
                l(2) =   0
                l(3) =   1
                l(4) =   1
                l(5) =   1
                l(6) =   2
                l(7) =   2
     Q(r) pseudized with  8 coefficients,  rinner =    1.350   1.350   1.350
                                                       1.350   1.350

     PseudoPot. # 3 for H  read from file:
     /home/camp/zhonxu/pseudo/h_pbe_v1.uspp.F.UPF
     MD5 check sum: 3408e3ff4ec8b0a4e358431e7e038a48
     Pseudo is Ultrasoft, Zval =  1.0
     Generated by new atomic code, or converted to UPF format
     Using radial grid of  615 points,  2 beta functions with: 
                l(1) =   0
                l(2) =   0
     Q(r) pseudized with  8 coefficients,  rinner =    0.700

     atomic species   valence    mass     pseudopotential
        O0             6.00    15.99940     O ( 1.00)
        Ir1           15.00   192.22000     Ir( 1.00)
        H2             1.00     1.00794     H ( 1.00)


     Simplified LDA+U calculation (l_max = 2) with parameters (eV):
     atomic species    L          U    alpha       J0     beta
        Ir1            2     4.0000   0.0000   0.0000   0.0000



     No symmetry found



   Cartesian axes

     site n.     atom                  positions (alat units)
         1           O0  tau(   1) = (   0.0000000   0.0000000   1.5730185  )
         2           O0  tau(   2) = (   0.0000000   0.5047586   1.6673182  )
         3           Ir1 tau(   3) = (   0.2500000   0.5047586   1.8780178  )
         4           Ir1 tau(   4) = (   0.0000000   0.0000000   1.8842906  )
         5           O0  tau(   5) = (   0.2500000   0.8177090   1.8825458  )
         6           O0  tau(   6) = (   0.2500000   0.1918083   1.8810503  )
         7           O0  tau(   7) = (   0.0000000   0.5047586   2.0695666  )
         8           O0  tau(   8) = (   0.0000000   0.0000000   2.1991352  )
         9           Ir1 tau(   9) = (   0.2500000   0.0000000   2.3955860  )
        10           Ir1 tau(  10) = (   0.0000000   0.5047586   2.3764768  )
        11           O0  tau(  11) = (   0.2500000   0.6965669   2.3975800  )
        12           O0  tau(  12) = (   0.2500000   0.3129503   2.3977461  )
        13           O0  tau(  13) = (   0.0000000   0.0000000   2.5806958  )
        14           O0  tau(  14) = (   0.5000000   0.0000000   1.5730185  )
        15           O0  tau(  15) = (   0.5000000   0.5047586   1.6673182  )
        16           Ir1 tau(  16) = (   0.7500000   0.5047586   1.8780178  )
        17           Ir1 tau(  17) = (   0.5000000   0.0000000   1.8842906  )
        18           O0  tau(  18) = (   0.7500000   0.8177090   1.8825458  )
        19           O0  tau(  19) = (   0.7500000   0.1918083   1.8810503  )
        20           O0  tau(  20) = (   0.5000000   0.5047586   2.0695666  )
        21           O0  tau(  21) = (   0.5000000   0.0000000   2.1991352  )
        22           Ir1 tau(  22) = (   0.7500000   0.0000000   2.3955860  )
        23           Ir1 tau(  23) = (   0.5000000   0.5047586   2.3764768  )
        24           O0  tau(  24) = (   0.7500000   0.6965669   2.3975800  )
        25           O0  tau(  25) = (   0.7500000   0.3129503   2.3977461  )
        26           O0  tau(  26) = (   0.5000000   0.0000000   2.5807374  )
        27           H2  tau(  27) = (  -0.0000500   0.6423962   1.5933324  )
        28           H2  tau(  28) = (   0.4999500   0.6423962   1.5933324  )
        29           H2  tau(  29) = (   0.1436500   0.0338188   1.5249132  )
        30           H2  tau(  30) = (   0.6436500   0.0338188   1.5249132  )

     number of k points=    10  Methfessel-Paxton smearing, width (Ry)=  0.0100
                       cart. coord. in units 2pi/alat
        k(    1) = (   0.0000000   0.0000000   0.0000000), wk =   0.1250000
        k(    2) = (   0.0000000   0.2476431   0.0000000), wk =   0.2500000
        k(    3) = (   0.0000000  -0.4952862   0.0000000), wk =   0.1250000
        k(    4) = (   0.2500000   0.0000000   0.0000000), wk =   0.2500000
        k(    5) = (   0.2500000   0.2476431   0.0000000), wk =   0.2500000
        k(    6) = (   0.2500000  -0.4952862   0.0000000), wk =   0.2500000
        k(    7) = (  -0.5000000   0.0000000   0.0000000), wk =   0.1250000
        k(    8) = (  -0.5000000   0.2476431   0.0000000), wk =   0.2500000
        k(    9) = (  -0.5000000  -0.4952862   0.0000000), wk =   0.1250000
        k(   10) = (  -0.2500000   0.2476431   0.0000000), wk =   0.2500000

     Dense  grid:  1374641 G-vectors     FFT dimensions: (  90,  90, 360)

     Smooth grid:   249013 G-vectors     FFT dimensions: (  50,  50, 216)

     Largest allocated arrays     est. size (Mb)     dimensions
        Kohn-Sham Wavefunctions        41.77 Mb     (   7867,  348)
        Atomic wavefunctions           20.65 Mb     (   7867,  172)
        NL pseudopotentials            49.22 Mb     (   7867,  410)
        Each V/rho on FFT grid         11.12 Mb     ( 729000)
        Each G-vector array             2.62 Mb     ( 343661)
        G-vector shells                 1.13 Mb     ( 148760)
     Largest temporary arrays     est. size (Mb)     dimensions
        Auxiliary wavefunctions       167.10 Mb     (   7867, 1392)
        Each subspace H/S matrix       29.57 Mb     (1392,1392)
        Each <psi_i|beta_j> matrix      2.18 Mb     (    410,  348)
        Arrays for rho mixing          88.99 Mb     ( 729000,   8)

     Check: negative/imaginary core charge=   -0.000003    0.000000

     Initial potential from superposition of free atoms
     Check: negative starting charge=   -3.334716

     starting charge  227.99968, renormalised to  232.00000

     negative rho (up, down):  0.339E+01 0.000E+00
     Number of +U iterations with fixed ns =  0
     Starting occupations:
 --- enter write_ns ---
 LDA+U parameters:
U( 2)     =  4.00000000
alpha( 2) =  0.00000000
atom    3   Tr[ns(na)] =   7.00000
    eigenvalues: 
  0.700  0.700  0.700  0.700  0.700
    eigenvectors:
  1.000  0.000  0.000  0.000  0.000
  0.000  1.000  0.000  0.000  0.000
  0.000  0.000  1.000  0.000  0.000
  0.000  0.000  0.000  1.000  0.000
  0.000  0.000  0.000  0.000  1.000
    occupations:
  0.700  0.000  0.000  0.000  0.000
  0.000  0.700  0.000  0.000  0.000
  0.000  0.000  0.700  0.000  0.000
  0.000  0.000  0.000  0.700  0.000
  0.000  0.000  0.000  0.000  0.700
atom    4   Tr[ns(na)] =   7.00000
    eigenvalues: 
  0.700  0.700  0.700  0.700  0.700
    eigenvectors:
  1.000  0.000  0.000  0.000  0.000
  0.000  1.000  0.000  0.000  0.000
  0.000  0.000  1.000  0.000  0.000
  0.000  0.000  0.000  1.000  0.000
  0.000  0.000  0.000  0.000  1.000
    occupations:
  0.700  0.000  0.000  0.000  0.000
  0.000  0.700  0.000  0.000  0.000
  0.000  0.000  0.700  0.000  0.000
  0.000  0.000  0.000  0.700  0.000
  0.000  0.000  0.000  0.000  0.700
atom    9   Tr[ns(na)] =   7.00000
    eigenvalues: 
  0.700  0.700  0.700  0.700  0.700
    eigenvectors:
  1.000  0.000  0.000  0.000  0.000
  0.000  1.000  0.000  0.000  0.000
  0.000  0.000  1.000  0.000  0.000
  0.000  0.000  0.000  1.000  0.000
  0.000  0.000  0.000  0.000  1.000
    occupations:
  0.700  0.000  0.000  0.000  0.000
  0.000  0.700  0.000  0.000  0.000
  0.000  0.000  0.700  0.000  0.000
  0.000  0.000  0.000  0.700  0.000
  0.000  0.000  0.000  0.000  0.700
atom   10   Tr[ns(na)] =   7.00000
    eigenvalues: 
  0.700  0.700  0.700  0.700  0.700
    eigenvectors:
  1.000  0.000  0.000  0.000  0.000
  0.000  1.000  0.000  0.000  0.000
  0.000  0.000  1.000  0.000  0.000
  0.000  0.000  0.000  1.000  0.000
  0.000  0.000  0.000  0.000  1.000
    occupations:
  0.700  0.000  0.000  0.000  0.000
  0.000  0.700  0.000  0.000  0.000
  0.000  0.000  0.700  0.000  0.000
  0.000  0.000  0.000  0.700  0.000
  0.000  0.000  0.000  0.000  0.700
atom   16   Tr[ns(na)] =   7.00000
    eigenvalues: 
  0.700  0.700  0.700  0.700  0.700
    eigenvectors:
  1.000  0.000  0.000  0.000  0.000
  0.000  1.000  0.000  0.000  0.000
  0.000  0.000  1.000  0.000  0.000
  0.000  0.000  0.000  1.000  0.000
  0.000  0.000  0.000  0.000  1.000
    occupations:
  0.700  0.000  0.000  0.000  0.000
  0.000  0.700  0.000  0.000  0.000
  0.000  0.000  0.700  0.000  0.000
  0.000  0.000  0.000  0.700  0.000
  0.000  0.000  0.000  0.000  0.700
atom   17   Tr[ns(na)] =   7.00000
    eigenvalues: 
  0.700  0.700  0.700  0.700  0.700
    eigenvectors:
  1.000  0.000  0.000  0.000  0.000
  0.000  1.000  0.000  0.000  0.000
  0.000  0.000  1.000  0.000  0.000
  0.000  0.000  0.000  1.000  0.000
  0.000  0.000  0.000  0.000  1.000
    occupations:
  0.700  0.000  0.000  0.000  0.000
  0.000  0.700  0.000  0.000  0.000
  0.000  0.000  0.700  0.000  0.000
  0.000  0.000  0.000  0.700  0.000
  0.000  0.000  0.000  0.000  0.700
atom   22   Tr[ns(na)] =   7.00000
    eigenvalues: 
  0.700  0.700  0.700  0.700  0.700
    eigenvectors:
  1.000  0.000  0.000  0.000  0.000
  0.000  1.000  0.000  0.000  0.000
  0.000  0.000  1.000  0.000  0.000
  0.000  0.000  0.000  1.000  0.000
  0.000  0.000  0.000  0.000  1.000
    occupations:
  0.700  0.000  0.000  0.000  0.000
  0.000  0.700  0.000  0.000  0.000
  0.000  0.000  0.700  0.000  0.000
  0.000  0.000  0.000  0.700  0.000
  0.000  0.000  0.000  0.000  0.700
atom   23   Tr[ns(na)] =   7.00000
    eigenvalues: 
  0.700  0.700  0.700  0.700  0.700
    eigenvectors:
  1.000  0.000  0.000  0.000  0.000
  0.000  1.000  0.000  0.000  0.000
  0.000  0.000  1.000  0.000  0.000
  0.000  0.000  0.000  1.000  0.000
  0.000  0.000  0.000  0.000  1.000
    occupations:
  0.700  0.000  0.000  0.000  0.000
  0.000  0.700  0.000  0.000  0.000
  0.000  0.000  0.700  0.000  0.000
  0.000  0.000  0.000  0.700  0.000
  0.000  0.000  0.000  0.000  0.700
N of occupied +U levels =  56.0000000
 --- exit write_ns ---
 Atomic wfc used for LDA+U Projector are NOT orthogonalized
     Starting wfc are  172 randomized atomic wfcs

     total cpu time spent up to now is      121.1 secs

     per-process dynamical memory:   423.0 Mb

     Self-consistent Calculation

     iteration #  1     ecut=    40.00 Ry     beta=0.70
     Davidson diagonalization with overlap
     ethr =  1.00E-02,  avg # of iterations =  7.8
 --- enter write_ns ---
 LDA+U parameters:
U( 2)     =  4.00000000
alpha( 2) =  0.00000000
atom    3   Tr[ns(na)] =   5.95737
    eigenvalues: 
  0.441  0.481  0.620  0.676  0.761
    eigenvectors:
  0.000  0.134  0.122  0.744  0.000
  1.000  0.000  0.000  0.000  0.000
  0.000  0.000  0.858  0.142  0.000
  0.000  0.866  0.021  0.114  0.000
  0.000  0.000  0.000  0.000  1.000
    occupations:
  0.643  0.000  0.019 -0.064  0.001
  0.000  0.441 -0.000 -0.000 -0.004
  0.019 -0.000  0.628 -0.006 -0.001
 -0.064 -0.000 -0.006  0.506 -0.000
  0.001 -0.004 -0.001 -0.000  0.761
atom    4   Tr[ns(na)] =   5.76943
    eigenvalues: 
  0.461  0.466  0.485  0.671  0.802
    eigenvectors:
  0.001  0.000  0.987  0.000  0.012
  0.012  0.000  0.000  0.988  0.000
  0.972  0.014  0.001  0.012  0.000
  0.000  0.000  0.012  0.000  0.988
  0.014  0.986  0.000  0.000  0.000
    occupations:
  0.488 -0.001  0.001  0.034  0.000
 -0.001  0.668  0.023 -0.000 -0.001
  0.001  0.023  0.464  0.003  0.000
  0.034 -0.000  0.003  0.798 -0.000
  0.000 -0.001  0.000 -0.000  0.466
atom    9   Tr[ns(na)] =   7.67093
    eigenvalues: 
  0.475  0.496  0.931  0.966  0.967
    eigenvectors:
  0.000  0.149  0.000  0.425  0.425
  1.000  0.000  0.000  0.000  0.000
  0.000  0.000  0.000  0.500  0.500
  0.000  0.850  0.000  0.075  0.075
  0.000  0.000  1.000  0.000  0.000
    occupations:
  0.896  0.000  0.000 -0.168  0.000
  0.000  0.475  0.001  0.000 -0.000
  0.000  0.001  0.967 -0.000 -0.000
 -0.168  0.000 -0.000  0.566  0.000
  0.000 -0.000 -0.000  0.000  0.931
atom   10   Tr[ns(na)] =   8.14860
    eigenvalues: 
  0.470  0.703  0.963  0.968  0.971
    eigenvectors:
  0.000  0.969  0.000  0.031  0.000
  0.000  0.000  1.000  0.000  0.000
  0.000  0.000  0.000  0.001  0.999
  0.000  0.031  0.000  0.968  0.001
  1.000  0.000  0.000  0.000  0.000
    occupations:
  0.711  0.000  0.002  0.046 -0.000
  0.000  0.963  0.000 -0.000  0.000
  0.002  0.000  0.971 -0.000  0.000
  0.046 -0.000 -0.000  0.960 -0.000
 -0.000  0.000  0.000 -0.000  0.470
atom   16   Tr[ns(na)] =   5.95737
    eigenvalues: 
  0.441  0.481  0.620  0.676  0.761
    eigenvectors:
  0.000  0.134  0.122  0.744  0.000
  1.000  0.000  0.000  0.000  0.000
  0.000  0.000  0.858  0.142  0.000
  0.000  0.866  0.021  0.114  0.000
  0.000  0.000  0.000  0.000  1.000
    occupations:
  0.643  0.000  0.019 -0.064  0.001
  0.000  0.441 -0.000 -0.000 -0.004
  0.019 -0.000  0.628 -0.006 -0.001
 -0.064 -0.000 -0.006  0.506 -0.000
  0.001 -0.004 -0.001 -0.000  0.761
atom   17   Tr[ns(na)] =   5.76947
    eigenvalues: 
  0.461  0.466  0.485  0.671  0.802
    eigenvectors:
  0.001  0.000  0.987  0.000  0.012
  0.012  0.000  0.000  0.988  0.000
  0.972  0.014  0.001  0.012  0.000
  0.000  0.000  0.012  0.000  0.988
  0.014  0.986  0.000  0.000  0.000
    occupations:
  0.488 -0.001  0.001  0.034  0.000
 -0.001  0.668  0.023 -0.000 -0.001
  0.001  0.023  0.464  0.003  0.000
  0.034 -0.000  0.003  0.798 -0.000
  0.000 -0.001  0.000 -0.000  0.466
atom   22   Tr[ns(na)] =   7.67092
    eigenvalues: 
  0.475  0.496  0.931  0.966  0.967
    eigenvectors:
  0.000  0.149  0.000  0.426  0.425
  1.000  0.000  0.000  0.000  0.000
  0.000  0.000  0.000  0.500  0.500
  0.000  0.850  0.000  0.075  0.075
  0.000  0.000  1.000  0.000  0.000
    occupations:
  0.896  0.000  0.000 -0.168  0.000
  0.000  0.475  0.001  0.000 -0.000
  0.000  0.001  0.967 -0.000 -0.000
 -0.168  0.000 -0.000  0.566  0.000
  0.000 -0.000 -0.000  0.000  0.931
atom   23   Tr[ns(na)] =   8.14859
    eigenvalues: 
  0.470  0.703  0.963  0.968  0.971
    eigenvectors:
  0.000  0.969  0.000  0.031  0.000
  0.000  0.000  1.000  0.000  0.000
  0.000  0.000  0.000  0.001  0.999
  0.000  0.031  0.000  0.968  0.001
  1.000  0.000  0.000  0.000  0.000
    occupations:
  0.711  0.000  0.002  0.046 -0.000
  0.000  0.963  0.000 -0.000  0.000
  0.002  0.000  0.971 -0.000  0.000
  0.046 -0.000 -0.000  0.960 -0.000
 -0.000  0.000  0.000 -0.000  0.470
N of occupied +U levels =  55.0926792
 --- exit write_ns ---

     negative rho (up, down):  0.293E+01 0.000E+00

     total cpu time spent up to now is      506.6 secs

     total energy              =   -2047.78756913 Ry
     Harris-Foulkes estimate   =   -2076.63314494 Ry
     estimated scf accuracy    <      34.33543779 Ry

     iteration #  2     ecut=    40.00 Ry     beta=0.70
     Davidson diagonalization with overlap
     ethr =  1.00E-02,  avg # of iterations =  5.0

     negative rho (up, down):  0.276E+01 0.000E+00

     total cpu time spent up to now is      873.5 secs

     total energy              =   -1948.34796579 Ry
     Harris-Foulkes estimate   =   -2260.44615007 Ry
     estimated scf accuracy    <    3144.69254770 Ry

     iteration #  3     ecut=    40.00 Ry     beta=0.70
     Davidson diagonalization with overlap
     ethr =  1.00E-02,  avg # of iterations =  7.8

     negative rho (up, down):  0.266E+01 0.000E+00

     total cpu time spent up to now is     1255.0 secs

     total energy              =   -2048.71571960 Ry
     Harris-Foulkes estimate   =   -2094.96092506 Ry
     estimated scf accuracy    <     244.84827725 Ry

     iteration #  4     ecut=    40.00 Ry     beta=0.70
     Davidson diagonalization with overlap
     ethr =  1.00E-02,  avg # of iterations =  4.0

     negative rho (up, down):  0.276E+01 0.000E+00

     total cpu time spent up to now is     1486.4 secs

     total energy              =   -2069.67448773 Ry
     Harris-Foulkes estimate   =   -2075.31278708 Ry
     estimated scf accuracy    <      20.87264732 Ry

     iteration #  5     ecut=    40.00 Ry     beta=0.70
     Davidson diagonalization with overlap
     ethr =  9.00E-03,  avg # of iterations =  1.1

     negative rho (up, down):  0.284E+01 0.000E+00

     total cpu time spent up to now is     1681.5 secs

     total energy              =   -2072.33506510 Ry
     Harris-Foulkes estimate   =   -2073.18280804 Ry
     estimated scf accuracy    <      10.42090510 Ry

     iteration #  6     ecut=    40.00 Ry     beta=0.70
     Davidson diagonalization with overlap
     ethr =  4.49E-03,  avg # of iterations =  1.1

     negative rho (up, down):  0.287E+01 0.000E+00

     total cpu time spent up to now is     1872.1 secs

     total energy              =   -2072.39639441 Ry
     Harris-Foulkes estimate   =   -2072.69084814 Ry
     estimated scf accuracy    <       2.33938054 Ry

     iteration #  7     ecut=    40.00 Ry     beta=0.70
     Davidson diagonalization with overlap
     ethr =  1.01E-03,  avg # of iterations =  5.2

     negative rho (up, down):  0.295E+01 0.000E+00

     total cpu time spent up to now is     2094.2 secs

     total energy              =   -2072.35612181 Ry
     Harris-Foulkes estimate   =   -2072.63150697 Ry
     estimated scf accuracy    <       3.84016145 Ry

     iteration #  8     ecut=    40.00 Ry     beta=0.70
     Davidson diagonalization with overlap
     ethr =  1.01E-03,  avg # of iterations =  1.1

     negative rho (up, down):  0.301E+01 0.000E+00

     total cpu time spent up to now is     2283.8 secs

     total energy              =   -2072.37808566 Ry
     Harris-Foulkes estimate   =   -2072.59633893 Ry
     estimated scf accuracy    <       1.55775791 Ry

     iteration #  9     ecut=    40.00 Ry     beta=0.70
     Davidson diagonalization with overlap
     ethr =  6.71E-04,  avg # of iterations =  1.6

     negative rho (up, down):  0.305E+01 0.000E+00

     total cpu time spent up to now is     2479.3 secs

     total energy              =   -2072.38041340 Ry
     Harris-Foulkes estimate   =   -2072.50419841 Ry
     estimated scf accuracy    <       0.46044243 Ry

     iteration # 10     ecut=    40.00 Ry     beta=0.70
     Davidson diagonalization with overlap
     ethr =  1.98E-04,  avg # of iterations =  6.0

     negative rho (up, down):  0.310E+01 0.000E+00

     total cpu time spent up to now is     2689.1 secs

     total energy              =   -2072.41561314 Ry
     Harris-Foulkes estimate   =   -2072.48923572 Ry
     estimated scf accuracy    <       0.55349108 Ry

     iteration # 11     ecut=    40.00 Ry     beta=0.70
     Davidson diagonalization with overlap
     ethr =  1.98E-04,  avg # of iterations =  1.0

     negative rho (up, down):  0.312E+01 0.000E+00

     total cpu time spent up to now is     2878.1 secs

     total energy              =   -2072.43813036 Ry
     Harris-Foulkes estimate   =   -2072.45461123 Ry
     estimated scf accuracy    <       0.06114149 Ry

     iteration # 12     ecut=    40.00 Ry     beta=0.70
     Davidson diagonalization with overlap
     ethr =  2.64E-05,  avg # of iterations =  6.3

     negative rho (up, down):  0.313E+01 0.000E+00

     total cpu time spent up to now is     3101.1 secs

     total energy              =   -2072.43477096 Ry
     Harris-Foulkes estimate   =   -2072.45937824 Ry
     estimated scf accuracy    <       0.29892487 Ry

     iteration # 13     ecut=    40.00 Ry     beta=0.70
     Davidson diagonalization with overlap
     ethr =  2.64E-05,  avg # of iterations =  3.8

     negative rho (up, down):  0.313E+01 0.000E+00

     total cpu time spent up to now is     3308.7 secs

     total energy              =   -2072.44255900 Ry
     Harris-Foulkes estimate   =   -2072.44857657 Ry
     estimated scf accuracy    <       0.02375087 Ry

     iteration # 14     ecut=    40.00 Ry     beta=0.70
     Davidson diagonalization with overlap
     ethr =  1.02E-05,  avg # of iterations =  1.6

     negative rho (up, down):  0.313E+01 0.000E+00

     total cpu time spent up to now is     3500.0 secs

     total energy              =   -2072.44405956 Ry
     Harris-Foulkes estimate   =   -2072.44918128 Ry
     estimated scf accuracy    <       0.01895377 Ry

     iteration # 15     ecut=    40.00 Ry     beta=0.70
     Davidson diagonalization with overlap
     ethr =  8.17E-06,  avg # of iterations =  1.0

     negative rho (up, down):  0.314E+01 0.000E+00

     total cpu time spent up to now is     3689.6 secs

     total energy              =   -2072.44584502 Ry
     Harris-Foulkes estimate   =   -2072.44665040 Ry
     estimated scf accuracy    <       0.00288590 Ry

     iteration # 16     ecut=    40.00 Ry     beta=0.70
     Davidson diagonalization with overlap
     ethr =  1.24E-06,  avg # of iterations =  3.8

     negative rho (up, down):  0.314E+01 0.000E+00

     total cpu time spent up to now is     3884.3 secs

     total energy              =   -2072.44591345 Ry
     Harris-Foulkes estimate   =   -2072.44677191 Ry
     estimated scf accuracy    <       0.00416510 Ry

     iteration # 17     ecut=    40.00 Ry     beta=0.70
     Davidson diagonalization with overlap
     ethr =  1.24E-06,  avg # of iterations =  2.1

     negative rho (up, down):  0.314E+01 0.000E+00

     total cpu time spent up to now is     4080.8 secs

     total energy              =   -2072.44586584 Ry
     Harris-Foulkes estimate   =   -2072.44692519 Ry
     estimated scf accuracy    <       0.00734532 Ry

     iteration # 18     ecut=    40.00 Ry     beta=0.70
     Davidson diagonalization with overlap
     ethr =  1.24E-06,  avg # of iterations =  1.0

     negative rho (up, down):  0.314E+01 0.000E+00

     total cpu time spent up to now is     4269.9 secs

     total energy              =   -2072.44634334 Ry
     Harris-Foulkes estimate   =   -2072.44643775 Ry
     estimated scf accuracy    <       0.00035521 Ry

     iteration # 19     ecut=    40.00 Ry     beta=0.70
     Davidson diagonalization with overlap
     ethr =  1.53E-07,  avg # of iterations =  1.0

     negative rho (up, down):  0.314E+01 0.000E+00

     total cpu time spent up to now is     4459.1 secs

     total energy              =   -2072.44637028 Ry
     Harris-Foulkes estimate   =   -2072.44643135 Ry
     estimated scf accuracy    <       0.00033190 Ry

     iteration # 20     ecut=    40.00 Ry     beta=0.70
     Davidson diagonalization with overlap
     ethr =  1.43E-07,  avg # of iterations =  1.0

     negative rho (up, down):  0.314E+01 0.000E+00

     total cpu time spent up to now is     4648.6 secs

     total energy              =   -2072.44636256 Ry
     Harris-Foulkes estimate   =   -2072.44644387 Ry
     estimated scf accuracy    <       0.00053681 Ry

     iteration # 21     ecut=    40.00 Ry     beta=0.70
     Davidson diagonalization with overlap
     ethr =  1.43E-07,  avg # of iterations =  1.0

     negative rho (up, down):  0.314E+01 0.000E+00

     total cpu time spent up to now is     4838.0 secs

     total energy              =   -2072.44639596 Ry
     Harris-Foulkes estimate   =   -2072.44641459 Ry
     estimated scf accuracy    <       0.00010350 Ry

     iteration # 22     ecut=    40.00 Ry     beta=0.70
     Davidson diagonalization with overlap
     ethr =  4.46E-08,  avg # of iterations =  1.0

     negative rho (up, down):  0.314E+01 0.000E+00

     total cpu time spent up to now is     5027.6 secs

     total energy              =   -2072.44640347 Ry
     Harris-Foulkes estimate   =   -2072.44640523 Ry
     estimated scf accuracy    <       0.00000369 Ry

     iteration # 23     ecut=    40.00 Ry     beta=0.70
     Davidson diagonalization with overlap
     ethr =  1.59E-09,  avg # of iterations =  2.0

     negative rho (up, down):  0.314E+01 0.000E+00

     total cpu time spent up to now is     5226.4 secs

     total energy              =   -2072.44639867 Ry
     Harris-Foulkes estimate   =   -2072.44641165 Ry
     estimated scf accuracy    <       0.00009788 Ry

     iteration # 24     ecut=    40.00 Ry     beta=0.70
     Davidson diagonalization with overlap
     ethr =  1.59E-09,  avg # of iterations =  2.0

     negative rho (up, down):  0.314E+01 0.000E+00

     total cpu time spent up to now is     5415.0 secs

     total energy              =   -2072.44640475 Ry
     Harris-Foulkes estimate   =   -2072.44640523 Ry
     estimated scf accuracy    <       0.00000263 Ry

     iteration # 25     ecut=    40.00 Ry     beta=0.70
     Davidson diagonalization with overlap
     ethr =  1.13E-09,  avg # of iterations =  1.0

     negative rho (up, down):  0.314E+01 0.000E+00

     total cpu time spent up to now is     5605.8 secs

     total energy              =   -2072.44640488 Ry
     Harris-Foulkes estimate   =   -2072.44640515 Ry
     estimated scf accuracy    <       0.00000282 Ry

     iteration # 26     ecut=    40.00 Ry     beta=0.70
     Davidson diagonalization with overlap
     ethr =  1.13E-09,  avg # of iterations =  1.0

     negative rho (up, down):  0.314E+01 0.000E+00

     total cpu time spent up to now is     5799.5 secs

     End of self-consistent calculation
 --- enter write_ns ---
 LDA+U parameters:
U( 2)     =  4.00000000
alpha( 2) =  0.00000000
atom    3   Tr[ns(na)] =   8.15801
    eigenvalues: 
  0.603  0.628  0.903  0.971  0.975
    eigenvectors:
  0.000  0.191  0.003  0.001  0.805
  1.000  0.000  0.000  0.000  0.000
  0.000  0.000  0.997  0.000  0.003
  0.000  0.809  0.000  0.000  0.191
  0.000  0.000  0.000  0.999  0.001
    occupations:
  0.908 -0.000  0.003 -0.136 -0.000
 -0.000  0.603 -0.000 -0.000 -0.005
  0.003 -0.000  0.903 -0.004  0.001
 -0.136 -0.000 -0.004  0.694 -0.000
 -0.000 -0.005  0.001 -0.000  0.971
atom    4   Tr[ns(na)] =   8.13978
    eigenvalues: 
  0.619  0.667  0.875  0.925  0.984
    eigenvectors:
  0.000  0.989  0.000  0.000  0.010
  0.000  0.000  0.056  0.944  0.000
  0.000  0.000  0.944  0.056  0.000
  0.000  0.010  0.000  0.000  0.989
  1.000  0.000  0.000  0.000  0.000
    occupations:
  0.670 -0.003 -0.001  0.032  0.001
 -0.003  0.923  0.012  0.000 -0.001
 -0.001  0.012  0.878 -0.000  0.001
  0.032  0.000 -0.000  0.980  0.000
  0.001 -0.001  0.001  0.000  0.619
atom    9   Tr[ns(na)] =   8.12518
    eigenvalues: 
  0.650  0.667  0.861  0.901  0.983
    eigenvectors:
  0.000  0.144  0.000  0.000  0.856
  1.000  0.000  0.000  0.000  0.000
  0.000  0.000  1.000  0.000  0.000
  0.000  0.856  0.000  0.000  0.144
  0.000  0.000  0.000  1.000  0.000
    occupations:
  0.938  0.000 -0.000 -0.111 -0.000
  0.000  0.650  0.000  0.000 -0.000
 -0.000  0.000  0.861 -0.000 -0.000
 -0.111  0.000 -0.000  0.713  0.001
 -0.000 -0.000 -0.000  0.001  0.901
atom   10   Tr[ns(na)] =   8.10676
    eigenvalues: 
  0.581  0.609  0.934  0.946  0.982
    eigenvectors:
  0.994  0.000  0.000  0.000  0.006
  0.000  0.000  1.000  0.000  0.000
  0.000  0.000  0.000  1.000  0.000
  0.006  0.000  0.000  0.000  0.994
  0.000  1.000  0.000  0.000  0.000
    occupations:
  0.584  0.000  0.001  0.031 -0.000
  0.000  0.934 -0.000  0.000 -0.000
  0.001 -0.000  0.946  0.000  0.000
  0.031  0.000  0.000  0.980  0.000
 -0.000 -0.000  0.000  0.000  0.609
atom   16   Tr[ns(na)] =   8.15767
    eigenvalues: 
  0.603  0.628  0.902  0.971  0.975
    eigenvectors:
  0.000  0.191  0.003  0.001  0.805
  1.000  0.000  0.000  0.000  0.000
  0.000  0.000  0.997  0.000  0.003
  0.000  0.809  0.000  0.000  0.191
  0.000  0.000  0.000  0.999  0.001
    occupations:
  0.908 -0.000  0.003 -0.136 -0.000
 -0.000  0.603 -0.000 -0.000 -0.005
  0.003 -0.000  0.903 -0.004  0.001
 -0.136 -0.000 -0.004  0.694 -0.000
 -0.000 -0.005  0.001 -0.000  0.971
atom   17   Tr[ns(na)] =   8.14011
    eigenvalues: 
  0.619  0.667  0.875  0.925  0.984
    eigenvectors:
  0.000  0.989  0.000  0.000  0.010
  0.000  0.000  0.056  0.944  0.000
  0.000  0.000  0.944  0.056  0.000
  0.000  0.010  0.000  0.000  0.989
  1.000  0.000  0.000  0.000  0.000
    occupations:
  0.670 -0.003 -0.001  0.032  0.001
 -0.003  0.923  0.012  0.000 -0.001
 -0.001  0.012  0.878 -0.000  0.001
  0.032  0.000 -0.000  0.980  0.000
  0.001 -0.001  0.001  0.000  0.619
atom   22   Tr[ns(na)] =   8.12519
    eigenvalues: 
  0.650  0.667  0.861  0.901  0.983
    eigenvectors:
  0.000  0.144  0.000  0.000  0.856
  1.000  0.000  0.000  0.000  0.000
  0.000  0.000  1.000  0.000  0.000
  0.000  0.856  0.000  0.000  0.144
  0.000  0.000  0.000  1.000  0.000
    occupations:
  0.938  0.000 -0.000 -0.111 -0.000
  0.000  0.650  0.000  0.000 -0.000
 -0.000  0.000  0.861 -0.000 -0.000
 -0.111  0.000 -0.000  0.713  0.001
 -0.000 -0.000 -0.000  0.001  0.901
atom   23   Tr[ns(na)] =   8.10678
    eigenvalues: 
  0.581  0.609  0.934  0.946  0.982
    eigenvectors:
  0.994  0.000  0.000  0.000  0.006
  0.000  0.000  1.000  0.000  0.000
  0.000  0.000  0.000  1.000  0.000
  0.006  0.000  0.000  0.000  0.994
  0.000  1.000  0.000  0.000  0.000
    occupations:
  0.584  0.000  0.001  0.031 -0.000
  0.000  0.934 -0.000  0.000 -0.000
  0.001 -0.000  0.946  0.000  0.000
  0.031  0.000  0.000  0.980  0.000
 -0.000 -0.000  0.000  0.000  0.609
N of occupied +U levels =  65.0594871
 --- exit write_ns ---

          k = 0.0000 0.0000 0.0000 ( 31045 PWs)   bands (ev):

   -50.6468 -50.6408 -50.6342 -50.5612 -50.5530 -50.5416 -50.5271 -50.4415
   -50.4233 -50.4089 -50.3961 -50.3881 -50.3816 -50.3347 -50.3125 -50.2797
   -50.2770 -50.2132 -50.2032 -50.1907 -50.1771 -50.1623 -50.0466 -50.0338
   -21.6423 -21.3399 -21.2057 -21.0382 -20.5194 -20.4295 -20.4199 -20.3870
   -20.3385 -20.3232 -20.2432 -20.1425 -19.8708 -19.6661 -19.6001 -19.5913
   -18.7914 -18.6404 -10.9041 -10.8110 -10.2825  -9.5137  -9.4534  -9.3095
    -9.1495  -9.0494  -8.8835  -8.7785  -8.7171  -8.6803  -8.6644  -8.5987
    -8.3808  -8.2910  -8.1816  -7.9868  -7.9764  -7.8204  -7.6204  -7.2589
    -7.2493  -7.0649  -6.8615  -6.5011  -6.3228  -6.2762  -6.2227  -6.1428
    -6.0328  -5.7888  -5.6461  -5.5545  -5.4134  -5.3487  -5.3368  -5.3139
    -5.1296  -5.0963  -5.0106  -4.7617  -4.5536  -4.5456  -4.5028  -4.4753
    -4.3682  -4.2427  -4.0595  -4.0401  -4.0279  -3.9334  -3.9143  -3.8820
    -3.7184  -3.7138  -3.5735  -3.5462  -3.5060  -3.4475  -3.2787  -3.2125
    -3.1807  -2.9962  -2.8545  -2.5837  -2.2241  -2.1755  -1.9952  -1.8928
    -1.8826  -1.5002  -1.3123  -1.1504  -1.0905  -0.6999  -0.4687  -0.3822
    -0.2560  -0.0858   1.1552   1.4053   1.5318   1.6227   1.7004   1.7983
     2.1432   2.4189   2.7294   3.0497   3.2058   3.2466   3.4428   3.4729
     3.7950   4.0837   4.2665   4.7489   4.8921   5.7744   5.8935   6.2344
     6.3500   6.6581   6.8984   6.9606   7.2608   7.3399   7.3908   7.4669
     7.7706   7.8495   7.9209   7.9291   7.9311   7.9881   8.0251   8.0566
     8.2053   8.2700   8.3440   8.4161   8.4409   8.4467   8.5689   8.5967
     8.7125   8.8154   9.0063   9.1286   9.1526   9.2088   9.3128   9.3432
     9.3453   9.4375   9.4383   9.5054   9.5123   9.5245   9.5273   9.5720
     9.5730   9.6749   9.7747  10.0102  10.0973  10.1027  10.1441  10.3367
    10.4811  10.4823  10.5120  10.7037  10.8573  10.8870  11.0300  11.0858
    11.1512  11.2012  11.2372  11.2621  11.3487  11.5000  11.5447  11.6508
    11.6780  11.6945  11.7681  11.8268  11.8394  11.9241  11.9327  12.0252
    12.1721  12.1865  12.1961  12.2670  12.3848  12.3934  12.4751  12.6315
    12.6373  12.6675  12.7148  12.7361  12.8807  13.0168  13.1489  13.2214
    13.2773  13.5479  13.5752  13.6581  13.7143  13.7990  13.8900  13.9221
    14.1912  14.2252  14.2567  14.3355  14.4184  14.4942  14.6437  14.8021
    14.8909  14.9287  15.1433  15.1925  15.2530  15.3233  15.4068  15.4774
    15.6074  15.6641  15.7071  15.7313  15.7593  15.9649  15.9762  16.1344
    16.1738  16.3068  16.3324  16.5593  16.6670  16.7980  16.8079  16.8091
    17.1699  17.1986  17.2013  17.2893  17.3400  17.3758  17.4565  17.5476
    17.6429  17.8184  17.8908  17.9047  17.9324  17.9945  18.1526  18.2583
    18.3080  18.4351  18.4890  18.5694  18.5835  18.7074  18.7638  18.8356
    18.8518  18.9121  18.9301  19.0262  19.1269  19.1352  19.1575  19.2145
    19.2290  19.2530  19.2992  19.3745  19.4700  19.5506  19.5708  19.6538
    19.7625  19.7884  19.8203  19.9691  19.9754  19.9878  20.1316  20.1423
    20.2336  20.3554  20.3710  20.3991  20.4888  20.5353  20.5518  20.6319
    20.6486  20.6892  20.7418  20.7874  21.0192  21.0436  21.1356  21.2104
    21.2392  21.2932  21.3929  21.4198  21.5934  21.6415  21.7427  21.7672
    21.9037  21.9700  21.9764  22.0303

          k = 0.0000 0.2476 0.0000 ( 31078 PWs)   bands (ev):

   -50.6468 -50.6410 -50.6345 -50.5614 -50.5529 -50.5416 -50.5266 -50.4406
   -50.4233 -50.4077 -50.3952 -50.3883 -50.3815 -50.3348 -50.3114 -50.2821
   -50.2763 -50.2133 -50.2035 -50.1906 -50.1773 -50.1622 -50.0476 -50.0325
   -21.5524 -21.1959 -21.1728 -21.0375 -20.6369 -20.5830 -20.5416 -20.4119
   -20.3243 -20.1565 -20.0989 -20.0577 -19.9032 -19.8389 -19.7746 -19.5922
   -18.7881 -18.6407 -10.5155 -10.3466 -10.1941  -9.9346  -9.5079  -9.4594
    -9.3132  -9.2269  -8.8130  -8.7609  -8.5958  -8.5418  -8.4949  -8.3460
    -8.2801  -8.1883  -8.0900  -7.8999  -7.8658  -7.4388  -7.2999  -7.2673
    -7.2369  -6.9796  -6.9323  -6.8142  -6.4878  -6.4147  -6.3284  -6.3113
    -6.0596  -5.9905  -5.8955  -5.8787  -5.7339  -5.6914  -5.6355  -5.4322
    -5.2722  -5.2079  -5.1921  -4.9864  -4.8185  -4.6285  -4.5973  -4.5036
    -4.4222  -4.0585  -4.0439  -4.0042  -3.8846  -3.7288  -3.6521  -3.6120
    -3.5544  -3.4816  -3.4448  -3.3718  -3.2814  -3.2756  -3.1724  -3.1223
    -3.0903  -3.0417  -3.0374  -2.8297  -2.7050  -2.5453  -2.1509  -1.8828
    -1.8486  -1.2720  -1.2228  -1.0074  -0.8559  -0.6818  -0.5076  -0.4121
    -0.3696   0.0002   0.7596   0.9077   1.4284   1.6382   1.6691   2.2855
     2.7281   3.0656   3.1918   3.2095   3.2365   3.2747   3.2870   3.4091
     3.7976   4.0851   4.4972   4.9270   5.1082   5.4349   5.9256   6.0216
     6.2586   6.3782   6.4977   6.7747   6.7773   6.9949   7.0284   7.2023
     7.4259   7.5051   7.5598   7.7447   7.8271   8.1275   8.2027   8.2562
     8.4017   8.4240   8.5591   8.5784   8.5960   8.6044   8.7074   8.9427
     9.0065   9.0451   9.1611   9.3425   9.3431   9.3628   9.3882   9.4348
     9.4384   9.4436   9.5229   9.5232   9.5246   9.5260   9.5743   9.5751
     9.6085   9.7814   9.8778   9.9451  10.0737  10.0932  10.2103  10.2188
    10.2477  10.2983  10.4047  10.4201  10.4542  10.5953  10.7520  10.8555
    10.9230  10.9940  11.0225  11.1057  11.2370  11.2776  11.3543  11.4238
    11.6455  11.6506  11.6699  12.0543  12.0712  12.1377  12.1846  12.3506
    12.4665  12.4802  12.5752  12.6266  12.6631  12.7208  12.7775  12.8955
    12.9739  13.0781  13.1916  13.2237  13.3907  13.5908  13.6164  13.6332
    13.7802  13.8206  13.8320  13.8531  13.9719  14.0038  14.0861  14.1180
    14.1218  14.3026  14.4021  14.5277  14.5508  14.5656  14.7550  14.8078
    14.8617  14.9519  15.0910  15.3325  15.3944  15.4107  15.5266  15.5406
    15.5792  15.5959  15.7586  15.8225  15.8537  15.9472  15.9881  16.0588
    16.1342  16.2448  16.2724  16.3976  16.5063  16.5069  16.6049  16.6759
    16.7162  16.7180  16.9835  17.0464  17.0547  17.1424  17.2036  17.2718
    17.3251  17.3741  17.4466  17.4782  17.6262  17.6326  17.7169  17.9370
    18.0320  18.1235  18.1756  18.2551  18.4878  18.5378  18.5542  18.5784
    18.6820  18.7961  18.8633  18.8948  18.9486  18.9640  19.1114  19.1152
    19.2070  19.2588  19.2630  19.3477  19.3750  19.4010  19.4256  19.5396
    19.5531  19.5667  19.6304  19.7047  19.7523  19.8073  19.8102  19.8606
    19.8777  19.9297  20.0181  20.0861  20.0991  20.1642  20.2788  20.2943
    20.3962  20.4205  20.5869  20.6668  20.8086  20.8145  20.8754  20.8955
    20.9528  21.0008  21.0126  21.0252  21.0623  21.0817  21.1529  21.2067
    21.2071  21.2465  21.2959  21.5016

          k = 0.0000-0.4953 0.0000 ( 31160 PWs)   bands (ev):

   -50.6469 -50.6412 -50.6347 -50.5616 -50.5528 -50.5417 -50.5260 -50.4397
   -50.4232 -50.4063 -50.3943 -50.3885 -50.3814 -50.3350 -50.3103 -50.2846
   -50.2756 -50.2133 -50.2037 -50.1905 -50.1775 -50.1622 -50.0486 -50.0312
   -21.4594 -21.1284 -21.0367 -20.9540 -20.7406 -20.6804 -20.6163 -20.4027
   -20.3368 -20.1598 -20.0522 -20.0383 -19.9918 -19.9544 -19.8477 -19.5927
   -18.7848 -18.6419 -10.3365 -10.2053  -9.7813  -9.7662  -9.6418  -9.5139
    -9.3174  -9.3048  -8.6155  -8.4376  -8.3938  -8.3721  -8.3636  -8.2671
    -8.2626  -8.1949  -8.0931  -7.9242  -7.9213  -7.4591  -7.4164  -7.3864
    -7.2890  -7.2171  -7.1969  -6.7291  -6.5905  -6.4797  -6.3801  -6.3150
    -6.2955  -6.2250  -6.1318  -6.1303  -5.9066  -5.8870  -5.6392  -5.4538
    -5.2657  -5.2101  -5.1064  -5.0146  -4.9451  -4.6809  -4.5578  -4.5032
    -4.1646  -4.0961  -4.0692  -4.0241  -3.8574  -3.8244  -3.7103  -3.6370
    -3.5868  -3.5439  -3.5090  -3.4746  -3.4320  -3.2912  -3.2438  -3.2118
    -3.1025  -3.0127  -2.8112  -2.5565  -2.4739  -2.3963  -2.0346  -1.7836
    -1.7701  -1.5269  -1.3544  -1.1315  -0.7284  -0.5556  -0.4881  -0.4557
    -0.3426   0.1308   0.3625   0.5097   1.4474   1.6531   2.1404   2.6566
     2.7235   2.9311   2.9833   3.2684   3.3429   3.5667   3.7980   3.8112
     4.0884   4.3237   4.5846   5.1567   5.1963   5.2586   5.5455   5.6989
     5.7771   5.9730   6.4771   6.5421   6.6642   6.7521   6.8977   6.9730
     7.3489   7.4095   7.5313   7.6066   7.8464   7.9236   8.2062   8.5420
     8.6003   8.6685   8.7206   8.7846   8.8129   8.9154   8.9349   9.0096
     9.0432   9.0930   9.1290   9.2073   9.2214   9.2528   9.3156   9.3441
     9.3460   9.3588   9.4356   9.4369   9.4877   9.5243   9.5248   9.5462
     9.5727   9.5737   9.6190   9.7822   9.8813   9.9066  10.0538  10.1017
    10.1298  10.2183  10.2719  10.2904  10.4063  10.9028  10.9682  11.0799
    11.1284  11.1681  11.2943  11.3569  11.4958  11.5506  11.6453  11.6966
    11.7335  11.8763  12.1577  12.2087  12.3199  12.3230  12.4425  12.4448
    12.6121  12.6493  12.7217  12.7995  12.8242  12.8678  12.9458  13.0068
    13.0369  13.1156  13.2259  13.2832  13.3759  13.4675  13.4846  13.5620
    13.6069  13.8200  13.8344  13.9447  14.0348  14.1773  14.1785  14.2587
    14.3976  14.5413  14.5966  14.6687  14.7640  14.9195  15.1471  15.2009
    15.2656  15.3217  15.3895  15.4580  15.5289  15.5835  15.6344  15.7764
    15.8262  15.8387  15.9989  16.0232  16.0608  16.1054  16.1131  16.1357
    16.1848  16.2813  16.3360  16.3726  16.4240  16.4674  16.5011  16.5401
    16.5689  16.6418  16.6890  16.8105  16.8431  16.9306  16.9460  16.9814
    17.0737  17.1407  17.2693  17.3188  17.3391  17.4381  17.5434  17.5818
    17.7778  17.8099  17.8595  17.8835  17.9330  17.9750  18.0924  18.0943
    18.1970  18.2732  18.3233  18.3347  18.3747  18.4102  18.4407  18.5236
    18.6164  18.6382  18.7456  18.8721  18.9193  19.2026  19.2063  19.3860
    19.4159  19.4310  19.4508  19.5565  19.5969  19.6126  19.7869  19.9130
    19.9226  19.9390  20.0428  20.0639  20.1096  20.1390  20.1791  20.2466
    20.2554  20.3025  20.4152  20.4254  20.4375  20.4956  20.5529  20.6069
    20.6248  20.6270  20.6923  20.7844  20.7975  20.8869  20.9108  20.9763
    21.0368  21.0640  21.0951  21.1439

          k = 0.2500 0.0000 0.0000 ( 31106 PWs)   bands (ev):

   -50.6402 -50.6355 -50.6341 -50.5664 -50.5535 -50.5527 -50.5150 -50.4412
   -50.4281 -50.4079 -50.3986 -50.3874 -50.3827 -50.3527 -50.3004 -50.2795
   -50.2775 -50.2300 -50.2018 -50.1926 -50.1750 -50.1646 -50.0449 -50.0357
   -21.5058 -21.2035 -21.1007 -21.0365 -20.6401 -20.5205 -20.4263 -20.4065
   -20.3590 -20.2552 -20.1562 -20.1353 -19.8313 -19.7718 -19.7015 -19.6165
   -18.8555 -18.7280 -10.6254 -10.5540 -10.0578  -9.4688  -9.2292  -9.1957
    -9.0680  -9.0360  -8.9390  -8.9025  -8.8887  -8.7478  -8.6469  -8.5414
    -8.3713  -8.2794  -8.0134  -7.9505  -7.8581  -7.7817  -7.6477  -7.3632
    -7.1994  -7.1051  -6.7933  -6.7556  -6.4522  -6.3002  -6.2123  -6.1602
    -6.1491  -6.0552  -6.0290  -6.0256  -5.6964  -5.6739  -5.3736  -5.3032
    -5.2679  -5.1729  -5.1224  -5.0405  -4.9723  -4.8011  -4.7311  -4.5987
    -4.5416  -4.4458  -4.3233  -4.3060  -3.9456  -3.7894  -3.7084  -3.5642
    -3.5421  -3.4644  -3.4425  -3.3624  -3.2060  -3.1864  -3.1477  -2.9774
    -2.7531  -2.5693  -2.4399  -2.4141  -2.1267  -2.0595  -1.9476  -1.7516
    -1.6617  -1.5296  -1.4230  -1.4225  -1.0809  -0.8542  -0.6066  -0.2702
    -0.2519  -0.1430   1.3595   1.5765   1.6057   1.7343   1.8854   1.9300
     2.1327   2.3811   2.4421   3.0450   3.1009   3.1069   3.1834   3.3770
     3.5031   4.2773   4.5082   4.9701   5.1623   5.3985   5.8171   6.0282
     6.0887   6.3784   6.4931   6.6913   6.9902   7.1641   7.4406   7.5142
     7.5576   7.5936   7.5980   7.8958   8.0051   8.1381   8.2130   8.2646
     8.2734   8.3316   8.4577   8.5332   8.6234   8.8428   8.9150   8.9279
     9.0152   9.0313   9.1145   9.2317   9.3442   9.3454   9.3764   9.4357
     9.4364   9.4422   9.5165   9.5244   9.5337   9.5720   9.5742   9.7108
     9.7280   9.7652   9.9412   9.9605  10.0208  10.1011  10.1422  10.2043
    10.2662  10.3335  10.4472  10.4605  10.5117  10.5865  10.6502  10.9229
    10.9762  11.1181  11.1438  11.1820  11.1945  11.2469  11.2727  11.3626
    11.3765  11.5066  11.7835  11.9427  11.9808  12.0068  12.0722  12.1601
    12.2658  12.3873  12.4536  12.4828  12.6633  12.7396  12.7890  12.7971
    12.8216  13.2134  13.2583  13.3487  13.3953  13.4857  13.6705  13.6891
    13.7183  13.8272  13.8791  13.9623  13.9943  14.0709  14.1380  14.1692
    14.1998  14.2763  14.3279  14.4635  14.5274  14.5666  14.6007  14.6660
    14.8259  14.8795  14.9593  15.0860  15.1643  15.2305  15.3497  15.3571
    15.4351  15.5583  15.5705  15.6903  15.7524  15.9187  15.9189  16.0315
    16.0430  16.1390  16.2077  16.3029  16.3466  16.3904  16.4092  16.4546
    16.6622  16.7362  16.9144  17.0922  17.1208  17.1858  17.2704  17.2907
    17.4333  17.4843  17.4960  17.5943  17.7029  17.7205  17.9155  18.0786
    18.1392  18.1734  18.2621  18.3971  18.4921  18.5903  18.6532  18.6909
    18.7675  18.9352  19.0496  19.0837  19.1849  19.1887  19.2073  19.2732
    19.2845  19.3395  19.3502  19.4022  19.4046  19.4712  19.5402  19.5668
    19.6188  19.6563  19.6718  19.7796  19.8248  19.8803  19.9414  20.0225
    20.0695  20.1009  20.1389  20.2030  20.2255  20.2540  20.3446  20.4365
    20.4946  20.5284  20.5555  20.6316  20.6737  20.6882  20.7884  20.7942
    20.8456  20.8667  20.9690  21.0111  21.0944  21.1957  21.1983  21.2562
    21.3068  21.3363  21.3656  21.4050

          k = 0.2500 0.2476 0.0000 ( 31099 PWs)   bands (ev):

   -50.6403 -50.6357 -50.6341 -50.5665 -50.5535 -50.5528 -50.5144 -50.4411
   -50.4275 -50.4064 -50.3976 -50.3875 -50.3826 -50.3528 -50.2995 -50.2816
   -50.2773 -50.2299 -50.2019 -50.1926 -50.1752 -50.1646 -50.0455 -50.0348
   -21.4294 -21.0684 -21.0513 -21.0351 -20.6563 -20.5709 -20.4520 -20.4286
   -20.3561 -20.2429 -20.1260 -20.0981 -19.9432 -19.9145 -19.7996 -19.6174
   -18.8534 -18.7280 -10.2493 -10.0976  -9.9676  -9.7159  -9.2776  -9.2024
    -9.2023  -9.0077  -8.8126  -8.8070  -8.7531  -8.7444  -8.5388  -8.4524
    -8.3150  -8.2296  -8.0188  -7.9519  -7.6058  -7.5549  -7.4226  -7.4128
    -7.1883  -7.0386  -6.9333  -6.7912  -6.7700  -6.4940  -6.4393  -6.3861
    -6.2511  -6.2371  -6.1676  -6.0264  -5.9578  -5.9471  -5.8094  -5.6698
    -5.4693  -5.3928  -5.2897  -5.1029  -4.9435  -4.8521  -4.7356  -4.5778
    -4.5321  -4.3660  -4.2854  -4.1359  -3.8317  -3.7451  -3.6211  -3.4478
    -3.4106  -3.3085  -3.2893  -3.1266  -3.1024  -3.0136  -2.8651  -2.8391
    -2.8076  -2.7221  -2.5269  -2.5089  -2.3572  -2.3443  -2.0997  -1.7820
    -1.5299  -1.3858  -1.3281  -1.1030  -1.1029  -0.8944  -0.6929  -0.5254
    -0.1631   0.0452   0.9960   1.1370   1.6018   1.6434   1.7684   2.2060
     2.4159   2.6887   2.8604   2.8986   3.1840   3.1868   3.3327   3.4141
     3.7817   4.3200   4.7423   5.1549   5.3889   5.5696   5.6648   5.9131
     6.1337   6.2832   6.5253   6.5854   6.6213   6.8582   7.0312   7.1068
     7.2827   7.3816   7.4594   7.6404   7.6757   7.8836   7.9544   8.0504
     8.1449   8.3505   8.4390   8.4970   8.5650   8.7615   8.8024   8.8882
     8.9046   9.1336   9.1814   9.2311   9.3030   9.3441   9.3457   9.4374
     9.4381   9.4776   9.5244   9.5246   9.5711   9.5735   9.6193   9.6925
     9.7484   9.9389  10.0175  10.0866  10.2206  10.2974  10.3088  10.4112
    10.4114  10.5215  10.5822  10.6975  10.8038  10.8532  10.9166  11.0087
    11.0199  11.2362  11.3231  11.4058  11.5573  11.5738  11.6253  11.7532
    11.7798  11.9242  12.0671  12.1175  12.1357  12.2728  12.2952  12.3876
    12.4917  12.6218  12.6312  12.6860  12.7083  12.8046  12.8288  12.9695
    13.0478  13.1094  13.1447  13.1949  13.2272  13.3394  13.4883  13.6109
    13.6204  13.7255  13.8244  13.8412  13.9835  14.0528  14.1028  14.1179
    14.2395  14.3559  14.4384  14.4920  14.5603  14.7293  14.7587  14.8904
    14.9644  15.2365  15.2775  15.3101  15.4014  15.5277  15.5417  15.5681
    15.6194  15.7627  15.8002  15.8359  15.8953  15.9012  15.9552  16.0576
    16.0616  16.1211  16.1632  16.2456  16.3353  16.3748  16.3929  16.4880
    16.5908  16.6507  16.6978  16.7345  16.8423  16.8714  17.0118  17.1151
    17.1702  17.3543  17.3600  17.4317  17.4411  17.5107  17.5491  17.5731
    17.6523  17.7290  17.7399  17.8131  17.8575  17.8768  17.9681  17.9821
    18.1806  18.2825  18.3311  18.3442  18.4889  18.4971  18.5750  18.6172
    18.7436  18.8095  18.9109  18.9440  19.0607  19.0856  19.1366  19.2198
    19.2292  19.2998  19.3709  19.4281  19.5914  19.6861  19.7145  19.7241
    19.8482  19.8861  19.9606  20.0223  20.0830  20.2962  20.3599  20.3893
    20.5054  20.5358  20.6328  20.6444  20.7026  20.7085  20.8055  20.8843
    20.9396  20.9406  21.0453  21.1112  21.1144  21.2631  21.2998  21.3102
    21.3698  21.4256  21.5014  21.5815

          k = 0.2500-0.4953 0.0000 ( 31088 PWs)   bands (ev):

   -50.6404 -50.6358 -50.6341 -50.5666 -50.5535 -50.5528 -50.5139 -50.4409
   -50.4268 -50.4051 -50.3963 -50.3877 -50.3826 -50.3528 -50.2986 -50.2836
   -50.2773 -50.2298 -50.2022 -50.1926 -50.1754 -50.1646 -50.0461 -50.0338
   -21.3556 -21.0335 -20.9788 -20.8282 -20.6754 -20.6100 -20.5181 -20.4426
   -20.3872 -20.2445 -20.1405 -20.1005 -20.0932 -20.0665 -19.8152 -19.6180
   -18.8512 -18.7287 -10.0908  -9.9000  -9.4944  -9.4408  -9.3681  -9.2920
    -9.2131  -9.0734  -8.6910  -8.5455  -8.4913  -8.4905  -8.4698  -8.3943
    -8.2500  -8.1772  -8.0227  -7.8544  -7.7841  -7.5544  -7.5504  -7.3947
    -7.2671  -7.0727  -7.0287  -7.0145  -6.9872  -6.9300  -6.7776  -6.6165
    -6.5725  -6.2867  -6.2562  -6.1823  -6.0776  -5.9742  -5.9100  -5.8795
    -5.6524  -5.6100  -5.1341  -5.1194  -4.9140  -4.7863  -4.6811  -4.5101
    -4.4438  -4.2729  -4.1672  -3.9928  -3.8481  -3.8002  -3.6396  -3.5881
    -3.3298  -3.2762  -3.1416  -3.1100  -3.0908  -3.0035  -2.9561  -2.9309
    -2.8802  -2.7557  -2.5680  -2.3663  -2.2725  -1.9620  -1.9128  -1.7176
    -1.5644  -1.4735  -1.4570  -1.1882  -0.9111  -0.8571  -0.7489  -0.6387
    -0.0619   0.1670   0.5748   0.7239   1.6174   1.6569   2.1827   2.2215
     2.3501   2.4230   2.8665   3.1790   3.1902   3.4275   3.4751   3.7117
     4.3725   4.5306   4.8569   5.4147   5.4560   5.5396   5.7989   5.8755
     5.9901   6.0277   6.0722   6.2801   6.5621   6.7501   6.8291   7.0447
     7.2365   7.2661   7.2778   7.3961   7.5672   7.7431   7.8664   7.8988
     8.0411   8.1275   8.2178   8.2269   8.3947   8.4917   8.6046   8.7424
     8.9009   9.0044   9.0275   9.3438   9.3446   9.4189   9.4368   9.4371
     9.4619   9.5240   9.5265   9.5513   9.5672   9.5697   9.6360   9.7675
     9.8322   9.8517  10.0200  10.0843  10.2086  10.2815  10.3864  10.4452
    10.5273  10.9227  10.9578  10.9901  11.0601  11.3102  11.3832  11.4144
    11.4506  11.5009  11.5599  11.6762  11.7590  11.7690  11.8759  12.0038
    12.0320  12.1031  12.1515  12.2293  12.4505  12.4703  12.5869  12.6241
    12.7175  12.7317  12.8005  12.8447  12.8617  13.0408  13.1150  13.1845
    13.2515  13.2537  13.3139  13.3180  13.3946  13.5764  13.5772  13.6261
    13.6657  13.8528  13.9160  13.9469  14.0196  14.1210  14.2336  14.4036
    14.4826  14.5453  14.5475  14.6094  14.6345  14.6472  14.7142  14.7346
    14.8200  14.8415  14.9282  14.9625  15.0499  15.1108  15.1345  15.3045
    15.3895  15.4920  15.5240  15.5869  15.6500  15.8107  15.8851  15.9616
    16.0153  16.0811  16.1508  16.1891  16.2182  16.3659  16.4327  16.4758
    16.5184  16.6027  16.6475  16.6616  16.7539  16.7853  16.9012  16.9277
    16.9510  17.0398  17.0579  17.1345  17.2214  17.3104  17.3360  17.3442
    17.4907  17.5906  17.6410  17.6632  17.7980  17.9154  17.9155  17.9287
    18.0152  18.0435  18.1958  18.2638  18.3847  18.3892  18.4299  18.5268
    18.6041  18.6144  18.6884  18.6953  18.7562  18.8794  18.9252  18.9329
    19.0366  19.0537  19.1593  19.1815  19.3042  19.4170  19.4304  19.4450
    19.6011  19.6814  19.7064  19.7585  19.8113  19.8287  19.8436  19.9092
    19.9933  20.0029  20.3310  20.3452  20.5139  20.5204  20.5758  20.5825
    20.6707  20.7835  20.7884  20.8897  20.9525  20.9951  21.0139  21.1617
    21.1715  21.2462  21.3339  21.5082

          k =-0.5000 0.0000 0.0000 ( 31104 PWs)   bands (ev):

   -50.6382 -50.6381 -50.6008 -50.6003 -50.5553 -50.5547 -50.4809 -50.4808
   -50.4042 -50.4037 -50.3929 -50.3928 -50.3851 -50.3850 -50.2790 -50.2782
   -50.2680 -50.2672 -50.1977 -50.1969 -50.1699 -50.1699 -50.0405 -50.0404
   -21.1996 -21.1994 -20.9088 -20.9086 -20.8399 -20.8395 -20.4538 -20.4537
   -20.2105 -20.2103 -20.0233 -20.0226 -19.9359 -19.9357 -19.7135 -19.7132
   -18.8714 -18.8706  -9.8912  -9.8908  -9.8673  -9.8671  -9.5694  -9.5693
    -8.9772  -8.9771  -8.9019  -8.9017  -8.7425  -8.7424  -8.5726  -8.5724
    -8.2384  -8.2384  -8.1010  -8.1010  -7.5985  -7.5985  -7.2131  -7.2128
    -7.0761  -7.0759  -6.9466  -6.9464  -6.7356  -6.7355  -6.4999  -6.4995
    -6.3691  -6.3690  -5.9384  -5.9383  -5.8402  -5.8401  -5.7380  -5.7378
    -5.5597  -5.5595  -5.2400  -5.2398  -4.9507  -4.9506  -4.7114  -4.7113
    -4.5398  -4.5396  -4.2274  -4.2272  -3.7303  -3.7302  -3.5685  -3.5682
    -3.3489  -3.3486  -3.2639  -3.2638  -3.1846  -3.1846  -2.9133  -2.9131
    -2.2762  -2.2761  -2.1611  -2.1610  -1.9966  -1.9965  -1.8174  -1.8172
    -1.4982  -1.4980  -1.4691  -1.4685  -1.0612  -1.0609  -0.6783  -0.6781
    -0.0687  -0.0687   1.6783   1.6785   1.8183   1.8184   2.2797   2.2799
     2.3073   2.3076   2.3787   2.3789   2.4149   2.4150   3.2893   3.2895
     4.3204   4.3204   4.8545   4.8546   5.2249   5.2249   5.6254   5.6254
     5.9064   5.9064   6.6120   6.6120   6.7208   6.7209   7.0968   7.0969
     7.7429   7.7429   8.1219   8.1220   8.1812   8.1812   8.2230   8.2231
     8.6178   8.6179   8.8091   8.8091   8.8668   8.8668   9.0542   9.0543
     9.0967   9.0967   9.2072   9.2072   9.3215   9.3216   9.3470   9.3475
     9.4152   9.4152   9.4383   9.4384   9.5242   9.5243   9.5612   9.5617
     9.5828   9.5832   9.6806   9.6807   9.8934   9.8935  10.0563  10.0563
    10.1528  10.1528  10.2950  10.2950  10.5792  10.5792  10.9343  10.9343
    11.0079  11.0080  11.3003  11.3003  11.5883  11.5883  11.7187  11.7187
    11.8346  11.8347  11.9883  11.9884  12.0641  12.0641  12.3991  12.3991
    12.5399  12.5399  12.7521  12.7521  12.8687  12.8687  13.0497  13.0498
    13.1550  13.1551  13.2272  13.2273  13.3043  13.3044  13.5416  13.5417
    13.6772  13.6773  13.8046  13.8047  14.0151  14.0152  14.1109  14.1109
    14.2069  14.2069  14.3046  14.3046  14.4951  14.4951  14.6595  14.6596
    14.8147  14.8147  15.0885  15.0885  15.3360  15.3360  15.5050  15.5051
    15.8602  15.8602  16.0792  16.0792  16.1797  16.1797  16.2224  16.2224
    16.2887  16.2888  16.3879  16.3879  16.4409  16.4409  16.5673  16.5673
    16.6143  16.6143  16.6746  16.6747  16.8132  16.8132  16.8556  16.8556
    17.0523  17.0524  17.2058  17.2058  17.5174  17.5175  17.6238  17.6239
    17.8044  17.8044  18.0377  18.0378  18.1257  18.1257  18.3837  18.3837
    18.4796  18.4797  18.5296  18.5297  18.7328  18.7329  18.8979  18.8980
    19.0560  19.0562  19.1232  19.1232  19.2377  19.2378  19.3385  19.3386
    19.5551  19.5552  19.6003  19.6003  19.7515  19.7515  19.7978  19.7978
    19.8836  19.8836  20.0094  20.0094  20.1107  20.1108  20.2144  20.2144
    20.2664  20.2664  20.3082  20.3083  20.4995  20.4995  20.6435  20.6436
    20.7407  20.7407  20.9723  20.9724  21.0246  21.0246  21.1140  21.1141
    21.1806  21.1807  21.2862  21.2864

          k =-0.5000 0.2476 0.0000 ( 31120 PWs)   bands (ev):

   -50.6382 -50.6382 -50.6008 -50.6003 -50.5554 -50.5548 -50.4804 -50.4804
   -50.4028 -50.4022 -50.3926 -50.3925 -50.3852 -50.3851 -50.2802 -50.2793
   -50.2675 -50.2667 -50.1978 -50.1970 -50.1700 -50.1700 -50.0403 -50.0402
   -21.1674 -21.1671 -20.8258 -20.8254 -20.7387 -20.7382 -20.4670 -20.4669
   -20.2437 -20.2394 -20.1241 -20.1195 -20.0741 -20.0739 -19.7114 -19.7110
   -18.8707 -18.8698  -9.6058  -9.5994  -9.4653  -9.4640  -9.4490  -9.4443
    -8.9882  -8.9777  -8.9245  -8.9157  -8.7304  -8.7226  -8.5969  -8.5835
    -8.3429  -8.2921  -7.9681  -7.8877  -7.5949  -7.5763  -7.4925  -7.4903
    -7.3114  -7.2697  -7.0526  -6.9367  -6.7817  -6.7016  -6.5776  -6.5373
    -6.3655  -6.3545  -6.1965  -6.1885  -5.9497  -5.9316  -5.8312  -5.8216
    -5.7945  -5.7893  -5.5412  -5.4720  -4.9936  -4.9269  -4.7866  -4.7701
    -4.6268  -4.4697  -4.2759  -4.0807  -3.8817  -3.8582  -3.5485  -3.5171
    -3.1753  -3.1690  -2.9678  -2.9360  -2.8077  -2.7897  -2.7523  -2.7146
    -2.5662  -2.4794  -2.3347  -2.3031  -1.8850  -1.8522  -1.7719  -1.7653
    -1.5371  -1.5359  -1.3556  -1.2869  -1.1692  -1.1444  -0.8530  -0.8296
     0.0510   0.0513   1.6151   1.6240   1.6751   1.6754   1.8730   1.8739
     2.0938   2.1004   2.5819   2.5916   2.9514   2.9528   3.3908   3.3962
     4.5516   4.5613   4.9526   4.9527   5.4518   5.4527   5.8123   5.8212
     6.0988   6.1141   6.3289   6.3536   6.7284   6.7309   6.9826   6.9930
     7.2139   7.2203   7.3072   7.3074   7.7176   7.7297   7.9184   7.9403
     8.1088   8.1213   8.2746   8.3075   8.5746   8.6072   8.7772   8.8421
     9.0234   9.1393   9.3291   9.3303   9.3456   9.3462   9.4374   9.4375
     9.5243   9.5246   9.5710   9.5718   9.6271   9.6607   9.7062   9.7144
     9.8581   9.8584   9.9483   9.9703  10.2736  10.2852  10.5042  10.5272
    10.7477  10.7522  10.8971  10.8998  10.9676  10.9743  11.1299  11.1426
    11.3734  11.3819  11.5424  11.5531  11.7195  11.7246  11.8993  11.9478
    12.0936  12.1260  12.2473  12.2543  12.2757  12.2886  12.5685  12.5696
    12.6335  12.6650  12.8982  12.9202  13.0066  13.0339  13.1927  13.2032
    13.2827  13.2902  13.4014  13.4155  13.4895  13.4991  13.5540  13.5689
    13.7574  13.7734  13.8976  13.9089  14.1494  14.1802  14.2716  14.2764
    14.3523  14.3603  14.4200  14.4331  14.5340  14.5558  14.6181  14.6335
    14.6944  14.6979  14.8809  14.9026  14.9889  15.0081  15.0774  15.0788
    15.2385  15.2471  15.4438  15.4597  15.6099  15.6181  15.8461  15.8739
    16.0478  16.0673  16.1914  16.2142  16.3253  16.3285  16.3903  16.4148
    16.5871  16.5899  16.6004  16.6083  16.6814  16.7018  16.7829  16.7989
    16.9705  16.9793  17.1361  17.1408  17.2147  17.3050  17.4652  17.4856
    17.5762  17.5899  17.7513  17.7518  17.8953  17.9553  17.9654  17.9961
    18.0829  18.1151  18.2998  18.3359  18.3794  18.3871  18.4382  18.4490
    18.6103  18.6263  18.7383  18.7414  18.8350  18.8397  18.9829  19.0135
    19.1439  19.1710  19.2513  19.2884  19.4446  19.4525  19.5866  19.6247
    19.6786  19.6967  19.8083  19.8252  19.9687  19.9792  20.1035  20.1071
    20.2957  20.3158  20.3439  20.3493  20.4342  20.4728  20.5294  20.6015
    20.7576  20.7718  20.9252  20.9637  20.9961  21.0405  21.2754  21.3056
    21.4274  21.4289  21.5787  21.6000

          k =-0.5000-0.4953 0.0000 ( 31140 PWs)   bands (ev):

   -50.6383 -50.6382 -50.6008 -50.6003 -50.5555 -50.5549 -50.4800 -50.4800
   -50.4013 -50.4008 -50.3924 -50.3923 -50.3853 -50.3852 -50.2812 -50.2804
   -50.2670 -50.2663 -50.1979 -50.1971 -50.1701 -50.1701 -50.0401 -50.0400
   -21.1396 -21.1395 -20.6276 -20.6272 -20.6160 -20.6158 -20.4414 -20.4412
   -20.4129 -20.4125 -20.3175 -20.3172 -20.1425 -20.1423 -19.7116 -19.7114
   -18.8701 -18.8692  -9.5755  -9.5755  -9.0154  -9.0154  -8.9679  -8.9678
    -8.7854  -8.7853  -8.6945  -8.6944  -8.5560  -8.5558  -8.5380  -8.5379
    -8.3912  -8.3911  -8.2708  -8.2707  -8.1246  -8.1246  -7.7143  -7.7143
    -7.1677  -7.1676  -6.9520  -6.9519  -6.8870  -6.8869  -6.6181  -6.6178
    -6.5312  -6.5310  -6.4073  -6.4072  -6.3227  -6.3226  -6.2299  -6.2298
    -5.9154  -5.9154  -5.2005  -5.2004  -4.9839  -4.9839  -4.6524  -4.6524
    -4.5134  -4.5131  -4.2472  -4.2470  -3.6846  -3.6844  -3.3720  -3.3718
    -3.2270  -3.2268  -3.0130  -3.0130  -2.8023  -2.8022  -2.6209  -2.6207
    -2.4236  -2.4235  -2.3740  -2.3739  -1.7292  -1.7289  -1.6431  -1.6430
    -1.4966  -1.4961  -1.2923  -1.2920  -1.1239  -1.1237  -1.0315  -1.0312
     0.1441   0.1441   1.2507   1.2510   1.3780   1.3781   1.8374   1.8378
     2.1516   2.1520   2.8395   2.8399   3.1149   3.1154   3.5382   3.5384
     5.0056   5.0057   5.1241   5.1241   5.5489   5.5489   6.1127   6.1127
     6.1559   6.1559   6.2727   6.2727   6.4972   6.4972   6.7160   6.7160
     6.8159   6.8159   7.0418   7.0419   7.4550   7.4551   7.5323   7.5324
     7.7535   7.7536   8.0050   8.0050   8.4923   8.4924   8.8154   8.8154
     8.9595   8.9595   9.1972   9.1973   9.3448   9.3454   9.3774   9.3775
     9.4373   9.4374   9.5239   9.5240   9.5724   9.5733   9.9114   9.9114
    10.0961  10.0962  10.2523  10.2524  10.3728  10.3730  10.5844  10.5845
    10.9122  10.9123  10.9875  10.9876  11.2699  11.2700  11.7278  11.7279
    11.9781  11.9782  12.1932  12.1933  12.2944  12.2945  12.4995  12.4996
    12.5519  12.5520  12.6626  12.6627  12.8575  12.8575  12.9745  12.9747
    13.0636  13.0637  13.2423  13.2424  13.3777  13.3777  13.4579  13.4579
    13.5153  13.5153  13.5814  13.5814  13.6734  13.6734  13.7061  13.7061
    13.7428  13.7428  13.8461  13.8461  13.9605  13.9606  14.0059  14.0059
    14.0553  14.0553  14.2743  14.2745  14.3177  14.3178  14.4574  14.4574
    14.4867  14.4868  14.6150  14.6151  14.8031  14.8031  15.0565  15.0565
    15.1605  15.1605  15.2599  15.2599  15.3191  15.3191  15.3686  15.3686
    15.4555  15.4555  15.5917  15.5918  15.7540  15.7540  15.8220  15.8220
    15.9633  15.9634  16.0439  16.0439  16.3585  16.3586  16.5087  16.5088
    16.7292  16.7293  16.8499  16.8500  16.9410  16.9410  17.0169  17.0169
    17.1836  17.1836  17.3571  17.3571  17.5708  17.5708  17.7918  17.7919
    18.1103  18.1104  18.1695  18.1695  18.3497  18.3497  18.3855  18.3856
    18.4355  18.4355  18.7484  18.7484  18.9141  18.9141  19.1621  19.1621
    19.3462  19.3463  19.4727  19.4728  19.6413  19.6415  19.7182  19.7183
    20.1331  20.1332  20.1993  20.1993  20.3001  20.3001  20.6182  20.6182
    20.6537  20.6537  20.7390  20.7390  20.7789  20.7790  20.9364  20.9364
    21.0011  21.0011  21.0477  21.0477  21.2524  21.2524  21.3170  21.3170
    21.3410  21.3411  21.4554  21.4563

          k =-0.2500 0.2476 0.0000 ( 31099 PWs)   bands (ev):

   -50.6403 -50.6356 -50.6341 -50.5665 -50.5535 -50.5528 -50.5144 -50.4411
   -50.4275 -50.4066 -50.3973 -50.3875 -50.3826 -50.3528 -50.2996 -50.2814
   -50.2774 -50.2299 -50.2020 -50.1926 -50.1752 -50.1646 -50.0455 -50.0348
   -21.4295 -21.0687 -21.0506 -21.0349 -20.6561 -20.5713 -20.4515 -20.4289
   -20.3563 -20.2468 -20.1259 -20.0942 -19.9431 -19.9141 -19.8007 -19.6172
   -18.8534 -18.7280 -10.2461 -10.0981  -9.9701  -9.7223  -9.2649  -9.2103
    -9.2052  -8.9849  -8.8210  -8.8041  -8.7600  -8.7548  -8.5389  -8.4579
    -8.3283  -8.2285  -8.0240  -7.9338  -7.6173  -7.5381  -7.4188  -7.3466
    -7.2093  -7.0268  -6.9603  -6.8396  -6.7651  -6.5249  -6.4419  -6.3814
    -6.2631  -6.2343  -6.0782  -6.0288  -5.9664  -5.9404  -5.8144  -5.6694
    -5.4795  -5.4105  -5.2362  -5.1622  -4.9941  -4.7595  -4.7469  -4.6872
    -4.5272  -4.3644  -4.2707  -4.0912  -3.8064  -3.6992  -3.6297  -3.4461
    -3.4350  -3.2845  -3.2476  -3.1284  -3.1031  -3.0122  -2.9684  -2.8304
    -2.8170  -2.7109  -2.6144  -2.4845  -2.3516  -2.3129  -2.0440  -1.8001
    -1.5253  -1.3628  -1.3554  -1.1181  -1.1179  -0.8656  -0.6938  -0.5301
    -0.1627   0.0448   0.9947   1.1370   1.6009   1.6436   1.7724   2.2066
     2.4166   2.6781   2.8709   2.9000   3.1814   3.1878   3.3271   3.4171
     3.7783   4.3203   4.7426   5.1582   5.3912   5.5891   5.6837   5.9133
     6.1368   6.2752   6.5281   6.5726   6.6226   6.8180   7.0373   7.0784
     7.2910   7.3728   7.4553   7.6396   7.6674   7.8693   7.9793   8.0687
     8.1565   8.3548   8.4445   8.4537   8.5828   8.7607   8.7989   8.8899
     8.9013   9.1350   9.1784   9.2276   9.3215   9.3447   9.3457   9.4375
     9.4381   9.5192   9.5246   9.5273   9.5713   9.5735   9.6235   9.6950
     9.7544   9.9142  10.0294  10.0857  10.1803  10.2975  10.3013  10.4047
    10.4123  10.4820  10.5852  10.7397  10.8018  10.8275  10.9320  11.0222
    11.0240  11.2346  11.3296  11.4093  11.5397  11.5717  11.6943  11.7356
    11.7884  11.9241  12.0733  12.1178  12.1565  12.2813  12.2891  12.3801
    12.5181  12.5858  12.6238  12.7212  12.7223  12.7922  12.8240  12.9101
    13.0729  13.1058  13.1389  13.2129  13.3018  13.3375  13.4692  13.5903
    13.6049  13.7427  13.8615  13.8686  13.9867  13.9869  14.0637  14.1270
    14.2571  14.3442  14.4081  14.5292  14.5663  14.7400  14.7519  14.8792
    14.8827  15.1962  15.2141  15.3634  15.3635  15.5365  15.5434  15.5781
    15.6169  15.7483  15.7834  15.8214  15.8595  15.8988  15.9727  16.0429
    16.0582  16.1273  16.1556  16.2625  16.3384  16.3771  16.4190  16.4385
    16.5874  16.6437  16.7102  16.7493  16.8010  16.8320  17.0757  17.1437
    17.1890  17.3513  17.3732  17.4352  17.4374  17.4840  17.5591  17.5816
    17.6443  17.7358  17.7362  17.8385  17.8969  17.9131  17.9716  17.9781
    18.1868  18.2298  18.3090  18.3884  18.4678  18.4913  18.5881  18.6288
    18.7898  18.8426  18.9254  18.9536  19.0495  19.1225  19.1373  19.2108
    19.2743  19.2901  19.3593  19.4524  19.5700  19.6146  19.7243  19.7538
    19.8357  19.9306  19.9905  20.0791  20.1238  20.2844  20.3422  20.3568
    20.4673  20.5455  20.6048  20.6361  20.6732  20.7813  20.7993  20.8804
    20.8869  20.9662  21.0222  21.1176  21.1431  21.2694  21.3205  21.3472
    21.3521  21.4263  21.4651  21.5534

     the Fermi energy is    -1.1346 ev

!    total energy              =   -2072.44640437 Ry
     Harris-Foulkes estimate   =   -2072.44640511 Ry
     estimated scf accuracy    <       0.00000081 Ry

     The total energy is the sum of the following terms:

     one-electron contribution =  -21978.83938124 Ry
     hartree contribution      =   11031.94772675 Ry
     xc contribution           =    -569.30194219 Ry
     ewald contribution        =    9442.24806282 Ry
     Hubbard energy            =       1.50065693 Ry
     smearing contrib. (-TS)   =      -0.00152744 Ry

     convergence has been achieved in  26 iterations

     Forces acting on atoms (Ry/au):


     negative rho (up, down):  0.314E+01 0.000E+00
     atom    1 type  1   force =    -0.00815631   -0.01359330    0.00579750
     atom    2 type  1   force =     0.00013113    0.00690780    0.00192844
     atom    3 type  2   force =     0.00010268    0.00581108   -0.00484569
     atom    4 type  2   force =     0.00915730    0.00756557   -0.00423451
     atom    5 type  1   force =    -0.00385752   -0.01612463    0.00074596
     atom    6 type  1   force =     0.00523830    0.01438971    0.00005165
     atom    7 type  1   force =    -0.00048381   -0.00194039    0.01673071
     atom    8 type  1   force =    -0.00325319   -0.00056363    0.00197720
     atom    9 type  2   force =     0.00115487    0.00010991   -0.00535838
     atom   10 type  2   force =     0.00000039   -0.00123178   -0.00305977
     atom   11 type  1   force =    -0.00011169    0.01540102   -0.00638938
     atom   12 type  1   force =     0.00019497   -0.01493732   -0.00650991
     atom   13 type  1   force =    -0.00081265   -0.00011781    0.00009114
     atom   14 type  1   force =    -0.00817657   -0.01360896    0.00567622
     atom   15 type  1   force =     0.00026469    0.00689000    0.00191526
     atom   16 type  2   force =     0.00011289    0.00580614   -0.00484906
     atom   17 type  2   force =     0.00932070    0.00756557   -0.00422438
     atom   18 type  1   force =    -0.00371548   -0.01615983    0.00074167
     atom   19 type  1   force =     0.00538297    0.01442174    0.00005271
     atom   20 type  1   force =    -0.00032285   -0.00194092    0.01673075
     atom   21 type  1   force =    -0.00320323   -0.00056506    0.00208041
     atom   22 type  2   force =     0.00118618    0.00010689   -0.00536219
     atom   23 type  2   force =     0.00002514   -0.00123218   -0.00305144
     atom   24 type  1   force =    -0.00007618    0.01539753   -0.00641798
     atom   25 type  1   force =     0.00023072   -0.01493303   -0.00653965
     atom   26 type  1   force =    -0.00080462   -0.00011751    0.00001376
     atom   27 type  3   force =    -0.00012379   -0.00233955    0.00262690
     atom   28 type  3   force =    -0.00012084   -0.00233801    0.00262418
     atom   29 type  3   force =     0.00036997    0.00068798    0.00052347
     atom   30 type  3   force =     0.00034580    0.00068295    0.00053440

     Total force =     0.031544     Total SCF correction =     0.002718

     BFGS Geometry Optimization

     number of scf cycles    =   1
     number of bfgs steps    =   0

     energy   new            =   -2072.4464043738 Ry

     new trust radius        =       0.0167307547 bohr
     new conv_thr            =       0.0000010000 Ry


ATOMIC_POSITIONS (crystal)
O0       0.000000000   0.000000000   0.378776118    0   0   1
O0       0.000000000   0.500000000   0.401398625    0   0   1
Ir1      0.250000000   0.500000000   0.451982946    0   0   1
Ir1      0.000000000   0.000000000   0.453505187    0   0   1
O0       0.250000000   0.810000000   0.453184941    0   0   1
O0       0.250000000   0.190000000   0.452811034    0   0   1
O0       0.000000000   0.500000000   0.498525100    0   0   1
O0       0.000000000   0.000000000   0.529419601    0   0   1
Ir1      0.250000000   0.000000000   0.576562677    0   0   1
Ir1      0.000000000   0.500000000   0.572008716    0   0   1
O0       0.250000000   0.690000000   0.577022027    0   0   1
O0       0.250000000   0.310000000   0.577059613    0   0   1
O0       0.000000000   0.000000000   0.621231825    0   0   1
O0       0.500000000   0.000000000   0.378773689    0   0   1
O0       0.500000000   0.500000000   0.401398361    0   0   1
Ir1      0.750000000   0.500000000   0.451982878    0   0   1
Ir1      0.500000000   0.000000000   0.453505390    0   0   1
O0       0.750000000   0.810000000   0.453184855    0   0   1
O0       0.750000000   0.190000000   0.452811056    0   0   1
O0       0.500000000   0.500000000   0.498525101    0   0   1
O0       0.500000000   0.000000000   0.529421669    0   0   1
Ir1      0.750000000   0.000000000   0.576562601    0   0   1
Ir1      0.500000000   0.500000000   0.572008883    0   0   1
O0       0.750000000   0.690000000   0.577021454    0   0   1
O0       0.750000000   0.310000000   0.577059017    0   0   1
O0       0.500000000   0.000000000   0.621240276    0   0   1
H2      -0.000060300   0.636147175   0.383602614
H2       0.499939946   0.636147302   0.383602560
H2       0.143680783   0.033556703   0.367090485
H2       0.643678772   0.033556288   0.367090703


     Check: negative starting charge=   -3.334716
     NEW-OLD atomic charge density approx. for the potential

     Check: negative/imaginary core charge=   -0.000003    0.000000
     Check: negative starting charge=   -3.333566

     negative rho (up, down):  0.314E+01 0.000E+00
 Atomic wfc used for LDA+U Projector are NOT orthogonalized

     total cpu time spent up to now is     6031.5 secs

     per-process dynamical memory:   449.4 Mb

     Self-consistent Calculation

     iteration #  1     ecut=    40.00 Ry     beta=0.70
     Davidson diagonalization with overlap
     ethr =  1.00E-06,  avg # of iterations =  3.5
 --- enter write_ns ---
 LDA+U parameters:
U( 2)     =  4.00000000
alpha( 2) =  0.00000000
atom    3   Tr[ns(na)] =   8.16167
    eigenvalues: 
  0.602  0.628  0.903  0.972  0.976
    eigenvectors:
  0.000  0.192  0.003  0.001  0.804
  1.000  0.000  0.000  0.000  0.000
  0.000  0.000  0.996  0.000  0.003
  0.000  0.808  0.000  0.000  0.192
  0.000  0.000  0.000  0.998  0.001
    occupations:
  0.909 -0.000  0.003 -0.137 -0.000
 -0.000  0.602 -0.000 -0.000 -0.006
  0.003 -0.000  0.904 -0.004  0.001
 -0.137 -0.000 -0.004  0.694 -0.000
 -0.000 -0.006  0.001 -0.000  0.972
atom    4   Tr[ns(na)] =   8.14396
    eigenvalues: 
  0.619  0.667  0.876  0.926  0.984
    eigenvectors:
  0.000  0.989  0.000  0.000  0.010
  0.000  0.000  0.058  0.942  0.000
  0.000  0.000  0.942  0.058  0.000
  0.000  0.010  0.000  0.000  0.989
  1.000  0.000  0.000  0.000  0.000
    occupations:
  0.670 -0.003 -0.001  0.032  0.001
 -0.003  0.923  0.012  0.000 -0.001
 -0.001  0.012  0.879 -0.000  0.000
  0.032  0.000 -0.000  0.980  0.000
  0.001 -0.001  0.000  0.000  0.619
atom    9   Tr[ns(na)] =   8.12612
    eigenvalues: 
  0.651  0.667  0.861  0.901  0.983
    eigenvectors:
  0.000  0.144  0.000  0.000  0.856
  1.000  0.000  0.000  0.000  0.000
  0.000  0.000  1.000  0.000  0.000
  0.000  0.855  0.000  0.000  0.144
  0.000  0.000  0.000  1.000  0.000
    occupations:
  0.938  0.000 -0.000 -0.111 -0.000
  0.000  0.651  0.000  0.000 -0.000
 -0.000  0.000  0.861 -0.000 -0.000
 -0.111  0.000 -0.000  0.713  0.001
 -0.000 -0.000 -0.000  0.001  0.901
atom   10   Tr[ns(na)] =   8.09777
    eigenvalues: 
  0.580  0.609  0.933  0.945  0.982
    eigenvectors:
  0.994  0.000  0.000  0.000  0.006
  0.000  0.000  1.000  0.000  0.000
  0.000  0.000  0.000  1.000  0.000
  0.006  0.000  0.000  0.000  0.994
  0.000  1.000  0.000  0.000  0.000
    occupations:
  0.582  0.000  0.001  0.031 -0.000
  0.000  0.933 -0.000  0.000 -0.000
  0.001 -0.000  0.945  0.000  0.000
  0.031  0.000  0.000  0.980  0.000
 -0.000 -0.000  0.000  0.000  0.609
atom   16   Tr[ns(na)] =   8.16499
    eigenvalues: 
  0.602  0.628  0.904  0.972  0.976
    eigenvectors:
  0.000  0.192  0.003  0.001  0.804
  1.000  0.000  0.000  0.000  0.000
  0.000  0.000  0.996  0.000  0.003
  0.000  0.808  0.000  0.000  0.192
  0.000  0.000  0.000  0.998  0.001
    occupations:
  0.909 -0.000  0.003 -0.137 -0.000
 -0.000  0.602 -0.000 -0.000 -0.006
  0.003 -0.000  0.905 -0.004  0.001
 -0.137 -0.000 -0.004  0.695 -0.000
 -0.000 -0.006  0.001 -0.000  0.972
atom   17   Tr[ns(na)] =   8.14004
    eigenvalues: 
  0.619  0.667  0.875  0.926  0.984
    eigenvectors:
  0.000  0.989  0.000  0.000  0.010
  0.000  0.000  0.058  0.942  0.000
  0.000  0.000  0.942  0.058  0.000
  0.000  0.010  0.000  0.000  0.990
  1.000  0.000  0.000  0.000  0.000
    occupations:
  0.670 -0.003 -0.001  0.032  0.001
 -0.003  0.923  0.012  0.000 -0.001
 -0.001  0.012  0.878 -0.000  0.001
  0.032  0.000 -0.000  0.980  0.000
  0.001 -0.001  0.001  0.000  0.619
atom   22   Tr[ns(na)] =   8.12663
    eigenvalues: 
  0.651  0.667  0.861  0.901  0.983
    eigenvectors:
  0.000  0.144  0.000  0.000  0.856
  1.000  0.000  0.000  0.000  0.000
  0.000  0.000  1.000  0.000  0.000
  0.000  0.855  0.000  0.000  0.144
  0.000  0.000  0.000  1.000  0.000
    occupations:
  0.938  0.000 -0.000 -0.111 -0.000
  0.000  0.651  0.000  0.000 -0.000
 -0.000  0.000  0.861 -0.000 -0.000
 -0.111  0.000 -0.000  0.713  0.001
 -0.000 -0.000 -0.000  0.001  0.901
atom   23   Tr[ns(na)] =   8.09748
    eigenvalues: 
  0.580  0.609  0.933  0.945  0.982
    eigenvectors:
  0.994  0.000  0.000  0.000  0.006
  0.000  0.000  1.000  0.000  0.000
  0.000  0.000  0.000  1.000  0.000
  0.006  0.000  0.000  0.000  0.994
  0.000  1.000  0.000  0.000  0.000
    occupations:
  0.582  0.000  0.001  0.031 -0.000
  0.000  0.933 -0.000  0.000 -0.000
  0.001 -0.000  0.945  0.000  0.000
  0.031  0.000  0.000  0.980  0.000
 -0.000 -0.000  0.000  0.000  0.609
N of occupied +U levels =  65.0586663
 --- exit write_ns ---

     negative rho (up, down):  0.314E+01 0.000E+00

     total cpu time spent up to now is     6316.9 secs

     total energy              =   -2072.44648477 Ry
     Harris-Foulkes estimate   =   -2072.44709847 Ry
     estimated scf accuracy    <       0.00079566 Ry

     iteration #  2     ecut=    40.00 Ry     beta=0.70
     Davidson diagonalization with overlap
     ethr =  3.43E-07,  avg # of iterations =  4.6

     negative rho (up, down):  0.314E+01 0.000E+00

     total cpu time spent up to now is     6537.1 secs

     total energy              =   -2072.44130094 Ry
     Harris-Foulkes estimate   =   -2072.45237785 Ry
     estimated scf accuracy    <       0.14687062 Ry

     iteration #  3     ecut=    40.00 Ry     beta=0.70
     Davidson diagonalization with overlap
     ethr =  3.43E-07,  avg # of iterations =  5.1

     negative rho (up, down):  0.314E+01 0.000E+00

     total cpu time spent up to now is     6763.4 secs

     total energy              =   -2072.44630239 Ry
     Harris-Foulkes estimate   =   -2072.44774324 Ry
     estimated scf accuracy    <       0.01353497 Ry

     iteration #  4     ecut=    40.00 Ry     beta=0.70
     Davidson diagonalization with overlap
     ethr =  3.43E-07,  avg # of iterations =  1.5

     negative rho (up, down):  0.314E+01 0.000E+00

     total cpu time spent up to now is     6950.1 secs

     total energy              =   -2072.44697952 Ry
     Harris-Foulkes estimate   =   -2072.44707251 Ry
     estimated scf accuracy    <       0.00033610 Ry

     iteration #  5     ecut=    40.00 Ry     beta=0.70
     Davidson diagonalization with overlap
     ethr =  1.45E-07,  avg # of iterations =  1.0

     negative rho (up, down):  0.314E+01 0.000E+00

     total cpu time spent up to now is     7134.8 secs

     total energy              =   -2072.44700832 Ry
     Harris-Foulkes estimate   =   -2072.44706435 Ry
     estimated scf accuracy    <       0.00025216 Ry

     iteration #  6     ecut=    40.00 Ry     beta=0.70
     Davidson diagonalization with overlap
     ethr =  1.09E-07,  avg # of iterations =  1.0

     negative rho (up, down):  0.314E+01 0.000E+00

     total cpu time spent up to now is     7319.0 secs

     total energy              =   -2072.44702324 Ry
     Harris-Foulkes estimate   =   -2072.44705582 Ry
     estimated scf accuracy    <       0.00016849 Ry

     iteration #  7     ecut=    40.00 Ry     beta=0.70
     Davidson diagonalization with overlap
     ethr =  7.26E-08,  avg # of iterations =  1.0

     negative rho (up, down):  0.314E+01 0.000E+00

     total cpu time spent up to now is     7503.8 secs

     total energy              =   -2072.44703470 Ry
     Harris-Foulkes estimate   =   -2072.44704689 Ry
     estimated scf accuracy    <       0.00006756 Ry

     iteration #  8     ecut=    40.00 Ry     beta=0.70
     Davidson diagonalization with overlap
     ethr =  2.91E-08,  avg # of iterations =  1.0

     negative rho (up, down):  0.314E+01 0.000E+00

     total cpu time spent up to now is     7681.7 secs

     total energy              =   -2072.44704007 Ry
     Harris-Foulkes estimate   =   -2072.44704222 Ry
     estimated scf accuracy    <       0.00000851 Ry

     iteration #  9     ecut=    40.00 Ry     beta=0.70
     Davidson diagonalization with overlap
     ethr =  3.67E-09,  avg # of iterations =  1.0

     negative rho (up, down):  0.314E+01 0.000E+00

     total cpu time spent up to now is     7858.8 secs

     total energy              =   -2072.44704033 Ry
     Harris-Foulkes estimate   =   -2072.44704249 Ry
     estimated scf accuracy    <       0.00001360 Ry

     iteration # 10     ecut=    40.00 Ry     beta=0.70
     Davidson diagonalization with overlap
     ethr =  3.67E-09,  avg # of iterations =  1.0

     negative rho (up, down):  0.314E+01 0.000E+00

     total cpu time spent up to now is     8037.3 secs

     total energy              =   -2072.44704126 Ry
     Harris-Foulkes estimate   =   -2072.44704161 Ry
     estimated scf accuracy    <       0.00000124 Ry

     iteration # 11     ecut=    40.00 Ry     beta=0.70
     Davidson diagonalization with overlap
     ethr =  5.34E-10,  avg # of iterations =  1.0

     negative rho (up, down):  0.314E+01 0.000E+00

[...]
    -3.3257  -3.3257  -3.2422  -3.2422  -3.1791  -3.1791  -2.9034  -2.9034
    -2.2619  -2.2619  -2.1332  -2.1332  -1.9687  -1.9687  -1.7880  -1.7880
    -1.4813  -1.4813  -1.4553  -1.4553  -1.0285  -1.0285  -0.6393  -0.6393
    -0.0101  -0.0101   1.7114   1.7114   1.8755   1.8755   2.3257   2.3257
     2.3419   2.3419   2.3941   2.3942   2.4348   2.4348   3.3439   3.3439
     4.3316   4.3316   4.8518   4.8519   5.2258   5.2258   5.6195   5.6195
     5.9253   5.9253   6.6044   6.6044   6.7605   6.7605   7.0916   7.0916
     7.7362   7.7362   8.1274   8.1274   8.2037   8.2037   8.2210   8.2210
     8.6351   8.6352   8.8106   8.8106   8.8727   8.8727   9.0798   9.0798
     9.1264   9.1264   9.2202   9.2202   9.3278   9.3278   9.3716   9.3716
     9.4211   9.4211   9.4601   9.4601   9.5184   9.5184   9.6031   9.6031
     9.6236   9.6236   9.6897   9.6897   9.9100   9.9100  10.0635  10.0635
    10.1789  10.1789  10.3111  10.3111  10.5861  10.5861  10.9359  10.9359
    11.0302  11.0302  11.3077  11.3077  11.5713  11.5713  11.7191  11.7191
    11.8411  11.8411  12.0226  12.0226  12.1088  12.1088  12.4064  12.4064
    12.5473  12.5473  12.7509  12.7509  12.8656  12.8656  13.0721  13.0721
    13.1568  13.1568  13.2503  13.2503  13.3183  13.3184  13.5541  13.5541
    13.6971  13.6971  13.8199  13.8200  14.0438  14.0438  14.1345  14.1345
    14.2268  14.2268  14.3227  14.3227  14.4956  14.4956  14.6592  14.6592
    14.8117  14.8117  15.0865  15.0865  15.3246  15.3246  15.5133  15.5133
    15.8427  15.8427  16.0919  16.0919  16.1869  16.1869  16.2240  16.2240
    16.3019  16.3019  16.3974  16.3974  16.4332  16.4332  16.5661  16.5661
    16.6097  16.6097  16.6951  16.6951  16.8070  16.8071  16.8453  16.8453
    17.0474  17.0474  17.2016  17.2016  17.5255  17.5256  17.6294  17.6294
    17.7979  17.7979  18.0294  18.0294  18.1229  18.1229  18.3899  18.3899
    18.4760  18.4760  18.5203  18.5203  18.7245  18.7245  18.9137  18.9137
    19.0473  19.0473  19.1189  19.1189  19.2273  19.2273  19.3310  19.3310
    19.5626  19.5626  19.6052  19.6052  19.7508  19.7508  19.8011  19.8011
    19.8789  19.8789  20.0037  20.0037  20.1139  20.1139  20.2021  20.2021
    20.2651  20.2651  20.3075  20.3075  20.4869  20.4869  20.6427  20.6428
    20.7464  20.7464  20.9896  20.9896  21.0490  21.0490  21.1358  21.1358
    21.1886  21.1886  21.3095  21.3095

          k =-0.5000 0.2476 0.0000 ( 31120 PWs)   bands (ev):

   -50.6207 -50.6206 -50.5784 -50.5784 -50.5423 -50.5423 -50.4636 -50.4636
   -50.4133 -50.4133 -50.4052 -50.4052 -50.3839 -50.3836 -50.2409 -50.2405
   -50.2332 -50.2331 -50.1629 -50.1628 -50.1499 -50.1499 -50.0516 -50.0516
   -21.1857 -21.1855 -20.8275 -20.8273 -20.7223 -20.7219 -20.4796 -20.4796
   -20.2667 -20.2630 -20.1049 -20.0999 -20.0742 -20.0731 -19.7259 -19.7254
   -18.8317 -18.8316  -9.6220  -9.6171  -9.4702  -9.4701  -9.4315  -9.4266
    -9.0161  -9.0082  -8.9456  -8.9388  -8.7517  -8.7466  -8.5930  -8.5815
    -8.3611  -8.3146  -7.9823  -7.9048  -7.5940  -7.5718  -7.4900  -7.4830
    -7.3391  -7.2955  -7.0785  -6.9582  -6.7753  -6.6920  -6.5618  -6.5181
    -6.3683  -6.3618  -6.1952  -6.1870  -5.9349  -5.9121  -5.8087  -5.8076
    -5.7804  -5.7709  -5.5194  -5.4470  -4.9977  -4.9283  -4.7928  -4.7718
    -4.6191  -4.4601  -4.2657  -4.0555  -3.8644  -3.8421  -3.5246  -3.4939
    -3.1611  -3.1602  -2.9498  -2.9097  -2.7807  -2.7628  -2.7310  -2.7041
    -2.5610  -2.4754  -2.3187  -2.2937  -1.8527  -1.8189  -1.7463  -1.7393
    -1.5222  -1.5217  -1.3294  -1.2580  -1.1388  -1.1129  -0.8124  -0.7883
     0.1016   0.1019   1.6460   1.6554   1.6964   1.6973   1.8996   1.9003
     2.1587   2.1652   2.6259   2.6359   2.9814   2.9827   3.4342   3.4399
     4.5614   4.5715   4.9440   4.9442   5.4519   5.4526   5.8069   5.8154
     6.1072   6.1272   6.3387   6.3610   6.7318   6.7324   7.0091   7.0176
     7.2129   7.2195   7.3068   7.3071   7.7124   7.7254   7.9347   7.9543
     8.1335   8.1371   8.2939   8.3332   8.5833   8.6229   8.7903   8.8546
     9.0410   9.1529   9.3525   9.3562   9.3714   9.3715   9.4594   9.4595
     9.5185   9.5187   9.6066   9.6080   9.6386   9.6792   9.7321   9.7431
     9.8770   9.8805   9.9731   9.9951  10.2861  10.2964  10.5318  10.5570
    10.7641  10.7723  10.9081  10.9094  10.9671  10.9710  11.1353  11.1499
    11.3789  11.3877  11.5620  11.5775  11.7303  11.7323  11.8965  11.9403
    12.1083  12.1412  12.2592  12.2663  12.2894  12.3018  12.5724  12.5741
    12.6433  12.6688  12.9025  12.9237  13.0089  13.0371  13.2087  13.2243
    13.2954  13.2970  13.4207  13.4377  13.5087  13.5190  13.5725  13.5866
    13.7687  13.7809  13.9324  13.9408  14.1793  14.1923  14.3013  14.3157
    14.3557  14.3620  14.4279  14.4368  14.5311  14.5594  14.6347  14.6483
    14.6994  14.7031  14.8831  14.9008  14.9992  15.0114  15.0719  15.0768
    15.2412  15.2474  15.4414  15.4555  15.5962  15.6064  15.8395  15.8671
    16.0504  16.0690  16.1873  16.2130  16.3216  16.3285  16.3882  16.4091
    16.5832  16.5881  16.6130  16.6148  16.6747  16.6930  16.7734  16.7892
    16.9749  16.9829  17.1416  17.1496  17.2196  17.3170  17.4603  17.4820
    17.5817  17.5909  17.7483  17.7530  17.9080  17.9662  17.9693  17.9963
    18.0715  18.1103  18.2985  18.3342  18.3785  18.3840  18.4320  18.4450
    18.6151  18.6348  18.7332  18.7332  18.8285  18.8331  18.9815  19.0066
    19.1387  19.1632  19.2630  19.3013  19.4443  19.4552  19.5804  19.6195
    19.6719  19.6912  19.8127  19.8322  19.9552  19.9654  20.1023  20.1078
    20.2815  20.3141  20.3447  20.3599  20.4497  20.4656  20.5276  20.6094
    20.7523  20.7623  20.9267  20.9677  21.0102  21.0574  21.2956  21.3185
    21.4474  21.4538  21.5759  21.5992

          k =-0.5000-0.4953 0.0000 ( 31140 PWs)   bands (ev):

   -50.6207 -50.6207 -50.5784 -50.5783 -50.5424 -50.5424 -50.4631 -50.4631
   -50.4134 -50.4134 -50.4051 -50.4051 -50.3824 -50.3824 -50.2416 -50.2416
   -50.2327 -50.2327 -50.1629 -50.1629 -50.1500 -50.1500 -50.0514 -50.0514
   -21.1613 -21.1613 -20.6338 -20.6338 -20.6174 -20.6174 -20.4328 -20.4328
   -20.3939 -20.3939 -20.3087 -20.3087 -20.1688 -20.1688 -19.7260 -19.7259
   -18.8310 -18.8309  -9.5993  -9.5993  -9.0350  -9.0350  -8.9947  -8.9947
    -8.7909  -8.7909  -8.7010  -8.7010  -8.5476  -8.5476  -8.5359  -8.5358
    -8.4024  -8.4024  -8.2625  -8.2625  -8.1360  -8.1360  -7.7490  -7.7490
    -7.1874  -7.1874  -6.9624  -6.9623  -6.9004  -6.9004  -6.5911  -6.5911
    -6.5016  -6.5016  -6.3760  -6.3760  -6.3038  -6.3038  -6.2555  -6.2555
    -5.9213  -5.9213  -5.1957  -5.1957  -4.9637  -4.9637  -4.6514  -4.6514
    -4.5126  -4.5126  -4.2171  -4.2170  -3.6646  -3.6645  -3.3579  -3.3579
    -3.2131  -3.2131  -3.0041  -3.0041  -2.7812  -2.7812  -2.5963  -2.5963
    -2.4097  -2.4097  -2.3465  -2.3465  -1.6986  -1.6986  -1.6300  -1.6299
    -1.4798  -1.4798  -1.2570  -1.2570  -1.0839  -1.0839  -1.0013  -1.0013
     0.1898   0.1898   1.2778   1.2778   1.3884   1.3884   1.8741   1.8741
     2.2184   2.2184   2.8996   2.8996   3.1451   3.1451   3.5737   3.5737
     5.0178   5.0178   5.1025   5.1025   5.5456   5.5456   6.1101   6.1101
     6.1526   6.1526   6.2728   6.2728   6.4922   6.4922   6.7246   6.7246
     6.8286   6.8286   7.0685   7.0685   7.4560   7.4560   7.5754   7.5754
     7.7755   7.7756   8.0051   8.0051   8.4966   8.4966   8.8236   8.8236
     8.9814   8.9814   9.2166   9.2166   9.3708   9.3709   9.4180   9.4180
     9.4593   9.4593   9.5179   9.5179   9.6097   9.6097   9.9144   9.9144
    10.1122  10.1122  10.2743  10.2743  10.4096  10.4096  10.6119  10.6119
    10.9210  10.9210  10.9916  10.9916  11.2844  11.2844  11.7372  11.7372
    11.9982  11.9982  12.2096  12.2096  12.3091  12.3091  12.5129  12.5129
    12.5752  12.5753  12.6751  12.6751  12.8885  12.8885  12.9976  12.9976
    13.0795  13.0796  13.2476  13.2476  13.3749  13.3749  13.4693  13.4693
    13.5152  13.5152  13.5847  13.5847  13.6783  13.6783  13.7071  13.7071
    13.7459  13.7459  13.8512  13.8512  13.9639  13.9639  14.0049  14.0049
    14.0601  14.0601  14.2883  14.2883  14.3227  14.3227  14.4643  14.4643
    14.4869  14.4869  14.6278  14.6278  14.8088  14.8088  15.0518  15.0518
    15.1641  15.1641  15.2639  15.2639  15.3206  15.3206  15.3689  15.3689
    15.4528  15.4528  15.5953  15.5953  15.7481  15.7481  15.8292  15.8293
    15.9749  15.9749  16.0601  16.0601  16.3649  16.3649  16.5115  16.5115
    16.7266  16.7266  16.8742  16.8742  16.9324  16.9324  17.0361  17.0361
    17.1682  17.1682  17.3551  17.3551  17.5602  17.5602  17.7792  17.7792
    18.1027  18.1027  18.1735  18.1735  18.3324  18.3324  18.3960  18.3960
    18.4463  18.4464  18.7520  18.7521  18.9117  18.9117  19.1563  19.1563
    19.3344  19.3344  19.4514  19.4514  19.6274  19.6274  19.7135  19.7135
    20.1408  20.1408  20.1905  20.1905  20.3134  20.3134  20.6165  20.6165
    20.6519  20.6519  20.7598  20.7598  20.7862  20.7862  20.9306  20.9306
    20.9988  20.9988  21.0483  21.0483  21.2509  21.2509  21.3069  21.3069
    21.3414  21.3414  21.4517  21.4517

          k =-0.2500 0.2476 0.0000 ( 31099 PWs)   bands (ev):

   -50.6227 -50.6181 -50.6116 -50.5496 -50.5408 -50.5351 -50.4978 -50.4404
   -50.4241 -50.4155 -50.4105 -50.3875 -50.3788 -50.3654 -50.2659 -50.2424
   -50.2383 -50.1958 -50.1675 -50.1580 -50.1551 -50.1444 -50.0568 -50.0461
   -21.4414 -21.0727 -21.0581 -21.0390 -20.6465 -20.5602 -20.4816 -20.4382
   -20.3723 -20.2511 -20.1260 -20.0976 -19.9245 -19.9055 -19.8062 -19.6327
   -18.8138 -18.6933 -10.2510 -10.0996  -9.9794  -9.7234  -9.2958  -9.2410
    -9.2200  -9.0261  -8.8077  -8.7947  -8.7758  -8.7516  -8.5483  -8.4774
    -8.3373  -8.2590  -8.0600  -7.9642  -7.6225  -7.5425  -7.4061  -7.3548
    -7.2166  -7.0154  -6.9683  -6.8323  -6.7641  -6.5122  -6.4432  -6.3625
    -6.2587  -6.2179  -6.0598  -6.0143  -5.9692  -5.9195  -5.8186  -5.6590
    -5.5220  -5.4027  -5.2169  -5.1529  -4.9796  -4.7526  -4.7379  -4.6780
    -4.5319  -4.3396  -4.2620  -4.0631  -3.7781  -3.6804  -3.6194  -3.4228
    -3.4219  -3.2611  -3.2265  -3.1167  -3.1142  -2.9939  -2.9544  -2.8176
    -2.7954  -2.6989  -2.5935  -2.4635  -2.3475  -2.3017  -2.0223  -1.7723
    -1.5116  -1.3260  -1.3224  -1.0914  -1.0785  -0.8296  -0.6594  -0.4881
    -0.1018   0.0872   1.0208   1.1418   1.6622   1.6964   1.8206   2.2385
     2.4376   2.7126   2.9129   2.9351   3.2117   3.2435   3.3772   3.4495
     3.7935   4.3389   4.7429   5.1555   5.4104   5.5969   5.6891   5.8840
     6.1363   6.2925   6.5300   6.5736   6.6227   6.8127   7.0324   7.0722
     7.3200   7.3903   7.4695   7.6560   7.6905   7.8783   8.0082   8.0851
     8.1643   8.3448   8.4491   8.4655   8.5853   8.7854   8.8153   8.9032
     8.9189   9.1535   9.2085   9.2468   9.3404   9.3701   9.3711   9.4594
     9.4600   9.5175   9.5185   9.5381   9.6081   9.6102   9.6331   9.7023
     9.7754   9.9649  10.0424  10.0921  10.1905  10.2995  10.3013  10.4179
    10.4179  10.5052  10.5984  10.7412  10.7980  10.8300  10.9646  11.0299
    11.0460  11.2516  11.3450  11.4286  11.5435  11.5747  11.7106  11.7473
    11.7858  11.9424  12.0938  12.1188  12.1652  12.2882  12.3400  12.3915
    12.5137  12.5875  12.6333  12.7312  12.7446  12.7919  12.8213  12.9159
    13.0789  13.1308  13.1535  13.2366  13.3152  13.3423  13.4868  13.6229
    13.6295  13.7426  13.8694  13.8736  13.9986  13.9990  14.0846  14.1316
    14.2642  14.3578  14.4095  14.5239  14.5681  14.7483  14.7584  14.8828
    14.8939  15.2026  15.2309  15.3635  15.3705  15.5380  15.5442  15.5779
    15.6195  15.7498  15.7818  15.8276  15.8619  15.8954  15.9748  16.0408
    16.0694  16.1354  16.1608  16.2766  16.3308  16.3878  16.4253  16.4425
    16.5964  16.6518  16.7137  16.7454  16.8029  16.8336  17.0791  17.1363
    17.2003  17.3566  17.3709  17.4354  17.4376  17.4776  17.5599  17.5800
    17.6399  17.7310  17.7462  17.8318  17.8968  17.9053  17.9707  17.9831
    18.1751  18.2288  18.3057  18.3887  18.4782  18.4818  18.5917  18.6165
    18.8022  18.8394  18.9176  18.9564  19.0372  19.1252  19.1337  19.2120
    19.2759  19.2877  19.3503  19.4628  19.5878  19.6090  19.7208  19.7620
    19.8277  19.9363  19.9962  20.0966  20.1303  20.2951  20.3402  20.3507
    20.4666  20.5529  20.6064  20.6476  20.6925  20.7765  20.8084  20.8906
    20.8998  20.9724  21.0311  21.1257  21.1520  21.2710  21.3162  21.3417
    21.3603  21.4436  21.4642  21.5534

     the Fermi energy is    -1.1011 ev

!    total energy              =   -2072.44806572 Ry
     Harris-Foulkes estimate   =   -2072.44806573 Ry
     estimated scf accuracy    <          1.8E-09 Ry

     The total energy is the sum of the following terms:

     one-electron contribution =  -22059.31410464 Ry
     hartree contribution      =   11072.29698977 Ry
     xc contribution           =    -569.38536494 Ry
     ewald contribution        =    9482.45738696 Ry
     Hubbard energy            =       1.49860922 Ry
     smearing contrib. (-TS)   =      -0.00158210 Ry

     convergence has been achieved in  14 iterations

     Forces acting on atoms (Ry/au):


     negative rho (up, down):  0.314E+01 0.000E+00
     atom    1 type  1   force =    -0.00728023   -0.01311409   -0.00004478
     atom    2 type  1   force =     0.00007715    0.00392254   -0.00043542
     atom    3 type  2   force =     0.00009641    0.00567379   -0.00006094
     atom    4 type  2   force =     0.00901241    0.00759312   -0.00016919
     atom    5 type  1   force =    -0.00415936   -0.01551536   -0.00036051
     atom    6 type  1   force =     0.00556955    0.01380338   -0.00026407
     atom    7 type  1   force =    -0.00042176   -0.00206332    0.00037546
     atom    8 type  1   force =    -0.00328351   -0.00047884   -0.00012247
     atom    9 type  2   force =     0.00116979    0.00014092   -0.00011841
     atom   10 type  2   force =     0.00000373   -0.00121863    0.00032323
     atom   11 type  1   force =    -0.00008544    0.01678579    0.00019000
     atom   12 type  1   force =     0.00019830   -0.01643316    0.00019543
     atom   13 type  1   force =    -0.00081265   -0.00009736   -0.00012640
     atom   14 type  1   force =    -0.00729656   -0.01311799   -0.00004307
     atom   15 type  1   force =     0.00007679    0.00391990   -0.00043537
     atom   16 type  2   force =     0.00009746    0.00567405   -0.00006170
     atom   17 type  2   force =     0.00901016    0.00759298   -0.00017008
     atom   18 type  1   force =    -0.00415451   -0.01551529   -0.00036340
     atom   19 type  1   force =     0.00557454    0.01380320   -0.00026668
     atom   20 type  1   force =    -0.00042536   -0.00206335    0.00037691
     atom   21 type  1   force =    -0.00329115   -0.00047883   -0.00010766
     atom   22 type  2   force =     0.00116810    0.00014094   -0.00011756
     atom   23 type  2   force =     0.00000098   -0.00121862    0.00032506
     atom   24 type  1   force =    -0.00008465    0.01678384    0.00019135
     atom   25 type  1   force =     0.00019910   -0.01643122    0.00019669
     atom   26 type  1   force =    -0.00081835   -0.00009737   -0.00013449
     atom   27 type  3   force =     0.00001995    0.00065944    0.00066803
     atom   28 type  3   force =     0.00002000    0.00066144    0.00066674
     atom   29 type  3   force =    -0.00009725    0.00034237   -0.00005088
     atom   30 type  3   force =    -0.00008363    0.00034575   -0.00005583

     Total force =     0.001899     Total SCF correction =     0.000070

     bfgs converged in   9 scf cycles and   8 bfgs steps
     (criteria: energy < 0.10E-03, force < 0.10E-02)

     End of BFGS Geometry Optimization

     Final energy   =   -2072.4480657249 Ry
Begin final coordinates

ATOMIC_POSITIONS (crystal)
O0       0.000000000   0.000000000   0.378968558    0   0   1
O0       0.000000000   0.500000000   0.402159273    0   0   1
Ir1      0.250000000   0.500000000   0.452584953    0   0   1
Ir1      0.000000000   0.000000000   0.453572164    0   0   1
O0       0.250000000   0.810000000   0.453435895    0   0   1
O0       0.250000000   0.190000000   0.452951674    0   0   1
O0       0.000000000   0.500000000   0.498941355    0   0   1
O0       0.000000000   0.000000000   0.529061376    0   0   1
Ir1      0.250000000   0.000000000   0.575950865    0   0   1
Ir1      0.000000000   0.500000000   0.572041672    0   0   1
O0       0.250000000   0.690000000   0.576116141    0   0   1
O0       0.250000000   0.310000000   0.576135330    0   0   1
O0       0.000000000   0.000000000   0.620591860    0   0   1
O0       0.500000000   0.000000000   0.378968308    0   0   1
O0       0.500000000   0.500000000   0.402159282    0   0   1
Ir1      0.750000000   0.500000000   0.452585035    0   0   1
Ir1      0.500000000   0.000000000   0.453571963    0   0   1
O0       0.750000000   0.810000000   0.453436183    0   0   1
O0       0.750000000   0.190000000   0.452951965    0   0   1
O0       0.500000000   0.500000000   0.498941232    0   0   1
O0       0.500000000   0.000000000   0.529060880    0   0   1
Ir1      0.750000000   0.000000000   0.575950799    0   0   1
Ir1      0.500000000   0.500000000   0.572041540    0   0   1
O0       0.750000000   0.690000000   0.576116023    0   0   1
O0       0.750000000   0.310000000   0.576135223    0   0   1
O0       0.500000000   0.000000000   0.620592359    0   0   1
H2      -0.000192938   0.635764052   0.384264987
H2       0.499807093   0.635763853   0.384265012
H2       0.143471606   0.034457595   0.367409117
H2       0.643470332   0.034457602   0.367408975
End final coordinates



     init_run     :    116.28s CPU    120.65s WALL (       1 calls)
     electrons    :  27733.20s CPU  28442.60s WALL (       9 calls)
     update_pot   :    180.08s CPU    184.13s WALL (       8 calls)
     forces       :   1238.44s CPU   1257.63s WALL (       9 calls)

     Called by init_run:
     wfcinit      :     39.83s CPU     40.87s WALL (       1 calls)
     potinit      :      8.04s CPU     10.36s WALL (       1 calls)

     Called by electrons:
     c_bands      :  14578.97s CPU  14925.11s WALL (     146 calls)
     sum_band     :   5513.18s CPU   5667.43s WALL (     146 calls)
     v_of_rho     :    179.39s CPU    196.95s WALL (     150 calls)
     newd         :   7815.62s CPU   7882.25s WALL (     150 calls)
     mix_rho      :     28.76s CPU     29.53s WALL (     146 calls)

     Called by c_bands:
     init_us_2    :     34.94s CPU     35.25s WALL (     960 calls)
     cegterg      :  14363.69s CPU  14649.15s WALL (     438 calls)

     Called by *egterg:
     h_psi        :   8270.39s CPU   8424.14s WALL (    1202 calls)
     s_psi        :    894.77s CPU    904.97s WALL (    1256 calls)
     g_psi        :     19.10s CPU     19.11s WALL (     761 calls)
     cdiaghg      :   1216.79s CPU   1219.56s WALL (    1160 calls)

     Called by h_psi:
     add_vuspsi   :    862.40s CPU    873.40s WALL (    1202 calls)
     vhpsi        :    868.32s CPU    875.64s WALL (    1202 calls)

     General routines
     calbec       :   2119.44s CPU   2137.10s WALL (   10678 calls)
     fft          :    241.32s CPU    306.34s WALL (    2491 calls)
     ffts         :      2.82s CPU      2.90s WALL (     296 calls)
     fftw         :   4710.15s CPU   4881.05s WALL (  801058 calls)
     interpolate  :     25.86s CPU     26.18s WALL (     296 calls)
     davcio       :      0.08s CPU     17.75s WALL (     987 calls)

     Parallel routines
     fft_scatter  :   1613.49s CPU   1837.64s WALL (  803845 calls)
     Hubbard U routines
     new_ns       :    186.61s CPU    196.10s WALL (     146 calls)
     vhpsi        :    868.32s CPU    875.64s WALL (    1202 calls)
     force_hub    :    337.35s CPU    343.63s WALL (       9 calls)

     PWSCF        :     8h15m CPU        8h28m WALL


   This run was terminated on:   4:59:19   6May2014            

=------------------------------------------------------------------------------=
   JOB DONE.
=------------------------------------------------------------------------------=
