
     Program PWSCF v.5.0.2 (svn rev. 9656) starts on 26Apr2014 at 17:48: 3 

     This program is part of the open-source Quantum ESPRESSO suite
     for quantum simulation of materials; please cite
         "P. Giannozzi et al., J. Phys.:Condens. Matter 21 395502 (2009);
          URL http://www.quantum-espresso.org", 
     in publications or presentations arising from this work. More details at
     http://www.quantum-espresso.org/quote.php

     Parallel version (MPI), running on    16 processors
     K-points division:     npool     =       4
     R & G space division:  proc/nbgrp/npool/nimage =       4

     Current dimensions of program PWSCF are:
     Max number of different atomic species (ntypx) = 10
     Max number of k-points (npk) =  40000
     Max angular momentum in pseudopotentials (lmaxx) =  3
     Reading input from pwscf.in
Warning: card &CELL ignored
Warning: card / ignored

     Subspace diagonalization in iterative solution of the eigenvalue problem:
     a serial algorithm will be used


     Parallelization info
     --------------------
     sticks:   dense  smooth     PW     G-vecs:    dense   smooth      PW
     Min        1419     456    126               336167    60843    9016
     Max        1420     457    127               336172    60875    9024
     Sum        5677    1827    505              1344679   243423   36075



     bravais-lattice index     =            0
     lattice parameter (alat)  =      11.7919  a.u.
     unit-cell volume          =    7123.6633 (a.u.)^3
     number of atoms/cell      =           31
     number of atomic types    =            3
     number of electrons       =       246.00
     number of Kohn-Sham states=          357
     kinetic-energy cutoff     =      40.0000  Ry
     charge density cutoff     =     500.0000  Ry
     convergence threshold     =      1.0E-06
     mixing beta               =       0.7000
     number of iterations used =            8  plain     mixing
     Exchange-correlation      = SLA  PW   PBE  PBE ( 1 4 3 4 0)
     EXX-fraction              =        0.00
     nstep                     =           50


     celldm(1)=  11.791891  celldm(2)=   0.000000  celldm(3)=   0.000000
     celldm(4)=   0.000000  celldm(5)=   0.000000  celldm(6)=   0.000000

     crystal axes: (cart. coord. in units of alat)
               a(1) = (   1.000000   0.000000   0.000000 )  
               a(2) = (   0.000000   1.026665   0.000000 )  
               a(3) = (   0.000000   0.000000   4.231793 )  

     reciprocal axes: (cart. coord. in units 2 pi/alat)
               b(1) = (  1.000000  0.000000  0.000000 )  
               b(2) = (  0.000000  0.974028  0.000000 )  
               b(3) = (  0.000000  0.000000  0.236306 )  


     PseudoPot. # 1 for O  read from file:
     /home/camp/zhonxu/pseudo/o_pbe_v1.01.uspp.F.UPF
     MD5 check sum: 2bcb18d16ea4b960afae9ec6d52f22d2
     Pseudo is Ultrasoft + core correction, Zval =  6.0
     Generated by new atomic code, or converted to UPF format
     Using radial grid of  737 points,  5 beta functions with: 
                l(1) =   0
                l(2) =   0
                l(3) =   1
                l(4) =   1
                l(5) =   2
     Q(r) pseudized with  8 coefficients,  rinner =    0.900   0.900   0.900
                                                       0.900   0.900

     PseudoPot. # 2 for Ru read from file:
     /home/camp/zhonxu/pseudo/ru_pbe_v1.uspp.F.UPF
     MD5 check sum: df00be1c11b23341d9806d8f1dfa10cf
     Pseudo is Ultrasoft + core correction, Zval = 16.0
     Generated by new atomic code, or converted to UPF format
     Using radial grid of  967 points,  6 beta functions with: 
                l(1) =   0
                l(2) =   0
                l(3) =   1
                l(4) =   1
                l(5) =   2
                l(6) =   2
     Q(r) pseudized with  8 coefficients,  rinner =    1.300   1.300   1.300
                                                       1.300   1.300

     PseudoPot. # 3 for H  read from file:
     /home/camp/zhonxu/pseudo/h_pbe_v1.uspp.F.UPF
     MD5 check sum: 3408e3ff4ec8b0a4e358431e7e038a48
     Pseudo is Ultrasoft, Zval =  1.0
     Generated by new atomic code, or converted to UPF format
     Using radial grid of  615 points,  2 beta functions with: 
                l(1) =   0
                l(2) =   0
     Q(r) pseudized with  8 coefficients,  rinner =    0.700

     atomic species   valence    mass     pseudopotential
        O0             6.00    15.99940     O ( 1.00)
        Ru1           16.00   101.07000     Ru( 1.00)
        H2             1.00     1.00794     H ( 1.00)


     Simplified LDA+U calculation (l_max = 2) with parameters (eV):
     atomic species    L          U    alpha       J0     beta
        Ru1            2     3.0000   0.0000   0.0000   0.0000



     No symmetry found



   Cartesian axes

     site n.     atom                  positions (alat units)
         1           O0  tau(   1) = (   0.0000000   0.0000000   1.6006333  )
         2           O0  tau(   2) = (   0.0000000   0.5133323   1.7090519  )
         3           Ru1 tau(   3) = (   0.2500000   0.5133323   1.9249579  )
         4           Ru1 tau(   4) = (   0.0000000   0.0000000   1.9138706  )
         5           O0  tau(   5) = (   0.2500000   0.8315984   1.9151825  )
         6           O0  tau(   6) = (   0.2500000   0.1950663   1.9148016  )
         7           O0  tau(   7) = (   0.0000000   0.5133323   2.1086177  )
         8           O0  tau(   8) = (   0.0000000   0.0000000   2.2256691  )
         9           Ru1 tau(   9) = (   0.2500000   0.0000000   2.4381898  )
        10           Ru1 tau(  10) = (   0.0000000   0.5133323   2.4080594  )
        11           O0  tau(  11) = (   0.2500000   0.7083986   2.4344235  )
        12           O0  tau(  12) = (   0.2500000   0.3182660   2.4336618  )
        13           O0  tau(  13) = (   0.0000000   0.0000000   2.6157981  )
        14           O0  tau(  14) = (   0.5000000   0.0000000   1.6005064  )
        15           O0  tau(  15) = (   0.5000000   0.5133323   1.7116333  )
        16           Ru1 tau(  16) = (   0.7500000   0.5133323   1.9249156  )
        17           Ru1 tau(  17) = (   0.5000000   0.0000000   1.9130666  )
        18           O0  tau(  18) = (   0.7500000   0.8315984   1.9150979  )
        19           O0  tau(  19) = (   0.7500000   0.1950663   1.9148440  )
        20           O0  tau(  20) = (   0.5000000   0.5133323   2.1279570  )
        21           O0  tau(  21) = (   0.5000000   0.0000000   2.2254152  )
        22           Ru1 tau(  22) = (   0.7500000   0.0000000   2.4382321  )
        23           Ru1 tau(  23) = (   0.5000000   0.5133323   2.4678123  )
        24           O0  tau(  24) = (   0.7500000   0.7083986   2.4345927  )
        25           O0  tau(  25) = (   0.7500000   0.3182660   2.4334925  )
        26           O0  tau(  26) = (   0.5000000   0.0000000   2.6078847  )
        27           H2  tau(  27) = (  -0.0002600   0.6438727   1.6192532  )
        28           H2  tau(  28) = (   0.4995800   0.6393041   1.6156985  )
        29           H2  tau(  29) = (   0.1450800   0.0331921   1.5470588  )
        30           H2  tau(  30) = (   0.6459600   0.0301326   1.5471435  )
        31           O0  tau(  31) = (   0.5000500   0.5106527   2.7413977  )

     number of k points=    10  Methfessel-Paxton smearing, width (Ry)=  0.0100
                       cart. coord. in units 2pi/alat
        k(    1) = (   0.0000000   0.0000000   0.0000000), wk =   0.1250000
        k(    2) = (   0.0000000   0.2435070   0.0000000), wk =   0.2500000
        k(    3) = (   0.0000000  -0.4870139   0.0000000), wk =   0.1250000
        k(    4) = (   0.2500000   0.0000000   0.0000000), wk =   0.2500000
        k(    5) = (   0.2500000   0.2435070   0.0000000), wk =   0.2500000
        k(    6) = (   0.2500000  -0.4870139   0.0000000), wk =   0.2500000
        k(    7) = (  -0.5000000   0.0000000   0.0000000), wk =   0.1250000
        k(    8) = (  -0.5000000   0.2435070   0.0000000), wk =   0.2500000
        k(    9) = (  -0.5000000  -0.4870139   0.0000000), wk =   0.1250000
        k(   10) = (  -0.2500000   0.2435070   0.0000000), wk =   0.2500000

     Dense  grid:  1344679 G-vectors     FFT dimensions: (  90,  90, 360)

     Smooth grid:   243423 G-vectors     FFT dimensions: (  48,  50, 216)

     Largest allocated arrays     est. size (Mb)     dimensions
        Kohn-Sham Wavefunctions        41.57 Mb     (   7632,  357)
        Atomic wavefunctions           21.43 Mb     (   7632,  184)
        NL pseudopotentials            46.47 Mb     (   7632,  399)
        Each V/rho on FFT grid         11.12 Mb     ( 729000)
        Each G-vector array             2.56 Mb     ( 336169)
        G-vector shells                 1.12 Mb     ( 146910)
     Largest temporary arrays     est. size (Mb)     dimensions
        Auxiliary wavefunctions       166.30 Mb     (   7632, 1428)
        Each subspace H/S matrix       31.12 Mb     (1428,1428)
        Each <psi_i|beta_j> matrix      2.17 Mb     (    399,  357)
        Arrays for rho mixing          88.99 Mb     ( 729000,   8)

     Check: negative/imaginary core charge=   -0.000003    0.000000

     Initial potential from superposition of free atoms
     Check: negative starting charge=   -0.520948

     starting charge  237.99981, renormalised to  246.00000

     negative rho (up, down):  0.538E+00 0.000E+00
     Number of +U iterations with fixed ns =  0
     Starting occupations:
 --- enter write_ns ---
 LDA+U parameters:
U( 2)     =  3.00000000
alpha( 2) =  0.00000000
atom    3   Tr[ns(na)] =   6.00000
    eigenvalues: 
  0.600  0.600  0.600  0.600  0.600
    eigenvectors:
  1.000  0.000  0.000  0.000  0.000
  0.000  1.000  0.000  0.000  0.000
  0.000  0.000  1.000  0.000  0.000
  0.000  0.000  0.000  1.000  0.000
  0.000  0.000  0.000  0.000  1.000
    occupations:
  0.600  0.000  0.000  0.000  0.000
  0.000  0.600  0.000  0.000  0.000
  0.000  0.000  0.600  0.000  0.000
  0.000  0.000  0.000  0.600  0.000
  0.000  0.000  0.000  0.000  0.600
atom    4   Tr[ns(na)] =   6.00000
    eigenvalues: 
  0.600  0.600  0.600  0.600  0.600
    eigenvectors:
  1.000  0.000  0.000  0.000  0.000
  0.000  1.000  0.000  0.000  0.000
  0.000  0.000  1.000  0.000  0.000
  0.000  0.000  0.000  1.000  0.000
  0.000  0.000  0.000  0.000  1.000
    occupations:
  0.600  0.000  0.000  0.000  0.000
  0.000  0.600  0.000  0.000  0.000
  0.000  0.000  0.600  0.000  0.000
  0.000  0.000  0.000  0.600  0.000
  0.000  0.000  0.000  0.000  0.600
atom    9   Tr[ns(na)] =   6.00000
    eigenvalues: 
  0.600  0.600  0.600  0.600  0.600
    eigenvectors:
  1.000  0.000  0.000  0.000  0.000
  0.000  1.000  0.000  0.000  0.000
  0.000  0.000  1.000  0.000  0.000
  0.000  0.000  0.000  1.000  0.000
  0.000  0.000  0.000  0.000  1.000
    occupations:
  0.600  0.000  0.000  0.000  0.000
  0.000  0.600  0.000  0.000  0.000
  0.000  0.000  0.600  0.000  0.000
  0.000  0.000  0.000  0.600  0.000
  0.000  0.000  0.000  0.000  0.600
atom   10   Tr[ns(na)] =   6.00000
    eigenvalues: 
  0.600  0.600  0.600  0.600  0.600
    eigenvectors:
  1.000  0.000  0.000  0.000  0.000
  0.000  1.000  0.000  0.000  0.000
  0.000  0.000  1.000  0.000  0.000
  0.000  0.000  0.000  1.000  0.000
  0.000  0.000  0.000  0.000  1.000
    occupations:
  0.600  0.000  0.000  0.000  0.000
  0.000  0.600  0.000  0.000  0.000
  0.000  0.000  0.600  0.000  0.000
  0.000  0.000  0.000  0.600  0.000
  0.000  0.000  0.000  0.000  0.600
atom   16   Tr[ns(na)] =   6.00000
    eigenvalues: 
  0.600  0.600  0.600  0.600  0.600
    eigenvectors:
  1.000  0.000  0.000  0.000  0.000
  0.000  1.000  0.000  0.000  0.000
  0.000  0.000  1.000  0.000  0.000
  0.000  0.000  0.000  1.000  0.000
  0.000  0.000  0.000  0.000  1.000
    occupations:
  0.600  0.000  0.000  0.000  0.000
  0.000  0.600  0.000  0.000  0.000
  0.000  0.000  0.600  0.000  0.000
  0.000  0.000  0.000  0.600  0.000
  0.000  0.000  0.000  0.000  0.600
atom   17   Tr[ns(na)] =   6.00000
    eigenvalues: 
  0.600  0.600  0.600  0.600  0.600
    eigenvectors:
  1.000  0.000  0.000  0.000  0.000
  0.000  1.000  0.000  0.000  0.000
  0.000  0.000  1.000  0.000  0.000
  0.000  0.000  0.000  1.000  0.000
  0.000  0.000  0.000  0.000  1.000
    occupations:
  0.600  0.000  0.000  0.000  0.000
  0.000  0.600  0.000  0.000  0.000
  0.000  0.000  0.600  0.000  0.000
  0.000  0.000  0.000  0.600  0.000
  0.000  0.000  0.000  0.000  0.600
atom   22   Tr[ns(na)] =   6.00000
    eigenvalues: 
  0.600  0.600  0.600  0.600  0.600
    eigenvectors:
  1.000  0.000  0.000  0.000  0.000
  0.000  1.000  0.000  0.000  0.000
  0.000  0.000  1.000  0.000  0.000
  0.000  0.000  0.000  1.000  0.000
  0.000  0.000  0.000  0.000  1.000
    occupations:
  0.600  0.000  0.000  0.000  0.000
  0.000  0.600  0.000  0.000  0.000
  0.000  0.000  0.600  0.000  0.000
  0.000  0.000  0.000  0.600  0.000
  0.000  0.000  0.000  0.000  0.600
atom   23   Tr[ns(na)] =   6.00000
    eigenvalues: 
  0.600  0.600  0.600  0.600  0.600
    eigenvectors:
  1.000  0.000  0.000  0.000  0.000
  0.000  1.000  0.000  0.000  0.000
  0.000  0.000  1.000  0.000  0.000
  0.000  0.000  0.000  1.000  0.000
  0.000  0.000  0.000  0.000  1.000
    occupations:
  0.600  0.000  0.000  0.000  0.000
  0.000  0.600  0.000  0.000  0.000
  0.000  0.000  0.600  0.000  0.000
  0.000  0.000  0.000  0.600  0.000
  0.000  0.000  0.000  0.000  0.600
N of occupied +U levels =  48.0000000
 --- exit write_ns ---
 Atomic wfc used for LDA+U Projector are NOT orthogonalized
     Starting wfc are  184 randomized atomic wfcs

     total cpu time spent up to now is      106.2 secs

     per-process dynamical memory:   414.0 Mb

     Self-consistent Calculation

     iteration #  1     ecut=    40.00 Ry     beta=0.70
     Davidson diagonalization with overlap
     ethr =  1.00E-02,  avg # of iterations =  6.0
 --- enter write_ns ---
 LDA+U parameters:
U( 2)     =  3.00000000
alpha( 2) =  0.00000000
atom    3   Tr[ns(na)] =   4.41781
    eigenvalues: 
  0.382  0.405  0.418  0.448  0.556
    eigenvectors:
  0.083  0.058  0.126  0.438  0.295
  0.305  0.623  0.066  0.006  0.000
  0.019  0.002  0.001  0.350  0.629
  0.113  0.006  0.800  0.032  0.049
  0.480  0.311  0.008  0.173  0.028
    occupations:
  0.468 -0.006  0.049 -0.017  0.030
 -0.006  0.399  0.002  0.008  0.007
  0.049  0.002  0.515 -0.023  0.007
 -0.017  0.008 -0.023  0.422 -0.015
  0.030  0.007  0.007 -0.015  0.406
atom    4   Tr[ns(na)] =   3.67039
    eigenvalues: 
  0.299  0.315  0.362  0.408  0.452
    eigenvectors:
  0.002  0.007  0.006  0.000  0.985
  0.066  0.900  0.028  0.000  0.006
  0.933  0.066  0.001  0.000  0.001
  0.000  0.027  0.964  0.000  0.009
  0.000  0.000  0.000  1.000  0.000
    occupations:
  0.450  0.012  0.004  0.009  0.000
  0.012  0.316 -0.004 -0.007 -0.001
  0.004 -0.004  0.300  0.002  0.000
  0.009 -0.007  0.002  0.361  0.000
  0.000 -0.001  0.000  0.000  0.408
atom    9   Tr[ns(na)] =   7.50129
    eigenvalues: 
  0.429  0.454  0.943  0.959  0.965
    eigenvectors:
  0.004  0.129  0.000  0.866  0.001
  0.985  0.015  0.000  0.000  0.000
  0.000  0.000  0.013  0.001  0.986
  0.011  0.856  0.000  0.132  0.000
  0.000  0.000  0.987  0.000  0.013
    occupations:
  0.892 -0.010  0.000 -0.171  0.000
 -0.010  0.430  0.000  0.001 -0.000
  0.000  0.000  0.965  0.000  0.002
 -0.171  0.001  0.000  0.521 -0.000
  0.000 -0.000  0.002 -0.000  0.944
atom   10   Tr[ns(na)] =   7.87190
    eigenvalues: 
  0.429  0.630  0.947  0.963  0.967
    eigenvectors:
  0.000  0.978  0.000  0.022  0.000
  0.000  0.000  0.000  0.000  1.000
  0.000  0.000  0.999  0.001  0.000
  0.000  0.022  0.001  0.978  0.000
  1.000  0.000  0.000  0.000  0.000
    occupations:
  0.637 -0.000  0.001  0.048  0.000
 -0.000  0.967 -0.000 -0.000  0.001
  0.001 -0.000  0.947  0.000 -0.000
  0.048 -0.000  0.000  0.955  0.000
  0.000  0.001 -0.000  0.000  0.429
atom   16   Tr[ns(na)] =   4.41606
    eigenvalues: 
  0.382  0.405  0.418  0.446  0.558
    eigenvectors:
  0.080  0.052  0.119  0.458  0.291
  0.307  0.614  0.070  0.009  0.000
  0.011  0.000  0.001  0.366  0.621
  0.110  0.009  0.803  0.030  0.049
  0.492  0.326  0.007  0.137  0.038
    occupations:
  0.468  0.006  0.049 -0.017 -0.031
  0.006  0.399 -0.002 -0.008  0.007
  0.049 -0.002  0.514 -0.023 -0.013
 -0.017 -0.008 -0.023  0.422  0.015
 -0.031  0.007 -0.013  0.015  0.405
atom   17   Tr[ns(na)] =   3.59090
    eigenvalues: 
  0.293  0.314  0.333  0.404  0.451
    eigenvectors:
  0.001  0.008  0.000  0.000  0.991
  0.027  0.807  0.160  0.000  0.007
  0.969  0.016  0.014  0.000  0.000
  0.003  0.169  0.826  0.000  0.002
  0.000  0.000  0.000  1.000  0.000
    occupations:
  0.450  0.011  0.003  0.005  0.000
  0.011  0.318 -0.004 -0.006 -0.001
  0.003 -0.004  0.294  0.003  0.001
  0.005 -0.006  0.003  0.330 -0.000
  0.000 -0.001  0.001 -0.000  0.404
atom   22   Tr[ns(na)] =   7.50106
    eigenvalues: 
  0.429  0.454  0.943  0.959  0.965
    eigenvectors:
  0.003  0.129  0.000  0.866  0.001
  0.986  0.014  0.000  0.000  0.000
  0.000  0.000  0.014  0.001  0.986
  0.011  0.857  0.000  0.132  0.000
  0.000  0.000  0.986  0.000  0.013
    occupations:
  0.892  0.009  0.001 -0.171  0.000
  0.009  0.430 -0.001 -0.000 -0.000
  0.001 -0.001  0.965  0.001 -0.002
 -0.171 -0.000  0.001  0.521 -0.000
  0.000 -0.000 -0.002 -0.000  0.944
atom   23   Tr[ns(na)] =   7.40390
    eigenvalues: 
  0.407  0.505  0.903  0.932  0.955
    eigenvectors:
  0.000  0.991  0.000  0.000  0.009
  0.000  0.000  0.000  1.000  0.000
  0.000  0.000  0.999  0.000  0.001
  0.000  0.009  0.001  0.000  0.990
  1.000  0.000  0.000  0.000  0.000
    occupations:
  0.509  0.000 -0.005  0.042 -0.000
  0.000  0.932  0.000  0.000 -0.000
 -0.005  0.000  0.903 -0.001 -0.000
  0.042  0.000 -0.001  0.951  0.000
 -0.000 -0.000 -0.000  0.000  0.407
N of occupied +U levels =  46.3733010
 --- exit write_ns ---

     negative rho (up, down):  0.626E+00 0.000E+00

     total cpu time spent up to now is      463.0 secs

     total energy              =   -2115.16892118 Ry
     Harris-Foulkes estimate   =   -2165.58514078 Ry
     estimated scf accuracy    <      57.91469333 Ry

     iteration #  2     ecut=    40.00 Ry     beta=0.70
     Davidson diagonalization with overlap
     ethr =  1.00E-02,  avg # of iterations =  6.1

     negative rho (up, down):  0.608E+00 0.000E+00

     total cpu time spent up to now is      828.1 secs

     total energy              =   -1915.01534891 Ry
     Harris-Foulkes estimate   =   -2563.33480462 Ry
     estimated scf accuracy    <    6499.84967168 Ry

     iteration #  3     ecut=    40.00 Ry     beta=0.70
     Davidson diagonalization with overlap
     ethr =  1.00E-02,  avg # of iterations =  6.0

     negative rho (up, down):  0.571E+00 0.000E+00

     total cpu time spent up to now is     1213.9 secs

     total energy              =   -2143.36567227 Ry
     Harris-Foulkes estimate   =   -2201.63674907 Ry
     estimated scf accuracy    <     257.58588806 Ry

     iteration #  4     ecut=    40.00 Ry     beta=0.70
     Davidson diagonalization with overlap
     ethr =  1.00E-02,  avg # of iterations =  5.0

     negative rho (up, down):  0.556E+00 0.000E+00

     total cpu time spent up to now is     1448.7 secs

     total energy              =   -2156.75870320 Ry
     Harris-Foulkes estimate   =   -2168.32168533 Ry
     estimated scf accuracy    <      51.80815959 Ry

     iteration #  5     ecut=    40.00 Ry     beta=0.70
     Davidson diagonalization with overlap
     ethr =  1.00E-02,  avg # of iterations =  2.5

     negative rho (up, down):  0.559E+00 0.000E+00

     total cpu time spent up to now is     1623.2 secs

     total energy              =   -2162.71628803 Ry
     Harris-Foulkes estimate   =   -2163.86703135 Ry
     estimated scf accuracy    <      49.29223535 Ry

     iteration #  6     ecut=    40.00 Ry     beta=0.70
     Davidson diagonalization with overlap
     ethr =  1.00E-02,  avg # of iterations =  1.0

     negative rho (up, down):  0.561E+00 0.000E+00

     total cpu time spent up to now is     1789.3 secs

     total energy              =   -2162.51866456 Ry
     Harris-Foulkes estimate   =   -2162.92327325 Ry
     estimated scf accuracy    <      34.74017470 Ry

     iteration #  7     ecut=    40.00 Ry     beta=0.70
     Davidson diagonalization with overlap
     ethr =  1.00E-02,  avg # of iterations =  1.0

     negative rho (up, down):  0.566E+00 0.000E+00

     total cpu time spent up to now is     1962.5 secs

     total energy              =   -2161.83458487 Ry
     Harris-Foulkes estimate   =   -2162.61721410 Ry
     estimated scf accuracy    <      25.75184419 Ry

     iteration #  8     ecut=    40.00 Ry     beta=0.70
     Davidson diagonalization with overlap
     ethr =  1.00E-02,  avg # of iterations =  1.0

     negative rho (up, down):  0.569E+00 0.000E+00

     total cpu time spent up to now is     2132.0 secs

     total energy              =   -2161.64182360 Ry
     Harris-Foulkes estimate   =   -2162.21606022 Ry
     estimated scf accuracy    <       8.99988484 Ry

     iteration #  9     ecut=    40.00 Ry     beta=0.70
     Davidson diagonalization with overlap
     ethr =  3.66E-03,  avg # of iterations =  1.3

     negative rho (up, down):  0.575E+00 0.000E+00

     total cpu time spent up to now is     2319.5 secs

     total energy              =   -2161.68074416 Ry
     Harris-Foulkes estimate   =   -2161.95413194 Ry
     estimated scf accuracy    <       4.99543038 Ry

     iteration # 10     ecut=    40.00 Ry     beta=0.70
     Davidson diagonalization with overlap
     ethr =  2.03E-03,  avg # of iterations =  3.7

     negative rho (up, down):  0.579E+00 0.000E+00

     total cpu time spent up to now is     2518.6 secs

     total energy              =   -2161.67872444 Ry
     Harris-Foulkes estimate   =   -2161.95641939 Ry
     estimated scf accuracy    <       1.60593930 Ry

     iteration # 11     ecut=    40.00 Ry     beta=0.70
     Davidson diagonalization with overlap
     ethr =  6.53E-04,  avg # of iterations =  5.0

     negative rho (up, down):  0.577E+00 0.000E+00

     total cpu time spent up to now is     2725.5 secs

     total energy              =   -2161.73002607 Ry
     Harris-Foulkes estimate   =   -2161.96752596 Ry
     estimated scf accuracy    <       2.72376641 Ry

     iteration # 12     ecut=    40.00 Ry     beta=0.70
     Davidson diagonalization with overlap
     ethr =  6.53E-04,  avg # of iterations =  1.0

     negative rho (up, down):  0.576E+00 0.000E+00

     total cpu time spent up to now is     2909.6 secs

     total energy              =   -2161.80649562 Ry
     Harris-Foulkes estimate   =   -2161.86490356 Ry
     estimated scf accuracy    <       0.29719300 Ry

     iteration # 13     ecut=    40.00 Ry     beta=0.70
     Davidson diagonalization with overlap
     ethr =  1.21E-04,  avg # of iterations =  4.6

     negative rho (up, down):  0.575E+00 0.000E+00

     total cpu time spent up to now is     3107.3 secs

     total energy              =   -2161.80461826 Ry
     Harris-Foulkes estimate   =   -2161.86501437 Ry
     estimated scf accuracy    <       0.28176665 Ry

     iteration # 14     ecut=    40.00 Ry     beta=0.70
     Davidson diagonalization with overlap
     ethr =  1.15E-04,  avg # of iterations =  3.7

     negative rho (up, down):  0.575E+00 0.000E+00

     total cpu time spent up to now is     3294.2 secs

     total energy              =   -2161.79086683 Ry
     Harris-Foulkes estimate   =   -2161.89707962 Ry
     estimated scf accuracy    <       0.73494612 Ry

     iteration # 15     ecut=    40.00 Ry     beta=0.70
     Davidson diagonalization with overlap
     ethr =  1.15E-04,  avg # of iterations =  2.0

     negative rho (up, down):  0.576E+00 0.000E+00

     total cpu time spent up to now is     3470.0 secs

     total energy              =   -2161.83091862 Ry
     Harris-Foulkes estimate   =   -2161.85372344 Ry
     estimated scf accuracy    <       0.12788738 Ry

     iteration # 16     ecut=    40.00 Ry     beta=0.70
     Davidson diagonalization with overlap
     ethr =  5.20E-05,  avg # of iterations =  2.2

     negative rho (up, down):  0.576E+00 0.000E+00

     total cpu time spent up to now is     3645.5 secs

     total energy              =   -2161.83151491 Ry
     Harris-Foulkes estimate   =   -2161.85447044 Ry
     estimated scf accuracy    <       0.23150295 Ry

     iteration # 17     ecut=    40.00 Ry     beta=0.70
     Davidson diagonalization with overlap
     ethr =  5.20E-05,  avg # of iterations =  1.0

     negative rho (up, down):  0.576E+00 0.000E+00

     total cpu time spent up to now is     3819.3 secs

     total energy              =   -2161.84082845 Ry
     Harris-Foulkes estimate   =   -2161.84722632 Ry
     estimated scf accuracy    <       0.03479920 Ry

     iteration # 18     ecut=    40.00 Ry     beta=0.70
     Davidson diagonalization with overlap
     ethr =  1.41E-05,  avg # of iterations =  4.3

     negative rho (up, down):  0.576E+00 0.000E+00

     total cpu time spent up to now is     4009.7 secs

     total energy              =   -2161.82622595 Ry
     Harris-Foulkes estimate   =   -2161.86627827 Ry
     estimated scf accuracy    <       0.43977693 Ry

     iteration # 19     ecut=    40.00 Ry     beta=0.70
     Davidson diagonalization with overlap
     ethr =  1.41E-05,  avg # of iterations =  1.3

     negative rho (up, down):  0.576E+00 0.000E+00

     total cpu time spent up to now is     4180.2 secs

     total energy              =   -2161.83875071 Ry
     Harris-Foulkes estimate   =   -2161.85107343 Ry
     estimated scf accuracy    <       0.24598158 Ry

     iteration # 20     ecut=    40.00 Ry     beta=0.70
     Davidson diagonalization with overlap
     ethr =  1.41E-05,  avg # of iterations =  1.5

     negative rho (up, down):  0.576E+00 0.000E+00

     total cpu time spent up to now is     4351.2 secs

     total energy              =   -2161.84412278 Ry
     Harris-Foulkes estimate   =   -2161.84674810 Ry
     estimated scf accuracy    <       0.01464268 Ry

     iteration # 21     ecut=    40.00 Ry     beta=0.70
     Davidson diagonalization with overlap
     ethr =  5.95E-06,  avg # of iterations =  2.5

     negative rho (up, down):  0.576E+00 0.000E+00

     total cpu time spent up to now is     4525.0 secs

     total energy              =   -2161.84484519 Ry
     Harris-Foulkes estimate   =   -2161.84602466 Ry
     estimated scf accuracy    <       0.00847842 Ry

     iteration # 22     ecut=    40.00 Ry     beta=0.70
     Davidson diagonalization with overlap
     ethr =  3.45E-06,  avg # of iterations =  1.4

     negative rho (up, down):  0.576E+00 0.000E+00

     total cpu time spent up to now is     4696.8 secs

     total energy              =   -2161.84475731 Ry
     Harris-Foulkes estimate   =   -2161.84629040 Ry
     estimated scf accuracy    <       0.01321441 Ry

     iteration # 23     ecut=    40.00 Ry     beta=0.70
     Davidson diagonalization with overlap
     ethr =  3.45E-06,  avg # of iterations =  1.0

     negative rho (up, down):  0.576E+00 0.000E+00

     total cpu time spent up to now is     4877.9 secs

     total energy              =   -2161.84524812 Ry
     Harris-Foulkes estimate   =   -2161.84594765 Ry
     estimated scf accuracy    <       0.00515830 Ry

     iteration # 24     ecut=    40.00 Ry     beta=0.70
     Davidson diagonalization with overlap
     ethr =  2.10E-06,  avg # of iterations =  1.2

     negative rho (up, down):  0.576E+00 0.000E+00

     total cpu time spent up to now is     5058.3 secs

     total energy              =   -2161.84540758 Ry
     Harris-Foulkes estimate   =   -2161.84580865 Ry
     estimated scf accuracy    <       0.00235739 Ry

     iteration # 25     ecut=    40.00 Ry     beta=0.70
     Davidson diagonalization with overlap
     ethr =  9.58E-07,  avg # of iterations =  1.0

     negative rho (up, down):  0.576E+00 0.000E+00

     total cpu time spent up to now is     5236.5 secs

     total energy              =   -2161.84555914 Ry
     Harris-Foulkes estimate   =   -2161.84574746 Ry
     estimated scf accuracy    <       0.00217482 Ry

     iteration # 26     ecut=    40.00 Ry     beta=0.70
     Davidson diagonalization with overlap
     ethr =  8.84E-07,  avg # of iterations =  1.0

     negative rho (up, down):  0.576E+00 0.000E+00

     total cpu time spent up to now is     5415.6 secs

     total energy              =   -2161.84559305 Ry
     Harris-Foulkes estimate   =   -2161.84570095 Ry
     estimated scf accuracy    <       0.00033806 Ry

     iteration # 27     ecut=    40.00 Ry     beta=0.70
     Davidson diagonalization with overlap
     ethr =  1.37E-07,  avg # of iterations =  1.9

     negative rho (up, down):  0.576E+00 0.000E+00

     total cpu time spent up to now is     5590.4 secs

     total energy              =   -2161.84547019 Ry
     Harris-Foulkes estimate   =   -2161.84585685 Ry
     estimated scf accuracy    <       0.00232795 Ry

     iteration # 28     ecut=    40.00 Ry     beta=0.70
     Davidson diagonalization with overlap
     ethr =  1.37E-07,  avg # of iterations =  1.3

     negative rho (up, down):  0.576E+00 0.000E+00

     total cpu time spent up to now is     5771.2 secs

     total energy              =   -2161.84562699 Ry
     Harris-Foulkes estimate   =   -2161.84570166 Ry
     estimated scf accuracy    <       0.00052414 Ry

     iteration # 29     ecut=    40.00 Ry     beta=0.70
     Davidson diagonalization with overlap
     ethr =  1.37E-07,  avg # of iterations =  1.0

     negative rho (up, down):  0.576E+00 0.000E+00

     total cpu time spent up to now is     5949.7 secs

     total energy              =   -2161.84557923 Ry
     Harris-Foulkes estimate   =   -2161.84574362 Ry
     estimated scf accuracy    <       0.00306669 Ry

     iteration # 30     ecut=    40.00 Ry     beta=0.70
     Davidson diagonalization with overlap
     ethr =  1.37E-07,  avg # of iterations =  1.0

     negative rho (up, down):  0.576E+00 0.000E+00

     total cpu time spent up to now is     6128.8 secs

     total energy              =   -2161.84565312 Ry
     Harris-Foulkes estimate   =   -2161.84568736 Ry
     estimated scf accuracy    <       0.00052347 Ry

     iteration # 31     ecut=    40.00 Ry     beta=0.70
     Davidson diagonalization with overlap
     ethr =  1.37E-07,  avg # of iterations =  1.0

     negative rho (up, down):  0.576E+00 0.000E+00

     total cpu time spent up to now is     6307.2 secs

     total energy              =   -2161.84566145 Ry
     Harris-Foulkes estimate   =   -2161.84567483 Ry
     estimated scf accuracy    <       0.00009703 Ry

     iteration # 32     ecut=    40.00 Ry     beta=0.70
     Davidson diagonalization with overlap
     ethr =  3.94E-08,  avg # of iterations =  1.1

     negative rho (up, down):  0.576E+00 0.000E+00

     total cpu time spent up to now is     6486.8 secs

     total energy              =   -2161.84564018 Ry
     Harris-Foulkes estimate   =   -2161.84570094 Ry
     estimated scf accuracy    <       0.00051847 Ry

     iteration # 33     ecut=    40.00 Ry     beta=0.70
     Davidson diagonalization with overlap
     ethr =  3.94E-08,  avg # of iterations =  1.0

     negative rho (up, down):  0.576E+00 0.000E+00

     total cpu time spent up to now is     6665.6 secs

     total energy              =   -2161.84566814 Ry
     Harris-Foulkes estimate   =   -2161.84567615 Ry
     estimated scf accuracy    <       0.00006299 Ry

     iteration # 34     ecut=    40.00 Ry     beta=0.70
     Davidson diagonalization with overlap
     ethr =  2.56E-08,  avg # of iterations =  1.0

     negative rho (up, down):  0.576E+00 0.000E+00

     total cpu time spent up to now is     6836.0 secs

     total energy              =   -2161.84566759 Ry
     Harris-Foulkes estimate   =   -2161.84567449 Ry
     estimated scf accuracy    <       0.00004315 Ry

     iteration # 35     ecut=    40.00 Ry     beta=0.70
     Davidson diagonalization with overlap
     ethr =  1.75E-08,  avg # of iterations =  1.0

     negative rho (up, down):  0.576E+00 0.000E+00

     total cpu time spent up to now is     7011.0 secs

     total energy              =   -2161.84565782 Ry
     Harris-Foulkes estimate   =   -2161.84568615 Ry
     estimated scf accuracy    <       0.00030406 Ry

     iteration # 36     ecut=    40.00 Ry     beta=0.70
     Davidson diagonalization with overlap
     ethr =  1.75E-08,  avg # of iterations =  1.0

     negative rho (up, down):  0.576E+00 0.000E+00

     total cpu time spent up to now is     7181.0 secs

     total energy              =   -2161.84567094 Ry
     Harris-Foulkes estimate   =   -2161.84567419 Ry
     estimated scf accuracy    <       0.00002359 Ry

     iteration # 37     ecut=    40.00 Ry     beta=0.70
     Davidson diagonalization with overlap
     ethr =  9.59E-09,  avg # of iterations =  1.0

     negative rho (up, down):  0.576E+00 0.000E+00

     total cpu time spent up to now is     7344.7 secs

     total energy              =   -2161.84567119 Ry
     Harris-Foulkes estimate   =   -2161.84567424 Ry
     estimated scf accuracy    <       0.00002132 Ry

     iteration # 38     ecut=    40.00 Ry     beta=0.70
     Davidson diagonalization with overlap
     ethr =  8.67E-09,  avg # of iterations =  1.0

     negative rho (up, down):  0.576E+00 0.000E+00

     total cpu time spent up to now is     7511.0 secs

     total energy              =   -2161.84567129 Ry
     Harris-Foulkes estimate   =   -2161.84567426 Ry
     estimated scf accuracy    <       0.00002773 Ry

     iteration # 39     ecut=    40.00 Ry     beta=0.70
     Davidson diagonalization with overlap
     ethr =  8.67E-09,  avg # of iterations =  1.0

     negative rho (up, down):  0.576E+00 0.000E+00

     total cpu time spent up to now is     7676.7 secs

     total energy              =   -2161.84567151 Ry
     Harris-Foulkes estimate   =   -2161.84567402 Ry
     estimated scf accuracy    <       0.00001642 Ry

     iteration # 40     ecut=    40.00 Ry     beta=0.70
     Davidson diagonalization with overlap
     ethr =  6.67E-09,  avg # of iterations =  1.0

     negative rho (up, down):  0.576E+00 0.000E+00

     total cpu time spent up to now is     7838.2 secs

     total energy              =   -2161.84566540 Ry
     Harris-Foulkes estimate   =   -2161.84568011 Ry
     estimated scf accuracy    <       0.00021969 Ry

     iteration # 41     ecut=    40.00 Ry     beta=0.70
     Davidson diagonalization with overlap
     ethr =  6.67E-09,  avg # of iterations =  1.0

     negative rho (up, down):  0.576E+00 0.000E+00

     total cpu time spent up to now is     8001.7 secs

     total energy              =   -2161.84567256 Ry
     Harris-Foulkes estimate   =   -2161.84567338 Ry
     estimated scf accuracy    <       0.00001460 Ry

     iteration # 42     ecut=    40.00 Ry     beta=0.70
     Davidson diagonalization with overlap
     ethr =  5.94E-09,  avg # of iterations =  1.0

     negative rho (up, down):  0.576E+00 0.000E+00

     total cpu time spent up to now is     8176.6 secs

     total energy              =   -2161.84567250 Ry
     Harris-Foulkes estimate   =   -2161.84567354 Ry
     estimated scf accuracy    <       0.00000883 Ry

     iteration # 43     ecut=    40.00 Ry     beta=0.70
     Davidson diagonalization with overlap
     ethr =  3.59E-09,  avg # of iterations =  1.0

     negative rho (up, down):  0.576E+00 0.000E+00

     total cpu time spent up to now is     8359.0 secs

     total energy              =   -2161.84567293 Ry
     Harris-Foulkes estimate   =   -2161.84567318 Ry
     estimated scf accuracy    <       0.00000205 Ry

     iteration # 44     ecut=    40.00 Ry     beta=0.70
     Davidson diagonalization with overlap
     ethr =  8.31E-10,  avg # of iterations =  1.0

     negative rho (up, down):  0.576E+00 0.000E+00

     total cpu time spent up to now is     8541.1 secs

     total energy              =   -2161.84567296 Ry
     Harris-Foulkes estimate   =   -2161.84567315 Ry
     estimated scf accuracy    <       0.00000102 Ry

     iteration # 45     ecut=    40.00 Ry     beta=0.70
     Davidson diagonalization with overlap
     ethr =  4.13E-10,  avg # of iterations =  1.1

     negative rho (up, down):  0.576E+00 0.000E+00

     total cpu time spent up to now is     8721.2 secs

     total energy              =   -2161.84567261 Ry
     Harris-Foulkes estimate   =   -2161.84567351 Ry
     estimated scf accuracy    <       0.00000946 Ry

     iteration # 46     ecut=    40.00 Ry     beta=0.70
     Davidson diagonalization with overlap
     ethr =  4.13E-10,  avg # of iterations =  1.0

     negative rho (up, down):  0.576E+00 0.000E+00

     total cpu time spent up to now is     8900.0 secs

     total energy              =   -2161.84567302 Ry
     Harris-Foulkes estimate   =   -2161.84567315 Ry
     estimated scf accuracy    <       0.00000103 Ry

     iteration # 47     ecut=    40.00 Ry     beta=0.70
     Davidson diagonalization with overlap
     ethr =  4.13E-10,  avg # of iterations =  1.0

     negative rho (up, down):  0.576E+00 0.000E+00

     total cpu time spent up to now is     9078.2 secs

     total energy              =   -2161.84567304 Ry
     Harris-Foulkes estimate   =   -2161.84567316 Ry
     estimated scf accuracy    <       0.00000137 Ry

     iteration # 48     ecut=    40.00 Ry     beta=0.70
     Davidson diagonalization with overlap
     ethr =  4.13E-10,  avg # of iterations =  1.0

     negative rho (up, down):  0.576E+00 0.000E+00

     total cpu time spent up to now is     9257.5 secs

     total energy              =   -2161.84567303 Ry
     Harris-Foulkes estimate   =   -2161.84567318 Ry
     estimated scf accuracy    <       0.00000121 Ry

     iteration # 49     ecut=    40.00 Ry     beta=0.70
     Davidson diagonalization with overlap
     ethr =  4.13E-10,  avg # of iterations =  1.0

     negative rho (up, down):  0.576E+00 0.000E+00

     total cpu time spent up to now is     9437.5 secs

     End of self-consistent calculation
 --- enter write_ns ---
 LDA+U parameters:
U( 2)     =  3.00000000
alpha( 2) =  0.00000000
atom    3   Tr[ns(na)] =   7.20104
    eigenvalues: 
  0.523  0.565  0.688  0.857  0.969
    eigenvectors:
  0.000  0.178  0.005  0.001  0.816
  0.997  0.003  0.000  0.000  0.000
  0.000  0.002  0.986  0.001  0.011
  0.003  0.817  0.007  0.000  0.173
  0.000  0.000  0.001  0.998  0.001
    occupations:
  0.895  0.003  0.029 -0.152 -0.002
  0.003  0.523  0.001 -0.004 -0.003
  0.029  0.001  0.690 -0.007 -0.006
 -0.152 -0.004 -0.007  0.635  0.002
 -0.002 -0.003 -0.006  0.002  0.857
atom    4   Tr[ns(na)] =   7.20346
    eigenvalues: 
  0.553  0.600  0.672  0.800  0.977
    eigenvectors:
  0.001  0.987  0.000  0.000  0.012
  0.000  0.000  0.029  0.971  0.000
  0.000  0.000  0.971  0.029  0.000
  0.000  0.012  0.000  0.000  0.988
  0.999  0.001  0.000  0.000  0.000
    occupations:
  0.604 -0.001 -0.000  0.040  0.002
 -0.001  0.796  0.021 -0.001 -0.001
 -0.000  0.021  0.676  0.002  0.000
  0.040 -0.001  0.002  0.972  0.000
  0.002 -0.001  0.000  0.000  0.553
atom    9   Tr[ns(na)] =   7.19913
    eigenvalues: 
  0.577  0.595  0.778  0.822  0.827
    eigenvectors:
  0.001  0.163  0.000  0.439  0.397
  0.991  0.008  0.000  0.000  0.000
  0.000  0.000  0.984  0.007  0.009
  0.008  0.829  0.000  0.085  0.078
  0.000  0.000  0.016  0.469  0.516
    occupations:
  0.787 -0.002 -0.000 -0.085  0.002
 -0.002  0.577  0.001  0.003 -0.000
 -0.000  0.001  0.778  0.000 -0.006
 -0.085  0.003  0.000  0.633 -0.001
  0.002 -0.000 -0.006 -0.001  0.824
atom   10   Tr[ns(na)] =   7.22986
    eigenvalues: 
  0.529  0.530  0.755  0.843  0.958
    eigenvectors:
  0.987  0.001  0.000  0.000  0.012
  0.000  0.000  0.000  1.000  0.000
  0.000  0.000  1.000  0.000  0.000
  0.012  0.000  0.000  0.000  0.988
  0.001  0.999  0.000  0.000  0.000
    occupations:
  0.534  0.000 -0.002  0.047  0.000
  0.000  0.843  0.001  0.000  0.001
 -0.002  0.001  0.755 -0.001  0.000
  0.047  0.000 -0.001  0.953  0.000
  0.000  0.001  0.000  0.000  0.530
atom   16   Tr[ns(na)] =   7.20130
    eigenvalues: 
  0.523  0.565  0.687  0.857  0.969
    eigenvectors:
  0.000  0.178  0.005  0.001  0.816
  0.997  0.003  0.000  0.000  0.000
  0.000  0.002  0.984  0.002  0.011
  0.003  0.817  0.008  0.000  0.172
  0.000  0.000  0.002  0.997  0.001
    occupations:
  0.895 -0.003  0.029 -0.152  0.001
 -0.003  0.523 -0.001  0.004 -0.003
  0.029 -0.001  0.690 -0.007  0.008
 -0.152  0.004 -0.007  0.635 -0.002
  0.001 -0.003  0.008 -0.002  0.857
atom   17   Tr[ns(na)] =   7.19775
    eigenvalues: 
  0.553  0.602  0.668  0.797  0.979
    eigenvectors:
  0.001  0.988  0.000  0.000  0.011
  0.000  0.000  0.018  0.982  0.000
  0.000  0.000  0.982  0.018  0.000
  0.000  0.011  0.000  0.000  0.989
  0.999  0.001  0.000  0.000  0.000
    occupations:
  0.606 -0.001 -0.000  0.040  0.001
 -0.001  0.794  0.017 -0.001 -0.001
 -0.000  0.017  0.670  0.001  0.000
  0.040 -0.001  0.001  0.975  0.000
  0.001 -0.001  0.000  0.000  0.553
atom   22   Tr[ns(na)] =   7.19944
    eigenvalues: 
  0.577  0.595  0.777  0.823  0.828
    eigenvectors:
  0.000  0.164  0.003  0.415  0.418
  0.997  0.003  0.000  0.000  0.000
  0.000  0.000  0.981  0.002  0.017
  0.003  0.833  0.001  0.081  0.082
  0.000  0.000  0.015  0.501  0.483
    occupations:
  0.787  0.003  0.003 -0.085  0.002
  0.003  0.577  0.001 -0.002 -0.000
  0.003  0.001  0.778 -0.000  0.006
 -0.085 -0.002 -0.000  0.633 -0.001
  0.002 -0.000  0.006 -0.001  0.825
atom   23   Tr[ns(na)] =   7.19555
    eigenvalues: 
  0.576  0.659  0.671  0.710  0.981
    eigenvectors:
  0.000  0.985  0.008  0.000  0.007
  0.000  0.000  0.000  1.000  0.000
  0.000  0.008  0.992  0.000  0.000
  0.000  0.007  0.000  0.000  0.993
  1.000  0.000  0.000  0.000  0.000
    occupations:
  0.661  0.000 -0.001  0.027 -0.000
  0.000  0.710  0.000  0.000  0.001
 -0.001  0.000  0.671  0.002 -0.000
  0.027  0.000  0.002  0.978 -0.000
 -0.000  0.001 -0.000 -0.000  0.576
N of occupied +U levels =  57.6275269
 --- exit write_ns ---

          k = 0.0000 0.0000 0.0000 ( 30363 PWs)   bands (ev):

   -75.2215 -74.5591 -74.5476 -74.2956 -74.2658 -73.9708 -73.9298 -73.9193
   -45.7387 -45.0280 -44.8706 -44.7458 -44.5928 -44.5569 -44.5534 -44.5348
   -44.5243 -44.4646 -44.4359 -44.3046 -44.2469 -44.1852 -44.1496 -44.1146
   -44.0730 -44.0256 -43.9327 -43.9157 -43.8498 -43.7962 -43.7813 -43.6584
   -21.2197 -20.7910 -20.6523 -20.4654 -20.3958 -20.2608 -19.9529 -19.9066
   -19.8587 -19.7744 -19.7426 -19.6997 -19.5691 -19.5277 -19.3907 -19.2484
   -19.1427 -19.0849 -18.9652  -9.6698  -9.5760  -9.4576  -8.7453  -8.6296
    -8.5973  -8.4651  -8.0991  -8.0597  -8.0558  -7.9991  -7.9921  -7.9139
    -7.8633  -7.7463  -7.5976  -7.5099  -7.3644  -7.3336  -7.1545  -7.0733
    -7.0040  -6.6603  -6.4945  -6.4470  -6.0422  -5.7573  -5.6878  -5.6770
    -5.6606  -5.5290  -5.4211  -5.3630  -5.2973  -5.1208  -5.0853  -5.0243
    -4.9557  -4.9073  -4.7678  -4.7509  -4.5450  -4.4835  -4.3634  -4.2874
    -4.2051  -4.1195  -3.9419  -3.8952  -3.8382  -3.8237  -3.7716  -3.6872
    -3.5387  -3.4380  -3.3481  -3.2847  -3.1587  -3.0310  -2.8849  -2.7032
    -2.6550  -2.6343  -2.5900  -2.3003  -2.1456  -2.0755  -1.8903  -1.8245
    -1.6604  -1.5307  -1.3910  -1.3758  -1.3501  -0.8381  -0.7514  -0.5736
    -0.4785  -0.3974  -0.1469   0.2235   0.3945   1.1939   1.4384   1.6954
     1.9168   2.1855   2.2441   2.2755   2.4814   3.1430   3.1740   3.2350
     3.3935   3.4742   3.4855   3.7397   3.9955   4.2400   4.2855   4.8182
     5.2093   6.0035   6.2145   6.2944   6.5135   6.9052   7.1433   7.2814
     7.5351   7.6984   7.8785   7.9335   7.9478   8.0345   8.0435   8.1782
     8.2532   8.2661   8.3716   8.4659   8.5693   8.6385   8.6710   8.7638
     8.8096   9.0864   9.1480   9.1956   9.2862   9.3536   9.3749   9.4473
     9.6517   9.7590   9.8077   9.9062   9.9440  10.0152  10.1212  10.2711
    10.6123  10.7338  10.7505  11.0210  11.0788  11.1046  11.1807  11.2285
    11.2974  11.3360  11.4291  11.4694  11.6000  11.6260  11.7478  11.7529
    11.8039  11.8183  11.8865  12.0204  12.0685  12.0968  12.2043  12.2458
    12.2706  12.3132  12.4105  12.4770  12.4805  12.5011  12.6239  12.7209
    12.7782  12.8000  12.8762  12.9302  13.0189  13.0785  13.1878  13.2151
    13.2997  13.3483  13.4040  13.6401  13.7317  13.8290  13.8608  13.9566
    14.0348  14.1416  14.2318  14.2828  14.3282  14.4703  14.5502  14.5831
    14.6314  14.8460  14.9004  15.0517  15.0834  15.2054  15.3730  15.4551
    15.4980  15.5851  15.7593  15.8275  15.8696  15.9039  15.9836  16.0322
    16.2356  16.2732  16.3357  16.4719  16.5492  16.6573  16.8652  16.8971
    17.1084  17.1411  17.2512  17.2852  17.2974  17.3736  17.4808  17.5304
    17.6290  17.8291  17.8975  17.9265  17.9993  18.1194  18.2668  18.3578
    18.4368  18.4836  18.5410  18.5727  18.6746  18.7222  18.7542  18.7772
    18.8140  18.8617  18.9087  18.9790  19.0501  19.1046  19.1968  19.2310
    19.2918  19.3171  19.3451  19.4248  19.6024  19.6500  19.6592  19.7032
    19.7823  19.8009  19.9490  20.0130  20.0496  20.1170  20.1666  20.1824
    20.2174  20.2668  20.3631  20.3904  20.4203  20.5483  20.5999  20.6875
    20.7528  20.8168  20.8713  20.8912  20.9371  21.0519  21.1964  21.2114
    21.2948  21.3671  21.4535  21.4819  21.5844  21.6806  21.6953  21.7207
    21.7835  21.8217  21.8949  22.0463  22.1384  22.1992  22.2615  22.2955
    22.3152  22.3801  22.4055  22.5132  22.5271

          k = 0.0000 0.2435 0.0000 ( 30432 PWs)   bands (ev):

   -75.2215 -74.5589 -74.5476 -74.2957 -74.2659 -73.9709 -73.9296 -73.9194
   -45.7387 -45.0283 -44.8699 -44.7454 -44.5928 -44.5569 -44.5534 -44.5355
   -44.5241 -44.4647 -44.4359 -44.3046 -44.2504 -44.1762 -44.1463 -44.1228
   -44.0728 -44.0268 -43.9324 -43.9155 -43.8498 -43.7959 -43.7817 -43.6585
   -21.1836 -20.7197 -20.5779 -20.4669 -20.3899 -20.2587 -20.0092 -19.9584
   -19.9377 -19.9036 -19.6032 -19.5902 -19.5337 -19.4939 -19.3922 -19.3765
   -19.2931 -19.0791 -18.9666  -9.5130  -9.2732  -9.1471  -8.8241  -8.7228
    -8.6314  -8.6142  -8.4701  -8.0534  -7.9369  -7.9129  -7.8951  -7.7815
    -7.7535  -7.6412  -7.5063  -7.4349  -7.3837  -7.2162  -7.0705  -6.9830
    -6.7657  -6.4943  -6.4763  -6.3903  -6.1876  -6.0492  -5.8861  -5.7279
    -5.6799  -5.6583  -5.5491  -5.4576  -5.3149  -5.2141  -5.1491  -5.1042
    -5.0704  -4.9624  -4.9181  -4.9030  -4.6224  -4.5671  -4.5531  -4.4730
    -4.3362  -4.1777  -4.1214  -4.0601  -3.9878  -3.9487  -3.7746  -3.7453
    -3.6522  -3.4071  -3.3520  -3.0204  -2.9614  -2.6734  -2.6030  -2.5832
    -2.5152  -2.4933  -2.3357  -2.2135  -2.1422  -2.1343  -2.0774  -2.0160
    -1.8866  -1.5056  -1.4505  -1.4032  -1.3547  -0.7736  -0.6353  -0.5126
    -0.3512  -0.3072  -0.1882   0.0126   0.5835   0.9852   1.2190   1.3419
     1.6960   2.1390   2.4792   3.0029   3.0700   3.1046   3.3417   3.3819
     3.4510   3.5216   3.5306   3.5444   3.8715   4.4163   4.5244   5.0235
     5.3601   5.5017   6.1703   6.3242   6.4477   6.5036   6.6554   6.8442
     7.0407   7.3070   7.5503   7.7573   7.9564   7.9666   8.1029   8.1277
     8.2365   8.3866   8.3955   8.4849   8.6930   8.8549   8.8633   9.0174
     9.1577   9.2072   9.3043   9.4239   9.5121   9.5976   9.6085   9.7296
     9.8431   9.8925  10.0127  10.0492  10.0853  10.0949  10.1593  10.2893
    10.3890  10.4157  10.4654  10.5947  10.6437  10.6756  10.8902  11.0187
    11.0737  11.1823  11.2790  11.3314  11.3810  11.4589  11.5018  11.5394
    11.5669  11.6770  11.9045  11.9749  12.0643  12.2578  12.4247  12.5105
    12.5790  12.6035  12.6358  12.6577  12.6942  12.8513  12.9178  13.1060
    13.1398  13.1835  13.2543  13.3234  13.4380  13.4661  13.6469  13.7222
    13.7578  13.7761  13.8829  13.9705  14.0317  14.1079  14.1544  14.2103
    14.2938  14.3693  14.4592  14.4794  14.5947  14.6679  14.6915  14.7253
    14.8232  14.9126  14.9737  15.0161  15.1581  15.1875  15.3610  15.4669
    15.5726  15.5866  15.6629  15.6906  15.8572  15.9154  15.9782  16.0058
    16.0936  16.1497  16.2662  16.3386  16.3618  16.4290  16.6006  16.6433
    16.7311  16.8442  16.8783  16.9257  17.0157  17.1371  17.2102  17.2704
    17.3833  17.4128  17.5465  17.5917  17.6747  17.7330  17.8883  18.0144
    18.0832  18.1993  18.2309  18.3179  18.4301  18.4864  18.5257  18.6384
    18.7318  18.7805  18.8097  18.8744  18.9337  18.9763  19.0549  19.0848
    19.1272  19.1848  19.2936  19.3483  19.4094  19.4864  19.5020  19.5933
    19.6281  19.7105  19.7965  19.8359  19.8495  19.9484  20.0079  20.0448
    20.0714  20.1400  20.1754  20.2353  20.2881  20.3254  20.3591  20.3817
    20.4480  20.5028  20.5809  20.6158  20.7572  20.8291  20.8772  20.9665
    21.0601  21.0916  21.1173  21.1602  21.2323  21.2597  21.2856  21.3289
    21.3588  21.4420  21.5285  21.5818  21.6609  21.7715  21.8002  21.8182
    21.8605  21.9804  22.0410  22.0713  22.1442

          k = 0.0000-0.4870 0.0000 ( 30448 PWs)   bands (ev):

   -75.2215 -74.5587 -74.5477 -74.2957 -74.2659 -73.9709 -73.9295 -73.9194
   -45.7387 -45.0286 -44.8692 -44.7449 -44.5928 -44.5569 -44.5535 -44.5362
   -44.5240 -44.4647 -44.4359 -44.3046 -44.2536 -44.1620 -44.1434 -44.1359
   -44.0727 -44.0278 -43.9321 -43.9153 -43.8498 -43.7957 -43.7820 -43.6585
   -21.1496 -20.6413 -20.4831 -20.4582 -20.3584 -20.2825 -20.0868 -20.0289
   -19.9539 -19.8904 -19.5936 -19.5467 -19.5312 -19.5219 -19.4486 -19.4125
   -19.3841 -19.0740 -18.9714  -9.4997  -8.9753  -8.8694  -8.7275  -8.7240
    -8.6705  -8.6146  -8.4807  -8.0517  -7.9001  -7.8412  -7.6865  -7.6789
    -7.6179  -7.4923  -7.4880  -7.4306  -7.3692  -7.1113  -7.0487  -7.0017
    -6.8917  -6.5533  -6.5141  -6.3286  -6.2624  -6.2053  -6.0725  -6.0629
    -5.7666  -5.7251  -5.5574  -5.5063  -5.4548  -5.4117  -5.3277  -5.2498
    -5.2168  -5.0462  -4.9335  -4.8347  -4.7042  -4.6829  -4.5581  -4.4898
    -4.2430  -4.2282  -4.1272  -3.9942  -3.9616  -3.9049  -3.8826  -3.7832
    -3.6601  -3.4023  -3.3543  -3.0211  -2.9651  -2.9080  -2.8364  -2.5807
    -2.5060  -2.3731  -2.1749  -2.1331  -2.1047  -2.0513  -2.0428  -1.8801
    -1.6753  -1.4681  -1.3994  -1.3753  -1.1991  -0.9871  -0.7693  -0.4252
    -0.3743  -0.3692  -0.0553  -0.0066   0.5967   0.7431   0.9692   1.2398
     1.9249   2.3280   2.7256   2.9430   3.1072   3.2729   3.3167   3.3443
     3.4740   3.5168   3.7410   3.7997   4.1256   4.5581   5.0011   5.1737
     5.2442   5.3447   5.6880   5.8113   6.1551   6.3153   6.8139   6.8623
     7.0624   7.0955   7.2278   7.3798   7.4704   7.9257   8.1921   8.3190
     8.4784   8.5629   8.6307   8.6479   8.9039   9.0079   9.0138   9.0446
     9.0642   9.1314   9.2657   9.3164   9.3214   9.4562   9.5462   9.6015
     9.6192   9.6728   9.8000   9.8219   9.9799  10.0701  10.1462  10.2053
    10.2191  10.3803  10.4499  10.7715  10.9077  10.9851  11.0042  11.0120
    11.2449  11.3304  11.3872  11.5903  11.6640  11.6758  11.7202  11.8630
    11.9060  12.0177  12.1906  12.2065  12.2084  12.2986  12.3914  12.5023
    12.6035  12.6585  12.7114  12.7810  12.8614  12.9786  13.0865  13.1828
    13.1973  13.2608  13.2665  13.3270  13.4879  13.5008  13.6046  13.6165
    13.7597  13.7841  13.8641  13.8655  14.0432  14.1080  14.3066  14.4116
    14.4492  14.5395  14.5935  14.6888  14.7473  14.7579  14.8582  15.0463
    15.0606  15.2092  15.3313  15.4463  15.5084  15.5257  15.6063  15.6570
    15.7006  15.8401  15.9212  15.9694  16.0168  16.0654  16.1507  16.1864
    16.2306  16.3116  16.3291  16.4540  16.5024  16.5219  16.5569  16.5867
    16.6079  16.6437  16.6512  16.7659  16.8632  16.9945  17.0159  17.0238
    17.1204  17.2044  17.2775  17.3700  17.4748  17.4867  17.6141  17.6269
    17.7379  17.8210  17.8656  18.0381  18.0864  18.1277  18.2616  18.2794
    18.3164  18.3561  18.3988  18.4175  18.4611  18.5394  18.5544  18.5762
    18.6548  18.7141  18.8061  18.8493  18.8727  18.9374  18.9826  19.0670
    19.2163  19.3922  19.4643  19.5075  19.6879  19.7265  19.7656  19.9555
    19.9662  19.9992  20.1227  20.2733  20.3341  20.3797  20.4649  20.4799
    20.4976  20.5622  20.5978  20.6372  20.6456  20.6986  20.7181  20.7336
    20.7436  20.7937  20.8263  20.8849  20.9702  20.9810  21.0218  21.0415
    21.0882  21.2452  21.2931  21.3007  21.4159  21.5090  21.5239  21.5683
    21.6393  21.6576  21.6921  21.7303  21.7619

          k = 0.2500 0.0000 0.0000 ( 30394 PWs)   bands (ev):

   -75.2211 -74.5571 -74.5489 -74.2947 -74.2658 -73.9704 -73.9279 -73.9203
   -45.7387 -45.0259 -44.8705 -44.7189 -44.5928 -44.5819 -44.5575 -44.5338
   -44.5259 -44.4602 -44.4401 -44.3044 -44.2240 -44.1815 -44.1536 -44.1219
   -44.0761 -44.0408 -43.9373 -43.9028 -43.8566 -43.7815 -43.7807 -43.6824
   -21.1264 -20.6729 -20.5894 -20.5051 -20.3767 -20.1603 -20.0546 -19.9492
   -19.8679 -19.8001 -19.6993 -19.6294 -19.5651 -19.5262 -19.4847 -19.3287
   -19.2298 -19.1600 -18.9785  -9.4617  -9.3510  -9.2804  -8.7259  -8.6245
    -8.5420  -8.3503  -8.2400  -8.1287  -8.0615  -8.0400  -7.9596  -7.8907
    -7.7983  -7.7102  -7.6023  -7.4336  -7.4042  -7.1838  -7.1397  -7.0264
    -6.9270  -6.7489  -6.5344  -6.2801  -6.1551  -5.9747  -5.8497  -5.7859
    -5.7797  -5.6628  -5.4983  -5.4498  -5.3559  -5.3047  -5.2649  -5.1108
    -5.0396  -4.9805  -4.8856  -4.8189  -4.6317  -4.5695  -4.5166  -4.4596
    -4.2835  -4.2159  -4.1728  -4.0819  -4.0038  -3.9197  -3.8582  -3.6930
    -3.5270  -3.4391  -3.3520  -3.1674  -3.1148  -2.6653  -2.6045  -2.5063
    -2.4818  -2.3002  -2.2386  -2.0362  -1.9804  -1.9492  -1.9231  -1.7352
    -1.5786  -1.5095  -1.2674  -1.1622  -1.1297  -0.9854  -0.8455  -0.6520
    -0.5947  -0.5154  -0.3041   0.0945   0.5267   1.3991   1.5508   1.8219
     2.0009   2.1666   2.3195   2.3389   2.5358   2.7301   2.9961   3.1620
     3.2358   3.3695   3.3958   3.5775   3.9540   4.4857   4.5517   5.0737
     5.4309   5.4875   6.1950   6.3988   6.4843   6.5395   6.6034   6.9270
     7.2861   7.4116   7.5987   7.7499   7.8757   7.9047   8.1298   8.1976
     8.3027   8.3633   8.4527   8.6001   8.6172   8.7171   8.8764   9.0362
     9.1316   9.1871   9.3457   9.4200   9.4620   9.5119   9.5820   9.6770
     9.8538   9.9420   9.9609  10.0700  10.1435  10.1750  10.2099  10.3086
    10.3471  10.4660  10.5497  10.6122  10.6860  10.7990  10.9770  11.0420
    11.1393  11.2407  11.3179  11.3524  11.4269  11.4837  11.5346  11.6487
    11.6729  11.7272  11.8574  11.8988  11.9881  12.1243  12.2020  12.3052
    12.4554  12.4858  12.6068  12.6611  12.6775  12.7756  12.8943  12.9491
    13.0480  13.1355  13.1877  13.3010  13.4366  13.5331  13.6636  13.7525
    13.8406  13.8914  13.9210  14.0106  14.1201  14.1838  14.2255  14.2964
    14.3201  14.3523  14.3699  14.4454  14.5509  14.6001  14.7229  14.7459
    14.8019  14.9584  15.0728  15.1023  15.1703  15.2589  15.4804  15.4932
    15.5510  15.6782  15.7425  15.7745  15.9106  15.9175  15.9774  16.0836
    16.1363  16.1692  16.2545  16.3223  16.4149  16.4768  16.5537  16.6362
    16.7054  16.7612  16.8372  16.8966  16.9458  16.9983  17.2442  17.2719
    17.3472  17.4443  17.5402  17.5584  17.5905  17.6599  17.7409  17.8610
    18.0327  18.1507  18.1837  18.2975  18.3439  18.3937  18.4636  18.5455
    18.7471  18.8271  18.8850  19.0529  19.0867  19.1212  19.1992  19.2642
    19.2781  19.3489  19.3758  19.4178  19.4637  19.5318  19.5708  19.6082
    19.6252  19.7104  19.8004  19.8137  19.8606  19.9245  19.9771  19.9943
    20.0406  20.0994  20.1468  20.2122  20.2378  20.3266  20.4287  20.5608
    20.6286  20.6725  20.6906  20.6966  20.7399  20.7726  20.8177  20.8371
    20.9244  20.9450  21.0387  21.0893  21.1236  21.1790  21.1972  21.2725
    21.3482  21.4083  21.4644  21.5248  21.5602  21.5923  21.6639  21.7427
    21.7725  21.7891  21.8810  21.9384  22.0311

          k = 0.2500 0.2435 0.0000 ( 30434 PWs)   bands (ev):

   -75.2211 -74.5569 -74.5489 -74.2947 -74.2658 -73.9704 -73.9277 -73.9203
   -45.7387 -45.0262 -44.8697 -44.7185 -44.5928 -44.5819 -44.5575 -44.5343
   -44.5260 -44.4602 -44.4401 -44.3044 -44.2264 -44.1763 -44.1516 -44.1242
   -44.0762 -44.0434 -43.9370 -43.9027 -43.8566 -43.7818 -43.7805 -43.6824
   -21.0988 -20.6042 -20.5413 -20.4898 -20.3530 -20.1541 -20.0576 -19.9621
   -19.8800 -19.8626 -19.6803 -19.5965 -19.5450 -19.5334 -19.4858 -19.4418
   -19.3700 -19.1565 -18.9790  -9.3306  -9.0804  -8.9314  -8.7764  -8.6248
    -8.5571  -8.4105  -8.3379  -8.0927  -7.9786  -7.9383  -7.8370  -7.7895
    -7.7520  -7.7015  -7.5945  -7.4832  -7.3050  -7.1854  -7.0343  -6.9671
    -6.8263  -6.5841  -6.4919  -6.3246  -6.2650  -6.1062  -5.9733  -5.8905
    -5.8625  -5.8172  -5.7387  -5.5098  -5.4899  -5.3811  -5.3486  -5.2897
    -5.1869  -5.1256  -5.0605  -4.8890  -4.8085  -4.7034  -4.6431  -4.5330
    -4.3673  -4.2895  -4.2199  -4.1754  -4.0527  -3.8625  -3.8284  -3.7471
    -3.4664  -3.3943  -3.3594  -3.0517  -2.8412  -2.4770  -2.4096  -2.3096
    -2.2925  -2.2186  -2.1868  -2.1055  -1.9832  -1.9486  -1.8755  -1.8417
    -1.7984  -1.4051  -1.3927  -1.2469  -1.1381  -0.8468  -0.6890  -0.6442
    -0.4853  -0.4631  -0.3381  -0.0968   0.6846   1.1287   1.4565   1.5222
     1.7860   2.1657   2.3807   2.6972   2.8476   2.9489   3.0141   3.1725
     3.2100   3.3049   3.5215   3.8043   3.9201   4.6893   4.7843   5.2706
     5.5692   5.6196   5.7840   6.3415   6.5632   6.6380   6.6969   6.7543
     6.8062   7.0210   7.1049   7.3278   7.5543   7.7660   7.8745   8.0077
     8.2271   8.3027   8.3727   8.4247   8.5260   8.5750   8.7235   8.7492
     8.9968   9.1475   9.2272   9.3239   9.4943   9.6108   9.7863   9.8308
     9.9709  10.0863  10.1381  10.1647  10.3012  10.3252  10.3981  10.4643
    10.5745  10.6585  10.7328  10.9073  10.9570  11.1074  11.1695  11.2485
    11.3774  11.4711  11.5002  11.5916  11.6769  11.7370  11.7913  11.8360
    11.9461  11.9898  12.1166  12.1479  12.2183  12.3066  12.4338  12.5198
    12.5618  12.6050  12.6596  12.7301  12.7844  12.8212  12.9348  13.0227
    13.0816  13.1587  13.2621  13.3515  13.4038  13.5062  13.5697  13.6168
    13.7719  13.8482  13.9333  14.0336  14.1201  14.1619  14.2349  14.3273
    14.4123  14.4555  14.5396  14.5640  14.5997  14.7447  14.8371  14.8828
    14.9782  15.0478  15.0826  15.2258  15.3133  15.4207  15.5241  15.5680
    15.6492  15.7261  15.7828  15.8422  15.8842  15.9209  15.9834  16.0969
    16.1098  16.2114  16.3026  16.3216  16.4115  16.4600  16.5503  16.6203
    16.6717  16.7283  16.7852  16.8157  16.9007  16.9359  16.9763  17.0411
    17.1513  17.2025  17.2723  17.3708  17.3991  17.4504  17.5191  17.5917
    17.7073  17.7504  17.8190  17.8404  17.9289  17.9830  18.0224  18.0623
    18.2231  18.2447  18.2844  18.3296  18.4546  18.5002  18.5539  18.6063
    18.6996  18.8264  18.8883  18.9067  19.0159  19.0911  19.1533  19.1983
    19.2545  19.3427  19.4176  19.4701  19.5186  19.6082  19.6765  19.7596
    19.8417  19.8870  19.9466  20.0293  20.0627  20.1753  20.2994  20.3612
    20.4247  20.5122  20.6006  20.7184  20.7501  20.8117  20.8725  20.9019
    20.9656  21.0356  21.1100  21.1995  21.2324  21.2786  21.3167  21.4055
    21.5199  21.5487  21.5713  21.6234  21.6652  21.8091  21.8333  21.9185
    21.9534  22.0040  22.0338  22.0926  22.1413

          k = 0.2500-0.4870 0.0000 ( 30468 PWs)   bands (ev):

   -75.2212 -74.5568 -74.5489 -74.2948 -74.2659 -73.9705 -73.9276 -73.9203
   -45.7388 -45.0265 -44.8690 -44.7182 -44.5928 -44.5819 -44.5575 -44.5350
   -44.5259 -44.4603 -44.4401 -44.3044 -44.2310 -44.1624 -44.1451 -44.1381
   -44.0779 -44.0439 -43.9367 -43.9026 -43.8566 -43.7822 -43.7803 -43.6824
   -21.0732 -20.5355 -20.5045 -20.4601 -20.2670 -20.1679 -20.0613 -19.9574
   -19.9481 -19.8505 -19.6726 -19.6128 -19.5812 -19.5768 -19.5088 -19.4842
   -19.4801 -19.1543 -18.9812  -9.3204  -8.8344  -8.6347  -8.5933  -8.5656
    -8.5300  -8.4481  -8.2913  -7.9546  -7.8977  -7.8293  -7.7629  -7.7178
    -7.6591  -7.6075  -7.5399  -7.4888  -7.2773  -7.1080  -7.0588  -6.9349
    -6.8290  -6.6422  -6.5038  -6.4132  -6.3489  -6.2561  -6.2096  -6.0793
    -6.0539  -5.9960  -5.8619  -5.6816  -5.6618  -5.5557  -5.5209  -5.4047
    -5.3042  -5.2560  -5.2116  -4.9637  -4.8072  -4.7933  -4.7233  -4.5393
    -4.4391  -4.2452  -4.1121  -4.0728  -3.9216  -3.8637  -3.7772  -3.5834
    -3.5188  -3.3822  -3.3202  -2.9872  -2.8679  -2.6600  -2.5980  -2.2940
    -2.2346  -2.1933  -2.1175  -2.0103  -1.9657  -1.9162  -1.8257  -1.7177
    -1.4457  -1.4299  -1.3261  -1.1900  -1.0552  -0.9436  -0.8084  -0.5934
    -0.4961  -0.4432  -0.2365  -0.1627   0.7376   0.8219   1.1305   1.4674
     1.9591   2.2441   2.5338   2.5717   2.7566   2.9803   2.9906   3.3015
     3.4000   3.4770   3.6740   3.6851   4.3845   4.8154   5.2242   5.4203
     5.4872   5.6000   5.9115   5.9291   6.0706   6.4034   6.5467   6.5942
     7.0184   7.2728   7.3100   7.3687   7.3965   7.4262   7.5054   7.5452
     7.7955   7.9584   8.1809   8.3198   8.4612   8.5058   8.5602   8.7057
     8.8936   8.9853   9.0961   9.2305   9.2862   9.3324   9.7039   9.8990
     9.9186  10.1845  10.2100  10.2907  10.3769  10.4756  10.6378  10.7519
    10.9032  11.1288  11.1678  11.2752  11.3494  11.4042  11.4992  11.5393
    11.5862  11.6659  11.7486  11.8618  11.8794  11.9088  11.9572  12.1007
    12.2420  12.2952  12.3271  12.4021  12.4482  12.5061  12.6164  12.6691
    12.7376  12.8271  12.8616  12.8878  12.9223  12.9855  13.1582  13.2532
    13.3087  13.3747  13.4009  13.4656  13.5520  13.6135  13.6341  13.7210
    13.8161  13.8630  13.9158  13.9886  14.0594  14.1496  14.2294  14.2890
    14.3767  14.5317  14.5817  14.6015  14.6436  14.7713  14.8250  14.8527
    14.8997  14.9268  14.9920  15.0566  15.1591  15.2167  15.2750  15.3690
    15.3955  15.4671  15.5360  15.5808  15.6257  15.8093  15.8605  15.9176
    15.9729  16.0737  16.1260  16.1723  16.2445  16.3344  16.3905  16.4133
    16.5329  16.6131  16.6432  16.6887  16.7508  16.8367  16.9173  17.0504
    17.0708  17.1332  17.1825  17.2408  17.2838  17.3610  17.4365  17.4781
    17.4992  17.5497  17.6335  17.7030  17.7218  17.8170  17.9798  18.1239
    18.1953  18.2455  18.2786  18.3368  18.4076  18.4416  18.4775  18.5272
    18.5908  18.6603  18.7038  18.7391  18.8250  18.8876  18.8967  18.9958
    19.0817  19.1022  19.1373  19.2226  19.2951  19.3325  19.3906  19.5769
    19.6327  19.6909  19.7499  19.7712  19.8469  19.9274  19.9668  19.9845
    20.0630  20.0800  20.1293  20.2428  20.2650  20.4727  20.5493  20.6514
    20.7575  20.8026  20.8658  20.9155  21.0118  21.0367  21.0514  21.1595
    21.2332  21.2666  21.3641  21.4853  21.5874  21.6195  21.7821  21.8428
    21.9464  22.0050  22.0411  22.1223  22.2286

          k =-0.5000 0.0000 0.0000 ( 30480 PWs)   bands (ev):

   -75.2207 -74.5530 -74.5524 -74.2937 -74.2658 -73.9700 -73.9247 -73.9225
   -45.7388 -45.0238 -44.8704 -44.6557 -44.6486 -44.5910 -44.5583 -44.5314
   -44.5287 -44.4504 -44.4498 -44.3042 -44.1840 -44.1768 -44.1555 -44.1504
   -44.0810 -44.0532 -43.9417 -43.8819 -43.8715 -43.7816 -43.7397 -43.7320
   -20.9906 -20.6626 -20.4814 -20.4088 -20.3335 -20.1946 -20.1783 -19.9538
   -19.9196 -19.7748 -19.6904 -19.5363 -19.5273 -19.5081 -19.4653 -19.4354
   -19.4317 -19.2779 -18.9894  -8.9964  -8.9590  -8.8816  -8.8660  -8.7171
    -8.7130  -8.4614  -8.4390  -8.2895  -8.1255  -8.0973  -8.0355  -7.7787
    -7.6856  -7.6456  -7.6111  -7.3053  -7.2260  -7.0239  -6.9740  -6.7995
    -6.7450  -6.6404  -6.5707  -6.4207  -6.2955  -6.2277  -6.1162  -6.0622
    -6.0248  -5.7726  -5.7093  -5.6294  -5.4276  -5.3145  -5.2859  -5.2574
    -5.2136  -5.1140  -5.0652  -5.0008  -4.7235  -4.6189  -4.5760  -4.4804
    -4.4107  -4.3916  -4.1672  -4.1558  -4.0782  -3.8233  -3.6266  -3.5785
    -3.5622  -3.4214  -3.3847  -3.2965  -3.0028  -2.6328  -2.4238  -2.3955
    -2.3479  -2.1963  -1.9832  -1.9219  -1.7141  -1.6756  -1.6415  -1.5152
    -1.4564  -1.3933  -1.1713  -1.1391  -1.0541  -1.0438  -1.0039  -0.8584
    -0.6897  -0.6361  -0.2527  -0.2292   0.6575   1.7841   1.9491   1.9781
     2.0472   2.1027   2.1700   2.3314   2.4695   2.6460   2.7552   2.7633
     2.7724   3.2796   3.4979   3.6078   4.3857   4.4147   5.0967   5.2445
     5.2873   5.4197   5.7471   5.8816   6.2081   6.3227   6.7919   6.9321
     7.1515   7.2989   7.3588   7.4341   7.9881   8.0894   8.1472   8.1887
     8.4395   8.4552   8.7627   8.8125   8.8440   8.8891   8.9172   8.9523
     8.9908   9.0904   9.3005   9.3625   9.4244   9.4442   9.4973   9.5277
     9.6392   9.8505  10.0128  10.1148  10.1723  10.1918  10.2115  10.3188
    10.3591  10.4117  10.4216  10.5905  10.6892  10.7234  10.8451  10.9007
    11.0964  11.1332  11.2221  11.4939  11.6869  11.7246  11.8419  11.9633
    12.0024  12.0466  12.0948  12.2105  12.3095  12.4012  12.4683  12.5060
    12.6109  12.6993  12.7686  12.7732  12.8003  12.8430  13.0541  13.0762
    13.2031  13.2285  13.3118  13.3436  13.6184  13.6781  13.7370  13.7713
    13.9030  13.9308  14.0105  14.0475  14.1356  14.2903  14.3100  14.4494
    14.5061  14.5495  14.5771  14.6438  14.7375  14.7560  14.8309  14.9093
    14.9326  15.0555  15.1973  15.2418  15.2798  15.3197  15.3821  15.4217
    15.4749  15.6080  15.8838  15.8887  16.0096  16.0687  16.3268  16.3573
    16.4250  16.4280  16.5158  16.5218  16.5718  16.6052  16.6245  16.6720
    16.6963  16.7317  16.8019  16.8116  16.8991  16.9211  16.9354  16.9869
    17.0096  17.0417  17.0795  17.2358  17.2761  17.4065  17.4414  17.6361
    17.7140  17.8148  17.8233  17.8715  18.0358  18.0568  18.1560  18.2247
    18.3167  18.3846  18.5453  18.5979  18.6193  18.7077  18.7282  18.8455
    18.9093  18.9594  19.1082  19.1694  19.2542  19.3494  19.3745  19.4289
    19.4313  19.4604  19.5702  19.6103  19.6360  19.6648  19.7362  19.8276
    19.8562  19.8794  20.0233  20.0364  20.0678  20.0987  20.1175  20.1857
    20.3390  20.3643  20.4376  20.4448  20.4693  20.5450  20.5781  20.5974
    20.6252  20.6960  20.7909  20.8345  20.8785  20.9704  21.0910  21.1673
    21.1938  21.2259  21.3610  21.4389  21.4776  21.5108  21.5450  21.5570
    21.6082  21.6151  21.6578  21.6643  21.7319

          k =-0.5000 0.2435 0.0000 ( 30444 PWs)   bands (ev):

   -75.2208 -74.5529 -74.5523 -74.2938 -74.2658 -73.9700 -73.9247 -73.9225
   -45.7388 -45.0241 -44.8696 -44.6554 -44.6486 -44.5910 -44.5583 -44.5308
   -44.5298 -44.4504 -44.4498 -44.3042 -44.1874 -44.1711 -44.1613 -44.1417
   -44.0842 -44.0552 -43.9414 -43.8819 -43.8715 -43.7819 -43.7396 -43.7319
   -20.9781 -20.6418 -20.4687 -20.3373 -20.2806 -20.1347 -20.1135 -19.9455
   -19.8954 -19.7816 -19.7139 -19.6335 -19.6148 -19.5407 -19.5370 -19.5055
   -19.4613 -19.2755 -18.9899  -8.9881  -8.8750  -8.6230  -8.5631  -8.4975
    -8.4756  -8.3611  -8.3533  -8.2323  -8.1303  -8.0447  -8.0030  -7.8074
    -7.7067  -7.6408  -7.5695  -7.2723  -7.1744  -7.0249  -6.9309  -6.8542
    -6.7522  -6.6995  -6.6735  -6.5598  -6.4926  -6.4631  -6.3747  -6.1701
    -5.9109  -5.8893  -5.6916  -5.6405  -5.6192  -5.4747  -5.4176  -5.2846
    -5.1829  -5.1137  -5.0881  -5.0429  -5.0184  -4.8450  -4.7719  -4.5733
    -4.5500  -4.4874  -4.2970  -4.2030  -4.0173  -3.9337  -3.6635  -3.5580
    -3.4236  -3.3725  -3.3208  -3.2486  -2.5916  -2.5018  -2.3708  -2.1689
    -2.0871  -2.0245  -1.9344  -1.9276  -1.8683  -1.7474  -1.6782  -1.5591
    -1.3771  -1.3643  -1.2898  -1.1660  -0.9926  -0.9226  -0.8259  -0.8137
    -0.7007  -0.6462  -0.3517  -0.3272   0.7765   1.4984   1.8536   1.9227
     2.0057   2.0580   2.1113   2.2334   2.2766   2.6630   2.7059   3.0548
     3.0657   3.2558   3.5927   3.7352   4.5809   4.6161   5.2712   5.4677
     5.5025   5.6411   5.9280   6.0373   6.2300   6.2932   6.5178   6.6765
     6.9368   7.2530   7.2730   7.3578   7.3975   7.4619   7.5073   7.6486
     7.7905   7.8896   8.1842   8.3605   8.4416   8.6149   8.6565   8.8666
     8.9308   9.0849   9.1273   9.2300   9.3224   9.4276   9.8549  10.0825
    10.1522  10.2533  10.2718  10.3749  10.4023  10.5430  10.6037  10.6671
    10.7386  10.8284  10.9981  11.0221  11.1668  11.2260  11.2851  11.3048
    11.4797  11.5054  11.6315  11.8184  11.9290  11.9811  12.0420  12.1275
    12.1556  12.2365  12.2909  12.4243  12.4955  12.5148  12.5638  12.6569
    12.7810  12.8424  12.8957  12.9520  13.0372  13.0744  13.2967  13.3333
    13.3746  13.4084  13.4235  13.5093  13.6076  13.7563  13.8212  13.9024
    13.9383  14.0299  14.0568  14.1462  14.2498  14.2808  14.3564  14.3967
    14.5402  14.5814  14.5919  14.6588  14.7198  14.7754  14.7887  14.8695
    14.9782  15.0061  15.0796  15.1561  15.1882  15.2371  15.2760  15.3025
    15.3644  15.3798  15.5293  15.5614  15.6230  15.6491  15.6724  15.7594
    15.8173  15.8277  15.9531  16.0714  16.1626  16.2168  16.3613  16.4270
    16.4437  16.5468  16.6074  16.6504  16.7044  16.7334  16.7890  16.8184
    16.8463  16.9166  17.0506  17.1196  17.2019  17.2493  17.3424  17.3744
    17.4371  17.5175  17.5721  17.6155  17.7928  17.9135  17.9532  17.9933
    18.0731  18.1247  18.2323  18.3066  18.3466  18.3939  18.5718  18.5942
    18.6706  18.7580  18.8007  18.8855  18.9075  18.9628  19.0228  19.0427
    19.0921  19.1215  19.1562  19.3151  19.3706  19.4871  19.5512  19.5983
    19.6541  19.6833  19.7667  19.8239  19.8524  19.9756  20.0876  20.1063
    20.1327  20.1740  20.3291  20.3699  20.3857  20.5756  20.6237  20.7038
    20.7552  20.8262  20.8824  20.9565  20.9862  21.1560  21.2012  21.3137
    21.3844  21.5025  21.5520  21.6068  21.6570  21.7334  21.7433  21.8845
    21.8921  21.9751  22.1086  22.1487  22.2226

          k =-0.5000-0.4870 0.0000 ( 30440 PWs)   bands (ev):

   -75.2208 -74.5528 -74.5522 -74.2938 -74.2659 -73.9700 -73.9246 -73.9224
   -45.7388 -45.0243 -44.8688 -44.6551 -44.6486 -44.5910 -44.5583 -44.5314
   -44.5298 -44.4504 -44.4498 -44.3043 -44.1862 -44.1784 -44.1481 -44.1440
   -44.0870 -44.0575 -43.9411 -43.8819 -43.8714 -43.7823 -43.7394 -43.7317
   -20.9659 -20.6226 -20.4568 -20.2384 -20.2243 -20.0332 -19.9530 -19.9353
   -19.9142 -19.7755 -19.7632 -19.7466 -19.7321 -19.6906 -19.6531 -19.5056
   -19.4614 -19.2744 -18.9910  -8.9800  -8.8684  -8.4883  -8.4571  -8.2615
    -8.2591  -8.0790  -8.0522  -7.9661  -7.8663  -7.7790  -7.7231  -7.6921
    -7.6733  -7.6601  -7.5404  -7.4733  -7.4241  -7.2600  -7.1645  -7.1060
    -6.9507  -6.7920  -6.7699  -6.6753  -6.5128  -6.4538  -6.3649  -6.1325
    -6.0609  -5.9117  -5.7466  -5.7349  -5.7164  -5.7047  -5.6326  -5.5722
    -5.5106  -5.4724  -5.3537  -5.1581  -5.0822  -4.9442  -4.8746  -4.3841
    -4.3339  -4.3066  -4.1906  -4.1720  -4.0614  -3.9293  -3.6684  -3.5334
    -3.4507  -3.3387  -3.1006  -3.0750  -2.5613  -2.4403  -2.3609  -2.2989
    -2.2311  -2.1376  -1.8765  -1.8150  -1.7295  -1.6172  -1.5838  -1.4166
    -1.3043  -1.2869  -1.2655  -1.2205  -0.9357  -0.8756  -0.7932  -0.7271
    -0.6268  -0.5021  -0.4827  -0.4470   0.8852   1.0985   1.6576   1.6851
     1.7061   2.0497   2.1276   2.2212   2.2582   2.8355   2.9520   3.0189
     3.3912   3.5322   3.5449   3.5948   4.9773   5.0239   5.5019   5.5153
     5.6266   6.1183   6.1349   6.1757   6.1868   6.2786   6.3162   6.3795
     6.6025   6.7485   6.7732   6.8740   7.0811   7.2473   7.3163   7.4377
     7.7440   8.0098   8.0220   8.1151   8.1982   8.2278   8.2817   8.3497
     8.8191   9.1082   9.1264   9.2566   9.2831   9.5590   9.6292   9.6533
     9.8459   9.8879  10.4947  10.5786  10.5971  10.8956  10.9196  10.9882
    11.0108  11.0816  11.4480  11.5350  11.7847  11.8301  11.8545  11.9233
    11.9725  12.0498  12.0672  12.1388  12.3529  12.5165  12.5216  12.5663
    12.6428  12.7344  12.7410  12.9151  13.0635  13.1112  13.1799  13.2284
    13.2651  13.3398  13.3516  13.3734  13.3953  13.4175  13.4923  13.5320
    13.5895  13.5924  13.6826  13.7526  13.7759  13.7928  13.8089  13.8495
    13.8712  13.9006  13.9055  13.9565  14.0058  14.0547  14.1085  14.1603
    14.2590  14.2648  14.2925  14.3154  14.3898  14.3959  14.5129  14.5690
    14.6223  14.6310  14.6811  14.7025  14.8273  14.9105  14.9704  15.0711
    15.1522  15.1653  15.2344  15.3094  15.3342  15.3893  15.4643  15.4763
    15.5108  15.5394  15.5866  15.6575  15.8206  15.9150  15.9297  15.9831
    15.9973  16.0941  16.2221  16.3294  16.3931  16.4308  16.4826  16.4909
    16.7292  16.7660  16.7731  16.7974  16.9494  16.9967  17.0923  17.1392
    17.1878  17.2268  17.3144  17.3366  17.3784  17.4720  17.5286  17.6271
    17.7377  17.7706  17.8650  17.9846  18.2377  18.3650  18.3824  18.4458
    18.5409  18.6417  18.7225  18.7235  18.7683  18.8403  18.8634  19.0260
    19.0342  19.2640  19.4412  19.4937  19.5205  19.5561  19.6753  19.7365
    19.7828  19.9171  20.0718  20.3308  20.3875  20.4558  20.4738  20.5466
    20.6048  20.6423  20.7941  20.8437  20.9136  20.9295  20.9666  21.0380
    21.0535  21.1130  21.2227  21.3072  21.3373  21.3509  21.3773  21.4064
    21.5227  21.5645  21.5818  21.6100  21.6363  21.6741  21.7001  21.7300
    21.7486  21.7884  21.8276  21.8834  22.0176

          k =-0.2500 0.2435 0.0000 ( 30434 PWs)   bands (ev):

   -75.2211 -74.5569 -74.5489 -74.2947 -74.2658 -73.9704 -73.9277 -73.9203
   -45.7387 -45.0262 -44.8697 -44.7186 -44.5928 -44.5819 -44.5575 -44.5344
   -44.5260 -44.4602 -44.4401 -44.3044 -44.2289 -44.1711 -44.1465 -44.1324
   -44.0779 -44.0414 -43.9370 -43.9027 -43.8566 -43.7818 -43.7805 -43.6824
   -21.0989 -20.6044 -20.5410 -20.4897 -20.3528 -20.1536 -20.0567 -19.9606
   -19.8842 -19.8645 -19.6807 -19.5925 -19.5459 -19.5324 -19.4859 -19.4417
   -19.3710 -19.1564 -18.9790  -9.3294  -9.0806  -8.9312  -8.7731  -8.6254
    -8.5617  -8.4278  -8.3087  -8.1008  -8.0009  -7.9272  -7.8516  -7.8036
    -7.7300  -7.6952  -7.5883  -7.4943  -7.3233  -7.1563  -7.0381  -6.9612
    -6.8094  -6.5910  -6.4770  -6.3195  -6.2566  -6.1435  -5.9626  -5.8945
    -5.8609  -5.7776  -5.7256  -5.5572  -5.5013  -5.4159  -5.3410  -5.3021
    -5.2025  -5.0913  -5.0321  -4.9623  -4.7602  -4.7062  -4.6343  -4.5144
    -4.3761  -4.2913  -4.2207  -4.1597  -4.0437  -3.9238  -3.8203  -3.7205
    -3.5079  -3.4133  -3.2807  -3.0481  -2.8462  -2.4828  -2.4199  -2.3318
    -2.2973  -2.1934  -2.1717  -2.1164  -1.9971  -1.9580  -1.8936  -1.8262
    -1.7573  -1.4201  -1.3873  -1.2450  -1.1450  -0.8363  -0.7083  -0.6491
    -0.4919  -0.4552  -0.3217  -0.1018   0.6843   1.1291   1.4619   1.5151
     1.7864   2.1686   2.3831   2.6961   2.8464   2.9458   3.0209   3.1620
     3.2229   3.3061   3.5073   3.8053   3.9217   4.6894   4.7841   5.2758
     5.5926   5.6359   5.7738   6.3385   6.5682   6.6307   6.6912   6.7494
     6.8016   6.9710   7.1038   7.3224   7.5662   7.7805   7.8793   7.9990
     8.2313   8.3149   8.3592   8.4392   8.5401   8.5736   8.7061   8.7543
     8.9818   9.1650   9.2172   9.3235   9.4985   9.6277   9.7886   9.8489
     9.9698  10.0667  10.1309  10.1533  10.2985  10.3239  10.3510  10.5077
    10.5942  10.6486  10.7055  10.8912  10.9553  11.0972  11.1743  11.2682
    11.3968  11.4873  11.5028  11.5804  11.6826  11.7390  11.7902  11.8362
    11.9458  11.9987  12.1266  12.1605  12.2238  12.3129  12.4733  12.5144
    12.5669  12.6063  12.6514  12.7360  12.7988  12.8587  12.9246  13.0232
    13.0798  13.1611  13.2805  13.3639  13.3970  13.5023  13.5308  13.6201
    13.7622  13.8242  13.9333  13.9981  14.1212  14.1725  14.2022  14.2815
    14.4266  14.4624  14.5631  14.5721  14.6062  14.7388  14.8390  14.8897
    14.9942  15.0414  15.0806  15.1786  15.3170  15.4167  15.5591  15.5853
    15.6393  15.7056  15.7860  15.8281  15.8591  15.9272  15.9718  16.0681
    16.1040  16.1681  16.3042  16.3269  16.3656  16.4555  16.5543  16.6136
    16.6684  16.7382  16.7846  16.7997  16.8720  16.9290  16.9866  17.0494
    17.1313  17.2108  17.2775  17.3742  17.4348  17.4711  17.5062  17.5944
    17.7023  17.7403  17.8169  17.8382  17.9236  17.9607  18.0479  18.0888
    18.2297  18.2501  18.2974  18.3268  18.4344  18.4771  18.5991  18.6366
    18.7075  18.8167  18.8700  18.9425  19.0578  19.1142  19.1743  19.1840
    19.2753  19.3394  19.4527  19.4883  19.5241  19.5757  19.6917  19.7517
    19.8290  19.8827  19.9361  20.0045  20.1277  20.1937  20.2960  20.3554
    20.4654  20.5491  20.5781  20.6569  20.7771  20.8159  20.8842  20.9013
    20.9668  21.0340  21.1044  21.1521  21.2288  21.3031  21.3476  21.3968
    21.5026  21.5452  21.5733  21.6097  21.6680  21.7576  21.8388  21.9446
    21.9690  22.0435  22.0554  22.0960  22.1492

     the Fermi energy is    -1.3016 ev

!    total energy              =   -2161.84567281 Ry
     Harris-Foulkes estimate   =   -2161.84567313 Ry
     estimated scf accuracy    <       0.00000037 Ry

     The total energy is the sum of the following terms:

     one-electron contribution =  -25069.60377275 Ry
     hartree contribution      =   12556.13620913 Ry
     xc contribution           =    -337.65379630 Ry
     ewald contribution        =   10687.69470232 Ry
     Hubbard energy            =       1.58126193 Ry
     smearing contrib. (-TS)   =      -0.00027713 Ry

     convergence has been achieved in  49 iterations

     Forces acting on atoms (Ry/au):


     negative rho (up, down):  0.576E+00 0.000E+00
     atom    1 type  1   force =    -0.00693497   -0.00924942    0.00940075
     atom    2 type  1   force =     0.00012746    0.00839781    0.00089765
     atom    3 type  2   force =     0.04057628    0.00248917   -0.01142616
     atom    4 type  2   force =     0.00328307    0.00564280    0.00258123
     atom    5 type  1   force =     0.00192566   -0.03785161    0.00052509
     atom    6 type  1   force =     0.00269045    0.03908318    0.00032870
     atom    7 type  1   force =     0.00011506   -0.00348862    0.02800543
     atom    8 type  1   force =     0.00011855   -0.00158714   -0.01225408
     atom    9 type  2   force =    -0.00279955    0.00264113    0.00166473
     atom   10 type  2   force =     0.00001058   -0.00188746   -0.01421926
     atom   11 type  1   force =    -0.00533629    0.00958724   -0.00038884
     atom   12 type  1   force =    -0.00670678   -0.01036423    0.00009993
     atom   13 type  1   force =    -0.00128992   -0.00075434   -0.00136099
     atom   14 type  1   force =    -0.00514345   -0.00872623    0.00800515
     atom   15 type  1   force =    -0.00013787    0.00638877    0.00426992
     atom   16 type  2   force =    -0.04115682    0.00354769   -0.01129943
     atom   17 type  2   force =     0.00252636    0.00562016    0.00080402
     atom   18 type  1   force =    -0.00020228   -0.03858326    0.00032911
     atom   19 type  1   force =     0.00162300    0.03829887    0.00042517
     atom   20 type  1   force =    -0.00010181   -0.00301605    0.00814270
     atom   21 type  1   force =     0.00019898   -0.00157624   -0.00854149
     atom   22 type  2   force =     0.00394388    0.00269516    0.00146407
     atom   23 type  2   force =     0.00003777    0.00104094    0.00261902
     atom   24 type  1   force =     0.00538022    0.00957712   -0.00028309
     atom   25 type  1   force =     0.00677260   -0.01047485   -0.00007117
     atom   26 type  1   force =    -0.00171187   -0.00089389   -0.00137966
     atom   27 type  3   force =    -0.00006767   -0.00345091    0.00042930
     atom   28 type  3   force =    -0.00007000   -0.00292707    0.00093333
     atom   29 type  3   force =     0.00159319   -0.00009197    0.00009725
     atom   30 type  3   force =     0.00076083   -0.00007855    0.00020331
     atom   31 type  1   force =    -0.00002467   -0.00000819   -0.01000172

     Total force =     0.043060     Total SCF correction =     0.001500

     BFGS Geometry Optimization

     number of scf cycles    =   1
     number of bfgs steps    =   0

     energy   new            =   -2161.8456728062 Ry

     new trust radius        =       0.0280054316 bohr
     new conv_thr            =       0.0000010000 Ry


ATOMIC_POSITIONS (crystal)
O0       0.000000000   0.000000000   0.378428389    0   0   1
O0       0.000000000   0.500000000   0.403877989    0   0   1
[...]
     5.2735   5.4290   5.7378   5.8751   6.2086   6.3251   6.7840   6.9160
     7.1485   7.3182   7.3644   7.4622   7.9911   8.0470   8.1366   8.2084
     8.4457   8.4627   8.7743   8.8103   8.8265   8.8897   8.9097   8.9551
     8.9830   9.0945   9.2926   9.3539   9.4128   9.4758   9.5055   9.5463
     9.6430   9.8569  10.0042  10.1072  10.1745  10.2002  10.2121  10.3358
    10.3810  10.4171  10.4607  10.6169  10.6929  10.7316  10.8511  10.9283
    11.0951  11.1350  11.2152  11.4897  11.7208  11.7249  11.8387  11.9852
    12.0226  12.0744  12.1261  12.2311  12.3332  12.4371  12.5188  12.5496
    12.6420  12.7103  12.7589  12.7678  12.8072  12.8549  13.0552  13.0675
    13.1996  13.2261  13.3059  13.3485  13.6180  13.6815  13.7465  13.7868
    13.9102  13.9344  14.0226  14.0651  14.1707  14.3119  14.3848  14.4933
    14.5544  14.6017  14.6137  14.6718  14.7600  14.7794  14.8719  14.9300
    14.9603  15.0582  15.2064  15.2618  15.2917  15.3226  15.3965  15.4450
    15.5218  15.6639  15.8978  15.9012  16.0050  16.0577  16.3147  16.3448
    16.4311  16.4323  16.5043  16.5084  16.5716  16.6070  16.6238  16.6962
    16.7060  16.7264  16.7966  16.7985  16.8922  16.9213  16.9372  17.0004
    17.0111  17.0416  17.0761  17.2377  17.2656  17.4032  17.4332  17.6432
    17.7213  17.8019  17.8118  17.8598  18.0327  18.0542  18.1473  18.2201
    18.3073  18.3596  18.5501  18.5925  18.6066  18.7078  18.7167  18.8520
    18.9015  18.9545  19.1183  19.1687  19.2562  19.3426  19.3695  19.4256
    19.4338  19.4499  19.5626  19.6170  19.6340  19.6610  19.7172  19.8284
    19.8405  19.8644  20.0169  20.0299  20.0739  20.0951  20.1109  20.1827
    20.3250  20.3485  20.4376  20.4435  20.4646  20.5388  20.5774  20.5989
    20.6348  20.6890  20.7941  20.8432  20.8860  20.9701  21.0914  21.1705
    21.2049  21.2297  21.3559  21.4417  21.4707  21.5053  21.5433  21.5716
    21.6158  21.6320  21.6641  21.6719  21.7315

          k =-0.5000 0.2435 0.0000 ( 30444 PWs)   bands (ev):

   -75.1930 -74.5081 -74.5035 -74.2785 -74.2631 -73.9763 -73.8647 -73.8621
   -45.7236 -44.9981 -44.8364 -44.6181 -44.6081 -44.5916 -44.5763 -44.4796
   -44.4789 -44.4078 -44.4032 -44.3453 -44.1598 -44.1529 -44.1067 -44.0897
   -44.0642 -44.0470 -43.9252 -43.8325 -43.8254 -43.7878 -43.6694 -43.6609
   -20.9408 -20.6973 -20.4872 -20.3230 -20.2786 -20.1112 -20.0804 -19.9241
   -19.8825 -19.7682 -19.7026 -19.6034 -19.5791 -19.5024 -19.4983 -19.4925
   -19.4520 -19.2729 -18.9326  -8.9904  -8.9110  -8.5947  -8.5548  -8.5036
    -8.4978  -8.3354  -8.3289  -8.2128  -8.1293  -8.0350  -7.9754  -7.7997
    -7.7235  -7.6343  -7.5727  -7.2895  -7.1829  -7.0248  -6.9198  -6.8312
    -6.7321  -6.6816  -6.6530  -6.5337  -6.4824  -6.4484  -6.3612  -6.1611
    -5.8892  -5.8532  -5.7144  -5.6346  -5.6226  -5.4498  -5.3911  -5.2380
    -5.1419  -5.0811  -5.0496  -5.0085  -4.9820  -4.8089  -4.7578  -4.5412
    -4.5139  -4.4403  -4.2623  -4.1909  -4.0155  -3.9007  -3.6539  -3.5381
    -3.4097  -3.3476  -3.2987  -3.2324  -2.5428  -2.4804  -2.3492  -2.1457
    -2.0579  -1.9925  -1.9050  -1.9022  -1.8499  -1.7324  -1.6580  -1.5319
    -1.3368  -1.3209  -1.2470  -1.1262  -0.9364  -0.8679  -0.7721  -0.7601
    -0.6485  -0.6029  -0.3039  -0.2713   0.8786   1.5533   1.8971   1.9655
     2.0535   2.1059   2.1562   2.2691   2.2880   2.7158   2.7778   3.0981
     3.1326   3.3542   3.6825   3.8378   4.5469   4.5845   5.2918   5.4520
     5.4857   5.6484   5.9157   6.0223   6.2116   6.2736   6.5123   6.6774
     6.9473   7.2472   7.2627   7.3517   7.4068   7.4904   7.5162   7.6841
     7.7831   7.8815   8.1933   8.3629   8.4616   8.6173   8.6637   8.8737
     8.9455   9.0996   9.1536   9.2443   9.3086   9.4152   9.8661  10.0856
    10.1705  10.2653  10.2836  10.3783  10.4092  10.5504  10.6124  10.6761
    10.7363  10.8391  10.9874  11.0139  11.1956  11.2508  11.2847  11.3314
    11.4746  11.5086  11.6312  11.8298  11.9637  11.9955  12.0654  12.1464
    12.1927  12.2688  12.2956  12.4411  12.5162  12.5330  12.5788  12.6866
    12.7881  12.8486  12.9026  12.9558  13.0364  13.0794  13.2946  13.3370
    13.3812  13.4094  13.4308  13.5015  13.6309  13.7630  13.8303  13.9216
    13.9626  14.0464  14.0764  14.1594  14.2638  14.2968  14.3772  14.4093
    14.5591  14.5906  14.6107  14.7018  14.7390  14.8226  14.8435  14.8801
    14.9940  15.0135  15.0914  15.1517  15.1903  15.2495  15.2893  15.3153
    15.3722  15.3891  15.5520  15.5819  15.6399  15.6547  15.6877  15.7816
    15.8298  15.8466  15.9602  16.0795  16.1662  16.2126  16.3574  16.4178
    16.4422  16.5509  16.6057  16.6453  16.6989  16.7304  16.7852  16.8142
    16.8414  16.9180  17.0512  17.1224  17.2062  17.2532  17.3427  17.3729
    17.4288  17.5185  17.5651  17.5965  17.7871  17.9047  17.9436  17.9893
    18.0668  18.1162  18.2255  18.3112  18.3515  18.3884  18.5591  18.5857
    18.6598  18.7616  18.8074  18.8878  18.9089  18.9506  19.0152  19.0511
    19.0959  19.1164  19.1541  19.3096  19.3770  19.4890  19.5394  19.5940
    19.6461  19.6774  19.7593  19.8219  19.8494  19.9842  20.0927  20.1058
    20.1291  20.1806  20.3263  20.3688  20.3803  20.5887  20.6351  20.7114
    20.7652  20.8309  20.8867  20.9666  20.9931  21.1624  21.2094  21.3183
    21.3895  21.5004  21.5491  21.5961  21.6466  21.7551  21.7673  21.8805
    21.8879  21.9864  22.1210  22.1546  22.2382

          k =-0.5000-0.4870 0.0000 ( 30440 PWs)   bands (ev):

   -75.1931 -74.5080 -74.5034 -74.2785 -74.2632 -73.9764 -73.8646 -73.8620
   -45.7237 -44.9984 -44.8357 -44.6179 -44.6080 -44.5916 -44.5763 -44.4803
   -44.4788 -44.4078 -44.4032 -44.3454 -44.1577 -44.1564 -44.0945 -44.0918
   -44.0679 -44.0522 -43.9248 -43.8325 -43.8254 -43.7882 -43.6692 -43.6608
   -20.9278 -20.6828 -20.4780 -20.2409 -20.2397 -19.9984 -19.9249 -19.8883
   -19.8822 -19.7451 -19.7358 -19.7139 -19.6963 -19.6608 -19.6393 -19.5043
   -19.4532 -19.2716 -18.9335  -8.9816  -8.9046  -8.5307  -8.4921  -8.2601
    -8.2473  -8.0484  -8.0205  -7.9416  -7.8658  -7.7794  -7.7129  -7.6636
    -7.6408  -7.6325  -7.5368  -7.4577  -7.4357  -7.2340  -7.1357  -7.0832
    -6.9386  -6.7988  -6.7616  -6.6524  -6.4963  -6.4451  -6.3539  -6.1423
    -6.0834  -5.8863  -5.7536  -5.7007  -5.6944  -5.6750  -5.5959  -5.5681
    -5.4922  -5.4428  -5.3287  -5.1064  -5.0670  -4.8940  -4.8564  -4.3476
    -4.3031  -4.2590  -4.1518  -4.1306  -4.0627  -3.9222  -3.6523  -3.5118
    -3.4027  -3.3187  -3.0889  -3.0639  -2.5446  -2.4099  -2.3184  -2.2554
    -2.2173  -2.1152  -1.8700  -1.7971  -1.6963  -1.5859  -1.5516  -1.3908
    -1.2640  -1.2438  -1.2170  -1.1822  -0.8812  -0.8214  -0.7288  -0.6630
    -0.5810  -0.4702  -0.4433  -0.3923   0.9875   1.1533   1.6825   1.7230
     1.7461   2.0992   2.1715   2.2357   2.2949   2.9188   3.0269   3.1068
     3.4299   3.6204   3.6455   3.6653   4.9313   4.9836   5.4727   5.4879
     5.6519   6.1139   6.1191   6.1663   6.1786   6.2722   6.3245   6.3836
     6.5938   6.7427   6.7640   6.8663   7.0823   7.2550   7.3158   7.4374
     7.7452   8.0213   8.0459   8.1340   8.2156   8.2626   8.3067   8.3961
     8.8533   9.1227   9.1320   9.2565   9.2831   9.5658   9.6376   9.6720
     9.8277   9.8815  10.5056  10.5894  10.6027  10.9185  10.9338  11.0041
    11.0264  11.0947  11.4430  11.5805  11.8055  11.8637  11.8838  11.9489
    11.9950  12.0361  12.0612  12.1576  12.3631  12.5295  12.5314  12.5829
    12.6642  12.7570  12.7697  12.9488  13.0693  13.1417  13.2003  13.2426
    13.2938  13.3403  13.3557  13.3671  13.4042  13.4245  13.4997  13.5250
    13.5872  13.5905  13.6829  13.7578  13.7849  13.8003  13.8074  13.8421
    13.8743  13.8979  13.9139  13.9544  14.0155  14.0629  14.1298  14.1901
    14.2589  14.2666  14.2945  14.3144  14.4036  14.4119  14.5108  14.5663
    14.6208  14.6493  14.6988  14.7025  14.8379  14.9149  14.9866  15.0766
    15.1556  15.1755  15.2440  15.3024  15.3291  15.3789  15.4651  15.4781
    15.5197  15.5566  15.5930  15.6618  15.8202  15.9084  15.9410  15.9926
    16.0020  16.1089  16.2248  16.3443  16.4114  16.4701  16.4948  16.5331
    16.7425  16.7705  16.7930  16.8151  16.9474  16.9955  17.1033  17.1406
    17.1902  17.2315  17.3208  17.3514  17.3865  17.4870  17.5335  17.6251
    17.7197  17.7562  17.8454  17.9619  18.2341  18.3599  18.3923  18.4505
    18.5495  18.6474  18.7313  18.7364  18.7761  18.8456  18.8651  19.0212
    19.0290  19.2496  19.4271  19.4847  19.5160  19.5423  19.6537  19.7281
    19.7734  19.9048  20.0652  20.3363  20.3708  20.4583  20.4747  20.5633
    20.6411  20.6795  20.7988  20.8529  20.9215  20.9361  20.9618  21.0422
    21.0602  21.1110  21.2154  21.2964  21.3284  21.3404  21.3673  21.3948
    21.5189  21.5474  21.5737  21.6103  21.6282  21.6766  21.7071  21.7377
    21.7483  21.7766  21.8246  21.9091  22.0544

          k =-0.2500 0.2435 0.0000 ( 30434 PWs)   bands (ev):

   -75.1934 -74.5107 -74.5015 -74.2798 -74.2628 -73.9768 -73.8676 -73.8601
   -45.7236 -45.0003 -44.8365 -44.6788 -44.5953 -44.5761 -44.5413 -44.4834
   -44.4749 -44.4161 -44.3951 -44.3455 -44.2073 -44.1336 -44.0953 -44.0867
   -44.0651 -44.0292 -43.9207 -43.8504 -43.8114 -43.7877 -43.7138 -43.6099
   -21.0780 -20.5946 -20.5678 -20.5059 -20.3364 -20.1343 -20.0512 -19.9397
   -19.8663 -19.8527 -19.6410 -19.5788 -19.5333 -19.5114 -19.4678 -19.4023
   -19.3299 -19.1583 -18.9229  -9.3497  -9.0505  -8.9011  -8.7768  -8.6423
    -8.6001  -8.4109  -8.2998  -8.0748  -7.9897  -7.9255  -7.8424  -7.7886
    -7.7209  -7.6817  -7.5874  -7.4987  -7.3266  -7.1633  -7.0260  -6.9516
    -6.7857  -6.5618  -6.4776  -6.3017  -6.2356  -6.1272  -5.9527  -5.8765
    -5.8471  -5.7639  -5.7083  -5.5524  -5.4833  -5.3771  -5.3159  -5.2650
    -5.1875  -5.0623  -5.0028  -4.9493  -4.7439  -4.6973  -4.6079  -4.4855
    -4.3425  -4.2749  -4.1963  -4.1323  -4.0034  -3.8986  -3.8095  -3.6988
    -3.4815  -3.3962  -3.2534  -3.0272  -2.8076  -2.4420  -2.3914  -2.3079
    -2.2757  -2.1670  -2.1403  -2.0859  -1.9765  -1.9252  -1.8547  -1.7947
    -1.7073  -1.3752  -1.3585  -1.1964  -1.0937  -0.7894  -0.6599  -0.5842
    -0.4540  -0.4090  -0.2787  -0.0469   0.7805   1.1727   1.4966   1.5517
     1.8416   2.2364   2.4324   2.7183   2.8964   2.9849   3.0960   3.1961
     3.3077   3.3522   3.6063   3.8204   3.9834   4.7014   4.7769   5.2677
     5.5629   5.6030   5.7708   6.3491   6.5575   6.6144   6.6918   6.7638
     6.8260   6.9590   7.0948   7.3134   7.5682   7.7854   7.8921   7.9977
     8.2350   8.3192   8.3727   8.4699   8.5341   8.5972   8.7057   8.7514
     8.9775   9.1703   9.2362   9.3451   9.5067   9.6259   9.8007   9.8579
     9.9901  10.0809  10.1291  10.1525  10.2876  10.3369  10.3616  10.5035
    10.5984  10.6472  10.7136  10.9003  10.9575  11.1054  11.1931  11.2824
    11.3989  11.5135  11.5218  11.5938  11.6802  11.7676  11.8091  11.8528
    11.9491  12.0081  12.1237  12.1761  12.2339  12.3171  12.4945  12.5188
    12.5840  12.6144  12.6793  12.7356  12.8174  12.8596  12.9298  13.0263
    13.0816  13.1802  13.2844  13.3659  13.4149  13.5106  13.5599  13.6379
    13.7729  13.8335  13.9512  14.0025  14.1359  14.1884  14.2261  14.3108
    14.4381  14.4827  14.5658  14.6073  14.6269  14.7816  14.8595  14.9234
    15.0301  15.0639  15.1072  15.2072  15.3240  15.4186  15.5525  15.5874
    15.6399  15.7116  15.7836  15.8386  15.8827  15.9362  15.9732  16.0751
    16.1091  16.1696  16.3056  16.3285  16.3654  16.4570  16.5542  16.6179
    16.6707  16.7381  16.7874  16.8024  16.8790  16.9264  16.9815  17.0615
    17.1444  17.2120  17.2800  17.3774  17.4303  17.4713  17.5031  17.6001
    17.7058  17.7342  17.8341  17.8412  17.9214  17.9595  18.0390  18.0842
    18.2281  18.2478  18.3005  18.3216  18.4277  18.4907  18.6040  18.6412
    18.6921  18.8187  18.8556  18.9350  19.0492  19.1092  19.1690  19.1834
    19.2806  19.3474  19.4547  19.4920  19.5233  19.5964  19.7203  19.7510
    19.8374  19.8851  19.9457  19.9982  20.1501  20.1943  20.3024  20.3680
    20.4778  20.5528  20.6000  20.6697  20.7891  20.8001  20.8869  20.8987
    20.9660  21.0351  21.0973  21.1593  21.2394  21.2999  21.3440  21.3966
    21.5137  21.5313  21.5800  21.6269  21.6802  21.7658  21.8318  21.9556
    21.9599  22.0408  22.0478  22.0976  22.1484

     the Fermi energy is    -1.2604 ev

!    total energy              =   -2161.84748066 Ry
     Harris-Foulkes estimate   =   -2161.84748066 Ry
     estimated scf accuracy    <          7.8E-09 Ry

     The total energy is the sum of the following terms:

     one-electron contribution =  -25142.65735785 Ry
     hartree contribution      =   12592.90664880 Ry
     xc contribution           =    -337.73046993 Ry
     ewald contribution        =   10724.05612694 Ry
     Hubbard energy            =       1.57785983 Ry
     smearing contrib. (-TS)   =      -0.00028846 Ry

     convergence has been achieved in  15 iterations

     Forces acting on atoms (Ry/au):


     negative rho (up, down):  0.577E+00 0.000E+00
     atom    1 type  1   force =    -0.00472330   -0.00843092    0.00071290
     atom    2 type  1   force =     0.00005659    0.00431888   -0.00016867
     atom    3 type  2   force =     0.03641197    0.00257182    0.00025763
     atom    4 type  2   force =     0.00280313    0.00519029   -0.00009270
     atom    5 type  1   force =     0.00260484   -0.03867224   -0.00035280
     atom    6 type  1   force =     0.00274694    0.03979147   -0.00034704
     atom    7 type  1   force =     0.00003937   -0.00301816   -0.00094925
     atom    8 type  1   force =     0.00017748   -0.00161245    0.00012092
     atom    9 type  2   force =    -0.00146106    0.00310400    0.00002569
     atom   10 type  2   force =     0.00003376   -0.00195265    0.00009897
     atom   11 type  1   force =    -0.00719402    0.01128857    0.00003362
     atom   12 type  1   force =    -0.00893218   -0.01226081   -0.00005454
     atom   13 type  1   force =    -0.00122091   -0.00098829    0.00052642
     atom   14 type  1   force =    -0.00389629   -0.00812930    0.00062172
     atom   15 type  1   force =    -0.00016407    0.00374541   -0.00035410
     atom   16 type  2   force =    -0.03704801    0.00351656    0.00026201
     atom   17 type  2   force =     0.00220607    0.00531193    0.00011262
     atom   18 type  1   force =    -0.00017064   -0.03929835   -0.00034314
     atom   19 type  1   force =     0.00118969    0.03908260   -0.00034197
     atom   20 type  1   force =    -0.00013998   -0.00304803   -0.00014816
     atom   21 type  1   force =     0.00007773   -0.00162125    0.00019135
     atom   22 type  2   force =     0.00254386    0.00293801    0.00001412
     atom   23 type  2   force =    -0.00000355    0.00155891    0.00031916
     atom   24 type  1   force =     0.00736409    0.01146678   -0.00000781
     atom   25 type  1   force =     0.00894147   -0.01251913   -0.00005471
     atom   26 type  1   force =    -0.00171224   -0.00119608    0.00041000
     atom   27 type  3   force =    -0.00001072   -0.00013151   -0.00037106
     atom   28 type  3   force =    -0.00000658   -0.00023671   -0.00065047
     atom   29 type  3   force =    -0.00027708   -0.00044889    0.00033697
     atom   30 type  3   force =    -0.00026730   -0.00031324    0.00025268
     atom   31 type  1   force =     0.00003093   -0.00000719   -0.00006035

     Total force =     0.002118     Total SCF correction =     0.000359
     SCF correction compared to forces is large: reduce conv_thr to get better values

     bfgs converged in  11 scf cycles and  10 bfgs steps
     (criteria: energy < 0.10E-03, force < 0.10E-02)

     End of BFGS Geometry Optimization

     Final energy   =   -2161.8474806565 Ry
Begin final coordinates

ATOMIC_POSITIONS (crystal)
O0       0.000000000   0.000000000   0.378999865    0   0   1
O0       0.000000000   0.500000000   0.404108826    0   0   1
Ru1      0.250000000   0.500000000   0.454801121    0   0   1
Ru1      0.000000000   0.000000000   0.452639928    0   0   1
O0       0.250000000   0.810000000   0.452837205    0   0   1
O0       0.250000000   0.190000000   0.452711771    0   0   1
O0       0.000000000   0.500000000   0.499134214    0   0   1
O0       0.000000000   0.000000000   0.525360560    0   0   1
Ru1      0.250000000   0.000000000   0.575934619    0   0   1
Ru1      0.000000000   0.500000000   0.568924817    0   0   1
O0       0.250000000   0.690000000   0.574911498    0   0   1
O0       0.250000000   0.310000000   0.574825221    0   0   1
O0       0.000000000   0.000000000   0.617674403    0   0   1
O0       0.500000000   0.000000000   0.378839320    0   0   1
O0       0.500000000   0.500000000   0.405000787    0   0   1
Ru1      0.750000000   0.500000000   0.454794455    0   0   1
Ru1      0.500000000   0.000000000   0.452372834    0   0   1
O0       0.750000000   0.810000000   0.452807207    0   0   1
O0       0.750000000   0.190000000   0.452727241    0   0   1
O0       0.500000000   0.500000000   0.503367163    0   0   1
O0       0.500000000   0.000000000   0.525452291    0   0   1
Ru1      0.750000000   0.000000000   0.575902254    0   0   1
Ru1      0.500000000   0.500000000   0.582239897    0   0   1
O0       0.750000000   0.690000000   0.574953166    0   0   1
O0       0.750000000   0.310000000   0.574739576    0   0   1
O0       0.500000000   0.000000000   0.615962461    0   0   1
H2      -0.000412504   0.624873383   0.382255467
H2       0.499454898   0.619899397   0.381589010
H2       0.145392132   0.031055085   0.366239246
H2       0.646093586   0.028498577   0.366146305
O0       0.500064782   0.497251755   0.646717274
End final coordinates



     init_run     :    102.52s CPU    105.66s WALL (       1 calls)
     electrons    :  42115.27s CPU  43245.19s WALL (      11 calls)
     update_pot   :    202.48s CPU    207.90s WALL (      10 calls)
     forces       :   1364.38s CPU   1392.77s WALL (      11 calls)

     Called by init_run:
     wfcinit      :     37.58s CPU     39.86s WALL (       1 calls)
     potinit      :      7.34s CPU      7.51s WALL (       1 calls)

     Called by electrons:
     c_bands      :  22853.42s CPU  23480.17s WALL (     238 calls)
     sum_band     :   8356.71s CPU   8591.77s WALL (     238 calls)
     v_of_rho     :    274.66s CPU    303.33s WALL (     245 calls)
     newd         :  10950.49s CPU  11009.65s WALL (     245 calls)
     mix_rho      :     50.98s CPU     52.50s WALL (     238 calls)

     Called by c_bands:
     init_us_2    :     59.90s CPU     60.56s WALL (    1530 calls)
     cegterg      :  22607.96s CPU  23202.46s WALL (     714 calls)

     Called by *egterg:
     h_psi        :  13365.93s CPU  13734.76s WALL (    1926 calls)
     s_psi        :   1283.32s CPU   1298.57s WALL (    1992 calls)
     g_psi        :     27.91s CPU     27.94s WALL (    1209 calls)
     cdiaghg      :   1930.03s CPU   1936.24s WALL (    1881 calls)

     Called by h_psi:
     add_vuspsi   :   1247.82s CPU   1264.20s WALL (    1926 calls)
     vhpsi        :   1420.30s CPU   1434.07s WALL (    1926 calls)

     General routines
     calbec       :   3061.74s CPU   3089.20s WALL (   14619 calls)
     fft          :    335.23s CPU    400.92s WALL (    4023 calls)
     ffts         :      4.28s CPU      4.41s WALL (     483 calls)
     fftw         :   7408.79s CPU   7840.61s WALL ( 1327034 calls)
     interpolate  :     41.33s CPU     41.92s WALL (     483 calls)
     davcio       :      0.12s CPU     26.39s WALL (    1563 calls)

     Parallel routines
     fft_scatter  :   2912.72s CPU   3395.52s WALL ( 1331540 calls)
     Hubbard U routines
     new_ns       :    301.64s CPU    317.96s WALL (     238 calls)
     vhpsi        :   1420.30s CPU   1434.07s WALL (    1926 calls)
     force_hub    :    401.51s CPU    410.11s WALL (      11 calls)

     PWSCF        :    12h18m CPU       12h38m WALL


   This run was terminated on:   6:26:19  27Apr2014            

=------------------------------------------------------------------------------=
   JOB DONE.
=------------------------------------------------------------------------------=
