ScientificPython/2.8-dl160g6-numpy-1.7.1-1(15):ERROR:151: Module 'ScientificPython/2.8-dl160g6-numpy-1.7.1-1' depends on one of the module(s) 'numpy/1.7.1-dl160g6-gfortran-internal-1'
ScientificPython/2.8-dl160g6-numpy-1.7.1-1(15):ERROR:102: Tcl command execution failed: prereq numpy/1.7.1-dl160g6-gfortran-internal-1


     Program PWSCF v.5.0.2 (svn rev. 9656) starts on 29May2014 at 23:46:22 

     This program is part of the open-source Quantum ESPRESSO suite
     for quantum simulation of materials; please cite
         "P. Giannozzi et al., J. Phys.:Condens. Matter 21 395502 (2009);
          URL http://www.quantum-espresso.org", 
     in publications or presentations arising from this work. More details at
     http://www.quantum-espresso.org/quote.php

     Parallel version (MPI), running on    16 processors
     K-points division:     npool     =       4
     R & G space division:  proc/nbgrp/npool/nimage =       4

     Current dimensions of program PWSCF are:
     Max number of different atomic species (ntypx) = 10
     Max number of k-points (npk) =  40000
     Max angular momentum in pseudopotentials (lmaxx) =  3
     Reading input from pwscf.in
Warning: card &CELL ignored
Warning: card / ignored

     Subspace diagonalization in iterative solution of the eigenvalue problem:
     a serial algorithm will be used


     Parallelization info
     --------------------
     sticks:   dense  smooth     PW     G-vecs:    dense   smooth      PW
     Min        1450     467    129               343652    62241    9199
     Max        1451     468    130               343665    62278    9208
     Sum        5803    1869    517              1374641   249013   36807



     bravais-lattice index     =            0
     lattice parameter (alat)  =      12.0187  a.u.
     unit-cell volume          =    7280.5819 (a.u.)^3
     number of atoms/cell      =           33
     number of atomic types    =            3
     number of electrons       =       245.00
     number of Kohn-Sham states=          367
     kinetic-energy cutoff     =      40.0000  Ry
     charge density cutoff     =     500.0000  Ry
     convergence threshold     =      1.0E-06
     mixing beta               =       0.7000
     number of iterations used =            8  plain     mixing
     Exchange-correlation      = SLA  PW   PBE  PBE ( 1 4 3 4 0)
     EXX-fraction              =        0.00
     nstep                     =           50


     celldm(1)=  12.018658  celldm(2)=   0.000000  celldm(3)=   0.000000
     celldm(4)=   0.000000  celldm(5)=   0.000000  celldm(6)=   0.000000

     crystal axes: (cart. coord. in units of alat)
               a(1) = (   1.000000   0.000000   0.000000 )  
               a(2) = (   0.000000   1.009517   0.000000 )  
               a(3) = (   0.000000   0.000000   4.154171 )  

     reciprocal axes: (cart. coord. in units 2 pi/alat)
               b(1) = (  1.000000  0.000000  0.000000 )  
               b(2) = (  0.000000  0.990572  0.000000 )  
               b(3) = (  0.000000  0.000000  0.240722 )  


     PseudoPot. # 1 for O  read from file:
     /home/camp/zhonxu/pseudo/o_pbe_v1.01.uspp.F.UPF
     MD5 check sum: 2bcb18d16ea4b960afae9ec6d52f22d2
     Pseudo is Ultrasoft + core correction, Zval =  6.0
     Generated by new atomic code, or converted to UPF format
     Using radial grid of  737 points,  5 beta functions with: 
                l(1) =   0
                l(2) =   0
                l(3) =   1
                l(4) =   1
                l(5) =   2
     Q(r) pseudized with  8 coefficients,  rinner =    0.900   0.900   0.900
                                                       0.900   0.900

     PseudoPot. # 2 for Ir read from file:
     /home/camp/zhonxu/pseudo/ir_pbe_v1.uspp.F.UPF
     MD5 check sum: abf987a9674477536ede83817f8f8b70
     Pseudo is Ultrasoft + core correction, Zval = 15.0
     Generated by new atomic code, or converted to UPF format
     Using radial grid of  983 points,  7 beta functions with: 
                l(1) =   0
                l(2) =   0
                l(3) =   1
                l(4) =   1
                l(5) =   1
                l(6) =   2
                l(7) =   2
     Q(r) pseudized with  8 coefficients,  rinner =    1.350   1.350   1.350
                                                       1.350   1.350

     PseudoPot. # 3 for H  read from file:
     /home/camp/zhonxu/pseudo/h_pbe_v1.uspp.F.UPF
     MD5 check sum: 3408e3ff4ec8b0a4e358431e7e038a48
     Pseudo is Ultrasoft, Zval =  1.0
     Generated by new atomic code, or converted to UPF format
     Using radial grid of  615 points,  2 beta functions with: 
                l(1) =   0
                l(2) =   0
     Q(r) pseudized with  8 coefficients,  rinner =    0.700

     atomic species   valence    mass     pseudopotential
        O0             6.00    15.99940     O ( 1.00)
        Ir1           15.00   192.22000     Ir( 1.00)
        H2             1.00     1.00794     H ( 1.00)


     Simplified LDA+U calculation (l_max = 2) with parameters (eV):
     atomic species    L          U    alpha       J0     beta
        Ir1            2     5.0000   0.0000   0.0000   0.0000



     No symmetry found



   Cartesian axes

     site n.     atom                  positions (alat units)
         1           O0  tau(   1) = (   0.0000000   0.0000000   1.5694875  )
         2           O0  tau(   2) = (   0.0000000   0.5047586   1.6702677  )
         3           Ir1 tau(   3) = (   0.2500000   0.5047586   1.8805934  )
         4           Ir1 tau(   4) = (   0.0000000   0.0000000   1.8807595  )
         5           O0  tau(   5) = (   0.2500000   0.8177090   1.8801779  )
         6           O0  tau(   6) = (   0.2500000   0.1918083   1.8787655  )
         7           O0  tau(   7) = (   0.0000000   0.5047586   2.0695666  )
         8           O0  tau(   8) = (   0.0000000   0.0000000   2.1948564  )
         9           Ir1 tau(   9) = (   0.2500000   0.0000000   2.3901025  )
        10           Ir1 tau(  10) = (   0.0000000   0.5047586   2.3742751  )
        11           O0  tau(  11) = (   0.2500000   0.6965669   2.3856575  )
        12           O0  tau(  12) = (   0.2500000   0.3129503   2.3949628  )
        13           O0  tau(  13) = (   0.0000000   0.0000000   2.5754200  )
        14           O0  tau(  14) = (   0.5000000   0.0000000   1.5694875  )
        15           O0  tau(  15) = (   0.5000000   0.5047586   1.6704338  )
        16           Ir1 tau(  16) = (   0.7500000   0.5047586   1.8805934  )
        17           Ir1 tau(  17) = (   0.5000000   0.0000000   1.8805518  )
        18           O0  tau(  18) = (   0.7500000   0.8177090   1.8801364  )
        19           O0  tau(  19) = (   0.7500000   0.1918083   1.8788486  )
        20           O0  tau(  20) = (   0.5000000   0.5047586   2.0759640  )
        21           O0  tau(  21) = (   0.5000000   0.0000000   2.1945241  )
        22           Ir1 tau(  22) = (   0.7500000   0.0000000   2.3900609  )
        23           Ir1 tau(  23) = (   0.5000000   0.5047586   2.3998648  )
        24           O0  tau(  24) = (   0.7500000   0.6965669   2.3856575  )
        25           O0  tau(  25) = (   0.7500000   0.3129503   2.3949628  )
        26           O0  tau(  26) = (   0.5000000   0.0000000   2.5728445  )
        27           H2  tau(  27) = (   0.0000400   0.6420328   1.5957418  )
        28           H2  tau(  28) = (   0.4999400   0.6424971   1.5965311  )
        29           H2  tau(  29) = (   0.1432100   0.0360095   1.5217560  )
        30           H2  tau(  30) = (   0.6436700   0.0339703   1.5215899  )
        31           O0  tau(  31) = (   0.4997900   0.5432313   2.6993805  )
        32           O0  tau(  32) = (   0.5001800   0.3480815   2.8224271  )
        33           H2  tau(  33) = (   0.4999800   0.4114489   2.9642920  )

     number of k points=    10  Methfessel-Paxton smearing, width (Ry)=  0.0100
                       cart. coord. in units 2pi/alat
        k(    1) = (   0.0000000   0.0000000   0.0000000), wk =   0.1250000
        k(    2) = (   0.0000000   0.2476431   0.0000000), wk =   0.2500000
        k(    3) = (   0.0000000  -0.4952862   0.0000000), wk =   0.1250000
        k(    4) = (   0.2500000   0.0000000   0.0000000), wk =   0.2500000
        k(    5) = (   0.2500000   0.2476431   0.0000000), wk =   0.2500000
        k(    6) = (   0.2500000  -0.4952862   0.0000000), wk =   0.2500000
        k(    7) = (  -0.5000000   0.0000000   0.0000000), wk =   0.1250000
        k(    8) = (  -0.5000000   0.2476431   0.0000000), wk =   0.2500000
        k(    9) = (  -0.5000000  -0.4952862   0.0000000), wk =   0.1250000
        k(   10) = (  -0.2500000   0.2476431   0.0000000), wk =   0.2500000

     Dense  grid:  1374641 G-vectors     FFT dimensions: (  90,  90, 360)

     Smooth grid:   249013 G-vectors     FFT dimensions: (  50,  50, 216)

     Largest allocated arrays     est. size (Mb)     dimensions
        Kohn-Sham Wavefunctions        44.06 Mb     (   7867,  367)
        Atomic wavefunctions           21.73 Mb     (   7867,  181)
        NL pseudopotentials            52.58 Mb     (   7867,  438)
        Each V/rho on FFT grid         11.12 Mb     ( 729000)
        Each G-vector array             2.62 Mb     ( 343661)
        G-vector shells                 1.13 Mb     ( 148760)
     Largest temporary arrays     est. size (Mb)     dimensions
        Auxiliary wavefunctions       176.22 Mb     (   7867, 1468)
        Each subspace H/S matrix       32.88 Mb     (1468,1468)
        Each <psi_i|beta_j> matrix      2.45 Mb     (    438,  367)
        Arrays for rho mixing          88.99 Mb     ( 729000,   8)

     Check: negative/imaginary core charge=   -0.000003    0.000000

     Initial potential from superposition of free atoms
     Check: negative starting charge=   -3.336869

     starting charge  240.99967, renormalised to  245.00000

     negative rho (up, down):  0.339E+01 0.000E+00
     Number of +U iterations with fixed ns =  0
     Starting occupations:
 --- enter write_ns ---
 LDA+U parameters:
U( 2)     =  5.00000000
alpha( 2) =  0.00000000
atom    3   Tr[ns(na)] =   7.00000
    eigenvalues: 
  0.700  0.700  0.700  0.700  0.700
    eigenvectors:
  1.000  0.000  0.000  0.000  0.000
  0.000  1.000  0.000  0.000  0.000
  0.000  0.000  1.000  0.000  0.000
  0.000  0.000  0.000  1.000  0.000
  0.000  0.000  0.000  0.000  1.000
    occupations:
  0.700  0.000  0.000  0.000  0.000
  0.000  0.700  0.000  0.000  0.000
  0.000  0.000  0.700  0.000  0.000
  0.000  0.000  0.000  0.700  0.000
  0.000  0.000  0.000  0.000  0.700
atom    4   Tr[ns(na)] =   7.00000
    eigenvalues: 
  0.700  0.700  0.700  0.700  0.700
    eigenvectors:
  1.000  0.000  0.000  0.000  0.000
  0.000  1.000  0.000  0.000  0.000
  0.000  0.000  1.000  0.000  0.000
  0.000  0.000  0.000  1.000  0.000
  0.000  0.000  0.000  0.000  1.000
    occupations:
  0.700  0.000  0.000  0.000  0.000
  0.000  0.700  0.000  0.000  0.000
  0.000  0.000  0.700  0.000  0.000
  0.000  0.000  0.000  0.700  0.000
  0.000  0.000  0.000  0.000  0.700
atom    9   Tr[ns(na)] =   7.00000
    eigenvalues: 
  0.700  0.700  0.700  0.700  0.700
    eigenvectors:
  1.000  0.000  0.000  0.000  0.000
  0.000  1.000  0.000  0.000  0.000
  0.000  0.000  1.000  0.000  0.000
  0.000  0.000  0.000  1.000  0.000
  0.000  0.000  0.000  0.000  1.000
    occupations:
  0.700  0.000  0.000  0.000  0.000
  0.000  0.700  0.000  0.000  0.000
  0.000  0.000  0.700  0.000  0.000
  0.000  0.000  0.000  0.700  0.000
  0.000  0.000  0.000  0.000  0.700
atom   10   Tr[ns(na)] =   7.00000
    eigenvalues: 
  0.700  0.700  0.700  0.700  0.700
    eigenvectors:
  1.000  0.000  0.000  0.000  0.000
  0.000  1.000  0.000  0.000  0.000
  0.000  0.000  1.000  0.000  0.000
  0.000  0.000  0.000  1.000  0.000
  0.000  0.000  0.000  0.000  1.000
    occupations:
  0.700  0.000  0.000  0.000  0.000
  0.000  0.700  0.000  0.000  0.000
  0.000  0.000  0.700  0.000  0.000
  0.000  0.000  0.000  0.700  0.000
  0.000  0.000  0.000  0.000  0.700
atom   16   Tr[ns(na)] =   7.00000
    eigenvalues: 
  0.700  0.700  0.700  0.700  0.700
    eigenvectors:
  1.000  0.000  0.000  0.000  0.000
  0.000  1.000  0.000  0.000  0.000
  0.000  0.000  1.000  0.000  0.000
  0.000  0.000  0.000  1.000  0.000
  0.000  0.000  0.000  0.000  1.000
    occupations:
  0.700  0.000  0.000  0.000  0.000
  0.000  0.700  0.000  0.000  0.000
  0.000  0.000  0.700  0.000  0.000
  0.000  0.000  0.000  0.700  0.000
  0.000  0.000  0.000  0.000  0.700
atom   17   Tr[ns(na)] =   7.00000
    eigenvalues: 
  0.700  0.700  0.700  0.700  0.700
    eigenvectors:
  1.000  0.000  0.000  0.000  0.000
  0.000  1.000  0.000  0.000  0.000
  0.000  0.000  1.000  0.000  0.000
  0.000  0.000  0.000  1.000  0.000
  0.000  0.000  0.000  0.000  1.000
    occupations:
  0.700  0.000  0.000  0.000  0.000
  0.000  0.700  0.000  0.000  0.000
  0.000  0.000  0.700  0.000  0.000
  0.000  0.000  0.000  0.700  0.000
  0.000  0.000  0.000  0.000  0.700
atom   22   Tr[ns(na)] =   7.00000
    eigenvalues: 
  0.700  0.700  0.700  0.700  0.700
    eigenvectors:
  1.000  0.000  0.000  0.000  0.000
  0.000  1.000  0.000  0.000  0.000
  0.000  0.000  1.000  0.000  0.000
  0.000  0.000  0.000  1.000  0.000
  0.000  0.000  0.000  0.000  1.000
    occupations:
  0.700  0.000  0.000  0.000  0.000
  0.000  0.700  0.000  0.000  0.000
  0.000  0.000  0.700  0.000  0.000
  0.000  0.000  0.000  0.700  0.000
  0.000  0.000  0.000  0.000  0.700
atom   23   Tr[ns(na)] =   7.00000
    eigenvalues: 
  0.700  0.700  0.700  0.700  0.700
    eigenvectors:
  1.000  0.000  0.000  0.000  0.000
  0.000  1.000  0.000  0.000  0.000
  0.000  0.000  1.000  0.000  0.000
  0.000  0.000  0.000  1.000  0.000
  0.000  0.000  0.000  0.000  1.000
    occupations:
  0.700  0.000  0.000  0.000  0.000
  0.000  0.700  0.000  0.000  0.000
  0.000  0.000  0.700  0.000  0.000
  0.000  0.000  0.000  0.700  0.000
  0.000  0.000  0.000  0.000  0.700
N of occupied +U levels =  56.0000000
 --- exit write_ns ---
 Atomic wfc used for LDA+U Projector are NOT orthogonalized
     Starting wfc are  181 randomized atomic wfcs

     total cpu time spent up to now is      119.3 secs

     per-process dynamical memory:   438.7 Mb

     Self-consistent Calculation

     iteration #  1     ecut=    40.00 Ry     beta=0.70
     Davidson diagonalization with overlap
     ethr =  1.00E-02,  avg # of iterations =  9.0
 --- enter write_ns ---
 LDA+U parameters:
U( 2)     =  5.00000000
alpha( 2) =  0.00000000
atom    3   Tr[ns(na)] =   7.11040
    eigenvalues: 
  0.447  0.487  0.738  0.936  0.948
    eigenvectors:
  0.000  0.180  0.003  0.813  0.004
  0.999  0.001  0.000  0.000  0.000
  0.000  0.000  0.995  0.003  0.002
  0.001  0.819  0.000  0.179  0.001
  0.000  0.000  0.002  0.006  0.992
    occupations:
  0.854  0.001  0.010 -0.172 -0.000
  0.001  0.447  0.000  0.001 -0.006
  0.010  0.000  0.739 -0.005 -0.009
 -0.172  0.001 -0.005  0.568  0.000
 -0.000 -0.006 -0.009  0.000  0.947
atom    4   Tr[ns(na)] =   6.79451
    eigenvalues: 
  0.474  0.497  0.684  0.793  0.949
    eigenvectors:
  0.000  0.987  0.000  0.000  0.013
  0.000  0.000  0.036  0.963  0.000
  0.000  0.000  0.963  0.036  0.000
  0.000  0.013  0.000  0.000  0.987
  1.000  0.000  0.000  0.000  0.000
    occupations:
  0.503 -0.002 -0.000  0.052  0.000
 -0.002  0.789  0.020 -0.001 -0.001
 -0.000  0.020  0.688  0.003  0.000
  0.052 -0.001  0.003  0.943  0.000
  0.000 -0.001  0.000  0.000  0.474
atom    9   Tr[ns(na)] =   7.01193
    eigenvalues: 
  0.482  0.505  0.747  0.808  0.963
    eigenvectors:
  0.001  0.145  0.001  0.000  0.854
  0.995  0.005  0.000  0.000  0.000
  0.000  0.000  0.937  0.062  0.000
  0.004  0.850  0.000  0.000  0.146
  0.000  0.000  0.062  0.938  0.000
    occupations:
  0.897 -0.002  0.002 -0.162  0.001
 -0.002  0.483  0.000 -0.001 -0.000
  0.002  0.000  0.751 -0.006 -0.015
 -0.162 -0.001 -0.006  0.572  0.000
  0.001 -0.000 -0.015  0.000  0.804
atom   10   Tr[ns(na)] =   7.33937
    eigenvalues: 
  0.448  0.475  0.891  0.900  0.956
    eigenvectors:
  0.992  0.000  0.000  0.000  0.008
  0.000  0.001  0.999  0.000  0.000
  0.000  0.000  0.000  1.000  0.000
  0.008  0.000  0.000  0.000  0.992
  0.000  0.999  0.001  0.000  0.000
    occupations:
  0.452 -0.000  0.003  0.046  0.000
 -0.000  0.891 -0.000 -0.000 -0.011
  0.003 -0.000  0.900 -0.001  0.000
  0.046 -0.000 -0.001  0.952 -0.000
  0.000 -0.011  0.000 -0.000  0.476
atom   16   Tr[ns(na)] =   7.11040
    eigenvalues: 
  0.447  0.487  0.738  0.935  0.948
    eigenvectors:
  0.000  0.180  0.003  0.808  0.009
  0.999  0.001  0.000  0.000  0.000
  0.000  0.000  0.994  0.003  0.003
  0.001  0.819  0.001  0.178  0.002
  0.000  0.000  0.002  0.011  0.986
    occupations:
  0.854 -0.001  0.010 -0.172  0.001
 -0.001  0.447 -0.000 -0.001 -0.006
  0.010 -0.000  0.739 -0.005  0.010
 -0.172 -0.001 -0.005  0.568 -0.000
  0.001 -0.006  0.010 -0.000  0.947
atom   17   Tr[ns(na)] =   6.80018
    eigenvalues: 
  0.474  0.497  0.685  0.798  0.948
    eigenvectors:
  0.000  0.987  0.000  0.000  0.013
  0.000  0.000  0.029  0.971  0.000
  0.000  0.000  0.971  0.029  0.000
  0.000  0.013  0.000  0.000  0.986
  1.000  0.000  0.000  0.000  0.000
    occupations:
  0.503 -0.003  0.000  0.052  0.000
 -0.003  0.794  0.019 -0.001 -0.001
  0.000  0.019  0.688  0.004  0.000
  0.052 -0.001  0.004  0.941  0.000
  0.000 -0.001  0.000  0.000  0.474
atom   22   Tr[ns(na)] =   7.01238
    eigenvalues: 
  0.482  0.505  0.747  0.808  0.963
    eigenvectors:
  0.001  0.144  0.001  0.000  0.854
  0.993  0.007  0.000  0.000  0.000
  0.000  0.000  0.940  0.060  0.000
  0.006  0.848  0.000  0.000  0.146
  0.000  0.000  0.060  0.940  0.000
    occupations:
  0.897  0.002  0.002 -0.162  0.000
  0.002  0.483  0.001  0.001 -0.000
  0.002  0.001  0.751 -0.006  0.015
 -0.162  0.001 -0.006  0.572 -0.000
  0.000 -0.000  0.015 -0.000  0.805
atom   23   Tr[ns(na)] =   6.96420
    eigenvalues: 
  0.468  0.509  0.685  0.876  0.944
    eigenvectors:
  0.000  0.989  0.000  0.003  0.008
  0.001  0.000  0.999  0.000  0.000
  0.000  0.002  0.000  0.982  0.016
  0.000  0.009  0.000  0.015  0.976
  0.999  0.000  0.001  0.000  0.000
    occupations:
  0.514 -0.000  0.014  0.041  0.000
 -0.000  0.685  0.000 -0.000 -0.006
  0.014  0.000  0.877 -0.010  0.000
  0.041 -0.000 -0.010  0.938 -0.000
  0.000 -0.006  0.000 -0.000  0.468
N of occupied +U levels =  56.1433718
 --- exit write_ns ---

     negative rho (up, down):  0.294E+01 0.000E+00

     total cpu time spent up to now is      534.5 secs

     total energy              =   -2127.95043260 Ry
     Harris-Foulkes estimate   =   -2141.30657358 Ry
     estimated scf accuracy    <      17.12111809 Ry

     iteration #  2     ecut=    40.00 Ry     beta=0.70
     Davidson diagonalization with overlap
     ethr =  6.99E-03,  avg # of iterations =  3.3

     negative rho (up, down):  0.272E+01 0.000E+00

     total cpu time spent up to now is      790.1 secs

     total energy              =   -2093.77946704 Ry
     Harris-Foulkes estimate   =   -2158.99290186 Ry
     estimated scf accuracy    <     383.35294213 Ry

     iteration #  3     ecut=    40.00 Ry     beta=0.70
     Davidson diagonalization with overlap
     ethr =  6.99E-03,  avg # of iterations =  4.0

     negative rho (up, down):  0.239E+01 0.000E+00

     total cpu time spent up to now is     1083.6 secs

     total energy              =   -2085.77248226 Ry
     Harris-Foulkes estimate   =   -2182.13882297 Ry
     estimated scf accuracy    <    1710.90913461 Ry

     iteration #  4     ecut=    40.00 Ry     beta=0.70
     Davidson diagonalization with overlap
     ethr =  6.99E-03,  avg # of iterations =  4.0

     negative rho (up, down):  0.252E+01 0.000E+00

     total cpu time spent up to now is     1358.4 secs

     total energy              =   -2136.68176876 Ry
     Harris-Foulkes estimate   =   -2138.81713688 Ry
     estimated scf accuracy    <       7.56992204 Ry

     iteration #  5     ecut=    40.00 Ry     beta=0.70
     Davidson diagonalization with overlap
     ethr =  3.09E-03,  avg # of iterations =  2.3

     negative rho (up, down):  0.264E+01 0.000E+00

     total cpu time spent up to now is     1555.1 secs

     total energy              =   -2136.97974323 Ry
     Harris-Foulkes estimate   =   -2138.28030726 Ry
     estimated scf accuracy    <       6.18598131 Ry

     iteration #  6     ecut=    40.00 Ry     beta=0.70
     Davidson diagonalization with overlap
     ethr =  2.52E-03,  avg # of iterations =  2.2

     negative rho (up, down):  0.270E+01 0.000E+00

     total cpu time spent up to now is     1763.8 secs

     total energy              =   -2137.54046815 Ry
     Harris-Foulkes estimate   =   -2137.87936455 Ry
     estimated scf accuracy    <       1.97154646 Ry

     iteration #  7     ecut=    40.00 Ry     beta=0.70
     Davidson diagonalization with overlap
     ethr =  8.05E-04,  avg # of iterations =  2.7

     negative rho (up, down):  0.276E+01 0.000E+00

     total cpu time spent up to now is     1971.8 secs

     total energy              =   -2137.55771006 Ry
     Harris-Foulkes estimate   =   -2137.73567365 Ry
     estimated scf accuracy    <       0.90763602 Ry

     iteration #  8     ecut=    40.00 Ry     beta=0.70
     Davidson diagonalization with overlap
     ethr =  3.70E-04,  avg # of iterations =  2.4

     negative rho (up, down):  0.283E+01 0.000E+00

     total cpu time spent up to now is     2176.0 secs

     total energy              =   -2137.52111189 Ry
     Harris-Foulkes estimate   =   -2137.71714409 Ry
     estimated scf accuracy    <       1.27496340 Ry

     iteration #  9     ecut=    40.00 Ry     beta=0.70
     Davidson diagonalization with overlap
     ethr =  3.70E-04,  avg # of iterations =  1.6

     negative rho (up, down):  0.290E+01 0.000E+00

     total cpu time spent up to now is     2379.4 secs

     total energy              =   -2137.54354606 Ry
     Harris-Foulkes estimate   =   -2137.62342797 Ry
     estimated scf accuracy    <       0.32125501 Ry

     iteration # 10     ecut=    40.00 Ry     beta=0.70
     Davidson diagonalization with overlap
     ethr =  1.31E-04,  avg # of iterations =  6.2

     negative rho (up, down):  0.302E+01 0.000E+00

     total cpu time spent up to now is     2619.2 secs

     total energy              =   -2137.51763907 Ry
     Harris-Foulkes estimate   =   -2137.58917785 Ry
     estimated scf accuracy    <       0.26369983 Ry

     iteration # 11     ecut=    40.00 Ry     beta=0.70
     Davidson diagonalization with overlap
     ethr =  1.08E-04,  avg # of iterations =  4.2

     negative rho (up, down):  0.310E+01 0.000E+00

     total cpu time spent up to now is     2846.2 secs

     total energy              =   -2137.51716672 Ry
     Harris-Foulkes estimate   =   -2137.55697705 Ry
     estimated scf accuracy    <       0.23359196 Ry

     iteration # 12     ecut=    40.00 Ry     beta=0.70
     Davidson diagonalization with overlap
     ethr =  9.53E-05,  avg # of iterations =  2.6

     negative rho (up, down):  0.311E+01 0.000E+00

     total cpu time spent up to now is     3059.7 secs

     total energy              =   -2137.48839440 Ry
     Harris-Foulkes estimate   =   -2137.54026673 Ry
     estimated scf accuracy    <       0.13542745 Ry

     iteration # 13     ecut=    40.00 Ry     beta=0.70
     Davidson diagonalization with overlap
     ethr =  5.53E-05,  avg # of iterations =  5.5

     negative rho (up, down):  0.312E+01 0.000E+00

     total cpu time spent up to now is     3309.6 secs

     total energy              =   -2137.31735582 Ry
     Harris-Foulkes estimate   =   -2137.74928787 Ry
     estimated scf accuracy    <       7.91030916 Ry

     iteration # 14     ecut=    40.00 Ry     beta=0.70
     Davidson diagonalization with overlap
     ethr =  5.53E-05,  avg # of iterations =  4.8

     negative rho (up, down):  0.313E+01 0.000E+00

     total cpu time spent up to now is     3548.8 secs

     total energy              =   -2137.51537291 Ry
     Harris-Foulkes estimate   =   -2137.54502592 Ry
     estimated scf accuracy    <       0.14396177 Ry

     iteration # 15     ecut=    40.00 Ry     beta=0.70
     Davidson diagonalization with overlap
     ethr =  5.53E-05,  avg # of iterations =  1.0

     negative rho (up, down):  0.313E+01 0.000E+00

     total cpu time spent up to now is     3744.6 secs

     total energy              =   -2137.52193975 Ry
     Harris-Foulkes estimate   =   -2137.53826298 Ry
     estimated scf accuracy    <       0.09727536 Ry

     iteration # 16     ecut=    40.00 Ry     beta=0.70
     Davidson diagonalization with overlap
     ethr =  3.97E-05,  avg # of iterations =  2.7

     negative rho (up, down):  0.313E+01 0.000E+00

     total cpu time spent up to now is     3942.7 secs

     total energy              =   -2137.52736808 Ry
     Harris-Foulkes estimate   =   -2137.53296837 Ry
     estimated scf accuracy    <       0.01897130 Ry

     iteration # 17     ecut=    40.00 Ry     beta=0.70
     Davidson diagonalization with overlap
     ethr =  7.74E-06,  avg # of iterations =  5.4

     negative rho (up, down):  0.314E+01 0.000E+00

     total cpu time spent up to now is     4165.5 secs

     total energy              =   -2137.52906127 Ry
     Harris-Foulkes estimate   =   -2137.53201524 Ry
     estimated scf accuracy    <       0.01700006 Ry

     iteration # 18     ecut=    40.00 Ry     beta=0.70
     Davidson diagonalization with overlap
     ethr =  6.94E-06,  avg # of iterations =  1.1

     negative rho (up, down):  0.313E+01 0.000E+00

     total cpu time spent up to now is     4360.4 secs

     total energy              =   -2137.52951071 Ry
     Harris-Foulkes estimate   =   -2137.53158370 Ry
     estimated scf accuracy    <       0.01212024 Ry

     iteration # 19     ecut=    40.00 Ry     beta=0.70
     Davidson diagonalization with overlap
     ethr =  4.95E-06,  avg # of iterations =  1.0

     negative rho (up, down):  0.314E+01 0.000E+00

     total cpu time spent up to now is     4556.7 secs

     total energy              =   -2137.53029275 Ry
     Harris-Foulkes estimate   =   -2137.53115101 Ry
     estimated scf accuracy    <       0.00729353 Ry

     iteration # 20     ecut=    40.00 Ry     beta=0.70
     Davidson diagonalization with overlap
     ethr =  2.98E-06,  avg # of iterations =  2.2

     negative rho (up, down):  0.314E+01 0.000E+00

     total cpu time spent up to now is     4765.4 secs

     total energy              =   -2137.53057596 Ry
     Harris-Foulkes estimate   =   -2137.53086603 Ry
     estimated scf accuracy    <       0.00127284 Ry

     iteration # 21     ecut=    40.00 Ry     beta=0.70
     Davidson diagonalization with overlap
     ethr =  5.20E-07,  avg # of iterations =  1.0

     negative rho (up, down):  0.314E+01 0.000E+00

     total cpu time spent up to now is     4961.3 secs

     total energy              =   -2137.53064629 Ry
     Harris-Foulkes estimate   =   -2137.53082471 Ry
     estimated scf accuracy    <       0.00114311 Ry

     iteration # 22     ecut=    40.00 Ry     beta=0.70
     Davidson diagonalization with overlap
     ethr =  4.67E-07,  avg # of iterations =  1.0

     negative rho (up, down):  0.314E+01 0.000E+00

     total cpu time spent up to now is     5157.0 secs

     total energy              =   -2137.53070318 Ry
     Harris-Foulkes estimate   =   -2137.53075556 Ry
     estimated scf accuracy    <       0.00013828 Ry

     iteration # 23     ecut=    40.00 Ry     beta=0.70
     Davidson diagonalization with overlap
     ethr =  5.64E-08,  avg # of iterations =  4.4

     negative rho (up, down):  0.314E+01 0.000E+00

     total cpu time spent up to now is     5364.7 secs

     total energy              =   -2137.53045257 Ry
     Harris-Foulkes estimate   =   -2137.53103968 Ry
     estimated scf accuracy    <       0.00810577 Ry

     iteration # 24     ecut=    40.00 Ry     beta=0.70
     Davidson diagonalization with overlap
     ethr =  5.64E-08,  avg # of iterations =  2.1

     negative rho (up, down):  0.314E+01 0.000E+00

     total cpu time spent up to now is     5554.0 secs

     total energy              =   -2137.53073846 Ry
     Harris-Foulkes estimate   =   -2137.53075319 Ry
     estimated scf accuracy    <       0.00008014 Ry

     iteration # 25     ecut=    40.00 Ry     beta=0.70
     Davidson diagonalization with overlap
     ethr =  3.27E-08,  avg # of iterations =  1.0

     negative rho (up, down):  0.314E+01 0.000E+00

     total cpu time spent up to now is     5738.2 secs

     total energy              =   -2137.53074402 Ry
     Harris-Foulkes estimate   =   -2137.53074902 Ry
     estimated scf accuracy    <       0.00002641 Ry

     iteration # 26     ecut=    40.00 Ry     beta=0.70
     Davidson diagonalization with overlap
     ethr =  1.08E-08,  avg # of iterations =  1.0

     negative rho (up, down):  0.314E+01 0.000E+00

     total cpu time spent up to now is     5922.5 secs

     total energy              =   -2137.53074505 Ry
     Harris-Foulkes estimate   =   -2137.53074793 Ry
     estimated scf accuracy    <       0.00001185 Ry

     iteration # 27     ecut=    40.00 Ry     beta=0.70
     Davidson diagonalization with overlap
     ethr =  4.83E-09,  avg # of iterations =  1.0

     negative rho (up, down):  0.314E+01 0.000E+00

     total cpu time spent up to now is     6107.3 secs

     total energy              =   -2137.53074397 Ry
     Harris-Foulkes estimate   =   -2137.53074953 Ry
     estimated scf accuracy    <       0.00003107 Ry

     iteration # 28     ecut=    40.00 Ry     beta=0.70
     Davidson diagonalization with overlap
     ethr =  4.83E-09,  avg # of iterations =  1.1

     negative rho (up, down):  0.314E+01 0.000E+00

     total cpu time spent up to now is     6293.9 secs

     total energy              =   -2137.53074553 Ry
     Harris-Foulkes estimate   =   -2137.53074778 Ry
     estimated scf accuracy    <       0.00000978 Ry

     iteration # 29     ecut=    40.00 Ry     beta=0.70
     Davidson diagonalization with overlap
     ethr =  3.99E-09,  avg # of iterations =  1.0

     negative rho (up, down):  0.314E+01 0.000E+00

     total cpu time spent up to now is     6479.1 secs

     total energy              =   -2137.53074383 Ry
     Harris-Foulkes estimate   =   -2137.53075015 Ry
     estimated scf accuracy    <       0.00006037 Ry

     iteration # 30     ecut=    40.00 Ry     beta=0.70
     Davidson diagonalization with overlap
     ethr =  3.99E-09,  avg # of iterations =  1.0

     negative rho (up, down):  0.314E+01 0.000E+00

     total cpu time spent up to now is     6664.5 secs

     total energy              =   -2137.53074683 Ry
     Harris-Foulkes estimate   =   -2137.53074709 Ry
     estimated scf accuracy    <       0.00000124 Ry

     iteration # 31     ecut=    40.00 Ry     beta=0.70
     Davidson diagonalization with overlap
     ethr =  5.05E-10,  avg # of iterations =  1.0

     negative rho (up, down):  0.314E+01 0.000E+00

     total cpu time spent up to now is     6849.7 secs

     total energy              =   -2137.53074687 Ry
     Harris-Foulkes estimate   =   -2137.53074710 Ry
     estimated scf accuracy    <       0.00000154 Ry

     iteration # 32     ecut=    40.00 Ry     beta=0.70
     Davidson diagonalization with overlap
     ethr =  5.05E-10,  avg # of iterations =  1.0

     negative rho (up, down):  0.314E+01 0.000E+00

     total cpu time spent up to now is     7035.0 secs

     End of self-consistent calculation
 --- enter write_ns ---
 LDA+U parameters:
U( 2)     =  5.00000000
alpha( 2) =  0.00000000
atom    3   Tr[ns(na)] =   8.17467
    eigenvalues: 
  0.607  0.633  0.897  0.970  0.981
    eigenvectors:
  0.005  0.178  0.003  0.001  0.813
  0.975  0.024  0.000  0.000  0.000
  0.000  0.000  0.991  0.006  0.003
  0.019  0.797  0.000  0.000  0.183
  0.000  0.000  0.006  0.993  0.001
    occupations:
  0.917 -0.003  0.004 -0.135 -0.001
 -0.003  0.608 -0.001 -0.003 -0.005
  0.004 -0.001  0.897 -0.004  0.006
 -0.135 -0.003 -0.004  0.696 -0.000
 -0.001 -0.005  0.006 -0.000  0.969
atom    4   Tr[ns(na)] =   8.17288
    eigenvalues: 
  0.618  0.668  0.885  0.931  0.985
    eigenvectors:
  0.000  0.989  0.000  0.000  0.010
  0.000  0.000  0.072  0.928  0.000
  0.000  0.000  0.928  0.071  0.000
  0.000  0.010  0.000  0.000  0.990
  1.000  0.000  0.000  0.000  0.000
    occupations:
  0.671 -0.003 -0.001  0.032  0.001
 -0.003  0.927  0.012  0.000 -0.001
 -0.001  0.012  0.888 -0.000  0.001
  0.032  0.000 -0.000  0.982  0.000
  0.001 -0.001  0.001  0.000  0.618
atom    9   Tr[ns(na)] =   8.15951
    eigenvalues: 
  0.653  0.670  0.865  0.908  0.984
    eigenvectors:
  0.000  0.139  0.001  0.000  0.860
  0.998  0.002  0.000  0.000  0.000
  0.000  0.000  0.990  0.009  0.000
  0.002  0.858  0.000  0.000  0.140
  0.000  0.000  0.009  0.991  0.000
    occupations:
  0.940 -0.001  0.001 -0.109 -0.001
 -0.001  0.654 -0.000  0.001 -0.000
  0.001 -0.000  0.865 -0.004 -0.004
 -0.109  0.001 -0.004  0.714  0.001
 -0.001 -0.000 -0.004  0.001  0.907
atom   10   Tr[ns(na)] =   8.13222
    eigenvalues: 
  0.578  0.610  0.944  0.950  0.985
    eigenvectors:
  0.991  0.000  0.000  0.000  0.009
  0.000  0.001  0.998  0.001  0.000
  0.000  0.000  0.001  0.998  0.000
  0.009  0.000  0.000  0.000  0.991
  0.000  0.999  0.001  0.000  0.000
    occupations:
  0.582  0.000  0.007  0.038 -0.000
  0.000  0.943 -0.000  0.000 -0.009
  0.007 -0.000  0.950 -0.000 -0.000
  0.038  0.000 -0.000  0.981 -0.000
 -0.000 -0.009 -0.000 -0.000  0.610
atom   16   Tr[ns(na)] =   8.17459
    eigenvalues: 
  0.607  0.633  0.897  0.970  0.981
    eigenvectors:
  0.005  0.179  0.003  0.001  0.813
  0.977  0.023  0.000  0.000  0.000
  0.000  0.000  0.993  0.003  0.003
  0.018  0.798  0.000  0.000  0.183
  0.000  0.000  0.003  0.995  0.001
    occupations:
  0.917  0.003  0.004 -0.135  0.001
  0.003  0.608 -0.000  0.003 -0.005
  0.004 -0.000  0.897 -0.004 -0.004
 -0.135  0.003 -0.004  0.696 -0.000
  0.001 -0.005 -0.004 -0.000  0.969
atom   17   Tr[ns(na)] =   8.17137
    eigenvalues: 
  0.618  0.668  0.885  0.929  0.985
    eigenvectors:
  0.000  0.989  0.000  0.000  0.010
  0.000  0.000  0.058  0.942  0.000
  0.000  0.000  0.942  0.058  0.000
  0.000  0.010  0.000  0.000  0.990
  1.000  0.000  0.000  0.000  0.000
    occupations:
  0.671 -0.003 -0.001  0.032  0.001
 -0.003  0.927  0.010  0.000 -0.001
 -0.001  0.010  0.887 -0.000  0.001
  0.032  0.000 -0.000  0.982  0.000
  0.001 -0.001  0.001  0.000  0.618
atom   22   Tr[ns(na)] =   8.15956
    eigenvalues: 
  0.653  0.670  0.865  0.908  0.984
    eigenvectors:
  0.000  0.140  0.001  0.000  0.860
  1.000  0.000  0.000  0.000  0.000
  0.000  0.000  0.991  0.008  0.000
  0.000  0.860  0.000  0.000  0.140
  0.000  0.000  0.008  0.992  0.000
    occupations:
  0.940  0.002  0.000 -0.109  0.000
  0.002  0.653  0.001 -0.001 -0.000
  0.000  0.001  0.865 -0.004  0.004
 -0.109 -0.001 -0.004  0.714  0.000
  0.000 -0.000  0.004  0.000  0.907
atom   23   Tr[ns(na)] =   8.17948
    eigenvalues: 
  0.619  0.660  0.871  0.956  0.984
    eigenvectors:
  0.000  0.992  0.000  0.003  0.005
  0.002  0.000  0.998  0.000  0.000
  0.000  0.003  0.000  0.995  0.002
  0.000  0.005  0.000  0.002  0.993
  0.998  0.000  0.002  0.000  0.000
    occupations:
  0.663 -0.000  0.016  0.023 -0.000
 -0.000  0.870 -0.001 -0.000 -0.010
  0.016 -0.001  0.955 -0.002  0.000
  0.023 -0.000 -0.002  0.982 -0.000
 -0.000 -0.010  0.000 -0.000  0.619
N of occupied +U levels =  65.3242894
 --- exit write_ns ---

          k = 0.0000 0.0000 0.0000 ( 31045 PWs)   bands (ev):

   -50.1866 -50.1015 -50.0948 -50.0376 -50.0302 -50.0013 -49.9401 -49.9288
   -49.9217 -49.8933 -49.8797 -49.8759 -49.7874 -49.7710 -49.7022 -49.7012
   -49.6907 -49.6587 -49.6420 -49.6272 -49.5945 -49.5798 -49.5619 -49.5090
   -23.2588 -21.1517 -20.9513 -20.7405 -20.5000 -20.1789 -19.9856 -19.9805
   -19.9525 -19.9029 -19.8197 -19.7771 -19.4350 -19.2182 -19.1941 -19.1442
   -19.1151 -18.4351 -18.2299 -17.3805 -10.6728 -10.5732  -9.8767  -9.2845
    -9.2023  -9.0996  -9.0914  -8.8861  -8.6966  -8.5128  -8.4758  -8.3697
    -8.3136  -8.2449  -8.1452  -8.0263  -7.9038  -7.6722  -7.6545  -7.5165
    -7.4839  -7.1976  -6.9306  -6.8597  -6.8430  -6.6828  -6.3364  -6.1657
    -5.9051  -5.8556  -5.8166  -5.7869  -5.5890  -5.5272  -5.5192  -5.2184
    -4.9855  -4.9452  -4.9251  -4.7515  -4.6487  -4.6291  -4.5172  -4.4286
    -4.3139  -4.2263  -4.1087  -4.0657  -3.9956  -3.9276  -3.7975  -3.7737
    -3.7350  -3.7030  -3.7003  -3.6097  -3.5888  -3.4724  -3.4169  -3.3535
    -3.3260  -3.2380  -3.1803  -3.1462  -3.0887  -2.9579  -2.7008  -2.5174
    -2.4858  -2.1728  -1.8580  -1.7496  -1.6214  -1.4977  -1.4630  -1.4343
    -0.9172  -0.9115  -0.6973  -0.4912  -0.2787   0.0083   0.1700   0.3138
     1.3171   1.8405   1.8652   2.0292   2.0738   2.2284   2.6530   2.8799
     2.8889   3.3274   3.4774   3.5551   3.7191   3.7622   3.9455   3.9694
     4.2895   4.2983   4.5182   4.8836   4.9940   5.7920   6.1323   6.5439
     6.7246   6.8477   7.2185   7.3346   7.5134   7.5266   7.6134   7.6469
     7.7690   7.9774   8.0384   8.0656   8.0954   8.3457   8.3631   8.4280
     8.4687   8.5311   8.5563   8.5991   8.6133   8.8076   8.9968   9.0134
     9.0259   9.1545   9.2511   9.3050   9.3735   9.4956   9.5211   9.8389
     9.8966   9.9138   9.9691   9.9763   9.9787   9.9796   9.9985  10.0446
    10.1090  10.1785  10.1819  10.2043  10.2144  10.3650  10.5037  10.5698
    10.6185  10.6362  10.7999  10.9003  11.0885  11.1402  11.1937  11.2288
    11.2775  11.3421  11.5190  11.5280  11.5898  11.6174  11.6229  11.7193
    11.7579  11.7813  11.8123  11.9138  11.9573  12.0160  12.1883  12.2104
    12.3039  12.3372  12.4511  12.4624  12.5598  12.5849  12.6106  12.6677
    12.8353  12.8812  12.9081  12.9920  13.0072  13.1194  13.2797  13.3524
    13.5893  13.7258  13.7750  13.7981  13.8766  13.9713  14.0272  14.1331
    14.2115  14.4252  14.4405  14.4553  14.6536  14.6688  14.8603  14.9178
    14.9433  15.1972  15.3329  15.4558  15.5121  15.6296  15.6579  15.7087
    15.7360  15.7782  15.8494  15.9066  16.0712  16.1906  16.2841  16.2956
    16.5720  16.5892  16.7555  16.7712  16.9714  17.0202  17.0467  17.1660
    17.2976  17.3207  17.3756  17.4456  17.5213  17.5753  17.5986  17.7301
    17.7869  17.8951  17.9162  18.1670  18.2596  18.2975  18.3595  18.4020
    18.4678  18.5015  18.5541  18.5886  18.7202  18.8400  18.8550  18.9155
    18.9696  19.0629  19.0925  19.0988  19.1633  19.2238  19.2614  19.2657
    19.3539  19.3688  19.4463  19.4912  19.5685  19.6158  19.6883  19.7155
    19.7379  19.8058  19.8101  19.9571  20.0416  20.0759  20.2173  20.2272
    20.4258  20.4447  20.5422  20.5648  20.5942  20.6243  20.6797  20.7027
    20.7726  20.8354  20.8582  21.0642  21.1527  21.2033  21.2542  21.2812
    21.3047  21.3380  21.4706  21.5804  21.6880  21.7469  21.7759  21.8113
    21.8912  21.9433  22.0244  22.0730  22.1672  22.1808  22.2016  22.2533
    22.2983  22.3149  22.3588  22.4081  22.4640  22.4946  22.5277

          k = 0.0000 0.2476 0.0000 ( 31078 PWs)   bands (ev):

   -50.1872 -50.1018 -50.0937 -50.0376 -50.0304 -50.0005 -49.9403 -49.9289
   -49.9218 -49.8931 -49.8798 -49.8759 -49.7852 -49.7696 -49.7054 -49.7009
   -49.6894 -49.6587 -49.6423 -49.6271 -49.5946 -49.5800 -49.5619 -49.5086
   -23.2591 -21.0438 -20.7966 -20.7214 -20.4991 -20.2172 -20.1908 -20.1826
   -19.9774 -19.7848 -19.6431 -19.5929 -19.4617 -19.3970 -19.3218 -19.1937
   -19.1454 -18.4326 -18.2328 -17.3768 -10.2460 -10.1278  -9.8167  -9.6809
    -9.3285  -9.2983  -9.1025  -8.9699  -8.9433  -8.4422  -8.3347  -8.2414
    -8.1773  -8.0562  -7.9000  -7.8831  -7.6882  -7.6686  -7.6064  -7.4369
    -7.0569  -6.9908  -6.9597  -6.9222  -6.8040  -6.6190  -6.4748  -6.1695
    -6.1071  -5.9333  -5.8904  -5.8512  -5.7072  -5.6128  -5.5270  -5.5142
    -5.4364  -5.3512  -5.3209  -5.2281  -5.1235  -5.0166  -4.6243  -4.4831
    -4.4319  -4.2770  -4.1913  -4.0956  -4.0292  -3.9766  -3.6931  -3.6412
    -3.5656  -3.5342  -3.4809  -3.3861  -3.3729  -3.3281  -3.2327  -3.2102
    -3.1090  -3.0129  -2.9852  -2.8614  -2.8287  -2.7905  -2.7466  -2.6945
    -2.6488  -2.5632  -2.3212  -2.1514  -1.7272  -1.5001  -1.4159  -1.1886
    -0.8819  -0.8173  -0.5633  -0.3887  -0.1691  -0.0673   0.0352   0.3508
     1.2526   1.2827   1.6302   1.8802   2.1828   2.6654   2.8670   3.3230
     3.4686   3.5764   3.7024   3.7174   3.7546   3.7796   3.8303   3.9331
     4.2991   4.3775   4.5547   5.0639   5.1729   5.7574   5.8941   6.1418
     6.3180   6.4579   6.8814   6.9704   7.0065   7.3677   7.4698   7.6681
     7.7083   7.7235   7.8946   8.0086   8.2274   8.3010   8.3150   8.4649
     8.5882   8.7378   8.7721   8.8555   9.0119   9.0932   9.1357   9.2728
     9.3372   9.3799   9.4330   9.4908   9.5895   9.6483   9.7078   9.8106
     9.8253   9.9098   9.9339   9.9696   9.9729   9.9771   9.9795   9.9877
    10.0252  10.0441  10.1415  10.1731  10.1822  10.1885  10.2961  10.4091
    10.4605  10.5083  10.5279  10.5789  10.7465  10.8127  10.9206  10.9538
    11.0019  11.1467  11.2428  11.3195  11.4158  11.4953  11.6155  11.6986
    11.7237  11.9967  12.0371  12.2056  12.3208  12.4548  12.4786  12.5039
    12.5133  12.6848  12.7068  12.8147  12.9183  13.0261  13.1201  13.1480
    13.1919  13.2834  13.5310  13.5825  13.6076  13.6537  13.7422  13.7583
    13.8168  13.8637  13.9861  14.0497  14.1735  14.2813  14.3233  14.3382
    14.3674  14.3960  14.5552  14.5790  14.6491  14.6974  14.8424  14.9152
    15.0223  15.0414  15.1906  15.2798  15.4876  15.4963  15.5340  15.7447
    15.7907  15.8052  15.8675  15.9720  16.0436  16.0860  16.1793  16.2954
    16.3386  16.3906  16.4750  16.5328  16.6790  16.7443  16.8270  16.8906
    16.9744  17.0044  17.1443  17.2126  17.2980  17.4167  17.4660  17.4773
    17.5275  17.5706  17.7055  17.7906  17.9258  17.9949  18.0583  18.1023
    18.1968  18.2236  18.3099  18.3696  18.4133  18.5762  18.6276  18.7234
    18.7622  18.8131  18.8925  18.9835  19.0408  19.0733  19.1152  19.1503
    19.2201  19.2353  19.3154  19.3811  19.4065  19.4965  19.5047  19.5393
    19.6169  19.6729  19.6908  19.7255  19.7608  19.8837  19.9451  19.9657
    20.0481  20.1489  20.1862  20.2157  20.2265  20.3174  20.3960  20.4914
    20.5329  20.5920  20.6339  20.7303  20.7855  20.8411  20.9148  20.9269
    21.0012  21.0289  21.0480  21.1149  21.1471  21.1716  21.2261  21.3056
    21.3370  21.4094  21.4863  21.5461  21.5813  21.6583  21.7314  21.7901
    21.8307  21.8705  21.9309  21.9994  22.0849  22.1602  22.1846

          k = 0.0000-0.4953 0.0000 ( 31160 PWs)   bands (ev):

   -50.1877 -50.1021 -50.0926 -50.0376 -50.0305 -49.9996 -49.9404 -49.9290
   -49.9219 -49.8929 -49.8800 -49.8759 -49.7828 -49.7682 -49.7093 -49.7000
   -49.6880 -49.6586 -49.6426 -49.6271 -49.5946 -49.5803 -49.5618 -49.5083
   -23.2594 -20.9243 -20.6923 -20.5437 -20.4992 -20.3296 -20.2941 -20.2487
   -19.9682 -19.7893 -19.6411 -19.6049 -19.5232 -19.4721 -19.4081 -19.1983
   -19.1469 -18.4302 -18.2364 -17.3730  -9.9699  -9.9446  -9.6531  -9.5282
    -9.4621  -9.3324  -9.1086  -9.0510  -8.8253  -8.1563  -8.1009  -8.0378
    -8.0012  -7.9195  -7.8898  -7.8386  -7.7650  -7.6808  -7.6198  -7.5686
    -7.0694  -7.0619  -7.0014  -6.9256  -6.8606  -6.7657  -6.6055  -6.2359
    -6.1945  -6.0451  -5.9866  -5.9698  -5.9216  -5.8865  -5.7988  -5.6924
    -5.5958  -5.4299  -5.1656  -5.1353  -5.0564  -4.9363  -4.7370  -4.7260
    -4.4878  -4.3573  -4.2779  -4.1745  -4.1390  -3.7166  -3.6816  -3.6139
    -3.5823  -3.5745  -3.4734  -3.4343  -3.4318  -3.3518  -3.3233  -3.1905
    -3.1102  -3.0593  -2.9527  -2.9503  -2.8361  -2.8040  -2.7250  -2.5957
    -2.5401  -2.2489  -2.2211  -2.0713  -1.6151  -1.4135  -1.3578  -1.1418
    -1.0999  -0.9104  -0.7494  -0.2757  -0.1162  -0.0486   0.0381   0.4424
     0.8570   0.8693   1.7966   1.8991   2.5851   2.7191   3.2260   3.3076
     3.4540   3.4746   3.7475   3.7642   3.8486   4.0853   4.2572   4.2630
     4.3105   4.5572   4.9749   5.0760   5.2392   5.4357   5.6088   5.8082
     5.9613   6.2647   6.4365   6.8423   6.9510   7.1804   7.2176   7.3383
     7.8117   7.8562   7.9926   8.0958   8.0963   8.2412   8.4702   8.6103
     8.7463   8.8566   8.9057   8.9261   9.0160   9.1204   9.1364   9.1732
     9.2223   9.2890   9.3091   9.3815   9.4921   9.5197   9.5379   9.6052
     9.7067   9.8149   9.9084   9.9665   9.9746   9.9776   9.9788   9.9992
    10.0399  10.0452  10.0551  10.1438  10.1737  10.1859  10.1881  10.2530
    10.3957  10.4196  10.6523  10.6782  10.7272  10.9473  11.1749  11.2736
    11.3133  11.3823  11.5801  11.6092  11.6691  11.7361  11.7380  11.8580
    11.8932  12.0699  12.3511  12.4232  12.4869  12.5239  12.5622  12.6539
    12.7878  12.9194  12.9539  13.0228  13.0693  13.0921  13.1117  13.2179
    13.2412  13.3835  13.4825  13.5178  13.5467  13.6243  13.6762  13.7706
    13.8732  13.9082  14.0815  14.2605  14.2735  14.3582  14.4101  14.4957
    14.6268  14.7407  14.7439  14.8883  14.9014  15.0076  15.1932  15.3338
    15.4413  15.5103  15.5583  15.5857  15.6714  15.6981  15.7614  15.7880
    15.9128  16.0346  16.0867  16.1013  16.1931  16.2079  16.2418  16.3079
    16.3627  16.3690  16.3875  16.4523  16.4705  16.5195  16.5618  16.7097
    16.7675  16.8289  16.8469  16.9091  16.9239  17.0378  17.1076  17.1568
    17.1834  17.2974  17.4653  17.4818  17.5889  17.6447  17.8035  17.8230
    17.8458  17.9224  17.9480  18.0296  18.0745  18.1552  18.2565  18.2872
    18.3278  18.3533  18.4087  18.4534  18.5544  18.5804  18.6136  18.7232
    18.8055  18.8871  18.9429  18.9993  19.0939  19.1655  19.1913  19.2872
    19.3756  19.4444  19.5184  19.6162  19.7144  19.7902  19.8979  19.9579
    19.9684  20.0155  20.0231  20.0332  20.0665  20.1047  20.1570  20.2593
    20.3445  20.4473  20.4578  20.4938  20.5323  20.5923  20.6354  20.6528
    20.7036  20.7267  20.7824  20.8226  20.8661  20.9516  20.9916  21.0494
    21.1097  21.1733  21.2370  21.2869  21.3746  21.4198  21.4663  21.5636
    21.5979  21.6663  21.7246  21.7972  21.8411  21.9336  21.9782

          k = 0.2500 0.0000 0.0000 ( 31106 PWs)   bands (ev):

   -50.1849 -50.1009 -50.0962 -50.0306 -50.0254 -49.9884 -49.9533 -49.9331
   -49.9233 -49.9118 -49.8837 -49.8799 -49.7863 -49.7740 -49.7022 -49.7012
   -49.6790 -49.6587 -49.6400 -49.6295 -49.6102 -49.5779 -49.5660 -49.5093
   -23.2588 -21.0074 -20.8029 -20.6351 -20.5037 -20.1751 -20.0768 -20.0627
   -20.0004 -19.8239 -19.7618 -19.7296 -19.3947 -19.3132 -19.2593 -19.2185
   -19.1662 -18.5112 -18.3272 -17.3812 -10.3785 -10.2927  -9.6444  -9.1526
    -9.0232  -9.0014  -8.9593  -8.7240  -8.6315  -8.6117  -8.5861  -8.5319
    -8.5023  -8.2709  -8.1274  -7.8956  -7.7823  -7.7037  -7.6189  -7.4910
    -7.4161  -7.1953  -6.9919  -6.9055  -6.7942  -6.6974  -6.6595  -6.2313
    -5.9592  -5.9252  -5.8139  -5.7898  -5.7776  -5.7365  -5.6606  -5.5870
    -5.3848  -5.2044  -5.0654  -5.0284  -4.9128  -4.8679  -4.7439  -4.6902
    -4.5319  -4.4656  -4.3857  -4.3328  -4.1884  -4.0997  -4.0583  -3.9336
    -3.9144  -3.6187  -3.4118  -3.3600  -3.3505  -3.2760  -3.2365  -3.2001
    -3.1228  -2.9863  -2.8943  -2.7832  -2.7093  -2.4944  -2.3871  -2.2184
    -2.1013  -2.0289  -1.7267  -1.6546  -1.6208  -1.5247  -1.2267  -1.1492
    -1.0773  -1.0042  -0.7004  -0.6598  -0.4323  -0.2155   0.1476   0.3126
     1.5057   1.9937   2.0419   2.2334   2.2668   2.3164   2.6150   2.7928
     2.8887   3.0403   3.4904   3.5506   3.6008   3.6856   3.7456   3.8537
     4.0326   4.4184   4.6005   5.1058   5.2407   5.6942   5.8591   6.2051
     6.3694   6.4684   6.8576   6.9528   7.2660   7.3544   7.5340   7.7240
     7.8412   7.9195   7.9585   8.0797   8.2101   8.2770   8.3818   8.6107
     8.6914   8.7035   8.7635   8.8647   8.9319   8.9659   9.0933   9.2283
     9.2792   9.3985   9.5090   9.5465   9.5891   9.6270   9.6991   9.8741
     9.9106   9.9163   9.9686   9.9751   9.9787   9.9798  10.0279  10.0462
    10.0944  10.1526  10.1807  10.1820  10.1934  10.2875  10.3077  10.3450
    10.4265  10.5128  10.5576  10.6296  10.6988  10.8330  10.9455  11.0569
    11.1545  11.2167  11.2856  11.3592  11.4019  11.4442  11.5144  11.6004
    11.7436  11.9249  12.0814  12.1213  12.2427  12.2853  12.3134  12.4674
    12.4882  12.5079  12.5969  12.6344  12.7757  12.8574  13.0361  13.0737
    13.1990  13.2979  13.4649  13.5549  13.6846  13.7351  13.7685  13.8174
    13.9023  13.9184  13.9774  14.0231  14.0869  14.1941  14.2310  14.2580
    14.4224  14.5383  14.5984  14.6601  14.6938  14.7420  14.7948  14.9377
    15.0411  15.1468  15.2360  15.3105  15.4621  15.5139  15.5574  15.6289
    15.7250  15.7536  15.8514  15.8980  15.9772  16.0178  16.0640  16.1432
    16.2495  16.2663  16.2957  16.3394  16.5017  16.5669  16.6310  16.7191
    16.8224  16.9010  17.0697  17.1491  17.2551  17.3498  17.4008  17.4845
    17.5873  17.6112  17.6672  17.7618  17.7776  17.8295  18.0141  18.1287
    18.2125  18.3035  18.3890  18.4532  18.5433  18.7042  18.7791  18.8175
    18.8721  18.9424  19.0725  19.1016  19.1114  19.1796  19.2347  19.2593
    19.2848  19.3084  19.3716  19.4157  19.4449  19.5154  19.5435  19.6277
    19.6754  19.7246  19.8136  19.8411  19.9295  19.9908  20.0369  20.0965
    20.1223  20.1651  20.2454  20.3360  20.3894  20.4543  20.4907  20.5700
    20.6047  20.6428  20.7004  20.7888  20.8191  20.8813  20.8922  20.9463
    20.9717  20.9998  21.0982  21.1189  21.1724  21.2146  21.2910  21.3437
    21.3974  21.4192  21.5143  21.5569  21.5997  21.6389  21.7245  21.7809
    21.8117  21.9520  21.9964  22.0212  22.0929  22.1433  22.1890

          k = 0.2500 0.2476 0.0000 ( 31099 PWs)   bands (ev):

   -50.1853 -50.1011 -50.0953 -50.0307 -50.0253 -49.9877 -49.9533 -49.9333
   -49.9233 -49.9115 -49.8836 -49.8800 -49.7839 -49.7723 -49.7051 -49.7015
   -49.6779 -49.6586 -49.6403 -49.6295 -49.6100 -49.5781 -49.5660 -49.5090
   -23.2591 -20.9137 -20.6532 -20.6045 -20.5028 -20.2087 -20.1549 -20.0780
   -20.0149 -19.8193 -19.7033 -19.6688 -19.5082 -19.4638 -19.3595 -19.2331
   -19.1689 -18.5103 -18.3292 -17.3775  -9.9637  -9.8639  -9.5762  -9.4359
    -9.0953  -9.0170  -8.9651  -8.8854  -8.7443  -8.4602  -8.4067  -8.3856
    -8.3541  -8.1672  -8.0211  -7.8624  -7.7637  -7.6891  -7.6079  -7.2536
    -7.1856  -7.0758  -6.9401  -6.8761  -6.7775  -6.7149  -6.5358  -6.4293
    -6.3486  -6.1146  -6.0499  -5.9699  -5.8777  -5.8538  -5.7253  -5.6682
    -5.6165  -5.5911  -5.4496  -5.2217  -5.1630  -5.0958  -5.0103  -4.8515
    -4.6460  -4.5044  -4.3646  -4.2437  -4.1350  -4.0952  -3.9883  -3.8929
    -3.7854  -3.6247  -3.4096  -3.3461  -3.1596  -3.0696  -3.0252  -2.9870
    -2.9317  -2.7552  -2.7108  -2.5618  -2.4948  -2.4722  -2.4012  -2.3372
    -2.1735  -2.1223  -2.0893  -1.9917  -1.7250  -1.3739  -1.1736  -1.1456
    -0.9827  -0.8860  -0.6630  -0.5423  -0.3762  -0.2901  -0.0852   0.4525
     1.4875   1.5105   1.7508   2.0652   2.2504   2.6695   2.7695   2.9900
     3.1946   3.3277   3.3893   3.5245   3.6459   3.8069   3.8396   4.0532
     4.2543   4.3972   4.7934   5.3001   5.4020   5.8148   6.0327   6.0894
     6.2607   6.4385   6.5799   6.6650   6.7705   7.0766   7.1816   7.3467
     7.5553   7.6852   7.8451   7.9136   7.9789   8.1756   8.2524   8.3447
     8.3611   8.4908   8.7652   8.8064   8.8734   9.0781   9.1038   9.1762
     9.2365   9.4373   9.5451   9.6037   9.6548   9.7512   9.8246   9.9080
     9.9570   9.9698   9.9766   9.9787   9.9806  10.0315  10.0458  10.1293
    10.1812  10.1826  10.2171  10.3104  10.3919  10.4296  10.5307  10.5678
    10.6773  10.7231  10.8246  10.9506  11.0152  11.0637  11.1620  11.2106
    11.2951  11.3839  11.4658  11.5746  11.6715  11.7302  11.8258  11.8971
    11.9286  12.0495  12.1331  12.2311  12.3418  12.4832  12.5158  12.5326
    12.6051  12.6926  12.7948  12.8870  12.9511  13.0145  13.0981  13.1801
    13.2214  13.2772  13.4159  13.5367  13.6242  13.6727  13.7300  13.8534
    13.9064  13.9484  14.0487  14.1179  14.1673  14.2769  14.3687  14.4172
    14.4530  14.5242  14.6446  14.7102  14.8539  14.8891  15.0659  15.1256
    15.2069  15.2455  15.3770  15.4143  15.5117  15.6255  15.6689  15.7193
    15.7338  15.8115  15.8326  15.9427  15.9899  16.0582  16.0777  16.1323
    16.2217  16.2614  16.3438  16.3942  16.5100  16.5309  16.5561  16.6426
    16.6978  16.7544  16.7929  16.8440  16.9529  16.9938  17.1618  17.2026
    17.2606  17.3285  17.4090  17.4815  17.5302  17.5882  17.6507  17.7067
    17.7383  17.8093  17.8552  17.8924  17.9449  18.0210  18.0526  18.1118
    18.2247  18.3323  18.3779  18.4844  18.5857  18.7269  18.7516  18.7712
    18.8425  18.8813  18.9807  19.0543  19.1048  19.1749  19.2061  19.3409
    19.4060  19.4401  19.5370  19.6500  19.6920  19.7801  19.8328  19.8651
    19.9508  20.0180  20.0864  20.1432  20.2699  20.3465  20.4696  20.5116
    20.5947  20.6630  20.7404  20.7997  20.8404  20.8702  20.9694  21.0082
    21.1140  21.1508  21.2015  21.2542  21.2902  21.3107  21.3484  21.4654
    21.4934  21.5541  21.6538  21.6819  21.7226  21.8012  21.8592  21.9137
    21.9443  22.0230  22.0915  22.1430  22.2042  22.2912  22.3924

          k = 0.2500-0.4953 0.0000 ( 31088 PWs)   bands (ev):

   -50.1857 -50.1012 -50.0945 -50.0308 -50.0253 -49.9870 -49.9534 -49.9334
   -49.9234 -49.9112 -49.8835 -49.8801 -49.7815 -49.7702 -49.7084 -49.7018
   -49.6768 -49.6585 -49.6405 -49.6295 -49.6099 -49.5783 -49.5659 -49.5086
   -23.2594 -20.8196 -20.5370 -20.5032 -20.4058 -20.2399 -20.2148 -20.1329
   -20.0241 -19.8263 -19.7401 -19.6821 -19.6430 -19.6281 -19.3744 -19.2320
   -19.1716 -18.5094 -18.3316 -17.3739  -9.6929  -9.6458  -9.2920  -9.2478
    -9.1961  -9.0897  -8.9717  -8.8280  -8.8086  -8.2262  -8.1661  -8.1175
    -8.0883  -8.0115  -7.9642  -7.8825  -7.7704  -7.6697  -7.5574  -7.4350
    -7.1784  -7.1335  -7.0685  -6.9221  -6.8490  -6.7240  -6.6623  -6.6356
    -6.5743  -6.4891  -6.3295  -6.2519  -6.1167  -6.0073  -5.8976  -5.7373
    -5.6844  -5.5326  -5.4241  -5.3607  -5.2792  -5.2299  -5.0755  -4.8680
    -4.7254  -4.5478  -4.4955  -4.1853  -4.1371  -3.9130  -3.8389  -3.7552
    -3.6633  -3.5485  -3.5236  -3.3403  -3.2343  -3.0714  -2.9499  -2.8951
    -2.8180  -2.7738  -2.6727  -2.6345  -2.5871  -2.5379  -2.4061  -2.3143
    -2.1529  -2.0523  -1.8874  -1.7780  -1.5539  -1.3119  -1.1890  -1.1336
    -1.0426  -1.0097  -0.7903  -0.4201  -0.3417  -0.2335  -0.1913   0.5545
     1.0739   1.0861   1.8578   2.0804   2.6225   2.6494   2.8054   2.9070
     2.9492   3.3366   3.6726   3.6887   3.8205   3.9582   3.9878   4.1760
     4.4274   4.8366   5.2301   5.3082   5.4719   5.6738   5.7237   6.0057
     6.2053   6.3627   6.4707   6.5727   6.9344   6.9608   7.1013   7.1515
     7.2699   7.3386   7.4420   7.5750   7.7300   7.9459   8.0219   8.2525
     8.3405   8.4194   8.5125   8.5989   8.7362   8.8049   8.9449   9.1692
     9.2363   9.2978   9.5122   9.6472   9.6990   9.8700   9.9085   9.9679
     9.9763   9.9783   9.9790  10.0236  10.0431  10.1383  10.1803  10.1827
    10.2414  10.2805  10.3013  10.4203  10.5538  10.5997  10.6593  10.7561
    10.7991  10.8344  11.0184  11.0745  11.1816  11.2935  11.5027  11.5895
    11.6269  11.7051  11.7311  11.9246  11.9657  12.0131  12.0646  12.1359
    12.2106  12.2941  12.4883  12.4994  12.5853  12.7299  12.7767  12.8108
    12.8589  12.9308  13.0656  13.0760  13.1139  13.1988  13.2455  13.3002
    13.3293  13.4206  13.5272  13.5919  13.6612  13.7736  13.8100  13.8821
    13.9633  14.0056  14.0649  14.2374  14.2805  14.3170  14.3595  14.4305
    14.5495  14.5896  14.6070  14.6728  14.7764  14.8189  14.8788  14.9023
    14.9607  15.0545  15.1140  15.2185  15.2723  15.3217  15.3894  15.4257
    15.5424  15.6571  15.7712  15.8609  15.8773  15.9198  15.9468  16.0738
    16.1700  16.2371  16.3212  16.3435  16.4096  16.4620  16.5128  16.5646
    16.5717  16.6308  16.6738  16.7368  16.7913  16.9114  16.9369  17.0476
    17.0958  17.1462  17.1950  17.2395  17.3718  17.3972  17.4286  17.5286
    17.5340  17.6861  17.8255  17.8680  17.9082  17.9527  17.9921  18.0714
    18.1323  18.1883  18.2228  18.2799  18.3248  18.4685  18.5345  18.6246
    18.6782  18.7289  18.7487  18.7796  18.8508  18.9137  18.9777  19.0442
    19.0903  19.1970  19.2882  19.3129  19.4118  19.4571  19.4925  19.6134
    19.6430  19.7271  19.7761  19.8457  19.8802  19.9062  20.0639  20.1003
    20.1796  20.3759  20.4041  20.4551  20.6374  20.6849  20.7960  20.8276
    20.8527  20.9476  20.9843  20.9952  21.1480  21.2141  21.2626  21.2786
    21.3369  21.4547  21.5424  21.6000  21.7627  21.8268  21.9149  21.9889
    22.0172  22.0731  22.1074  22.1808  22.2018  22.2891  22.3500

          k =-0.5000 0.0000 0.0000 ( 31104 PWs)   bands (ev):

   -50.1831 -50.0993 -50.0986 -50.0310 -49.9936 -49.9898 -49.9545 -49.9526
   -49.9330 -49.9241 -49.8914 -49.8803 -49.7838 -49.7782 -49.7022 -49.7012
   -49.6587 -49.6490 -49.6449 -49.6351 -49.6347 -49.5732 -49.5720 -49.5095
   -23.2589 -20.6995 -20.6665 -20.4758 -20.4505 -20.3960 -20.3880 -20.0909
   -19.8442 -19.8298 -19.5792 -19.5776 -19.5003 -19.4856 -19.3125 -19.2639
   -19.2458 -18.5632 -18.4572 -17.3817  -9.6251  -9.5899  -9.5293  -9.5277
    -9.1983  -9.1077  -8.9651  -8.7163  -8.6910  -8.6478  -8.5375  -8.4578
    -8.3747  -8.1651  -8.1124  -7.9239  -7.8821  -7.7902  -7.7011  -7.3548
    -7.2711  -6.8312  -6.7901  -6.7441  -6.7116  -6.6205  -6.5676  -6.4810
    -6.3953  -6.3416  -6.1947  -6.1750  -6.0746  -5.9283  -5.7318  -5.6817
    -5.4878  -5.4209  -5.3662  -5.3607  -5.2700  -5.2313  -4.8766  -4.8329
    -4.6555  -4.5579  -4.4850  -4.2408  -4.1744  -4.1462  -4.0642  -3.8709
    -3.8531  -3.7537  -3.3961  -3.1944  -3.1773  -3.1548  -3.0429  -3.0386
    -2.9492  -2.9252  -2.7420  -2.7352  -2.5356  -2.1630  -2.1306  -1.9164
    -1.8088  -1.7445  -1.5968  -1.5818  -1.4532  -1.4073  -1.1384  -1.1356
    -1.0736  -0.9642  -0.8369  -0.7033  -0.6373  -0.3025  -0.2516   0.4459
     1.8462   2.2189   2.2201   2.3516   2.5251   2.7534   2.7782   2.7880
     2.8091   2.8139   2.8524   2.8526   3.1050   3.7233   3.8010   3.9592
     4.4741   4.7791   4.8045   4.9428   5.2790   5.3117   5.7296   5.7927
     6.0548   6.2774   6.7242   6.9362   7.0271   7.1429   7.4775   7.5999
     7.6945   7.9532   8.3319   8.3487   8.4272   8.5010   8.5122   8.5489
     8.5942   8.6320   8.8615   8.9049   8.9208   8.9870   9.2471   9.3273
     9.3509   9.4055   9.4191   9.4776   9.5117   9.5856   9.6959   9.8364
     9.8750   9.8996   9.9152   9.9397   9.9714   9.9778   9.9792   9.9800
    10.0438  10.0482  10.1340  10.1794  10.1817  10.1861  10.1922  10.3432
    10.3831  10.4635  10.5173  10.5518  10.8222  10.9749  11.0209  11.0681
    11.2675  11.2944  11.3805  11.6039  11.6778  11.6979  11.8223  11.9152
    12.0947  12.1068  12.2556  12.2913  12.5130  12.5650  12.6198  12.6385
    12.6546  12.7422  12.8265  12.8654  12.9345  13.0104  13.1762  13.2877
    13.2983  13.3632  13.4106  13.4914  13.5861  13.6193  13.7149  13.8031
    13.8655  13.9013  14.0681  14.1777  14.2656  14.3475  14.3694  14.4499
    14.5234  14.6045  14.6255  14.6755  14.7826  14.8911  14.9909  15.0382
    15.0735  15.1580  15.2054  15.2568  15.4371  15.5809  15.5888  15.6661
    15.8211  15.9201  15.9546  16.0467  16.0656  16.2004  16.2635  16.2973
    16.3168  16.3695  16.3761  16.4657  16.5307  16.5640  16.6146  16.6579
    16.6683  16.6969  16.7282  16.7922  16.8086  16.9303  16.9871  17.0696
    17.1659  17.2913  17.3427  17.4025  17.5108  17.5290  17.6255  17.7154
    17.8643  17.9368  18.0132  18.1488  18.1651  18.2081  18.2722  18.4894
    18.5378  18.6309  18.6828  18.7045  18.7410  18.7707  18.9324  18.9741
    19.0664  19.0826  19.1119  19.1498  19.2342  19.3400  19.3824  19.4337
    19.6947  19.7110  19.7583  19.7935  19.8167  19.8206  19.8342  19.8541
    19.9583  20.0304  20.0633  20.1809  20.2128  20.2205  20.2834  20.3348
    20.3486  20.3899  20.4333  20.4548  20.5254  20.5740  20.6372  20.7142
    20.8060  20.9046  21.0202  21.0547  21.0903  21.1433  21.1900  21.2240
    21.2547  21.2919  21.3945  21.4044  21.5194  21.5454  21.5798  21.6164
    21.6443  21.6597  21.7587  21.8303  21.8795  21.9781  22.0994

          k =-0.5000 0.2476 0.0000 ( 31120 PWs)   bands (ev):

   -50.1833 -50.0992 -50.0981 -50.0311 -49.9936 -49.9898 -49.9539 -49.9523
   -49.9332 -49.9243 -49.8912 -49.8804 -49.7815 -49.7758 -49.7041 -49.7030
   -49.6585 -49.6484 -49.6443 -49.6353 -49.6348 -49.5733 -49.5721 -49.5093
   -23.2592 -20.6550 -20.6287 -20.3723 -20.3685 -20.3085 -20.3020 -20.0953
   -19.8606 -19.8559 -19.7003 -19.6914 -19.6451 -19.6404 -19.2962 -19.2624
   -19.2494 -18.5657 -18.4565 -17.3782  -9.2956  -9.2348  -9.1951  -9.1685
    -9.0648  -9.0338  -8.9190  -8.7362  -8.6945  -8.6345  -8.5352  -8.4571
    -8.4067  -8.2087  -8.1519  -8.0190  -7.9588  -7.6829  -7.5734  -7.2312
    -7.1943  -7.0894  -7.0680  -7.0278  -6.9923  -6.6783  -6.5888  -6.4576
    -6.3925  -6.3307  -6.2415  -6.1945  -6.0811  -5.9524  -5.8757  -5.7169
    -5.6258  -5.5750  -5.4589  -5.4351  -5.4022  -5.3510  -5.2989  -5.0604
    -4.8384  -4.6069  -4.5204  -4.4536  -4.4185  -4.1450  -4.0761  -3.9297
    -3.7716  -3.6956  -3.4691  -3.1862  -3.1048  -3.0478  -2.7554  -2.6833
    -2.5402  -2.5255  -2.4668  -2.4475  -2.3988  -2.3328  -2.2342  -2.0657
    -1.9720  -1.8758  -1.6208  -1.4227  -1.4188  -1.3611  -1.2317  -1.1131
    -0.9711  -0.8724  -0.8473  -0.7447  -0.6771  -0.4126  -0.3862   0.5557
     1.9109   2.0984   2.1249   2.1409   2.2268   2.3647   2.5266   2.6050
     2.7633   3.0861   3.1424   3.3753   3.4138   3.6908   3.9029   4.1280
     4.5725   5.0060   5.0169   5.1296   5.4944   5.5084   5.9060   5.9864
     6.2469   6.4587   6.6824   6.7391   6.7900   6.9203   7.0467   7.2528
     7.2671   7.3862   7.3971   7.4844   7.8138   7.9024   8.0783   8.3302
     8.3550   8.5414   8.5782   8.6785   8.8401   8.8868   9.0338   9.1215
     9.3724   9.5048   9.5761   9.7924   9.8956   9.9078   9.9681   9.9767
     9.9781   9.9790  10.0156  10.0420  10.0657  10.1044  10.1501  10.1812
    10.1829  10.2617  10.3314  10.3538  10.4770  10.4956  10.5940  10.7757
    10.8505  10.9402  11.0393  11.0609  11.1157  11.1487  11.3796  11.4609
    11.5006  11.5170  11.7571  11.8224  11.9537  11.9904  12.0315  12.1353
    12.3467  12.3694  12.4644  12.4786  12.5667  12.6083  12.6824  12.7732
    12.8580  12.8929  12.9709  13.0671  13.2002  13.2440  13.3419  13.4051
    13.4497  13.4656  13.5512  13.6589  13.7624  13.7939  13.8844  13.9102
    14.0610  14.0933  14.1951  14.2669  14.3403  14.3536  14.4310  14.4733
    14.5163  14.5476  14.6159  14.6962  14.7194  14.7329  14.7976  14.8215
    14.8880  14.9201  15.0149  15.0480  15.0967  15.1238  15.1849  15.2491
    15.3495  15.4927  15.5715  15.6087  15.6744  15.7319  15.8220  15.8523
    15.9488  16.1062  16.1872  16.2427  16.3353  16.3820  16.4092  16.4399
    16.6468  16.6559  16.6845  16.7316  16.7508  16.8079  16.9070  16.9568
    17.1244  17.1759  17.2652  17.2821  17.3868  17.4424  17.4751  17.5717
    17.6409  17.6850  17.8197  17.8962  17.9594  17.9979  18.1073  18.1335
    18.1485  18.2630  18.2983  18.3801  18.4373  18.5163  18.5776  18.6173
    18.6658  18.7260  18.7883  18.7990  18.8440  18.9540  19.0569  19.1724
    19.2909  19.3556  19.4033  19.4613  19.5839  19.6314  19.6949  19.7357
    19.7974  19.8167  19.9351  19.9653  20.0063  20.0627  20.1477  20.1740
    20.3290  20.3660  20.4623  20.5285  20.5808  20.7193  20.8120  20.8709
    20.9265  21.0264  21.0734  21.0908  21.1692  21.2591  21.2978  21.4507
    21.6032  21.6459  21.6992  21.7249  21.8591  21.8803  21.9584  22.0117
    22.0420  22.0785  22.2243  22.2810  22.2961  22.3375  22.3881

          k =-0.5000-0.4953 0.0000 ( 31140 PWs)   bands (ev):

   -50.1835 -50.0992 -50.0976 -50.0312 -49.9935 -49.9897 -49.9533 -49.9519
   -49.9333 -49.9244 -49.8910 -49.8805 -49.7792 -49.7733 -49.7061 -49.7050
   -49.6583 -49.6479 -49.6438 -49.6354 -49.6349 -49.5734 -49.5722 -49.5090
   -23.2595 -20.6153 -20.5990 -20.2191 -20.1754 -20.1743 -20.0759 -20.0328
   -19.9993 -19.9760 -19.9636 -19.9034 -19.7671 -19.7517 -19.2717 -19.2683
   -19.2627 -18.5683 -18.4559 -17.3747  -9.2533  -9.1709  -8.8953  -8.7696
    -8.7301  -8.6990  -8.6663  -8.6119  -8.5172  -8.3311  -8.2601  -8.1939
    -8.1338  -8.1263  -8.1029  -8.0746  -8.0513  -7.9061  -7.8916  -7.8673
    -7.7447  -7.5760  -7.4502  -6.8683  -6.7695  -6.6932  -6.6721  -6.5540
    -6.5050  -6.3418  -6.2939  -6.1997  -6.1171  -6.0075  -5.9774  -5.9495
    -5.9122  -5.8601  -5.8367  -5.6624  -5.5900  -5.5513  -5.3758  -4.9046
    -4.8085  -4.5945  -4.4693  -4.3609  -4.3387  -4.1895  -4.0124  -3.8772
    -3.8005  -3.6038  -3.2938  -3.1439  -2.9502  -2.9188  -2.8178  -2.7890
    -2.6390  -2.4705  -2.4226  -2.3694  -2.1928  -2.1788  -2.0784  -2.0655
    -1.9940  -1.9398  -1.5846  -1.3563  -1.3434  -1.2156  -1.1408  -1.1308
    -1.0445  -0.8430  -0.7856  -0.6468  -0.6236  -0.5746  -0.5405   0.6446
     1.7293   1.7309   1.7541   1.8125   2.0735   2.3912   2.6200   2.6514
     2.8158   3.2932   3.3230   3.5449   3.6408   3.9305   4.0089   4.0272
     4.7082   5.4700   5.4757   5.4939   5.9087   5.9123   5.9751   5.9984
     6.0863   6.1765   6.3484   6.3732   6.4582   6.6831   6.8036   6.9169
     6.9373   7.1883   7.2688   7.4462   7.5635   7.7978   7.8324   7.9946
     8.0143   8.0267   8.1734   8.3633   8.7448   8.9869   8.9933   9.1148
     9.2184   9.2905   9.4442   9.4753   9.8254   9.8551   9.9103   9.9684
     9.9761   9.9785   9.9792  10.0138  10.0429  10.1812  10.1822  10.3260
    10.3450  10.3757  10.6283  10.6394  10.8172  10.8846  10.9180  10.9920
    11.1395  11.2057  11.3683  11.3833  11.5877  11.6669  11.7774  11.9645
    12.0872  12.3947  12.4332  12.4933  12.5864  12.5882  12.6759  12.7154
    12.8122  12.8625  12.9035  12.9143  13.0455  13.1556  13.2120  13.2496
    13.2864  13.3557  13.3615  13.4173  13.4340  13.4387  13.4684  13.4853
    13.5112  13.5420  13.6154  13.6357  13.6831  13.7574  13.8039  13.8132
    13.8359  13.9138  13.9483  13.9740  13.9965  14.0359  14.0590  14.1737
    14.1923  14.2272  14.2575  14.2836  14.3984  14.5118  14.5277  14.5406
    14.5823  14.6292  14.7257  14.8119  14.8716  15.0673  15.1137  15.1267
    15.2023  15.2758  15.3218  15.3499  15.3980  15.4250  15.4343  15.5254
    15.5640  15.5899  15.8050  15.8282  15.9121  15.9493  15.9977  16.1185
    16.1638  16.2539  16.3421  16.4369  16.5673  16.6046  16.6629  16.6905
    16.7440  16.7850  16.9261  16.9814  17.0257  17.0687  17.1271  17.1637
    17.2345  17.3514  17.5316  17.5435  17.6571  17.7149  17.8281  17.9009
    18.0722  18.1679  18.3255  18.3473  18.4042  18.5781  18.5871  18.6669
    18.7101  18.8543  18.8737  18.9489  19.0180  19.1281  19.2459  19.2907
    19.3806  19.4051  19.4454  19.5403  19.6291  19.8956  19.9263  20.0073
    20.1335  20.2140  20.2431  20.3514  20.3953  20.4635  20.4770  20.5615
    20.7124  20.7419  20.7751  20.7935  20.8880  20.9168  20.9517  21.0239
    21.0371  21.1178  21.1277  21.1571  21.2147  21.2367  21.2606  21.3312
    21.4690  21.5199  21.5375  21.5797  21.6227  21.6479  21.7001  21.7375
    21.8315  21.8611  21.9106  21.9627  21.9945  22.0185  22.1188

          k =-0.2500 0.2476 0.0000 ( 31099 PWs)   bands (ev):

   -50.1853 -50.1011 -50.0953 -50.0307 -50.0253 -49.9877 -49.9534 -49.9333
   -49.9233 -49.9115 -49.8836 -49.8800 -49.7841 -49.7719 -49.7048 -49.7019
   -49.6779 -49.6586 -49.6403 -49.6295 -49.6100 -49.5781 -49.5660 -49.5090
   -23.2591 -20.9138 -20.6534 -20.6040 -20.5024 -20.2086 -20.1555 -20.0773
   -20.0155 -19.8240 -19.6983 -19.6690 -19.5087 -19.4620 -19.3618 -19.2327
   -19.1686 -18.5103 -18.3292 -17.3775  -9.9614  -9.8636  -9.5793  -9.4407
    -9.0699  -9.0342  -8.9669  -8.8909  -8.7290  -8.4660  -8.4197  -8.3858
    -8.3595  -8.1731  -8.0141  -7.8590  -7.7769  -7.6861  -7.6002  -7.2574
    -7.1813  -7.0105  -6.9548  -6.8612  -6.7887  -6.6901  -6.5849  -6.4764
    -6.3250  -6.1592  -6.0340  -5.9528  -5.8893  -5.8228  -5.6964  -5.6730
    -5.6085  -5.5881  -5.4633  -5.2205  -5.1749  -5.1037  -5.0204  -4.8080
    -4.7041  -4.5307  -4.3597  -4.2514  -4.1689  -4.1184  -3.9422  -3.8729
    -3.7345  -3.6408  -3.3830  -3.3374  -3.1423  -3.0710  -3.0407  -2.9581
    -2.9257  -2.7380  -2.7193  -2.5789  -2.5292  -2.4601  -2.4529  -2.3657
    -2.1899  -2.1504  -2.0800  -1.9442  -1.6681  -1.3900  -1.1729  -1.1430
    -0.9634  -0.9238  -0.6792  -0.5302  -0.3596  -0.2921  -0.0900   0.4523
     1.4862   1.5105   1.7508   2.0647   2.2532   2.6715   2.7682   2.9921
     3.1840   3.3329   3.3933   3.5298   3.6451   3.8032   3.8339   4.0543
     4.2507   4.3998   4.7931   5.3017   5.4015   5.8197   6.0531   6.1102
     6.2603   6.4307   6.5833   6.6680   6.7682   7.0596   7.1848   7.3146
     7.5237   7.6868   7.8456   7.9101   7.9723   8.1648   8.2685   8.3552
     8.3721   8.4914   8.7435   8.8044   8.8832   9.0813   9.1259   9.1749
     9.2187   9.4162   9.5552   9.6207   9.6563   9.7689   9.8407   9.9086
     9.9532   9.9701   9.9764   9.9786   9.9800  10.0295  10.0451  10.1322
    10.1807  10.1830  10.2228  10.3235  10.3779  10.4390  10.5214  10.5730
    10.6618  10.7151  10.8290  10.9488  10.9702  11.0471  11.1642  11.2130
    11.3137  11.3797  11.4633  11.5794  11.6986  11.7503  11.7966  11.9110
    11.9340  12.0716  12.1426  12.2291  12.3475  12.4853  12.5207  12.5468
    12.5946  12.6900  12.7976  12.9009  12.9408  13.0189  13.0970  13.1886
    13.2375  13.2967  13.3831  13.5202  13.6201  13.7077  13.7438  13.8566
    13.9167  13.9603  14.0567  14.1269  14.1693  14.2426  14.3278  14.4152
    14.4605  14.5383  14.6452  14.7369  14.8392  14.8906  15.0603  15.1015
    15.1459  15.2346  15.3864  15.4053  15.5296  15.6179  15.6673  15.6919
    15.7298  15.7907  15.8404  15.9332  15.9666  16.0352  16.0722  16.0870
    16.2197  16.2755  16.3498  16.3968  16.4839  16.5304  16.5554  16.6183
    16.7139  16.7554  16.7867  16.8479  16.9381  16.9819  17.1696  17.2396
    17.3029  17.3266  17.4045  17.4602  17.5208  17.5908  17.6391  17.6880
    17.7302  17.8329  17.8580  17.8870  17.9196  18.0156  18.0626  18.1477
    18.2340  18.3243  18.3873  18.5060  18.6067  18.6973  18.7683  18.7907
    18.8278  18.8760  19.0407  19.0494  19.1162  19.2092  19.2529  19.3684
    19.3877  19.4496  19.5556  19.6382  19.6883  19.7642  19.8162  19.8479
    19.9514  19.9987  20.1401  20.2230  20.2897  20.3593  20.4581  20.5282
    20.6027  20.6690  20.7430  20.7852  20.8045  20.8824  20.9191  21.0458
    21.1160  21.1408  21.1946  21.2542  21.2814  21.3221  21.3459  21.4258
    21.5111  21.5600  21.6638  21.6759  21.7326  21.8377  21.8516  21.9124
    21.9821  22.0075  22.0783  22.1354  22.2149  22.2976  22.3961

     the Fermi energy is    -0.7500 ev

!    total energy              =   -2137.53074638 Ry
     Harris-Foulkes estimate   =   -2137.53074706 Ry
     estimated scf accuracy    <       0.00000077 Ry

     The total energy is the sum of the following terms:

     one-electron contribution =  -23090.69666171 Ry
     hartree contribution      =   11596.98528394 Ry
     xc contribution           =    -584.15054100 Ry
     ewald contribution        =    9938.47202558 Ry
     Hubbard energy            =       1.85899055 Ry
     smearing contrib. (-TS)   =       0.00015625 Ry

     convergence has been achieved in  32 iterations

     Forces acting on atoms (Ry/au):


     negative rho (up, down):  0.314E+01 0.000E+00
     atom    1 type  1   force =    -0.00789001   -0.01300647    0.00610739
     atom    2 type  1   force =     0.00021360    0.00793721    0.00315859
     atom    3 type  2   force =     0.03270468    0.00524710   -0.00705701
     atom    4 type  2   force =     0.00863344    0.00740708   -0.00393634
     atom    5 type  1   force =    -0.00428805   -0.02088162    0.00119594
     atom    6 type  1   force =     0.00516269    0.02029486    0.00041663
     atom    7 type  1   force =    -0.00042273   -0.00395626    0.01807462
     atom    8 type  1   force =    -0.00299637    0.00053787    0.00342715
     atom    9 type  2   force =     0.00574489    0.00095917   -0.00806858
     atom   10 type  2   force =    -0.00015148   -0.00003635   -0.00519955
     atom   11 type  1   force =    -0.00296864    0.01989467   -0.00246856
     atom   12 type  1   force =     0.00352187   -0.01458024   -0.00200304
     atom   13 type  1   force =    -0.00084356   -0.00290507   -0.00005114
     atom   14 type  1   force =    -0.00769615   -0.01313523    0.00554427
     atom   15 type  1   force =     0.00017754    0.00782147    0.00251220
     atom   16 type  2   force =    -0.03239285    0.00520590   -0.00716034
     atom   17 type  2   force =     0.00866737    0.00792934   -0.00649022
     atom   18 type  1   force =    -0.00335482   -0.02156140    0.00125552
     atom   19 type  1   force =     0.00582447    0.01978175    0.00041895
     atom   20 type  1   force =    -0.00038833   -0.00715476    0.00701006
     atom   21 type  1   force =    -0.00320803    0.00131243    0.00383141
     atom   22 type  2   force =    -0.00344795    0.00035025   -0.00775379
     atom   23 type  2   force =    -0.00018399    0.00541435   -0.00810739
     atom   24 type  1   force =     0.00282741    0.01987414   -0.00249338
     atom   25 type  1   force =    -0.00295846   -0.01460853   -0.00201191
     atom   26 type  1   force =    -0.00088771   -0.01003983    0.00387271
     atom   27 type  3   force =    -0.00012099   -0.00352181    0.00201280
     atom   28 type  3   force =    -0.00010564   -0.00359395    0.00270363
     atom   29 type  3   force =     0.00038312    0.00034783    0.00041852
     atom   30 type  3   force =     0.00047542    0.00052734    0.00048995
     atom   31 type  1   force =    -0.00018259   -0.01396048    0.00813264
     atom   32 type  1   force =     0.00014378    0.01162010   -0.00839737
     atom   33 type  3   force =     0.00000807    0.00047915    0.00061565

     Total force =     0.037512     Total SCF correction =     0.002882


     entering subroutine stress ...


     negative rho (up, down):  0.314E+01 0.000E+00
          total   stress  (Ry/bohr**3)                   (kbar)     P=  -17.44
  -0.00013170   0.00000756   0.00000405        -19.37      1.11      0.60
   0.00000756  -0.00014842   0.00000737          1.11    -21.83      1.08
   0.00000405   0.00000737  -0.00007547          0.60      1.08    -11.10


     BFGS Geometry Optimization

     number of scf cycles    =   1
     number of bfgs steps    =   0

     energy   new            =   -2137.5307463750 Ry

     new trust radius        =       0.0180746243 bohr
     new conv_thr            =       0.0000010000 Ry


ATOMIC_POSITIONS (crystal)
O0       0.000000000   0.000000000   0.377932325    0   0   1
O0       0.000000000   0.500000000   0.402133263    0   0   1
Ir1      0.250000000   0.500000000   0.452558655    0   0   1
Ir1      0.000000000   0.000000000   0.452661159    0   0   1
O0       0.250000000   0.810000000   0.452623954    0   0   1
O0       0.250000000   0.190000000   0.452268345    0   0   1
O0       0.000000000   0.500000000   0.498552017    0   0   1
O0       0.000000000   0.000000000   0.528418642    0   0   1
Ir1      0.250000000   0.000000000   0.575188394    0   0   1
Ir1      0.000000000   0.500000000   0.571435858    0   0   1
O0       0.250000000   0.690000000   0.574230557    0   0   1
O0       0.250000000   0.310000000   0.576479881    0   0   1
O0       0.000000000   0.000000000   0.619958976    0   0   1
O0       0.500000000   0.000000000   0.377921046    0   0   1
O0       0.500000000   0.500000000   0.402160317    0   0   1
Ir1      0.750000000   0.500000000   0.452556585    0   0   1
Ir1      0.500000000   0.000000000   0.452560007    0   0   1
O0       0.750000000   0.810000000   0.452615147    0   0   1
O0       0.750000000   0.190000000   0.452288391    0   0   1
O0       0.500000000   0.500000000   0.499870405    0   0   1
O0       0.500000000   0.000000000   0.528346739    0   0   1
Ir1      0.750000000   0.000000000   0.575184699    0   0   1
Ir1      0.500000000   0.500000000   0.577537617    0   0   1
O0       0.750000000   0.690000000   0.574230060    0   0   1
O0       0.750000000   0.310000000   0.576479703    0   0   1
O0       0.500000000   0.000000000   0.619417567    0   0   1
H2       0.000029933   0.635689734   0.384170314
H2       0.499931210   0.636143789   0.384374151
H2       0.143241877   0.035698668   0.366328382
H2       0.643709557   0.033693463   0.366289813
O0       0.499774808   0.536959384   0.649962889
O0       0.500191963   0.345757724   0.679251809
H2       0.499980672   0.407609491   0.713582331


     Check: negative starting charge=   -3.336869
     NEW-OLD atomic charge density approx. for the potential

     Check: negative/imaginary core charge=   -0.000003    0.000000
     Check: negative starting charge=   -3.336768

     negative rho (up, down):  0.314E+01 0.000E+00
 Atomic wfc used for LDA+U Projector are NOT orthogonalized

     total cpu time spent up to now is     7983.8 secs

     per-process dynamical memory:   463.4 Mb

     Self-consistent Calculation

     iteration #  1     ecut=    40.00 Ry     beta=0.70
     Davidson diagonalization with overlap
     ethr =  1.00E-06,  avg # of iterations =  3.0
 --- enter write_ns ---
 LDA+U parameters:
U( 2)     =  5.00000000
alpha( 2) =  0.00000000
atom    3   Tr[ns(na)] =   8.18218
    eigenvalues: 
  0.606  0.632  0.899  0.972  0.982
    eigenvectors:
  0.005  0.179  0.003  0.001  0.812
  0.975  0.025  0.000  0.000  0.000
  0.000  0.000  0.990  0.006  0.003
  0.020  0.796  0.000  0.000  0.183
  0.000  0.000  0.006  0.993  0.001
    occupations:
  0.917 -0.004  0.004 -0.136 -0.001
 -0.004  0.607 -0.001 -0.003 -0.005
  0.004 -0.001  0.899 -0.004  0.006
 -0.136 -0.003 -0.004  0.696 -0.000
 -0.001 -0.005  0.006 -0.000  0.971
atom    4   Tr[ns(na)] =   8.18031
    eigenvalues: 
  0.618  0.668  0.887  0.932  0.985
    eigenvectors:
  0.000  0.989  0.000  0.000  0.010
  0.000  0.000  0.077  0.923  0.000
  0.000  0.000  0.923  0.077  0.000
  0.000  0.010  0.000  0.000  0.990
  1.000  0.000  0.000  0.000  0.000
    occupations:
  0.671 -0.003 -0.001  0.032  0.001
 -0.003  0.928  0.012  0.000 -0.001
 -0.001  0.012  0.891 -0.000  0.000
  0.032  0.000 -0.000  0.982  0.000
  0.001 -0.001  0.000  0.000  0.618
atom    9   Tr[ns(na)] =   8.15789
    eigenvalues: 
  0.654  0.670  0.865  0.907  0.984
    eigenvectors:
  0.000  0.140  0.001  0.000  0.859
  0.998  0.002  0.000  0.000  0.000
  0.000  0.000  0.991  0.008  0.000
  0.002  0.858  0.000  0.000  0.140
  0.000  0.000  0.008  0.992  0.000
    occupations:
  0.940 -0.001  0.001 -0.109 -0.001
 -0.001  0.654 -0.000  0.001 -0.000
  0.001 -0.000  0.865 -0.004 -0.004
 -0.109  0.001 -0.004  0.714  0.001
 -0.001 -0.000 -0.004  0.001  0.906
atom   10   Tr[ns(na)] =   8.12702
    eigenvalues: 
  0.577  0.610  0.943  0.949  0.985
    eigenvectors:
  0.991  0.000  0.000  0.000  0.009
  0.000  0.001  0.998  0.002  0.000
  0.000  0.000  0.002  0.998  0.000
  0.009  0.000  0.000  0.000  0.991
  0.000  0.999  0.001  0.000  0.000
    occupations:
  0.581  0.000  0.007  0.038 -0.000
  0.000  0.943 -0.000  0.000 -0.009
  0.007 -0.000  0.948 -0.000 -0.000
  0.038  0.000 -0.000  0.981 -0.000
 -0.000 -0.009 -0.000 -0.000  0.610
atom   16   Tr[ns(na)] =   8.18208
    eigenvalues: 
  0.606  0.632  0.899  0.972  0.982
    eigenvectors:
  0.005  0.179  0.003  0.001  0.812
  0.976  0.024  0.000  0.000  0.000
  0.000  0.000  0.993  0.004  0.003
  0.019  0.797  0.000  0.000  0.183
  0.000  0.000  0.003  0.995  0.001
    occupations:
  0.917  0.004  0.004 -0.136  0.001
  0.004  0.607 -0.000  0.003 -0.005
  0.004 -0.000  0.899 -0.004 -0.004
 -0.136  0.003 -0.004  0.696 -0.000
  0.001 -0.005 -0.004 -0.000  0.971
atom   17   Tr[ns(na)] =   8.17832
    eigenvalues: 
  0.618  0.668  0.887  0.931  0.985
    eigenvectors:
  0.000  0.989  0.000  0.000  0.010
  0.000  0.000  0.061  0.939  0.000
[...]
    19.9600  20.0253  20.0588  20.1839  20.2086  20.2140  20.2834  20.3375
    20.3488  20.3897  20.4345  20.4596  20.5288  20.5690  20.6409  20.7180
    20.8066  20.8991  21.0402  21.0588  21.0903  21.1456  21.1978  21.2275
    21.2635  21.2944  21.4065  21.4151  21.5312  21.5483  21.5844  21.6416
    21.6531  21.7075  21.7727  21.8452  21.9071  21.9863  22.1087

          k =-0.5000 0.2476 0.0000 ( 31120 PWs)   bands (ev):

   -50.1527 -50.0588 -50.0579 -50.0038 -49.9612 -49.9603 -49.9166 -49.9152
   -49.9045 -49.9020 -49.8726 -49.8654 -49.7505 -49.7496 -49.6657 -49.6648
   -49.6280 -49.6129 -49.6100 -49.5931 -49.5929 -49.5390 -49.5383 -49.4887
   -23.4825 -20.6699 -20.6459 -20.3589 -20.3476 -20.2778 -20.2729 -20.0656
   -19.8690 -19.8570 -19.6728 -19.6627 -19.6114 -19.6091 -19.3196 -19.2685
   -19.2626 -18.4997 -18.4092 -17.2969  -9.3030  -9.2241  -9.1691  -9.1447
    -9.0504  -9.0403  -8.9619  -8.7312  -8.7016  -8.6300  -8.5253  -8.4419
    -8.4144  -8.1991  -8.1414  -8.0282  -7.9629  -7.7068  -7.5801  -7.2270
    -7.1858  -7.0667  -7.0429  -7.0058  -6.9731  -6.6879  -6.6017  -6.4705
    -6.3861  -6.3085  -6.2124  -6.1591  -6.0781  -5.9518  -5.8705  -5.6929
    -5.6097  -5.5549  -5.4372  -5.4067  -5.3807  -5.3281  -5.2726  -5.0334
    -4.8328  -4.5875  -4.5085  -4.4396  -4.4030  -4.1313  -4.0604  -3.8985
    -3.7316  -3.6484  -3.4430  -3.1523  -3.0703  -3.0109  -2.7365  -2.6566
    -2.5119  -2.4809  -2.4345  -2.4141  -2.3700  -2.3071  -2.2116  -2.0486
    -1.9379  -1.8431  -1.5771  -1.3825  -1.3779  -1.3253  -1.1998  -1.0891
    -0.9361  -0.8360  -0.8039  -0.7101  -0.6396  -0.3690  -0.3429   0.6284
     1.9703   2.1352   2.1625   2.1807   2.2554   2.4199   2.5870   2.6700
     2.8362   3.1363   3.2430   3.4497   3.4566   3.8178   3.9515   4.1854
     4.6070   5.0030   5.0210   5.1251   5.4849   5.5048   5.9003   5.9786
     6.2542   6.4609   6.6752   6.7460   6.7951   6.9228   7.0421   7.2637
     7.2875   7.3872   7.3967   7.4874   7.8124   7.8963   8.0859   8.3358
     8.3610   8.5644   8.5967   8.6982   8.8634   8.9043   9.0436   9.1218
     9.3759   9.5137   9.5953   9.8196   9.9099   9.9406  10.0025  10.0085
    10.0196  10.0220  10.0337  10.0690  10.0931  10.1178  10.1693  10.2183
    10.2200  10.2724  10.3498  10.3727  10.4917  10.5112  10.6068  10.7870
    10.8657  10.9563  11.0473  11.0736  11.1447  11.1721  11.3854  11.4659
    11.5089  11.5279  11.7528  11.8432  11.9614  11.9980  12.0341  12.1471
    12.3555  12.3745  12.4732  12.4885  12.5797  12.6157  12.6951  12.7794
    12.8592  12.8954  12.9759  13.0705  13.2102  13.2477  13.3380  13.4070
    13.4489  13.4700  13.5588  13.6626  13.7718  13.8074  13.9138  13.9539
    14.0797  14.1038  14.2102  14.2866  14.3483  14.3670  14.4446  14.4926
    14.5224  14.5608  14.6245  14.7039  14.7284  14.7460  14.8205  14.8366
    14.9091  14.9456  15.0226  15.0564  15.1031  15.1454  15.1932  15.2574
    15.3473  15.4827  15.5799  15.6079  15.6689  15.7256  15.8279  15.8480
    15.9432  16.1080  16.1895  16.2381  16.3417  16.3811  16.4055  16.4345
    16.6407  16.6532  16.6837  16.7300  16.7501  16.8109  16.9013  16.9504
    17.1324  17.1722  17.2668  17.2840  17.3897  17.4441  17.4763  17.5707
    17.6337  17.6905  17.8200  17.8969  17.9614  18.0012  18.1010  18.1257
    18.1444  18.2637  18.3015  18.3944  18.4483  18.5171  18.5795  18.6174
    18.6691  18.7266  18.7830  18.7997  18.8471  18.9527  19.0510  19.1682
    19.2867  19.3532  19.4032  19.4521  19.5969  19.6381  19.6940  19.7393
    19.7927  19.8174  19.9334  19.9643  20.0113  20.0578  20.1480  20.1831
    20.3259  20.3675  20.4609  20.5351  20.5904  20.7415  20.8271  20.8655
    20.9215  21.0293  21.0769  21.0875  21.1712  21.2674  21.3041  21.4489
    21.6099  21.6419  21.7127  21.7346  21.8568  21.9120  21.9728  22.0232
    22.0524  22.0910  22.2266  22.2859  22.3202  22.3532  22.4074

          k =-0.5000-0.4953 0.0000 ( 31140 PWs)   bands (ev):

   -50.1529 -50.0588 -50.0573 -50.0039 -49.9611 -49.9603 -49.9160 -49.9149
   -49.9045 -49.9021 -49.8727 -49.8653 -49.7482 -49.7474 -49.6674 -49.6666
   -49.6278 -49.6124 -49.6095 -49.5932 -49.5930 -49.5391 -49.5384 -49.4884
   -23.4828 -20.6392 -20.6220 -20.2003 -20.1619 -20.1552 -20.0449 -19.9982
   -19.9679 -19.9426 -19.9323 -19.8666 -19.7718 -19.7465 -19.3020 -19.2746
   -19.2689 -18.5019 -18.4085 -17.2936  -9.2743  -9.1851  -8.9622  -8.7549
    -8.7330  -8.7041  -8.6351  -8.5949  -8.5280  -8.3220  -8.2540  -8.1661
    -8.1116  -8.0994  -8.0892  -8.0606  -8.0431  -7.8923  -7.8687  -7.8416
    -7.7314  -7.5952  -7.4593  -6.8704  -6.7753  -6.7047  -6.6682  -6.5524
    -6.5053  -6.3686  -6.2564  -6.1738  -6.1031  -5.9647  -5.9459  -5.9227
    -5.8819  -5.8343  -5.8206  -5.6602  -5.5758  -5.5368  -5.3992  -4.8803
    -4.7904  -4.5558  -4.4637  -4.3466  -4.3075  -4.1656  -4.0226  -3.8243
    -3.7695  -3.5372  -3.2621  -3.1135  -2.9271  -2.8959  -2.7960  -2.7666
    -2.6213  -2.4439  -2.4066  -2.3396  -2.1518  -2.1473  -2.0445  -2.0318
    -1.9587  -1.9088  -1.5339  -1.3131  -1.3059  -1.1887  -1.1106  -1.0960
    -1.0041  -0.8013  -0.7416  -0.6149  -0.5899  -0.5301  -0.5033   0.7141
     1.7667   1.7681   1.7890   1.8538   2.1202   2.4469   2.6924   2.7196
     2.9041   3.3658   3.3870   3.6713   3.6777   4.0218   4.0532   4.0938
     4.7108   5.4677   5.4763   5.4903   5.9002   5.9035   5.9726   5.9907
     6.0808   6.1663   6.3442   6.3709   6.4491   6.6745   6.8048   6.9140
     6.9333   7.2007   7.2818   7.4630   7.5640   7.8235   7.8625   7.9953
     8.0477   8.0589   8.1799   8.3681   8.7627   8.9929   8.9980   9.1160
     9.2305   9.3074   9.4658   9.4895   9.8590   9.8769   9.9430  10.0029
    10.0078  10.0167  10.0226  10.0251  10.0697  10.2187  10.2194  10.3409
    10.3667  10.3964  10.6422  10.6704  10.8438  10.9053  10.9445  11.0091
    11.1624  11.2278  11.3868  11.4069  11.5972  11.6854  11.7973  11.9755
    12.0884  12.4111  12.4364  12.5019  12.5889  12.6023  12.6802  12.7366
    12.8313  12.8646  12.9127  12.9232  13.0590  13.1774  13.2261  13.2587
    13.2859  13.3639  13.3702  13.4130  13.4316  13.4371  13.4652  13.4805
    13.5135  13.5462  13.6122  13.6313  13.6799  13.7577  13.8094  13.8110
    13.8296  13.9149  13.9511  13.9912  14.0069  14.0478  14.0896  14.1709
    14.2056  14.2290  14.2643  14.2911  14.4099  14.5126  14.5268  14.5397
    14.5861  14.6380  14.7385  14.8257  14.8854  15.0857  15.1164  15.1241
    15.1971  15.2736  15.3205  15.3542  15.3916  15.4240  15.4348  15.5271
    15.5700  15.5885  15.8115  15.8350  15.9234  15.9561  16.0083  16.1304
    16.1701  16.2606  16.3564  16.4512  16.5726  16.6160  16.6736  16.7027
    16.7515  16.7857  16.9221  16.9926  17.0365  17.0857  17.1397  17.1733
    17.2345  17.3434  17.5534  17.5569  17.6560  17.7101  17.8221  17.8925
    18.0694  18.1775  18.3129  18.3474  18.4105  18.5796  18.6044  18.6735
    18.7118  18.8684  18.8828  18.9380  19.0231  19.1344  19.2401  19.2821
    19.3717  19.3942  19.4462  19.5407  19.6151  19.8942  19.9179  19.9969
    20.1293  20.2198  20.2392  20.3495  20.3843  20.4715  20.4799  20.5701
    20.7232  20.7496  20.7728  20.7911  20.8889  20.9128  20.9517  21.0197
    21.0360  21.1122  21.1250  21.1523  21.2070  21.2336  21.2563  21.3247
    21.4641  21.5254  21.5361  21.5924  21.6113  21.6482  21.6982  21.7418
    21.8515  21.8799  21.9366  21.9653  22.0120  22.0342  22.1166

          k =-0.2500 0.2476 0.0000 ( 31099 PWs)   bands (ev):

   -50.1548 -50.0607 -50.0550 -50.0034 -49.9943 -49.9499 -49.9232 -49.9058
   -49.9009 -49.8734 -49.8723 -49.8575 -49.7545 -49.7443 -49.6666 -49.6635
   -49.6434 -49.6281 -49.5982 -49.5874 -49.5742 -49.5437 -49.5328 -49.4884
   -23.4824 -20.9132 -20.6251 -20.5927 -20.5352 -20.1802 -20.1218 -20.0822
   -19.9916 -19.8245 -19.6769 -19.6368 -19.4822 -19.4378 -19.3540 -19.2610
   -19.1751 -18.4493 -18.2800 -17.2962  -9.9464  -9.8360  -9.5947  -9.4347
    -9.0710  -9.0394  -8.9737  -8.9254  -8.7403  -8.4582  -8.4018  -8.3624
    -8.3297  -8.1549  -8.0166  -7.8651  -7.7862  -7.7107  -7.6100  -7.2550
    -7.1658  -7.0166  -6.9408  -6.8475  -6.7840  -6.6857  -6.5752  -6.4672
    -6.2991  -6.1275  -6.0213  -5.9312  -5.8727  -5.8050  -5.6792  -5.6450
    -5.5900  -5.5594  -5.4439  -5.2184  -5.1682  -5.1219  -5.0193  -4.7897
    -4.6838  -4.5051  -4.3346  -4.2358  -4.1491  -4.1003  -3.9115  -3.8500
    -3.6944  -3.5976  -3.3432  -3.3043  -3.1019  -3.0312  -3.0085  -2.9303
    -2.8983  -2.7174  -2.6930  -2.5547  -2.5076  -2.4339  -2.4244  -2.3383
    -2.1562  -2.1200  -2.0435  -1.9164  -1.6299  -1.3556  -1.1349  -1.1094
    -0.9164  -0.8865  -0.6461  -0.4969  -0.3185  -0.2454  -0.0440   0.5217
     1.5210   1.5485   1.8036   2.1355   2.3002   2.7213   2.8493   3.0664
     3.2231   3.3959   3.4395   3.6363   3.6927   3.8744   3.9043   4.0734
     4.2591   4.4817   4.7881   5.2949   5.4235   5.8130   6.0517   6.1073
     6.2627   6.4292   6.5894   6.6630   6.7663   7.0570   7.1812   7.3144
     7.5216   7.6913   7.8612   7.9190   7.9859   8.1912   8.2894   8.3639
     8.3770   8.4910   8.7497   8.8082   8.8941   9.0913   9.1294   9.1949
     9.2400   9.4271   9.5586   9.6276   9.6874   9.7817   9.8575   9.9411
     9.9714  10.0043  10.0075  10.0211  10.0231  10.0483  10.0714  10.1455
    10.2145  10.2200  10.2258  10.3315  10.3955  10.4722  10.5306  10.5795
    10.6715  10.7242  10.8382  10.9517  10.9847  11.0624  11.1792  11.2234
    11.3208  11.3886  11.4714  11.5832  11.7203  11.7630  11.8086  11.9134
    11.9321  12.0865  12.1389  12.2284  12.3554  12.4941  12.5340  12.5444
    12.6022  12.6948  12.8130  12.8982  12.9761  13.0251  13.0977  13.2007
    13.2501  13.3045  13.3930  13.5356  13.6355  13.7219  13.7653  13.8740
    13.9223  13.9757  14.0587  14.1507  14.1993  14.2627  14.3395  14.4349
    14.4656  14.5425  14.6512  14.7483  14.8354  14.8883  15.0852  15.1116
    15.1476  15.2385  15.3936  15.4132  15.5399  15.6171  15.6644  15.6927
    15.7308  15.7942  15.8430  15.9421  15.9703  16.0384  16.0780  16.0914
    16.2198  16.2786  16.3485  16.3996  16.4841  16.5342  16.5632  16.6285
    16.7132  16.7567  16.7869  16.8535  16.9481  16.9978  17.1769  17.2418
    17.3019  17.3341  17.4062  17.4546  17.5165  17.5960  17.6401  17.6964
    17.7309  17.8316  17.8561  17.8860  17.9238  18.0125  18.0636  18.1490
    18.2282  18.3196  18.3909  18.5120  18.6067  18.6954  18.7670  18.7862
    18.8233  18.8794  19.0373  19.0508  19.1201  19.2133  19.2628  19.3735
    19.3876  19.4565  19.5600  19.6378  19.6931  19.7641  19.8173  19.8551
    19.9523  20.0038  20.1398  20.2431  20.2993  20.3704  20.4519  20.5334
    20.6300  20.6772  20.7442  20.7955  20.8047  20.8821  20.9253  21.0443
    21.1190  21.1362  21.1946  21.2525  21.2824  21.3210  21.3524  21.4355
    21.5134  21.5708  21.6730  21.6877  21.7301  21.8520  21.8609  21.9251
    21.9866  22.0203  22.0771  22.1452  22.2209  22.3036  22.3990

     the Fermi energy is    -0.7105 ev

!    total energy              =   -2137.53200864 Ry
     Harris-Foulkes estimate   =   -2137.53200865 Ry
     estimated scf accuracy    <          5.8E-09 Ry

     The total energy is the sum of the following terms:

     one-electron contribution =  -23154.26662097 Ry
     hartree contribution      =   11628.99763994 Ry
     xc contribution           =    -584.22714962 Ry
     ewald contribution        =    9970.10696059 Ry
     Hubbard energy            =       1.85712098 Ry
     smearing contrib. (-TS)   =       0.00004044 Ry

     convergence has been achieved in  15 iterations

     Forces acting on atoms (Ry/au):


     negative rho (up, down):  0.314E+01 0.000E+00
     atom    1 type  1   force =    -0.00736668   -0.01266559   -0.00001882
     atom    2 type  1   force =     0.00012509    0.00371939   -0.00047293
     atom    3 type  2   force =     0.03092401    0.00551118    0.00007229
     atom    4 type  2   force =     0.00862709    0.00729482    0.00013538
     atom    5 type  1   force =    -0.00459205   -0.02040499   -0.00022796
     atom    6 type  1   force =     0.00541701    0.01981398   -0.00008205
     atom    7 type  1   force =    -0.00043032   -0.00409768   -0.00007149
     atom    8 type  1   force =    -0.00310825    0.00073059    0.00000083
     atom    9 type  2   force =     0.00661513    0.00078262    0.00007719
     atom   10 type  2   force =    -0.00012923    0.00023899   -0.00005377
     atom   11 type  1   force =    -0.00249007    0.02023178    0.00011705
     atom   12 type  1   force =     0.00392072   -0.01500613    0.00015518
     atom   13 type  1   force =    -0.00079422   -0.00282699   -0.00019811
     atom   14 type  1   force =    -0.00668782   -0.01275670    0.00015411
     atom   15 type  1   force =     0.00008383    0.00387686   -0.00017529
     atom   16 type  2   force =    -0.03063905    0.00538205    0.00005653
     atom   17 type  2   force =     0.00845134    0.00782303    0.00011072
     atom   18 type  1   force =    -0.00371020   -0.02105232   -0.00021995
     atom   19 type  1   force =     0.00602828    0.01928895   -0.00008222
     atom   20 type  1   force =    -0.00031445   -0.00706646    0.00039840
     atom   21 type  1   force =    -0.00319565    0.00143047   -0.00009390
     atom   22 type  2   force =    -0.00428508    0.00034939    0.00012697
     atom   23 type  2   force =    -0.00042594    0.00343367   -0.00017738
     atom   24 type  1   force =     0.00213380    0.02001378    0.00014124
     atom   25 type  1   force =    -0.00306702   -0.01513843    0.00019721
     atom   26 type  1   force =    -0.00095444   -0.00989053    0.00041570
     atom   27 type  3   force =     0.00001080    0.00035843    0.00021927
     atom   28 type  3   force =     0.00001900    0.00030569    0.00051839
     atom   29 type  3   force =    -0.00005884    0.00013115    0.00019342
     atom   30 type  3   force =    -0.00022869    0.00021050    0.00005775
     atom   31 type  1   force =    -0.00015779   -0.00039919    0.00004936
     atom   32 type  1   force =     0.00027472    0.00077828   -0.00068313
     atom   33 type  3   force =     0.00000495   -0.00040059   -0.00063998

     Total force =     0.001890     Total SCF correction =     0.000153


     entering subroutine stress ...


     negative rho (up, down):  0.314E+01 0.000E+00
          total   stress  (Ry/bohr**3)                   (kbar)     P=  -15.39
  -0.00012523   0.00000770   0.00000377        -18.42      1.13      0.56
   0.00000770  -0.00013913   0.00000458          1.13    -20.47      0.67
   0.00000377   0.00000458  -0.00004942          0.56      0.67     -7.27


     bfgs converged in   9 scf cycles and   8 bfgs steps
     (criteria: energy < 0.10E-03, force < 0.10E-02)

     End of BFGS Geometry Optimization

     Final energy   =   -2137.5320086429 Ry
Begin final coordinates

ATOMIC_POSITIONS (crystal)
O0       0.000000000   0.000000000   0.378213530    0   0   1
O0       0.000000000   0.500000000   0.402846472    0   0   1
Ir1      0.250000000   0.500000000   0.452978679    0   0   1
Ir1      0.000000000   0.000000000   0.452838150    0   0   1
O0       0.250000000   0.810000000   0.452872044    0   0   1
O0       0.250000000   0.190000000   0.452386585    0   0   1
O0       0.000000000   0.500000000   0.498965324    0   0   1
O0       0.000000000   0.000000000   0.528244574    0   0   1
Ir1      0.250000000   0.000000000   0.574851260    0   0   1
Ir1      0.000000000   0.500000000   0.571687167    0   0   1
O0       0.250000000   0.690000000   0.573759688    0   0   1
O0       0.250000000   0.310000000   0.575987840    0   0   1
O0       0.000000000   0.000000000   0.619508291    0   0   1
O0       0.500000000   0.000000000   0.378027992    0   0   1
O0       0.500000000   0.500000000   0.402665507    0   0   1
Ir1      0.750000000   0.500000000   0.452975441    0   0   1
Ir1      0.500000000   0.000000000   0.452622277    0   0   1
O0       0.750000000   0.810000000   0.452865764    0   0   1
O0       0.750000000   0.190000000   0.452403604    0   0   1
O0       0.500000000   0.500000000   0.499950722    0   0   1
O0       0.500000000   0.000000000   0.528146845    0   0   1
Ir1      0.750000000   0.000000000   0.574852251    0   0   1
Ir1      0.500000000   0.500000000   0.577131629    0   0   1
O0       0.750000000   0.690000000   0.573767040    0   0   1
O0       0.750000000   0.310000000   0.576001899    0   0   1
O0       0.500000000   0.000000000   0.619039624    0   0   1
H2      -0.000094930   0.634420560   0.384437761
H2       0.499826840   0.635669069   0.384744465
H2       0.143061992   0.036059614   0.366667800
H2       0.643628342   0.034341730   0.366550201
O0       0.499425048   0.536151446   0.649533084
O0       0.500573909   0.345739145   0.678902157
H2       0.499995993   0.407963874   0.713144333
End final coordinates



     init_run     :    115.12s CPU    117.13s WALL (       1 calls)
     electrons    :  31510.15s CPU  32212.55s WALL (       9 calls)
     update_pot   :    165.70s CPU    169.50s WALL (       8 calls)
     forces       :   1300.80s CPU   1329.04s WALL (       9 calls)
     stress       :   6437.25s CPU   6575.15s WALL (       9 calls)

     Called by init_run:
     wfcinit      :     38.22s CPU     39.59s WALL (       1 calls)
     potinit      :      7.47s CPU      7.63s WALL (       1 calls)

     Called by electrons:
     c_bands      :  16408.03s CPU  16776.40s WALL (     162 calls)
     sum_band     :   6326.55s CPU   6459.35s WALL (     162 calls)
     v_of_rho     :    177.36s CPU    186.30s WALL (     166 calls)
     newd         :   9010.09s CPU   9070.87s WALL (     166 calls)
     mix_rho      :     33.03s CPU     34.07s WALL (     162 calls)

     Called by c_bands:
     init_us_2    :     48.40s CPU     48.83s WALL (    1326 calls)
     cegterg      :  16178.33s CPU  16494.84s WALL (     486 calls)

     Called by *egterg:
     h_psi        :   9412.95s CPU   9564.85s WALL (    1323 calls)
     s_psi        :   1228.89s CPU   1243.54s WALL (    1620 calls)
     g_psi        :     19.91s CPU     19.96s WALL (     834 calls)
     cdiaghg      :   1389.17s CPU   1393.24s WALL (    1281 calls)

     Called by h_psi:
     add_vuspsi   :    967.64s CPU    980.84s WALL (    1323 calls)
     vhpsi        :    988.14s CPU    995.37s WALL (    1323 calls)

     General routines
     calbec       :   2827.34s CPU   2859.56s WALL (   12501 calls)
     fft          :    240.01s CPU    287.33s WALL (    2873 calls)
     ffts         :      3.01s CPU      3.05s WALL (     328 calls)
     fftw         :   5216.49s CPU   5382.57s WALL (  929220 calls)
     interpolate  :     27.64s CPU     27.89s WALL (     328 calls)
     davcio       :      0.11s CPU     22.82s WALL (    1569 calls)

     Parallel routines
     fft_scatter  :   1837.68s CPU   2039.44s WALL (  932421 calls)
     Hubbard U routines
     new_ns       :    211.30s CPU    221.39s WALL (     162 calls)
     vhpsi        :    988.14s CPU    995.37s WALL (    1323 calls)
     force_hub    :    354.75s CPU    362.96s WALL (       9 calls)
     stres_hub    :   3268.93s CPU   3330.37s WALL (       9 calls)

     PWSCF        :    11h 7m CPU       11h22m WALL


   This run was terminated on:  11: 8:58  30May2014            

=------------------------------------------------------------------------------=
   JOB DONE.
=------------------------------------------------------------------------------=
---------------------------------------
Running PBS batch system epilogue script
Job id: 373283.audhumbla.fysik.dtu.dk
Username: zhonxu
Groupname: campgst
Jobname: IrO2/Eads-2-layers/OOH-U-5.0
Sessionid: 3290
Resources limits: neednodes=2:ppn=8:xeon8,nodes=2:ppn=8:xeon8,walltime=48:00:00
Resources used: cput=181:53:44,mem=18259940kb,vmem=21858192kb,walltime=11:22:38
Queuename: verylong
Accounting:
This job has allocated the following 16 nodes:
a032 a032 a032 a032 a032 a032 a032 a032 a029 a029 a029 a029 a029 a029 a029 a029
Finished epilogue job 373283.audhumbla.fysik.dtu.dk for zhonxu
