
     Program PWSCF v.5.0.2 (svn rev. 9656) starts on 28Apr2014 at 20:27:12 

     This program is part of the open-source Quantum ESPRESSO suite
     for quantum simulation of materials; please cite
         "P. Giannozzi et al., J. Phys.:Condens. Matter 21 395502 (2009);
          URL http://www.quantum-espresso.org", 
     in publications or presentations arising from this work. More details at
     http://www.quantum-espresso.org/quote.php

     Parallel version (MPI), running on    16 processors
     K-points division:     npool     =       4
     R & G space division:  proc/nbgrp/npool/nimage =       4

     Current dimensions of program PWSCF are:
     Max number of different atomic species (ntypx) = 10
     Max number of k-points (npk) =  40000
     Max angular momentum in pseudopotentials (lmaxx) =  3
     Reading input from pwscf.in
Warning: card &CELL ignored
Warning: card / ignored

     Subspace diagonalization in iterative solution of the eigenvalue problem:
     a serial algorithm will be used


     Parallelization info
     --------------------
     sticks:   dense  smooth     PW     G-vecs:    dense   smooth      PW
     Min        1357     434    120               328723    59498    8862
     Max        1358     435    121               328730    59528    8871
     Sum        5431    1737    483              1314909   238057   35467



     bravais-lattice index     =            0
     lattice parameter (alat)  =      10.3179  a.u.
     unit-cell volume          =    6964.3238 (a.u.)^3
     number of atoms/cell      =           31
     number of atomic types    =            3
     number of electrons       =       230.00
     number of Kohn-Sham states=          345
     kinetic-energy cutoff     =      40.0000  Ry
     charge density cutoff     =     500.0000  Ry
     convergence threshold     =      1.0E-06
     mixing beta               =       0.7000
     number of iterations used =            8  plain     mixing
     Exchange-correlation      = SLA  PW   PBE  PBE ( 1 4 3 4 0)
     EXX-fraction              =        0.00
     nstep                     =           50


     celldm(1)=  10.317905  celldm(2)=   0.000000  celldm(3)=   0.000000
     celldm(4)=   0.000000  celldm(5)=   0.000000  celldm(6)=   0.000000

     crystal axes: (cart. coord. in units of alat)
               a(1) = (   1.000000   0.000000   0.000000 )  
               a(2) = (   0.000000   1.282117   0.000000 )  
               a(3) = (   0.000000   0.000000   4.945120 )  

     reciprocal axes: (cart. coord. in units 2 pi/alat)
               b(1) = (  1.000000  0.000000  0.000000 )  
               b(2) = (  0.000000  0.779960  0.000000 )  
               b(3) = (  0.000000  0.000000  0.202220 )  


     PseudoPot. # 1 for O  read from file:
     /home/camp/zhonxu/pseudo/o_pbe_v1.01.uspp.F.UPF
     MD5 check sum: 2bcb18d16ea4b960afae9ec6d52f22d2
     Pseudo is Ultrasoft + core correction, Zval =  6.0
     Generated by new atomic code, or converted to UPF format
     Using radial grid of  737 points,  5 beta functions with: 
                l(1) =   0
                l(2) =   0
                l(3) =   1
                l(4) =   1
                l(5) =   2
     Q(r) pseudized with  8 coefficients,  rinner =    0.900   0.900   0.900
                                                       0.900   0.900

     PseudoPot. # 2 for Mo read from file:
     /home/camp/zhonxu/pseudo/mo_pbe_v1.uspp.F.UPF
     MD5 check sum: 30c4dcd161f5d35cd49bb5239c51a633
     Pseudo is Ultrasoft + core correction, Zval = 14.0
     Generated by new atomic code, or converted to UPF format
     Using radial grid of  889 points,  6 beta functions with: 
                l(1) =   0
                l(2) =   0
                l(3) =   1
                l(4) =   1
                l(5) =   2
                l(6) =   2
     Q(r) pseudized with  6 coefficients,  rinner =    1.000   1.000   1.000
                                                       1.000   1.000

     PseudoPot. # 3 for H  read from file:
     /home/camp/zhonxu/pseudo/h_pbe_v1.uspp.F.UPF
     MD5 check sum: 3408e3ff4ec8b0a4e358431e7e038a48
     Pseudo is Ultrasoft, Zval =  1.0
     Generated by new atomic code, or converted to UPF format
     Using radial grid of  615 points,  2 beta functions with: 
                l(1) =   0
                l(2) =   0
     Q(r) pseudized with  8 coefficients,  rinner =    0.700

     atomic species   valence    mass     pseudopotential
        O0             6.00    15.99940     O ( 1.00)
        Mo1           14.00    95.94000     Mo( 1.00)
        H2             1.00     1.00794     H ( 1.00)


     Simplified LDA+U calculation (l_max = 2) with parameters (eV):
     atomic species    L          U    alpha       J0     beta
        Mo1            2     3.0000   0.0000   0.0000   0.0000



     No symmetry found



   Cartesian axes

     site n.     atom                  positions (alat units)
         1           O0  tau(   1) = (   0.0000000   0.0000000   1.8298429  )
         2           O0  tau(   2) = (   0.0000000   0.6410583   1.8994207  )
         3           Mo1 tau(   3) = (   0.2500000   0.6410583   2.1871278  )
         4           Mo1 tau(   4) = (   0.0000000   0.0000000   2.1851992  )
         5           O0  tau(   5) = (   0.2500000   1.0000510   2.1890070  )
         6           O0  tau(   6) = (   0.2500000   0.2820657   2.1893531  )
         7           O0  tau(   7) = (   0.0000000   0.6410583   2.4671700  )
         8           O0  tau(   8) = (   0.0000000   0.0000000   2.5523250  )
         9           Mo1 tau(   9) = (   0.2500000   0.0000000   2.8391419  )
        10           Mo1 tau(  10) = (   0.0000000   0.6410583   2.8013612  )
        11           O0  tau(  11) = (   0.2500000   0.9231240   2.8197571  )
        12           O0  tau(  12) = (   0.2500000   0.3589927   2.8195593  )
        13           O0  tau(  13) = (   0.0000000   0.0000000   3.0891672  )
        14           O0  tau(  14) = (   0.5000000   0.0000000   1.8327111  )
        15           O0  tau(  15) = (   0.5000000   0.6410583   1.8997669  )
        16           Mo1 tau(  16) = (   0.7500000   0.6410583   2.1871773  )
        17           Mo1 tau(  17) = (   0.5000000   0.0000000   2.1922708  )
        18           O0  tau(  18) = (   0.7500000   1.0000510   2.1898476  )
        19           O0  tau(  19) = (   0.7500000   0.2820657   2.1889575  )
        20           O0  tau(  20) = (   0.5000000   0.6410583   2.4516918  )
        21           O0  tau(  21) = (   0.5000000   0.0000000   2.5499019  )
        22           Mo1 tau(  22) = (   0.7500000   0.0000000   2.8391419  )
        23           Mo1 tau(  23) = (   0.5000000   0.6410583   2.8716808  )
        24           O0  tau(  24) = (   0.7500000   0.9231240   2.8197571  )
        25           O0  tau(  25) = (   0.7500000   0.3589927   2.8196582  )
        26           O0  tau(  26) = (   0.5000000   0.0000000   3.0881782  )
        27           H2  tau(  27) = (  -0.0006600   0.7686802   1.7727267  )
        28           H2  tau(  28) = (   0.4996400   0.7964252   1.8076887  )
        29           H2  tau(  29) = (   0.1674000   0.0210652   1.7585342  )
        30           H2  tau(  30) = (   0.6637700   0.0258988   1.7570507  )
        31           O0  tau(  31) = (   0.5000200   0.6407506   3.1806520  )

     number of k points=    10  Methfessel-Paxton smearing, width (Ry)=  0.0100
                       cart. coord. in units 2pi/alat
        k(    1) = (   0.0000000   0.0000000   0.0000000), wk =   0.1250000
        k(    2) = (   0.0000000   0.1949901   0.0000000), wk =   0.2500000
        k(    3) = (   0.0000000  -0.3899801   0.0000000), wk =   0.1250000
        k(    4) = (   0.2500000   0.0000000   0.0000000), wk =   0.2500000
        k(    5) = (   0.2500000   0.1949901   0.0000000), wk =   0.2500000
        k(    6) = (   0.2500000  -0.3899801   0.0000000), wk =   0.2500000
        k(    7) = (  -0.5000000   0.0000000   0.0000000), wk =   0.1250000
        k(    8) = (  -0.5000000   0.1949901   0.0000000), wk =   0.2500000
        k(    9) = (  -0.5000000  -0.3899801   0.0000000), wk =   0.1250000
        k(   10) = (  -0.2500000   0.1949901   0.0000000), wk =   0.2500000

     Dense  grid:  1314909 G-vectors     FFT dimensions: (  75,  96, 375)

     Smooth grid:   238057 G-vectors     FFT dimensions: (  45,  54, 216)

     Largest allocated arrays     est. size (Mb)     dimensions
        Kohn-Sham Wavefunctions        39.45 Mb     (   7494,  345)
        Atomic wavefunctions           21.04 Mb     (   7494,  184)
        NL pseudopotentials            45.63 Mb     (   7494,  399)
        Each V/rho on FFT grid         10.33 Mb     ( 676800)
        Each G-vector array             2.51 Mb     ( 328726)
        G-vector shells                 1.08 Mb     ( 142042)
     Largest temporary arrays     est. size (Mb)     dimensions
        Auxiliary wavefunctions       157.80 Mb     (   7494, 1380)
        Each subspace H/S matrix       29.06 Mb     (1380,1380)
        Each <psi_i|beta_j> matrix      2.10 Mb     (    399,  345)
        Arrays for rho mixing          82.62 Mb     ( 676800,   8)

     Check: negative/imaginary core charge=   -0.000003    0.000000

     Initial potential from superposition of free atoms
     Check: negative starting charge=   -0.002499

     starting charge  229.99143, renormalised to  230.00000

     negative rho (up, down):  0.250E-02 0.000E+00
     Number of +U iterations with fixed ns =  0
     Starting occupations:
 --- enter write_ns ---
 LDA+U parameters:
U( 2)     =  3.00000000
alpha( 2) =  0.00000000
atom    3   Tr[ns(na)] =   5.00000
    eigenvalues: 
  0.500  0.500  0.500  0.500  0.500
    eigenvectors:
  1.000  0.000  0.000  0.000  0.000
  0.000  1.000  0.000  0.000  0.000
  0.000  0.000  1.000  0.000  0.000
  0.000  0.000  0.000  1.000  0.000
  0.000  0.000  0.000  0.000  1.000
    occupations:
  0.500  0.000  0.000  0.000  0.000
  0.000  0.500  0.000  0.000  0.000
  0.000  0.000  0.500  0.000  0.000
  0.000  0.000  0.000  0.500  0.000
  0.000  0.000  0.000  0.000  0.500
atom    4   Tr[ns(na)] =   5.00000
    eigenvalues: 
  0.500  0.500  0.500  0.500  0.500
    eigenvectors:
  1.000  0.000  0.000  0.000  0.000
  0.000  1.000  0.000  0.000  0.000
  0.000  0.000  1.000  0.000  0.000
  0.000  0.000  0.000  1.000  0.000
  0.000  0.000  0.000  0.000  1.000
    occupations:
  0.500  0.000  0.000  0.000  0.000
  0.000  0.500  0.000  0.000  0.000
  0.000  0.000  0.500  0.000  0.000
  0.000  0.000  0.000  0.500  0.000
  0.000  0.000  0.000  0.000  0.500
atom    9   Tr[ns(na)] =   5.00000
    eigenvalues: 
  0.500  0.500  0.500  0.500  0.500
    eigenvectors:
  1.000  0.000  0.000  0.000  0.000
  0.000  1.000  0.000  0.000  0.000
  0.000  0.000  1.000  0.000  0.000
  0.000  0.000  0.000  1.000  0.000
  0.000  0.000  0.000  0.000  1.000
    occupations:
  0.500  0.000  0.000  0.000  0.000
  0.000  0.500  0.000  0.000  0.000
  0.000  0.000  0.500  0.000  0.000
  0.000  0.000  0.000  0.500  0.000
  0.000  0.000  0.000  0.000  0.500
atom   10   Tr[ns(na)] =   5.00000
    eigenvalues: 
  0.500  0.500  0.500  0.500  0.500
    eigenvectors:
  1.000  0.000  0.000  0.000  0.000
  0.000  1.000  0.000  0.000  0.000
  0.000  0.000  1.000  0.000  0.000
  0.000  0.000  0.000  1.000  0.000
  0.000  0.000  0.000  0.000  1.000
    occupations:
  0.500  0.000  0.000  0.000  0.000
  0.000  0.500  0.000  0.000  0.000
  0.000  0.000  0.500  0.000  0.000
  0.000  0.000  0.000  0.500  0.000
  0.000  0.000  0.000  0.000  0.500
atom   16   Tr[ns(na)] =   5.00000
    eigenvalues: 
  0.500  0.500  0.500  0.500  0.500
    eigenvectors:
  1.000  0.000  0.000  0.000  0.000
  0.000  1.000  0.000  0.000  0.000
  0.000  0.000  1.000  0.000  0.000
  0.000  0.000  0.000  1.000  0.000
  0.000  0.000  0.000  0.000  1.000
    occupations:
  0.500  0.000  0.000  0.000  0.000
  0.000  0.500  0.000  0.000  0.000
  0.000  0.000  0.500  0.000  0.000
  0.000  0.000  0.000  0.500  0.000
  0.000  0.000  0.000  0.000  0.500
atom   17   Tr[ns(na)] =   5.00000
    eigenvalues: 
  0.500  0.500  0.500  0.500  0.500
    eigenvectors:
  1.000  0.000  0.000  0.000  0.000
  0.000  1.000  0.000  0.000  0.000
  0.000  0.000  1.000  0.000  0.000
  0.000  0.000  0.000  1.000  0.000
  0.000  0.000  0.000  0.000  1.000
    occupations:
  0.500  0.000  0.000  0.000  0.000
  0.000  0.500  0.000  0.000  0.000
  0.000  0.000  0.500  0.000  0.000
  0.000  0.000  0.000  0.500  0.000
  0.000  0.000  0.000  0.000  0.500
atom   22   Tr[ns(na)] =   5.00000
    eigenvalues: 
  0.500  0.500  0.500  0.500  0.500
    eigenvectors:
  1.000  0.000  0.000  0.000  0.000
  0.000  1.000  0.000  0.000  0.000
  0.000  0.000  1.000  0.000  0.000
  0.000  0.000  0.000  1.000  0.000
  0.000  0.000  0.000  0.000  1.000
    occupations:
  0.500  0.000  0.000  0.000  0.000
  0.000  0.500  0.000  0.000  0.000
  0.000  0.000  0.500  0.000  0.000
  0.000  0.000  0.000  0.500  0.000
  0.000  0.000  0.000  0.000  0.500
atom   23   Tr[ns(na)] =   5.00000
    eigenvalues: 
  0.500  0.500  0.500  0.500  0.500
    eigenvectors:
  1.000  0.000  0.000  0.000  0.000
  0.000  1.000  0.000  0.000  0.000
  0.000  0.000  1.000  0.000  0.000
  0.000  0.000  0.000  1.000  0.000
  0.000  0.000  0.000  0.000  1.000
    occupations:
  0.500  0.000  0.000  0.000  0.000
  0.000  0.500  0.000  0.000  0.000
  0.000  0.000  0.500  0.000  0.000
  0.000  0.000  0.000  0.500  0.000
  0.000  0.000  0.000  0.000  0.500
N of occupied +U levels =  40.0000000
 --- exit write_ns ---
 Atomic wfc used for LDA+U Projector are NOT orthogonalized
     Starting wfc are  184 randomized atomic wfcs

     total cpu time spent up to now is       97.0 secs

     per-process dynamical memory:   383.4 Mb

     Self-consistent Calculation

     iteration #  1     ecut=    40.00 Ry     beta=0.70
     Davidson diagonalization with overlap
     ethr =  1.00E-02,  avg # of iterations =  6.0
 --- enter write_ns ---
 LDA+U parameters:
U( 2)     =  3.00000000
alpha( 2) =  0.00000000
atom    3   Tr[ns(na)] =   4.92556
    eigenvalues: 
  0.332  0.444  0.485  0.558  0.643
    eigenvectors:
  0.005  0.027  0.456  0.002  0.510
  0.000  0.954  0.045  0.001  0.000
  0.967  0.000  0.001  0.029  0.003
  0.001  0.018  0.499  0.003  0.480
  0.027  0.001  0.000  0.965  0.006
    occupations:
  0.564 -0.009  0.017 -0.079 -0.008
 -0.009  0.446 -0.002 -0.003 -0.003
  0.017 -0.002  0.340 -0.010  0.036
 -0.079 -0.003 -0.010  0.560  0.006
 -0.008 -0.003  0.036  0.006  0.553
atom    4   Tr[ns(na)] =   4.95281
    eigenvalues: 
  0.312  0.435  0.486  0.559  0.684
    eigenvectors:
  0.000  0.000  0.970  0.000  0.030
  0.000  0.000  0.000  0.999  0.000
  1.000  0.000  0.000  0.000  0.000
  0.000  0.000  0.030  0.000  0.970
  0.000  1.000  0.000  0.000  0.000
    occupations:
  0.492  0.001  0.001 -0.034  0.000
  0.001  0.559  0.004 -0.000 -0.001
  0.001  0.004  0.313 -0.000  0.001
 -0.034 -0.000 -0.000  0.678 -0.000
  0.000 -0.001  0.001 -0.000  0.435
atom    9   Tr[ns(na)] =   4.84882
    eigenvalues: 
  0.359  0.454  0.494  0.498  0.620
    eigenvectors:
  0.000  0.000  0.041  0.304  0.655
  0.000  0.000  0.880  0.120  0.000
  0.980  0.020  0.000  0.000  0.000
  0.000  0.000  0.079  0.576  0.345
  0.020  0.980  0.000  0.000  0.000
    occupations:
  0.577 -0.001  0.000 -0.058 -0.001
 -0.001  0.495 -0.000 -0.001 -0.000
  0.000 -0.000  0.361 -0.000  0.014
 -0.058 -0.001 -0.000  0.540  0.001
 -0.001 -0.000  0.014  0.001  0.452
atom   10   Tr[ns(na)] =   4.56352
    eigenvalues: 
  0.308  0.403  0.433  0.453  0.685
    eigenvectors:
  0.000  0.994  0.000  0.000  0.006
  0.000  0.000  0.000  1.000  0.000
  1.000  0.000  0.000  0.000  0.000
  0.000  0.006  0.000  0.000  0.994
  0.000  0.000  1.000  0.000  0.000
    occupations:
  0.405  0.000 -0.000 -0.022  0.000
  0.000  0.453 -0.000 -0.000 -0.000
 -0.000 -0.000  0.308  0.001 -0.000
 -0.022 -0.000  0.001  0.683  0.000
  0.000 -0.000 -0.000  0.000  0.433
atom   16   Tr[ns(na)] =   4.92417
    eigenvalues: 
  0.331  0.444  0.485  0.559  0.643
    eigenvectors:
  0.005  0.027  0.455  0.002  0.511
  0.000  0.954  0.045  0.001  0.000
  0.967  0.000  0.001  0.029  0.003
  0.001  0.018  0.499  0.003  0.479
  0.028  0.001  0.000  0.965  0.007
    occupations:
  0.564  0.009  0.017 -0.079  0.008
  0.009  0.446  0.002  0.003 -0.003
  0.017  0.002  0.339 -0.010 -0.037
 -0.079  0.003 -0.010  0.560 -0.006
  0.008 -0.003 -0.037 -0.006  0.553
atom   17   Tr[ns(na)] =   5.05460
    eigenvalues: 
  0.325  0.438  0.490  0.572  0.703
    eigenvectors:
  0.000  0.000  0.968  0.000  0.032
  0.000  0.000  0.000  0.999  0.000
  1.000  0.000  0.000  0.000  0.000
  0.000  0.000  0.032  0.000  0.968
  0.000  1.000  0.000  0.000  0.000
    occupations:
  0.497  0.001  0.001 -0.037  0.000
  0.001  0.572  0.004 -0.000  0.000
  0.001  0.004  0.325  0.001  0.000
 -0.037 -0.000  0.001  0.696  0.000
  0.000  0.000  0.000  0.000  0.438
atom   22   Tr[ns(na)] =   4.84777
    eigenvalues: 
  0.359  0.454  0.494  0.498  0.619
    eigenvectors:
  0.000  0.000  0.051  0.295  0.654
  0.000  0.000  0.851  0.149  0.000
  0.980  0.020  0.000  0.000  0.000
  0.000  0.000  0.099  0.555  0.346
  0.020  0.979  0.000  0.000  0.000
    occupations:
  0.577  0.000  0.000 -0.058 -0.001
  0.000  0.495 -0.000  0.001  0.000
  0.000 -0.000  0.361 -0.000 -0.014
 -0.058  0.001 -0.000  0.539  0.000
 -0.001  0.000 -0.014  0.000  0.452
atom   23   Tr[ns(na)] =   4.75975
    eigenvalues: 
  0.372  0.417  0.420  0.518  0.653
    eigenvectors:
  0.000  0.000  0.000  0.915  0.085
  0.000  0.003  0.997  0.000  0.000
  1.000  0.000  0.000  0.000  0.000
  0.000  0.000  0.000  0.085  0.915
  0.000  0.997  0.003  0.000  0.000
    occupations:
  0.529 -0.000  0.000 -0.038  0.000
 -0.000  0.420 -0.000  0.000  0.000
  0.000 -0.000  0.372 -0.000 -0.000
 -0.038  0.000 -0.000  0.642 -0.000
  0.000  0.000 -0.000 -0.000  0.417
N of occupied +U levels =  38.8770014
 --- exit write_ns ---

     negative rho (up, down):  0.345E-02 0.000E+00

     total cpu time spent up to now is      421.6 secs

     total energy              =   -1725.54522802 Ry
     Harris-Foulkes estimate   =   -1732.28697114 Ry
     estimated scf accuracy    <       8.84033478 Ry

     iteration #  2     ecut=    40.00 Ry     beta=0.70
     Davidson diagonalization with overlap
     ethr =  3.84E-03,  avg # of iterations =  2.0

     negative rho (up, down):  0.109E-01 0.000E+00

     total cpu time spent up to now is      593.7 secs

     total energy              =   -1715.21878996 Ry
     Harris-Foulkes estimate   =   -1740.91612609 Ry
     estimated scf accuracy    <     106.74298116 Ry

     iteration #  3     ecut=    40.00 Ry     beta=0.70
     Davidson diagonalization with overlap
     ethr =  3.84E-03,  avg # of iterations =  4.4

     negative rho (up, down):  0.437E-02 0.000E+00

     total cpu time spent up to now is      793.0 secs

     total energy              =   -1725.96747200 Ry
     Harris-Foulkes estimate   =   -1733.57023803 Ry
     estimated scf accuracy    <      43.47476108 Ry

     iteration #  4     ecut=    40.00 Ry     beta=0.70
     Davidson diagonalization with overlap
     ethr =  3.84E-03,  avg # of iterations =  3.6

     negative rho (up, down):  0.522E-02 0.000E+00

     total cpu time spent up to now is      977.1 secs

     total energy              =   -1728.60018638 Ry
     Harris-Foulkes estimate   =   -1732.50042881 Ry
     estimated scf accuracy    <      41.43101081 Ry

     iteration #  5     ecut=    40.00 Ry     beta=0.70
     Davidson diagonalization with overlap
     ethr =  3.84E-03,  avg # of iterations =  3.2

     negative rho (up, down):  0.421E-02 0.000E+00

     total cpu time spent up to now is     1151.0 secs

     total energy              =   -1729.89014283 Ry
     Harris-Foulkes estimate   =   -1730.97419514 Ry
     estimated scf accuracy    <       8.81441908 Ry

     iteration #  6     ecut=    40.00 Ry     beta=0.70
     Davidson diagonalization with overlap
     ethr =  3.83E-03,  avg # of iterations =  1.0

     negative rho (up, down):  0.320E-02 0.000E+00

     total cpu time spent up to now is     1311.1 secs

     total energy              =   -1730.33129154 Ry
     Harris-Foulkes estimate   =   -1730.65572002 Ry
     estimated scf accuracy    <       1.71741704 Ry

     iteration #  7     ecut=    40.00 Ry     beta=0.70
     Davidson diagonalization with overlap
     ethr =  7.47E-04,  avg # of iterations =  1.4

     negative rho (up, down):  0.291E-02 0.000E+00

     total cpu time spent up to now is     1473.1 secs

     total energy              =   -1730.38891274 Ry
     Harris-Foulkes estimate   =   -1730.50682530 Ry
     estimated scf accuracy    <       0.73342665 Ry

     iteration #  8     ecut=    40.00 Ry     beta=0.70
     Davidson diagonalization with overlap
     ethr =  3.19E-04,  avg # of iterations =  1.9

     negative rho (up, down):  0.266E-02 0.000E+00

     total cpu time spent up to now is     1635.7 secs

     total energy              =   -1730.41657178 Ry
     Harris-Foulkes estimate   =   -1730.47621783 Ry
     estimated scf accuracy    <       0.43050354 Ry

     iteration #  9     ecut=    40.00 Ry     beta=0.70
     Davidson diagonalization with overlap
     ethr =  1.87E-04,  avg # of iterations =  1.3

     negative rho (up, down):  0.260E-02 0.000E+00

     total cpu time spent up to now is     1797.9 secs

     total energy              =   -1730.42147141 Ry
     Harris-Foulkes estimate   =   -1730.44592454 Ry
     estimated scf accuracy    <       0.11647352 Ry

     iteration # 10     ecut=    40.00 Ry     beta=0.70
     Davidson diagonalization with overlap
     ethr =  5.06E-05,  avg # of iterations =  6.5

     negative rho (up, down):  0.312E-02 0.000E+00

     total cpu time spent up to now is     1991.1 secs

     total energy              =   -1730.42115426 Ry
     Harris-Foulkes estimate   =   -1730.44372391 Ry
     estimated scf accuracy    <       0.13206741 Ry

     iteration # 11     ecut=    40.00 Ry     beta=0.70
     Davidson diagonalization with overlap
     ethr =  5.06E-05,  avg # of iterations =  1.4

     negative rho (up, down):  0.337E-02 0.000E+00

     total cpu time spent up to now is     2159.5 secs

     total energy              =   -1730.43026409 Ry
     Harris-Foulkes estimate   =   -1730.43745962 Ry
     estimated scf accuracy    <       0.03079727 Ry

     iteration # 12     ecut=    40.00 Ry     beta=0.70
     Davidson diagonalization with overlap
     ethr =  1.34E-05,  avg # of iterations =  5.1

     negative rho (up, down):  0.331E-02 0.000E+00

     total cpu time spent up to now is     2336.3 secs

     total energy              =   -1730.43279195 Ry
     Harris-Foulkes estimate   =   -1730.43539003 Ry
     estimated scf accuracy    <       0.01005195 Ry

     iteration # 13     ecut=    40.00 Ry     beta=0.70
     Davidson diagonalization with overlap
     ethr =  4.37E-06,  avg # of iterations =  2.7

     negative rho (up, down):  0.337E-02 0.000E+00

     total cpu time spent up to now is     2501.2 secs

     total energy              =   -1730.43374510 Ry
     Harris-Foulkes estimate   =   -1730.43456259 Ry
     estimated scf accuracy    <       0.00463875 Ry

     iteration # 14     ecut=    40.00 Ry     beta=0.70
     Davidson diagonalization with overlap
     ethr =  2.02E-06,  avg # of iterations =  2.2

     negative rho (up, down):  0.346E-02 0.000E+00

     total cpu time spent up to now is     2673.8 secs

     total energy              =   -1730.43388409 Ry
     Harris-Foulkes estimate   =   -1730.43456883 Ry
     estimated scf accuracy    <       0.00410432 Ry

     iteration # 15     ecut=    40.00 Ry     beta=0.70
     Davidson diagonalization with overlap
     ethr =  1.78E-06,  avg # of iterations =  1.0

     negative rho (up, down):  0.350E-02 0.000E+00

     total cpu time spent up to now is     2850.3 secs

     total energy              =   -1730.43405216 Ry
     Harris-Foulkes estimate   =   -1730.43440393 Ry
     estimated scf accuracy    <       0.00155341 Ry

     iteration # 16     ecut=    40.00 Ry     beta=0.70
     Davidson diagonalization with overlap
     ethr =  6.75E-07,  avg # of iterations =  1.7

     negative rho (up, down):  0.352E-02 0.000E+00

     total cpu time spent up to now is     3030.7 secs

     total energy              =   -1730.43406581 Ry
     Harris-Foulkes estimate   =   -1730.43448052 Ry
     estimated scf accuracy    <       0.00367271 Ry

     iteration # 17     ecut=    40.00 Ry     beta=0.70
     Davidson diagonalization with overlap
     ethr =  6.75E-07,  avg # of iterations =  1.0

     negative rho (up, down):  0.354E-02 0.000E+00

     total cpu time spent up to now is     3206.0 secs

     total energy              =   -1730.43411489 Ry
     Harris-Foulkes estimate   =   -1730.43442957 Ry
     estimated scf accuracy    <       0.00209997 Ry

     iteration # 18     ecut=    40.00 Ry     beta=0.70
     Davidson diagonalization with overlap
     ethr =  6.75E-07,  avg # of iterations =  1.4

     negative rho (up, down):  0.355E-02 0.000E+00

     total cpu time spent up to now is     3383.1 secs

     total energy              =   -1730.43416820 Ry
     Harris-Foulkes estimate   =   -1730.43439718 Ry
     estimated scf accuracy    <       0.00181693 Ry

     iteration # 19     ecut=    40.00 Ry     beta=0.70
     Davidson diagonalization with overlap
     ethr =  6.75E-07,  avg # of iterations =  1.0

     negative rho (up, down):  0.354E-02 0.000E+00

     total cpu time spent up to now is     3550.5 secs

     total energy              =   -1730.43427214 Ry
     Harris-Foulkes estimate   =   -1730.43429406 Ry
     estimated scf accuracy    <       0.00010571 Ry

     iteration # 20     ecut=    40.00 Ry     beta=0.70
     Davidson diagonalization with overlap
     ethr =  4.60E-08,  avg # of iterations =  1.1

     negative rho (up, down):  0.354E-02 0.000E+00

     total cpu time spent up to now is     3710.6 secs

     total energy              =   -1730.43426221 Ry
     Harris-Foulkes estimate   =   -1730.43431325 Ry
     estimated scf accuracy    <       0.00028566 Ry

     iteration # 21     ecut=    40.00 Ry     beta=0.70
     Davidson diagonalization with overlap
     ethr =  4.60E-08,  avg # of iterations =  1.0

     negative rho (up, down):  0.354E-02 0.000E+00

     total cpu time spent up to now is     3869.9 secs

     total energy              =   -1730.43428201 Ry
     Harris-Foulkes estimate   =   -1730.43429563 Ry
     estimated scf accuracy    <       0.00008499 Ry

     iteration # 22     ecut=    40.00 Ry     beta=0.70
     Davidson diagonalization with overlap
     ethr =  3.70E-08,  avg # of iterations =  1.0

     negative rho (up, down):  0.353E-02 0.000E+00

     total cpu time spent up to now is     4029.6 secs

     total energy              =   -1730.43428616 Ry
     Harris-Foulkes estimate   =   -1730.43429115 Ry
     estimated scf accuracy    <       0.00001535 Ry

     iteration # 23     ecut=    40.00 Ry     beta=0.70
     Davidson diagonalization with overlap
     ethr =  6.67E-09,  avg # of iterations =  2.0

     negative rho (up, down):  0.353E-02 0.000E+00

     total cpu time spent up to now is     4192.2 secs

     total energy              =   -1730.43428689 Ry
     Harris-Foulkes estimate   =   -1730.43429131 Ry
     estimated scf accuracy    <       0.00001989 Ry

     iteration # 24     ecut=    40.00 Ry     beta=0.70
     Davidson diagonalization with overlap
     ethr =  6.67E-09,  avg # of iterations =  1.0

     negative rho (up, down):  0.353E-02 0.000E+00

     total cpu time spent up to now is     4351.6 secs

     total energy              =   -1730.43428895 Ry
     Harris-Foulkes estimate   =   -1730.43428973 Ry
     estimated scf accuracy    <       0.00000792 Ry

     iteration # 25     ecut=    40.00 Ry     beta=0.70
     Davidson diagonalization with overlap
     ethr =  3.44E-09,  avg # of iterations =  1.0

     negative rho (up, down):  0.353E-02 0.000E+00

     total cpu time spent up to now is     4518.0 secs

     total energy              =   -1730.43428883 Ry
     Harris-Foulkes estimate   =   -1730.43428951 Ry
     estimated scf accuracy    <       0.00000272 Ry

     iteration # 26     ecut=    40.00 Ry     beta=0.70
     Davidson diagonalization with overlap
     ethr =  1.18E-09,  avg # of iterations =  1.0

     negative rho (up, down):  0.353E-02 0.000E+00

     total cpu time spent up to now is     4694.3 secs

     total energy              =   -1730.43428769 Ry
     Harris-Foulkes estimate   =   -1730.43429086 Ry
     estimated scf accuracy    <       0.00002602 Ry

     iteration # 27     ecut=    40.00 Ry     beta=0.70
     Davidson diagonalization with overlap
     ethr =  1.18E-09,  avg # of iterations =  1.1

     negative rho (up, down):  0.353E-02 0.000E+00

     total cpu time spent up to now is     4860.3 secs

     total energy              =   -1730.43428888 Ry
     Harris-Foulkes estimate   =   -1730.43428990 Ry
     estimated scf accuracy    <       0.00000728 Ry

     iteration # 28     ecut=    40.00 Ry     beta=0.70
     Davidson diagonalization with overlap
     ethr =  1.18E-09,  avg # of iterations =  1.0

     negative rho (up, down):  0.353E-02 0.000E+00

     total cpu time spent up to now is     5025.0 secs

     total energy              =   -1730.43428927 Ry
     Harris-Foulkes estimate   =   -1730.43428945 Ry
     estimated scf accuracy    <       0.00000117 Ry

     iteration # 29     ecut=    40.00 Ry     beta=0.70
     Davidson diagonalization with overlap
     ethr =  5.07E-10,  avg # of iterations =  1.0

     negative rho (up, down):  0.353E-02 0.000E+00

     total cpu time spent up to now is     5202.1 secs

     total energy              =   -1730.43428923 Ry
     Harris-Foulkes estimate   =   -1730.43428957 Ry
     estimated scf accuracy    <       0.00000219 Ry

     iteration # 30     ecut=    40.00 Ry     beta=0.70
     Davidson diagonalization with overlap
     ethr =  5.07E-10,  avg # of iterations =  1.0

     negative rho (up, down):  0.353E-02 0.000E+00

     total cpu time spent up to now is     5378.0 secs

     End of self-consistent calculation
 --- enter write_ns ---
 LDA+U parameters:
U( 2)     =  3.00000000
alpha( 2) =  0.00000000
atom    3   Tr[ns(na)] =   5.83617
    eigenvalues: 
  0.470  0.530  0.576  0.614  0.728
    eigenvectors:
  0.011  0.033  0.303  0.000  0.653
  0.000  0.929  0.066  0.003  0.001
  0.812  0.000  0.000  0.175  0.013
  0.001  0.037  0.623  0.007  0.332
  0.175  0.001  0.008  0.815  0.000
    occupations:
  0.673 -0.012  0.024 -0.072 -0.005
 -0.012  0.534 -0.004 -0.005 -0.003
  0.024 -0.004  0.498 -0.011  0.054
 -0.072 -0.005 -0.011  0.625  0.003
 -0.005 -0.003  0.054  0.003  0.588
atom    4   Tr[ns(na)] =   5.81093
    eigenvalues: 
  0.434  0.522  0.580  0.626  0.743
    eigenvectors:
  0.000  0.000  0.991  0.009  0.000
  0.000  0.000  0.009  0.991  0.000
  0.999  0.000  0.000  0.000  0.000
  0.000  0.000  0.000  0.000  1.000
  0.000  1.000  0.000  0.000  0.000
    occupations:
  0.580  0.004  0.001 -0.001  0.000
  0.004  0.626  0.004 -0.002 -0.002
  0.001  0.004  0.434 -0.001  0.001
 -0.001 -0.002 -0.001  0.743 -0.000
  0.000 -0.002  0.001 -0.000  0.522
atom    9   Tr[ns(na)] =   5.82881
    eigenvalues: 
  0.490  0.524  0.592  0.598  0.711
    eigenvectors:
  0.000  0.000  0.197  0.016  0.786
  0.000  0.000  0.076  0.924  0.000
  0.094  0.906  0.000  0.000  0.000
  0.000  0.000  0.726  0.060  0.214
  0.906  0.094  0.000  0.000  0.000
    occupations:
  0.686 -0.001 -0.001 -0.048 -0.002
 -0.001  0.598 -0.000 -0.001 -0.000
 -0.001 -0.000  0.520  0.000  0.010
 -0.048 -0.001  0.000  0.618  0.002
 -0.002 -0.000  0.010  0.002  0.493
atom   10   Tr[ns(na)] =   5.78743
    eigenvalues: 
  0.493  0.499  0.517  0.666  0.719
    eigenvectors:
  0.819  0.180  0.000  0.000  0.001
  0.000  0.000  0.000  1.000  0.000
  0.180  0.820  0.000  0.000  0.000
  0.001  0.000  0.000  0.000  0.999
  0.000  0.000  1.000  0.000  0.000
    occupations:
  0.494  0.000 -0.002  0.008  0.000
  0.000  0.666  0.001 -0.000  0.000
 -0.002  0.001  0.498  0.000 -0.000
  0.008 -0.000  0.000  0.718  0.000
  0.000  0.000 -0.000  0.000  0.517
atom   16   Tr[ns(na)] =   5.83650
    eigenvalues: 
  0.469  0.530  0.576  0.614  0.730
    eigenvectors:
  0.011  0.033  0.302  0.000  0.654
  0.000  0.929  0.066  0.003  0.001
  0.816  0.000  0.000  0.171  0.013
  0.001  0.037  0.624  0.007  0.331
  0.172  0.001  0.007  0.819  0.000
    occupations:
  0.674  0.012  0.024 -0.073  0.005
  0.012  0.534  0.004  0.005 -0.003
  0.024  0.004  0.497 -0.011 -0.055
 -0.073  0.005 -0.011  0.625 -0.003
  0.005 -0.003 -0.055 -0.003  0.589
atom   17   Tr[ns(na)] =   5.82612
    eigenvalues: 
  0.432  0.521  0.584  0.613  0.763
    eigenvectors:
  0.000  0.000  0.967  0.030  0.003
  0.001  0.000  0.030  0.969  0.000
  0.999  0.000  0.000  0.001  0.000
  0.000  0.000  0.002  0.000  0.997
  0.000  1.000  0.000  0.000  0.000
    occupations:
  0.585  0.005  0.001 -0.009  0.000
  0.005  0.612  0.005 -0.002 -0.001
  0.001  0.005  0.432  0.001  0.000
 -0.009 -0.002  0.001  0.762 -0.000
  0.000 -0.001  0.000 -0.000  0.521
atom   22   Tr[ns(na)] =   5.82879
    eigenvalues: 
  0.490  0.524  0.592  0.599  0.711
    eigenvectors:
  0.000  0.000  0.194  0.021  0.785
  0.000  0.000  0.094  0.906  0.000
  0.089  0.911  0.000  0.000  0.000
  0.000  0.000  0.711  0.074  0.215
  0.911  0.089  0.000  0.000  0.000
    occupations:
  0.685  0.001  0.000 -0.048 -0.002
  0.001  0.598 -0.001  0.002  0.000
  0.000 -0.001  0.521 -0.000 -0.010
 -0.048  0.002 -0.000  0.618  0.001
 -0.002  0.000 -0.010  0.001  0.493
atom   23   Tr[ns(na)] =   5.89221
    eigenvalues: 
  0.512  0.521  0.535  0.622  0.756
    eigenvectors:
  0.000  0.000  0.000  0.983  0.017
  0.000  0.000  1.000  0.000  0.000
  0.000  1.000  0.000  0.000  0.000
  0.000  0.000  0.000  0.017  0.983
  1.000  0.000  0.000  0.000  0.000
    occupations:
  0.625  0.000 -0.000 -0.017 -0.000
  0.000  0.535 -0.000  0.000  0.000
 -0.000 -0.000  0.521 -0.000 -0.000
 -0.017  0.000 -0.000  0.754  0.000
 -0.000  0.000 -0.000  0.000  0.512
N of occupied +U levels =  46.6469541
 --- exit write_ns ---

          k = 0.0000 0.0000 0.0000 ( 29769 PWs)   bands (ev):

   -62.8315 -62.8103 -62.6851 -62.4535 -62.4313 -62.3495 -62.3301 -62.3120
   -37.5118 -37.4937 -37.2004 -37.1204 -37.0795 -36.9583 -36.8567 -36.8178
   -36.7788 -36.7647 -36.7524 -36.6834 -36.6373 -36.6315 -36.5749 -36.5226
   -36.4670 -36.4081 -36.4051 -36.4012 -36.3450 -36.0616 -35.8759 -35.8175
   -20.8770 -20.5152 -20.3154 -20.1875 -19.9767 -19.8530 -19.5330 -19.4546
   -19.3818 -19.2648 -19.2556 -19.1299 -19.0555 -19.0295 -18.9316 -18.8291
   -18.4079 -18.3607 -18.1697  -9.0660  -8.7967  -8.7841  -8.6554  -8.6296
    -7.8870  -7.8512  -7.6735  -7.4952  -7.3788  -7.3155  -7.3122  -7.1291
    -6.9661  -6.8660  -6.7474  -6.6067  -6.5545  -6.4342  -6.3901  -6.3380
    -6.1624  -6.1371  -5.5876  -5.5549  -5.5007  -5.4916  -5.3711  -5.2944
    -5.2466  -4.9931  -4.9236  -4.8948  -4.6875  -4.6240  -4.6000  -4.4921
    -4.3778  -4.3510  -4.3194  -4.1059  -4.0139  -3.8996  -3.7930  -3.7622
    -3.5348  -3.4484  -3.4120  -3.3843  -3.3631  -3.3253  -3.2864  -3.2129
    -3.2040  -3.1360  -3.0649  -3.0225  -2.7963  -2.5810  -2.3339  -1.0889
    -0.5588  -0.3901  -0.0454  -0.0169   0.0463   0.3874   0.4264   0.4867
     0.5789   0.8652   1.0825   1.1117   1.1753   1.5027   1.5810   1.9921
     2.2756   2.4684   2.4862   2.5690   2.6668   2.8895   3.3349   3.7229
     3.9301   3.9778   4.0142   4.2207   4.3390   4.3988   4.5266   4.5330
     4.6165   4.7952   4.8151   4.8255   5.0207   5.1700   5.2693   5.6547
     5.9257   6.0171   6.3373   6.5981   6.8802   7.1606   7.4336   7.6023
     7.6796   7.7041   7.7479   7.8654   7.9910   8.1878   8.3506   8.5898
     8.6348   8.7520   8.8018   9.1009   9.1423   9.1891   9.2704   9.4380
     9.4442   9.5315   9.6899   9.7554   9.8077   9.8230   9.8959   9.9186
    10.0326  10.1088  10.2223  10.3065  10.3463  10.4554  10.6009  10.6497
    10.7656  10.8992  10.9154  11.2789  11.3155  11.3654  11.5721  11.6102
    11.6637  11.7043  11.7296  11.7670  11.9136  12.0305  12.2621  12.3103
    12.3687  12.5066  12.5242  12.5675  12.5879  12.6128  12.7507  12.7587
    12.7736  12.8908  12.9098  13.0454  13.0964  13.1667  13.2033  13.2930
    13.3705  13.4707  13.4736  13.5200  13.6041  13.6958  13.7784  13.8248
    13.8533  13.9356  13.9587  14.0862  14.1124  14.3089  14.3543  14.4505
    14.5454  14.6480  14.7785  14.8316  14.8774  14.8971  15.0065  15.0917
    15.1440  15.2443  15.3124  15.4062  15.5358  15.6091  15.6842  15.7272
    15.7374  15.8140  15.8847  15.9327  16.0350  16.0695  16.1711  16.1933
    16.3043  16.4322  16.5410  16.6640  16.6991  16.7563  16.7785  16.8223
    16.8269  16.8429  17.0235  17.0806  17.1714  17.2207  17.2354  17.3440
    17.3927  17.5486  17.6473  17.8019  17.9235  18.0201  18.0234  18.1187
    18.2638  18.3320  18.3837  18.4441  18.4587  18.5448  18.5500  18.6592
    18.7519  18.9822  19.0723  19.1016  19.1669  19.1956  19.3105  19.3233
    19.3693  19.5192  19.5563  19.6228  19.6775  19.7341  19.7947  19.8872
    19.9392  20.0312  20.1385  20.2593  20.3349  20.3407  20.4113  20.4697
    20.5629  20.6146  20.6945  20.8827  20.9316  21.1184  21.1435  21.2013
    21.2490  21.4087  21.4424  21.4886  21.5722  21.5995  21.6115  21.7061
    21.7528  21.8097  21.8310  21.9119  21.9855  21.9906  22.0491  22.0706
    22.1197

          k = 0.0000 0.1950 0.0000 ( 29773 PWs)   bands (ev):

   -62.8312 -62.8096 -62.6852 -62.4532 -62.4306 -62.3494 -62.3302 -62.3120
   -37.5115 -37.4938 -37.1949 -37.1379 -37.0614 -36.9583 -36.8616 -36.8174
   -36.7648 -36.7625 -36.7582 -36.6835 -36.6373 -36.6258 -36.5917 -36.5246
   -36.4670 -36.4093 -36.4051 -36.4007 -36.3449 -36.0615 -35.8756 -35.8178
   -20.8673 -20.5148 -20.2066 -20.0966 -19.9073 -19.8177 -19.7079 -19.5810
   -19.5334 -19.4678 -19.2090 -19.1259 -19.0300 -18.9233 -18.8870 -18.7027
   -18.4041 -18.3636 -18.1692  -9.0568  -8.7949  -8.7239  -8.3880  -8.2472
    -8.0272  -7.9456  -7.8939  -7.8539  -7.7196  -7.5602  -7.4178  -7.2552
    -7.0906  -6.8318  -6.6385  -6.5670  -6.3883  -6.2296  -6.1968  -6.0130
    -5.9275  -5.6583  -5.6308  -5.5893  -5.5006  -5.4855  -5.4591  -5.3516
    -5.2707  -5.1587  -5.1320  -5.0217  -4.9104  -4.8012  -4.4800  -4.4168
    -4.3326  -4.2283  -4.1878  -4.0846  -3.9836  -3.9024  -3.8714  -3.7229
    -3.6665  -3.6417  -3.5686  -3.5052  -3.4631  -3.3748  -3.3081  -3.1720
    -3.1352  -3.0500  -2.8565  -2.7332  -2.6465  -2.5452  -2.3255  -1.0879
    -0.9227  -0.7595  -0.6190  -0.0950   0.4730   0.5233   0.7596   0.8474
     0.8631   1.0170   1.0690   1.0970   1.3298   1.4104   1.6075   1.7888
     2.2653   2.4013   2.4690   2.6457   2.7103   3.0505   3.3007   3.4544
     3.6214   3.8050   4.0227   4.0428   4.0992   4.1110   4.2121   4.3894
     4.6147   4.8268   4.8938   5.1106   5.3458   5.4566   5.8181   5.8567
     6.0947   6.1178   6.1862   6.4617   6.6172   6.8128   6.9243   7.1924
     7.3359   7.7379   7.8075   7.8658   8.0800   8.2379   8.3572   8.5244
     8.9001   9.0865   9.0929   9.1737   9.2978   9.3447   9.5362   9.5830
     9.7011   9.7128   9.8025   9.9164   9.9459  10.0340  10.0706  10.1293
    10.1987  10.3162  10.3709  10.4371  10.5296  10.5618  10.7061  10.8119
    10.8858  11.0323  11.0629  11.1357  11.2680  11.2912  11.3594  11.4595
    11.5136  11.5636  11.6697  11.7566  11.7825  11.8776  11.8970  11.9532
    12.0854  12.1890  12.3044  12.4164  12.4512  12.5055  12.5592  12.7462
    12.8125  12.8314  12.8808  12.9630  13.0003  13.1262  13.1820  13.3070
    13.4295  13.4423  13.5485  13.6343  13.7528  13.7997  13.8983  13.9754
    13.9955  14.0844  14.1108  14.1924  14.3330  14.3377  14.3898  14.4491
    14.6033  14.6090  14.6445  14.7365  14.7923  14.9130  14.9678  15.0210
    15.1238  15.1837  15.2556  15.2628  15.2922  15.3704  15.4396  15.4830
    15.5331  15.5771  15.6975  15.8833  15.9444  15.9782  16.0554  16.1472
    16.1643  16.2419  16.2747  16.5264  16.5840  16.6199  16.7465  16.7946
    16.8944  16.9448  17.0456  17.1315  17.2743  17.2961  17.3654  17.4826
    17.5109  17.5925  17.7410  17.8081  17.9482  18.0206  18.1204  18.2333
    18.3908  18.3971  18.4632  18.5333  18.5663  18.5929  18.6572  18.7560
    18.8264  18.9483  19.0116  19.0288  19.1080  19.1491  19.1561  19.2478
    19.3565  19.4006  19.4644  19.5200  19.5785  19.6789  19.7289  19.7711
    19.8845  19.9347  19.9769  20.0187  20.0715  20.1192  20.2557  20.3010
    20.4710  20.4888  20.5758  20.6484  20.6882  20.7314  20.7504  20.8439
    21.0488  21.0709  21.1204  21.1688  21.2823  21.3081  21.3450  21.4152
    21.5220  21.7096  21.7401  21.7732  21.8116  21.8362  21.9125  21.9257
    21.9934

          k = 0.0000-0.3900 0.0000 ( 29782 PWs)   bands (ev):

   -62.8310 -62.8090 -62.6852 -62.4529 -62.4299 -62.3492 -62.3304 -62.3120
   -37.5112 -37.4940 -37.1892 -37.1495 -37.0493 -36.9582 -36.8663 -36.8171
   -36.7653 -36.7645 -36.7410 -36.6835 -36.6373 -36.6203 -36.6138 -36.5259
   -36.4670 -36.4105 -36.4050 -36.4003 -36.3448 -36.0614 -35.8752 -35.8181
   -20.8589 -20.5143 -20.1415 -19.9415 -19.8567 -19.7341 -19.7055 -19.6936
   -19.5638 -19.5270 -19.3945 -19.3807 -19.1259 -18.9228 -18.6975 -18.5043
   -18.3995 -18.3676 -18.1688  -9.0490  -8.7967  -8.7709  -8.2483  -8.2215
    -8.1016  -8.0408  -7.9478  -7.7297  -7.6482  -7.5306  -7.3212  -7.2820
    -6.9500  -6.8396  -6.8161  -6.6680  -6.6296  -6.4050  -6.2555  -6.2396
    -5.8205  -5.6889  -5.5888  -5.5361  -5.5133  -5.4377  -5.3964  -5.2928
    -5.1725  -5.1444  -4.9800  -4.9257  -4.8071  -4.6845  -4.5938  -4.4759
    -4.3086  -4.2824  -4.1191  -4.0106  -3.9370  -3.8472  -3.8384  -3.7812
    -3.7528  -3.7047  -3.6645  -3.6527  -3.4802  -3.4394  -3.1996  -3.1839
    -3.1302  -3.0737  -2.9214  -2.8049  -2.3750  -2.3208  -2.2524  -1.2435
    -1.0869  -0.9966  -0.9725  -0.2001   0.6915   0.9441   0.9550   0.9718
     1.0355   1.0767   1.1125   1.2601   1.3520   1.5367   1.6180   1.7006
     2.0286   2.1434   2.5317   2.6215   2.8110   2.9026   2.9223   3.2981
     3.4369   3.7456   3.7527   4.0429   4.1458   4.2271   4.3887   4.5831
     4.8059   4.8301   4.8515   5.1881   5.3307   5.5177   5.7044   5.8490
     6.0608   6.1814   6.3266   6.3754   6.5362   6.6290   6.9421   7.1683
     7.2784   7.3889   7.4379   7.9949   8.0852   8.3377   8.3632   8.4195
     8.6671   8.9303   9.0123   9.3516   9.5437   9.6531   9.8471   9.9130
     9.9684   9.9816  10.1295  10.1628  10.1933  10.2057  10.2399  10.3617
    10.3961  10.4607  10.5448  10.6029  10.7837  10.8135  10.8416  11.0288
    11.1035  11.1474  11.2741  11.3116  11.3392  11.3494  11.3550  11.3745
    11.4174  11.4828  11.6225  11.6720  11.7648  11.8264  11.8384  11.8494
    11.9802  12.0338  12.0527  12.1849  12.2026  12.2378  12.3542  12.4155
    12.5435  12.6188  12.6567  12.7271  12.7866  12.8286  12.9317  13.1137
    13.2236  13.2959  13.3927  13.4408  13.4576  13.5018  13.5615  13.7185
    13.7528  13.9699  14.0126  14.0201  14.0955  14.2206  14.3512  14.4728
    14.6546  14.7329  14.8154  14.8702  14.9385  14.9530  15.0318  15.2208
    15.2497  15.3182  15.3679  15.4977  15.5204  15.5986  15.7896  15.8697
    15.9456  15.9553  16.0839  16.1008  16.1270  16.2140  16.2530  16.3593
    16.3730  16.4715  16.6043  16.6664  16.7220  16.7315  16.8625  16.9039
    16.9271  17.0310  17.0489  17.0938  17.1158  17.1832  17.2143  17.2438
    17.2674  17.4247  17.5085  17.5305  17.6549  17.7056  17.7432  17.8793
    17.9448  18.0131  18.0556  18.1107  18.1271  18.2956  18.3444  18.3526
    18.3593  18.5510  18.5889  18.6896  18.7172  18.7457  18.7939  18.9024
    19.0771  19.3277  19.3740  19.3987  19.4515  19.5007  19.5436  19.5823
    19.7452  19.8440  19.9032  19.9293  20.1036  20.1320  20.2964  20.3949
    20.4883  20.5526  20.5601  20.5720  20.6612  20.6830  20.7926  20.9379
    20.9762  21.0125  21.0688  21.1883  21.2483  21.4208  21.4346  21.6210
    21.6500  21.7627  21.9110  21.9736  22.0254  22.0649  22.1280  22.1815
    22.2563

          k = 0.2500 0.0000 0.0000 ( 29757 PWs)   bands (ev):

   -62.8247 -62.7865 -62.6984 -62.4311 -62.4078 -62.3463 -62.3399 -62.3233
   -37.4967 -37.3657 -37.1827 -37.0972 -37.0207 -36.8325 -36.8017 -36.7564
   -36.7456 -36.7412 -36.7191 -36.6650 -36.6551 -36.6532 -36.5790 -36.5522
   -36.4972 -36.4916 -36.4265 -36.4208 -36.3807 -36.1891 -36.0422 -35.9855
   -20.7764 -20.5122 -20.1876 -20.0585 -19.9382 -19.8170 -19.5646 -19.4105
   -19.3265 -19.3038 -19.2336 -19.1726 -19.1148 -19.0744 -18.9546 -18.8868
   -18.4950 -18.3754 -18.3338  -8.8779  -8.6892  -8.4969  -8.4567  -8.3044
    -7.7174  -7.6418  -7.5583  -7.3902  -7.3259  -7.2244  -7.1288  -7.0859
    -6.9870  -6.8281  -6.7653  -6.5825  -6.5161  -6.4024  -6.3855  -6.2103
    -6.1565  -6.0328  -6.0133  -5.9137  -5.8754  -5.5617  -5.4074  -5.2238
    -5.1571  -5.0130  -4.9034  -4.8435  -4.7540  -4.6162  -4.5468  -4.4052
    -4.3418  -4.2968  -4.2584  -4.2382  -4.1718  -4.0421  -3.9806  -3.8844
    -3.8346  -3.8068  -3.6577  -3.5949  -3.5460  -3.5033  -3.3653  -3.3070
    -3.1665  -3.1096  -3.0658  -2.6503  -2.3036  -2.2250  -1.7237  -0.7781
    -0.6141  -0.3652  -0.1965  -0.1341  -0.0133   0.1774   0.3808   0.4962
     0.6220   0.7768   0.8220   1.1072   1.2626   1.3233   1.4545   1.5034
     1.5519   1.5580   1.8858   2.0542   2.3509   3.1084   3.5907   3.8199
     3.9203   4.0088   4.0686   4.2397   4.3032   4.3831   4.5625   4.6177
     4.6567   4.7687   4.8743   4.9483   5.1455   5.4229   5.6265   5.7554
     5.8858   6.2152   6.2606   6.6764   6.9394   7.1261   7.1471   7.5434
     7.6312   7.7662   7.9065   7.9382   7.9998   8.1067   8.1864   8.3267
     8.4803   8.5543   8.7024   8.7903   8.9197   8.9998   9.1551   9.2654
     9.3206   9.4038   9.5308   9.6307   9.7977   9.8414   9.8524  10.0420
    10.0948  10.2187  10.2555  10.3138  10.3484  10.4295  10.4818  10.7123
    10.7691  10.8458  10.9168  10.9828  11.1757  11.2036  11.3428  11.4731
    11.5728  11.5899  11.6347  11.8093  11.9513  11.9972  12.1290  12.1557
    12.1752  12.2521  12.3213  12.4744  12.6756  12.7532  12.8073  12.8924
    12.9019  13.0671  13.1722  13.2552  13.3123  13.4342  13.4594  13.5014
    13.5565  13.6355  13.6970  13.7776  13.9164  14.1203  14.1438  14.2583
    14.2852  14.4772  14.5377  14.6391  14.7888  14.8377  14.8888  15.0008
    15.0158  15.1093  15.1279  15.2473  15.3117  15.4117  15.5169  15.5514
    15.6176  15.6483  15.7030  15.7590  15.8377  15.9030  15.9248  16.0476
    16.0738  16.1260  16.1562  16.2233  16.3786  16.4401  16.5099  16.6059
    16.6448  16.6767  16.7932  16.8241  16.8950  16.9491  17.0164  17.0863
    17.1568  17.1891  17.2678  17.3126  17.4108  17.4922  17.5769  17.6411
    17.6948  17.7191  17.8319  17.8501  17.9576  18.0151  18.0868  18.1291
    18.2412  18.2904  18.4041  18.4476  18.6346  18.6767  18.7059  18.8105
    18.8649  18.8924  18.9503  19.0317  19.0439  19.0682  19.1466  19.3133
    19.3262  19.3866  19.4271  19.5550  19.6019  19.6838  19.7243  19.7397
    19.8500  19.9252  19.9494  20.0453  20.0636  20.1156  20.1360  20.1641
    20.2008  20.2949  20.3847  20.4065  20.4258  20.4936  20.5526  20.5780
    20.7032  20.7983  20.8254  20.8733  20.9194  21.0104  21.2196  21.2694
    21.3373  21.3720  21.4699  21.5406  21.6092  21.6497  21.7543  21.8146
    21.8302

          k = 0.2500 0.1950 0.0000 ( 29746 PWs)   bands (ev):

   -62.8245 -62.7860 -62.6983 -62.4308 -62.4071 -62.3461 -62.3399 -62.3234
   -37.4967 -37.3655 -37.1782 -37.1058 -37.0109 -36.8323 -36.8012 -36.7469
   -36.7464 -36.7423 -36.7302 -36.6650 -36.6552 -36.6387 -36.5789 -36.5669
   -36.4972 -36.4928 -36.4281 -36.4227 -36.3808 -36.1887 -36.0417 -35.9856
   -20.7697 -20.5117 -20.0974 -20.0026 -19.9005 -19.7362 -19.6937 -19.5723
   -19.5233 -19.3287 -19.2148 -19.1194 -19.0541 -19.0296 -18.9355 -18.8313
   -18.4934 -18.3756 -18.3345  -8.8669  -8.7026  -8.4552  -8.1828  -7.9933
    -7.9609  -7.8197  -7.6778  -7.6171  -7.5334  -7.4116  -7.1774  -7.1012
    -7.0061  -6.7532  -6.7161  -6.6040  -6.5416  -6.3899  -6.2911  -6.0960
    -6.0353  -5.9817  -5.9255  -5.6776  -5.5464  -5.4628  -5.3825  -5.2443
    -5.1350  -5.0802  -4.9942  -4.8397  -4.7669  -4.6977  -4.6694  -4.5944
    -4.5523  -4.4322  -4.3272  -4.2763  -4.2037  -3.9876  -3.9717  -3.9278
    -3.8649  -3.7786  -3.6605  -3.6564  -3.5375  -3.4837  -3.4267  -3.2884
    -3.1285  -3.0687  -3.0173  -2.7071  -2.0092  -1.8746  -1.7133  -0.8154
    -0.7779  -0.7520  -0.5594   0.0133   0.1912   0.4568   0.5024   0.5870
     0.8087   0.8815   0.9418   1.1840   1.2911   1.4050   1.4621   1.5198
     1.5823   1.6347   1.6935   2.0743   2.2364   3.2180   3.2491   3.5113
     3.5604   3.7040   3.9338   4.1162   4.1765   4.2218   4.5037   4.5752
     4.6484   4.9495   5.2314   5.2880   5.5532   5.6317   5.7386   5.8058
     5.9660   6.0594   6.3170   6.5099   6.7691   6.9337   7.1538   7.2364
     7.2532   7.5749   7.6267   7.7898   8.0395   8.0945   8.2603   8.3556
     8.5067   8.5877   8.6777   8.8099   8.9921   9.1502   9.1806   9.3796
     9.4564   9.5352   9.6073   9.6474   9.6673   9.7797   9.9308  10.1075
    10.1185  10.2101  10.3102  10.4070  10.5361  10.5805  10.6858  10.7404
    10.8577  10.9346  11.1137  11.2038  11.3716  11.4849  11.6070  11.6721
    11.7527  11.8251  11.9189  11.9797  12.0600  12.2748  12.3329  12.3986
    12.4700  12.4890  12.5493  12.5972  12.6797  12.8321  12.9058  12.9139
    13.0388  13.1879  13.2345  13.2638  13.3447  13.4136  13.4877  13.5371
    13.5937  13.6920  13.7211  13.7728  13.8710  13.9365  14.0267  14.1138
    14.1649  14.2185  14.3066  14.4075  14.4612  14.5481  14.6099  14.6628
    14.6991  14.7555  14.8482  14.8865  14.9347  15.0349  15.1912  15.2047
    15.3186  15.3907  15.4724  15.5604  15.6128  15.7173  15.7911  15.8813
    15.9456  15.9937  16.0758  16.1366  16.1930  16.2487  16.3363  16.3612
    16.4345  16.4711  16.5693  16.6449  16.7508  16.8463  16.8868  16.9632
    17.0854  17.1298  17.2337  17.2581  17.3113  17.4051  17.4709  17.5598
    17.5768  17.6814  17.7245  17.8139  17.9164  17.9575  18.0462  18.1180
    18.1423  18.2014  18.2564  18.3650  18.4597  18.4994  18.5858  18.6481
    18.8006  18.8614  18.9306  18.9915  19.0971  19.1056  19.1545  19.2410
    19.4579  19.4691  19.5754  19.6853  19.7150  19.8050  19.8487  19.9053
    19.9398  20.0268  20.1369  20.1925  20.2741  20.3223  20.3677  20.4148
    20.4509  20.4869  20.5816  20.6367  20.6672  20.7147  20.7898  20.8842
    20.9189  21.0043  21.0480  21.1219  21.2000  21.2659  21.3155  21.3776
    21.5010  21.5338  21.5771  21.6792  21.7367  21.7670  21.8072  21.8470
    21.8740

          k = 0.2500-0.3900 0.0000 ( 29726 PWs)   bands (ev):

   -62.8242 -62.7854 -62.6982 -62.4306 -62.4065 -62.3459 -62.3398 -62.3235
   -37.4968 -37.3653 -37.1737 -37.1129 -37.0026 -36.8322 -36.8009 -36.7523
   -36.7482 -36.7382 -36.7253 -36.6650 -36.6552 -36.6257 -36.5854 -36.5788
   -36.4972 -36.4938 -36.4302 -36.4246 -36.3809 -36.1884 -36.0413 -35.9856
   -20.7637 -20.5112 -20.0331 -19.9705 -19.8198 -19.6821 -19.6775 -19.5742
   -19.5522 -19.4580 -19.3992 -19.2669 -19.1179 -18.9713 -18.8393 -18.6708
   -18.4918 -18.3758 -18.3353  -8.8578  -8.7099  -8.4542  -8.1775  -8.0464
    -7.8442  -7.7834  -7.7191  -7.6356  -7.3578  -7.3002  -7.1780  -7.1235
    -7.0912  -7.0373  -6.8777  -6.7602  -6.6702  -6.4281  -6.3104  -5.9929
    -5.9464  -5.8034  -5.7017  -5.6183  -5.4600  -5.3875  -5.2861  -5.1732
    -5.1490  -5.0268  -4.9829  -4.9550  -4.8600  -4.8085  -4.7172  -4.6571
    -4.5724  -4.5326  -4.4819  -4.3316  -4.2555  -4.0299  -3.9868  -3.8734
    -3.8366  -3.7819  -3.7092  -3.6253  -3.5583  -3.4829  -3.2875  -3.2666
    -3.0853  -3.0186  -2.9700  -2.8277  -1.8263  -1.7685  -1.6464  -1.0407
    -0.9142  -0.8658  -0.7582  -0.0961   0.5383   0.6342   0.7328   0.7711
     0.9860   1.0751   1.1437   1.2348   1.3078   1.3972   1.4984   1.5288
     1.6930   1.7104   1.7189   1.8473   2.3086   2.5576   2.7785   3.0733
     3.3248   3.4670   3.9405   4.0733   4.2715   4.3253   4.6042   4.6761
     4.8420   5.1265   5.1879   5.5104   5.6150   5.6905   5.8029   6.0126
     6.1106   6.1697   6.2556   6.3088   6.4301   6.6619   6.8873   7.1658
     7.2224   7.5953   7.7092   7.8253   7.9035   7.9699   8.1171   8.4019
     8.4566   8.5841   8.6664   8.7733   8.8651   8.9295   9.0498   9.1254
     9.3062   9.3508   9.5389   9.7242   9.9158   9.9820  10.0938  10.2977
    10.4450  10.4676  10.4920  10.5638  10.7191  10.8497  10.9650  11.1643
    11.3575  11.4606  11.5109  11.5672  11.6452  11.6960  11.7656  11.8331
    11.9151  11.9826  12.0267  12.0734  12.1878  12.2086  12.2842  12.4288
    12.5165  12.5778  12.6083  12.6769  12.7632  12.7923  12.8754  12.8917
    13.0248  13.0709  13.1078  13.2163  13.2749  13.4517  13.5074  13.5944
    13.6374  13.7126  13.7212  13.8139  13.8730  13.9463  13.9731  14.0419
    14.0669  14.0878  14.0980  14.2283  14.3039  14.3366  14.3929  14.4402
    14.5319  14.5679  14.6685  14.7370  14.8742  14.9006  14.9352  15.0775
    15.1070  15.1520  15.1687  15.2146  15.2375  15.4730  15.5012  15.5566
    15.5671  15.7060  15.8000  15.9016  15.9233  16.0436  16.0656  16.1664
    16.3041  16.3409  16.4305  16.4887  16.5435  16.6879  16.7061  16.8527
    16.8892  16.9367  17.0960  17.1774  17.2489  17.3749  17.4190  17.4506
    17.5094  17.6023  17.6335  17.7020  17.8527  17.9046  17.9373  18.0439
    18.2167  18.2815  18.3771  18.4172  18.4880  18.5805  18.7342  18.8771
    18.9593  19.0335  19.1336  19.1952  19.2808  19.3156  19.3471  19.4236
    19.4644  19.5323  19.6061  19.6324  19.7048  19.7281  19.7828  19.8122
    19.8984  20.0467  20.1152  20.1822  20.2669  20.3359  20.3812  20.4875
    20.5331  20.5918  20.6542  20.6833  20.7594  20.7823  20.8301  20.8693
    20.9197  20.9950  21.0593  21.0870  21.1301  21.1551  21.2248  21.2956
    21.3874  21.4412  21.4709  21.5335  21.5928  21.6826  21.7691  21.8229
    21.8638

          k =-0.5000 0.0000 0.0000 ( 29752 PWs)   bands (ev):

   -62.8180 -62.7375 -62.7368 -62.3991 -62.3619 -62.3591 -62.3575 -62.3428
   -37.4986 -37.1415 -37.1385 -36.9978 -36.9923 -36.9070 -36.7684 -36.7292
   -36.7084 -36.7036 -36.7027 -36.6961 -36.5814 -36.5753 -36.5348 -36.5150
   -36.4938 -36.4692 -36.4345 -36.3974 -36.3788 -36.3707 -36.3564 -36.3375
   -20.6161 -20.5585 -20.0496 -19.8320 -19.8140 -19.7456 -19.7327 -19.5388
   -19.5321 -19.2211 -19.1692 -19.0661 -19.0343 -19.0321 -19.0209 -18.9833
   -18.6174 -18.5982 -18.3816  -8.7534  -8.5759  -7.9848  -7.9315  -7.8673
    -7.7731  -7.6702  -7.5006  -7.4491  -7.3403  -7.3045  -7.1324  -6.9758
    -6.9278  -6.9124  -6.8492  -6.4756  -6.4650  -6.0728  -6.0460  -5.9619
    -5.9339  -5.8706  -5.7804  -5.7685  -5.7128  -5.6321  -5.5895  -5.4459
    -5.3241  -5.2383  -5.2368  -5.1577  -5.1447  -4.8358  -4.8001  -4.7154
    -4.6118  -4.5876  -4.4961  -4.4379  -4.3642  -4.2953  -3.9729  -3.9323
    -3.8343  -3.7788  -3.5973  -3.5656  -3.5301  -3.4406  -3.2654  -3.2112
    -3.2073  -3.0265  -2.9905  -2.7825  -1.2662  -0.8520  -0.7709  -0.7486
    -0.6476  -0.5918  -0.4454  -0.3883  -0.3572  -0.2975  -0.0229  -0.0208
     0.3159   0.3741   0.5809   0.6472   0.7499   0.8345   1.1540   1.1819
     1.5116   1.6219   1.9395   2.0235   2.0420   3.5527   3.6106   3.7291
     3.8070   3.9570   4.2138   4.3107   4.3407   4.3975   4.6057   4.6408
     4.6704   4.7377   4.8319   5.2275   5.4838   5.6778   5.7073   6.0163
     6.0981   6.1007   6.3820   6.4641   6.6846   6.7624   7.1130   7.2129
     7.5305   7.7456   7.7939   7.8622   7.9116   7.9777   8.3232   8.5228
     8.6649   8.7094   8.8489   8.8685   8.9475   8.9610   9.0340   9.1448
     9.2588   9.2805   9.3345   9.4330   9.5934   9.6381   9.6984   9.7358
     9.8805  10.0233  10.1456  10.2993  10.3241  10.4557  10.4784  10.5277
    10.6266  10.6370  10.8356  10.8740  10.9197  10.9742  11.3497  11.4562
    11.4692  11.6695  11.7069  11.7997  11.9006  11.9622  12.0026  12.1011
    12.1786  12.2373  12.3027  12.5249  12.5809  13.0343  13.0950  13.1080
    13.1985  13.2216  13.2819  13.3686  13.4364  13.5450  13.7382  13.9561
    14.0284  14.0924  14.1253  14.2505  14.4159  14.6439  14.6803  14.7197
    14.8050  14.8306  14.9534  15.0526  15.0733  15.1254  15.1440  15.2387
    15.2694  15.3956  15.4221  15.4772  15.5286  15.6684  15.8762  15.9201
    15.9422  15.9904  16.1113  16.1952  16.2306  16.3192  16.3448  16.4215
    16.4540  16.5481  16.6085  16.6241  16.7702  16.8706  16.9011  16.9877
    17.1415  17.1733  17.2149  17.2562  17.2709  17.2723  17.4052  17.5606
    17.5665  17.5988  17.6792  17.7193  17.7345  17.8064  17.8075  17.8933
    17.9808  18.0391  18.1467  18.2303  18.2467  18.2743  18.3114  18.3415
    18.4208  18.4367  18.4681  18.5773  18.6096  18.6404  18.6980  18.7196
    18.7822  18.8783  18.9096  18.9145  18.9253  18.9723  18.9874  19.0894
    19.1486  19.2589  19.2776  19.2884  19.3388  19.4223  19.4392  19.4634
    19.5344  19.5572  19.5624  19.5980  19.6264  19.6477  19.7316  19.7486
    19.8307  19.8696  20.0388  20.1959  20.2684  20.3733  20.4017  20.4078
    20.4248  20.4659  20.4758  20.5670  20.5800  20.6196  20.7141  20.8088
    20.8402  20.8930  20.9207  20.9290  21.0136  21.0647  21.1296  21.1745
    21.2381

          k =-0.5000 0.1950 0.0000 ( 29720 PWs)   bands (ev):

   -62.8178 -62.7372 -62.7365 -62.3990 -62.3612 -62.3588 -62.3577 -62.3426
   -37.4987 -37.1388 -37.1383 -36.9979 -36.9921 -36.9053 -36.7679 -36.7333
   -36.7030 -36.7014 -36.6975 -36.6956 -36.5815 -36.5752 -36.5349 -36.5246
   -36.4943 -36.4777 -36.4373 -36.3950 -36.3782 -36.3702 -36.3559 -36.3356
   -20.6142 -20.5567 -20.0350 -19.8148 -19.8071 -19.7245 -19.7216 -19.5501
   -19.5357 -19.2405 -19.1978 -19.0794 -19.0669 -19.0275 -18.9964 -18.9678
   -18.6164 -18.5980 -18.3824  -8.7463  -8.5668  -7.9526  -7.9336  -7.8676
    -7.8570  -7.6968  -7.6476  -7.6164  -7.3839  -7.1010  -6.9563  -6.9308
    -6.8718  -6.7801  -6.6455  -6.4269  -6.3123  -6.2028  -6.1270  -6.0753
    -6.0162  -5.9206  -5.8946  -5.7494  -5.7364  -5.6556  -5.5977  -5.5473
    -5.3930  -5.2921  -5.2624  -5.1068  -5.0599  -4.9745  -4.8245  -4.7024
    -4.6539  -4.5999  -4.5458  -4.4441  -4.3148  -4.1639  -4.0710  -3.9815
    -3.8737  -3.8045  -3.6180  -3.5898  -3.5208  -3.3847  -3.2801  -3.1990
    -3.0606  -3.0104  -2.9286  -2.8208  -1.3213  -0.8751  -0.7506  -0.7330
    -0.6055  -0.4837  -0.4580  -0.3410  -0.1487   0.0125   0.0648   0.1225
     0.2991   0.3939   0.4903   0.6417   0.9522   0.9972   1.1584   1.2689
     1.4537   1.5302   1.7964   1.8938   2.1170   3.1286   3.3928   3.4984
     3.5429   3.6193   3.7298   4.1169   4.1333   4.5876   4.7496   4.8937
     4.9414   5.0740   5.1976   5.3355   5.4869   5.8195   5.8851   6.0121
     6.1556   6.2614   6.3863   6.4845   6.5979   6.7561   6.9707   7.0664
     7.3881   7.4555   7.5362   7.7358   7.7686   7.9288   7.9760   8.1013
     8.1296   8.2707   8.4459   8.5891   8.8133   8.9204   9.0110   9.1885
     9.2474   9.3672   9.3945   9.4987   9.5275   9.6702  10.1006  10.2989
    10.3557  10.4642  10.5496  10.5938  10.6224  10.6883  10.7240  10.8318
    10.9184  10.9472  11.0239  11.1536  11.3006  11.3387  11.4860  11.5968
    11.7438  11.8014  11.8813  12.0105  12.0584  12.1047  12.1754  12.3085
    12.3886  12.4932  12.5898  12.6099  12.7385  12.8357  13.0965  13.1407
    13.1667  13.2560  13.5218  13.5528  13.7077  13.7324  13.8000  13.8672
    14.1464  14.1572  14.1955  14.2569  14.3378  14.3752  14.4398  14.5512
    14.5660  14.6815  14.7142  14.7416  14.8844  14.8955  15.0595  15.1301
    15.2301  15.2401  15.3080  15.3572  15.4671  15.4782  15.4978  15.5508
    15.5979  15.6647  15.7094  15.8060  15.8915  15.9827  16.0961  16.1743
    16.2289  16.2441  16.3085  16.4197  16.4386  16.5252  16.5744  16.6211
    16.6973  16.7171  16.8111  16.8343  16.8690  16.9603  17.0322  17.0735
    17.1913  17.2037  17.2985  17.4010  17.4149  17.4888  17.5878  17.6178
    17.6341  17.6817  17.7369  17.7722  17.8123  17.8755  17.9306  17.9723
    18.0193  18.1638  18.1819  18.3046  18.3364  18.4409  18.4573  18.5966
    18.6405  18.7073  18.7786  18.8614  18.9076  19.0133  19.0343  19.0934
    19.2289  19.2389  19.3038  19.5251  19.5594  19.6100  19.7421  19.7929
    19.8280  19.9415  19.9529  20.0878  20.1104  20.1701  20.1871  20.2888
    20.3250  20.3892  20.4116  20.4722  20.5144  20.6921  20.7158  20.7786
    20.8631  20.9495  20.9650  21.0364  21.1015  21.1997  21.2131  21.2939
    21.3153  21.3836  21.3966  21.4370  21.4521  21.4980  21.5252  21.5494
    21.6253

          k =-0.5000-0.3900 0.0000 ( 29668 PWs)   bands (ev):

   -62.8176 -62.7369 -62.7362 -62.3989 -62.3602 -62.3588 -62.3580 -62.3424
   -37.4988 -37.1383 -37.1358 -36.9979 -36.9920 -36.9036 -36.7675 -36.7373
   -36.7028 -36.6966 -36.6942 -36.6893 -36.5815 -36.5752 -36.5357 -36.5350
   -36.4943 -36.4858 -36.4400 -36.3926 -36.3777 -36.3697 -36.3553 -36.3340
   -20.6123 -20.5549 -20.0206 -19.8033 -19.7916 -19.7105 -19.6990 -19.5646
   -19.5392 -19.2586 -19.2293 -19.0917 -19.0853 -19.0240 -18.9860 -18.9542
   -18.6154 -18.5979 -18.3833  -8.7382  -8.5550  -7.9567  -7.8867  -7.8522
    -7.8345  -7.7568  -7.7540  -7.6813  -7.4193  -7.0172  -6.9426  -6.9189
    -6.7530  -6.7345  -6.5583  -6.4500  -6.3578  -6.2316  -6.1828  -6.0932
    -6.0306  -5.9184  -5.8924  -5.7898  -5.7502  -5.6364  -5.4725  -5.4296
    -5.3723  -5.3393  -5.2264  -5.1401  -5.0679  -4.8820  -4.8529  -4.8489
    -4.7946  -4.7530  -4.7117  -4.5119  -4.2657  -4.2025  -4.1166  -3.9376
    -3.9197  -3.6801  -3.6647  -3.6556  -3.4600  -3.3199  -3.2936  -3.1583
    -3.0645  -2.9766  -2.8474  -2.8199  -1.3647  -0.9484  -0.9006  -0.7940
    -0.6693  -0.5221  -0.4475  -0.3271   0.1474   0.2697   0.3683   0.4033
     0.4898   0.5217   0.6578   0.8436   0.9705   1.2143   1.2633   1.3592
     1.4754   1.5030   1.5793   1.6652   2.1727   2.4849   2.7548   2.8456
     2.9050   3.6510   3.8041   4.1992   4.2168   4.6951   4.8339   5.0200
     5.0517   5.2786   5.5047   5.6682   5.6807   5.7854   5.8833   5.9442
     6.2390   6.3996   6.4271   6.5979   6.6033   6.8297   6.9185   6.9820
     7.0342   7.1616   7.2680   7.4059   7.4475   7.5995   7.7531   7.9199
     8.0595   8.2884   8.4651   8.6045   8.6455   8.6840   8.7750   8.8050
     9.2487   9.4205   9.5120   9.6535   9.8564   9.8982   9.9758   9.9907
    10.1336  10.2556  10.6204  10.9144  11.0695  11.1409  11.1964  11.2321
    11.3382  11.3960  11.4839  11.5130  11.7351  11.9654  12.0347  12.0621
    12.1329  12.3307  12.3670  12.3930  12.4208  12.4992  12.6090  12.6709
    12.7556  12.8020  12.8403  12.9516  12.9980  13.0990  13.1232  13.1396
    13.1994  13.2639  13.2922  13.4092  13.4849  13.5567  13.5900  13.6587
    13.7085  13.7992  13.8237  13.8459  13.9016  13.9951  14.1911  14.2768
    14.2900  14.3636  14.4179  14.4405  14.4574  14.6358  14.7455  14.8114
    14.8555  14.8712  14.8981  14.9265  15.0554  15.2665  15.2927  15.3371
    15.4665  15.4931  15.6509  15.6934  15.7356  15.7557  15.9031  15.9062
    15.9820  16.1422  16.1636  16.1982  16.2760  16.3068  16.3696  16.4384
    16.4515  16.5804  16.6772  16.7459  16.7667  16.7791  16.8326  16.8705
    17.1407  17.1849  17.1958  17.2256  17.2888  17.3342  17.3645  17.4667
    17.5578  17.6257  17.6913  17.7846  17.8301  17.8582  17.9451  17.9790
    18.0006  18.0337  18.1074  18.1236  18.1936  18.2616  18.3145  18.3373
    18.3641  18.4785  18.5507  18.5671  18.6499  18.7115  18.8528  19.0315
    19.1353  19.2330  19.3072  19.3150  19.3232  19.4649  19.5273  19.6270
    19.6691  19.7157  20.0810  20.1292  20.1867  20.2416  20.2614  20.3760
    20.4015  20.4876  20.5931  20.6291  20.6883  20.8182  20.8349  21.0304
    21.0838  21.1273  21.1539  21.3311  21.4214  21.4776  21.5137  21.5857
    21.6401  21.6876  21.7201  21.7629  21.8311  21.9102  21.9548  22.0486
    22.1589

          k =-0.2500 0.1950 0.0000 ( 29746 PWs)   bands (ev):

   -62.8245 -62.7860 -62.6983 -62.4308 -62.4071 -62.3461 -62.3399 -62.3234
   -37.4967 -37.3655 -37.1782 -37.1058 -37.0109 -36.8324 -36.8013 -36.7469
   -36.7464 -36.7421 -36.7310 -36.6650 -36.6552 -36.6373 -36.5789 -36.5672
   -36.4972 -36.4928 -36.4285 -36.4227 -36.3808 -36.1887 -36.0418 -35.9855
   -20.7697 -20.5117 -20.0977 -20.0023 -19.9006 -19.7355 -19.6938 -19.5694
   -19.5268 -19.3290 -19.2147 -19.1191 -19.0545 -19.0298 -18.9353 -18.8309
   -18.4934 -18.3756 -18.3345  -8.8674  -8.7012  -8.4570  -8.1826  -7.9889
    -7.9612  -7.8206  -7.6862  -7.6136  -7.5311  -7.4132  -7.1900  -7.0738
    -7.0258  -6.7708  -6.7014  -6.5957  -6.5446  -6.3779  -6.2974  -6.0933
    -6.0315  -5.9793  -5.9083  -5.6656  -5.5879  -5.4741  -5.3779  -5.2303
    -5.1711  -5.0750  -4.9711  -4.8318  -4.7772  -4.7148  -4.6426  -4.6155
    -4.5282  -4.4333  -4.3233  -4.3017  -4.1993  -3.9968  -3.9740  -3.9018
    -3.8632  -3.7862  -3.6847  -3.6073  -3.5581  -3.4856  -3.4200  -3.2924
    -3.1498  -3.0538  -2.9943  -2.7346  -2.0096  -1.8723  -1.7131  -0.8218
    -0.7810  -0.7193  -0.5579   0.0048   0.1835   0.4531   0.4968   0.5725
     0.8119   0.8710   0.9591   1.1901   1.2982   1.4038   1.4638   1.5242
     1.5848   1.6336   1.6872   2.0724   2.2351   3.2182   3.2483   3.5099
     3.5606   3.7085   3.9302   4.1169   4.1754   4.2238   4.5022   4.5791
     4.6485   4.9494   5.2374   5.2842   5.5548   5.6366   5.7368   5.8082
     5.9680   6.0476   6.3136   6.5118   6.7647   6.9344   7.1515   7.2244
     7.2467   7.5893   7.6232   7.7907   8.0348   8.0976   8.2816   8.3490
     8.5214   8.5835   8.6801   8.8015   9.0117   9.1304   9.1818   9.3596
     9.4840   9.5277   9.6224   9.6481   9.6748   9.7397   9.9379  10.0918
    10.1335  10.2455  10.3078  10.3763  10.5409  10.5782  10.6828  10.7516
    10.8802  10.9791  11.0309  11.2114  11.3767  11.4828  11.5970  11.6714
    11.7589  11.8270  11.9284  11.9718  12.0497  12.2729  12.3360  12.4079
    12.4500  12.4872  12.5497  12.5946  12.6846  12.8437  12.9113  12.9186
    13.0390  13.1821  13.2529  13.2599  13.3417  13.4170  13.4798  13.5295
    13.5843  13.6670  13.7114  13.7630  13.8838  13.9450  14.0399  14.1144
    14.1718  14.2113  14.3259  14.4101  14.4413  14.5429  14.6044  14.6638
    14.7011  14.7632  14.8606  14.9109  14.9427  15.0173  15.1846  15.2215
    15.3439  15.3988  15.4652  15.5556  15.6100  15.7126  15.7898  15.8677
    15.9454  15.9935  16.0723  16.1452  16.1972  16.2449  16.3122  16.3776
    16.4300  16.4583  16.5809  16.6402  16.7584  16.8482  16.8853  16.9610
    17.0699  17.1309  17.2477  17.2741  17.3003  17.3958  17.4632  17.5643
    17.5848  17.6884  17.7224  17.7890  17.9073  17.9777  18.0397  18.1234
    18.1391  18.2281  18.2729  18.3573  18.4076  18.4862  18.5832  18.6473
    18.7811  18.8423  18.9319  18.9726  19.0868  19.1139  19.1597  19.2423
    19.4242  19.4622  19.5773  19.6863  19.7112  19.8199  19.8569  19.9111
    19.9676  20.0471  20.1369  20.2080  20.2761  20.2996  20.3601  20.4320
    20.4431  20.5051  20.5854  20.6550  20.6727  20.7100  20.7867  20.8894
    20.9199  21.0004  21.0577  21.1359  21.1891  21.2564  21.3183  21.3821
    21.4867  21.5386  21.6016  21.6769  21.7504  21.7733  21.8187  21.8607
    21.8825

     the Fermi energy is    -0.3236 ev

!    total energy              =   -1730.43428883 Ry
     Harris-Foulkes estimate   =   -1730.43428946 Ry
     estimated scf accuracy    <       0.00000069 Ry

     The total energy is the sum of the following terms:

     one-electron contribution =  -22103.56175786 Ry
     hartree contribution      =   11073.69114746 Ry
     xc contribution           =    -293.71762059 Ry
     ewald contribution        =    9591.08335746 Ry
     Hubbard energy            =       2.07024825 Ry
     smearing contrib. (-TS)   =       0.00033645 Ry

     convergence has been achieved in  30 iterations

     Forces acting on atoms (Ry/au):


     negative rho (up, down):  0.353E-02 0.000E+00
     atom    1 type  1   force =     0.00089230   -0.00349733    0.00494612
     atom    2 type  1   force =    -0.00015767    0.00711533    0.00260201
     atom    3 type  2   force =    -0.03832042   -0.00873865   -0.00795282
     atom    4 type  2   force =     0.00094571    0.00542006   -0.00488832
     atom    5 type  1   force =    -0.00479359   -0.00441239    0.00037319
     atom    6 type  1   force =    -0.00709457    0.00272546    0.00076668
     atom    7 type  1   force =     0.00028210    0.00055027    0.01201217
     atom    8 type  1   force =     0.00334729    0.00035156   -0.00226835
     atom    9 type  2   force =    -0.00731568    0.00010715    0.00094946
     atom   10 type  2   force =    -0.00006898   -0.00027759   -0.00452947
     atom   11 type  1   force =    -0.01075620   -0.02823346    0.00233556
     atom   12 type  1   force =    -0.01172819    0.02843000    0.00237039
     atom   13 type  1   force =    -0.00010744    0.00009361   -0.00311454
     atom   14 type  1   force =    -0.00622359   -0.00607929    0.00812061
     atom   15 type  1   force =     0.00002359    0.01166758   -0.00069341
     atom   16 type  2   force =     0.03785655   -0.00929417   -0.00818475
     atom   17 type  2   force =    -0.00235244    0.00345315   -0.00870694
     atom   18 type  1   force =     0.00792456   -0.00342255    0.00071303
     atom   19 type  1   force =     0.00684497    0.00247792    0.00045108
     atom   20 type  1   force =    -0.00004214    0.00327152    0.00927340
     atom   21 type  1   force =     0.00347023    0.00029509   -0.00037412
     atom   22 type  2   force =     0.00324442   -0.00035686    0.00078383
     atom   23 type  2   force =     0.00010215    0.00068485    0.00217858
     atom   24 type  1   force =     0.01129731   -0.02830955    0.00220188
     atom   25 type  1   force =     0.01126768    0.02831262    0.00246765
     atom   26 type  1   force =    -0.00016944    0.00026616   -0.00294535
     atom   27 type  3   force =     0.00000452   -0.00151926    0.00058845
     atom   28 type  3   force =     0.00001593   -0.00089995   -0.00005798
     atom   29 type  3   force =     0.00003770    0.00004678    0.00006468
     atom   30 type  3   force =     0.00159666   -0.00008204   -0.00003254
     atom   31 type  1   force =    -0.00002332   -0.00014601   -0.00945019

     Total force =     0.026966     Total SCF correction =     0.002377

     BFGS Geometry Optimization

     number of scf cycles    =   1
     number of bfgs steps    =   0

     energy   new            =   -1730.4342888349 Ry

     new trust radius        =       0.0120121716 bohr
     new conv_thr            =       0.0000010000 Ry


ATOMIC_POSITIONS (crystal)
O0       0.000000000   0.000000000   0.370126938    0   0   1
O0       0.000000000   0.500000000   0.384150996    0   0   1
Mo1      0.250000000   0.500000000   0.442124134    0   0   1
Mo1      0.000000000   0.000000000   0.441794194    0   0   1
O0       0.250000000   0.780000000   0.442667314    0   0   1
O0       0.250000000   0.220000000   0.442745026    0   0   1
O0       0.000000000   0.500000000   0.499145425    0   0   1
O0       0.000000000   0.000000000   0.516085543    0   0   1
Mo1      0.250000000   0.000000000   0.574148608    0   0   1
Mo1      0.000000000   0.500000000   0.566401227    0   0   1
O0       0.250000000   0.720000000   0.570255774    0   0   1
O0       0.250000000   0.280000000   0.570216457    0   0   1
O0       0.000000000   0.000000000   0.624628958    0   0   1
O0       0.500000000   0.000000000   0.370769155    0   0   1
O0       0.500000000   0.500000000   0.384156410    0   0   1
Mo1      0.750000000   0.500000000   0.442129588    0   0   1
Mo1      0.500000000   0.000000000   0.443149353    0   0   1
O0       0.750000000   0.780000000   0.442843975    0   0   1
O0       0.750000000   0.220000000   0.442658841    0   0   1
O0       0.500000000   0.500000000   0.495961748    0   0   1
O0       0.500000000   0.000000000   0.515632668    0   0   1
Mo1      0.750000000   0.000000000   0.574145362    0   0   1
Mo1      0.500000000   0.500000000   0.580752698    0   0   1
O0       0.750000000   0.720000000   0.570253154    0   0   1
O0       0.750000000   0.280000000   0.570238363    0   0   1
O0       0.500000000   0.000000000   0.624432274    0   0   1
H2      -0.000659562   0.599425154   0.358491533
H2       0.499641544   0.621111970   0.365548864
H2       0.167403654   0.016433536   0.355611268
H2       0.663924746   0.020193798   0.355309362
O0       0.500017740   0.499748963   0.643004787


     Check: negative starting charge=   -0.002499
     NEW-OLD atomic charge density approx. for the potential

     Check: negative/imaginary core charge=   -0.000003    0.000000
     Check: negative starting charge=   -0.002494

     negative rho (up, down):  0.352E-02 0.000E+00
 Atomic wfc used for LDA+U Projector are NOT orthogonalized

     total cpu time spent up to now is     5573.3 secs

     per-process dynamical memory:   398.3 Mb

     Self-consistent Calculation

     iteration #  1     ecut=    40.00 Ry     beta=0.70
     Davidson diagonalization with overlap
     ethr =  1.00E-06,  avg # of iterations =  3.2
 --- enter write_ns ---
 LDA+U parameters:
U( 2)     =  3.00000000
alpha( 2) =  0.00000000
atom    3   Tr[ns(na)] =   5.84860
    eigenvalues: 
  0.470  0.529  0.576  0.617  0.733
    eigenvectors:
  0.011  0.033  0.303  0.000  0.653
  0.000  0.930  0.066  0.003  0.002
  0.815  0.000  0.000  0.172  0.013
  0.001  0.036  0.624  0.007  0.333
  0.173  0.001  0.007  0.819  0.000
    occupations:
  0.675 -0.013  0.024 -0.074 -0.005
 -0.013  0.533 -0.004 -0.005 -0.003
  0.024 -0.004  0.499 -0.011  0.055
 -0.074 -0.005 -0.011  0.626  0.003
 -0.005 -0.003  0.055  0.003  0.591
atom    4   Tr[ns(na)] =   5.81305
    eigenvalues: 
  0.435  0.522  0.580  0.626  0.743
    eigenvectors:
  0.000  0.000  0.991  0.009  0.000
  0.000  0.000  0.009  0.990  0.000
  0.999  0.000  0.000  0.000  0.000
  0.000  0.000  0.000  0.000  1.000
  0.000  1.000  0.000  0.000  0.000
    occupations:
  0.581  0.004  0.001 -0.001  0.000
  0.004  0.625  0.004 -0.002 -0.001
  0.001  0.004  0.435 -0.001  0.001
 -0.001 -0.002 -0.001  0.743 -0.000
  0.000 -0.001  0.001 -0.000  0.522
atom    9   Tr[ns(na)] =   5.82252
    eigenvalues: 
  0.489  0.523  0.592  0.598  0.709
    eigenvectors:
  0.000  0.000  0.197  0.015  0.787
  0.000  0.000  0.072  0.928  0.000
  0.095  0.905  0.000  0.000  0.000
  0.000  0.000  0.731  0.056  0.212
  0.905  0.095  0.000  0.000  0.000
    occupations:
  0.685 -0.001 -0.001 -0.048 -0.002
 -0.001  0.598 -0.000 -0.001 -0.000
 -0.001 -0.000  0.520  0.000  0.010
 -0.048 -0.001  0.000  0.617  0.002
 -0.002 -0.000  0.010  0.002  0.492
atom   10   Tr[ns(na)] =   5.78557
    eigenvalues: 
  0.494  0.498  0.517  0.664  0.719
    eigenvectors:
  0.494  0.505  0.000  0.000  0.001
  0.000  0.000  0.000  1.000  0.000
  0.505  0.494  0.000  0.000  0.000
  0.001  0.001  0.000  0.000  0.999
  0.000  0.000  1.000  0.000  0.000
    occupations:
  0.496  0.000 -0.002  0.008  0.000
  0.000  0.664  0.001 -0.000  0.000
 -0.002  0.001  0.496  0.000 -0.000
  0.008 -0.000  0.000  0.719  0.000
  0.000  0.000 -0.000  0.000  0.517
atom   16   Tr[ns(na)] =   5.84524
    eigenvalues: 
  0.469  0.529  0.576  0.616  0.733
    eigenvectors:
  0.011  0.033  0.303  0.000  0.653
  0.000  0.930  0.066  0.002  0.002
  0.818  0.000  0.000  0.169  0.013
  0.001  0.036  0.625  0.006  0.332
  0.170  0.001  0.007  0.822  0.000
    occupations:
  0.676  0.013  0.024 -0.075  0.004
  0.013  0.533  0.004  0.005 -0.003
  0.024  0.004  0.497 -0.012 -0.055
 -0.075  0.005 -0.012  0.627 -0.003
  0.004 -0.003 -0.055 -0.003  0.591
atom   17   Tr[ns(na)] =   5.82970
    eigenvalues: 
  0.432  0.522  0.584  0.613  0.763
    eigenvectors:
  0.000  0.000  0.965  0.032  0.003
  0.001  0.000  0.033  0.966  0.000
  0.999  0.000  0.000  0.001  0.000
  0.000  0.000  0.002  0.001  0.997
  0.000  1.000  0.000  0.000  0.000
    occupations:
  0.586  0.005  0.001 -0.009  0.000
  0.005  0.612  0.005 -0.002 -0.001
  0.001  0.005  0.433  0.001  0.000
 -0.009 -0.002  0.001  0.763 -0.000
  0.000 -0.001  0.000 -0.000  0.522
atom   22   Tr[ns(na)] =   5.82130
    eigenvalues: 
  0.489  0.523  0.592  0.599  0.709
    eigenvectors:
  0.000  0.000  0.194  0.020  0.786
  0.000  0.000  0.090  0.910  0.000
  0.091  0.909  0.000  0.000  0.000
  0.000  0.000  0.716  0.070  0.214
  0.909  0.091  0.000  0.000  0.000
    occupations:
  0.684  0.001  0.000 -0.048 -0.002
  0.001  0.598 -0.001  0.002  0.000
  0.000 -0.001  0.520 -0.000 -0.010
 -0.048  0.002 -0.000  0.617  0.001
 -0.002  0.000 -0.010  0.001  0.492
atom   23   Tr[ns(na)] =   5.90303
    eigenvalues: 
  0.513  0.521  0.536  0.624  0.757
    eigenvectors:
  0.000  0.000  0.000  0.983  0.017
  0.000  0.000  1.000  0.000  0.000
  0.000  1.000  0.000  0.000  0.000
  0.000  0.000  0.000  0.017  0.983
  1.000  0.000  0.000  0.000  0.000
    occupations:
  0.626  0.000 -0.000 -0.017 -0.000
  0.000  0.536 -0.000  0.000  0.000
 -0.000 -0.000  0.521 -0.000 -0.000
 -0.017  0.000 -0.000  0.755  0.000
 -0.000  0.000 -0.000  0.000  0.513
N of occupied +U levels =  46.6690229
 --- exit write_ns ---

     negative rho (up, down):  0.352E-02 0.000E+00

     total cpu time spent up to now is     5816.8 secs

     total energy              =   -1730.43427235 Ry
     Harris-Foulkes estimate   =   -1730.43474261 Ry
     estimated scf accuracy    <       0.00062096 Ry

     iteration #  2     ecut=    40.00 Ry     beta=0.70
     Davidson diagonalization with overlap
     ethr =  2.70E-07,  avg # of iterations =  5.9

     negative rho (up, down):  0.354E-02 0.000E+00

     total cpu time spent up to now is     6028.1 secs

     total energy              =   -1730.43256103 Ry
     Harris-Foulkes estimate   =   -1730.43645644 Ry
     estimated scf accuracy    <       0.02870866 Ry

     iteration #  3     ecut=    40.00 Ry     beta=0.70
     Davidson diagonalization with overlap
     ethr =  2.70E-07,  avg # of iterations =  4.6

     negative rho (up, down):  0.354E-02 0.000E+00

     total cpu time spent up to now is     6221.2 secs

     total energy              =   -1730.43416515 Ry
     Harris-Foulkes estimate   =   -1730.43509992 Ry
     estimated scf accuracy    <       0.00792165 Ry

     iteration #  4     ecut=    40.00 Ry     beta=0.70
     Davidson diagonalization with overlap
     ethr =  2.70E-07,  avg # of iterations =  4.2

     negative rho (up, down):  0.353E-02 0.000E+00

     total cpu time spent up to now is     6410.4 secs

     total energy              =   -1730.43447708 Ry
     Harris-Foulkes estimate   =   -1730.43479721 Ry
     estimated scf accuracy    <       0.00271174 Ry

     iteration #  5     ecut=    40.00 Ry     beta=0.70
     Davidson diagonalization with overlap
     ethr =  2.70E-07,  avg # of iterations =  1.0

     negative rho (up, down):  0.353E-02 0.000E+00

     total cpu time spent up to now is     6579.9 secs

     total energy              =   -1730.43462726 Ry
     Harris-Foulkes estimate   =   -1730.43468629 Ry
     estimated scf accuracy    <       0.00037266 Ry

     iteration #  6     ecut=    40.00 Ry     beta=0.70
     Davidson diagonalization with overlap
     ethr =  1.62E-07,  avg # of iterations =  1.0

     negative rho (up, down):  0.353E-02 0.000E+00

     total cpu time spent up to now is     6737.7 secs

     total energy              =   -1730.43463842 Ry
     Harris-Foulkes estimate   =   -1730.43468176 Ry
     estimated scf accuracy    <       0.00025036 Ry

     iteration #  7     ecut=    40.00 Ry     beta=0.70
     Davidson diagonalization with overlap
     ethr =  1.09E-07,  avg # of iterations =  1.0

     negative rho (up, down):  0.352E-02 0.000E+00

     total cpu time spent up to now is     6895.4 secs

     total energy              =   -1730.43465625 Ry
[...]
    -3.1928  -3.0400  -2.9702  -2.7477  -1.1947  -0.8360  -0.7641  -0.7352
    -0.6290  -0.5743  -0.4459  -0.3597  -0.3282  -0.2922  -0.0030   0.0151
     0.3368   0.4055   0.6002   0.6597   0.7693   0.8382   1.1876   1.2147
     1.5317   1.6455   1.9661   2.0776   2.0822   3.5261   3.5967   3.8281
     3.8448   3.9695   4.2274   4.3264   4.3554   4.4611   4.6351   4.6491
     4.6964   4.7237   4.8323   5.3168   5.4921   5.6636   5.6945   6.0780
     6.1065   6.1165   6.3946   6.4823   6.6836   6.7697   7.0993   7.2020
     7.5266   7.7455   7.7925   7.8322   7.9026   7.9661   8.3668   8.5287
     8.6487   8.6922   8.8335   8.8528   8.9463   8.9575   9.0590   9.1745
     9.2590   9.2801   9.3329   9.4331   9.5966   9.6401   9.7014   9.7426
     9.8838  10.0354  10.1456  10.2972  10.3252  10.4687  10.4901  10.5313
    10.6395  10.6627  10.8425  10.8862  10.9312  10.9798  11.3694  11.4637
    11.4745  11.6668  11.7030  11.8114  11.9083  11.9632  12.0375  12.1056
    12.1739  12.2472  12.2920  12.5266  12.5921  13.0324  13.0943  13.1100
    13.1979  13.2185  13.3052  13.3830  13.4473  13.5487  13.7648  13.9694
    14.0375  14.0979  14.1483  14.2408  14.4474  14.6575  14.6856  14.7348
    14.8130  14.8389  14.9586  15.0518  15.0714  15.1315  15.1547  15.2277
    15.2661  15.3861  15.4539  15.4744  15.5487  15.6703  15.8673  15.9165
    15.9698  15.9861  16.1242  16.2103  16.2367  16.3203  16.3516  16.4241
    16.4554  16.5453  16.6147  16.6393  16.7834  16.8738  16.9017  16.9851
    17.1416  17.2075  17.2216  17.2619  17.2846  17.3235  17.4088  17.5620
    17.5804  17.5975  17.6928  17.7301  17.7574  17.7918  17.7942  17.8794
    17.9737  18.0339  18.1418  18.2279  18.2475  18.2696  18.2999  18.3315
    18.4127  18.4284  18.4632  18.5794  18.6187  18.6398  18.7070  18.7165
    18.7888  18.8698  18.9039  18.9084  18.9233  18.9737  18.9899  19.0841
    19.1437  19.2548  19.2798  19.2871  19.3398  19.4205  19.4433  19.4633
    19.5386  19.5609  19.5643  19.5984  19.6280  19.6450  19.7258  19.7472
    19.8344  19.8725  20.0429  20.2038  20.2607  20.3709  20.3965  20.4082
    20.4230  20.4672  20.4783  20.5647  20.5766  20.6244  20.7144  20.8071
    20.8444  20.9001  20.9192  20.9345  21.0157  21.0616  21.1221  21.1785
    21.2480

          k =-0.5000 0.1950 0.0000 ( 29720 PWs)   bands (ev):

   -62.7509 -62.7316 -62.7291 -62.3848 -62.3487 -62.3417 -62.3234 -62.3215
   -37.4351 -37.1269 -37.1260 -37.0004 -36.9931 -36.8879 -36.7526 -36.7011
   -36.6904 -36.6737 -36.6728 -36.6687 -36.5767 -36.5700 -36.5089 -36.4878
   -36.4640 -36.4566 -36.4263 -36.3780 -36.3612 -36.3273 -36.3197 -36.3187
   -20.5973 -20.5847 -20.0062 -19.8431 -19.8281 -19.7202 -19.7014 -19.5419
   -19.5246 -19.2046 -19.1674 -19.0780 -19.0620 -19.0136 -18.9891 -18.9232
   -18.6122 -18.5940 -18.2918  -8.7750  -8.5396  -7.9623  -7.9497  -7.8767
    -7.8615  -7.6757  -7.6379  -7.5977  -7.3344  -7.0709  -6.9553  -6.9215
    -6.8528  -6.7804  -6.6247  -6.4197  -6.3033  -6.1866  -6.1258  -6.0558
    -6.0162  -5.9228  -5.8898  -5.7363  -5.7278  -5.6410  -5.5883  -5.5324
    -5.3853  -5.2680  -5.2480  -5.0832  -5.0460  -4.9497  -4.8131  -4.6901
    -4.6366  -4.5783  -4.5314  -4.4400  -4.2912  -4.1157  -4.0696  -3.9497
    -3.8478  -3.7682  -3.6128  -3.5843  -3.5137  -3.3573  -3.2793  -3.1946
    -3.0690  -3.0239  -2.9053  -2.7978  -1.2441  -0.8615  -0.7287  -0.7127
    -0.5952  -0.4665  -0.4478  -0.3509  -0.1340   0.0342   0.0882   0.1444
     0.3180   0.4231   0.5081   0.6617   0.9710   1.0093   1.2012   1.2884
     1.4814   1.5558   1.8202   1.9492   2.1639   3.1993   3.4147   3.5119
     3.5539   3.5963   3.7150   4.1488   4.1566   4.6431   4.7426   4.9213
     4.9700   5.1210   5.2318   5.3577   5.4882   5.8158   5.8726   6.0600
     6.1663   6.2657   6.3860   6.4881   6.5892   6.7589   6.9727   7.0742
     7.3832   7.4449   7.5426   7.7519   7.7802   7.9405   7.9779   8.1043
     8.1410   8.2746   8.4427   8.5874   8.8106   8.9182   9.0142   9.1789
     9.2363   9.3738   9.4067   9.5010   9.5352   9.6796  10.1078  10.3007
    10.3468  10.4532  10.5502  10.6034  10.6338  10.7121  10.7421  10.8350
    10.9215  10.9541  11.0243  11.1607  11.3113  11.3442  11.4866  11.5855
    11.7491  11.8208  11.8828  12.0136  12.0671  12.1332  12.1816  12.3113
    12.3949  12.4871  12.5948  12.6136  12.7409  12.8369  13.1059  13.1510
    13.1747  13.2643  13.5306  13.5730  13.7159  13.7403  13.8100  13.8724
    14.1529  14.1689  14.1992  14.2517  14.3410  14.3814  14.4443  14.5644
    14.5748  14.6957  14.7171  14.7509  14.8981  14.9097  15.0498  15.1205
    15.2378  15.2494  15.3119  15.3660  15.4724  15.4926  15.5116  15.5509
    15.5992  15.6579  15.7075  15.8167  15.8952  15.9877  16.0965  16.1668
    16.2275  16.2439  16.3124  16.4234  16.4428  16.5275  16.5746  16.6272
    16.6974  16.7143  16.8169  16.8394  16.8675  16.9643  17.0341  17.0860
    17.1935  17.2128  17.3086  17.4047  17.4171  17.4990  17.5925  17.6162
    17.6555  17.6964  17.7410  17.7857  17.8247  17.8795  17.9367  17.9800
    18.0255  18.1720  18.1856  18.3034  18.3368  18.4471  18.4582  18.6107
    18.6488  18.7130  18.7791  18.8605  18.9078  19.0122  19.0351  19.0937
    19.2248  19.2363  19.3136  19.5286  19.5587  19.6108  19.7459  19.8037
    19.8306  19.9419  19.9520  20.0827  20.1036  20.1709  20.1851  20.3000
    20.3290  20.3865  20.4168  20.4714  20.5116  20.6835  20.7051  20.7695
    20.8496  20.9456  20.9712  21.0377  21.1093  21.1959  21.2190  21.2875
    21.3140  21.3790  21.3976  21.4342  21.4525  21.5084  21.5284  21.5553
    21.6339

          k =-0.5000-0.3900 0.0000 ( 29668 PWs)   bands (ev):

   -62.7506 -62.7313 -62.7288 -62.3848 -62.3485 -62.3415 -62.3232 -62.3212
   -37.4352 -37.1261 -37.1240 -37.0004 -36.9930 -36.8868 -36.7518 -36.7011
   -36.6904 -36.6770 -36.6653 -36.6605 -36.5767 -36.5700 -36.5209 -36.4905
   -36.4707 -36.4565 -36.4291 -36.3757 -36.3603 -36.3248 -36.3198 -36.3186
   -20.5953 -20.5829 -19.9910 -19.8397 -19.8124 -19.7071 -19.6819 -19.5479
   -19.5237 -19.2255 -19.1931 -19.0905 -19.0832 -19.0104 -18.9784 -18.9117
   -18.6114 -18.5939 -18.2924  -8.7674  -8.5277  -7.9442  -7.9051  -7.8890
    -7.8547  -7.7380  -7.7351  -7.6576  -7.3708  -7.0123  -6.9433  -6.8867
    -6.7392  -6.7259  -6.5289  -6.4499  -6.3111  -6.2193  -6.1683  -6.0531
    -6.0502  -5.9007  -5.8832  -5.7857  -5.7470  -5.6472  -5.4585  -5.4208
    -5.3621  -5.3324  -5.2144  -5.1133  -5.0718  -4.8706  -4.8456  -4.8368
    -4.7863  -4.7347  -4.6942  -4.4652  -4.2628  -4.1837  -4.0826  -3.9189
    -3.8809  -3.6610  -3.6484  -3.6439  -3.4558  -3.3113  -3.2670  -3.1465
    -3.0239  -2.9704  -2.8528  -2.8315  -1.2872  -0.9356  -0.8800  -0.7744
    -0.6455  -0.5004  -0.4481  -0.3400   0.1596   0.2970   0.3841   0.3970
     0.5240   0.5445   0.6737   0.8850   0.9999   1.2345   1.2788   1.3765
     1.4958   1.5242   1.6148   1.7311   2.2228   2.5478   2.7731   2.8628
     2.9193   3.6223   3.7839   4.2289   4.2527   4.7540   4.8212   5.0632
     5.0742   5.3168   5.5282   5.6869   5.7060   5.7963   5.8698   5.9500
     6.2797   6.3816   6.4090   6.5819   6.5885   6.8472   6.9244   6.9921
     7.0378   7.1725   7.2748   7.4131   7.4548   7.6107   7.7574   7.9274
     8.0645   8.3080   8.4707   8.6101   8.6652   8.6906   8.7877   8.8058
     9.2550   9.4179   9.5139   9.6557   9.8584   9.9173   9.9727   9.9851
    10.1368  10.2365  10.6048  10.9056  11.0607  11.1440  11.2053  11.2386
    11.3714  11.3967  11.4882  11.5133  11.7851  11.9812  12.0324  12.0722
    12.1326  12.3415  12.3724  12.3842  12.4323  12.5112  12.6013  12.6655
    12.7485  12.8089  12.8297  12.9444  12.9974  13.0979  13.1311  13.1594
    13.2074  13.2703  13.3147  13.4130  13.4843  13.5675  13.5987  13.6661
    13.7142  13.7964  13.8310  13.8508  13.9031  13.9909  14.2057  14.2695
    14.2845  14.3759  14.4212  14.4570  14.4619  14.6368  14.7453  14.8295
    14.8681  14.8942  14.9042  14.9420  15.0652  15.2793  15.3166  15.3445
    15.4708  15.4943  15.6507  15.6902  15.7476  15.7687  15.8953  15.8998
    15.9804  16.1421  16.1581  16.1872  16.2715  16.3043  16.3705  16.4431
    16.4557  16.5685  16.6701  16.7392  16.7615  16.7786  16.8377  16.8905
    17.1444  17.1893  17.1995  17.2257  17.2990  17.3529  17.3751  17.4889
    17.5593  17.6305  17.6956  17.7939  17.8341  17.8617  17.9532  17.9908
    18.0110  18.0341  18.1157  18.1362  18.2079  18.2561  18.3324  18.3417
    18.3753  18.4838  18.5507  18.5712  18.6636  18.7150  18.8491  19.0339
    19.1425  19.2484  19.3058  19.3195  19.3259  19.4773  19.5257  19.6276
    19.6747  19.7100  20.1037  20.1325  20.1929  20.2634  20.2704  20.3798
    20.4079  20.4866  20.5981  20.6344  20.7037  20.8202  20.8396  21.0378
    21.0831  21.1308  21.1670  21.3252  21.4468  21.4794  21.5391  21.5894
    21.6362  21.6782  21.7177  21.7631  21.8236  21.9080  21.9436  22.0494
    22.1556

          k =-0.2500 0.1950 0.0000 ( 29746 PWs)   bands (ev):

   -62.7796 -62.7583 -62.6916 -62.4178 -62.3703 -62.3444 -62.3284 -62.2871
   -37.4335 -37.3685 -37.1661 -37.0916 -36.9723 -36.8355 -36.7646 -36.7420
   -36.7157 -36.7146 -36.6895 -36.6612 -36.6515 -36.6100 -36.5788 -36.5525
   -36.4914 -36.4545 -36.4164 -36.4088 -36.3444 -36.1659 -35.9919 -35.9704
   -20.7651 -20.5174 -20.1101 -20.0021 -19.8774 -19.7299 -19.6689 -19.5931
   -19.5238 -19.3236 -19.1872 -19.1361 -19.0387 -18.9948 -18.8946 -18.8162
   -18.4842 -18.3279 -18.2833  -8.8856  -8.6848  -8.5128  -8.1694  -7.9811
    -7.9489  -7.7975  -7.6939  -7.5931  -7.5039  -7.3925  -7.1768  -7.0618
    -7.0181  -6.7557  -6.6900  -6.6166  -6.5255  -6.3555  -6.2773  -6.0922
    -6.0258  -5.9709  -5.8961  -5.6511  -5.5731  -5.4530  -5.3514  -5.2148
    -5.1479  -5.0571  -4.9492  -4.8131  -4.7634  -4.6969  -4.6211  -4.5963
    -4.5178  -4.4274  -4.3090  -4.2629  -4.1796  -3.9824  -3.9545  -3.8913
    -3.8417  -3.7684  -3.6790  -3.5926  -3.5539  -3.4726  -3.3981  -3.2728
    -3.1427  -3.0645  -3.0119  -2.7147  -1.9748  -1.8639  -1.7312  -0.7948
    -0.7486  -0.7055  -0.5327   0.0334   0.1967   0.4844   0.5292   0.5975
     0.8401   0.8921   0.9789   1.2181   1.3194   1.4291   1.4833   1.5562
     1.6005   1.6716   1.7216   2.1108   2.2805   3.2274   3.2823   3.5238
     3.5892   3.7246   3.9328   4.1180   4.1771   4.2610   4.5435   4.6004
     4.6898   4.9591   5.2653   5.3178   5.5613   5.6600   5.7603   5.8247
     5.9576   6.0574   6.3270   6.4981   6.7780   6.9464   7.1498   7.2160
     7.2508   7.5962   7.6070   7.8185   8.0332   8.0913   8.2793   8.3508
     8.5265   8.5980   8.6786   8.8156   9.0078   9.1306   9.1932   9.3568
     9.4819   9.5246   9.6272   9.6466   9.6778   9.7438   9.9457  10.0963
    10.1434  10.2472  10.3119  10.3880  10.5415  10.5747  10.6965  10.7630
    10.8855  10.9837  11.0363  11.2234  11.3798  11.4804  11.6078  11.6723
    11.7634  11.8326  11.9348  11.9736  12.0354  12.2696  12.3344  12.4116
    12.4536  12.4996  12.5495  12.6220  12.6992  12.8440  12.9116  12.9312
    13.0481  13.1857  13.2512  13.2737  13.3418  13.4193  13.4743  13.5430
    13.5808  13.6724  13.7093  13.7788  13.8855  13.9418  14.0490  14.1180
    14.1744  14.2117  14.3238  14.4111  14.4493  14.5539  14.6115  14.6600
    14.7055  14.7744  14.8694  14.9153  14.9535  15.0222  15.2006  15.2272
    15.3467  15.4053  15.4766  15.5616  15.6245  15.7179  15.7931  15.8810
    15.9519  16.0027  16.0755  16.1517  16.1965  16.2459  16.3160  16.3792
    16.4298  16.4640  16.5729  16.6465  16.7673  16.8536  16.8881  16.9622
    17.0710  17.1345  17.2567  17.2788  17.3003  17.3963  17.4660  17.5690
    17.5941  17.6866  17.7252  17.7888  17.9162  17.9793  18.0511  18.1294
    18.1477  18.2328  18.2809  18.3650  18.4096  18.4961  18.5877  18.6524
    18.7786  18.8520  18.9428  18.9725  19.0812  19.1118  19.1604  19.2469
    19.4248  19.4708  19.5761  19.6946  19.7188  19.8209  19.8625  19.9191
    19.9672  20.0532  20.1351  20.2012  20.2761  20.2981  20.3619  20.4383
    20.4542  20.5139  20.5886  20.6519  20.6698  20.7043  20.7830  20.8950
    20.9289  21.0056  21.0560  21.1324  21.1958  21.2629  21.3191  21.3810
    21.4829  21.5403  21.5916  21.6844  21.7501  21.7816  21.8197  21.8515
    21.8793

     the Fermi energy is    -0.3146 ev

!    total energy              =   -1730.43506487 Ry
     Harris-Foulkes estimate   =   -1730.43506487 Ry
     estimated scf accuracy    <          4.0E-09 Ry

     The total energy is the sum of the following terms:

     one-electron contribution =  -22119.37705275 Ry
     hartree contribution      =   11081.74580496 Ry
     xc contribution           =    -293.74843191 Ry
     ewald contribution        =    9598.87561126 Ry
     Hubbard energy            =       2.06870153 Ry
     smearing contrib. (-TS)   =       0.00030203 Ry

     convergence has been achieved in  13 iterations

     Forces acting on atoms (Ry/au):


     negative rho (up, down):  0.353E-02 0.000E+00
     atom    1 type  1   force =     0.00057096   -0.00329218   -0.00025861
     atom    2 type  1   force =    -0.00016120    0.00582098    0.00038708
     atom    3 type  2   force =    -0.02767394   -0.00802075    0.00001879
     atom    4 type  2   force =     0.00115613    0.00549849   -0.00013541
     atom    5 type  1   force =    -0.00469126   -0.00457914    0.00021639
     atom    6 type  1   force =    -0.00692591    0.00249862    0.00016178
     atom    7 type  1   force =     0.00024679    0.00032836    0.00026321
     atom    8 type  1   force =     0.00327848    0.00035205   -0.00005273
     atom    9 type  2   force =    -0.00777669    0.00014366   -0.00001033
     atom   10 type  2   force =    -0.00011936   -0.00027627   -0.00039857
     atom   11 type  1   force =    -0.01277526   -0.02633151   -0.00031393
     atom   12 type  1   force =    -0.01378864    0.02648675   -0.00033063
     atom   13 type  1   force =    -0.00003691    0.00003563    0.00043894
     atom   14 type  1   force =    -0.00386034   -0.00554136    0.00014076
     atom   15 type  1   force =     0.00005766    0.01068915    0.00034942
     atom   16 type  2   force =     0.02720478   -0.00863444   -0.00002153
     atom   17 type  2   force =    -0.00249646    0.00365707   -0.00092905
     atom   18 type  1   force =     0.00770901   -0.00359626    0.00019104
     atom   19 type  1   force =     0.00670137    0.00240510    0.00018730
     atom   20 type  1   force =     0.00000390    0.00298284    0.00027600
     atom   21 type  1   force =     0.00351703    0.00031566    0.00004782
     atom   22 type  2   force =     0.00371131   -0.00041685   -0.00021090
     atom   23 type  2   force =     0.00017429    0.00066144   -0.00024814
     atom   24 type  1   force =     0.01326053   -0.02630488   -0.00033836
     atom   25 type  1   force =     0.01337925    0.02634983   -0.00035957
     atom   26 type  1   force =    -0.00024058    0.00031784    0.00042341
     atom   27 type  3   force =     0.00001696   -0.00067197   -0.00045715
     atom   28 type  3   force =    -0.00000781   -0.00054950   -0.00004740
     atom   29 type  3   force =    -0.00026425   -0.00002094   -0.00004799
     atom   30 type  3   force =    -0.00016491   -0.00027987    0.00033531
     atom   31 type  1   force =    -0.00000491   -0.00002756    0.00072305

     Total force =     0.002099     Total SCF correction =     0.000268
     SCF correction compared to forces is large: reduce conv_thr to get better values

     bfgs converged in   8 scf cycles and   7 bfgs steps
     (criteria: energy < 0.10E-03, force < 0.10E-02)

     End of BFGS Geometry Optimization

     Final energy   =   -1730.4350648702 Ry
Begin final coordinates

ATOMIC_POSITIONS (crystal)
O0       0.000000000   0.000000000   0.370117812    0   0   1
O0       0.000000000   0.500000000   0.384323975    0   0   1
Mo1      0.250000000   0.500000000   0.442219598    0   0   1
Mo1      0.000000000   0.000000000   0.441739359    0   0   1
O0       0.250000000   0.780000000   0.442662327    0   0   1
O0       0.250000000   0.220000000   0.442788160    0   0   1
O0       0.000000000   0.500000000   0.499411206    0   0   1
O0       0.000000000   0.000000000   0.516041955    0   0   1
Mo1      0.250000000   0.000000000   0.573961513    0   0   1
Mo1      0.000000000   0.500000000   0.566649475    0   0   1
O0       0.250000000   0.720000000   0.570588862    0   0   1
O0       0.250000000   0.280000000   0.570552932    0   0   1
O0       0.000000000   0.000000000   0.624347280    0   0   1
O0       0.500000000   0.000000000   0.370836850    0   0   1
O0       0.500000000   0.500000000   0.383982436    0   0   1
Mo1      0.750000000   0.500000000   0.442218065    0   0   1
Mo1      0.500000000   0.000000000   0.443099341    0   0   1
O0       0.750000000   0.780000000   0.442886355    0   0   1
O0       0.750000000   0.220000000   0.442647618    0   0   1
O0       0.500000000   0.500000000   0.496424512    0   0   1
O0       0.500000000   0.000000000   0.515631166    0   0   1
Mo1      0.750000000   0.000000000   0.573900677    0   0   1
Mo1      0.500000000   0.500000000   0.580010409    0   0   1
O0       0.750000000   0.720000000   0.570565031    0   0   1
O0       0.750000000   0.280000000   0.570587368    0   0   1
O0       0.500000000   0.000000000   0.624159582    0   0   1
H2      -0.000636340   0.598245834   0.358416108
H2       0.499636734   0.621017748   0.365321428
H2       0.167175831   0.016480794   0.355602414
H2       0.664079225   0.019803962   0.355499638
O0       0.499996168   0.499646504   0.642386548
End final coordinates



     init_run     :     94.76s CPU     96.21s WALL (       1 calls)
     electrons    :  22909.02s CPU  23462.27s WALL (       8 calls)
     update_pot   :    129.18s CPU    133.06s WALL (       7 calls)
     forces       :    958.87s CPU    985.64s WALL (       8 calls)

     Called by init_run:
     wfcinit      :     32.53s CPU     33.28s WALL (       1 calls)
     potinit      :      6.82s CPU      6.99s WALL (       1 calls)

     Called by electrons:
     c_bands      :  12235.97s CPU  12494.25s WALL (     136 calls)
     sum_band     :   4698.65s CPU   4806.37s WALL (     136 calls)
     v_of_rho     :    134.95s CPU    145.54s WALL (     139 calls)
     newd         :   6058.56s CPU   6110.72s WALL (     139 calls)
     mix_rho      :     26.08s CPU     26.53s WALL (     136 calls)

     Called by c_bands:
     init_us_2    :     37.13s CPU     37.50s WALL (     891 calls)
     cegterg      :  12085.56s CPU  12314.80s WALL (     408 calls)

     Called by *egterg:
     h_psi        :   7348.05s CPU   7455.45s WALL (    1112 calls)
     s_psi        :    696.06s CPU    705.15s WALL (    1160 calls)
     g_psi        :     14.83s CPU     14.85s WALL (     701 calls)
     cdiaghg      :    976.12s CPU    979.03s WALL (    1073 calls)

     Called by h_psi:
     add_vuspsi   :    669.65s CPU    679.01s WALL (    1112 calls)
     vhpsi        :    790.80s CPU    797.79s WALL (    1112 calls)

     General routines
     calbec       :   1698.90s CPU   1713.94s WALL (    9832 calls)
     fft          :    176.52s CPU    218.74s WALL (    2307 calls)
     ffts         :      2.42s CPU      2.48s WALL (     275 calls)
     fftw         :   4075.92s CPU   4185.08s WALL (  728102 calls)
     interpolate  :     20.46s CPU     20.73s WALL (     275 calls)
     davcio       :      0.07s CPU     17.18s WALL (     915 calls)

     Parallel routines
     fft_scatter  :   1453.96s CPU   1593.56s WALL (  730684 calls)
     Hubbard U routines
     new_ns       :    164.41s CPU    174.71s WALL (     136 calls)
     vhpsi        :    790.80s CPU    797.79s WALL (    1112 calls)
     force_hub    :    273.27s CPU    279.24s WALL (       8 calls)

     PWSCF        :     6h47m CPU        6h57m WALL


   This run was terminated on:   3:24:19  29Apr2014            

=------------------------------------------------------------------------------=
   JOB DONE.
=------------------------------------------------------------------------------=
