
     Program PWSCF v.5.0.2 (svn rev. 9656) starts on 24Feb2014 at 10:28:21 

     This program is part of the open-source Quantum ESPRESSO suite
     for quantum simulation of materials; please cite
         "P. Giannozzi et al., J. Phys.:Condens. Matter 21 395502 (2009);
          URL http://www.quantum-espresso.org", 
     in publications or presentations arising from this work. More details at
     http://www.quantum-espresso.org/quote.php

     Parallel version (MPI), running on    24 processors
     R & G space division:  proc/nbgrp/npool/nimage =      24

     Current dimensions of program PWSCF are:
     Max number of different atomic species (ntypx) = 10
     Max number of k-points (npk) =  40000
     Max angular momentum in pseudopotentials (lmaxx) =  3
     Reading input from slab-relax.in
Warning: card &CELL ignored
Warning: card / ignored

     Subspace diagonalization in iterative solution of the eigenvalue problem:
     a serial algorithm will be used

     Found symmetry operation: I + ( -0.5000  0.0000  0.0000)
     This is a supercell, fractional translations are disabled

     Parallelization info
     --------------------
     sticks:   dense  smooth     PW     G-vecs:    dense   smooth      PW
     Min         241      77     21                78177    14129    2087
     Max         242      78     22                78202    14190    2102
     Sum        5803    1869    517              1876595   339995   50245



     bravais-lattice index     =            0
     lattice parameter (alat)  =      12.0187  a.u.
     unit-cell volume          =    9939.8055 (a.u.)^3
     number of atoms/cell      =           48
     number of atomic types    =            2
     number of electrons       =       432.00
     number of Kohn-Sham states=          624
     kinetic-energy cutoff     =      40.0000  Ry
     charge density cutoff     =     500.0000  Ry
     convergence threshold     =      1.0E-06
     mixing beta               =       0.7000
     number of iterations used =            8  plain     mixing
     Exchange-correlation      = SLA  PW   PBE  PBE ( 1 4 3 4 0)
     EXX-fraction              =        0.00
     nstep                     =           50


     celldm(1)=  12.018658  celldm(2)=   0.000000  celldm(3)=   0.000000
     celldm(4)=   0.000000  celldm(5)=   0.000000  celldm(6)=   0.000000

     crystal axes: (cart. coord. in units of alat)
               a(1) = (   1.000000   0.000000   0.000000 )  
               a(2) = (   0.000000   1.009517   0.000000 )  
               a(3) = (   0.000000   0.000000   5.671477 )  

     reciprocal axes: (cart. coord. in units 2 pi/alat)
               b(1) = (  1.000000  0.000000  0.000000 )  
               b(2) = (  0.000000  0.990572  0.000000 )  
               b(3) = (  0.000000  0.000000  0.176321 )  


     PseudoPot. # 1 for O  read from file:
     /home/camp/zhonxu/pseudo/o_pbe_v1.01.uspp.F.UPF
     MD5 check sum: 2bcb18d16ea4b960afae9ec6d52f22d2
     Pseudo is Ultrasoft + core correction, Zval =  6.0
     Generated by new atomic code, or converted to UPF format
     Using radial grid of  737 points,  5 beta functions with: 
                l(1) =   0
                l(2) =   0
                l(3) =   1
                l(4) =   1
                l(5) =   2
     Q(r) pseudized with  8 coefficients,  rinner =    0.900   0.900   0.900
                                                       0.900   0.900

     PseudoPot. # 2 for Ir read from file:
     /home/camp/zhonxu/pseudo/ir_pbe_v1.uspp.F.UPF
     MD5 check sum: abf987a9674477536ede83817f8f8b70
     Pseudo is Ultrasoft + core correction, Zval = 15.0
     Generated by new atomic code, or converted to UPF format
     Using radial grid of  983 points,  7 beta functions with: 
                l(1) =   0
                l(2) =   0
                l(3) =   1
                l(4) =   1
                l(5) =   1
                l(6) =   2
                l(7) =   2
     Q(r) pseudized with  8 coefficients,  rinner =    1.350   1.350   1.350
                                                       1.350   1.350

     atomic species   valence    mass     pseudopotential
        O0             6.00    15.99940     O ( 1.00)
        Ir1           15.00   192.22000     Ir( 1.00)

      4 Sym. Ops. (no inversion) found



   Cartesian axes

     site n.     atom                  positions (alat units)
         1           O0  tau(   1) = (   0.0000000   0.5047586   1.8867871  )
         2           Ir1 tau(   2) = (   0.2500000   0.5047586   2.0785964  )
         3           Ir1 tau(   3) = (   0.0000000   0.0000000   2.0785964  )
         4           O0  tau(   4) = (   0.2500000   0.8177090   2.0785964  )
         5           O0  tau(   5) = (   0.2500000   0.1918083   2.0785964  )
         6           O0  tau(   6) = (   0.0000000   0.5047586   2.2704058  )
         7           O0  tau(   7) = (   0.0000000   0.0000000   2.3915485  )
         8           Ir1 tau(   8) = (   0.2500000   0.0000000   2.5833579  )
         9           Ir1 tau(   9) = (   0.0000000   0.5047586   2.5833579  )
        10           O0  tau(  10) = (   0.2500000   0.6965669   2.5833579  )
        11           O0  tau(  11) = (   0.2500000   0.3129503   2.5833579  )
        12           O0  tau(  12) = (   0.0000000   0.0000000   2.7751673  )
        13           O0  tau(  13) = (   0.0000000   0.5047586   2.8963100  )
        14           Ir1 tau(  14) = (   0.2500000   0.5047586   3.0881194  )
        15           Ir1 tau(  15) = (   0.0000000   0.0000000   3.0881194  )
        16           O0  tau(  16) = (   0.2500000   0.8177090   3.0881194  )
        17           O0  tau(  17) = (   0.2500000   0.1918083   3.0881194  )
        18           O0  tau(  18) = (   0.0000000   0.5047586   3.2799287  )
        19           O0  tau(  19) = (   0.0000000   0.0000000   3.4010715  )
        20           Ir1 tau(  20) = (   0.2500000   0.0000000   3.5928809  )
        21           Ir1 tau(  21) = (   0.0000000   0.5047586   3.5928809  )
        22           O0  tau(  22) = (   0.2500000   0.6965669   3.5928809  )
        23           O0  tau(  23) = (   0.2500000   0.3129503   3.5928809  )
        24           O0  tau(  24) = (   0.0000000   0.0000000   3.7846902  )
        25           O0  tau(  25) = (   0.5000000   0.5047586   1.8867871  )
        26           Ir1 tau(  26) = (   0.7500000   0.5047586   2.0785964  )
        27           Ir1 tau(  27) = (   0.5000000   0.0000000   2.0785964  )
        28           O0  tau(  28) = (   0.7500000   0.8177090   2.0785964  )
        29           O0  tau(  29) = (   0.7500000   0.1918083   2.0785964  )
        30           O0  tau(  30) = (   0.5000000   0.5047586   2.2704058  )
        31           O0  tau(  31) = (   0.5000000   0.0000000   2.3915485  )
        32           Ir1 tau(  32) = (   0.7500000   0.0000000   2.5833579  )
        33           Ir1 tau(  33) = (   0.5000000   0.5047586   2.5833579  )
        34           O0  tau(  34) = (   0.7500000   0.6965669   2.5833579  )
        35           O0  tau(  35) = (   0.7500000   0.3129503   2.5833579  )
        36           O0  tau(  36) = (   0.5000000   0.0000000   2.7751673  )
        37           O0  tau(  37) = (   0.5000000   0.5047586   2.8963100  )
        38           Ir1 tau(  38) = (   0.7500000   0.5047586   3.0881194  )
        39           Ir1 tau(  39) = (   0.5000000   0.0000000   3.0881194  )
        40           O0  tau(  40) = (   0.7500000   0.8177090   3.0881194  )
        41           O0  tau(  41) = (   0.7500000   0.1918083   3.0881194  )
        42           O0  tau(  42) = (   0.5000000   0.5047586   3.2799287  )
        43           O0  tau(  43) = (   0.5000000   0.0000000   3.4010715  )
        44           Ir1 tau(  44) = (   0.7500000   0.0000000   3.5928809  )
        45           Ir1 tau(  45) = (   0.5000000   0.5047586   3.5928809  )
        46           O0  tau(  46) = (   0.7500000   0.6965669   3.5928809  )
        47           O0  tau(  47) = (   0.7500000   0.3129503   3.5928809  )
        48           O0  tau(  48) = (   0.5000000   0.0000000   3.7846902  )

     number of k points=     9  Methfessel-Paxton smearing, width (Ry)=  0.0100
                       cart. coord. in units 2pi/alat
        k(    1) = (   0.0000000   0.0000000   0.0000000), wk =   0.1250000
        k(    2) = (   0.0000000   0.2476431   0.0000000), wk =   0.2500000
        k(    3) = (   0.0000000  -0.4952862   0.0000000), wk =   0.1250000
        k(    4) = (   0.2500000   0.0000000   0.0000000), wk =   0.2500000
        k(    5) = (   0.2500000   0.2476431   0.0000000), wk =   0.5000000
        k(    6) = (   0.2500000  -0.4952862   0.0000000), wk =   0.2500000
        k(    7) = (  -0.5000000   0.0000000   0.0000000), wk =   0.1250000
        k(    8) = (  -0.5000000   0.2476431   0.0000000), wk =   0.2500000
        k(    9) = (  -0.5000000  -0.4952862   0.0000000), wk =   0.1250000

     Dense  grid:  1876595 G-vectors     FFT dimensions: (  90,  90, 486)

     Smooth grid:   339995 G-vectors     FFT dimensions: (  50,  50, 288)

     Largest allocated arrays     est. size (Mb)     dimensions
        Kohn-Sham Wavefunctions        17.06 Mb     (   1792,  624)
        NL pseudopotentials            20.56 Mb     (   1792,  752)
        Each V/rho on FFT grid          2.60 Mb     ( 170100)
        Each G-vector array             0.60 Mb     (  78196)
        G-vector shells                 0.29 Mb     (  37467)
     Largest temporary arrays     est. size (Mb)     dimensions
        Auxiliary wavefunctions        68.25 Mb     (   1792, 2496)
        Each subspace H/S matrix       95.06 Mb     (2496,2496)
        Each <psi_i|beta_j> matrix      7.16 Mb     (    752,  624)
        Arrays for rho mixing          20.76 Mb     ( 170100,   8)

     Check: negative/imaginary core charge=   -0.000003    0.000000

     Initial potential from superposition of free atoms
     Check: negative starting charge=   -6.670336

     starting charge  423.99945, renormalised to  432.00000

     negative rho (up, down):  0.680E+01 0.000E+00
     Starting wfc are  320 randomized atomic wfcs

     total cpu time spent up to now is      152.9 secs

     per-process dynamical memory:   264.5 Mb

     Self-consistent Calculation

     iteration #  1     ecut=    40.00 Ry     beta=0.70
     Davidson diagonalization with overlap
     ethr =  1.00E-02,  avg # of iterations =  8.3

     negative rho (up, down):  0.582E+01 0.000E+00

     total cpu time spent up to now is     1853.5 secs

     total energy              =   -3987.18971803 Ry
     Harris-Foulkes estimate   =   -4019.26735261 Ry
     estimated scf accuracy    <      39.00603361 Ry

     iteration #  2     ecut=    40.00 Ry     beta=0.70
     Davidson diagonalization with overlap
     ethr =  9.03E-03,  avg # of iterations =  4.0

     negative rho (up, down):  0.540E+01 0.000E+00

     total cpu time spent up to now is     2794.4 secs

     total energy              =   -3915.61683564 Ry
     Harris-Foulkes estimate   =   -4072.82969952 Ry
     estimated scf accuracy    <     961.59432756 Ry

     iteration #  3     ecut=    40.00 Ry     beta=0.70
     Davidson diagonalization with overlap
     ethr =  9.03E-03,  avg # of iterations =  6.2

     negative rho (up, down):  0.475E+01 0.000E+00

     total cpu time spent up to now is     4114.2 secs

     total energy              =   -3900.61122846 Ry
     Harris-Foulkes estimate   =   -4104.68313295 Ry
     estimated scf accuracy    <    4250.74860920 Ry

     iteration #  4     ecut=    40.00 Ry     beta=0.70
     Davidson diagonalization with overlap
     ethr =  9.03E-03,  avg # of iterations =  4.0

     negative rho (up, down):  0.519E+01 0.000E+00

     total cpu time spent up to now is     5087.3 secs

     total energy              =   -4004.21375174 Ry
     Harris-Foulkes estimate   =   -4016.44278806 Ry
     estimated scf accuracy    <     110.89339080 Ry

     iteration #  5     ecut=    40.00 Ry     beta=0.70
     Davidson diagonalization with overlap
     ethr =  9.03E-03,  avg # of iterations =  4.9

     negative rho (up, down):  0.531E+01 0.000E+00

     total cpu time spent up to now is     5886.1 secs

     total energy              =   -4008.99958720 Ry
     Harris-Foulkes estimate   =   -4011.60931694 Ry
     estimated scf accuracy    <      18.40850194 Ry

     iteration #  6     ecut=    40.00 Ry     beta=0.70
     Davidson diagonalization with overlap
     ethr =  4.26E-03,  avg # of iterations =  3.1

     negative rho (up, down):  0.539E+01 0.000E+00

     total cpu time spent up to now is     6423.6 secs

     total energy              =   -4008.79780365 Ry
     Harris-Foulkes estimate   =   -4010.97026562 Ry
     estimated scf accuracy    <      22.67972973 Ry

     iteration #  7     ecut=    40.00 Ry     beta=0.70
     Davidson diagonalization with overlap
     ethr =  4.26E-03,  avg # of iterations =  1.2

     negative rho (up, down):  0.541E+01 0.000E+00

     total cpu time spent up to now is     6844.5 secs

     total energy              =   -4009.65543116 Ry
     Harris-Foulkes estimate   =   -4010.59088089 Ry
     estimated scf accuracy    <      25.12756450 Ry

     iteration #  8     ecut=    40.00 Ry     beta=0.70
     Davidson diagonalization with overlap
     ethr =  4.26E-03,  avg # of iterations =  1.0

     negative rho (up, down):  0.551E+01 0.000E+00

     total cpu time spent up to now is     7258.4 secs

     total energy              =   -4009.76082828 Ry
     Harris-Foulkes estimate   =   -4010.65243692 Ry
     estimated scf accuracy    <      31.29666064 Ry

     iteration #  9     ecut=    40.00 Ry     beta=0.70
     Davidson diagonalization with overlap
     ethr =  4.26E-03,  avg # of iterations =  1.0

     negative rho (up, down):  0.557E+01 0.000E+00

     total cpu time spent up to now is     7672.6 secs

     total energy              =   -4009.97494533 Ry
     Harris-Foulkes estimate   =   -4010.15803666 Ry
     estimated scf accuracy    <       1.56075874 Ry

     iteration # 10     ecut=    40.00 Ry     beta=0.70
     Davidson diagonalization with overlap
     ethr =  3.61E-04,  avg # of iterations =  4.4

     negative rho (up, down):  0.582E+01 0.000E+00

     total cpu time spent up to now is     8295.6 secs

     total energy              =   -4009.77754125 Ry
     Harris-Foulkes estimate   =   -4010.08537122 Ry
     estimated scf accuracy    <       1.46649550 Ry

     iteration # 11     ecut=    40.00 Ry     beta=0.70
     Davidson diagonalization with overlap
     ethr =  3.39E-04,  avg # of iterations =  4.8

     negative rho (up, down):  0.606E+01 0.000E+00

     total cpu time spent up to now is     8920.7 secs

     total energy              =   -4009.43643074 Ry
     Harris-Foulkes estimate   =   -4010.05279883 Ry
     estimated scf accuracy    <       4.28801300 Ry

     iteration # 12     ecut=    40.00 Ry     beta=0.70
     Davidson diagonalization with overlap
     ethr =  3.39E-04,  avg # of iterations =  5.7

     negative rho (up, down):  0.619E+01 0.000E+00

     total cpu time spent up to now is     9655.4 secs

     total energy              =   -4008.89803381 Ry
     Harris-Foulkes estimate   =   -4010.26252775 Ry
     estimated scf accuracy    <      15.84492792 Ry

     iteration # 13     ecut=    40.00 Ry     beta=0.70
     Davidson diagonalization with overlap
     ethr =  3.39E-04,  avg # of iterations =  7.9

     negative rho (up, down):  0.616E+01 0.000E+00

     total cpu time spent up to now is    10717.9 secs

     total energy              =   -4009.44498458 Ry
     Harris-Foulkes estimate   =   -4009.74198280 Ry
     estimated scf accuracy    <       1.95684159 Ry

     iteration # 14     ecut=    40.00 Ry     beta=0.70
     Davidson diagonalization with overlap
     ethr =  3.39E-04,  avg # of iterations =  4.2

     negative rho (up, down):  0.620E+01 0.000E+00

     total cpu time spent up to now is    11294.6 secs

     total energy              =   -4009.46629320 Ry
     Harris-Foulkes estimate   =   -4009.77926034 Ry
     estimated scf accuracy    <       1.81272857 Ry

     iteration # 15     ecut=    40.00 Ry     beta=0.70
     Davidson diagonalization with overlap
     ethr =  3.39E-04,  avg # of iterations =  1.6

     negative rho (up, down):  0.622E+01 0.000E+00

     total cpu time spent up to now is    11724.0 secs

     total energy              =   -4009.52339120 Ry
     Harris-Foulkes estimate   =   -4009.73683462 Ry
     estimated scf accuracy    <       1.33104657 Ry

     iteration # 16     ecut=    40.00 Ry     beta=0.70
     Davidson diagonalization with overlap
     ethr =  3.08E-04,  avg # of iterations =  1.2

     negative rho (up, down):  0.624E+01 0.000E+00

     total cpu time spent up to now is    12130.7 secs

     total energy              =   -4009.58638176 Ry
     Harris-Foulkes estimate   =   -4009.68040808 Ry
     estimated scf accuracy    <       1.16846474 Ry

     iteration # 17     ecut=    40.00 Ry     beta=0.70
     Davidson diagonalization with overlap
     ethr =  2.70E-04,  avg # of iterations =  1.2

     negative rho (up, down):  0.624E+01 0.000E+00

     total cpu time spent up to now is    12541.2 secs

     total energy              =   -4009.61818985 Ry
     Harris-Foulkes estimate   =   -4009.64621564 Ry
     estimated scf accuracy    <       0.15031528 Ry

     iteration # 18     ecut=    40.00 Ry     beta=0.70
     Davidson diagonalization with overlap
     ethr =  3.48E-05,  avg # of iterations =  6.4

     negative rho (up, down):  0.624E+01 0.000E+00

     total cpu time spent up to now is    13330.0 secs

     total energy              =   -4009.36923339 Ry
     Harris-Foulkes estimate   =   -4009.86692402 Ry
     estimated scf accuracy    <      34.36332430 Ry

     iteration # 19     ecut=    40.00 Ry     beta=0.70
     Davidson diagonalization with overlap
     ethr =  3.48E-05,  avg # of iterations =  5.4

     negative rho (up, down):  0.623E+01 0.000E+00

     total cpu time spent up to now is    14047.7 secs

     total energy              =   -4009.62257174 Ry
     Harris-Foulkes estimate   =   -4009.64573008 Ry
     estimated scf accuracy    <       0.20517248 Ry

     iteration # 20     ecut=    40.00 Ry     beta=0.70
     Davidson diagonalization with overlap
     ethr =  3.48E-05,  avg # of iterations =  1.2

     negative rho (up, down):  0.624E+01 0.000E+00

     total cpu time spent up to now is    14468.1 secs

     total energy              =   -4009.62772175 Ry
     Harris-Foulkes estimate   =   -4009.64336318 Ry
     estimated scf accuracy    <       0.14077485 Ry

     iteration # 21     ecut=    40.00 Ry     beta=0.70
     Davidson diagonalization with overlap
     ethr =  3.26E-05,  avg # of iterations =  1.0

     negative rho (up, down):  0.625E+01 0.000E+00

     total cpu time spent up to now is    14882.6 secs

     total energy              =   -4009.63312074 Ry
     Harris-Foulkes estimate   =   -4009.63853041 Ry
     estimated scf accuracy    <       0.03467558 Ry

     iteration # 22     ecut=    40.00 Ry     beta=0.70
     Davidson diagonalization with overlap
     ethr =  8.03E-06,  avg # of iterations =  5.2

     negative rho (up, down):  0.625E+01 0.000E+00

     total cpu time spent up to now is    15548.3 secs

     total energy              =   -4009.62687098 Ry
     Harris-Foulkes estimate   =   -4009.64405739 Ry
     estimated scf accuracy    <       0.24678504 Ry

     iteration # 23     ecut=    40.00 Ry     beta=0.70
     Davidson diagonalization with overlap
     ethr =  8.03E-06,  avg # of iterations =  3.4

     negative rho (up, down):  0.625E+01 0.000E+00

     total cpu time spent up to now is    16093.8 secs

     total energy              =   -4009.63488582 Ry
     Harris-Foulkes estimate   =   -4009.63731929 Ry
     estimated scf accuracy    <       0.03245719 Ry

     iteration # 24     ecut=    40.00 Ry     beta=0.70
     Davidson diagonalization with overlap
     ethr =  7.51E-06,  avg # of iterations =  1.7

     negative rho (up, down):  0.625E+01 0.000E+00

     total cpu time spent up to now is    16542.9 secs

     total energy              =   -4009.63569444 Ry
     Harris-Foulkes estimate   =   -4009.63653751 Ry
     estimated scf accuracy    <       0.00865185 Ry

     iteration # 25     ecut=    40.00 Ry     beta=0.70
     Davidson diagonalization with overlap
     ethr =  2.00E-06,  avg # of iterations =  4.1

     negative rho (up, down):  0.625E+01 0.000E+00

     total cpu time spent up to now is    17121.9 secs

     total energy              =   -4009.63579699 Ry
     Harris-Foulkes estimate   =   -4009.63644581 Ry
     estimated scf accuracy    <       0.00529810 Ry

     iteration # 26     ecut=    40.00 Ry     beta=0.70
     Davidson diagonalization with overlap
     ethr =  1.23E-06,  avg # of iterations =  1.0

     negative rho (up, down):  0.625E+01 0.000E+00

     total cpu time spent up to now is    17535.7 secs

     total energy              =   -4009.63594606 Ry
     Harris-Foulkes estimate   =   -4009.63634928 Ry
     estimated scf accuracy    <       0.00310293 Ry

     iteration # 27     ecut=    40.00 Ry     beta=0.70
     Davidson diagonalization with overlap
     ethr =  7.18E-07,  avg # of iterations =  1.0

     negative rho (up, down):  0.625E+01 0.000E+00

     total cpu time spent up to now is    17949.7 secs

     total energy              =   -4009.63601912 Ry
     Harris-Foulkes estimate   =   -4009.63618995 Ry
     estimated scf accuracy    <       0.00137633 Ry

     iteration # 28     ecut=    40.00 Ry     beta=0.70
     Davidson diagonalization with overlap
     ethr =  3.19E-07,  avg # of iterations =  5.1

     negative rho (up, down):  0.625E+01 0.000E+00

     total cpu time spent up to now is    18592.1 secs

     total energy              =   -4009.63582518 Ry
     Harris-Foulkes estimate   =   -4009.63645549 Ry
     estimated scf accuracy    <       0.02447800 Ry

     iteration # 29     ecut=    40.00 Ry     beta=0.70
     Davidson diagonalization with overlap
     ethr =  3.19E-07,  avg # of iterations =  1.0

     negative rho (up, down):  0.625E+01 0.000E+00

     total cpu time spent up to now is    19006.5 secs

     total energy              =   -4009.63611546 Ry
     Harris-Foulkes estimate   =   -4009.63615441 Ry
     estimated scf accuracy    <       0.00020479 Ry

     iteration # 30     ecut=    40.00 Ry     beta=0.70
     Davidson diagonalization with overlap
     ethr =  4.74E-08,  avg # of iterations =  1.0

     negative rho (up, down):  0.625E+01 0.000E+00

     total cpu time spent up to now is    19419.4 secs

     total energy              =   -4009.63610656 Ry
     Harris-Foulkes estimate   =   -4009.63616025 Ry
     estimated scf accuracy    <       0.00077455 Ry

     iteration # 31     ecut=    40.00 Ry     beta=0.70
     Davidson diagonalization with overlap
     ethr =  4.74E-08,  avg # of iterations =  1.0

     negative rho (up, down):  0.625E+01 0.000E+00

     total cpu time spent up to now is    19832.6 secs

     total energy              =   -4009.63605670 Ry
     Harris-Foulkes estimate   =   -4009.63622529 Ry
     estimated scf accuracy    <       0.00174121 Ry

     iteration # 32     ecut=    40.00 Ry     beta=0.70
     Davidson diagonalization with overlap
     ethr =  4.74E-08,  avg # of iterations =  1.0

     negative rho (up, down):  0.625E+01 0.000E+00

     total cpu time spent up to now is    20259.2 secs

     total energy              =   -4009.63612268 Ry
     Harris-Foulkes estimate   =   -4009.63615756 Ry
     estimated scf accuracy    <       0.00043074 Ry

     iteration # 33     ecut=    40.00 Ry     beta=0.70
     Davidson diagonalization with overlap
     ethr =  4.74E-08,  avg # of iterations =  1.0

     negative rho (up, down):  0.625E+01 0.000E+00

     total cpu time spent up to now is    20692.9 secs

     total energy              =   -4009.63612639 Ry
     Harris-Foulkes estimate   =   -4009.63615528 Ry
     estimated scf accuracy    <       0.00032561 Ry

     iteration # 34     ecut=    40.00 Ry     beta=0.70
     Davidson diagonalization with overlap
     ethr =  4.74E-08,  avg # of iterations =  1.0

     negative rho (up, down):  0.625E+01 0.000E+00

     total cpu time spent up to now is    21126.2 secs

     total energy              =   -4009.63614025 Ry
     Harris-Foulkes estimate   =   -4009.63614190 Ry
     estimated scf accuracy    <       0.00002478 Ry

     iteration # 35     ecut=    40.00 Ry     beta=0.70
     Davidson diagonalization with overlap
     ethr =  5.74E-09,  avg # of iterations =  1.0

     negative rho (up, down):  0.625E+01 0.000E+00

     total cpu time spent up to now is    21559.3 secs

     total energy              =   -4009.63614036 Ry
     Harris-Foulkes estimate   =   -4009.63614177 Ry
     estimated scf accuracy    <       0.00001389 Ry

     iteration # 36     ecut=    40.00 Ry     beta=0.70
     Davidson diagonalization with overlap
     ethr =  3.22E-09,  avg # of iterations =  1.0

     negative rho (up, down):  0.625E+01 0.000E+00

     total cpu time spent up to now is    21992.1 secs

     total energy              =   -4009.63614031 Ry
     Harris-Foulkes estimate   =   -4009.63614190 Ry
     estimated scf accuracy    <       0.00001825 Ry

     iteration # 37     ecut=    40.00 Ry     beta=0.70
     Davidson diagonalization with overlap
     ethr =  3.22E-09,  avg # of iterations =  1.0

     negative rho (up, down):  0.625E+01 0.000E+00

     total cpu time spent up to now is    22424.9 secs

     total energy              =   -4009.63614100 Ry
     Harris-Foulkes estimate   =   -4009.63614124 Ry
     estimated scf accuracy    <       0.00000156 Ry

     iteration # 38     ecut=    40.00 Ry     beta=0.70
     Davidson diagonalization with overlap
     ethr =  3.60E-10,  avg # of iterations =  1.0

     negative rho (up, down):  0.625E+01 0.000E+00

     total cpu time spent up to now is    22847.0 secs

     total energy              =   -4009.63614073 Ry
     Harris-Foulkes estimate   =   -4009.63614157 Ry
     estimated scf accuracy    <       0.00001490 Ry

     iteration # 39     ecut=    40.00 Ry     beta=0.70
     Davidson diagonalization with overlap
     ethr =  3.60E-10,  avg # of iterations =  1.0

     negative rho (up, down):  0.625E+01 0.000E+00

     total cpu time spent up to now is    23260.9 secs

     End of self-consistent calculation

          k = 0.0000 0.0000 0.0000 ( 42445 PWs)   bands (ev):

   -49.4440 -49.4439 -49.4221 -49.4221 -49.3922 -49.3916 -49.3840 -49.3838
   -49.3822 -49.3818 -49.3752 -49.3748 -49.3710 -49.3705 -49.3624 -49.3621
   -49.3410 -49.3397 -49.3191 -49.3179 -49.2380 -49.2377 -49.2230 -49.2228
   -49.2015 -49.2011 -49.1488 -49.1487 -49.1356 -49.1354 -49.1124 -49.1122
   -49.1015 -49.1012 -49.0176 -49.0174 -49.0115 -49.0113 -49.0079 -49.0077
   -48.9202 -48.9198 -48.9057 -48.9053 -48.7533 -48.7531 -48.7383 -48.7382
   -19.9661 -19.7080 -19.4603 -19.3899 -19.2926 -19.0210 -18.7606 -18.7482
   -18.6407 -18.6339 -18.5925 -18.5820 -18.5477 -18.5437 -18.5287 -18.5127
   -18.4548 -18.4145 -18.3701 -18.3609 -18.1779 -18.1746 -18.1712 -18.1164
   -17.9499 -17.9011 -17.8514 -17.8336 -16.6106 -16.6103 -16.5762 -16.5726
    -8.5304  -8.5029  -8.4256  -8.4211  -8.1443  -8.1210  -7.3268  -7.3063
    -6.9656  -6.9591  -6.9450  -6.9349  -6.9293  -6.9203  -6.9103  -6.8954
    -6.8230  -6.7944  -6.7767  -6.7609  -6.7602  -6.7539  -6.6386  -6.6036
    -6.5743  -6.4793  -6.4718  -6.3639  -6.2954  -6.2843  -6.2303  -6.2035
    -6.1917  -5.9914  -5.9908  -5.9892  -5.9505  -5.7997  -5.4934  -5.3325
    -5.2147  -4.7673  -4.7407  -4.6194  -4.6054  -4.5488  -4.5389  -4.5159
    -4.5139  -4.3988  -4.3923  -4.2406  -4.2184  -4.1988  -4.0733  -3.9791
    -3.9737  -3.9161  -3.9002  -3.8563  -3.6636  -3.5777  -3.5419  -3.5057
    -3.3977  -3.3905  -3.3885  -3.3048  -3.2943  -3.2743  -3.2715  -3.2150
    -3.2146  -3.1248  -3.0720  -3.0556  -2.8795  -2.8677  -2.8149  -2.5788
    -2.4628  -2.3875  -2.3708  -2.3341  -2.3052  -2.2881  -2.1784  -2.1780
    -2.1177  -2.0867  -1.9081  -1.7354  -1.6547  -1.4968  -1.4604  -1.4264
    -1.4191  -1.3768  -1.3747  -1.3593  -1.2397  -1.1948  -1.1945  -1.1659
    -1.1445  -1.0496  -1.0295  -0.9644  -0.9502  -0.9372  -0.8943  -0.8818
    -0.8391  -0.6723  -0.6403  -0.6033  -0.6024  -0.5231  -0.5118  -0.4871
    -0.4857  -0.4778  -0.2239  -0.0477   0.0160   0.0541   0.1354   0.2102
     0.2158   0.2321   0.5463   0.6064   0.6576   0.9181   0.9565   1.0066
     1.0711   1.0801   1.0963   1.1465   1.2401   1.2622   1.4309   1.5288
     1.6215   1.7626   1.8979   2.1009   2.4478   2.5780   2.6785   3.0040
     3.1904   3.2134   3.4164   3.4165   3.4597   3.5357   3.5359   3.5976
     3.6856   3.9181   4.0828   4.0991   4.3521   4.7219   4.7249   4.8332
     4.9343   5.0957   5.1026   5.1603   5.2865   5.2866   5.4886   5.4919
     5.8253   5.9610   6.2009   6.4135   6.5548   7.0027   7.1163   7.7948
     7.8856   7.9528   7.9574   8.6908   8.8700   9.0530   9.0544   9.1511
     9.1525   9.2995   9.4443   9.5468   9.6093   9.6393   9.6792   9.8752
     9.9764  10.0121  10.0317  10.0383  10.0830  10.0853  10.1285  10.1441
    10.1589  10.2360  10.2489  10.2636  10.3125  10.3309  10.3686  10.3786
    10.4134  10.5109  10.5113  10.5113  10.5129  10.5427  10.5439  10.5440
    10.5445  10.5541  10.5571  10.5784  10.6422  10.6937  10.6941  10.6944
    10.6947  10.7378  10.8365  10.8374  10.8375  10.8389  10.9213  10.9934
    10.9968  11.0921  11.1552  11.1710  11.2336  11.2469  11.3228  11.5770
    11.6042  11.6236  11.9789  11.9940  12.1500  12.1692  12.1701  12.1748
    12.2066  12.2274  12.2460  12.2836  12.2857  12.2867  12.5521  12.6468
    12.6932  12.8579  12.9508  12.9886  12.9971  13.0055  13.0104  13.1018
    13.1178  13.3296  13.4218  13.4546  13.4684  13.5484  13.6037  13.6872
    13.6913  13.7003  13.7074  13.7207  13.7417  13.7696  13.7841  13.8006
    13.8588  13.9051  13.9596  13.9960  13.9985  14.0193  14.0299  14.1415
    14.1587  14.1665  14.2033  14.2156  14.2621  14.2984  14.5727  14.5823
    14.5882  14.6333  14.8667  14.9312  14.9567  15.0083  15.0195  15.0303
    15.1390  15.1439  15.1546  15.1812  15.2270  15.2619  15.3934  15.5053
    15.6243  15.6871  15.7198  15.7967  16.0615  16.0836  16.1302  16.2241
    16.2636  16.2843  16.3264  16.4124  16.4504  16.5095  16.5740  16.6039
    16.6754  16.6876  16.7004  16.7147  16.8311  16.8938  16.9200  17.1304
    17.2308  17.2978  17.2988  17.3441  17.4298  17.4445  17.4466  17.4974
    17.6194  17.6289  17.7346  17.7433  17.7834  17.8188  17.8494  17.8961
    17.9016  18.1274  18.1952  18.2012  18.3696  18.4628  18.6280  18.6351
    18.6609  18.6736  18.6959  18.8685  18.9358  19.0079  19.0250  19.0472
    19.0509  19.1440  19.2361  19.2752  19.3228  19.3495  19.5110  19.5156
    19.5167  19.6352  19.6465  19.7838  19.8541  19.8789  19.9098  20.1298
    20.1812  20.1822  20.1966  20.3200  20.3278  20.3807  20.4766  20.5209
    20.5284  20.5818  20.6634  20.6702  20.7491  20.8379  20.8714  20.9217
    20.9806  20.9813  20.9914  21.0982  21.1317  21.1535  21.2096  21.2632
    21.2796  21.3146  21.3699  21.3898  21.3937  21.4148  21.4327  21.4428
    21.4951  21.5320  21.5384  21.5511  21.5523  21.6005  21.6750  21.7132
    21.7328  21.8502  21.8973  21.9506  22.0619  22.0791  22.0949  22.1441
    22.1638  22.1954  22.2568  22.2685  22.3051  22.3086  22.3208  22.4028
    22.4452  22.5875  22.6351  22.6405  22.6679  22.7110  22.7595  22.7651
    22.9402  22.9834  22.9944  23.0031  23.0099  23.0337  23.0425  23.1413
    23.2025  23.2532  23.2785  23.3199  23.3505  23.3567  23.5383  23.6302
    23.7373  23.7951  23.7966  23.8004  23.8657  23.9131  23.9409  23.9704
    24.0795  24.1071  24.1100  24.1340  24.1601  24.2043  24.2147  24.2834
    24.3157  24.4113  24.4217  24.4757  24.5153  24.5289  24.5924  24.6336
    24.6701  24.6827  24.6832  24.6863  24.7305  24.7374  24.8226  24.8325
    24.8800  24.8820  24.8896  24.9052  24.9320  24.9407  24.9583  24.9825
    25.0205  25.0308  25.0428  25.1392  25.1490  25.1992  25.2293  25.2437
    25.2521  25.2652  25.2941  25.3132  25.3469  25.4341  25.4544  25.5162
    25.5301  25.5404  25.5518  25.6046  25.6234  25.6643  25.6931  25.6937
    25.6974  25.7408  25.7620  25.7763  25.7950  25.8096  25.8147  25.9406

          k = 0.0000 0.2476 0.0000 ( 42440 PWs)   bands (ev):

   -49.4441 -49.4440 -49.4238 -49.4238 -49.3921 -49.3917 -49.3840 -49.3838
   -49.3818 -49.3815 -49.3756 -49.3752 -49.3699 -49.3696 -49.3607 -49.3605
   -49.3406 -49.3396 -49.3193 -49.3184 -49.2379 -49.2378 -49.2230 -49.2228
   -49.2016 -49.2012 -49.1498 -49.1497 -49.1355 -49.1354 -49.1119 -49.1118
   -49.1015 -49.1011 -49.0176 -49.0174 -49.0114 -49.0113 -49.0079 -49.0077
   -48.9202 -48.9198 -48.9057 -48.9053 -48.7537 -48.7535 -48.7383 -48.7381
   -19.8554 -19.5998 -19.3465 -19.3315 -19.2529 -19.0457 -18.7566 -18.7478
   -18.7201 -18.6975 -18.6581 -18.6575 -18.6356 -18.6160 -18.5964 -18.5303
   -18.3166 -18.3056 -18.2702 -18.2689 -18.1799 -18.1776 -18.1610 -18.1595
   -18.0710 -18.0303 -17.9916 -17.9648 -16.6100 -16.6097 -16.5714 -16.5690
    -8.1776  -8.1488  -8.0215  -7.9992  -7.9245  -7.9169  -7.3003  -7.2862
    -7.2740  -7.2105  -7.0178  -7.0048  -6.9589  -6.9268  -6.8600  -6.8481
    -6.8287  -6.8070  -6.8012  -6.7932  -6.7140  -6.6906  -6.6903  -6.6760
    -6.6688  -6.6206  -6.4845  -6.3489  -6.2595  -6.2005  -6.1980  -6.1919
    -6.1778  -5.7516  -5.5839  -5.5187  -5.4735  -5.4338  -5.1807  -5.0840
    -5.0212  -4.8781  -4.7794  -4.6950  -4.6839  -4.6701  -4.6430  -4.6423
    -4.5974  -4.5852  -4.5315  -4.5274  -4.5260  -4.4454  -4.3836  -4.3591
    -4.2300  -4.0933  -4.0395  -3.9986  -3.7408  -3.7349  -3.7310  -3.7013
    -3.6977  -3.6338  -3.5934  -3.5067  -3.4910  -3.4426  -3.3629  -3.3420
    -3.2496  -3.2456  -3.1569  -3.0534  -2.8509  -2.8092  -2.7976  -2.6724
    -2.6150  -2.5486  -2.5459  -2.4947  -2.4074  -2.1939  -2.1655  -2.1504
    -2.1305  -2.1104  -2.0537  -2.0106  -1.6505  -1.6477  -1.5547  -1.5470
    -1.3508  -1.0715  -1.0602  -1.0577  -1.0539  -1.0173  -0.9403  -0.9299
    -0.8692  -0.8556  -0.8524  -0.8186  -0.8053  -0.8029  -0.7824  -0.7400
    -0.6979  -0.6569  -0.6232  -0.6111  -0.6016  -0.5557  -0.5542  -0.5218
    -0.5004  -0.4847  -0.4839  -0.4757  -0.4534  -0.3849  -0.0492   0.1201
     0.2210   0.2335   0.6843   0.9073   0.9377   1.0688   1.1164   1.1275
     1.1669   1.1955   1.2399   1.2590   1.2838   1.3923   1.4045   1.5001
     1.5729   1.6742   1.6829   1.9141   2.3858   2.4212   2.6240   2.6244
     2.6384   2.6989   2.9519   3.5039   3.5542   3.5975   3.9045   4.0742
     4.5343   4.6834   4.7221   4.7225   4.8126   4.8437   4.8459   4.9097
     4.9816   4.9827   5.0045   5.0376   5.0396   5.2967   5.4908   5.4928
     5.8121   6.0291   6.2727   6.6117   6.7561   7.1616   7.3091   7.6984
     7.9041   8.0580   8.0885   8.0917   8.2007   8.4439   8.6716   8.6718
     8.8280   8.9900   9.1230   9.1589   9.1594   9.1831   9.3910   9.4946
     9.7747   9.8653  10.0502  10.2297  10.2367  10.2374  10.2487  10.2925
    10.3100  10.3407  10.4130  10.4311  10.4385  10.4397  10.4912  10.5106
    10.5113  10.5115  10.5119  10.5420  10.5441  10.5442  10.5445  10.6445
    10.6596  10.6641  10.6923  10.6938  10.6940  10.6943  10.7344  10.7391
    10.8321  10.8374  10.8376  10.8378  10.8411  10.9742  11.0584  11.0715
    11.1668  11.2370  11.2716  11.3634  11.4055  11.5569  11.5661  11.6397
    11.6932  11.7322  11.8066  11.8618  11.9940  12.0246  12.1126  12.1206
    12.2190  12.2286  12.2553  12.2926  12.3065  12.3191  12.3450  12.4714
    12.4739  12.6914  12.7035  12.7801  12.8282  12.8560  12.9096  12.9587
    13.0634  13.1061  13.1161  13.1168  13.4289  13.4406  13.5261  13.6126
    13.6251  13.6297  13.6655  13.8203  13.8589  13.8734  13.9145  13.9423
    13.9427  14.0432  14.0682  14.0753  14.0846  14.2134  14.2866  14.3951
    14.5136  14.5196  14.5212  14.6761  14.7012  14.8072  14.8103  14.8792
    14.9630  14.9943  15.0532  15.1015  15.1414  15.2637  15.2861  15.3235
    15.4029  15.4578  15.5572  15.6059  15.6326  15.7478  15.7759  15.7770
    15.7878  15.8458  16.0156  16.1008  16.1206  16.1274  16.1743  16.2924
    16.3512  16.4356  16.4932  16.5375  16.5436  16.6074  16.6126  16.6919
    16.7183  16.8070  16.9319  16.9429  16.9700  16.9817  16.9896  17.3500
    17.4863  17.4919  17.4949  17.5355  17.5545  17.7086  17.7105  17.7309
    17.7391  17.7456  17.7488  17.7930  17.8202  17.8711  17.9649  17.9653
    17.9892  18.0248  18.0320  18.0489  18.1763  18.2778  18.3132  18.3619
    18.3932  18.4867  18.5444  18.6038  18.6271  18.6539  18.7471  18.8948
    18.8998  18.9194  18.9202  18.9915  19.0462  19.0513  19.0851  19.2050
    19.2724  19.2769  19.3183  19.3534  19.3732  19.4708  19.5333  19.5516
    19.5915  19.6491  19.7748  19.9065  20.0279  20.1396  20.1420  20.2675
    20.2734  20.3038  20.3083  20.3708  20.4398  20.4534  20.5420  20.6752
    20.7835  20.8653  20.8787  20.8868  20.8904  20.9511  20.9809  21.1006
    21.1844  21.1908  21.2341  21.2435  21.2972  21.2997  21.3112  21.3528
    21.3554  21.3727  21.3918  21.4045  21.4898  21.4940  21.5319  21.5453
    21.6039  21.6113  21.6610  21.6950  21.7246  21.7530  21.7932  21.9230
    21.9956  22.0061  22.0221  22.0311  22.0518  22.0736  22.1768  22.2417
    22.2835  22.2964  22.3299  22.3791  22.4107  22.4962  22.5679  22.5851
    22.6062  22.7211  22.7399  22.7906  22.8130  22.8503  22.8585  22.9063
    22.9847  22.9881  22.9981  23.1531  23.1664  23.1741  23.2285  23.2358
    23.2418  23.3366  23.3837  23.4571  23.4931  23.5335  23.5339  23.5350
    23.6789  23.7005  23.7175  23.7575  23.7835  23.7954  23.8308  23.8795
    23.8989  23.9304  23.9941  24.0420  24.0832  24.1256  24.2121  24.2294
    24.2954  24.3008  24.3937  24.3941  24.4572  24.5113  24.5497  24.5913
    24.6271  24.6845  24.7625  24.8105  24.8887  24.9220  24.9245  24.9358
    24.9783  25.0279  25.0395  25.0407  25.0538  25.1413  25.2112  25.2356
    25.2637  25.2646  25.3525  25.5432  25.5616  25.5718  25.6228  25.7185
    25.7279  25.7588  25.7960  25.8098  25.8149  25.8699  25.8699  25.8832
    25.9024  25.9414  26.0416  26.0453  26.1261  26.1537  26.1875  26.2482

          k = 0.0000-0.4953 0.0000 ( 42460 PWs)   bands (ev):

   -49.4442 -49.4441 -49.4254 -49.4254 -49.3919 -49.3919 -49.3839 -49.3839
   -49.3815 -49.3811 -49.3760 -49.3757 -49.3688 -49.3688 -49.3590 -49.3589
   -49.3398 -49.3398 -49.3191 -49.3191 -49.2379 -49.2378 -49.2229 -49.2228
   -49.2016 -49.2013 -49.1508 -49.1507 -49.1354 -49.1353 -49.1115 -49.1113
   -49.1014 -49.1010 -49.0176 -49.0174 -49.0114 -49.0113 -49.0080 -49.0078
   -48.9202 -48.9198 -48.9057 -48.9053 -48.7540 -48.7539 -48.7382 -48.7380
   -19.6156 -19.6156 -19.2648 -19.2648 -19.0408 -19.0407 -18.7705 -18.7704
   -18.7529 -18.7528 -18.7500 -18.7499 -18.7237 -18.7237 -18.5730 -18.5730
   -18.2430 -18.2430 -18.2202 -18.2201 -18.2045 -18.2045 -18.1812 -18.1812
   -18.1782 -18.1782 -18.0694 -18.0694 -16.6094 -16.6091 -16.5670 -16.5667
    -8.1479  -8.1479  -7.4461  -7.4460  -7.2775  -7.2775  -7.2601  -7.2600
    -7.2308  -7.2307  -7.1323  -7.1323  -6.9426  -6.9426  -6.8041  -6.8040
    -6.7652  -6.7652  -6.6930  -6.6929  -6.6339  -6.6339  -6.6135  -6.6135
    -6.5701  -6.5700  -6.5372  -6.5371  -6.1938  -6.1936  -6.1794  -6.1793
    -5.6994  -5.6994  -5.6970  -5.6970  -5.5379  -5.5378  -5.4838  -5.4837
    -5.1863  -5.1862  -4.8463  -4.8463  -4.7579  -4.7579  -4.7187  -4.7186
    -4.6865  -4.6865  -4.5552  -4.5552  -4.4936  -4.4935  -4.3932  -4.3932
    -4.1938  -4.1937  -4.1564  -4.1563  -4.0452  -4.0452  -4.0223  -4.0223
    -3.7510  -3.7510  -3.7484  -3.7484  -3.6669  -3.6669  -3.6316  -3.6316
    -3.0995  -3.0994  -3.0959  -3.0957  -2.7069  -2.7068  -2.5655  -2.5653
    -2.5653  -2.5653  -2.3968  -2.3967  -2.2344  -2.2343  -2.1416  -2.1414
    -2.1002  -2.1001  -2.0971  -2.0971  -1.9311  -1.9310  -1.6129  -1.6128
    -1.5257  -1.5256  -1.2311  -1.2311  -1.1351  -1.1350  -1.0549  -1.0548
    -0.9903  -0.9903  -0.9012  -0.9012  -0.7885  -0.7885  -0.5801  -0.5801
    -0.5421  -0.5421  -0.5254  -0.5253  -0.4780  -0.4777  -0.3492  -0.3491
    -0.3438  -0.3437  -0.2866  -0.2865  -0.2163  -0.2161   0.1341   0.1342
     0.3019   0.3020   0.5843   0.5844   1.0267   1.0267   1.0409   1.0409
     1.1547   1.1547   1.2961   1.2961   1.5355   1.5356   1.5755   1.5757
     1.6694   1.6695   1.6707   1.6707   2.0107   2.0108   2.2340   2.2340
     2.7013   2.7014   3.5383   3.5384   3.5842   3.5843   4.5667   4.5668
     4.5714   4.5714   4.7194   4.7195   4.7763   4.7764   5.0051   5.0051
     5.1464   5.1465   5.2697   5.2697   5.4921   5.4924   5.5282   5.5283
     5.9933   5.9933   6.9632   6.9633   7.2394   7.2394   7.3911   7.3911
     7.4647   7.4647   7.8847   7.8847   8.0288   8.0288   8.2287   8.2287
     8.5903   8.5903   8.7367   8.7367   9.1510   9.1511   9.4107   9.4107
     9.5759   9.5759  10.2004  10.2004  10.2761  10.2761  10.3369  10.3369
    10.3823  10.3824  10.3845  10.3845  10.5103  10.5103  10.5109  10.5109
    10.5442  10.5443  10.5445  10.5445  10.6451  10.6453  10.6936  10.6938
    10.6941  10.6942  10.8368  10.8370  10.8374  10.8376  10.9408  10.9408
    10.9760  10.9760  11.0160  11.0160  11.0319  11.0319  11.1138  11.1139
    11.2566  11.2566  11.2865  11.2865  11.2980  11.2980  11.4367  11.4367
    11.4908  11.4909  11.6045  11.6045  11.8260  11.8260  11.9132  11.9133
    11.9491  11.9491  12.0616  12.0616  12.1043  12.1043  12.5391  12.5391
    12.6288  12.6289  12.7530  12.7531  12.8684  12.8684  13.0410  13.0410
    13.3667  13.3667  13.4799  13.4799  13.6800  13.6800  13.7574  13.7574
    13.7922  13.7922  13.8303  13.8303  14.0075  14.0075  14.1811  14.1811
    14.2530  14.2531  14.2760  14.2760  14.5666  14.5666  14.5695  14.5695
    14.6829  14.6829  14.7529  14.7529  14.8848  14.8848  14.9714  14.9715
    15.0331  15.0331  15.0941  15.0941  15.0985  15.0985  15.5457  15.5457
    15.6464  15.6465  15.6806  15.6806  15.7604  15.7605  15.7964  15.7964
    15.9295  15.9295  16.3173  16.3173  16.3284  16.3284  16.3389  16.3390
    16.5347  16.5347  16.5421  16.5421  16.7008  16.7008  16.8092  16.8093
    16.9482  16.9483  17.1299  17.1300  17.1832  17.1833  17.4004  17.4004
    17.4904  17.4904  17.5717  17.5717  17.6070  17.6071  17.6947  17.6947
    17.7771  17.7771  17.8879  17.8879  17.9736  17.9737  18.2806  18.2806
    18.2896  18.2896  18.3316  18.3316  18.3520  18.3520  18.3521  18.3521
    18.4442  18.4442  18.4904  18.4905  18.5721  18.5721  18.6061  18.6061
    18.7130  18.7130  18.8060  18.8060  18.8474  18.8474  18.8663  18.8663
    18.9633  18.9633  19.0243  19.0243  19.3247  19.3247  19.3742  19.3742
    19.4028  19.4028  19.5009  19.5009  19.6292  19.6293  19.7856  19.7857
    19.7944  19.7945  19.8871  19.8871  20.0225  20.0225  20.0367  20.0367
    20.1340  20.1340  20.3749  20.3749  20.5707  20.5708  20.6351  20.6351
    20.7681  20.7682  20.7799  20.7799  20.8823  20.8823  20.9123  20.9123
    20.9616  20.9616  21.2530  21.2530  21.3322  21.3323  21.4348  21.4348
    21.5083  21.5083  21.6092  21.6093  21.7015  21.7016  21.8535  21.8535
    21.8971  21.8971  21.9357  21.9357  22.0046  22.0046  22.1508  22.1508
    22.1933  22.1933  22.2236  22.2236  22.2782  22.2783  22.3470  22.3470
    22.4533  22.4533  22.5189  22.5189  22.5670  22.5670  22.6487  22.6487
    22.7245  22.7245  22.7930  22.7930  22.9037  22.9038  22.9988  22.9988
    23.0272  23.0272  23.0750  23.0750  23.0958  23.0958  23.1773  23.1773
    23.2647  23.2648  23.5658  23.5659  23.5789  23.5789  23.6484  23.6484
    23.6631  23.6632  23.6848  23.6848  23.9628  23.9628  23.9841  23.9841
    24.0230  24.0230  24.1632  24.1632  24.1942  24.1942  24.5758  24.5758
    24.6879  24.6879  24.6986  24.6987  24.8292  24.8292  24.8634  24.8634
    25.0677  25.0677  25.0816  25.0816  25.0896  25.0896  25.1968  25.1968
    25.2951  25.2951  25.3763  25.3763  25.4396  25.4396  25.5576  25.5576
    25.6141  25.6141  25.9415  25.9416  25.9553  25.9553  26.0321  26.0321
    26.0611  26.0612  26.1462  26.1462  26.2477  26.2477  26.4891  26.4895

          k = 0.2500 0.0000 0.0000 ( 42464 PWs)   bands (ev):

   -49.4293 -49.4291 -49.4071 -49.4070 -49.3913 -49.3908 -49.3849 -49.3846
   -49.3812 -49.3808 -49.3762 -49.3758 -49.3697 -49.3693 -49.3636 -49.3634
   -49.3559 -49.3548 -49.3344 -49.3333 -49.2357 -49.2356 -49.2252 -49.2250
   -49.1870 -49.1866 -49.1468 -49.1468 -49.1375 -49.1374 -49.1163 -49.1160
   -49.0972 -49.0970 -49.0233 -49.0231 -49.0167 -49.0165 -49.0123 -49.0122
   -48.9181 -48.9177 -48.9078 -48.9074 -48.7511 -48.7509 -48.7405 -48.7403
   -19.8234 -19.5768 -19.3392 -19.2710 -19.1799 -18.9894 -18.9267 -18.8844
   -18.7547 -18.6634 -18.6305 -18.6302 -18.5740 -18.5182 -18.5165 -18.4845
   -18.3844 -18.3429 -18.2981 -18.2879 -18.2319 -18.2079 -18.1783 -18.1781
   -18.0276 -17.9802 -17.9315 -17.9154 -16.6499 -16.6496 -16.6194 -16.6169
    -8.3422  -8.3297  -8.2499  -8.2460  -7.9747  -7.9545  -7.3338  -7.3136
    -7.2447  -7.2208  -7.1284  -6.9849  -6.9795  -6.9594  -6.9281  -6.9163
    -6.8480  -6.7910  -6.7102  -6.7082  -6.6830  -6.6734  -6.6370  -6.6020
    -6.5561  -6.4869  -6.3160  -6.2727  -6.1822  -6.0809  -6.0353  -6.0233
    -5.9373  -5.9190  -5.8969  -5.8616  -5.8405  -5.7439  -5.3370  -5.3172
    -5.0318  -5.0204  -4.8965  -4.8478  -4.7995  -4.6382  -4.5756  -4.5006
    -4.4909  -4.4407  -4.2753  -4.2573  -4.2094  -4.1953  -4.0538  -4.0275
    -3.9695  -3.9661  -3.9379  -3.9205  -3.8673  -3.8422  -3.8408  -3.8245
    -3.7373  -3.6052  -3.5243  -3.5120  -3.5045  -3.4648  -3.3339  -3.3201
    -3.2884  -3.1716  -3.1133  -3.0978  -3.0786  -3.0181  -2.9989  -2.9263
    -2.8776  -2.8287  -2.7991  -2.7236  -2.5023  -2.4917  -2.4045  -2.2111
    -1.9821  -1.9494  -1.9402  -1.9079  -1.8013  -1.7936  -1.6186  -1.4279
    -1.2476  -1.1650  -1.1182  -1.1026  -0.9901  -0.9652  -0.9500  -0.9495
    -0.9223  -0.8578  -0.8453  -0.8400  -0.8183  -0.7687  -0.7048  -0.6477
    -0.5715  -0.5334  -0.5184  -0.5092  -0.3998  -0.3621  -0.3566  -0.3148
    -0.1221   0.0182   0.0347   0.0398   0.0700   0.2508   0.3443   0.4472
     0.4676   0.5301   0.5670   0.5982   0.6350   0.7499   0.7547   0.8370
     0.8603   1.0704   1.2430   1.2558   1.2834   1.3406   1.3747   1.3749
     1.4012   1.5483   1.7380   1.9394   2.6557   2.7400   2.8428   3.2311
     3.3858   3.4080   3.6037   3.6042   3.6476   3.6580   3.6597   3.6765
     3.6961   3.9483   4.0586   4.1111   4.1128   4.2899   4.6734   4.7011
     4.7025   4.8625   4.8642   4.8904   4.8907   4.9455   5.0013   5.3352
     5.9885   6.1709   6.3653   6.6259   6.7916   7.2009   7.3152   7.3194
     7.4022   8.0010   8.0997   8.4338   8.5927   8.8287   8.8554   8.8717
     9.1071   9.2213   9.3252   9.3261   9.3318   9.5496   9.6425   9.7998
     9.9188   9.9585   9.9710  10.0138  10.1131  10.1134  10.1232  10.2354
    10.2664  10.2668  10.2927  10.3764  10.4737  10.5091  10.5105  10.5110
    10.5115  10.5426  10.5438  10.5439  10.5443  10.5879  10.5929  10.6428
    10.6829  10.6940  10.6940  10.6944  10.6995  10.7699  10.8360  10.8367
    10.8371  10.8377  10.8483  10.8497  10.8501  11.1770  11.1779  11.2028
    11.2647  11.2666  11.3522  11.3623  11.4509  11.4788  11.6268  11.7987
    11.8004  11.8189  11.8307  11.8757  12.0357  12.0767  12.0975  12.2130
    12.2560  12.2585  12.2724  12.3491  12.3653  12.3828  12.4463  12.4724
    12.5108  12.5317  12.5660  12.7659  12.8007  12.8330  12.8662  12.9514
    13.0523  13.0681  13.1214  13.1644  13.2825  13.2907  13.3440  13.4890
    13.5115  13.5444  13.5973  13.6364  13.6518  13.6674  13.8440  13.8455
    13.8987  14.0073  14.0122  14.0217  14.0756  14.1373  14.2551  14.2626
    14.3062  14.3106  14.4697  14.5877  14.6768  14.8904  14.8911  14.8991
    15.0500  15.0697  15.0801  15.1130  15.1330  15.2571  15.2846  15.3091
    15.3208  15.4870  15.5903  15.6234  15.7049  15.7298  15.7496  15.7700
    15.8297  15.9276  16.0052  16.0064  16.1110  16.1218  16.1576  16.1654
    16.3176  16.3234  16.3627  16.3740  16.4032  16.4045  16.4170  16.5044
    16.5543  16.5784  16.6696  16.7353  16.8268  16.8686  16.8829  16.9556
    16.9797  17.0195  17.0724  17.1445  17.1466  17.2179  17.2650  17.3117
    17.3435  17.4294  17.4415  17.7061  17.7073  17.7087  17.8222  17.8764
    17.9123  17.9549  17.9635  18.0574  18.0582  18.1013  18.1337  18.1718
    18.2990  18.3376  18.4574  18.5874  18.5939  18.6183  18.6612  18.7455
    18.8577  19.1195  19.1366  19.1407  19.2155  19.2577  19.3049  19.3255
    19.3789  19.5123  19.5898  19.6322  19.7679  19.7795  19.8410  19.8515
    19.8939  20.1826  20.2379  20.2826  20.3811  20.3993  20.4598  20.4854
    20.5386  20.5865  20.6129  20.6792  20.7575  20.8125  20.8296  20.8679
    20.8690  20.9804  21.1131  21.1225  21.1546  21.2112  21.2215  21.2352
    21.3062  21.3842  21.3956  21.4030  21.4337  21.4649  21.4820  21.4906
    21.4915  21.5668  21.6332  21.6445  21.7141  21.8065  21.8284  21.8325
    21.8448  21.8782  21.9059  21.9222  21.9291  21.9312  21.9387  21.9609
    22.0111  22.0290  22.1912  22.2224  22.2445  22.2970  22.3930  22.4311
    22.4505  22.4526  22.4737  22.4979  22.5174  22.5313  22.5361  22.6026
    22.6841  22.7405  22.8300  22.8563  22.8936  22.8963  22.9009  22.9039
    22.9137  22.9420  22.9808  23.0028  23.0310  23.0927  23.0981  23.1057
    23.1842  23.2002  23.2775  23.3669  23.3674  23.3765  23.3907  23.4021
    23.4100  23.5658  23.5695  23.7305  23.7734  23.7814  23.8084  23.8348
    23.9397  23.9694  24.0445  24.0534  24.0626  24.1126  24.1206  24.1369
    24.1971  24.2124  24.3204  24.3309  24.3341  24.3962  24.4928  24.5089
    24.5551  24.5708  24.7482  24.7877  24.7897  24.8143  24.8471  24.8551
    24.9544  25.0502  25.0888  25.1310  25.1452  25.2579  25.3263  25.3265
    25.3334  25.3345  25.4151  25.4330  25.4506  25.4835  25.6395  25.6693
    25.7010  25.7426  25.7600  25.8104  25.8730  25.8934  25.9108  25.9362
    25.9647  25.9843  25.9929  26.0689  26.0827  26.0844  26.1691  26.1990

          k = 0.2500 0.2476 0.0000 ( 42453 PWs)   bands (ev):

   -49.4293 -49.4292 -49.4091 -49.4090 -49.3912 -49.3909 -49.3849 -49.3847
   -49.3809 -49.3805 -49.3765 -49.3761 -49.3693 -49.3690 -49.3615 -49.3613
   -49.3555 -49.3547 -49.3340 -49.3333 -49.2357 -49.2356 -49.2251 -49.2250
   -49.1870 -49.1867 -49.1477 -49.1476 -49.1376 -49.1375 -49.1163 -49.1159
   -49.0969 -49.0967 -49.0233 -49.0231 -49.0167 -49.0165 -49.0123 -49.0122
   -48.9181 -48.9177 -48.9078 -48.9074 -48.7514 -48.7512 -48.7405 -48.7403
   -19.7173 -19.4735 -19.2286 -19.2140 -19.1391 -18.9469 -18.9455 -18.8551
   -18.7322 -18.6879 -18.6570 -18.6329 -18.6060 -18.5674 -18.5389 -18.5210
   -18.3693 -18.3461 -18.3113 -18.3052 -18.2335 -18.2230 -18.2010 -18.1820
   -18.1412 -18.1011 -18.0622 -18.0327 -16.6500 -16.6496 -16.6155 -16.6139
    -7.9961  -7.9769  -7.8647  -7.8460  -7.7717  -7.7656  -7.2216  -7.1843
    -7.1597  -7.1287  -7.0472  -6.9817  -6.9650  -6.9632  -6.9243  -6.8279
    -6.8188  -6.7645  -6.7377  -6.7311  -6.7168  -6.6655  -6.6182  -6.6047
    -6.5955  -6.5422  -6.4143  -6.3978  -6.2004  -6.1113  -6.0526  -5.9221
    -5.9066  -5.8190  -5.7485  -5.6127  -5.6098  -5.5191  -5.4651  -5.3772
    -5.0544  -4.9409  -4.8995  -4.8419  -4.8375  -4.7821  -4.6816  -4.5897
    -4.5624  -4.5074  -4.4941  -4.4478  -4.3986  -4.3686  -4.3470  -4.2321
    -4.2020  -4.1922  -4.1833  -4.1608  -4.1524  -4.1051  -3.9658  -3.9331
    -3.8362  -3.8229  -3.8081  -3.7049  -3.6006  -3.5424  -3.5000  -3.4816
    -3.4704  -3.4555  -3.3775  -3.2826  -3.0831  -3.0508  -2.8527  -2.8352
    -2.8105  -2.7302  -2.6408  -2.6328  -2.6296  -2.5876  -2.2651  -1.9992
    -1.9413  -1.9385  -1.9126  -1.9114  -1.9060  -1.8471  -1.7272  -1.6815
    -1.2620  -1.0295  -1.0154  -0.9680  -0.9648  -0.8940  -0.8419  -0.8216
    -0.7753  -0.7660  -0.7626  -0.7474  -0.6189  -0.5876  -0.5762  -0.5651
    -0.5302  -0.4421  -0.4272  -0.3477  -0.3475  -0.3377  -0.3155  -0.2613
    -0.2410  -0.1776  -0.0905  -0.0414   0.0383   0.0489   0.1470   0.3922
     0.5248   0.5679   0.6181   0.7566   0.8151   0.9121   0.9476   1.0155
     1.0418   1.1064   1.1174   1.1233   1.3207   1.3312   1.4271   1.4325
     1.4557   1.5377   1.5873   1.7927   2.6134   2.6581   2.8036   2.8167
     2.8592   2.9075   3.0588   3.6214   3.6659   3.6920   3.8867   4.0128
     4.1042   4.2603   4.4083   4.4348   4.4856   4.5649   4.6862   4.7153
     4.8059   4.8831   4.9184   4.9771   5.0079   5.0113   5.0356   5.4316
     6.0074   6.1000   6.6776   6.8471   6.9986   7.3727   7.4078   7.4114
     7.6120   7.9179   8.1669   8.3212   8.4815   8.6523   8.6852   8.7919
     8.9232   8.9634   8.9905   9.0377   9.0471   9.3243   9.3703   9.4163
     9.4732   9.4980   9.7261   9.7691   9.8951   9.9414  10.0452  10.1363
    10.1531  10.2105  10.2627  10.2961  10.3703  10.4544  10.5103  10.5103
    10.5105  10.5108  10.5431  10.5437  10.5441  10.5450  10.5501  10.6323
    10.6928  10.6937  10.6937  10.6942  10.7456  10.7846  10.8362  10.8374
    10.8376  10.8376  10.8880  10.8992  10.9167  10.9958  11.0669  11.1079
    11.1928  11.3405  11.3848  11.4921  11.5425  11.5908  11.6489  11.6527
    11.7412  11.9016  11.9274  12.0259  12.1060  12.1456  12.2086  12.2176
    12.2461  12.3733  12.4241  12.4348  12.4985  12.5186  12.5898  12.6130
    12.6459  12.7308  12.8590  12.8656  13.0480  13.0927  13.1155  13.2432
    13.3114  13.3456  13.5069  13.5291  13.5532  13.6714  13.7221  13.7352
    13.7742  13.7786  13.8560  13.8572  14.0167  14.0606  14.1079  14.1678
    14.1810  14.2156  14.2363  14.3454  14.3947  14.4034  14.4687  14.6059
    14.6132  14.6292  14.6406  14.7106  14.7991  14.8771  14.8838  14.8946
    14.9261  14.9713  15.0858  15.0941  15.2466  15.2495  15.2837  15.3047
    15.3263  15.3419  15.4199  15.4778  15.4804  15.4960  15.6261  15.6815
    15.6907  15.7674  15.7789  15.7905  15.8597  15.9477  16.0064  16.1589
    16.2447  16.3193  16.4203  16.4595  16.4988  16.5750  16.6599  16.7155
    16.7603  16.7791  16.7895  16.8348  16.9971  17.0908  17.1572  17.1854
    17.2653  17.2804  17.3778  17.4343  17.4368  17.5018  17.5330  17.7125
    17.7612  17.7643  17.7672  17.7983  17.8786  17.8817  17.9586  17.9618
    17.9685  17.9774  18.0184  18.0660  18.1338  18.1617  18.1805  18.2037
    18.2641  18.3306  18.3643  18.4990  18.5703  18.5722  18.6574  18.6646
    18.6678  18.8482  18.8515  18.9129  18.9741  19.0910  19.1672  19.2227
    19.2465  19.2907  19.3386  19.3475  19.3508  19.4500  19.5022  19.5508
    19.6027  19.6129  19.6531  19.6541  19.6759  19.8289  19.8746  19.8892
    19.9008  19.9313  19.9491  20.0345  20.1149  20.1447  20.2468  20.2638
    20.3192  20.4288  20.4290  20.4517  20.4966  20.5120  20.5527  20.5797
    20.6704  20.6940  20.7502  20.9297  20.9464  20.9977  21.0718  21.0757
    21.0815  21.1147  21.1820  21.1928  21.2575  21.3521  21.3716  21.4230
    21.4642  21.5196  21.5447  21.5828  21.6360  21.7155  21.7227  21.7271
    21.8475  21.8503  21.9672  21.9687  22.0686  22.0802  22.0895  22.1632
    22.2412  22.3571  22.3938  22.4074  22.5465  22.5717  22.5986  22.6575
    22.7162  22.8230  22.8303  22.8799  22.9030  22.9169  22.9454  22.9972
    23.0510  23.0636  23.1260  23.1536  23.2297  23.2740  23.2849  23.3050
    23.3392  23.3869  23.4331  23.4435  23.4587  23.4665  23.4935  23.5292
    23.6000  23.6993  23.7709  23.8365  23.8630  23.8647  23.8993  23.9776
    24.0653  24.0866  24.1078  24.1425  24.2329  24.2981  24.3475  24.3563
    24.4706  24.4879  24.5177  24.5399  24.5418  24.6205  24.6432  24.7050
    24.7143  24.7953  24.9120  24.9559  24.9905  25.0057  25.0195  25.0966
    25.1109  25.1472  25.1736  25.2476  25.2721  25.2784  25.3981  25.4031
    25.4051  25.4081  25.5040  25.5123  25.5558  25.6219  25.6662  25.7371
    25.7493  25.7804  25.7994  25.8491  25.8986  25.9274  25.9922  26.0489
    26.0497  26.0568  26.1121  26.1504  26.1882  26.1986  26.2255  26.2462

          k = 0.2500-0.4953 0.0000 ( 42460 PWs)   bands (ev):

   -49.4293 -49.4293 -49.4109 -49.4109 -49.3911 -49.3911 -49.3848 -49.3848
   -49.3806 -49.3803 -49.3768 -49.3764 -49.3688 -49.3687 -49.3595 -49.3594
   -49.3549 -49.3548 -49.3334 -49.3334 -49.2357 -49.2356 -49.2251 -49.2250
   -49.1871 -49.1867 -49.1485 -49.1485 -49.1376 -49.1376 -49.1162 -49.1159
   -49.0965 -49.0964 -49.0233 -49.0231 -49.0167 -49.0165 -49.0123 -49.0122
   -48.9181 -48.9177 -48.9078 -48.9074 -48.7517 -48.7516 -48.7405 -48.7404
   -19.4878 -19.4878 -19.1469 -19.1468 -18.9251 -18.9251 -18.8499 -18.8498
   -18.7322 -18.7322 -18.6823 -18.6822 -18.6644 -18.6643 -18.5879 -18.5879
   -18.3481 -18.3480 -18.3278 -18.3278 -18.2917 -18.2917 -18.2473 -18.2473
   -18.1906 -18.1905 -18.1231 -18.1231 -16.6500 -16.6497 -16.6120 -16.6117
    -7.9749  -7.9748  -7.1378  -7.1378  -7.0956  -7.0956  -7.0446  -7.0445
    -6.9780  -6.9780  -6.9065  -6.9065  -6.9027  -6.9027  -6.8502  -6.8502
    -6.8226  -6.8226  -6.7317  -6.7317  -6.7015  -6.7014  -6.6599  -6.6599
    -6.6124  -6.6123  -6.5238  -6.5238  -6.2583  -6.2583  -5.9236  -5.9234
    -5.7283  -5.7282  -5.5205  -5.5205  -5.3868  -5.3868  -5.3143  -5.3143
    -5.2645  -5.2644  -5.2538  -5.2537  -5.1541  -5.1541  -4.9763  -4.9763
    -4.9297  -4.9296  -4.8146  -4.8145  -4.5146  -4.5146  -4.5062  -4.5062
    -4.4053  -4.4052  -4.2993  -4.2993  -4.1106  -4.1105  -4.0773  -4.0773
    -3.9414  -3.9414  -3.8969  -3.8969  -3.7374  -3.7374  -3.6543  -3.6541
    -3.4886  -3.4885  -3.2222  -3.2220  -3.1383  -3.1382  -2.7254  -2.7253
    -2.6070  -2.6069  -2.4179  -2.4179  -2.2849  -2.2848  -2.1320  -2.1319
    -2.0193  -2.0193  -1.9504  -1.9502  -1.9076  -1.9075  -1.7350  -1.7348
    -1.3573  -1.3572  -1.3063  -1.3062  -0.9498  -0.9498  -0.7999  -0.7998
    -0.7961  -0.7961  -0.6788  -0.6787  -0.6468  -0.6467  -0.5452  -0.5451
    -0.4663  -0.4663  -0.2507  -0.2507  -0.2181  -0.2180  -0.0015  -0.0014
     0.0271   0.0273   0.0536   0.0537   0.1852   0.1852   0.2533   0.2534
     0.5391   0.5392   0.6092   0.6094   0.8547   0.8547   0.9351   0.9352
     1.1169   1.1169   1.2102   1.2102   1.3360   1.3361   1.3626   1.3627
     1.6372   1.6372   1.6766   1.6766   2.2173   2.2173   2.4342   2.4342
     2.8563   2.8564   3.5609   3.5609   3.6866   3.6867   3.9182   3.9182
     4.0749   4.0750   4.3834   4.3835   4.7671   4.7671   4.8115   4.8116
     4.9777   4.9779   5.1901   5.1901   5.2466   5.2468   5.4095   5.4096
     6.1666   6.1667   7.3039   7.3040   7.4987   7.4988   7.5086   7.5086
     7.7181   7.7182   7.7523   7.7523   8.1724   8.1724   8.3441   8.3442
     8.8954   8.8954   9.0417   9.0417   9.1479   9.1480   9.3473   9.3474
     9.4766   9.4766   9.5741   9.5741   9.7074   9.7074   9.8437   9.8437
     9.9014   9.9014  10.0664  10.0664  10.2092  10.2092  10.5103  10.5103
    10.5104  10.5105  10.5179  10.5179  10.5439  10.5439  10.5465  10.5465
    10.6935  10.6936  10.6939  10.6940  10.7172  10.7172  10.7341  10.7341
    10.7802  10.7802  10.8378  10.8381  10.8382  10.8385  11.3094  11.3094
    11.4560  11.4560  11.5242  11.5242  11.5266  11.5266  11.6019  11.6020
    11.6732  11.6733  11.7574  11.7574  12.0379  12.0381  12.3135  12.3135
    12.4445  12.4445  12.5789  12.5790  12.8292  12.8292  12.8965  12.8965
    13.0337  13.0337  13.1249  13.1249  13.3597  13.3597  13.4600  13.4600
    13.6188  13.6188  13.7248  13.7248  13.8344  13.8344  13.8711  13.8712
    14.0629  14.0629  14.0723  14.0723  14.1107  14.1107  14.1683  14.1683
    14.3176  14.3177  14.5086  14.5086  14.6984  14.6984  14.8160  14.8160
    14.8226  14.8226  14.9472  14.9472  15.0439  15.0439  15.0478  15.0478
    15.1446  15.1446  15.2064  15.2064  15.3278  15.3278  15.5626  15.5626
    15.5908  15.5908  15.6957  15.6957  15.7496  15.7496  15.7876  15.7876
    15.9729  15.9729  15.9748  15.9749  16.0637  16.0637  16.0784  16.0784
    16.4385  16.4385  16.5850  16.5850  16.5947  16.5947  16.6604  16.6604
    16.7696  16.7696  16.8595  16.8596  16.8711  16.8711  16.9560  16.9560
    17.1251  17.1251  17.1568  17.1569  17.2261  17.2261  17.2331  17.2332
    17.4797  17.4797  17.5573  17.5573  17.6600  17.6600  17.7053  17.7054
    17.8693  17.8693  17.8844  17.8845  17.9963  17.9964  18.1220  18.1220
    18.3221  18.3221  18.4266  18.4266  18.4972  18.4972  18.6712  18.6712
    18.6764  18.6764  18.7846  18.7846  18.7964  18.7964  18.8328  18.8329
    18.9409  18.9409  19.1154  19.1154  19.1881  19.1882  19.2564  19.2564
    19.3670  19.3670  19.4418  19.4419  19.5288  19.5288  19.8017  19.8017
    19.8856  19.8856  20.0088  20.0088  20.0516  20.0516  20.0785  20.0785
    20.2787  20.2787  20.2830  20.2830  20.3486  20.3486  20.4543  20.4543
    20.5303  20.5303  20.5349  20.5349  20.6249  20.6249  20.8503  20.8503
    20.8970  20.8970  20.9076  20.9076  21.0855  21.0855  21.1430  21.1430
    21.2321  21.2321  21.3258  21.3258  21.3713  21.3713  21.5556  21.5556
    21.6613  21.6614  21.6962  21.6962  21.7783  21.7783  21.9068  21.9068
    21.9444  21.9444  21.9752  21.9753  22.0828  22.0828  22.2880  22.2880
    22.3690  22.3690  22.4871  22.4871  22.5953  22.5953  22.6190  22.6190
    22.7930  22.7930  22.8187  22.8187  22.8943  22.8943  23.0562  23.0562
    23.1740  23.1741  23.2895  23.2895  23.3067  23.3068  23.4918  23.4918
    23.5875  23.5875  23.7753  23.7753  23.8001  23.8001  23.8727  23.8727
    24.0917  24.0918  24.1397  24.1397  24.2042  24.2042  24.4675  24.4675
    24.5156  24.5156  24.6607  24.6607  24.7254  24.7255  24.7748  24.7748
    24.9331  24.9331  25.0052  25.0052  25.1205  25.1205  25.1362  25.1362
    25.2614  25.2615  25.3178  25.3179  25.3516  25.3516  25.6754  25.6754
    25.6760  25.6760  25.7366  25.7366  25.8441  25.8441  25.9187  25.9187
    25.9772  25.9772  26.0228  26.0228  26.0446  26.0446  26.1083  26.1084
    26.2354  26.2354  26.2733  26.2733  26.3579  26.3581  26.3714  26.3714

          k =-0.5000 0.0000 0.0000 ( 42508 PWs)   bands (ev):

   -49.3958 -49.3958 -49.3954 -49.3954 -49.3851 -49.3851 -49.3844 -49.3844
   -49.3787 -49.3787 -49.3783 -49.3783 -49.3709 -49.3709 -49.3702 -49.3702
   -49.3667 -49.3667 -49.3663 -49.3663 -49.2304 -49.2304 -49.2303 -49.2303
   -49.1518 -49.1518 -49.1514 -49.1514 -49.1422 -49.1422 -49.1421 -49.1421
   -49.0604 -49.0604 -49.0602 -49.0602 -49.0145 -49.0145 -49.0143 -49.0143
   -48.9129 -48.9129 -48.9126 -48.9126 -48.7458 -48.7458 -48.7456 -48.7456
   -19.4485 -19.4485 -19.2434 -19.2434 -19.0381 -19.0381 -18.9747 -18.9747
   -18.9041 -18.9041 -18.7211 -18.7211 -18.4784 -18.4784 -18.4580 -18.4580
   -18.2789 -18.2789 -18.2274 -18.2274 -18.2096 -18.2096 -18.1653 -18.1653
   -18.1188 -18.1188 -18.1060 -18.1060 -16.6766 -16.6766 -16.6760 -16.6760
    -7.8694  -7.8694  -7.8512  -7.8512  -7.7767  -7.7767  -7.7767  -7.7767
    -7.5388  -7.5388  -7.5132  -7.5132  -6.9073  -6.9073  -6.8324  -6.8324
    -6.8278  -6.8278  -6.7043  -6.7043  -6.5020  -6.5020  -6.4662  -6.4662
    -6.3970  -6.3970  -6.2811  -6.2811  -6.0068  -6.0068  -5.9912  -5.9912
    -5.7643  -5.7643  -5.5333  -5.5333  -5.2441  -5.2441  -5.2219  -5.2219
    -5.0865  -5.0865  -5.0595  -5.0595  -5.0370  -5.0370  -4.9329  -4.9329
    -4.5963  -4.5963  -4.4623  -4.4623  -4.4270  -4.4270  -4.1109  -4.1109
    -4.0005  -4.0005  -3.9714  -3.9714  -3.8066  -3.8066  -3.7737  -3.7737
    -3.6926  -3.6926  -3.6686  -3.6686  -3.6619  -3.6619  -3.5793  -3.5793
    -3.3992  -3.3992  -3.3094  -3.3094  -3.2693  -3.2693  -3.2042  -3.2042
    -3.1564  -3.1564  -2.8967  -2.8967  -2.6316  -2.6316  -2.2283  -2.2283
    -1.9656  -1.9656  -1.9394  -1.9394  -1.8550  -1.8550  -1.5394  -1.5394
    -1.2571  -1.2571  -1.0687  -1.0687  -0.8299  -0.8299  -0.8175  -0.8175
    -0.7448  -0.7448  -0.6872  -0.6872  -0.6279  -0.6279  -0.5246  -0.5246
    -0.5136  -0.5136  -0.1646  -0.1646  -0.0458  -0.0458   0.0560   0.0560
     0.1398   0.1398   0.1882   0.1882   0.3652   0.3652   0.4386   0.4386
     0.5446   0.5446   0.5975   0.5975   0.6792   0.6792   0.6837   0.6837
     0.8980   0.8980   1.1213   1.1213   1.3313   1.3313   1.4390   1.4390
     1.4894   1.4894   1.4988   1.4988   2.9858   2.9858   3.3289   3.3289
     3.6004   3.6004   3.6406   3.6406   3.9555   3.9555   3.9624   3.9624
     3.9672   3.9672   4.0467   4.0467   4.1501   4.1501   4.1543   4.1543
     4.1544   4.1544   4.2388   4.2388   4.7930   4.7930   5.1652   5.1652
     6.4901   6.4901   6.4931   6.4931   7.2842   7.2842   7.4350   7.4350
     7.4848   7.4848   7.8381   7.8381   8.1537   8.1537   8.5548   8.5548
     8.7338   8.7338   9.3889   9.3889   9.5996   9.5996   9.9351   9.9351
     9.9657   9.9657  10.0749  10.0749  10.2787  10.2787  10.5103  10.5103
    10.5115  10.5115  10.5373  10.5374  10.5438  10.5438  10.5657  10.5657
    10.5739  10.5739  10.6920  10.6920  10.6943  10.6943  10.7187  10.7187
    10.8275  10.8275  10.8366  10.8366  10.8478  10.8478  10.9081  10.9081
    10.9323  10.9323  10.9500  10.9500  11.0189  11.0189  11.1599  11.1599
    11.2150  11.2150  11.2883  11.2883  11.3400  11.3400  11.4084  11.4084
    11.6172  11.6172  11.6838  11.6838  11.8663  11.8663  11.9819  11.9819
    12.0415  12.0415  12.2046  12.2046  12.2210  12.2210  12.5658  12.5658
    12.6753  12.6753  12.6795  12.6795  12.8763  12.8763  12.9381  12.9381
    13.2362  13.2362  13.3031  13.3031  13.4135  13.4135  13.4262  13.4262
    13.6028  13.6028  13.7508  13.7508  13.9939  13.9939  14.0293  14.0293
    14.1565  14.1565  14.2548  14.2548  14.6033  14.6033  14.6355  14.6355
    14.7067  14.7067  14.8453  14.8453  14.8747  14.8747  14.8984  14.8985
    14.9924  14.9924  15.2461  15.2461  15.3039  15.3039  15.3475  15.3475
    15.4545  15.4545  15.5002  15.5002  15.6419  15.6419  15.6529  15.6529
    15.7229  15.7229  15.7512  15.7512  15.7905  15.7905  15.8973  15.8973
    16.0258  16.0258  16.0536  16.0536  16.1111  16.1111  16.1569  16.1569
    16.2336  16.2336  16.4560  16.4560  16.7629  16.7629  17.0451  17.0451
    17.0626  17.0626  17.1421  17.1421  17.1614  17.1614  17.4623  17.4623
    17.8329  17.8329  17.9746  17.9746  18.0273  18.0273  18.0681  18.0681
    18.1147  18.1147  18.1302  18.1302  18.3923  18.3923  18.3926  18.3926
    18.4688  18.4688  18.5122  18.5122  18.6145  18.6145  18.7578  18.7578
    18.7831  18.7831  18.8933  18.8933  18.9983  18.9983  19.1503  19.1503
    19.1691  19.1691  19.3650  19.3650  19.6381  19.6381  19.7037  19.7037
    19.8015  19.8015  19.8982  19.8982  20.0317  20.0317  20.0736  20.0736
    20.0993  20.0993  20.1817  20.1817  20.5400  20.5400  20.6201  20.6201
    20.7628  20.7628  20.8052  20.8052  20.9567  20.9567  20.9660  20.9660
    21.0429  21.0429  21.1186  21.1186  21.1246  21.1246  21.2426  21.2426
    21.3935  21.3935  21.6540  21.6540  21.6816  21.6816  21.7170  21.7170
    21.8077  21.8077  21.8980  21.8980  21.9217  21.9217  21.9777  21.9777
    22.0119  22.0119  22.1182  22.1182  22.1318  22.1318  22.2561  22.2561
    22.3146  22.3146  22.3828  22.3828  22.5029  22.5029  22.6051  22.6051
    22.6443  22.6443  22.6821  22.6821  22.6869  22.6869  22.7064  22.7064
    22.8342  22.8342  22.8666  22.8666  23.1148  23.1148  23.1599  23.1599
    23.1642  23.1642  23.2236  23.2236  23.2909  23.2909  23.3817  23.3817
    23.4139  23.4139  23.4179  23.4179  23.5122  23.5122  23.6812  23.6812
    23.7648  23.7648  23.8272  23.8272  23.8274  23.8274  23.9515  23.9515
    24.0048  24.0048  24.1831  24.1831  24.4109  24.4109  24.4325  24.4325
    24.6534  24.6534  24.6843  24.6843  24.6914  24.6914  24.8609  24.8609
    24.9274  24.9274  24.9916  24.9916  25.0479  25.0479  25.0861  25.0861
    25.3202  25.3202  25.3574  25.3574  25.3845  25.3845  25.7034  25.7034
    25.8845  25.8845  25.9810  25.9810  25.9862  25.9862  26.0175  26.0175
    26.0627  26.0627  26.1717  26.1717  26.3098  26.3098  26.3586  26.3586

          k =-0.5000 0.2476 0.0000 ( 42480 PWs)   bands (ev):

   -49.3957 -49.3957 -49.3954 -49.3954 -49.3850 -49.3850 -49.3845 -49.3845
   -49.3787 -49.3787 -49.3783 -49.3783 -49.3762 -49.3762 -49.3757 -49.3756
   -49.3609 -49.3609 -49.3606 -49.3606 -49.2304 -49.2304 -49.2303 -49.2303
   -49.1518 -49.1518 -49.1514 -49.1514 -49.1426 -49.1426 -49.1426 -49.1426
   -49.0602 -49.0602 -49.0601 -49.0601 -49.0145 -49.0145 -49.0143 -49.0143
   -48.9129 -48.9129 -48.9126 -48.9126 -48.7460 -48.7460 -48.7458 -48.7458
   -19.3602 -19.3602 -19.1598 -19.1598 -18.9405 -18.9405 -18.9333 -18.9333
   -18.8663 -18.8663 -18.7288 -18.7288 -18.4898 -18.4898 -18.4552 -18.4552
   -18.3335 -18.3335 -18.3232 -18.3232 -18.2917 -18.2917 -18.2495 -18.2495
   -18.1995 -18.1995 -18.1663 -18.1663 -16.6754 -16.6754 -16.6749 -16.6749
    -7.5346  -7.5346  -7.5193  -7.5193  -7.4901  -7.4901  -7.4760  -7.4760
    -7.3992  -7.3992  -7.3984  -7.3984  -6.8960  -6.8960  -6.8365  -6.8365
    -6.6879  -6.6879  -6.5647  -6.5647  -6.4794  -6.4794  -6.4050  -6.4050
    -6.3639  -6.3639  -6.2814  -6.2814  -6.0554  -6.0554  -6.0151  -6.0151
    -5.6848  -5.6848  -5.5936  -5.5936  -5.5359  -5.5359  -5.5030  -5.5030
    -5.4335  -5.4335  -5.2852  -5.2852  -5.2693  -5.2693  -4.9742  -4.9742
    -4.5192  -4.5192  -4.5132  -4.5132  -4.3421  -4.3421  -4.1773  -4.1773
    -4.1456  -4.1456  -4.1035  -4.1035  -4.0278  -4.0278  -3.9931  -3.9931
    -3.9302  -3.9302  -3.9244  -3.9244  -3.8135  -3.8135  -3.7333  -3.7333
    -3.5239  -3.5239  -3.4729  -3.4729  -3.2329  -3.2329  -3.0459  -3.0459
    -3.0020  -3.0020  -2.9172  -2.9172  -2.6507  -2.6507  -2.2792  -2.2792
    -1.9734  -1.9734  -1.9404  -1.9404  -1.7646  -1.7646  -1.7365  -1.7365
    -1.3404  -1.3404  -1.0978  -1.0978  -0.7125  -0.7125  -0.6920  -0.6920
    -0.5285  -0.5285  -0.4815  -0.4815  -0.3847  -0.3847  -0.3427  -0.3427
    -0.2445  -0.2445  -0.1098  -0.1098  -0.1055  -0.1055  -0.0599  -0.0599
     0.2556   0.2556   0.2800   0.2800   0.3737   0.3737   0.4323   0.4323
     0.5789   0.5789   0.6081   0.6081   0.7588   0.7588   0.7647   0.7647
     0.8374   0.8374   1.0016   1.0016   1.1445   1.1445   1.2669   1.2669
     1.5801   1.5801   1.6487   1.6487   3.1136   3.1136   3.2640   3.2640
     3.3050   3.3050   3.3532   3.3532   3.4783   3.4783   3.4892   3.4892
     4.0016   4.0016   4.0675   4.0675   4.2241   4.2241   4.4332   4.4332
     4.5591   4.5591   4.7189   4.7189   4.9597   4.9597   5.2831   5.2831
     6.5648   6.5648   6.5688   6.5688   7.5070   7.5070   7.6896   7.6896
     7.7083   7.7083   8.0124   8.0124   8.3604   8.3604   8.5603   8.5603
     8.8117   8.8117   9.0626   9.0626   9.1586   9.1586   9.3582   9.3582
     9.5574   9.5574   9.6048   9.6048   9.6490   9.6490   9.9941   9.9941
    10.1011  10.1011  10.1282  10.1282  10.3911  10.3911  10.5105  10.5105
    10.5108  10.5108  10.5439  10.5439  10.5439  10.5439  10.6913  10.6913
    10.6940  10.6940  10.6989  10.6989  10.7841  10.7841  10.8374  10.8374
    10.8383  10.8384  11.0079  11.0079  11.0883  11.0883  11.2647  11.2647
    11.2872  11.2872  11.4568  11.4568  11.5072  11.5072  11.7052  11.7052
    11.7697  11.7697  11.9776  11.9776  12.2273  12.2273  12.3065  12.3065
    12.5772  12.5772  12.6697  12.6697  12.8751  12.8751  12.9303  12.9303
    12.9767  12.9767  12.9824  12.9824  13.0932  13.0932  13.1258  13.1258
    13.2724  13.2724  13.4089  13.4089  13.7038  13.7038  13.7604  13.7604
    13.8201  13.8201  13.9538  13.9538  14.1949  14.1949  14.3747  14.3747
    14.3786  14.3786  14.4051  14.4051  14.6847  14.6847  14.8932  14.8932
    14.9584  14.9584  14.9721  14.9721  15.0282  15.0282  15.2249  15.2249
    15.2845  15.2845  15.3193  15.3193  15.4622  15.4622  15.5475  15.5475
    15.5538  15.5538  15.5695  15.5695  15.6213  15.6213  15.6574  15.6574
    15.7535  15.7535  15.8129  15.8129  16.0149  16.0149  16.0415  16.0415
    16.1626  16.1626  16.2191  16.2191  16.2734  16.2734  16.2915  16.2915
    16.3658  16.3658  16.4366  16.4366  16.5913  16.5913  16.8317  16.8317
    16.9088  16.9088  17.0536  17.0536  17.1250  17.1250  17.3232  17.3232
    17.4003  17.4003  17.4385  17.4385  17.5339  17.5339  17.6022  17.6022
    17.6514  17.6514  17.9506  17.9506  17.9682  17.9682  18.3730  18.3730
    18.4661  18.4661  18.5122  18.5122  18.5690  18.5690  18.6501  18.6501
    18.7045  18.7045  18.7414  18.7414  18.7621  18.7621  18.9574  18.9574
    19.0352  19.0352  19.1784  19.1784  19.3503  19.3503  19.4319  19.4319
    19.4976  19.4976  19.5372  19.5372  19.8332  19.8332  19.8342  19.8342
    19.8536  19.8536  20.0228  20.0228  20.0501  20.0501  20.1057  20.1057
    20.2418  20.2418  20.4259  20.4259  20.5049  20.5049  20.5738  20.5738
    20.6269  20.6269  20.6966  20.6966  20.8893  20.8893  21.0041  21.0041
    21.0417  21.0417  21.0654  21.0654  21.1773  21.1773  21.1968  21.1968
    21.3391  21.3391  21.5238  21.5238  21.6075  21.6075  21.6082  21.6082
    21.7636  21.7636  21.8730  21.8730  21.9443  21.9443  22.0389  22.0389
    22.1559  22.1559  22.2101  22.2101  22.3651  22.3651  22.6105  22.6105
    22.6535  22.6535  22.7506  22.7506  22.7830  22.7830  22.8620  22.8620
    22.9735  22.9735  23.0484  23.0484  23.1443  23.1443  23.2425  23.2425
    23.2804  23.2804  23.3403  23.3403  23.4177  23.4177  23.4916  23.4916
    23.7291  23.7291  23.8346  23.8346  23.8416  23.8416  23.9873  23.9873
    24.0070  24.0070  24.2139  24.2139  24.3104  24.3104  24.3284  24.3284
    24.4261  24.4261  24.4452  24.4452  24.6120  24.6120  24.8203  24.8203
    24.8844  24.8844  24.9740  24.9740  25.0183  25.0183  25.2026  25.2026
    25.3121  25.3121  25.3375  25.3375  25.4044  25.4044  25.4389  25.4389
    25.6810  25.6810  25.6959  25.6959  25.7961  25.7961  25.8878  25.8878
    25.9147  25.9147  25.9826  25.9826  26.0415  26.0415  26.0555  26.0555
    26.0776  26.0776  26.0787  26.0787  26.2462  26.2462  26.2540  26.2540

          k =-0.5000-0.4953 0.0000 ( 42596 PWs)   bands (ev):

   -49.3955 -49.3955 -49.3955 -49.3955 -49.3847 -49.3847 -49.3847 -49.3847
   -49.3788 -49.3788 -49.3788 -49.3788 -49.3787 -49.3787 -49.3783 -49.3783
   -49.3576 -49.3576 -49.3575 -49.3575 -49.2304 -49.2304 -49.2303 -49.2303
   -49.1518 -49.1518 -49.1514 -49.1514 -49.1431 -49.1431 -49.1430 -49.1430
   -49.0601 -49.0601 -49.0599 -49.0599 -49.0145 -49.0145 -49.0143 -49.0143
   -48.9130 -48.9130 -48.9126 -48.9126 -48.7461 -48.7461 -48.7460 -48.7460
   -19.1679 -19.1679 -19.1679 -19.1679 -18.8755 -18.8755 -18.8754 -18.8754
   -18.6504 -18.6504 -18.6504 -18.6504 -18.5752 -18.5752 -18.5751 -18.5751
   -18.4528 -18.4528 -18.4527 -18.4527 -18.3878 -18.3878 -18.3878 -18.3878
   -18.2009 -18.2009 -18.2008 -18.2008 -16.6742 -16.6742 -16.6739 -16.6739
    -7.5246  -7.5246  -7.5246  -7.5246  -6.8750  -6.8750  -6.8749  -6.8749
    -6.8273  -6.8273  -6.8273  -6.8273  -6.7186  -6.7186  -6.7186  -6.7186
    -6.4637  -6.4637  -6.4636  -6.4636  -6.4275  -6.4275  -6.4275  -6.4275
    -6.3166  -6.3166  -6.3165  -6.3165  -6.2391  -6.2391  -6.2390  -6.2390
    -6.0554  -6.0554  -6.0554  -6.0554  -5.9293  -5.9293  -5.9293  -5.9293
    -5.3446  -5.3446  -5.3445  -5.3445  -4.9887  -4.9887  -4.9887  -4.9887
    -4.7513  -4.7513  -4.7513  -4.7513  -4.5993  -4.5993  -4.5993  -4.5993
    -4.5007  -4.5007  -4.5007  -4.5007  -4.2270  -4.2270  -4.2269  -4.2269
    -4.0773  -4.0773  -4.0773  -4.0773  -3.9595  -3.9595  -3.9595  -3.9595
    -3.5500  -3.5500  -3.5500  -3.5500  -2.8728  -2.8728  -2.8728  -2.8728
    -2.6150  -2.6150  -2.6150  -2.6150  -2.3270  -2.3270  -2.3270  -2.3270
    -2.1382  -2.1382  -2.1381  -2.1381  -1.8424  -1.8424  -1.8423  -1.8422
    -1.0591  -1.0591  -1.0591  -1.0591  -0.7199  -0.7199  -0.7198  -0.7198
    -0.6558  -0.6558  -0.6558  -0.6558  -0.3527  -0.3527  -0.3527  -0.3527
    -0.0006  -0.0006  -0.0006  -0.0006   0.1137   0.1137   0.1137   0.1138
     0.3917   0.3917   0.3918   0.3918   0.5164   0.5164   0.5165   0.5165
     0.6074   0.6074   0.6077   0.6077   0.8155   0.8155   0.8156   0.8156
     0.9563   0.9563   0.9563   0.9563   1.0105   1.0105   1.0105   1.0105
     1.6920   1.6920   1.6920   1.6920   2.8850   2.8850   2.8850   2.8850
     3.0887   3.0887   3.0887   3.0887   3.3008   3.3008   3.3008   3.3008
     4.0996   4.0996   4.0997   4.0997   4.4499   4.4499   4.4500   4.4500
     4.9606   4.9606   4.9606   4.9606   5.2696   5.2696   5.2697   5.2697
     6.6910   6.6910   6.6910   6.6910   8.0462   8.0462   8.0463   8.0463
     8.2125   8.2125   8.2125   8.2125   8.4511   8.4511   8.4511   8.4511
     8.5304   8.5304   8.5304   8.5304   8.9014   8.9014   8.9014   8.9014
     9.1064   9.1064   9.1064   9.1064   9.5946   9.5946   9.5946   9.5946
     9.7937   9.7937   9.7937   9.7937  10.3897  10.3897  10.3897  10.3897
    10.5106  10.5106  10.5106  10.5106  10.5440  10.5440  10.5440  10.5440
    10.6258  10.6258  10.6259  10.6259  10.6939  10.6939  10.6943  10.6943
    10.8374  10.8374  10.8376  10.8376  11.1768  11.1768  11.1768  11.1768
    11.4866  11.4866  11.4866  11.4866  11.8473  11.8473  11.8474  11.8474
    11.9622  11.9622  11.9623  11.9623  12.1525  12.1525  12.1526  12.1526
    12.5743  12.5743  12.5743  12.5743  12.8554  12.8554  12.8554  12.8554
    13.3622  13.3622  13.3623  13.3623  13.7117  13.7117  13.7117  13.7117
    13.9875  13.9875  13.9875  13.9875  14.1774  14.1774  14.1775  14.1775
    14.4128  14.4128  14.4128  14.4128  14.6251  14.6251  14.6251  14.6251
    14.6694  14.6694  14.6694  14.6694  15.1940  15.1940  15.1940  15.1940
    15.2812  15.2812  15.2812  15.2812  15.4075  15.4075  15.4076  15.4076
    15.4982  15.4982  15.4982  15.4982  15.6121  15.6121  15.6121  15.6121
    15.7824  15.7824  15.7824  15.7824  15.8093  15.8093  15.8093  15.8093
    15.8944  15.8944  15.8944  15.8944  15.9778  15.9778  15.9778  15.9778
    16.0931  16.0931  16.0931  16.0931  16.2895  16.2895  16.2895  16.2895
    16.4917  16.4917  16.4917  16.4917  16.5828  16.5828  16.5828  16.5828
    16.7698  16.7698  16.7698  16.7698  16.9054  16.9054  16.9054  16.9054
    17.2369  17.2369  17.2369  17.2369  17.3798  17.3798  17.3798  17.3798
    17.5223  17.5223  17.5223  17.5223  17.7926  17.7926  17.7926  17.7926
    17.8984  17.8984  17.8984  17.8984  18.0422  18.0422  18.0422  18.0422
    18.0784  18.0784  18.0784  18.0784  18.4580  18.4580  18.4580  18.4580
    18.6451  18.6451  18.6451  18.6451  18.9062  18.9062  18.9062  18.9062
    19.0598  19.0598  19.0598  19.0598  19.3426  19.3426  19.3427  19.3427
    19.7096  19.7096  19.7096  19.7096  19.8770  19.8770  19.8770  19.8770
    20.1259  20.1259  20.1259  20.1259  20.3371  20.3371  20.3371  20.3371
    20.5088  20.5088  20.5088  20.5088  20.6595  20.6595  20.6595  20.6595
    21.2503  21.2503  21.2503  21.2503  21.5647  21.5647  21.5647  21.5647
    21.6610  21.6610  21.6611  21.6611  21.7644  21.7644  21.7644  21.7644
    21.9663  21.9663  21.9664  21.9664  22.3454  22.3454  22.3454  22.3454
    22.6083  22.6083  22.6083  22.6083  22.7657  22.7657  22.7657  22.7657
    22.8717  22.8717  22.8717  22.8717  22.9489  22.9489  22.9489  22.9489
    23.0741  23.0741  23.0741  23.0741  23.2634  23.2634  23.2634  23.2634
    23.3364  23.3364  23.3364  23.3364  23.4249  23.4249  23.4249  23.4249
    23.5252  23.5252  23.5252  23.5252  23.8452  23.8452  23.8452  23.8452
    24.0766  24.0766  24.0767  24.0767  24.1009  24.1009  24.1009  24.1009
    24.2485  24.2485  24.2485  24.2485  24.2898  24.2898  24.2899  24.2899
    24.3899  24.3899  24.3899  24.3899  24.6734  24.6734  24.6734  24.6734
    24.8535  24.8535  24.8535  24.8535  25.0841  25.0841  25.0841  25.0841
    25.2756  25.2756  25.2756  25.2756  25.5136  25.5136  25.5136  25.5136
    25.6110  25.6110  25.6110  25.6110  25.7647  25.7647  25.7647  25.7647
    25.8936  25.8936  25.8936  25.8936  26.1495  26.1495  26.1495  26.1496

     the Fermi energy is     0.9906 ev

!    total energy              =   -4009.63614062 Ry
     Harris-Foulkes estimate   =   -4009.63614117 Ry
     estimated scf accuracy    <       0.00000056 Ry

[...]
    25.3084  25.3084  25.3294  25.3294  25.4348  25.4348  25.4724  25.4724
    25.6852  25.6852  25.6918  25.6918  25.8099  25.8099  25.8690  25.8690
    25.9276  25.9276  25.9496  25.9496  26.0034  26.0034  26.0375  26.0375
    26.0662  26.0662  26.0730  26.0730  26.1902  26.1902  26.2378  26.2378

          k =-0.5000-0.4953 0.0000 ( 42596 PWs)   bands (ev):

   -49.4429 -49.4429 -49.4237 -49.4237 -49.4223 -49.4223 -49.4164 -49.4164
   -49.4079 -49.4079 -49.4071 -49.4071 -49.4014 -49.4014 -49.3907 -49.3907
   -49.3818 -49.3818 -49.3587 -49.3587 -49.2595 -49.2595 -49.2521 -49.2521
   -49.1913 -49.1913 -49.1776 -49.1776 -49.1750 -49.1750 -49.1672 -49.1672
   -49.0931 -49.0931 -49.0484 -49.0484 -49.0482 -49.0482 -49.0296 -49.0296
   -48.9404 -48.9404 -48.8908 -48.8908 -48.7785 -48.7785 -48.7681 -48.7681
   -19.2792 -19.2792 -19.1802 -19.1802 -18.9344 -18.9344 -18.8702 -18.8702
   -18.6698 -18.6698 -18.6480 -18.6480 -18.6045 -18.6045 -18.5608 -18.5608
   -18.5342 -18.5342 -18.4822 -18.4822 -18.4571 -18.4571 -18.3852 -18.3852
   -18.2316 -18.2316 -18.1324 -18.1324 -16.8668 -16.8668 -16.6990 -16.6990
    -7.6551  -7.6551  -7.5203  -7.5203  -6.9829  -6.9829  -6.8925  -6.8925
    -6.8838  -6.8838  -6.8568  -6.8568  -6.7501  -6.7501  -6.6810  -6.6810
    -6.5125  -6.5125  -6.4689  -6.4689  -6.4598  -6.4598  -6.4196  -6.4196
    -6.3461  -6.3461  -6.3101  -6.3101  -6.2937  -6.2937  -6.2652  -6.2652
    -6.0803  -6.0803  -6.0534  -6.0534  -5.9993  -5.9993  -5.9452  -5.9452
    -5.3621  -5.3621  -5.2612  -5.2612  -5.0172  -5.0172  -4.9997  -4.9997
    -4.7988  -4.7988  -4.7871  -4.7871  -4.6449  -4.6449  -4.6362  -4.6362
    -4.5633  -4.5633  -4.5526  -4.5526  -4.3452  -4.3452  -4.2924  -4.2924
    -4.1225  -4.1225  -4.0975  -4.0975  -4.0415  -4.0415  -4.0048  -4.0048
    -3.5788  -3.5788  -3.5692  -3.5692  -2.8945  -2.8945  -2.8756  -2.8756
    -2.6452  -2.6452  -2.6296  -2.6296  -2.3604  -2.3604  -2.3412  -2.3412
    -2.1737  -2.1737  -2.0802  -2.0802  -2.0175  -2.0175  -1.8585  -1.8585
    -1.1246  -1.1246  -1.1007  -1.1007  -0.7968  -0.7968  -0.7827  -0.7827
    -0.6978  -0.6978  -0.6813  -0.6813  -0.4169  -0.4169  -0.3981  -0.3981
    -0.0489  -0.0489  -0.0433  -0.0433   0.0333   0.0333   0.0829   0.0829
     0.3699   0.3699   0.3870   0.3870   0.5047   0.5047   0.5625   0.5625
     0.5814   0.5814   0.6798   0.6798   0.7778   0.7778   0.8014   0.8014
     0.9106   0.9106   0.9428   0.9428   0.9849   0.9849   1.0106   1.0106
     1.6609   1.6609   1.9768   1.9768   2.8173   2.8173   2.8498   2.8498
     3.0579   3.0579   3.0693   3.0693   3.2664   3.2664   3.2845   3.2845
     4.0681   4.0681   4.0761   4.0761   4.4065   4.4065   4.4363   4.4363
     4.9286   4.9286   4.9582   4.9582   5.2654   5.2654   5.2740   5.2740
     6.6628   6.6628   6.8808   6.8808   8.0281   8.0281   8.0708   8.0708
     8.2084   8.2084   8.2219   8.2219   8.4432   8.4432   8.4504   8.4504
     8.4889   8.4889   8.4980   8.4980   8.9062   8.9062   8.9268   8.9268
     9.0457   9.0457   9.0822   9.0822   9.5702   9.5702   9.6117   9.6117
     9.7528   9.7528   9.8010   9.8010  10.3448  10.3448  10.4005  10.4005
    10.4808  10.4808  10.4888  10.4888  10.5048  10.5048  10.5128  10.5128
    10.5732  10.5732  10.6358  10.6358  10.6665  10.6665  10.7058  10.7058
    10.8043  10.8043  10.8444  10.8444  11.1577  11.1577  11.1654  11.1654
    11.4558  11.4558  11.4779  11.4779  11.8214  11.8214  11.8272  11.8272
    11.9544  11.9544  11.9670  11.9670  12.1421  12.1421  12.1560  12.1560
    12.5216  12.5216  12.6098  12.6098  12.8649  12.8649  12.8696  12.8696
    13.3199  13.3199  13.4117  13.4117  13.6928  13.6928  13.7019  13.7019
    13.9463  13.9463  13.9571  13.9571  14.1540  14.1540  14.2623  14.2623
    14.3568  14.3568  14.3695  14.3695  14.6101  14.6101  14.6269  14.6269
    14.6482  14.6482  14.6704  14.6704  15.1093  15.1093  15.1850  15.1850
    15.2385  15.2385  15.2536  15.2536  15.3797  15.3797  15.4173  15.4173
    15.5025  15.5025  15.5152  15.5152  15.6172  15.6172  15.6196  15.6196
    15.7807  15.7807  15.7889  15.7889  15.8054  15.8054  15.8104  15.8104
    15.8953  15.8953  15.9205  15.9205  15.9639  15.9639  15.9859  15.9859
    16.0697  16.0697  16.0735  16.0735  16.2779  16.2779  16.3056  16.3056
    16.4817  16.4817  16.4896  16.4896  16.5850  16.5850  16.6087  16.6087
    16.7634  16.7634  16.7838  16.7838  16.8787  16.8787  16.8801  16.8801
    17.2184  17.2184  17.2301  17.2301  17.3903  17.3903  17.4008  17.4008
    17.5130  17.5130  17.5363  17.5363  17.7872  17.7872  17.8183  17.8183
    17.8712  17.8712  17.8866  17.8866  17.9873  17.9873  18.0259  18.0259
    18.0691  18.0691  18.0790  18.0790  18.4486  18.4486  18.4628  18.4628
    18.6558  18.6558  18.6813  18.6813  18.8863  18.8863  18.9019  18.9019
    19.0507  19.0507  19.0558  19.0558  19.3459  19.3459  19.3570  19.3570
    19.7507  19.7507  19.7718  19.7718  19.8736  19.8736  19.9216  19.9216
    20.0876  20.0876  20.1101  20.1101  20.3243  20.3243  20.3280  20.3280
    20.5269  20.5269  20.5445  20.5445  20.6804  20.6804  20.7331  20.7331
    21.2834  21.2834  21.2995  21.2995  21.5369  21.5369  21.5621  21.5621
    21.6705  21.6705  21.6738  21.6738  21.7705  21.7705  21.7809  21.7809
    21.9805  21.9805  21.9958  21.9958  22.3268  22.3268  22.3547  22.3547
    22.6090  22.6090  22.6202  22.6202  22.7695  22.7695  22.7939  22.7939
    22.8683  22.8683  22.9041  22.9041  22.9525  22.9525  22.9759  22.9759
    23.0450  23.0450  23.0816  23.0816  23.2295  23.2295  23.2437  23.2437
    23.3087  23.3087  23.3156  23.3156  23.4032  23.4032  23.4381  23.4381
    23.5363  23.5363  23.5426  23.5426  23.8522  23.8522  23.8695  23.8695
    24.0393  24.0393  24.0671  24.0671  24.0931  24.0931  24.1055  24.1055
    24.1830  24.1830  24.2104  24.2104  24.3084  24.3084  24.3239  24.3239
    24.3801  24.3801  24.3809  24.3809  24.6487  24.6487  24.6620  24.6620
    24.8021  24.8021  24.8761  24.8761  25.0715  25.0715  25.1178  25.1178
    25.2028  25.2028  25.2213  25.2213  25.5297  25.5297  25.5530  25.5530
    25.6224  25.6224  25.6483  25.6483  25.7183  25.7183  25.7610  25.7610
    25.8565  25.8565  25.8590  25.8590  26.0980  26.0980  26.1314  26.1314

     the Fermi energy is     0.9614 ev

!    total energy              =   -4009.65472306 Ry
     Harris-Foulkes estimate   =   -4009.65472306 Ry
     estimated scf accuracy    <          3.3E-09 Ry

     The total energy is the sum of the following terms:

     one-electron contribution =  -77744.38815185 Ry
     hartree contribution      =   38969.18664747 Ry
     xc contribution           =   -1104.34097295 Ry
     ewald contribution        =   35869.88773755 Ry
     smearing contrib. (-TS)   =       0.00001672 Ry

     convergence has been achieved in  24 iterations

     Forces acting on atoms (Ry/au):


     negative rho (up, down):  0.625E+01 0.000E+00
     atom    1 type  1   force =     0.00000000    0.00000000    0.02501710
     atom    2 type  2   force =     0.00000000    0.00000000   -0.03744108
     atom    3 type  2   force =     0.00000000    0.00000000    0.06796167
     atom    4 type  1   force =    -0.00000000   -0.01281054   -0.02630053
     atom    5 type  1   force =    -0.00000000    0.01281054   -0.02630053
     atom    6 type  1   force =     0.00000000    0.00000000    0.02020027
     atom    7 type  1   force =     0.00000000    0.00000000   -0.01726518
     atom    8 type  2   force =     0.00000000    0.00000000   -0.01148256
     atom    9 type  2   force =     0.00000000    0.00000000   -0.01844620
     atom   10 type  1   force =     0.00000000    0.01134710   -0.00200968
     atom   11 type  1   force =     0.00000000   -0.01134710   -0.00200968
     atom   12 type  1   force =     0.00000000    0.00000000    0.02656974
     atom   13 type  1   force =     0.00000000    0.00000000   -0.00119259
     atom   14 type  2   force =     0.00000000    0.00000000   -0.00020324
     atom   15 type  2   force =     0.00000000    0.00000000    0.00042165
     atom   16 type  1   force =     0.00000001   -0.00006312    0.00069110
     atom   17 type  1   force =     0.00000001    0.00006312    0.00069110
     atom   18 type  1   force =     0.00000000    0.00000000    0.00094585
     atom   19 type  1   force =     0.00000000    0.00000000    0.00008030
     atom   20 type  2   force =     0.00000000    0.00000000   -0.00011959
     atom   21 type  2   force =     0.00000000    0.00000000    0.00058899
     atom   22 type  1   force =     0.00000001    0.00021204    0.00008120
     atom   23 type  1   force =     0.00000001   -0.00021204    0.00008120
     atom   24 type  1   force =     0.00000000    0.00000000   -0.00055931
     atom   25 type  1   force =     0.00000000    0.00000000    0.02501710
     atom   26 type  2   force =    -0.00000000    0.00000000   -0.03744108
     atom   27 type  2   force =     0.00000000    0.00000000    0.06796167
     atom   28 type  1   force =     0.00000000   -0.01281054   -0.02630053
     atom   29 type  1   force =     0.00000000    0.01281054   -0.02630053
     atom   30 type  1   force =     0.00000000    0.00000000    0.02020027
     atom   31 type  1   force =     0.00000000    0.00000000   -0.01726518
     atom   32 type  2   force =    -0.00000000    0.00000000   -0.01148256
     atom   33 type  2   force =     0.00000000    0.00000000   -0.01844620
     atom   34 type  1   force =    -0.00000000    0.01134710   -0.00200968
     atom   35 type  1   force =    -0.00000000   -0.01134710   -0.00200968
     atom   36 type  1   force =     0.00000000    0.00000000    0.02656974
     atom   37 type  1   force =     0.00000000    0.00000000   -0.00119259
     atom   38 type  2   force =    -0.00000000    0.00000000   -0.00020324
     atom   39 type  2   force =     0.00000000    0.00000000    0.00042165
     atom   40 type  1   force =    -0.00000001   -0.00006312    0.00069110
     atom   41 type  1   force =    -0.00000001    0.00006312    0.00069110
     atom   42 type  1   force =     0.00000000    0.00000000    0.00094585
     atom   43 type  1   force =     0.00000000    0.00000000    0.00008030
     atom   44 type  2   force =    -0.00000000    0.00000000   -0.00011959
     atom   45 type  2   force =     0.00000000    0.00000000    0.00058900
     atom   46 type  1   force =    -0.00000001    0.00021204    0.00008120
     atom   47 type  1   force =    -0.00000001   -0.00021204    0.00008120
     atom   48 type  1   force =     0.00000000    0.00000000   -0.00055931

     Total force =     0.002927     Total SCF correction =     0.000168

     number of scf cycles    =  14
     number of bfgs steps    =  13

     energy   old            =   -4009.6547088358 Ry
     energy   new            =   -4009.6547230616 Ry

     CASE: energy  _new < energy  _old

     new trust radius        =       0.0055078972 bohr
     new conv_thr            =       0.0000000100 Ry


ATOMIC_POSITIONS (crystal)
O0       0.000000000   0.500000000   0.332680000    0   0   0
Ir1      0.250000000   0.500000000   0.366500000    0   0   0
Ir1      0.000000000   0.000000000   0.366500000    0   0   0
O0       0.250000000   0.810000000   0.366500000    0   0   0
O0       0.250000000   0.190000000   0.366500000    0   0   0
O0       0.000000000   0.500000000   0.400320000    0   0   0
O0       0.000000000   0.000000000   0.421680000    0   0   0
Ir1      0.250000000   0.000000000   0.455500000    0   0   0
Ir1      0.000000000   0.500000000   0.455500000    0   0   0
O0       0.250000000   0.690000000   0.455500000    0   0   0
O0       0.250000000   0.310000000   0.455500000    0   0   0
O0       0.000000000   0.000000000   0.489320000    0   0   0
O0       0.000000000   0.500000000   0.510114695
Ir1      0.249999999   0.500000000   0.544205411
Ir1      0.000000000   0.000000000   0.544860986
O0       0.249999997   0.808486173   0.544738741
O0       0.249999997   0.191513827   0.544738741
O0       0.000000000   0.500000000   0.577987219
O0       0.000000000   0.000000000   0.599820663
Ir1      0.250000000   0.000000000   0.634691821
Ir1      0.000000000   0.500000000   0.631915926
O0       0.249999999   0.690321907   0.635558064
O0       0.249999999   0.309678093   0.635558064
O0       0.000000000   0.000000000   0.667424217
O0       0.500000000   0.500000000   0.332680000    0   0   0
Ir1      0.750000000   0.500000000   0.366500000    0   0   0
Ir1      0.500000000   0.000000000   0.366500000    0   0   0
O0       0.750000000   0.810000000   0.366500000    0   0   0
O0       0.750000000   0.190000000   0.366500000    0   0   0
O0       0.500000000   0.500000000   0.400320000    0   0   0
O0       0.500000000   0.000000000   0.421680000    0   0   0
Ir1      0.750000000   0.000000000   0.455500000    0   0   0
Ir1      0.500000000   0.500000000   0.455500000    0   0   0
O0       0.750000000   0.690000000   0.455500000    0   0   0
O0       0.750000000   0.310000000   0.455500000    0   0   0
O0       0.500000000   0.000000000   0.489320000    0   0   0
O0       0.500000000   0.500000000   0.510114695
Ir1      0.750000001   0.500000000   0.544205411
Ir1      0.500000000   0.000000000   0.544860986
O0       0.750000003   0.808486173   0.544738741
O0       0.750000003   0.191513827   0.544738741
O0       0.500000000   0.500000000   0.577987219
O0       0.500000000   0.000000000   0.599820663
Ir1      0.750000000   0.000000000   0.634691821
Ir1      0.500000000   0.500000000   0.631915926
O0       0.750000001   0.690321907   0.635558064
O0       0.750000001   0.309678093   0.635558064
O0       0.500000000   0.000000000   0.667424217


     Check: negative starting charge=   -6.668404
     NEW-OLD atomic charge density approx. for the potential

     Check: negative/imaginary core charge=   -0.000003    0.000000
     Check: negative starting charge=   -6.667471

     negative rho (up, down):  0.625E+01 0.000E+00

     total cpu time spent up to now is   165824.1 secs

     per-process dynamical memory:   291.2 Mb

     Self-consistent Calculation

     iteration #  1     ecut=    40.00 Ry     beta=0.70
     Davidson diagonalization with overlap
     ethr =  1.00E-06,  avg # of iterations =  3.0

     negative rho (up, down):  0.625E+01 0.000E+00

     total cpu time spent up to now is   166546.5 secs

     total energy              =   -4009.65058345 Ry
     Harris-Foulkes estimate   =   -4009.65478512 Ry
     estimated scf accuracy    <       0.00467198 Ry

     iteration #  2     ecut=    40.00 Ry     beta=0.70
     Davidson diagonalization with overlap
     ethr =  1.08E-06,  avg # of iterations =  5.7

     negative rho (up, down):  0.625E+01 0.000E+00

     total cpu time spent up to now is   167490.7 secs

     total energy              =   -4009.35883278 Ry
     Harris-Foulkes estimate   =   -4009.97594998 Ry
     estimated scf accuracy    <      46.41480141 Ry

     iteration #  3     ecut=    40.00 Ry     beta=0.70
     Davidson diagonalization with overlap
     ethr =  1.08E-06,  avg # of iterations =  5.8

     negative rho (up, down):  0.625E+01 0.000E+00

     total cpu time spent up to now is   168424.5 secs

     total energy              =   -4009.64945320 Ry
     Harris-Foulkes estimate   =   -4009.66006182 Ry
     estimated scf accuracy    <       0.25502239 Ry

     iteration #  4     ecut=    40.00 Ry     beta=0.70
     Davidson diagonalization with overlap
     ethr =  1.08E-06,  avg # of iterations =  5.7

     negative rho (up, down):  0.625E+01 0.000E+00

     total cpu time spent up to now is   169120.1 secs

     total energy              =   -4009.65457236 Ry
     Harris-Foulkes estimate   =   -4009.65490234 Ry
     estimated scf accuracy    <       0.00506915 Ry

     iteration #  5     ecut=    40.00 Ry     beta=0.70
     Davidson diagonalization with overlap
     ethr =  1.08E-06,  avg # of iterations =  1.0

     negative rho (up, down):  0.625E+01 0.000E+00

     total cpu time spent up to now is   169517.4 secs

     total energy              =   -4009.65470404 Ry
     Harris-Foulkes estimate   =   -4009.65475203 Ry
     estimated scf accuracy    <       0.00028872 Ry

     iteration #  6     ecut=    40.00 Ry     beta=0.70
     Davidson diagonalization with overlap
     ethr =  6.68E-08,  avg # of iterations =  1.0

     negative rho (up, down):  0.625E+01 0.000E+00

     total cpu time spent up to now is   169914.1 secs

     total energy              =   -4009.65470800 Ry
     Harris-Foulkes estimate   =   -4009.65476840 Ry
     estimated scf accuracy    <       0.00064817 Ry

     iteration #  7     ecut=    40.00 Ry     beta=0.70
     Davidson diagonalization with overlap
     ethr =  6.68E-08,  avg # of iterations =  1.0

     negative rho (up, down):  0.625E+01 0.000E+00

     total cpu time spent up to now is   170312.9 secs

     total energy              =   -4009.65473079 Ry
     Harris-Foulkes estimate   =   -4009.65474477 Ry
     estimated scf accuracy    <       0.00014768 Ry

     iteration #  8     ecut=    40.00 Ry     beta=0.70
     Davidson diagonalization with overlap
     ethr =  3.42E-08,  avg # of iterations =  1.0

     negative rho (up, down):  0.625E+01 0.000E+00

     total cpu time spent up to now is   170712.2 secs

     total energy              =   -4009.65473495 Ry
     Harris-Foulkes estimate   =   -4009.65474148 Ry
     estimated scf accuracy    <       0.00007799 Ry

     iteration #  9     ecut=    40.00 Ry     beta=0.70
     Davidson diagonalization with overlap
     ethr =  1.81E-08,  avg # of iterations =  1.0

     negative rho (up, down):  0.625E+01 0.000E+00

     total cpu time spent up to now is   171119.7 secs

     total energy              =   -4009.65473712 Ry
     Harris-Foulkes estimate   =   -4009.65473941 Ry
     estimated scf accuracy    <       0.00002841 Ry

     iteration # 10     ecut=    40.00 Ry     beta=0.70
     Davidson diagonalization with overlap
     ethr =  6.58E-09,  avg # of iterations =  1.0

     negative rho (up, down):  0.625E+01 0.000E+00

     total cpu time spent up to now is   171527.1 secs

     total energy              =   -4009.65473697 Ry
     Harris-Foulkes estimate   =   -4009.65473937 Ry
     estimated scf accuracy    <       0.00001693 Ry

     iteration # 11     ecut=    40.00 Ry     beta=0.70
     Davidson diagonalization with overlap
     ethr =  3.92E-09,  avg # of iterations =  1.0

     negative rho (up, down):  0.625E+01 0.000E+00

     total cpu time spent up to now is   171927.0 secs

     total energy              =   -4009.65473603 Ry
     Harris-Foulkes estimate   =   -4009.65473871 Ry
     estimated scf accuracy    <       0.00000762 Ry

     iteration # 12     ecut=    40.00 Ry     beta=0.70
     Davidson diagonalization with overlap
     ethr =  1.76E-09,  avg # of iterations =  2.0

     negative rho (up, down):  0.625E+01 0.000E+00

     total cpu time spent up to now is   172382.2 secs

     total energy              =   -4009.65472757 Ry
     Harris-Foulkes estimate   =   -4009.65474886 Ry
     estimated scf accuracy    <       0.00095513 Ry

     iteration # 13     ecut=    40.00 Ry     beta=0.70
     Davidson diagonalization with overlap
     ethr =  1.76E-09,  avg # of iterations =  2.0

     negative rho (up, down):  0.625E+01 0.000E+00
=>> PBS: job killed: walltime 172827 exceeded limit 172800
mpirun: killing job...

---------------------------------------
Running PBS batch system epilogue script
Job id: 275606.audhumbla.fysik.dtu.dk
Username: zhonxu
Groupname: campgst
Jobname: IrO2/slab-relax
Sessionid: 17225
Resources limits: neednodes=3:ppn=8:xeon8,nodes=3:ppn=8:xeon8,walltime=48:00:00
Resources used: cput=1151:32:28,mem=21069140kb,vmem=26188676kb,walltime=48:00:28
Queuename: verylong
Accounting:
This job has allocated the following 24 nodes:
b072 b072 b072 b072 b072 b072 b072 b072 b026 b026 b026 b026 b026 b026 b026 b026 b024 b024 b024 b024 b024 b024 b024 b024
Finished epilogue job 275606.audhumbla.fysik.dtu.dk for zhonxu
