
     Program PWSCF v.5.0.2 (svn rev. 9656) starts on  5May2014 at 19: 6:55 

     This program is part of the open-source Quantum ESPRESSO suite
     for quantum simulation of materials; please cite
         "P. Giannozzi et al., J. Phys.:Condens. Matter 21 395502 (2009);
          URL http://www.quantum-espresso.org", 
     in publications or presentations arising from this work. More details at
     http://www.quantum-espresso.org/quote.php

     Parallel version (MPI), running on    16 processors
     K-points division:     npool     =       4
     R & G space division:  proc/nbgrp/npool/nimage =       4

     Current dimensions of program PWSCF are:
     Max number of different atomic species (ntypx) = 10
     Max number of k-points (npk) =  40000
     Max angular momentum in pseudopotentials (lmaxx) =  3
     Reading input from pwscf.in
Warning: card &CELL ignored
Warning: card / ignored

     Subspace diagonalization in iterative solution of the eigenvalue problem:
     a serial algorithm will be used

     Found symmetry operation: I + ( -0.5000  0.0000  0.0000)
     This is a supercell, fractional translations are disabled

     Parallelization info
     --------------------
     sticks:   dense  smooth     PW     G-vecs:    dense   smooth      PW
     Min        1357     434    120               328723    59498    8862
     Max        1358     435    121               328730    59528    8871
     Sum        5431    1737    483              1314909   238057   35467



     bravais-lattice index     =            0
     lattice parameter (alat)  =      10.3179  a.u.
     unit-cell volume          =    6964.3238 (a.u.)^3
     number of atoms/cell      =           30
     number of atomic types    =            3
     number of electrons       =       224.00
     number of Kohn-Sham states=          336
     kinetic-energy cutoff     =      40.0000  Ry
     charge density cutoff     =     500.0000  Ry
     convergence threshold     =      1.0E-06
     mixing beta               =       0.7000
     number of iterations used =            8  plain     mixing
     Exchange-correlation      = SLA  PW   PBE  PBE ( 1 4 3 4 0)
     EXX-fraction              =        0.00
     nstep                     =           50


     celldm(1)=  10.317905  celldm(2)=   0.000000  celldm(3)=   0.000000
     celldm(4)=   0.000000  celldm(5)=   0.000000  celldm(6)=   0.000000

     crystal axes: (cart. coord. in units of alat)
               a(1) = (   1.000000   0.000000   0.000000 )  
               a(2) = (   0.000000   1.282117   0.000000 )  
               a(3) = (   0.000000   0.000000   4.945120 )  

     reciprocal axes: (cart. coord. in units 2 pi/alat)
               b(1) = (  1.000000  0.000000  0.000000 )  
               b(2) = (  0.000000  0.779960  0.000000 )  
               b(3) = (  0.000000  0.000000  0.202220 )  


     PseudoPot. # 1 for O  read from file:
     /home/camp/zhonxu/pseudo/o_pbe_v1.01.uspp.F.UPF
     MD5 check sum: 2bcb18d16ea4b960afae9ec6d52f22d2
     Pseudo is Ultrasoft + core correction, Zval =  6.0
     Generated by new atomic code, or converted to UPF format
     Using radial grid of  737 points,  5 beta functions with: 
                l(1) =   0
                l(2) =   0
                l(3) =   1
                l(4) =   1
                l(5) =   2
     Q(r) pseudized with  8 coefficients,  rinner =    0.900   0.900   0.900
                                                       0.900   0.900

     PseudoPot. # 2 for Mo read from file:
     /home/camp/zhonxu/pseudo/mo_pbe_v1.uspp.F.UPF
     MD5 check sum: 30c4dcd161f5d35cd49bb5239c51a633
     Pseudo is Ultrasoft + core correction, Zval = 14.0
     Generated by new atomic code, or converted to UPF format
     Using radial grid of  889 points,  6 beta functions with: 
                l(1) =   0
                l(2) =   0
                l(3) =   1
                l(4) =   1
                l(5) =   2
                l(6) =   2
     Q(r) pseudized with  6 coefficients,  rinner =    1.000   1.000   1.000
                                                       1.000   1.000

     PseudoPot. # 3 for H  read from file:
     /home/camp/zhonxu/pseudo/h_pbe_v1.uspp.F.UPF
     MD5 check sum: 3408e3ff4ec8b0a4e358431e7e038a48
     Pseudo is Ultrasoft, Zval =  1.0
     Generated by new atomic code, or converted to UPF format
     Using radial grid of  615 points,  2 beta functions with: 
                l(1) =   0
                l(2) =   0
     Q(r) pseudized with  8 coefficients,  rinner =    0.700

     atomic species   valence    mass     pseudopotential
        O0             6.00    15.99940     O ( 1.00)
        Mo1           14.00    95.94000     Mo( 1.00)
        H2             1.00     1.00794     H ( 1.00)


     Simplified LDA+U calculation (l_max = 2) with parameters (eV):
     atomic species    L          U    alpha       J0     beta
        Mo1            2     6.0000   0.0000   0.0000   0.0000



     No symmetry found



   Cartesian axes

     site n.     atom                  positions (alat units)
         1           O0  tau(   1) = (   0.0000000   0.0000000   1.8465574  )
         2           O0  tau(   2) = (   0.0000000   0.6410583   1.8808271  )
         3           Mo1 tau(   3) = (   0.2500000   0.6410583   2.1650231  )
         4           Mo1 tau(   4) = (   0.0000000   0.0000000   2.2064633  )
         5           O0  tau(   5) = (   0.2500000   1.0000510   2.1927158  )
         6           O0  tau(   6) = (   0.2500000   0.2820657   2.1921224  )
         7           O0  tau(   7) = (   0.0000000   0.6410583   2.4520379  )
         8           O0  tau(   8) = (   0.0000000   0.0000000   2.5658746  )
         9           Mo1 tau(   9) = (   0.2500000   0.0000000   2.8596642  )
        10           Mo1 tau(  10) = (   0.0000000   0.6410583   2.7884050  )
        11           O0  tau(  11) = (   0.2500000   0.9231240   2.8369661  )
        12           O0  tau(  12) = (   0.2500000   0.3589927   2.8372628  )
        13           O0  tau(  13) = (   0.0000000   0.0000000   3.1104807  )
        14           O0  tau(  14) = (   0.5000000   0.0000000   1.8465574  )
        15           O0  tau(  15) = (   0.5000000   0.6410583   1.8808271  )
        16           Mo1 tau(  16) = (   0.7500000   0.6410583   2.1650231  )
        17           Mo1 tau(  17) = (   0.5000000   0.0000000   2.2064633  )
        18           O0  tau(  18) = (   0.7500000   1.0000510   2.1927158  )
        19           O0  tau(  19) = (   0.7500000   0.2820657   2.1921224  )
        20           O0  tau(  20) = (   0.5000000   0.6410583   2.4520379  )
        21           O0  tau(  21) = (   0.5000000   0.0000000   2.5658746  )
        22           Mo1 tau(  22) = (   0.7500000   0.0000000   2.8596642  )
        23           Mo1 tau(  23) = (   0.5000000   0.6410583   2.7884050  )
        24           O0  tau(  24) = (   0.7500000   0.9231240   2.8369661  )
        25           O0  tau(  25) = (   0.7500000   0.3589927   2.8372628  )
        26           O0  tau(  26) = (   0.5000000   0.0000000   3.1104807  )
        27           H2  tau(  27) = (  -0.0004900   0.7868222   1.7746059  )
        28           H2  tau(  28) = (   0.4995100   0.7868222   1.7746059  )
        29           H2  tau(  29) = (   0.1657500   0.0265270   1.7749026  )
        30           H2  tau(  30) = (   0.6657500   0.0265270   1.7749026  )

     number of k points=    10  Methfessel-Paxton smearing, width (Ry)=  0.0100
                       cart. coord. in units 2pi/alat
        k(    1) = (   0.0000000   0.0000000   0.0000000), wk =   0.1250000
        k(    2) = (   0.0000000   0.1949901   0.0000000), wk =   0.2500000
        k(    3) = (   0.0000000  -0.3899801   0.0000000), wk =   0.1250000
        k(    4) = (   0.2500000   0.0000000   0.0000000), wk =   0.2500000
        k(    5) = (   0.2500000   0.1949901   0.0000000), wk =   0.2500000
        k(    6) = (   0.2500000  -0.3899801   0.0000000), wk =   0.2500000
        k(    7) = (  -0.5000000   0.0000000   0.0000000), wk =   0.1250000
        k(    8) = (  -0.5000000   0.1949901   0.0000000), wk =   0.2500000
        k(    9) = (  -0.5000000  -0.3899801   0.0000000), wk =   0.1250000
        k(   10) = (  -0.2500000   0.1949901   0.0000000), wk =   0.2500000

     Dense  grid:  1314909 G-vectors     FFT dimensions: (  75,  96, 375)

     Smooth grid:   238057 G-vectors     FFT dimensions: (  45,  54, 216)

     Largest allocated arrays     est. size (Mb)     dimensions
        Kohn-Sham Wavefunctions        38.42 Mb     (   7494,  336)
        Atomic wavefunctions           20.58 Mb     (   7494,  180)
        NL pseudopotentials            44.14 Mb     (   7494,  386)
        Each V/rho on FFT grid         10.33 Mb     ( 676800)
        Each G-vector array             2.51 Mb     ( 328726)
        G-vector shells                 1.08 Mb     ( 142042)
     Largest temporary arrays     est. size (Mb)     dimensions
        Auxiliary wavefunctions       153.69 Mb     (   7494, 1344)
        Each subspace H/S matrix       27.56 Mb     (1344,1344)
        Each <psi_i|beta_j> matrix      1.98 Mb     (    386,  336)
        Arrays for rho mixing          82.62 Mb     ( 676800,   8)

     Check: negative/imaginary core charge=   -0.000003    0.000000

     Initial potential from superposition of free atoms
     Check: negative starting charge=   -0.002478

     starting charge  223.99143, renormalised to  224.00000

     negative rho (up, down):  0.248E-02 0.000E+00
     Number of +U iterations with fixed ns =  0
     Starting occupations:
 --- enter write_ns ---
 LDA+U parameters:
U( 2)     =  6.00000000
alpha( 2) =  0.00000000
atom    3   Tr[ns(na)] =   5.00000
    eigenvalues: 
  0.500  0.500  0.500  0.500  0.500
    eigenvectors:
  1.000  0.000  0.000  0.000  0.000
  0.000  1.000  0.000  0.000  0.000
  0.000  0.000  1.000  0.000  0.000
  0.000  0.000  0.000  1.000  0.000
  0.000  0.000  0.000  0.000  1.000
    occupations:
  0.500  0.000  0.000  0.000  0.000
  0.000  0.500  0.000  0.000  0.000
  0.000  0.000  0.500  0.000  0.000
  0.000  0.000  0.000  0.500  0.000
  0.000  0.000  0.000  0.000  0.500
atom    4   Tr[ns(na)] =   5.00000
    eigenvalues: 
  0.500  0.500  0.500  0.500  0.500
    eigenvectors:
  1.000  0.000  0.000  0.000  0.000
  0.000  1.000  0.000  0.000  0.000
  0.000  0.000  1.000  0.000  0.000
  0.000  0.000  0.000  1.000  0.000
  0.000  0.000  0.000  0.000  1.000
    occupations:
  0.500  0.000  0.000  0.000  0.000
  0.000  0.500  0.000  0.000  0.000
  0.000  0.000  0.500  0.000  0.000
  0.000  0.000  0.000  0.500  0.000
  0.000  0.000  0.000  0.000  0.500
atom    9   Tr[ns(na)] =   5.00000
    eigenvalues: 
  0.500  0.500  0.500  0.500  0.500
    eigenvectors:
  1.000  0.000  0.000  0.000  0.000
  0.000  1.000  0.000  0.000  0.000
  0.000  0.000  1.000  0.000  0.000
  0.000  0.000  0.000  1.000  0.000
  0.000  0.000  0.000  0.000  1.000
    occupations:
  0.500  0.000  0.000  0.000  0.000
  0.000  0.500  0.000  0.000  0.000
  0.000  0.000  0.500  0.000  0.000
  0.000  0.000  0.000  0.500  0.000
  0.000  0.000  0.000  0.000  0.500
atom   10   Tr[ns(na)] =   5.00000
    eigenvalues: 
  0.500  0.500  0.500  0.500  0.500
    eigenvectors:
  1.000  0.000  0.000  0.000  0.000
  0.000  1.000  0.000  0.000  0.000
  0.000  0.000  1.000  0.000  0.000
  0.000  0.000  0.000  1.000  0.000
  0.000  0.000  0.000  0.000  1.000
    occupations:
  0.500  0.000  0.000  0.000  0.000
  0.000  0.500  0.000  0.000  0.000
  0.000  0.000  0.500  0.000  0.000
  0.000  0.000  0.000  0.500  0.000
  0.000  0.000  0.000  0.000  0.500
atom   16   Tr[ns(na)] =   5.00000
    eigenvalues: 
  0.500  0.500  0.500  0.500  0.500
    eigenvectors:
  1.000  0.000  0.000  0.000  0.000
  0.000  1.000  0.000  0.000  0.000
  0.000  0.000  1.000  0.000  0.000
  0.000  0.000  0.000  1.000  0.000
  0.000  0.000  0.000  0.000  1.000
    occupations:
  0.500  0.000  0.000  0.000  0.000
  0.000  0.500  0.000  0.000  0.000
  0.000  0.000  0.500  0.000  0.000
  0.000  0.000  0.000  0.500  0.000
  0.000  0.000  0.000  0.000  0.500
atom   17   Tr[ns(na)] =   5.00000
    eigenvalues: 
  0.500  0.500  0.500  0.500  0.500
    eigenvectors:
  1.000  0.000  0.000  0.000  0.000
  0.000  1.000  0.000  0.000  0.000
  0.000  0.000  1.000  0.000  0.000
  0.000  0.000  0.000  1.000  0.000
  0.000  0.000  0.000  0.000  1.000
    occupations:
  0.500  0.000  0.000  0.000  0.000
  0.000  0.500  0.000  0.000  0.000
  0.000  0.000  0.500  0.000  0.000
  0.000  0.000  0.000  0.500  0.000
  0.000  0.000  0.000  0.000  0.500
atom   22   Tr[ns(na)] =   5.00000
    eigenvalues: 
  0.500  0.500  0.500  0.500  0.500
    eigenvectors:
  1.000  0.000  0.000  0.000  0.000
  0.000  1.000  0.000  0.000  0.000
  0.000  0.000  1.000  0.000  0.000
  0.000  0.000  0.000  1.000  0.000
  0.000  0.000  0.000  0.000  1.000
    occupations:
  0.500  0.000  0.000  0.000  0.000
  0.000  0.500  0.000  0.000  0.000
  0.000  0.000  0.500  0.000  0.000
  0.000  0.000  0.000  0.500  0.000
  0.000  0.000  0.000  0.000  0.500
atom   23   Tr[ns(na)] =   5.00000
    eigenvalues: 
  0.500  0.500  0.500  0.500  0.500
    eigenvectors:
  1.000  0.000  0.000  0.000  0.000
  0.000  1.000  0.000  0.000  0.000
  0.000  0.000  1.000  0.000  0.000
  0.000  0.000  0.000  1.000  0.000
  0.000  0.000  0.000  0.000  1.000
    occupations:
  0.500  0.000  0.000  0.000  0.000
  0.000  0.500  0.000  0.000  0.000
  0.000  0.000  0.500  0.000  0.000
  0.000  0.000  0.000  0.500  0.000
  0.000  0.000  0.000  0.000  0.500
N of occupied +U levels =  40.0000000
 --- exit write_ns ---
 Atomic wfc used for LDA+U Projector are NOT orthogonalized
     Starting wfc are  180 randomized atomic wfcs

     total cpu time spent up to now is      101.5 secs

     per-process dynamical memory:   376.2 Mb

     Self-consistent Calculation

     iteration #  1     ecut=    40.00 Ry     beta=0.70
     Davidson diagonalization with overlap
     ethr =  1.00E-02,  avg # of iterations =  6.0
 --- enter write_ns ---
 LDA+U parameters:
U( 2)     =  6.00000000
alpha( 2) =  0.00000000
atom    3   Tr[ns(na)] =   5.01778
    eigenvalues: 
  0.323  0.426  0.475  0.573  0.712
    eigenvectors:
  0.003  0.000  0.440  0.000  0.557
  0.000  1.000  0.000  0.000  0.000
  0.996  0.000  0.001  0.000  0.003
  0.000  0.000  0.560  0.000  0.440
  0.000  0.000  0.000  1.000  0.000
    occupations:
  0.606  0.000  0.019 -0.117  0.000
  0.000  0.426 -0.000 -0.000 -0.001
  0.019 -0.000  0.324 -0.011 -0.000
 -0.117 -0.000 -0.011  0.579 -0.000
  0.000 -0.001 -0.000 -0.000  0.573
atom    4   Tr[ns(na)] =   5.02513
    eigenvalues: 
  0.321  0.437  0.488  0.578  0.688
    eigenvectors:
  0.000  0.000  0.971  0.000  0.029
  0.000  0.000  0.000  1.000  0.000
  1.000  0.000  0.000  0.000  0.000
  0.000  0.000  0.029  0.000  0.971
  0.000  1.000  0.000  0.000  0.000
    occupations:
  0.494  0.001  0.001 -0.034  0.000
  0.001  0.578  0.004  0.000 -0.000
  0.001  0.004  0.321 -0.000  0.000
 -0.034  0.000 -0.000  0.682  0.000
  0.000 -0.000  0.000  0.000  0.437
atom    9   Tr[ns(na)] =   4.93972
    eigenvalues: 
  0.359  0.484  0.491  0.494  0.641
    eigenvectors:
  0.000  0.000  0.000  0.355  0.644
  0.000  0.001  0.998  0.001  0.000
  1.000  0.000  0.000  0.000  0.000
  0.000  0.000  0.001  0.643  0.356
  0.000  0.999  0.001  0.000  0.000
    occupations:
  0.589 -0.000 -0.000 -0.071 -0.001
 -0.000  0.491 -0.000  0.000  0.000
 -0.000 -0.000  0.359  0.000 -0.000
 -0.071  0.000  0.000  0.546  0.000
 -0.001  0.000 -0.000  0.000  0.484
atom   10   Tr[ns(na)] =   4.70859
    eigenvalues: 
  0.298  0.393  0.420  0.535  0.709
    eigenvectors:
  0.000  0.970  0.000  0.000  0.030
  0.000  0.000  0.000  1.000  0.000
  1.000  0.000  0.000  0.000  0.000
  0.000  0.030  0.000  0.000  0.970
  0.000  0.000  1.000  0.000  0.000
    occupations:
  0.403  0.000 -0.000 -0.054  0.000
  0.000  0.535 -0.000 -0.000  0.000
 -0.000 -0.000  0.298 -0.000 -0.000
 -0.054 -0.000 -0.000  0.699 -0.000
  0.000  0.000 -0.000 -0.000  0.420
atom   16   Tr[ns(na)] =   5.01779
    eigenvalues: 
  0.323  0.426  0.475  0.573  0.712
    eigenvectors:
  0.003  0.000  0.440  0.000  0.557
  0.000  1.000  0.000  0.000  0.000
  0.996  0.000  0.001  0.000  0.003
  0.000  0.000  0.560  0.000  0.440
  0.000  0.000  0.000  1.000  0.000
    occupations:
  0.606  0.000  0.019 -0.117  0.000
  0.000  0.426 -0.000 -0.000 -0.001
  0.019 -0.000  0.324 -0.011 -0.000
 -0.117 -0.000 -0.011  0.579 -0.000
  0.000 -0.001 -0.000 -0.000  0.573
atom   17   Tr[ns(na)] =   5.02512
    eigenvalues: 
  0.321  0.437  0.488  0.578  0.688
    eigenvectors:
  0.000  0.000  0.971  0.000  0.029
  0.000  0.000  0.000  1.000  0.000
  1.000  0.000  0.000  0.000  0.000
  0.000  0.000  0.029  0.000  0.971
  0.000  1.000  0.000  0.000  0.000
    occupations:
  0.494  0.001  0.001 -0.034  0.000
  0.001  0.578  0.004  0.000 -0.000
  0.001  0.004  0.321 -0.000  0.000
 -0.034  0.000 -0.000  0.682  0.000
  0.000 -0.000  0.000  0.000  0.437
atom   22   Tr[ns(na)] =   4.93972
    eigenvalues: 
  0.359  0.484  0.491  0.494  0.641
    eigenvectors:
  0.000  0.000  0.000  0.355  0.644
  0.000  0.001  0.998  0.001  0.000
  1.000  0.000  0.000  0.000  0.000
  0.000  0.000  0.001  0.643  0.356
  0.000  0.999  0.001  0.000  0.000
    occupations:
  0.589 -0.000 -0.000 -0.071 -0.001
 -0.000  0.491 -0.000  0.000  0.000
 -0.000 -0.000  0.359  0.000 -0.000
 -0.071  0.000  0.000  0.546  0.000
 -0.001  0.000 -0.000  0.000  0.484
atom   23   Tr[ns(na)] =   4.70858
    eigenvalues: 
  0.298  0.393  0.420  0.535  0.709
    eigenvectors:
  0.000  0.970  0.000  0.000  0.030
  0.000  0.000  0.000  1.000  0.000
  1.000  0.000  0.000  0.000  0.000
  0.000  0.030  0.000  0.000  0.970
  0.000  0.000  1.000  0.000  0.000
    occupations:
  0.403  0.000 -0.000 -0.054  0.000
  0.000  0.535 -0.000 -0.000  0.000
 -0.000 -0.000  0.298 -0.000 -0.000
 -0.054 -0.000 -0.000  0.699 -0.000
  0.000  0.000 -0.000 -0.000  0.420
N of occupied +U levels =  39.3824307
 --- exit write_ns ---

     negative rho (up, down):  0.323E-02 0.000E+00

     total cpu time spent up to now is      456.9 secs

     total energy              =   -1691.61744135 Ry
     Harris-Foulkes estimate   =   -1697.69278664 Ry
     estimated scf accuracy    <       8.23731531 Ry

     iteration #  2     ecut=    40.00 Ry     beta=0.70
     Davidson diagonalization with overlap
     ethr =  3.68E-03,  avg # of iterations =  2.8

     negative rho (up, down):  0.108E-01 0.000E+00

     total cpu time spent up to now is      650.3 secs

     total energy              =   -1679.85982324 Ry
     Harris-Foulkes estimate   =   -1705.47746934 Ry
     estimated scf accuracy    <     120.76048123 Ry

     iteration #  3     ecut=    40.00 Ry     beta=0.70
     Davidson diagonalization with overlap
     ethr =  3.68E-03,  avg # of iterations =  4.6

     negative rho (up, down):  0.579E-02 0.000E+00

     total cpu time spent up to now is      871.9 secs

     total energy              =   -1676.30919301 Ry
     Harris-Foulkes estimate   =   -1707.68229631 Ry
     estimated scf accuracy    <     481.52600445 Ry

     iteration #  4     ecut=    40.00 Ry     beta=0.70
     Davidson diagonalization with overlap
     ethr =  3.68E-03,  avg # of iterations =  4.1

     negative rho (up, down):  0.493E-02 0.000E+00

     total cpu time spent up to now is     1089.5 secs

     total energy              =   -1693.97900811 Ry
     Harris-Foulkes estimate   =   -1698.38144203 Ry
     estimated scf accuracy    <      43.29907464 Ry

     iteration #  5     ecut=    40.00 Ry     beta=0.70
     Davidson diagonalization with overlap
     ethr =  3.68E-03,  avg # of iterations =  2.5

     negative rho (up, down):  0.311E-02 0.000E+00

     total cpu time spent up to now is     1259.0 secs

     total energy              =   -1695.97189913 Ry
     Harris-Foulkes estimate   =   -1696.47107558 Ry
     estimated scf accuracy    <       2.25096758 Ry

     iteration #  6     ecut=    40.00 Ry     beta=0.70
     Davidson diagonalization with overlap
     ethr =  1.00E-03,  avg # of iterations =  3.8

     negative rho (up, down):  0.270E-02 0.000E+00

     total cpu time spent up to now is     1445.2 secs

     total energy              =   -1696.04566247 Ry
     Harris-Foulkes estimate   =   -1696.23746886 Ry
     estimated scf accuracy    <       1.03650186 Ry

     iteration #  7     ecut=    40.00 Ry     beta=0.70
     Davidson diagonalization with overlap
     ethr =  4.63E-04,  avg # of iterations =  3.3

     negative rho (up, down):  0.240E-02 0.000E+00

     total cpu time spent up to now is     1625.0 secs

     total energy              =   -1696.09257104 Ry
     Harris-Foulkes estimate   =   -1696.15899269 Ry
     estimated scf accuracy    <       0.39938989 Ry

     iteration #  8     ecut=    40.00 Ry     beta=0.70
     Davidson diagonalization with overlap
     ethr =  1.78E-04,  avg # of iterations =  3.1

     negative rho (up, down):  0.226E-02 0.000E+00

     total cpu time spent up to now is     1800.3 secs

     total energy              =   -1696.08078214 Ry
     Harris-Foulkes estimate   =   -1696.13068721 Ry
     estimated scf accuracy    <       0.22366995 Ry

     iteration #  9     ecut=    40.00 Ry     beta=0.70
     Davidson diagonalization with overlap
     ethr =  9.99E-05,  avg # of iterations =  5.8

     negative rho (up, down):  0.237E-02 0.000E+00

     total cpu time spent up to now is     1998.1 secs

     total energy              =   -1696.08742314 Ry
     Harris-Foulkes estimate   =   -1696.13017306 Ry
     estimated scf accuracy    <       0.20756612 Ry

     iteration # 10     ecut=    40.00 Ry     beta=0.70
     Davidson diagonalization with overlap
     ethr =  9.27E-05,  avg # of iterations =  4.8

     negative rho (up, down):  0.235E-02 0.000E+00

     total cpu time spent up to now is     2191.3 secs

     total energy              =   -1696.10590851 Ry
     Harris-Foulkes estimate   =   -1696.11317984 Ry
     estimated scf accuracy    <       0.07695730 Ry

     iteration # 11     ecut=    40.00 Ry     beta=0.70
     Davidson diagonalization with overlap
     ethr =  3.44E-05,  avg # of iterations =  1.8

     negative rho (up, down):  0.236E-02 0.000E+00

     total cpu time spent up to now is     2363.2 secs

     total energy              =   -1696.10946974 Ry
     Harris-Foulkes estimate   =   -1696.11046369 Ry
     estimated scf accuracy    <       0.01046042 Ry

     iteration # 12     ecut=    40.00 Ry     beta=0.70
     Davidson diagonalization with overlap
     ethr =  4.67E-06,  avg # of iterations =  7.3

     negative rho (up, down):  0.297E-02 0.000E+00

     total cpu time spent up to now is     2554.3 secs

     total energy              =   -1696.10840538 Ry
     Harris-Foulkes estimate   =   -1696.11080667 Ry
     estimated scf accuracy    <       0.01221731 Ry

     iteration # 13     ecut=    40.00 Ry     beta=0.70
     Davidson diagonalization with overlap
     ethr =  4.67E-06,  avg # of iterations =  6.1

     negative rho (up, down):  0.290E-02 0.000E+00

     total cpu time spent up to now is     2770.3 secs

     total energy              =   -1696.10525250 Ry
     Harris-Foulkes estimate   =   -1696.11653071 Ry
     estimated scf accuracy    <       0.12015373 Ry

     iteration # 14     ecut=    40.00 Ry     beta=0.70
     Davidson diagonalization with overlap
     ethr =  4.67E-06,  avg # of iterations =  5.7

     negative rho (up, down):  0.340E-02 0.000E+00

     total cpu time spent up to now is     2957.8 secs

     total energy              =   -1696.11101412 Ry
     Harris-Foulkes estimate   =   -1696.11114737 Ry
     estimated scf accuracy    <       0.00263993 Ry

     iteration # 15     ecut=    40.00 Ry     beta=0.70
     Davidson diagonalization with overlap
     ethr =  1.18E-06,  avg # of iterations =  1.8

     negative rho (up, down):  0.347E-02 0.000E+00

     total cpu time spent up to now is     3120.4 secs

     total energy              =   -1696.11102414 Ry
     Harris-Foulkes estimate   =   -1696.11139707 Ry
     estimated scf accuracy    <       0.00159466 Ry

     iteration # 16     ecut=    40.00 Ry     beta=0.70
     Davidson diagonalization with overlap
     ethr =  7.12E-07,  avg # of iterations =  1.0

     negative rho (up, down):  0.392E-02 0.000E+00

     total cpu time spent up to now is     3281.8 secs

     total energy              =   -1696.11125434 Ry
     Harris-Foulkes estimate   =   -1696.11135763 Ry
     estimated scf accuracy    <       0.00127503 Ry

     iteration # 17     ecut=    40.00 Ry     beta=0.70
     Davidson diagonalization with overlap
     ethr =  5.69E-07,  avg # of iterations =  1.0

     negative rho (up, down):  0.382E-02 0.000E+00

     total cpu time spent up to now is     3447.6 secs

     total energy              =   -1696.11137246 Ry
     Harris-Foulkes estimate   =   -1696.11139001 Ry
     estimated scf accuracy    <       0.00008506 Ry

     iteration # 18     ecut=    40.00 Ry     beta=0.70
     Davidson diagonalization with overlap
     ethr =  3.80E-08,  avg # of iterations =  2.0

     negative rho (up, down):  0.370E-02 0.000E+00

     total cpu time spent up to now is     3616.3 secs

     total energy              =   -1696.11137989 Ry
     Harris-Foulkes estimate   =   -1696.11141072 Ry
     estimated scf accuracy    <       0.00014410 Ry

     iteration # 19     ecut=    40.00 Ry     beta=0.70
     Davidson diagonalization with overlap
     ethr =  3.80E-08,  avg # of iterations =  1.1

     negative rho (up, down):  0.364E-02 0.000E+00

     total cpu time spent up to now is     3787.6 secs

     total energy              =   -1696.11139641 Ry
     Harris-Foulkes estimate   =   -1696.11140872 Ry
     estimated scf accuracy    <       0.00009285 Ry

     iteration # 20     ecut=    40.00 Ry     beta=0.70
     Davidson diagonalization with overlap
     ethr =  3.80E-08,  avg # of iterations =  1.0

     negative rho (up, down):  0.360E-02 0.000E+00

     total cpu time spent up to now is     3953.5 secs

     total energy              =   -1696.11140262 Ry
     Harris-Foulkes estimate   =   -1696.11141186 Ry
     estimated scf accuracy    <       0.00004787 Ry

     iteration # 21     ecut=    40.00 Ry     beta=0.70
     Davidson diagonalization with overlap
     ethr =  2.14E-08,  avg # of iterations =  1.0

     negative rho (up, down):  0.361E-02 0.000E+00

     total cpu time spent up to now is     4112.9 secs

     total energy              =   -1696.11140748 Ry
     Harris-Foulkes estimate   =   -1696.11141067 Ry
     estimated scf accuracy    <       0.00001650 Ry

     iteration # 22     ecut=    40.00 Ry     beta=0.70
     Davidson diagonalization with overlap
     ethr =  7.37E-09,  avg # of iterations =  1.0

     negative rho (up, down):  0.355E-02 0.000E+00

     total cpu time spent up to now is     4270.3 secs

     total energy              =   -1696.11140913 Ry
     Harris-Foulkes estimate   =   -1696.11141025 Ry
     estimated scf accuracy    <       0.00000774 Ry

     iteration # 23     ecut=    40.00 Ry     beta=0.70
     Davidson diagonalization with overlap
     ethr =  3.45E-09,  avg # of iterations =  1.0

     negative rho (up, down):  0.356E-02 0.000E+00

     total cpu time spent up to now is     4436.5 secs

     total energy              =   -1696.11140968 Ry
     Harris-Foulkes estimate   =   -1696.11141060 Ry
     estimated scf accuracy    <       0.00000286 Ry

     iteration # 24     ecut=    40.00 Ry     beta=0.70
     Davidson diagonalization with overlap
     ethr =  1.28E-09,  avg # of iterations =  1.0

     negative rho (up, down):  0.355E-02 0.000E+00

     total cpu time spent up to now is     4595.5 secs

     total energy              =   -1696.11140929 Ry
     Harris-Foulkes estimate   =   -1696.11141108 Ry
     estimated scf accuracy    <       0.00002587 Ry

     iteration # 25     ecut=    40.00 Ry     beta=0.70
     Davidson diagonalization with overlap
     ethr =  1.28E-09,  avg # of iterations =  1.0

     negative rho (up, down):  0.355E-02 0.000E+00

     total cpu time spent up to now is     4761.0 secs

     total energy              =   -1696.11141033 Ry
     Harris-Foulkes estimate   =   -1696.11141048 Ry
     estimated scf accuracy    <       0.00000111 Ry

     iteration # 26     ecut=    40.00 Ry     beta=0.70
     Davidson diagonalization with overlap
     ethr =  4.95E-10,  avg # of iterations =  1.3

     negative rho (up, down):  0.355E-02 0.000E+00

     total cpu time spent up to now is     4940.4 secs

     total energy              =   -1696.11141024 Ry
     Harris-Foulkes estimate   =   -1696.11141079 Ry
     estimated scf accuracy    <       0.00000349 Ry

     iteration # 27     ecut=    40.00 Ry     beta=0.70
     Davidson diagonalization with overlap
     ethr =  4.95E-10,  avg # of iterations =  1.0

     negative rho (up, down):  0.355E-02 0.000E+00

     total cpu time spent up to now is     5116.2 secs

     End of self-consistent calculation
 --- enter write_ns ---
 LDA+U parameters:
U( 2)     =  6.00000000
alpha( 2) =  0.00000000
atom    3   Tr[ns(na)] =   5.83158
    eigenvalues: 
  0.398  0.499  0.568  0.674  0.777
    eigenvectors:
  0.011  0.000  0.295  0.000  0.694
  0.000  0.997  0.000  0.003  0.000
  0.988  0.000  0.001  0.000  0.011
  0.001  0.000  0.704  0.000  0.295
  0.000  0.003  0.000  0.997  0.000
    occupations:
  0.711  0.000  0.036 -0.094  0.000
  0.000  0.499 -0.000 -0.000 -0.010
  0.036 -0.000  0.402 -0.017  0.000
 -0.094 -0.000 -0.017  0.630 -0.000
  0.000 -0.010  0.000 -0.000  0.673
atom    4   Tr[ns(na)] =   5.82234
    eigenvalues: 
  0.377  0.522  0.589  0.652  0.771
    eigenvectors:
  0.000  0.000  0.988  0.011  0.000
  0.000  0.000  0.011  0.988  0.001
  1.000  0.000  0.000  0.000  0.000
  0.000  0.000  0.000  0.001  0.999
  0.000  1.000  0.000  0.000  0.000
    occupations:
  0.590  0.007  0.002  0.003  0.000
  0.007  0.652  0.001 -0.004 -0.001
  0.002  0.001  0.377 -0.003  0.000
  0.003 -0.004 -0.003  0.770  0.000
  0.000 -0.001  0.000  0.000  0.522
atom    9   Tr[ns(na)] =   5.83719
    eigenvalues: 
  0.465  0.492  0.596  0.601  0.764
    eigenvectors:
  0.000  0.000  0.222  0.000  0.778
  0.000  0.000  0.001  0.999  0.000
  0.000  1.000  0.000  0.000  0.000
  0.000  0.000  0.777  0.000  0.222
  1.000  0.000  0.000  0.000  0.000
    occupations:
  0.727  0.000  0.001 -0.070 -0.002
  0.000  0.601 -0.000  0.000 -0.000
  0.001 -0.000  0.492 -0.001  0.000
 -0.070  0.000 -0.001  0.633  0.001
 -0.002 -0.000  0.000  0.001  0.465
atom   10   Tr[ns(na)] =   5.77759
    eigenvalues: 
  0.389  0.486  0.495  0.744  0.775
    eigenvectors:
  0.002  0.998  0.000  0.000  0.000
  0.000  0.000  0.000  1.000  0.000
  0.998  0.002  0.000  0.000  0.000
  0.000  0.000  0.000  0.000  1.000
  0.000  0.000  1.000  0.000  0.000
    occupations:
  0.486  0.000 -0.004 -0.003 -0.000
  0.000  0.744 -0.001 -0.000  0.000
 -0.004 -0.001  0.389  0.001  0.000
 -0.003 -0.000  0.001  0.775 -0.000
 -0.000  0.000  0.000 -0.000  0.495
atom   16   Tr[ns(na)] =   5.83164
    eigenvalues: 
  0.398  0.499  0.568  0.674  0.777
    eigenvectors:
  0.011  0.000  0.295  0.000  0.694
  0.000  0.997  0.000  0.003  0.000
  0.988  0.000  0.001  0.000  0.011
  0.001  0.000  0.704  0.000  0.295
  0.000  0.003  0.000  0.997  0.000
    occupations:
  0.711  0.000  0.036 -0.094  0.000
  0.000  0.499 -0.000 -0.000 -0.010
  0.036 -0.000  0.402 -0.017  0.000
 -0.094 -0.000 -0.017  0.630 -0.000
  0.000 -0.010  0.000 -0.000  0.673
atom   17   Tr[ns(na)] =   5.82237
    eigenvalues: 
  0.377  0.522  0.589  0.652  0.771
    eigenvectors:
  0.000  0.000  0.989  0.011  0.000
  0.000  0.000  0.011  0.988  0.001
  1.000  0.000  0.000  0.000  0.000
  0.000  0.000  0.000  0.001  0.999
  0.000  1.000  0.000  0.000  0.000
    occupations:
  0.590  0.007  0.002  0.003  0.000
  0.007  0.652  0.001 -0.004 -0.001
  0.002  0.001  0.377 -0.003  0.000
  0.003 -0.004 -0.003  0.770  0.000
  0.000 -0.001  0.000  0.000  0.522
atom   22   Tr[ns(na)] =   5.83720
    eigenvalues: 
  0.465  0.492  0.596  0.601  0.764
    eigenvectors:
  0.000  0.000  0.222  0.000  0.778
  0.000  0.000  0.001  0.999  0.000
  0.000  1.000  0.000  0.000  0.000
  0.000  0.000  0.777  0.000  0.222
  1.000  0.000  0.000  0.000  0.000
    occupations:
  0.727  0.000  0.001 -0.070 -0.002
  0.000  0.601 -0.000  0.000 -0.000
  0.001 -0.000  0.492 -0.001  0.000
 -0.070  0.000 -0.001  0.633  0.001
 -0.002 -0.000  0.000  0.001  0.465
atom   23   Tr[ns(na)] =   5.77786
    eigenvalues: 
  0.389  0.486  0.495  0.744  0.775
    eigenvectors:
  0.002  0.998  0.000  0.000  0.000
  0.000  0.000  0.000  1.000  0.000
  0.998  0.002  0.000  0.000  0.000
  0.000  0.000  0.000  0.000  1.000
  0.000  0.000  1.000  0.000  0.000
    occupations:
  0.486  0.000 -0.004 -0.003 -0.000
  0.000  0.744 -0.001 -0.000  0.000
 -0.004 -0.001  0.389  0.001  0.000
 -0.003 -0.000  0.001  0.775 -0.000
 -0.000  0.000  0.000 -0.000  0.495
N of occupied +U levels =  46.5377719
 --- exit write_ns ---

          k = 0.0000 0.0000 0.0000 ( 29769 PWs)   bands (ev):

   -62.4577 -62.3301 -62.1481 -62.0334 -62.0199 -62.0072 -61.9015 -61.8925
   -37.0835 -36.9346 -36.8159 -36.6495 -36.5374 -36.3874 -36.3664 -36.3639
   -36.3617 -36.3393 -36.3271 -36.2661 -36.2454 -36.2157 -36.2074 -36.2010
   -36.1577 -36.0536 -36.0451 -36.0040 -35.9861 -35.3259 -35.3238 -35.2911
   -20.7865 -20.4063 -20.1324 -19.8714 -19.6880 -19.5488 -19.3476 -19.2717
   -19.1695 -19.1633 -19.1605 -18.9290 -18.8785 -18.7480 -18.6865 -18.4804
   -18.2000 -17.9466  -9.0781  -8.7499  -8.6086  -8.5352  -8.5132  -8.3696
    -7.9367  -7.5787  -7.3274  -7.2904  -7.2211  -7.1840  -6.9447  -6.8466
    -6.7775  -6.5510  -6.3484  -6.3330  -6.2922  -6.2265  -6.0764  -5.9518
    -5.6754  -5.3185  -5.2499  -5.1927  -5.1782  -5.1191  -5.0534  -4.9490
    -4.8417  -4.6514  -4.5231  -4.5116  -4.4864  -4.4057  -4.0161  -3.9927
    -3.9442  -3.9205  -3.8299  -3.6871  -3.6179  -3.4954  -3.4655  -3.3678
    -3.3265  -3.3083  -3.2853  -3.0853  -3.0390  -3.0080  -2.9533  -2.7848
    -2.6137  -2.5129  -2.2761  -1.2489  -0.7846  -0.5384  -0.0567   0.3170
     0.4098   0.4771   0.5315   0.6683   0.6727   1.1995   1.2080   1.4063
     1.6698   1.7263   1.7432   1.9860   2.3494   2.3530   2.3607   2.5205
     2.5515   2.8866   3.0829   3.4309   3.8170   4.0808   4.1174   4.2773
     4.3440   4.4292   4.6010   4.6261   4.7087   4.7109   4.8493   4.8915
     5.0816   5.1431   5.1648   5.3494   5.9180   6.1408   6.2534   6.4788
     6.9922   7.1492   7.2702   7.3968   7.4685   7.5864   7.7064   7.9100
     7.9572   7.9863   8.2047   8.2989   8.4736   8.6590   8.7105   8.8880
     8.8929   9.0441   9.0990   9.2578   9.3029   9.3940   9.5496   9.5976
     9.6962   9.7166   9.7728   9.8293   9.9763  10.0188  10.0240  10.2003
    10.3103  10.4452  10.5015  10.5289  10.7084  10.7739  10.9371  11.0054
    11.1736  11.2638  11.5266  11.5461  11.5668  11.6816  11.7069  11.7655
    11.8014  11.8934  12.0608  12.2768  12.3657  12.3867  12.4675  12.4767
    12.5322  12.5377  12.6654  12.6666  12.6965  12.7392  12.8393  12.9183
    12.9517  13.0030  13.0073  13.3085  13.3160  13.3261  13.3688  13.4911
    13.5642  13.5860  13.6563  13.8226  13.8317  13.8438  13.9543  14.0068
    14.0363  14.1951  14.2913  14.3656  14.3969  14.5993  14.6081  14.8512
    14.8673  14.9103  14.9334  15.0420  15.0766  15.1933  15.3102  15.4158
    15.4518  15.5904  15.6801  15.6930  15.7439  15.8778  15.9092  15.9707
    16.0814  16.1066  16.1475  16.2390  16.2488  16.2984  16.4291  16.5172
    16.6044  16.6524  16.7343  16.7413  16.7740  16.7868  16.8336  17.0156
    17.0511  17.1310  17.2190  17.2490  17.5692  17.6064  17.7492  17.7984
    17.8591  18.0028  18.0236  18.1047  18.1297  18.2852  18.3714  18.4541
    18.4888  18.5428  18.5657  18.6480  18.7845  18.8555  18.8984  18.9336
    19.1373  19.1397  19.3304  19.4247  19.4851  19.4969  19.5868  19.6594
    19.6931  19.7835  19.8025  19.9222  19.9688  20.0943  20.1918  20.3297
    20.3511  20.3858  20.4613  20.5060  20.7119  20.7319  20.8154  20.8273
    20.8961  21.0123  21.0532  21.2517  21.2928  21.4428  21.4757  21.4993
    21.5740  21.5894  21.6033  21.6697  21.6906  21.7337  21.7793  21.7992

          k = 0.0000 0.1950 0.0000 ( 29773 PWs)   bands (ev):

   -62.4564 -62.3301 -62.1473 -62.0333 -62.0183 -62.0065 -61.9021 -61.8926
   -37.0828 -36.9307 -36.8183 -36.6491 -36.5374 -36.3948 -36.3707 -36.3587
   -36.3528 -36.3380 -36.3268 -36.2656 -36.2430 -36.2081 -36.2073 -36.2010
   -36.1784 -36.0536 -36.0448 -36.0026 -35.9861 -35.3256 -35.3236 -35.2917
   -20.7812 -20.4058 -19.9836 -19.7549 -19.6866 -19.5440 -19.4929 -19.3418
   -19.2765 -19.2543 -19.1714 -19.0560 -18.7489 -18.7106 -18.6834 -18.3550
   -18.1991 -17.9452  -9.0744  -8.7008  -8.4958  -8.3847  -8.3697  -8.1717
    -7.9248  -7.9247  -7.8461  -7.6907  -7.3077  -7.1624  -7.1527  -6.8034
    -6.6709  -6.6290  -6.3447  -6.2922  -6.1198  -5.8902  -5.8635  -5.6974
    -5.4164  -5.3859  -5.3216  -5.2697  -5.2592  -5.1501  -5.0185  -4.9272
    -4.8827  -4.8440  -4.6919  -4.5444  -4.4077  -4.2177  -4.1965  -3.9873
    -3.8939  -3.8309  -3.8066  -3.6817  -3.6607  -3.5751  -3.4570  -3.4364
    -3.3480  -3.2009  -3.1067  -3.0509  -3.0478  -2.9670  -2.8566  -2.6927
    -2.5854  -2.5327  -2.2913  -1.2421  -1.2212  -0.9393  -0.5144   0.1993
     0.3785   0.7007   0.8418   1.0178   1.1010   1.2204   1.2320   1.5399
     1.5416   1.6815   1.8763   2.2110   2.2289   2.2965   2.4387   2.5198
     2.6833   2.7184   3.2245   3.4094   3.6739   3.7383   4.0542   4.0949
     4.1579   4.1929   4.3043   4.4428   4.5598   4.7701   4.8697   4.8956
     5.1558   5.4017   5.6253   5.9572   6.0867   6.2021   6.2363   6.2938
     6.3172   6.6753   6.7459   7.1709   7.3059   7.6171   7.8380   7.9506
     8.0636   8.1047   8.1765   8.3616   8.7710   8.8151   8.8803   9.0124
     9.1321   9.2316   9.4236   9.4486   9.5650   9.6963   9.7385   9.8072
     9.8649   9.8867   9.9235  10.0582  10.0648  10.1963  10.2525  10.3429
    10.3689  10.5261  10.6990  10.7917  10.7969  10.8628  10.9650  10.9728
    11.1054  11.2333  11.2793  11.3111  11.3747  11.4266  11.5579  11.6437
    11.6552  11.7302  11.8122  11.8823  11.9535  12.0299  12.2605  12.3128
    12.3728  12.5013  12.5360  12.5975  12.6822  12.7105  12.8307  12.8912
    12.9637  13.1197  13.2080  13.2524  13.4071  13.4339  13.5118  13.6037
    13.6238  13.7856  13.8146  13.8430  13.9130  14.0560  14.0987  14.1101
    14.2134  14.2268  14.3149  14.3750  14.4247  14.4825  14.6359  14.7070
    14.7397  14.8852  14.9369  14.9759  15.0854  15.0891  15.1432  15.2130
    15.2555  15.2594  15.4046  15.4336  15.4496  15.6049  15.6341  15.6836
    15.7884  15.9571  15.9720  16.1527  16.1592  16.2180  16.2761  16.4366
    16.4526  16.6090  16.7631  16.7676  16.9084  17.0891  17.0939  17.2329
    17.2375  17.3570  17.3854  17.4147  17.5038  17.6718  17.7573  17.8299
    17.9439  18.0635  18.1425  18.1888  18.2257  18.3901  18.4728  18.4990
    18.6054  18.6487  18.6791  18.7633  18.8413  18.8543  18.9435  19.0567
    19.0815  19.1620  19.2028  19.2354  19.3646  19.3961  19.5151  19.5280
    19.5497  19.6519  19.7436  19.7499  19.8023  19.8885  19.9002  19.9604
    19.9955  20.0694  20.1831  20.2860  20.3538  20.4008  20.4434  20.5515
    20.6243  20.7218  20.7290  20.7789  20.9860  21.0032  21.0194  21.0718
    21.1186  21.1976  21.3501  21.3818  21.4839  21.6106  21.7377  21.7857

          k = 0.0000-0.3900 0.0000 ( 29782 PWs)   bands (ev):

   -62.4550 -62.3300 -62.1465 -62.0331 -62.0167 -62.0058 -61.9028 -61.8927
   -37.0822 -36.9266 -36.8206 -36.6487 -36.5373 -36.4024 -36.3770 -36.3555
   -36.3415 -36.3311 -36.3266 -36.2651 -36.2344 -36.2085 -36.2075 -36.2010
   -36.2008 -36.0536 -36.0444 -36.0011 -35.9860 -35.3253 -35.3232 -35.2923
   -20.7765 -20.4054 -19.7465 -19.7270 -19.6913 -19.5169 -19.4648 -19.4125
   -19.3349 -19.2812 -19.2532 -19.1406 -19.0464 -18.7106 -18.5620 -18.1982
   -18.1521 -17.9436  -9.0701  -8.8073  -8.4737  -8.3963  -8.1245  -8.0567
    -8.0081  -7.9623  -7.7285  -7.6652  -7.5837  -7.2215  -7.1310  -6.7459
    -6.7382  -6.6108  -6.4329  -6.3726  -6.3185  -6.2372  -5.9737  -5.5078
    -5.3300  -5.3226  -5.2728  -5.2643  -5.0954  -5.0635  -5.0508  -4.8926
    -4.7674  -4.7039  -4.6933  -4.4459  -4.2976  -4.1975  -4.1927  -4.0744
    -4.0043  -3.8195  -3.7957  -3.5974  -3.5425  -3.5171  -3.4892  -3.4734
    -3.4467  -3.3375  -3.2235  -3.1237  -3.0557  -2.8312  -2.7024  -2.5412
    -2.5209  -2.4138  -2.2940  -1.5325  -1.3507  -1.2356  -0.9032   0.0941
     0.3558   1.1099   1.1336   1.1589   1.2104   1.2623   1.3419   1.5305
     1.6594   1.7796   2.0221   2.0679   2.1433   2.3081   2.5059   2.5232
     2.5625   2.7890   2.9632   3.0249   3.4533   3.7374   3.8890   4.0341
     4.1618   4.2657   4.4508   4.6039   4.8013   4.8901   4.8977   4.9652
     5.1369   5.2602   5.4501   5.5814   5.8654   6.0529   6.3410   6.3637
     6.5781   6.6432   6.8046   7.0506   7.1781   7.3377   7.3789   8.0002
     8.0265   8.1537   8.2368   8.3909   8.6278   8.6662   8.8989   9.0892
     9.5118   9.5993   9.7428   9.8546   9.8635   9.9725  10.1177  10.1321
    10.1412  10.1462  10.2093  10.2470  10.3174  10.3608  10.4008  10.4916
    10.6793  10.6900  10.7311  10.8816  11.0178  11.0314  11.0583  11.1532
    11.2393  11.2699  11.3007  11.3037  11.3456  11.4041  11.4332  11.5306
    11.6105  11.6203  11.7498  11.7540  11.8621  11.8883  11.9459  12.0005
    12.0868  12.0899  12.1257  12.1549  12.4971  12.5149  12.5660  12.6962
    12.7007  12.7542  12.8337  12.9657  13.1965  13.2883  13.3055  13.3444
    13.3447  13.4454  13.5621  13.5971  13.8882  13.9944  14.0547  14.0928
    14.2126  14.2561  14.3474  14.4455  14.4842  14.6495  14.7545  14.7628
    14.7769  14.9648  14.9812  15.1460  15.2398  15.2946  15.3719  15.4981
    15.5494  15.5681  15.6340  15.8335  15.9278  15.9737  16.1086  16.1307
    16.1745  16.2214  16.2378  16.2619  16.3460  16.4047  16.5076  16.5652
    16.5686  16.6728  16.7187  16.8284  16.8347  16.9241  16.9829  17.0646
    17.0947  17.1355  17.1812  17.2132  17.2688  17.2961  17.4373  17.5126
    17.5873  17.6063  17.6876  17.7538  18.0019  18.0295  18.0445  18.1382
    18.2039  18.2611  18.2689  18.3946  18.4872  18.5620  18.5919  18.7043
    18.7319  18.8802  19.0110  19.0890  19.0938  19.2087  19.2817  19.3856
    19.4008  19.4161  19.4610  19.5359  19.6051  19.7665  19.8539  19.9462
    20.1078  20.2153  20.2959  20.3838  20.4254  20.4792  20.5312  20.6066
    20.6301  20.6505  20.6642  20.8887  20.9295  20.9742  20.9964  21.0153
    21.1232  21.3418  21.3861  21.4216  21.5487  21.7568  21.8312  21.8453

          k = 0.2500 0.0000 0.0000 ( 29757 PWs)   bands (ev):

   -62.4251 -62.3358 -62.1183 -62.0380 -61.9874 -61.9768 -61.9065 -61.8947
   -36.9469 -36.9167 -36.8327 -36.6360 -36.5551 -36.3610 -36.3462 -36.3201
   -36.2507 -36.2419 -36.2353 -36.2308 -36.2285 -36.2268 -36.2177 -36.1987
   -36.1635 -36.1368 -36.0883 -36.0750 -36.0279 -35.5036 -35.5011 -35.4695
   -20.6902 -20.4186 -20.0056 -19.7513 -19.6229 -19.4603 -19.4546 -19.3100
   -19.2190 -19.1164 -19.0071 -18.9140 -18.9058 -18.8442 -18.7496 -18.5434
   -18.3047 -18.1236  -8.8022  -8.5947  -8.3829  -8.1364  -8.1240  -7.9267
    -7.5738  -7.3734  -7.2809  -7.1967  -7.1346  -7.0388  -6.9804  -6.8187
    -6.7011  -6.6027  -6.3969  -6.3965  -6.2648  -6.0309  -5.9476  -5.8447
    -5.7588  -5.7370  -5.7350  -5.6427  -5.5168  -5.2496  -5.0682  -4.9757
    -4.6631  -4.5463  -4.5411  -4.5196  -4.4713  -4.2830  -4.2460  -4.1536
    -4.0268  -4.0141  -3.9353  -3.8894  -3.8557  -3.8195  -3.4638  -3.4336
    -3.3681  -3.3676  -3.1646  -3.0723  -2.9671  -2.8044  -2.6160  -2.5812
    -2.4767  -2.2646  -2.2196  -0.9351  -0.7915  -0.4916  -0.0836   0.0446
     0.1828   0.3323   0.4043   0.6770   0.7759   0.9452   1.0015   1.0532
     1.2646   1.3149   1.3700   1.5844   1.7168   1.8799   1.9833   2.2772
     2.2791   2.8223   3.2450   3.7310   3.9877   4.1308   4.2440   4.2781
     4.4715   4.4769   4.5620   4.6258   4.6933   4.8021   4.8876   4.9673
     4.9867   5.0537   5.5516   5.6587   5.9149   6.2543   6.2713   6.6337
     6.7961   6.9007   7.1670   7.2832   7.4450   7.5100   7.7059   7.7716
     7.8961   7.8977   7.9941   8.1984   8.2838   8.3285   8.5647   8.7837
     8.8207   8.8638   9.0876   9.2691   9.3220   9.3956   9.4322   9.5122
     9.5204   9.7363   9.8074   9.9643  10.0550  10.1811  10.2394  10.2462
    10.2926  10.3213  10.3514  10.6252  10.6677  10.7113  10.7712  10.8133
    11.0347  11.1024  11.1463  11.3486  11.4101  11.4314  11.5384  11.5528
    11.7591  11.8918  11.9925  12.1410  12.1479  12.1914  12.3644  12.5164
    12.5604  12.6755  12.7129  12.9676  13.0252  13.0387  13.1461  13.2179
    13.2371  13.3100  13.3186  13.5022  13.5537  13.5852  13.6770  13.7937
    13.9403  14.0297  14.1574  14.2293  14.2674  14.3783  14.5744  14.5940
    14.7325  14.7877  14.8704  14.9918  15.1061  15.1096  15.1341  15.2321
    15.3334  15.4262  15.4439  15.4939  15.5419  15.6634  15.6867  15.7146
    15.8273  15.8334  15.9069  15.9819  16.0594  16.1062  16.2379  16.2780
    16.3326  16.3569  16.4402  16.5160  16.5930  16.7052  16.7205  16.8468
    16.8572  16.8774  16.9485  17.0378  17.0441  17.1470  17.1572  17.2177
    17.3189  17.3773  17.3807  17.6597  17.7207  17.7810  17.8016  17.8660
    17.8938  18.0754  18.1099  18.1571  18.1628  18.2802  18.3073  18.4530
    18.4628  18.6420  18.6712  18.7980  18.8633  18.8797  18.9393  18.9981
    18.9983  19.0856  19.1660  19.2135  19.4141  19.4273  19.4910  19.5210
    19.5938  19.6357  19.6579  19.7325  19.8097  19.8333  19.8898  19.9825
    19.9964  20.0417  20.0750  20.1089  20.1253  20.2432  20.3013  20.4163
    20.4319  20.4859  20.5302  20.5791  20.5825  20.6306  20.6628  20.7799
    20.8531  20.9323  20.9562  21.1531  21.3139  21.3813  21.5085  21.5158

          k = 0.2500 0.1950 0.0000 ( 29746 PWs)   bands (ev):

   -62.4239 -62.3356 -62.1175 -62.0377 -61.9867 -61.9757 -61.9064 -61.8951
   -36.9463 -36.9135 -36.8337 -36.6356 -36.5550 -36.3672 -36.3346 -36.3190
   -36.2658 -36.2505 -36.2307 -36.2292 -36.2271 -36.2153 -36.2065 -36.1992
   -36.1631 -36.1548 -36.0883 -36.0739 -36.0294 -35.5025 -35.5009 -35.4701
   -20.6864 -20.4179 -19.8802 -19.6723 -19.6120 -19.5469 -19.4495 -19.3905
   -19.2332 -19.1951 -19.0806 -18.9953 -18.8586 -18.7686 -18.7132 -18.4924
   -18.3039 -18.1226  -8.7955  -8.6233  -8.1200  -8.0481  -7.9593  -7.8218
    -7.7495  -7.6240  -7.5495  -7.4328  -7.2721  -7.1886  -6.9753  -6.9105
    -6.6254  -6.5546  -6.4065  -6.2982  -6.1669  -6.0714  -5.9453  -5.9012
    -5.7755  -5.6987  -5.4413  -5.3204  -5.2440  -5.1301  -4.9560  -4.8659
    -4.8587  -4.6570  -4.5630  -4.5507  -4.4762  -4.4033  -4.3345  -4.3299
    -4.2151  -4.0463  -3.9473  -3.9308  -3.8630  -3.7509  -3.5559  -3.4764
    -3.4087  -3.3329  -3.1840  -3.0531  -3.0068  -2.7871  -2.5081  -2.4880
    -2.3176  -2.1783  -1.9405  -1.1009  -0.9387  -0.8095  -0.4843   0.0032
     0.1232   0.4038   0.7056   0.8614   0.8764   1.0437   1.1568   1.2408
     1.3294   1.4527   1.5542   1.6280   1.7466   1.8834   1.9576   2.2182
     2.3244   2.6479   3.3773   3.4277   3.7253   3.7419   3.9315   4.1616
     4.3133   4.3499   4.5363   4.5783   4.6365   4.7189   4.9284   5.1436
     5.5030   5.6556   5.7632   5.7997   5.9492   6.1183   6.3145   6.4028
     6.5288   6.6336   6.9258   6.9914   7.1009   7.3107   7.5015   7.6195
     7.9264   7.9428   8.2115   8.2718   8.2802   8.4814   8.6366   8.7079
     8.9030   8.9927   9.0719   9.3294   9.3688   9.4372   9.4971   9.5634
     9.5862   9.6073   9.8209  10.0173  10.0209  10.1996  10.2016  10.3576
    10.4961  10.5215  10.6394  10.7216  10.7345  10.8779  11.0601  11.0905
    11.1826  11.2516  11.5551  11.6233  11.6313  11.7684  11.7960  11.9010
    11.9757  12.1084  12.2553  12.3008  12.3481  12.3659  12.5052  12.6521
    12.6534  12.7688  12.8766  12.8932  12.9654  13.1013  13.1092  13.1834
    13.3244  13.4135  13.4213  13.5135  13.5177  13.6961  13.7421  13.7543
    13.8735  13.8832  13.9939  14.0114  14.1282  14.1671  14.2363  14.3406
    14.4189  14.4711  14.4934  14.5591  14.5988  14.7329  14.8168  14.8351
    14.9593  15.0423  15.0924  15.2289  15.2965  15.3900  15.4784  15.5659
    15.6308  15.6641  15.7558  15.8698  15.8938  15.9709  16.0812  16.0986
    16.1826  16.2781  16.3084  16.3506  16.3888  16.4405  16.6023  16.7087
    16.7249  16.7668  16.7722  16.9023  17.0234  17.0881  17.1834  17.2277
    17.2280  17.3062  17.3549  17.4065  17.4848  17.6769  17.6911  17.8162
    17.8932  17.9175  18.0860  18.1014  18.1413  18.2668  18.2995  18.3903
    18.4191  18.4464  18.5867  18.5939  18.6047  18.8694  18.8986  19.0205
    19.0566  19.1329  19.1484  19.2526  19.3249  19.5362  19.6075  19.6449
    19.7022  19.7834  19.8281  19.9095  19.9525  20.1025  20.1595  20.1879
    20.1931  20.2427  20.3309  20.3894  20.4230  20.4280  20.4660  20.5400
    20.6729  20.6864  20.7649  20.8332  20.9457  20.9683  21.0436  21.0569
    21.1364  21.1940  21.2072  21.3167  21.4392  21.5003  21.5489  21.6347

          k = 0.2500-0.3900 0.0000 ( 29726 PWs)   bands (ev):

   -62.4228 -62.3353 -62.1168 -62.0375 -61.9861 -61.9746 -61.9063 -61.8955
   -36.9458 -36.9103 -36.8346 -36.6353 -36.5549 -36.3736 -36.3237 -36.3145
   -36.2770 -36.2502 -36.2312 -36.2276 -36.2269 -36.2085 -36.2007 -36.1909
   -36.1797 -36.1626 -36.0882 -36.0724 -36.0317 -35.5012 -35.5010 -35.4708
   -20.6828 -20.4173 -19.7117 -19.6595 -19.6276 -19.5092 -19.4664 -19.3541
   -19.3209 -19.2257 -19.1257 -19.0642 -18.9957 -18.7684 -18.7120 -18.3293
   -18.3032 -18.1217  -8.7895  -8.6514  -8.1237  -7.9935  -7.9817  -7.7178
    -7.6874  -7.6321  -7.5967  -7.3166  -7.1914  -7.1340  -7.0648  -6.9875
    -6.9221  -6.7860  -6.5671  -6.4466  -6.3351  -6.0443  -6.0201  -5.6840
    -5.4840  -5.4102  -5.2501  -5.2257  -5.1899  -5.0282  -4.9696  -4.8603
    -4.8283  -4.7363  -4.6746  -4.4940  -4.4890  -4.4642  -4.4214  -4.3580
    -4.3267  -4.2097  -4.0470  -3.8786  -3.8035  -3.6827  -3.5800  -3.4549
    -3.3312  -3.2793  -3.1771  -3.0752  -3.0591  -2.7856  -2.4670  -2.4381
    -2.3078  -2.0189  -1.8210  -1.3219  -1.1820  -0.9433  -0.7703  -0.0699
    -0.0334   0.6981   0.9263   1.0539   1.1978   1.2165   1.2889   1.3851
     1.3984   1.4656   1.5975   1.6672   1.9133   2.0441   2.0710   2.0942
     2.3695   2.4652   2.7325   3.0267   3.2896   3.5283   3.7023   4.1416
     4.3604   4.4089   4.5668   4.6382   4.8339   4.9629   5.1612   5.3206
     5.4575   5.5845   5.7903   5.9273   5.9318   6.1726   6.2183   6.3656
     6.3976   6.4583   6.7361   6.8483   7.0033   7.4114   7.4163   7.5794
     7.7787   7.8999   8.0064   8.1855   8.3077   8.3769   8.5393   8.5879
     8.7068   8.8082   9.0136   9.0855   9.2749   9.4283   9.5540   9.5896
     9.8770   9.9025   9.9525  10.3214  10.4424  10.4549  10.5129  10.6000
    10.6894  10.7406  10.8141  11.0148  11.3063  11.3212  11.3757  11.4791
    11.6063  11.7010  11.7019  11.7988  11.8972  11.9271  11.9322  12.0378
    12.0591  12.1216  12.1345  12.1941  12.2751  12.4400  12.4472  12.6304
    12.7480  12.7709  12.8574  12.9269  12.9734  12.9917  13.0519  13.0828
    13.1887  13.2769  13.3765  13.5385  13.5856  13.5946  13.7545  13.7798
    13.8769  13.8888  13.9157  13.9160  14.0049  14.0329  14.0986  14.1959
    14.2601  14.2643  14.3227  14.4442  14.4978  14.5829  14.6227  14.7457
    14.8311  14.8654  14.8961  14.9703  15.0577  15.0898  15.0930  15.1575
    15.1920  15.3966  15.4160  15.5504  15.5644  15.6924  15.7644  15.8728
    15.9071  16.0419  16.0645  16.0705  16.1691  16.2960  16.3566  16.4095
    16.5574  16.6220  16.7514  16.8472  16.8857  17.0134  17.0623  17.1586
    17.2049  17.2924  17.4031  17.4380  17.4862  17.5823  17.8204  17.8530
    17.8582  17.8771  17.9884  18.0200  18.0414  18.1906  18.3927  18.4491
    18.4788  18.6120  18.8055  18.9448  18.9499  18.9786  19.0928  19.1960
    19.2752  19.3078  19.3787  19.4212  19.4271  19.4564  19.5410  19.5781
    19.6334  19.6385  19.6860  19.7382  19.8221  19.8505  20.1250  20.2290
    20.2430  20.2785  20.3558  20.4160  20.4681  20.5086  20.5925  20.6640
    20.6768  20.7718  20.8042  20.8528  20.8532  20.9030  20.9535  20.9873
    21.0535  21.1062  21.1437  21.1932  21.2715  21.3477  21.3879  21.6243

          k =-0.5000 0.0000 0.0000 ( 29752 PWs)   bands (ev):

   -62.3670 -62.3670 -62.0657 -62.0653 -61.9328 -61.9327 -61.9221 -61.9220
   -36.8743 -36.8743 -36.5990 -36.5987 -36.5882 -36.5882 -36.2980 -36.2978
   -36.2932 -36.2930 -36.2739 -36.2738 -36.1665 -36.1665 -36.1487 -36.1486
   -36.0840 -36.0840 -35.8938 -35.8938 -35.8878 -35.8875 -35.8580 -35.8579
   -20.5099 -20.5099 -19.7172 -19.7171 -19.5659 -19.5658 -19.3750 -19.3750
   -19.1836 -19.1836 -19.0087 -19.0087 -18.7311 -18.7311 -18.6971 -18.6971
   -18.4451 -18.4451  -8.5019  -8.5019  -7.6987  -7.6987  -7.5382  -7.5382
    -7.3467  -7.3466  -7.1826  -7.1825  -6.8806  -6.8805  -6.8011  -6.8011
    -6.7706  -6.7706  -6.5923  -6.5923  -6.0521  -6.0521  -6.0284  -6.0284
    -5.6758  -5.6758  -5.5830  -5.5830  -5.3117  -5.3116  -5.2281  -5.2281
    -5.0701  -5.0701  -4.7908  -4.7908  -4.6033  -4.6033  -4.4438  -4.4438
    -4.1872  -4.1872  -4.0519  -4.0518  -3.8383  -3.8383  -3.4510  -3.4510
    -3.3789  -3.3789  -2.9505  -2.9505  -2.8055  -2.8055  -2.5454  -2.5454
    -1.3208  -1.3207  -1.0072  -1.0071  -0.8413  -0.8413  -0.4642  -0.4642
    -0.3286  -0.3286  -0.0296  -0.0295   0.3334   0.3334   0.6798   0.6798
     0.7782   0.7783   1.3316   1.3316   2.0288   2.0289   2.0749   2.0750
     2.4932   2.4932   3.7092   3.7092   4.0637   4.0637   4.2373   4.2376
     4.5794   4.5794   4.6651   4.6651   4.7120   4.7120   4.9935   4.9936
     5.4173   5.4175   5.6471   5.6480   5.9526   5.9531   6.2475   6.2479
     6.5374   6.5379   7.0988   7.0993   7.5515   7.5518   7.7044   7.7046
     8.1173   8.1176   8.2755   8.2759   8.4801   8.4806   8.6572   8.6581
     8.7828   8.7834   8.8198   8.8205   9.0751   9.0757   9.1851   9.1858
     9.5188   9.5193   9.5648   9.5652   9.8143   9.8147  10.1177  10.1181
    10.2953  10.2959  10.3795  10.3801  10.4758  10.4763  10.7882  10.7885
    10.9598  10.9600  11.3935  11.3938  11.5656  11.5658  11.6380  11.6383
    11.9224  11.9227  12.0326  12.0330  12.2656  12.2662  12.4768  12.4770
    12.9096  12.9096  13.1096  13.1098  13.1806  13.1808  13.3808  13.3811
    13.5981  13.5985  13.7718  13.7721  13.9881  13.9882  14.0790  14.0795
    14.4376  14.4377  14.7753  14.7754  14.8124  14.8126  14.8360  14.8361
    15.0763  15.0766  15.1580  15.1584  15.2538  15.2544  15.4312  15.4313
    15.6639  15.6639  15.8400  15.8404  16.0772  16.0773  16.1520  16.1524
    16.2522  16.2526  16.3607  16.3608  16.5673  16.5675  16.6431  16.6434
    16.7100  16.7103  16.9168  16.9171  17.0691  17.0696  17.2417  17.2418
    17.3303  17.3305  17.4611  17.4613  17.5357  17.5358  17.7084  17.7087
    17.7339  17.7342  17.8161  17.8169  17.9745  17.9753  18.1431  18.1437
    18.1959  18.1963  18.2508  18.2513  18.3772  18.3777  18.4451  18.4451
    18.5679  18.5683  18.6887  18.6890  18.7868  18.7871  18.8597  18.8599
    18.8962  18.8962  18.9399  18.9401  19.0467  19.0469  19.1910  19.1911
    19.2389  19.2389  19.2780  19.2781  19.4155  19.4156  19.4725  19.4727
    19.5778  19.5779  19.6734  19.6736  19.7333  19.7335  20.0060  20.0062
    20.2107  20.2109  20.3333  20.3335  20.3774  20.3775  20.4392  20.4395
    20.5920  20.5922  20.6846  20.6851  20.7663  20.7664  20.8819  20.8820

          k =-0.5000 0.1950 0.0000 ( 29720 PWs)   bands (ev):

   -62.3663 -62.3663 -62.0652 -62.0648 -61.9327 -61.9327 -61.9215 -61.9214
   -36.8730 -36.8730 -36.5986 -36.5982 -36.5882 -36.5882 -36.2996 -36.2992
   -36.2888 -36.2886 -36.2731 -36.2730 -36.1662 -36.1662 -36.1469 -36.1468
   -36.0956 -36.0951 -35.8909 -35.8908 -35.8871 -35.8868 -35.8584 -35.8583
   -20.5083 -20.5083 -19.6813 -19.6812 -19.5709 -19.5709 -19.3580 -19.3568
   -19.1924 -19.1903 -19.0281 -19.0280 -18.7359 -18.7344 -18.7067 -18.7061
   -18.4444 -18.4444  -8.4979  -8.4974  -7.7063  -7.7057  -7.5408  -7.5392
    -7.3572  -7.3539  -7.3228  -7.3203  -6.8953  -6.8941  -6.8065  -6.8036
    -6.6612  -6.6605  -6.5235  -6.5175  -6.0223  -6.0179  -5.9040  -5.8836
    -5.7584  -5.7331  -5.6053  -5.5867  -5.4823  -5.4314  -5.2639  -5.2621
    -5.0407  -4.9789  -4.8271  -4.7219  -4.6522  -4.6017  -4.4109  -4.3815
    -4.2671  -4.2584  -4.1047  -4.0809  -3.8918  -3.8609  -3.4511  -3.4494
    -3.3270  -3.2952  -2.9775  -2.9700  -2.8875  -2.8806  -2.4591  -2.4160
    -1.2806  -1.2787  -0.9515  -0.9477  -0.8734  -0.8679  -0.6035  -0.5817
    -0.3361  -0.3297   0.0269   0.0275   0.5005   0.5240   0.6359   0.6374
     1.0107   1.0200   1.5523   1.5700   1.8483   1.8497   2.1721   2.1730
     2.3807   2.3869   3.4487   3.4488   3.7433   3.7454   3.9135   3.9140
     4.2731   4.2743   4.8896   4.8909   5.0966   5.0978   5.2960   5.3012
     5.4602   5.4684   5.8220   5.8242   5.9951   5.9970   6.3011   6.3081
     6.5865   6.5871   6.8706   6.8780   7.2779   7.2795   7.4267   7.4273
     7.5787   7.5824   7.8623   7.8629   8.0304   8.0415   8.3786   8.4033
     8.7823   8.7914   8.9663   8.9757   9.1873   9.2244   9.3681   9.3732
     9.5326   9.5645  10.1068  10.1072  10.2850  10.3078  10.4353  10.4471
    10.5307  10.5455  10.6938  10.7037  10.7992  10.8461  10.9698  10.9859
    11.2563  11.2947  11.5642  11.5958  11.7715  11.8096  11.8499  11.8539
    12.0155  12.0162  12.1887  12.2443  12.5059  12.5412  12.6458  12.6597
    12.8124  12.8646  13.1393  13.1626  13.2702  13.3017  13.4686  13.4761
    13.7595  13.7599  13.8723  13.8741  13.9499  13.9612  14.2335  14.2348
    14.3015  14.3122  14.4709  14.4730  14.5854  14.5857  14.6234  14.6394
    14.7524  14.7606  15.0423  15.0469  15.1650  15.1763  15.2823  15.2952
    15.4356  15.4427  15.5593  15.5803  15.6617  15.6691  15.7385  15.7404
    15.9867  15.9966  16.0335  16.0353  16.1554  16.1764  16.2088  16.2256
    16.3852  16.3927  16.4798  16.4851  16.6912  16.7134  16.7900  16.8060
    16.9052  16.9273  16.9888  17.0253  17.1466  17.1598  17.2420  17.2428
    17.4479  17.4531  17.4830  17.5173  17.5409  17.5476  17.6972  17.7007
    17.8178  17.8380  17.9381  17.9699  18.0296  18.0379  18.1194  18.1705
    18.3087  18.3117  18.5122  18.5307  18.6572  18.6716  18.8338  18.8742
    18.9350  18.9569  19.0634  19.0804  19.1796  19.1972  19.3255  19.3326
    19.5643  19.5843  19.7379  19.7396  19.8019  19.8338  20.0043  20.0080
    20.1278  20.1297  20.2397  20.2512  20.4078  20.4171  20.4547  20.4577
    20.5275  20.5473  20.5966  20.6143  20.8565  20.8622  20.9488  20.9828
    21.0491  21.0574  21.1415  21.1564  21.2125  21.2283  21.3204  21.3277

          k =-0.5000-0.3900 0.0000 ( 29668 PWs)   bands (ev):

   -62.3656 -62.3656 -62.0648 -62.0644 -61.9327 -61.9326 -61.9209 -61.9208
   -36.8717 -36.8717 -36.5981 -36.5977 -36.5882 -36.5882 -36.3028 -36.3025
   -36.2827 -36.2827 -36.2716 -36.2716 -36.1659 -36.1659 -36.1438 -36.1437
   -36.1086 -36.1085 -35.8875 -35.8875 -35.8866 -35.8863 -35.8591 -35.8590
   -20.5068 -20.5068 -19.6239 -19.6238 -19.5970 -19.5970 -19.3352 -19.3352
   -19.2021 -19.2021 -19.0486 -19.0486 -18.7430 -18.7430 -18.7127 -18.7127
   -18.4437 -18.4437  -8.4919  -8.4919  -7.7099  -7.7099  -7.5031  -7.5031
    -7.4131  -7.4130  -7.3525  -7.3524  -6.9464  -6.9464  -6.8393  -6.8393
    -6.6170  -6.6170  -6.5135  -6.5135  -5.9676  -5.9676  -5.8316  -5.8315
    -5.7515  -5.7515  -5.5883  -5.5883  -5.4976  -5.4976  -5.1526  -5.1526
    -5.0211  -5.0210  -4.7563  -4.7563  -4.6682  -4.6682  -4.5279  -4.5279
    -4.3902  -4.3902  -3.9696  -3.9696  -3.8463  -3.8463  -3.4542  -3.4541
    -3.2326  -3.2326  -3.0934  -3.0934  -2.9438  -2.9438  -2.3271  -2.3270
    -1.2695  -1.2694  -1.0868  -1.0868  -0.8693  -0.8692  -0.7009  -0.7009
    -0.4741  -0.4740   0.4077   0.4077   0.5689   0.5690   1.0076   1.0076
     1.3888   1.3890   1.4705   1.4705   1.9816   1.9817   2.0279   2.0280
     2.3353   2.3354   2.8162   2.8163   3.1595   3.1595   3.9332   3.9332
     4.3392   4.3392   4.9948   4.9949   5.2528   5.2528   5.5800   5.5802
     5.7876   5.7877   5.8835   5.8836   6.0946   6.0950   6.3720   6.3730
     6.4906   6.4915   6.7099   6.7104   6.8489   6.8497   7.1361   7.1367
     7.3068   7.3073   7.6830   7.6836   7.9479   7.9483   8.3439   8.3444
     8.5430   8.5435   8.7185   8.7189   9.2332   9.2335   9.4947   9.4952
     9.6677   9.6683   9.9686   9.9688  10.3138  10.3140  10.6942  10.6945
    11.0830  11.0834  11.2342  11.2344  11.3839  11.3844  11.5326  11.5328
    11.8425  11.8426  12.0391  12.0391  12.2449  12.2450  12.3699  12.3704
    12.4384  12.4393  12.6197  12.6202  12.6837  12.6842  12.8307  12.8315
    12.9304  12.9310  13.0832  13.0837  13.1922  13.1924  13.2655  13.2659
    13.4526  13.4530  13.5340  13.5343  13.7727  13.7731  13.8154  13.8158
    13.8949  13.8954  14.0043  14.0045  14.3134  14.3139  14.3998  14.3998
    14.4350  14.4351  14.6294  14.6298  14.8214  14.8220  14.9309  14.9314
    15.0669  15.0673  15.3907  15.3911  15.5053  15.5056  15.5959  15.5962
    15.7593  15.7596  15.9364  15.9367  15.9756  15.9757  16.2325  16.2327
    16.2683  16.2684  16.3749  16.3750  16.4665  16.4668  16.6056  16.6059
    16.6770  16.6774  16.7484  16.7485  17.0354  17.0359  17.1288  17.1290
    17.2710  17.2711  17.4532  17.4533  17.5257  17.5260  17.5910  17.5912
    17.7598  17.7600  17.9580  17.9580  18.0065  18.0066  18.0782  18.0784
    18.1822  18.1828  18.2841  18.2844  18.3347  18.3353  18.5775  18.5776
    18.6537  18.6538  18.9952  18.9954  19.0716  19.0717  19.3144  19.3148
    19.3509  19.3511  19.4822  19.4823  19.8102  19.8107  20.0791  20.0791
    20.1860  20.1861  20.2864  20.2867  20.4210  20.4212  20.5030  20.5032
    20.6297  20.6299  20.7862  20.7863  21.0149  21.0153  21.2249  21.2253
    21.4579  21.4580  21.6794  21.6798  21.7355  21.7359  21.8895  21.8896

          k =-0.2500 0.1950 0.0000 ( 29746 PWs)   bands (ev):

   -62.4239 -62.3356 -62.1176 -62.0377 -61.9867 -61.9757 -61.9064 -61.8951
   -36.9463 -36.9135 -36.8337 -36.6356 -36.5550 -36.3672 -36.3345 -36.3190
   -36.2665 -36.2505 -36.2322 -36.2276 -36.2272 -36.2153 -36.2063 -36.1982
   -36.1631 -36.1549 -36.0883 -36.0738 -36.0298 -35.5025 -35.5009 -35.4701
   -20.6864 -20.4179 -19.8803 -19.6720 -19.6126 -19.5469 -19.4493 -19.3898
   -19.2311 -19.1976 -19.0806 -18.9953 -18.8586 -18.7691 -18.7134 -18.4917
   -18.3039 -18.1226  -8.7956  -8.6244  -8.1217  -8.0481  -7.9543  -7.8206
    -7.7495  -7.6207  -7.5496  -7.4378  -7.2734  -7.1911  -6.9801  -6.9049
    -6.6392  -6.5498  -6.3916  -6.2974  -6.1675  -6.0704  -5.9468  -5.9053
    -5.7655  -5.6893  -5.4275  -5.3459  -5.2595  -5.1326  -4.9881  -4.8802
    -4.8012  -4.6507  -4.5652  -4.5544  -4.4858  -4.3966  -4.3509  -4.3139
    -4.2108  -4.0467  -3.9653  -3.9226  -3.8515  -3.7586  -3.5512  -3.4823
    -3.4070  -3.3371  -3.1797  -3.0416  -3.0132  -2.7702  -2.5447  -2.4702
    -2.3212  -2.1758  -1.9411  -1.1037  -0.9406  -0.8211  -0.4488   0.0027
     0.1182   0.3987   0.6839   0.8614   0.8711   1.0641   1.1575   1.2437
     1.3244   1.4515   1.5549   1.6377   1.7257   1.8840   1.9731   2.2156
     2.3252   2.6456   3.3766   3.4278   3.7258   3.7404   3.9339   4.1605
     4.3125   4.3528   4.5350   4.5757   4.6396   4.7188   4.9301   5.1435
     5.5059   5.6577   5.7647   5.7991   5.9454   6.1275   6.3020   6.4038
     6.5267   6.6334   6.9253   6.9906   7.0935   7.3075   7.5118   7.6122
     7.9240   7.9372   8.1978   8.2893   8.3017   8.4851   8.6490   8.6909
     8.8966   8.9947   9.0732   9.3223   9.3685   9.4267   9.5069   9.5603
     9.5823   9.6364   9.8199   9.9903  10.0347  10.1890  10.2555  10.2915
    10.4886  10.5202  10.6368  10.7245  10.7326  10.9864  11.0566  11.0930
    11.1118  11.2545  11.5514  11.6314  11.6337  11.7432  11.8098  11.9112
    11.9651  12.0990  12.2647  12.3154  12.3469  12.3632  12.4671  12.6446
    12.6564  12.7724  12.8803  12.8965  12.9634  13.1086  13.1108  13.2016
    13.3244  13.4287  13.4515  13.5047  13.5225  13.6809  13.6826  13.7403
    13.8790  13.8860  13.9949  14.0017  14.1475  14.1635  14.2439  14.3434
    14.4132  14.4510  14.4954  14.5552  14.5967  14.7423  14.8293  14.8679
    14.9620  15.0429  15.0829  15.2309  15.3021  15.3958  15.4894  15.5623
    15.6435  15.6641  15.7580  15.8308  15.8966  15.9720  16.0802  16.1013
    16.1850  16.2739  16.3109  16.3659  16.3830  16.4356  16.5992  16.7025
    16.7166  16.7761  16.7793  16.8974  17.0105  17.1110  17.1696  17.2136
    17.2273  17.3054  17.3519  17.4095  17.4864  17.6763  17.6861  17.8102
    17.9022  17.9040  18.0906  18.0922  18.1736  18.2608  18.3586  18.3782
    18.4258  18.4336  18.5396  18.5707  18.6147  18.8482  18.8846  19.0126
    19.0661  19.1289  19.1606  19.2719  19.3204  19.5016  19.5956  19.6021
    19.7133  19.7963  19.8184  19.9056  19.9737  20.1031  20.1645  20.1976
    20.2006  20.2511  20.3455  20.3859  20.4002  20.4262  20.5061  20.5263
    20.6677  20.7037  20.7535  20.8530  20.9219  20.9656  21.0382  21.0809
    21.1252  21.2286  21.2342  21.3257  21.4187  21.4965  21.5640  21.6425

     the Fermi energy is    -0.0371 ev

!    total energy              =   -1696.11141041 Ry
     Harris-Foulkes estimate   =   -1696.11141058 Ry
     estimated scf accuracy    <       0.00000025 Ry

     The total energy is the sum of the following terms:

     one-electron contribution =  -21424.03694717 Ry
     hartree contribution      =   10734.27561419 Ry
     xc contribution           =    -286.70591170 Ry
     ewald contribution        =    9276.37126585 Ry
     Hubbard energy            =       3.98622572 Ry
     smearing contrib. (-TS)   =      -0.00165729 Ry

     convergence has been achieved in  27 iterations

     Forces acting on atoms (Ry/au):


     negative rho (up, down):  0.355E-02 0.000E+00
     atom    1 type  1   force =    -0.00399061   -0.00624872    0.01061733
     atom    2 type  1   force =    -0.00007892    0.01144139   -0.00623832
     atom    3 type  2   force =    -0.00011404   -0.00713348   -0.00321776
     atom    4 type  2   force =    -0.00133988    0.00316647   -0.01726130
     atom    5 type  1   force =     0.00186320   -0.02022967    0.00101328
     atom    6 type  1   force =    -0.00036304    0.01729313    0.00166262
     atom    7 type  1   force =     0.00009289    0.00187059    0.00696305
     atom    8 type  1   force =     0.00360436    0.00053694   -0.00003626
     atom    9 type  2   force =    -0.00205060    0.00007100   -0.00111628
     atom   10 type  2   force =    -0.00001916    0.00073840    0.00155690
     atom   11 type  1   force =    -0.00002554   -0.01731264    0.00499558
     atom   12 type  1   force =     0.00004309    0.01596408    0.00525432
     atom   13 type  1   force =    -0.00027147   -0.00000171   -0.00371434
     atom   14 type  1   force =    -0.00399275   -0.00625009    0.01061675
     atom   15 type  1   force =    -0.00008416    0.01143867   -0.00625437
     atom   16 type  2   force =    -0.00010954   -0.00713215   -0.00321696
     atom   17 type  2   force =    -0.00134026    0.00316730   -0.01726196
     atom   18 type  1   force =     0.00188273   -0.02022324    0.00101518
     atom   19 type  1   force =    -0.00034617    0.01728622    0.00166347
     atom   20 type  1   force =     0.00008613    0.00187040    0.00691419
     atom   21 type  1   force =     0.00360175    0.00053761   -0.00004083
     atom   22 type  2   force =    -0.00204249    0.00007117   -0.00111589
     atom   23 type  2   force =    -0.00001996    0.00073967    0.00157512
     atom   24 type  1   force =     0.00004225   -0.01731311    0.00499559
     atom   25 type  1   force =     0.00010964    0.01596388    0.00525412
     atom   26 type  1   force =    -0.00027263   -0.00000280   -0.00368714
     atom   27 type  3   force =     0.00001867   -0.00046859   -0.00002524
     atom   28 type  3   force =     0.00001867   -0.00046721   -0.00002676
     atom   29 type  3   force =     0.00254954    0.00031332   -0.00044167
     atom   30 type  3   force =     0.00254831    0.00031315   -0.00044245

     Total force =     0.034321     Total SCF correction =     0.002302

     BFGS Geometry Optimization

     number of scf cycles    =   1
     number of bfgs steps    =   0

     energy   new            =   -1696.1114104087 Ry

     new trust radius        =       0.0172619600 bohr
     new conv_thr            =       0.0000010000 Ry


ATOMIC_POSITIONS (crystal)
O0       0.000000000   0.000000000   0.373618088    0   0   1
O0       0.000000000   0.500000000   0.380217736    0   0   1
Mo1      0.250000000   0.500000000   0.437746935    0   0   1
Mo1      0.000000000   0.000000000   0.445851698    0   0   1
O0       0.250000000   0.780000000   0.443429859    0   0   1
O0       0.250000000   0.220000000   0.443322586    0   0   1
O0       0.000000000   0.500000000   0.495986468    0   0   1
O0       0.000000000   0.000000000   0.518869289    0   0   1
Mo1      0.250000000   0.000000000   0.578258122    0   0   1
Mo1      0.000000000   0.500000000   0.563900514    0   0   1
O0       0.250000000   0.720000000   0.573787908    0   0   1
O0       0.250000000   0.280000000   0.573852979    0   0   1
O0       0.000000000   0.000000000   0.628927203    0   0   1
O0       0.500000000   0.000000000   0.373618077    0   0   1
O0       0.500000000   0.500000000   0.380217421    0   0   1
Mo1      0.750000000   0.500000000   0.437746951    0   0   1
Mo1      0.500000000   0.000000000   0.445851685    0   0   1
O0       0.750000000   0.780000000   0.443429896    0   0   1
O0       0.750000000   0.220000000   0.443322602    0   0   1
O0       0.500000000   0.500000000   0.495985511    0   0   1
O0       0.500000000   0.000000000   0.518869200    0   0   1
Mo1      0.750000000   0.000000000   0.578258130    0   0   1
Mo1      0.500000000   0.500000000   0.563900871    0   0   1
O0       0.750000000   0.720000000   0.573787908    0   0   1
O0       0.750000000   0.280000000   0.573852975    0   0   1
O0       0.500000000   0.000000000   0.628927736    0   0   1
H2      -0.000488190   0.613654578   0.358859505
H2       0.499511810   0.613654682   0.358859476
H2       0.165997098   0.020713685   0.358911344
H2       0.665996980   0.020713672   0.358911329


     Check: negative starting charge=   -0.002478
     NEW-OLD atomic charge density approx. for the potential

     Check: negative/imaginary core charge=   -0.000003    0.000000
     Check: negative starting charge=   -0.002479

     negative rho (up, down):  0.354E-02 0.000E+00
 Atomic wfc used for LDA+U Projector are NOT orthogonalized

     total cpu time spent up to now is     5317.0 secs

     per-process dynamical memory:   391.0 Mb

     Self-consistent Calculation

     iteration #  1     ecut=    40.00 Ry     beta=0.70
     Davidson diagonalization with overlap
     ethr =  1.00E-06,  avg # of iterations =  4.0
 --- enter write_ns ---
 LDA+U parameters:
U( 2)     =  6.00000000
alpha( 2) =  0.00000000
atom    3   Tr[ns(na)] =   5.83149
    eigenvalues: 
  0.397  0.497  0.568  0.676  0.778
    eigenvectors:
  0.011  0.000  0.296  0.000  0.693
  0.000  0.997  0.000  0.003  0.000
  0.988  0.000  0.001  0.000  0.011
  0.001  0.000  0.703  0.000  0.296
  0.000  0.003  0.000  0.997  0.000
    occupations:
  0.711  0.000  0.036 -0.095  0.000
  0.000  0.498 -0.000 -0.000 -0.010
  0.036 -0.000  0.402 -0.017  0.000
 -0.095 -0.000 -0.017  0.630 -0.000
  0.000 -0.010  0.000 -0.000  0.675
atom    4   Tr[ns(na)] =   5.83272
    eigenvalues: 
  0.379  0.522  0.590  0.654  0.771
    eigenvectors:
  0.000  0.000  0.989  0.011  0.000
  0.000  0.000  0.011  0.988  0.001
  1.000  0.000  0.000  0.000  0.000
  0.000  0.000  0.000  0.001  0.999
  0.000  1.000  0.000  0.000  0.000
    occupations:
  0.591  0.007  0.002  0.003  0.000
  0.007  0.654  0.001 -0.004 -0.001
  0.002  0.001  0.379 -0.003  0.001
  0.003 -0.004 -0.003  0.770  0.000
  0.000 -0.001  0.001  0.000  0.522
atom    9   Tr[ns(na)] =   5.83570
    eigenvalues: 
  0.465  0.492  0.596  0.601  0.764
    eigenvectors:
  0.000  0.000  0.222  0.000  0.778
  0.000  0.000  0.001  0.999  0.000
  0.000  1.000  0.000  0.000  0.000
  0.000  0.000  0.778  0.000  0.222
  1.000  0.000  0.000  0.000  0.000
    occupations:
  0.727  0.000  0.001 -0.070 -0.002
  0.000  0.601 -0.000  0.000 -0.000
  0.001 -0.000  0.492 -0.001  0.000
 -0.070  0.000 -0.001  0.633  0.001
 -0.002 -0.000  0.000  0.001  0.465
atom   10   Tr[ns(na)] =   5.77946
    eigenvalues: 
  0.390  0.487  0.495  0.743  0.776
    eigenvectors:
  0.002  0.998  0.000  0.000  0.000
  0.000  0.000  0.000  1.000  0.000
  0.998  0.002  0.000  0.000  0.000
  0.000  0.000  0.000  0.000  1.000
  0.000  0.000  1.000  0.000  0.000
    occupations:
  0.487  0.000 -0.004 -0.003 -0.000
  0.000  0.743 -0.000 -0.000  0.000
 -0.004 -0.000  0.390  0.000  0.000
 -0.003 -0.000  0.000  0.776 -0.000
 -0.000  0.000  0.000 -0.000  0.495
atom   16   Tr[ns(na)] =   5.83102
    eigenvalues: 
  0.397  0.497  0.568  0.675  0.778
    eigenvectors:
  0.011  0.000  0.296  0.000  0.693
  0.000  0.997  0.000  0.003  0.000
  0.988  0.000  0.001  0.000  0.011
  0.001  0.000  0.703  0.000  0.296
  0.000  0.003  0.000  0.997  0.000
    occupations:
  0.711  0.000  0.036 -0.095  0.000
  0.000  0.498 -0.000 -0.000 -0.010
  0.036 -0.000  0.402 -0.017  0.000
 -0.095 -0.000 -0.017  0.630 -0.000
  0.000 -0.010  0.000 -0.000  0.675
atom   17   Tr[ns(na)] =   5.83244
    eigenvalues: 
  0.379  0.522  0.590  0.654  0.771
    eigenvectors:
  0.000  0.000  0.989  0.011  0.000
  0.000  0.000  0.011  0.988  0.001
  1.000  0.000  0.000  0.000  0.000
  0.000  0.000  0.000  0.001  0.999
  0.000  1.000  0.000  0.000  0.000
    occupations:
  0.591  0.007  0.002  0.003  0.000
  0.007  0.654  0.001 -0.004 -0.001
  0.002  0.001  0.379 -0.003  0.001
  0.003 -0.004 -0.003  0.770  0.000
  0.000 -0.001  0.001  0.000  0.522
atom   22   Tr[ns(na)] =   5.83569
    eigenvalues: 
  0.465  0.492  0.596  0.601  0.764
    eigenvectors:
  0.000  0.000  0.222  0.000  0.778
  0.000  0.000  0.001  0.999  0.000
  0.000  1.000  0.000  0.000  0.000
  0.000  0.000  0.778  0.000  0.222
  1.000  0.000  0.000  0.000  0.000
    occupations:
  0.727  0.000  0.001 -0.070 -0.002
  0.000  0.601 -0.000  0.000 -0.000
  0.001 -0.000  0.492 -0.001  0.000
 -0.070  0.000 -0.001  0.633  0.001
 -0.002 -0.000  0.000  0.001  0.465
atom   23   Tr[ns(na)] =   5.77713
    eigenvalues: 
  0.390  0.487  0.495  0.742  0.775
    eigenvectors:
  0.002  0.998  0.000  0.000  0.000
  0.000  0.000  0.000  1.000  0.000
  0.998  0.002  0.000  0.000  0.000
  0.000  0.000  0.000  0.000  1.000
  0.000  0.000  1.000  0.000  0.000
    occupations:
  0.486  0.000 -0.004 -0.003 -0.000
  0.000  0.742 -0.000 -0.000  0.000
 -0.004 -0.000  0.390  0.000  0.000
 -0.003 -0.000  0.000  0.775 -0.000
 -0.000  0.000  0.000 -0.000  0.495
N of occupied +U levels =  46.5556391
 --- exit write_ns ---

     negative rho (up, down):  0.355E-02 0.000E+00

     total cpu time spent up to now is     5569.1 secs

     total energy              =   -1696.11173515 Ry
     Harris-Foulkes estimate   =   -1696.11230172 Ry
     estimated scf accuracy    <       0.00074960 Ry

     iteration #  2     ecut=    40.00 Ry     beta=0.70
     Davidson diagonalization with overlap
     ethr =  3.35E-07,  avg # of iterations =  4.8

     negative rho (up, down):  0.357E-02 0.000E+00

     total cpu time spent up to now is     5766.5 secs

     total energy              =   -1696.11048221 Ry
     Harris-Foulkes estimate   =   -1696.11344186 Ry
     estimated scf accuracy    <       0.02037945 Ry

     iteration #  3     ecut=    40.00 Ry     beta=0.70
     Davidson diagonalization with overlap
     ethr =  3.35E-07,  avg # of iterations =  5.3

     negative rho (up, down):  0.357E-02 0.000E+00

     total cpu time spent up to now is     5953.7 secs

     total energy              =   -1696.11083142 Ry
     Harris-Foulkes estimate   =   -1696.11334594 Ry
     estimated scf accuracy    <       0.03106740 Ry

     iteration #  4     ecut=    40.00 Ry     beta=0.70
     Davidson diagonalization with overlap
     ethr =  3.35E-07,  avg # of iterations =  3.8

     negative rho (up, down):  0.357E-02 0.000E+00

     total cpu time spent up to now is     6136.4 secs

     total energy              =   -1696.11203623 Ry
     Harris-Foulkes estimate   =   -1696.11228723 Ry
     estimated scf accuracy    <       0.00180748 Ry

     iteration #  5     ecut=    40.00 Ry     beta=0.70
     Davidson diagonalization with overlap
     ethr =  3.35E-07,  avg # of iterations =  1.0

     negative rho (up, down):  0.356E-02 0.000E+00

     total cpu time spent up to now is     6306.0 secs

     total energy              =   -1696.11214669 Ry
     Harris-Foulkes estimate   =   -1696.11219972 Ry
     estimated scf accuracy    <       0.00036722 Ry

     iteration #  6     ecut=    40.00 Ry     beta=0.70
     Davidson diagonalization with overlap
     ethr =  1.64E-07,  avg # of iterations =  1.0

     negative rho (up, down):  0.356E-02 0.000E+00

     total cpu time spent up to now is     6475.2 secs

     total energy              =   -1696.11216569 Ry
     Harris-Foulkes estimate   =   -1696.11219095 Ry
     estimated scf accuracy    <       0.00018392 Ry

     iteration #  7     ecut=    40.00 Ry     beta=0.70
     Davidson diagonalization with overlap
     ethr =  8.21E-08,  avg # of iterations =  1.0

     negative rho (up, down):  0.356E-02 0.000E+00

     total cpu time spent up to now is     6644.2 secs

     total energy              =   -1696.11217450 Ry
     Harris-Foulkes estimate   =   -1696.11218193 Ry
     estimated scf accuracy    <       0.00008161 Ry

     iteration #  8     ecut=    40.00 Ry     beta=0.70
     Davidson diagonalization with overlap
     ethr =  3.64E-08,  avg # of iterations =  1.0

     negative rho (up, down):  0.356E-02 0.000E+00

     total cpu time spent up to now is     6812.8 secs

     total energy              =   -1696.11217719 Ry
     Harris-Foulkes estimate   =   -1696.11218069 Ry
     estimated scf accuracy    <       0.00005163 Ry

     iteration #  9     ecut=    40.00 Ry     beta=0.70
     Davidson diagonalization with overlap
     ethr =  2.31E-08,  avg # of iterations =  1.0

     negative rho (up, down):  0.356E-02 0.000E+00

     total cpu time spent up to now is     6981.6 secs

     total energy              =   -1696.11217855 Ry
     Harris-Foulkes estimate   =   -1696.11218004 Ry
     estimated scf accuracy    <       0.00002069 Ry

     iteration # 10     ecut=    40.00 Ry     beta=0.70
     Davidson diagonalization with overlap
     ethr =  9.24E-09,  avg # of iterations =  1.0

     negative rho (up, down):  0.356E-02 0.000E+00

     total cpu time spent up to now is     7150.2 secs

     total energy              =   -1696.11217929 Ry
     Harris-Foulkes estimate   =   -1696.11217961 Ry
     estimated scf accuracy    <       0.00000844 Ry

     iteration # 11     ecut=    40.00 Ry     beta=0.70
     Davidson diagonalization with overlap
     ethr =  3.77E-09,  avg # of iterations =  1.0

     negative rho (up, down):  0.356E-02 0.000E+00

     total cpu time spent up to now is     7319.3 secs

     total energy              =   -1696.11217915 Ry
     Harris-Foulkes estimate   =   -1696.11217984 Ry
     estimated scf accuracy    <       0.00000600 Ry

     iteration # 12     ecut=    40.00 Ry     beta=0.70
     Davidson diagonalization with overlap
     ethr =  2.68E-09,  avg # of iterations =  1.0

     negative rho (up, down):  0.356E-02 0.000E+00

     total cpu time spent up to now is     7488.2 secs

     End of self-consistent calculation
 --- enter write_ns ---
 LDA+U parameters:
U( 2)     =  6.00000000
alpha( 2) =  0.00000000
atom    3   Tr[ns(na)] =   5.83038
    eigenvalues: 
[...]
    -0.3180  -0.3172  -0.0128  -0.0117   0.4092   0.4098   0.6590   0.6594
     0.7811   0.7817   1.3549   1.3551   2.0292   2.0297   2.0797   2.0800
     2.5148   2.5150   3.6957   3.6959   4.0761   4.0762   4.2328   4.2339
     4.6163   4.6166   4.7192   4.7194   4.7414   4.7414   4.9764   4.9767
     5.4265   5.4268   5.6356   5.6363   5.9421   5.9426   6.2501   6.2505
     6.5355   6.5363   7.0947   7.0951   7.5319   7.5324   7.6910   7.6912
     8.0955   8.0959   8.3110   8.3110   8.4711   8.4714   8.6444   8.6453
     8.7747   8.7752   8.8112   8.8118   9.0644   9.0649   9.1788   9.1797
     9.5179   9.5183   9.5625   9.5630   9.8214   9.8220  10.1066  10.1074
    10.2846  10.2851  10.4014  10.4018  10.4944  10.4947  10.7959  10.7962
    10.9456  10.9458  11.4025  11.4029  11.5551  11.5554  11.6273  11.6279
    11.9111  11.9113  12.0206  12.0211  12.2637  12.2640  12.4932  12.4935
    12.8950  12.8952  13.0964  13.0967  13.1663  13.1665  13.3872  13.3875
    13.5978  13.5982  13.7945  13.7947  13.9897  13.9899  14.0920  14.0921
    14.4422  14.4423  14.7654  14.7655  14.8071  14.8074  14.8492  14.8495
    15.0857  15.0862  15.1725  15.1727  15.2684  15.2687  15.4140  15.4142
    15.6522  15.6526  15.8317  15.8319  16.0762  16.0765  16.1379  16.1381
    16.2455  16.2457  16.3701  16.3702  16.5582  16.5582  16.6471  16.6474
    16.7267  16.7271  16.9216  16.9218  17.0835  17.0838  17.2573  17.2576
    17.3190  17.3191  17.4806  17.4809  17.5338  17.5339  17.7062  17.7063
    17.7479  17.7481  17.8032  17.8039  17.9659  17.9664  18.1392  18.1397
    18.1864  18.1872  18.2600  18.2605  18.3603  18.3604  18.4399  18.4402
    18.5795  18.5797  18.6785  18.6787  18.7790  18.7790  18.8520  18.8522
    18.8877  18.8879  18.9250  18.9253  19.0470  19.0473  19.1846  19.1848
    19.2388  19.2391  19.2772  19.2774  19.4146  19.4148  19.4692  19.4696
    19.5666  19.5670  19.6693  19.6697  19.7244  19.7246  20.0163  20.0165
    20.1973  20.1977  20.3325  20.3325  20.3839  20.3843  20.4245  20.4250
    20.5637  20.5639  20.6876  20.6881  20.7644  20.7646  20.8773  20.8775

          k =-0.5000 0.1950 0.0000 ( 29720 PWs)   bands (ev):

   -62.3773 -62.3773 -62.0728 -62.0710 -61.8941 -61.8941 -61.8827 -61.8824
   -36.8819 -36.8819 -36.6069 -36.6061 -36.6039 -36.6020 -36.3011 -36.3005
   -36.2554 -36.2551 -36.2295 -36.2291 -36.1686 -36.1685 -36.1234 -36.1233
   -36.0662 -36.0655 -35.8901 -35.8881 -35.8296 -35.8292 -35.8108 -35.8104
   -20.4570 -20.4568 -19.6424 -19.6420 -19.5185 -19.5171 -19.4058 -19.4052
   -19.1711 -19.1694 -18.9992 -18.9991 -18.7231 -18.7218 -18.6780 -18.6777
   -18.4345 -18.4343  -8.4293  -8.4285  -7.7059  -7.7053  -7.5623  -7.5596
    -7.3089  -7.3087  -7.2488  -7.2473  -6.8527  -6.8520  -6.7666  -6.7645
    -6.6378  -6.6368  -6.5154  -6.5138  -6.0084  -6.0062  -5.8533  -5.8380
    -5.7284  -5.7016  -5.5742  -5.5686  -5.4336  -5.3829  -5.2246  -5.2132
    -4.9968  -4.9400  -4.8082  -4.7077  -4.6487  -4.5975  -4.3801  -4.3593
    -4.2414  -4.2353  -4.1060  -4.0747  -3.8767  -3.8425  -3.4140  -3.4124
    -3.3220  -3.2858  -2.9987  -2.9888  -2.8743  -2.8733  -2.5323  -2.4921
    -1.2837  -1.2817  -0.9210  -0.9176  -0.8459  -0.8398  -0.5554  -0.5298
    -0.2885  -0.2808   0.0607   0.0615   0.5004   0.5240   0.6654   0.6683
     1.0099   1.0196   1.5571   1.5765   1.8451   1.8460   2.1916   2.1927
     2.4013   2.4095   3.4719   3.4726   3.7615   3.7639   3.9102   3.9106
     4.3059   4.3085   4.8835   4.8851   5.1139   5.1157   5.3125   5.3184
     5.4603   5.4700   5.8113   5.8136   5.9946   5.9962   6.3004   6.3085
     6.5772   6.5781   6.8595   6.8675   7.2762   7.2771   7.4242   7.4258
     7.5795   7.5828   7.8545   7.8554   8.0300   8.0403   8.3722   8.3978
     8.7867   8.7961   8.9564   8.9704   9.1693   9.2120   9.3574   9.3650
     9.5254   9.5557  10.1113  10.1121  10.2788  10.3016  10.4255  10.4360
    10.5227  10.5389  10.7195  10.7266  10.7913  10.8359  10.9702  10.9908
    11.2540  11.2935  11.5536  11.5941  11.7635  11.8105  11.8582  11.8606
    12.0033  12.0095  12.1739  12.2228  12.5059  12.5411  12.6434  12.6586
    12.8059  12.8529  13.1413  13.1716  13.2612  13.2868  13.4959  13.5018
    13.7683  13.7726  13.8642  13.8671  13.9598  13.9683  14.2314  14.2327
    14.3080  14.3170  14.4663  14.4686  14.5780  14.5819  14.6294  14.6390
    14.7502  14.7632  15.0317  15.0362  15.1749  15.1855  15.2812  15.2931
    15.4341  15.4421  15.5579  15.5779  15.6542  15.6676  15.7366  15.7423
    15.9914  15.9923  16.0310  16.0345  16.1506  16.1748  16.2120  16.2268
    16.3930  16.4011  16.4770  16.4832  16.6922  16.7172  16.7876  16.8032
    16.9102  16.9314  16.9864  17.0253  17.1568  17.1700  17.2315  17.2321
    17.4399  17.4445  17.4727  17.5031  17.5409  17.5536  17.6952  17.6982
    17.8122  17.8349  17.9509  17.9783  18.0345  18.0350  18.1233  18.1746
    18.3093  18.3135  18.5132  18.5341  18.6488  18.6662  18.8372  18.8798
    18.9408  18.9636  19.0582  19.0805  19.1745  19.1870  19.3330  19.3397
    19.5691  19.5843  19.7416  19.7466  19.7914  19.8229  20.0049  20.0067
    20.1209  20.1214  20.2402  20.2529  20.4067  20.4164  20.4504  20.4534
    20.5098  20.5283  20.5852  20.5991  20.8441  20.8562  20.9428  20.9751
    21.0383  21.0500  21.1288  21.1425  21.1990  21.2124  21.3250  21.3305

          k =-0.5000-0.3900 0.0000 ( 29668 PWs)   bands (ev):

   -62.3766 -62.3766 -62.0723 -62.0705 -61.8932 -61.8931 -61.8831 -61.8827
   -36.8806 -36.8806 -36.6053 -36.6053 -36.6049 -36.6023 -36.3046 -36.3039
   -36.2476 -36.2476 -36.2290 -36.2286 -36.1684 -36.1683 -36.1204 -36.1203
   -36.0792 -36.0791 -35.8893 -35.8873 -35.8249 -35.8245 -35.8129 -35.8129
   -20.4553 -20.4551 -19.5809 -19.5809 -19.5475 -19.5456 -19.3960 -19.3959
   -19.1697 -19.1696 -19.0198 -19.0197 -18.7260 -18.7260 -18.6886 -18.6885
   -18.4338 -18.4336  -8.4232  -8.4230  -7.7025  -7.7024  -7.5413  -7.5410
    -7.3774  -7.3773  -7.2555  -7.2542  -6.9078  -6.9074  -6.7919  -6.7914
    -6.5915  -6.5911  -6.5131  -6.5128  -5.9392  -5.9391  -5.7589  -5.7588
    -5.7340  -5.7339  -5.5501  -5.5498  -5.4930  -5.4930  -5.1150  -5.1150
    -5.0226  -5.0219  -4.7292  -4.7290  -4.6320  -4.6319  -4.5072  -4.5070
    -4.3711  -4.3710  -3.9719  -3.9718  -3.8217  -3.8214  -3.4269  -3.4267
    -3.2324  -3.2320  -3.0624  -3.0622  -2.9601  -2.9600  -2.4020  -2.4019
    -1.2724  -1.2718  -1.0661  -1.0658  -0.8138  -0.8129  -0.6539  -0.6537
    -0.4456  -0.4450   0.4352   0.4353   0.5895   0.5899   1.0364   1.0367
     1.3876   1.3884   1.4471   1.4475   2.0074   2.0076   2.0391   2.0396
     2.3612   2.3613   2.8435   2.8444   3.2066   3.2068   3.9013   3.9014
     4.3775   4.3775   4.9779   4.9781   5.2605   5.2607   5.5821   5.5822
     5.7978   5.7980   5.8969   5.8969   6.0911   6.0915   6.3594   6.3603
     6.4808   6.4817   6.7067   6.7073   6.8456   6.8462   7.1351   7.1357
     7.3057   7.3062   7.6835   7.6841   7.9481   7.9487   8.3450   8.3454
     8.5468   8.5473   8.6985   8.6989   9.2243   9.2246   9.4969   9.4972
     9.6714   9.6720   9.9637   9.9640  10.2842  10.2844  10.6949  10.6953
    11.0662  11.0665  11.2127  11.2130  11.3720  11.3725  11.5211  11.5216
    11.8928  11.8929  12.0672  12.0673  12.2466  12.2468  12.3580  12.3584
    12.4215  12.4219  12.6091  12.6097  12.6720  12.6726  12.8183  12.8191
    12.9299  12.9306  13.0789  13.0793  13.1979  13.1984  13.2719  13.2721
    13.4423  13.4427  13.5445  13.5450  13.7809  13.7810  13.8185  13.8188
    13.8901  13.8905  14.0099  14.0102  14.2798  14.2803  14.4028  14.4028
    14.4502  14.4502  14.6410  14.6413  14.8084  14.8088  14.9311  14.9316
    15.0793  15.0796  15.4017  15.4018  15.5334  15.5338  15.5994  15.5996
    15.7566  15.7569  15.9311  15.9313  15.9838  15.9842  16.2156  16.2160
    16.2495  16.2498  16.3572  16.3575  16.4557  16.4560  16.6015  16.6018
    16.6698  16.6699  16.7483  16.7485  17.0353  17.0353  17.1256  17.1257
    17.2679  17.2681  17.4551  17.4552  17.5237  17.5239  17.5880  17.5882
    17.7511  17.7512  17.9830  17.9831  18.0070  18.0073  18.0772  18.0774
    18.1840  18.1848  18.2737  18.2739  18.3412  18.3418  18.5788  18.5790
    18.6533  18.6536  18.9761  18.9762  19.0790  19.0791  19.3194  19.3195
    19.3528  19.3531  19.4837  19.4839  19.8105  19.8109  20.1030  20.1031
    20.2148  20.2149  20.3150  20.3153  20.4319  20.4320  20.5191  20.5194
    20.6335  20.6338  20.7944  20.7945  21.0115  21.0119  21.2282  21.2286
    21.4301  21.4304  21.6687  21.6690  21.7367  21.7371  21.8822  21.8823

          k =-0.2500 0.1950 0.0000 ( 29746 PWs)   bands (ev):

   -62.4349 -62.3463 -62.1244 -62.0447 -61.9483 -61.9360 -61.8689 -61.8554
   -36.9649 -36.9225 -36.8425 -36.6410 -36.5608 -36.3685 -36.3012 -36.2943
   -36.2356 -36.2343 -36.2294 -36.2220 -36.1904 -36.1770 -36.1766 -36.1567
   -36.1474 -36.1253 -36.0956 -36.0522 -36.0000 -35.5041 -35.4405 -35.4260
   -20.6332 -20.3546 -19.8535 -19.6686 -19.6078 -19.5282 -19.3761 -19.3741
   -19.2388 -19.1699 -19.0567 -18.9917 -18.8350 -18.8297 -18.6805 -18.4607
   -18.2740 -18.0882  -8.7179  -8.5531  -8.2226  -8.0420  -7.9012  -7.7743
    -7.7322  -7.5767  -7.5387  -7.4138  -7.1883  -7.1595  -6.9179  -6.8506
    -6.5902  -6.5174  -6.4201  -6.2644  -6.1427  -6.0492  -5.9135  -5.8976
    -5.7272  -5.6575  -5.3902  -5.3312  -5.2166  -5.0720  -4.9597  -4.8504
    -4.7709  -4.6512  -4.5492  -4.5245  -4.4611  -4.3645  -4.3117  -4.2830
    -4.1769  -4.0206  -3.9379  -3.8852  -3.8205  -3.7283  -3.5315  -3.4643
    -3.4193  -3.3264  -3.1624  -3.0227  -3.0214  -2.8018  -2.6546  -2.5006
    -2.3593  -2.1589  -1.8964  -1.0766  -0.8755  -0.8202  -0.4531   0.0475
     0.1667   0.4237   0.6877   0.8559   0.8763   1.0631   1.1812   1.2694
     1.3465   1.4868   1.5702   1.6362   1.7429   1.8943   2.0009   2.2503
     2.3176   2.6655   3.3610   3.4603   3.7466   3.7825   3.9414   4.1563
     4.3414   4.3956   4.4902   4.5987   4.6609   4.7303   4.9282   5.1405
     5.4994   5.6725   5.7585   5.8263   5.9313   6.1295   6.2970   6.3966
     6.5292   6.6341   6.9539   6.9846   7.0897   7.2911   7.5096   7.5990
     7.9127   7.9451   8.1723   8.2827   8.2947   8.4820   8.6462   8.6761
     8.8952   8.9883   9.0690   9.3126   9.3669   9.4215   9.5040   9.5544
     9.5667   9.6287   9.8191   9.9855  10.0367  10.1925  10.2606  10.2851
    10.4667  10.5048  10.6557  10.7374  10.7534  10.9892  11.0950  11.1057
    11.1092  11.2544  11.5619  11.6192  11.6235  11.7414  11.8103  11.9025
    11.9771  12.0868  12.2766  12.3048  12.3477  12.3534  12.4545  12.6432
    12.6550  12.7786  12.8897  12.8975  12.9610  13.0899  13.0985  13.2001
    13.3231  13.4360  13.4522  13.5143  13.5166  13.6594  13.6688  13.7334
    13.8516  13.8982  13.9914  13.9926  14.1470  14.1531  14.2354  14.3362
    14.4065  14.4463  14.4963  14.5489  14.6000  14.7363  14.8427  14.8537
    14.9674  15.0383  15.0666  15.2287  15.2973  15.3909  15.4833  15.5695
    15.6439  15.6660  15.7648  15.8385  15.9040  15.9654  16.0657  16.1146
    16.1890  16.2833  16.3145  16.3644  16.3824  16.4494  16.5912  16.7141
    16.7156  16.7667  16.7903  16.8981  17.0074  17.0970  17.1641  17.2309
    17.2336  17.3012  17.3381  17.4073  17.4945  17.6799  17.6931  17.8126
    17.9107  17.9114  18.0863  18.0891  18.1696  18.2615  18.3652  18.3931
    18.4435  18.4438  18.5552  18.5774  18.6197  18.8394  18.8886  19.0130
    19.0702  19.1239  19.1474  19.2817  19.3140  19.4940  19.5841  19.6120
    19.7174  19.7852  19.8233  19.9109  19.9632  20.0884  20.1528  20.1907
    20.2074  20.2527  20.3381  20.3876  20.3992  20.4209  20.5042  20.5319
    20.6559  20.6972  20.7473  20.8530  20.9224  20.9670  21.0536  21.0586
    21.1361  21.2229  21.2259  21.3186  21.4235  21.4834  21.5485  21.6348

     the Fermi energy is    -0.0081 ev

!    total energy              =   -1696.11338377 Ry
     Harris-Foulkes estimate   =   -1696.11338378 Ry
     estimated scf accuracy    <          7.7E-09 Ry

     The total energy is the sum of the following terms:

     one-electron contribution =  -21374.64855060 Ry
     hartree contribution      =   10709.72139227 Ry
     xc contribution           =    -286.68138690 Ry
     ewald contribution        =    9251.51519832 Ry
     Hubbard energy            =       3.98117231 Ry
     smearing contrib. (-TS)   =      -0.00120917 Ry

     convergence has been achieved in  13 iterations

     Forces acting on atoms (Ry/au):


     negative rho (up, down):  0.354E-02 0.000E+00
     atom    1 type  1   force =    -0.00105804   -0.00515564    0.00036123
     atom    2 type  1   force =    -0.00004653    0.00922310    0.00004845
     atom    3 type  2   force =    -0.00012892   -0.00592654    0.00024024
     atom    4 type  2   force =    -0.00083325    0.00300866    0.00040440
     atom    5 type  1   force =     0.00160054   -0.02314900    0.00011134
     atom    6 type  1   force =    -0.00017385    0.02050762    0.00001158
     atom    7 type  1   force =     0.00007679    0.00154735    0.00083056
     atom    8 type  1   force =     0.00344834    0.00052502    0.00004528
     atom    9 type  2   force =    -0.00207014   -0.00014843   -0.00048739
     atom   10 type  2   force =    -0.00001730    0.00052564    0.00058778
     atom   11 type  1   force =     0.00000550   -0.02140514   -0.00058026
     atom   12 type  1   force =     0.00010066    0.02048807   -0.00061646
     atom   13 type  1   force =    -0.00029907   -0.00003389   -0.00064694
     atom   14 type  1   force =    -0.00105727   -0.00515412    0.00037727
     atom   15 type  1   force =    -0.00003975    0.00922735    0.00005541
     atom   16 type  2   force =    -0.00019506   -0.00592997    0.00024140
     atom   17 type  2   force =    -0.00081795    0.00300868    0.00040179
     atom   18 type  1   force =     0.00158839   -0.02315362    0.00011079
     atom   19 type  1   force =    -0.00018495    0.02051627    0.00001000
     atom   20 type  1   force =     0.00008365    0.00154215    0.00085811
     atom   21 type  1   force =     0.00344682    0.00052448    0.00003389
     atom   22 type  2   force =    -0.00211177   -0.00014888   -0.00048204
     atom   23 type  2   force =    -0.00001757    0.00051425    0.00059235
     atom   24 type  1   force =    -0.00001655   -0.02140649   -0.00058024
     atom   25 type  1   force =     0.00007717    0.02048942   -0.00061559
     atom   26 type  1   force =    -0.00029416   -0.00003585   -0.00065116
     atom   27 type  3   force =     0.00000510    0.00015159    0.00022874
     atom   28 type  3   force =     0.00000510    0.00014505    0.00022508
     atom   29 type  3   force =    -0.00053769   -0.00014790   -0.00055638
     atom   30 type  3   force =    -0.00053825   -0.00014924   -0.00055924

     Total force =     0.002647     Total SCF correction =     0.000221

     bfgs converged in  11 scf cycles and  10 bfgs steps
     (criteria: energy < 0.10E-03, force < 0.10E-02)

     End of BFGS Geometry Optimization

     Final energy   =   -1696.1133837743 Ry
Begin final coordinates

ATOMIC_POSITIONS (crystal)
O0       0.000000000   0.000000000   0.372950504    0   0   1
O0       0.000000000   0.500000000   0.380060084    0   0   1
Mo1      0.250000000   0.500000000   0.437884549    0   0   1
Mo1      0.000000000   0.000000000   0.445051059    0   0   1
O0       0.250000000   0.780000000   0.443160290    0   0   1
O0       0.250000000   0.220000000   0.443140792    0   0   1
O0       0.000000000   0.500000000   0.496708639    0   0   1
O0       0.000000000   0.000000000   0.518765927    0   0   1
Mo1      0.250000000   0.000000000   0.577709920    0   0   1
Mo1      0.000000000   0.500000000   0.564711220    0   0   1
O0       0.250000000   0.720000000   0.574857129    0   0   1
O0       0.250000000   0.280000000   0.574970224    0   0   1
O0       0.000000000   0.000000000   0.628312838    0   0   1
O0       0.500000000   0.000000000   0.372947690    0   0   1
O0       0.500000000   0.500000000   0.380057909    0   0   1
Mo1      0.750000000   0.500000000   0.437884484    0   0   1
Mo1      0.500000000   0.000000000   0.445047793    0   0   1
O0       0.750000000   0.780000000   0.443159662    0   0   1
O0       0.750000000   0.220000000   0.443140821    0   0   1
O0       0.500000000   0.500000000   0.496714737    0   0   1
O0       0.500000000   0.000000000   0.518769404    0   0   1
Mo1      0.750000000   0.000000000   0.577710738    0   0   1
Mo1      0.500000000   0.500000000   0.564705880    0   0   1
O0       0.750000000   0.720000000   0.574857342    0   0   1
O0       0.750000000   0.280000000   0.574970302    0   0   1
O0       0.500000000   0.000000000   0.628314070    0   0   1
H2      -0.000455296   0.614009562   0.358728526
H2       0.499544508   0.614005295   0.358724892
H2       0.166461188   0.020553862   0.358531670
H2       0.666466078   0.020553122   0.358530903
End final coordinates



     init_run     :     98.44s CPU    100.67s WALL (       1 calls)
     electrons    :  30202.49s CPU  31014.80s WALL (      11 calls)
     update_pot   :    203.10s CPU    209.77s WALL (      10 calls)
     forces       :   1312.83s CPU   1335.70s WALL (      11 calls)

     Called by init_run:
     wfcinit      :     34.78s CPU     35.44s WALL (       1 calls)
     potinit      :      7.57s CPU      7.77s WALL (       1 calls)

     Called by electrons:
     c_bands      :  16345.52s CPU  16773.35s WALL (     180 calls)
     sum_band     :   6080.26s CPU   6239.41s WALL (     180 calls)
     v_of_rho     :    186.78s CPU    197.97s WALL (     185 calls)
     newd         :   7952.75s CPU   8028.48s WALL (     185 calls)
     mix_rho      :     33.16s CPU     34.03s WALL (     180 calls)

     Called by c_bands:
     init_us_2    :     44.82s CPU     45.40s WALL (    1182 calls)
     cegterg      :  16130.15s CPU  16498.46s WALL (     540 calls)

     Called by *egterg:
     h_psi        :   9582.60s CPU   9777.71s WALL (    1479 calls)
     s_psi        :    958.94s CPU    973.02s WALL (    1545 calls)
     g_psi        :     21.16s CPU     21.23s WALL (     936 calls)
     cdiaghg      :   1344.32s CPU   1351.05s WALL (    1428 calls)

     Called by h_psi:
     add_vuspsi   :    924.25s CPU    939.00s WALL (    1479 calls)
     vhpsi        :   1019.00s CPU   1029.04s WALL (    1479 calls)

     General routines
     calbec       :   2334.27s CPU   2362.43s WALL (   13080 calls)
     fft          :    237.72s CPU    293.48s WALL (    3071 calls)
     ffts         :      3.34s CPU      3.47s WALL (     365 calls)
     fftw         :   5489.34s CPU   5683.05s WALL (  941930 calls)
     interpolate  :     28.28s CPU     28.80s WALL (     365 calls)
     davcio       :      0.12s CPU     19.21s WALL (    1215 calls)

     Parallel routines
     fft_scatter  :   1878.68s CPU   2105.97s WALL (  945366 calls)
     Hubbard U routines
     new_ns       :    225.89s CPU    245.37s WALL (     180 calls)
     vhpsi        :   1019.00s CPU   1029.04s WALL (    1479 calls)
     force_hub    :    378.25s CPU    387.35s WALL (      11 calls)

     PWSCF        :     8h58m CPU        9h13m WALL


   This run was terminated on:   4:20: 6   6May2014            

=------------------------------------------------------------------------------=
   JOB DONE.
=------------------------------------------------------------------------------=
---------------------------------------
Running PBS batch system epilogue script
Job id: 340752.audhumbla.fysik.dtu.dk
Username: zhonxu
Groupname: campgst
Jobname: MoO2/Eads-2-layers/bare-U-6.0
Sessionid: 12925
Resources limits: neednodes=2:ppn=8:xeon8,nodes=2:ppn=8:xeon8,walltime=48:00:00
Resources used: cput=147:10:12,mem=16155680kb,vmem=19749952kb,walltime=09:13:13
Queuename: verylong
Accounting:
This job has allocated the following 16 nodes:
d080 d080 d080 d080 d080 d080 d080 d080 d079 d079 d079 d079 d079 d079 d079 d079
Finished epilogue job 340752.audhumbla.fysik.dtu.dk for zhonxu
