
     Program PWSCF v.5.0.2 (svn rev. 9656) starts on  7Jun2014 at  4:44: 2 

     This program is part of the open-source Quantum ESPRESSO suite
     for quantum simulation of materials; please cite
         "P. Giannozzi et al., J. Phys.:Condens. Matter 21 395502 (2009);
          URL http://www.quantum-espresso.org", 
     in publications or presentations arising from this work. More details at
     http://www.quantum-espresso.org/quote.php

     Parallel version (MPI), running on    32 processors
     K-points division:     npool     =       4
     R & G space division:  proc/nbgrp/npool/nimage =       8

     Current dimensions of program PWSCF are:
     Max number of different atomic species (ntypx) = 10
     Max number of k-points (npk) =  40000
     Max angular momentum in pseudopotentials (lmaxx) =  3
     Reading input from pwscf.in
Warning: card &CELL ignored
Warning: card / ignored

     Subspace diagonalization in iterative solution of the eigenvalue problem:
     a serial algorithm will be used


     Parallelization info
     --------------------
     sticks:   dense  smooth     PW     G-vecs:    dense   smooth      PW
     Min         712     228     63               230098    41659    6159
     Max         713     229     64               230105    41694    6175
     Sum        5697    1827    505              1840805   333393   49337



     bravais-lattice index     =            0
     lattice parameter (alat)  =      11.7541  a.u.
     unit-cell volume          =    9749.5977 (a.u.)^3
     number of atoms/cell      =           51
     number of atomic types    =            3
     number of electrons       =       445.00
     number of Kohn-Sham states=          667
     kinetic-energy cutoff     =      40.0000  Ry
     charge density cutoff     =     500.0000  Ry
     convergence threshold     =      1.0E-06
     mixing beta               =       0.3000
     number of iterations used =            8  plain     mixing
     Exchange-correlation      = SLA  PW   PBE  PBE ( 1 4 3 4 0)
     EXX-fraction              =        0.00
     nstep                     =           50


     celldm(1)=  11.754097  celldm(2)=   0.000000  celldm(3)=   0.000000
     celldm(4)=   0.000000  celldm(5)=   0.000000  celldm(6)=   0.000000

     crystal axes: (cart. coord. in units of alat)
               a(1) = (   1.000000   0.000000   0.000000 )  
               a(2) = (   0.000000   1.034513   0.000000 )  
               a(3) = (   0.000000   0.000000   5.803406 )  

     reciprocal axes: (cart. coord. in units 2 pi/alat)
               b(1) = (  1.000000  0.000000  0.000000 )  
               b(2) = (  0.000000  0.966638  0.000000 )  
               b(3) = (  0.000000  0.000000  0.172313 )  


     PseudoPot. # 1 for O  read from file:
     /home/camp/zhonxu/pseudo/o_pbe_v1.01.uspp.F.UPF
     MD5 check sum: 2bcb18d16ea4b960afae9ec6d52f22d2
     Pseudo is Ultrasoft + core correction, Zval =  6.0
     Generated by new atomic code, or converted to UPF format
     Using radial grid of  737 points,  5 beta functions with: 
                l(1) =   0
                l(2) =   0
                l(3) =   1
                l(4) =   1
                l(5) =   2
     Q(r) pseudized with  8 coefficients,  rinner =    0.900   0.900   0.900
                                                       0.900   0.900

     PseudoPot. # 2 for Rh read from file:
     /home/camp/zhonxu/pseudo/rh_pbe_v1.uspp.F.UPF
     MD5 check sum: 37b626987ad0dd8ec6bf4cc9ef289918
     Pseudo is Ultrasoft + core correction, Zval = 15.0
     Generated by new atomic code, or converted to UPF format
     Using radial grid of  969 points,  7 beta functions with: 
                l(1) =   0
                l(2) =   0
                l(3) =   1
                l(4) =   1
                l(5) =   2
                l(6) =   2
                l(7) =   2
     Q(r) pseudized with  6 coefficients,  rinner =    1.050   1.050   1.050
                                                       1.050   1.050

     PseudoPot. # 3 for H  read from file:
     /home/camp/zhonxu/pseudo/h_pbe_v1.uspp.F.UPF
     MD5 check sum: 3408e3ff4ec8b0a4e358431e7e038a48
     Pseudo is Ultrasoft, Zval =  1.0
     Generated by new atomic code, or converted to UPF format
     Using radial grid of  615 points,  2 beta functions with: 
                l(1) =   0
                l(2) =   0
     Q(r) pseudized with  8 coefficients,  rinner =    0.700

     atomic species   valence    mass     pseudopotential
        O0             6.00    15.99940     O ( 1.00)
        Rh1           15.00   102.90550     Rh( 1.00)
        H2             1.00     1.00794     H ( 1.00)

      2 Sym. Ops. (no inversion) found



   Cartesian axes

     site n.     atom                  positions (alat units)
         1           O0  tau(   1) = (   0.0000000   0.5172566   1.9292842  )
         2           Rh1 tau(   2) = (   0.2500000   0.5172566   2.1258455  )
         3           Rh1 tau(   3) = (   0.0000000   0.0000000   2.1258455  )
         4           O0  tau(   4) = (   0.2500000   0.8379556   2.1258455  )
         5           O0  tau(   5) = (   0.2500000   0.1965575   2.1258455  )
         6           O0  tau(   6) = (   0.0000000   0.5172566   2.3223488  )
         7           O0  tau(   7) = (   0.0000000   0.0000000   2.4465417  )
         8           Rh1 tau(   8) = (   0.2500000   0.0000000   2.6431030  )
         9           Rh1 tau(   9) = (   0.0000000   0.5172566   2.6431030  )
        10           O0  tau(  10) = (   0.2500000   0.7138141   2.6431030  )
        11           O0  tau(  11) = (   0.2500000   0.3206991   2.6431030  )
        12           O0  tau(  12) = (   0.0000000   0.0000000   2.8396064  )
        13           O0  tau(  13) = (   0.0000000   0.5172566   2.9573575  )
        14           Rh1 tau(  14) = (   0.2500000   0.5172566   3.1562402  )
        15           Rh1 tau(  15) = (   0.0000000   0.0000000   3.1604767  )
        16           O0  tau(  16) = (   0.2500000   0.8345107   3.1596642  )
        17           O0  tau(  17) = (   0.2500000   0.2000024   3.1596642  )
        18           O0  tau(  18) = (   0.0000000   0.5172566   3.3551809  )
        19           O0  tau(  19) = (   0.0000000   0.0000000   3.4777488  )
        20           Rh1 tau(  20) = (   0.2500000   0.0000000   3.6811582  )
        21           Rh1 tau(  21) = (   0.0000000   0.5172566   3.6632837  )
        22           O0  tau(  22) = (   0.2500000   0.7138554   3.6912561  )
        23           O0  tau(  23) = (   0.2500000   0.3206577   3.6912561  )
        24           O0  tau(  24) = (   0.0000000   0.0000000   3.8739473  )
        25           O0  tau(  25) = (   0.5000000   0.5172566   1.9292842  )
        26           Rh1 tau(  26) = (   0.7500000   0.5172566   2.1258455  )
        27           Rh1 tau(  27) = (   0.5000000   0.0000000   2.1258455  )
        28           O0  tau(  28) = (   0.7500000   0.8379556   2.1258455  )
        29           O0  tau(  29) = (   0.7500000   0.1965575   2.1258455  )
        30           O0  tau(  30) = (   0.5000000   0.5172566   2.3223488  )
        31           O0  tau(  31) = (   0.5000000   0.0000000   2.4465417  )
        32           Rh1 tau(  32) = (   0.7500000   0.0000000   2.6431030  )
        33           Rh1 tau(  33) = (   0.5000000   0.5172566   2.6431030  )
        34           O0  tau(  34) = (   0.7500000   0.7138141   2.6431030  )
        35           O0  tau(  35) = (   0.7500000   0.3206991   2.6431030  )
        36           O0  tau(  36) = (   0.5000000   0.0000000   2.8396064  )
        37           O0  tau(  37) = (   0.5000000   0.5172566   2.9573575  )
        38           Rh1 tau(  38) = (   0.7500000   0.5172566   3.1562402  )
        39           Rh1 tau(  39) = (   0.5000000   0.0000000   3.1604767  )
        40           O0  tau(  40) = (   0.7500000   0.8345107   3.1596642  )
        41           O0  tau(  41) = (   0.7500000   0.2000024   3.1596642  )
        42           O0  tau(  42) = (   0.5000000   0.5172566   3.3551809  )
        43           O0  tau(  43) = (   0.5000000   0.0000000   3.4777488  )
        44           Rh1 tau(  44) = (   0.7500000   0.0000000   3.6811582  )
        45           Rh1 tau(  45) = (   0.5000000   0.5172566   3.6632837  )
        46           O0  tau(  46) = (   0.7500000   0.7138554   3.6912561  )
        47           O0  tau(  47) = (   0.7500000   0.3206577   3.6912561  )
        48           O0  tau(  48) = (   0.5000000   0.0000000   3.8739473  )
        49           O0  tau(  49) = (   0.5000000   0.5172566   3.9874620  )
        50           O0  tau(  50) = (   0.5000000   0.3299580   4.1031238  )
        51           H2  tau(  51) = (   0.5000000   0.3775663   4.2545927  )

     number of k points=     9  Methfessel-Paxton smearing, width (Ry)=  0.0100
                       cart. coord. in units 2pi/alat
        k(    1) = (   0.0000000   0.0000000   0.0000000), wk =   0.1250000
        k(    2) = (   0.0000000   0.2416596   0.0000000), wk =   0.2500000
        k(    3) = (   0.0000000  -0.4833191   0.0000000), wk =   0.1250000
        k(    4) = (   0.2500000   0.0000000   0.0000000), wk =   0.2500000
        k(    5) = (   0.2500000   0.2416596   0.0000000), wk =   0.5000000
        k(    6) = (   0.2500000  -0.4833191   0.0000000), wk =   0.2500000
        k(    7) = (  -0.5000000   0.0000000   0.0000000), wk =   0.1250000
        k(    8) = (  -0.5000000   0.2416596   0.0000000), wk =   0.2500000
        k(    9) = (  -0.5000000  -0.4833191   0.0000000), wk =   0.1250000

     Dense  grid:  1840805 G-vectors     FFT dimensions: (  90,  90, 486)

     Smooth grid:   333393 G-vectors     FFT dimensions: (  48,  50, 288)

     Largest allocated arrays     est. size (Mb)     dimensions
        Kohn-Sham Wavefunctions        53.88 Mb     (   5294,  667)
        NL pseudopotentials            65.59 Mb     (   5294,  812)
        Each V/rho on FFT grid          7.54 Mb     ( 494100)
        Each G-vector array             1.76 Mb     ( 230100)
        G-vector shells                 0.83 Mb     ( 109068)
     Largest temporary arrays     est. size (Mb)     dimensions
        Auxiliary wavefunctions       215.52 Mb     (   5294, 2668)
        Each subspace H/S matrix      108.62 Mb     (2668,2668)
        Each <psi_i|beta_j> matrix      8.26 Mb     (    812,  667)
        Arrays for rho mixing          60.31 Mb     ( 494100,   8)

     Check: negative/imaginary core charge=   -0.000003    0.000000

     Initial potential from superposition of free atoms
     Check: negative starting charge=   -1.286807

     starting charge  436.99836, renormalised to  445.00000

     negative rho (up, down):  0.131E+01 0.000E+00
     Starting wfc are  329 randomized atomic wfcs

     total cpu time spent up to now is      153.7 secs

     Self-consistent Calculation

     iteration #  1     ecut=    40.00 Ry     beta=0.30
     Davidson diagonalization with overlap
     ethr =  1.00E-02,  avg # of iterations =  5.7

     negative rho (up, down):  0.133E+01 0.000E+00

     total cpu time spent up to now is     1130.8 secs

     total energy              =   -3704.51009936 Ry
     Harris-Foulkes estimate   =   -3831.90197120 Ry
     estimated scf accuracy    <     253.83852748 Ry

     iteration #  2     ecut=    40.00 Ry     beta=0.30
     Davidson diagonalization with overlap
     ethr =  1.00E-02,  avg # of iterations =  8.0

     negative rho (up, down):  0.128E+01 0.000E+00

     total cpu time spent up to now is     2172.4 secs

     total energy              =   -3154.26636718 Ry
     Harris-Foulkes estimate   =   -4981.50263241 Ry
     estimated scf accuracy    <   53460.30858008 Ry

     iteration #  3     ecut=    40.00 Ry     beta=0.30
     Davidson diagonalization with overlap
     ethr =  1.00E-02,  avg # of iterations =  6.0

     negative rho (up, down):  0.130E+01 0.000E+00

     total cpu time spent up to now is     3166.6 secs

     total energy              =   -3784.93457568 Ry
     Harris-Foulkes estimate   =   -3874.69703232 Ry
     estimated scf accuracy    <    2146.09318631 Ry

     iteration #  4     ecut=    40.00 Ry     beta=0.30
     Davidson diagonalization with overlap
     ethr =  1.00E-02,  avg # of iterations =  5.0

     negative rho (up, down):  0.133E+01 0.000E+00

     total cpu time spent up to now is     3711.1 secs

     total energy              =   -3812.21444890 Ry
     Harris-Foulkes estimate   =   -3841.19681642 Ry
     estimated scf accuracy    <     407.27103895 Ry

     iteration #  5     ecut=    40.00 Ry     beta=0.30
     Davidson diagonalization with overlap
     ethr =  1.00E-02,  avg # of iterations =  3.0

     negative rho (up, down):  0.133E+01 0.000E+00

     total cpu time spent up to now is     4075.3 secs

     total energy              =   -3821.80616682 Ry
     Harris-Foulkes estimate   =   -3825.78578042 Ry
     estimated scf accuracy    <      27.31681356 Ry

     iteration #  6     ecut=    40.00 Ry     beta=0.30
     Davidson diagonalization with overlap
     ethr =  6.14E-03,  avg # of iterations =  1.0

     negative rho (up, down):  0.134E+01 0.000E+00

     total cpu time spent up to now is     4374.5 secs

     total energy              =   -3822.82369328 Ry
     Harris-Foulkes estimate   =   -3824.56104486 Ry
     estimated scf accuracy    <      24.02706583 Ry

     iteration #  7     ecut=    40.00 Ry     beta=0.30
     Davidson diagonalization with overlap
     ethr =  5.40E-03,  avg # of iterations =  1.0

     negative rho (up, down):  0.134E+01 0.000E+00

     total cpu time spent up to now is     4676.5 secs

     total energy              =   -3823.13735211 Ry
     Harris-Foulkes estimate   =   -3824.15123955 Ry
     estimated scf accuracy    <      18.27355832 Ry

     iteration #  8     ecut=    40.00 Ry     beta=0.30
     Davidson diagonalization with overlap
     ethr =  4.11E-03,  avg # of iterations =  1.0

     negative rho (up, down):  0.135E+01 0.000E+00

     total cpu time spent up to now is     4975.9 secs

     total energy              =   -3823.33450795 Ry
     Harris-Foulkes estimate   =   -3823.74867499 Ry
     estimated scf accuracy    <       4.90315313 Ry

     iteration #  9     ecut=    40.00 Ry     beta=0.30
     Davidson diagonalization with overlap
     ethr =  1.10E-03,  avg # of iterations =  4.7

     negative rho (up, down):  0.135E+01 0.000E+00

     total cpu time spent up to now is     5374.7 secs

     total energy              =   -3823.36156576 Ry
     Harris-Foulkes estimate   =   -3823.64886691 Ry
     estimated scf accuracy    <       4.23911600 Ry

     iteration # 10     ecut=    40.00 Ry     beta=0.30
     Davidson diagonalization with overlap
     ethr =  9.53E-04,  avg # of iterations =  2.0

     negative rho (up, down):  0.136E+01 0.000E+00

     total cpu time spent up to now is     5681.3 secs

     total energy              =   -3823.48845977 Ry
     Harris-Foulkes estimate   =   -3823.63614262 Ry
     estimated scf accuracy    <       3.63222391 Ry

     iteration # 11     ecut=    40.00 Ry     beta=0.30
     Davidson diagonalization with overlap
     ethr =  8.16E-04,  avg # of iterations =  1.0

     negative rho (up, down):  0.136E+01 0.000E+00

     total cpu time spent up to now is     5981.5 secs

     total energy              =   -3823.47916582 Ry
     Harris-Foulkes estimate   =   -3823.55217527 Ry
     estimated scf accuracy    <       1.16674451 Ry

     iteration # 12     ecut=    40.00 Ry     beta=0.30
     Davidson diagonalization with overlap
     ethr =  2.62E-04,  avg # of iterations =  5.4

     negative rho (up, down):  0.137E+01 0.000E+00

     total cpu time spent up to now is     6410.8 secs

     total energy              =   -3823.45894012 Ry
     Harris-Foulkes estimate   =   -3823.53574216 Ry
     estimated scf accuracy    <       1.40048330 Ry

     iteration # 13     ecut=    40.00 Ry     beta=0.30
     Davidson diagonalization with overlap
     ethr =  2.62E-04,  avg # of iterations =  1.1

     negative rho (up, down):  0.137E+01 0.000E+00

     total cpu time spent up to now is     6716.7 secs

     total energy              =   -3823.47137303 Ry
     Harris-Foulkes estimate   =   -3823.53840852 Ry
     estimated scf accuracy    <       1.34842390 Ry

     iteration # 14     ecut=    40.00 Ry     beta=0.30
     Davidson diagonalization with overlap
     ethr =  2.62E-04,  avg # of iterations =  5.4

     negative rho (up, down):  0.137E+01 0.000E+00

     total cpu time spent up to now is     7147.4 secs

     total energy              =   -3823.44043986 Ry
     Harris-Foulkes estimate   =   -3823.56793338 Ry
     estimated scf accuracy    <       4.68382343 Ry

     iteration # 15     ecut=    40.00 Ry     beta=0.30
     Davidson diagonalization with overlap
     ethr =  2.62E-04,  avg # of iterations =  1.9

     negative rho (up, down):  0.138E+01 0.000E+00

     total cpu time spent up to now is     7492.5 secs

     total energy              =   -3823.49818825 Ry
     Harris-Foulkes estimate   =   -3823.51004864 Ry
     estimated scf accuracy    <       0.19700721 Ry

     iteration # 16     ecut=    40.00 Ry     beta=0.30
     Davidson diagonalization with overlap
     ethr =  4.43E-05,  avg # of iterations =  8.3

     negative rho (up, down):  0.138E+01 0.000E+00

     total cpu time spent up to now is     8001.3 secs

     total energy              =   -3823.49492909 Ry
     Harris-Foulkes estimate   =   -3823.51421753 Ry
     estimated scf accuracy    <       0.29770286 Ry

     iteration # 17     ecut=    40.00 Ry     beta=0.30
     Davidson diagonalization with overlap
     ethr =  4.43E-05,  avg # of iterations =  1.0

     negative rho (up, down):  0.138E+01 0.000E+00

     total cpu time spent up to now is     8307.7 secs

     total energy              =   -3823.50256762 Ry
     Harris-Foulkes estimate   =   -3823.50728733 Ry
     estimated scf accuracy    <       0.13011469 Ry

     iteration # 18     ecut=    40.00 Ry     beta=0.30
     Davidson diagonalization with overlap
     ethr =  2.92E-05,  avg # of iterations =  1.0

     negative rho (up, down):  0.138E+01 0.000E+00

     total cpu time spent up to now is     8611.7 secs

     total energy              =   -3823.50294768 Ry
     Harris-Foulkes estimate   =   -3823.50734308 Ry
     estimated scf accuracy    <       0.05691950 Ry

     iteration # 19     ecut=    40.00 Ry     beta=0.30
     Davidson diagonalization with overlap
     ethr =  1.28E-05,  avg # of iterations =  1.0

     negative rho (up, down):  0.138E+01 0.000E+00

     total cpu time spent up to now is     8921.3 secs

     total energy              =   -3823.50409037 Ry
     Harris-Foulkes estimate   =   -3823.50626466 Ry
     estimated scf accuracy    <       0.04381558 Ry

     iteration # 20     ecut=    40.00 Ry     beta=0.30
     Davidson diagonalization with overlap
     ethr =  9.85E-06,  avg # of iterations =  1.0

     negative rho (up, down):  0.138E+01 0.000E+00

     total cpu time spent up to now is     9225.4 secs

     total energy              =   -3823.50456384 Ry
     Harris-Foulkes estimate   =   -3823.50635933 Ry
     estimated scf accuracy    <       0.03470108 Ry

     iteration # 21     ecut=    40.00 Ry     beta=0.30
     Davidson diagonalization with overlap
     ethr =  7.80E-06,  avg # of iterations =  1.6

     negative rho (up, down):  0.138E+01 0.000E+00

     total cpu time spent up to now is     9549.4 secs

     total energy              =   -3823.50515548 Ry
     Harris-Foulkes estimate   =   -3823.50588560 Ry
     estimated scf accuracy    <       0.01071506 Ry

     iteration # 22     ecut=    40.00 Ry     beta=0.30
     Davidson diagonalization with overlap
     ethr =  2.41E-06,  avg # of iterations =  6.2

     negative rho (up, down):  0.138E+01 0.000E+00

     total cpu time spent up to now is    10086.1 secs

     total energy              =   -3823.50537503 Ry
     Harris-Foulkes estimate   =   -3823.50573765 Ry
     estimated scf accuracy    <       0.01234623 Ry

     iteration # 23     ecut=    40.00 Ry     beta=0.30
     Davidson diagonalization with overlap
     ethr =  2.41E-06,  avg # of iterations =  8.9

     negative rho (up, down):  0.138E+01 0.000E+00

     total cpu time spent up to now is    10624.3 secs

     total energy              =   -3823.50532474 Ry
     Harris-Foulkes estimate   =   -3823.50576140 Ry
     estimated scf accuracy    <       0.01662635 Ry

     iteration # 24     ecut=    40.00 Ry     beta=0.30
     Davidson diagonalization with overlap
     ethr =  2.41E-06,  avg # of iterations =  2.7

     negative rho (up, down):  0.138E+01 0.000E+00

     total cpu time spent up to now is    10961.5 secs

     total energy              =   -3823.50513529 Ry
     Harris-Foulkes estimate   =   -3823.50601236 Ry
     estimated scf accuracy    <       0.04938338 Ry

     iteration # 25     ecut=    40.00 Ry     beta=0.30
     Davidson diagonalization with overlap
     ethr =  2.41E-06,  avg # of iterations =  1.0

     negative rho (up, down):  0.138E+01 0.000E+00

     total cpu time spent up to now is    11264.4 secs

     total energy              =   -3823.50543700 Ry
     Harris-Foulkes estimate   =   -3823.50582041 Ry
     estimated scf accuracy    <       0.00999930 Ry

     iteration # 26     ecut=    40.00 Ry     beta=0.30
     Davidson diagonalization with overlap
     ethr =  2.25E-06,  avg # of iterations =  1.2

     negative rho (up, down):  0.138E+01 0.000E+00

     total cpu time spent up to now is    11577.9 secs

     total energy              =   -3823.50558024 Ry
     Harris-Foulkes estimate   =   -3823.50568251 Ry
     estimated scf accuracy    <       0.00230938 Ry

     iteration # 27     ecut=    40.00 Ry     beta=0.30
     Davidson diagonalization with overlap
     ethr =  5.19E-07,  avg # of iterations =  1.3

     negative rho (up, down):  0.138E+01 0.000E+00

     total cpu time spent up to now is    11904.0 secs

     total energy              =   -3823.50558800 Ry
     Harris-Foulkes estimate   =   -3823.50571633 Ry
     estimated scf accuracy    <       0.00267220 Ry

     iteration # 28     ecut=    40.00 Ry     beta=0.30
     Davidson diagonalization with overlap
     ethr =  5.19E-07,  avg # of iterations =  1.0

     negative rho (up, down):  0.138E+01 0.000E+00

     total cpu time spent up to now is    12209.8 secs

     total energy              =   -3823.50562687 Ry
     Harris-Foulkes estimate   =   -3823.50568998 Ry
     estimated scf accuracy    <       0.00158403 Ry

     iteration # 29     ecut=    40.00 Ry     beta=0.30
     Davidson diagonalization with overlap
     ethr =  3.56E-07,  avg # of iterations =  1.0

     negative rho (up, down):  0.138E+01 0.000E+00

     total cpu time spent up to now is    12516.8 secs

     total energy              =   -3823.50563523 Ry
     Harris-Foulkes estimate   =   -3823.50567319 Ry
     estimated scf accuracy    <       0.00072675 Ry

     iteration # 30     ecut=    40.00 Ry     beta=0.30
     Davidson diagonalization with overlap
     ethr =  1.63E-07,  avg # of iterations =  1.0

     negative rho (up, down):  0.138E+01 0.000E+00

     total cpu time spent up to now is    12822.4 secs

     total energy              =   -3823.50561589 Ry
     Harris-Foulkes estimate   =   -3823.50570487 Ry
     estimated scf accuracy    <       0.00205309 Ry

     iteration # 31     ecut=    40.00 Ry     beta=0.30
     Davidson diagonalization with overlap
     ethr =  1.63E-07,  avg # of iterations =  1.0

     negative rho (up, down):  0.138E+01 0.000E+00

     total cpu time spent up to now is    13128.5 secs

     total energy              =   -3823.50565528 Ry
     Harris-Foulkes estimate   =   -3823.50566937 Ry
     estimated scf accuracy    <       0.00012115 Ry

     iteration # 32     ecut=    40.00 Ry     beta=0.30
     Davidson diagonalization with overlap
     ethr =  2.72E-08,  avg # of iterations =  1.0

     negative rho (up, down):  0.138E+01 0.000E+00

     total cpu time spent up to now is    13432.4 secs

     total energy              =   -3823.50566343 Ry
     Harris-Foulkes estimate   =   -3823.50566851 Ry
     estimated scf accuracy    <       0.00009739 Ry

     iteration # 33     ecut=    40.00 Ry     beta=0.30
     Davidson diagonalization with overlap
     ethr =  2.19E-08,  avg # of iterations =  1.0

     negative rho (up, down):  0.138E+01 0.000E+00

     total cpu time spent up to now is    13733.2 secs

     total energy              =   -3823.50566543 Ry
     Harris-Foulkes estimate   =   -3823.50566893 Ry
     estimated scf accuracy    <       0.00010085 Ry

     iteration # 34     ecut=    40.00 Ry     beta=0.30
     Davidson diagonalization with overlap
     ethr =  2.19E-08,  avg # of iterations =  1.0

     negative rho (up, down):  0.138E+01 0.000E+00

     total cpu time spent up to now is    14035.4 secs

     total energy              =   -3823.50564462 Ry
     Harris-Foulkes estimate   =   -3823.50568959 Ry
     estimated scf accuracy    <       0.00289788 Ry

     iteration # 35     ecut=    40.00 Ry     beta=0.30
     Davidson diagonalization with overlap
     ethr =  2.19E-08,  avg # of iterations =  1.0

     negative rho (up, down):  0.138E+01 0.000E+00

     total cpu time spent up to now is    14338.4 secs

     total energy              =   -3823.50566216 Ry
     Harris-Foulkes estimate   =   -3823.50567476 Ry
     estimated scf accuracy    <       0.00033123 Ry

     iteration # 36     ecut=    40.00 Ry     beta=0.30
     Davidson diagonalization with overlap
     ethr =  2.19E-08,  avg # of iterations =  1.0

     negative rho (up, down):  0.138E+01 0.000E+00

     total cpu time spent up to now is    14640.0 secs

     total energy              =   -3823.50566759 Ry
     Harris-Foulkes estimate   =   -3823.50567051 Ry
     estimated scf accuracy    <       0.00004240 Ry

     iteration # 37     ecut=    40.00 Ry     beta=0.30
     Davidson diagonalization with overlap
     ethr =  9.53E-09,  avg # of iterations =  1.0

     negative rho (up, down):  0.138E+01 0.000E+00

     total cpu time spent up to now is    14945.3 secs

     total energy              =   -3823.50566654 Ry
     Harris-Foulkes estimate   =   -3823.50567250 Ry
     estimated scf accuracy    <       0.00021557 Ry

     iteration # 38     ecut=    40.00 Ry     beta=0.30
     Davidson diagonalization with overlap
     ethr =  9.53E-09,  avg # of iterations =  1.0

     negative rho (up, down):  0.138E+01 0.000E+00

     total cpu time spent up to now is    15248.4 secs

     total energy              =   -3823.50566806 Ry
     Harris-Foulkes estimate   =   -3823.50567143 Ry
     estimated scf accuracy    <       0.00007561 Ry

     iteration # 39     ecut=    40.00 Ry     beta=0.30
     Davidson diagonalization with overlap
     ethr =  9.53E-09,  avg # of iterations =  1.0

     negative rho (up, down):  0.138E+01 0.000E+00

     total cpu time spent up to now is    15549.4 secs

     total energy              =   -3823.50566935 Ry
     Harris-Foulkes estimate   =   -3823.50567085 Ry
     estimated scf accuracy    <       0.00002858 Ry

     iteration # 40     ecut=    40.00 Ry     beta=0.30
     Davidson diagonalization with overlap
     ethr =  6.42E-09,  avg # of iterations =  1.0

     negative rho (up, down):  0.138E+01 0.000E+00

     total cpu time spent up to now is    15851.4 secs

     total energy              =   -3823.50566925 Ry
     Harris-Foulkes estimate   =   -3823.50567128 Ry
     estimated scf accuracy    <       0.00005594 Ry

     iteration # 41     ecut=    40.00 Ry     beta=0.30
     Davidson diagonalization with overlap
     ethr =  6.42E-09,  avg # of iterations =  1.0

     negative rho (up, down):  0.138E+01 0.000E+00

     total cpu time spent up to now is    16154.6 secs

     total energy              =   -3823.50566980 Ry
     Harris-Foulkes estimate   =   -3823.50567092 Ry
     estimated scf accuracy    <       0.00001577 Ry

     iteration # 42     ecut=    40.00 Ry     beta=0.30
     Davidson diagonalization with overlap
     ethr =  3.54E-09,  avg # of iterations =  1.0

     negative rho (up, down):  0.138E+01 0.000E+00

     total cpu time spent up to now is    16459.3 secs

     total energy              =   -3823.50567006 Ry
     Harris-Foulkes estimate   =   -3823.50567089 Ry
     estimated scf accuracy    <       0.00001206 Ry

     iteration # 43     ecut=    40.00 Ry     beta=0.30
     Davidson diagonalization with overlap
     ethr =  2.71E-09,  avg # of iterations =  1.0

     negative rho (up, down):  0.138E+01 0.000E+00

     total cpu time spent up to now is    16763.7 secs

     total energy              =   -3823.50567066 Ry
     Harris-Foulkes estimate   =   -3823.50567059 Ry
     estimated scf accuracy    <       0.00000320 Ry

     iteration # 44     ecut=    40.00 Ry     beta=0.30
     Davidson diagonalization with overlap
     ethr =  7.18E-10,  avg # of iterations =  1.0

     negative rho (up, down):  0.138E+01 0.000E+00

     total cpu time spent up to now is    17074.3 secs

     total energy              =   -3823.50567032 Ry
     Harris-Foulkes estimate   =   -3823.50567095 Ry
     estimated scf accuracy    <       0.00002962 Ry

     iteration # 45     ecut=    40.00 Ry     beta=0.30
     Davidson diagonalization with overlap
     ethr =  7.18E-10,  avg # of iterations =  1.0

     negative rho (up, down):  0.138E+01 0.000E+00

     total cpu time spent up to now is    17378.3 secs

     total energy              =   -3823.50567036 Ry
     Harris-Foulkes estimate   =   -3823.50567095 Ry
     estimated scf accuracy    <       0.00002084 Ry

     iteration # 46     ecut=    40.00 Ry     beta=0.30
     Davidson diagonalization with overlap
     ethr =  7.18E-10,  avg # of iterations =  1.0

     negative rho (up, down):  0.138E+01 0.000E+00

     total cpu time spent up to now is    17681.2 secs

     total energy              =   -3823.50567060 Ry
     Harris-Foulkes estimate   =   -3823.50567082 Ry
     estimated scf accuracy    <       0.00000294 Ry

     iteration # 47     ecut=    40.00 Ry     beta=0.30
     Davidson diagonalization with overlap
     ethr =  6.61E-10,  avg # of iterations =  1.0

     negative rho (up, down):  0.138E+01 0.000E+00

     total cpu time spent up to now is    17982.8 secs

     total energy              =   -3823.50567059 Ry
     Harris-Foulkes estimate   =   -3823.50567090 Ry
     estimated scf accuracy    <       0.00001308 Ry

     iteration # 48     ecut=    40.00 Ry     beta=0.30
     Davidson diagonalization with overlap
     ethr =  6.61E-10,  avg # of iterations =  1.0

     negative rho (up, down):  0.138E+01 0.000E+00

     total cpu time spent up to now is    18285.8 secs

     total energy              =   -3823.50567069 Ry
     Harris-Foulkes estimate   =   -3823.50567084 Ry
     estimated scf accuracy    <       0.00000397 Ry

     iteration # 49     ecut=    40.00 Ry     beta=0.30
     Davidson diagonalization with overlap
     ethr =  6.61E-10,  avg # of iterations =  1.0

     negative rho (up, down):  0.138E+01 0.000E+00

     total cpu time spent up to now is    18588.9 secs

     total energy              =   -3823.50567067 Ry
     Harris-Foulkes estimate   =   -3823.50567086 Ry
     estimated scf accuracy    <       0.00000240 Ry

     iteration # 50     ecut=    40.00 Ry     beta=0.30
     Davidson diagonalization with overlap
     ethr =  5.39E-10,  avg # of iterations =  1.0

     negative rho (up, down):  0.138E+01 0.000E+00

     total cpu time spent up to now is    18895.5 secs

     total energy              =   -3823.50567066 Ry
     Harris-Foulkes estimate   =   -3823.50567091 Ry
     estimated scf accuracy    <       0.00000966 Ry

     iteration # 51     ecut=    40.00 Ry     beta=0.30
     Davidson diagonalization with overlap
     ethr =  5.39E-10,  avg # of iterations =  1.0

     negative rho (up, down):  0.138E+01 0.000E+00

     total cpu time spent up to now is    19205.2 secs

     total energy              =   -3823.50567076 Ry
     Harris-Foulkes estimate   =   -3823.50567085 Ry
     estimated scf accuracy    <       0.00000128 Ry

     iteration # 52     ecut=    40.00 Ry     beta=0.30
     Davidson diagonalization with overlap
     ethr =  2.87E-10,  avg # of iterations =  1.0

     negative rho (up, down):  0.138E+01 0.000E+00

     total cpu time spent up to now is    19515.0 secs

     End of self-consistent calculation

          k = 0.0000 0.0000 0.0000 ( 41643 PWs)   bands (ev):

   -47.3110 -47.2999 -47.2959 -47.2876 -47.2719 -47.2620 -47.2614 -47.2489
   -47.2475 -47.2382 -47.2333 -47.2333 -47.2319 -47.2249 -47.2227 -47.2211
   -47.1953 -47.1927 -47.1839 -47.1837 -47.1418 -47.1286 -47.1209 -47.1111
   -47.1069 -47.1065 -47.0996 -47.0891 -47.0843 -47.0761 -47.0632 -47.0530
   -47.0464 -46.9965 -46.9939 -46.9646 -46.9375 -46.9357 -46.9347 -46.8965
   -46.8885 -46.8334 -46.8160 -46.8015 -46.7841 -46.7354 -46.7174 -46.7123
   -23.1099 -19.3073 -19.0616 -18.8314 -18.7179 -18.6883 -18.4525 -18.3250
   -18.2299 -18.1545 -18.1018 -18.0652 -18.0617 -18.0223 -18.0189 -17.9889
   -17.9832 -17.9600 -17.9511 -17.9141 -17.8220 -17.8017 -17.7395 -17.6804
   -17.6660 -17.5471 -17.5090 -17.4510 -17.3889 -16.7136 -16.5945 -16.5723
   -16.4869 -15.5105  -7.8394  -7.7271  -7.7043  -7.6657  -7.5660  -7.4458
    -7.4211  -6.7208  -6.6366  -6.5199  -6.4883  -6.4600  -6.4335  -6.4238
    -6.3550  -6.3430  -6.3284  -6.3045  -6.2304  -6.2294  -6.2074  -6.1712
    -6.1692  -6.1581  -6.1043  -6.1008  -5.9434  -5.9156  -5.8816  -5.8678
    -5.7949  -5.7892  -5.6882  -5.6355  -5.6076  -5.5996  -5.5587  -5.4205
    -5.2740  -5.0722  -4.9941  -4.8892  -4.8309  -4.5341  -4.4412  -4.3768
    -4.3665  -4.3198  -4.3109  -4.2753  -4.1870  -4.1673  -4.1581  -3.9706
    -3.8919  -3.8672  -3.7593  -3.7476  -3.7175  -3.6693  -3.5483  -3.5294
    -3.5085  -3.3164  -3.2113  -3.2027  -3.1466  -3.1291  -3.0788  -3.0709
    -3.0503  -3.0459  -2.9614  -2.9415  -2.8918  -2.8737  -2.7687  -2.7336
    -2.7093  -2.7019  -2.6129  -2.5488  -2.3735  -2.3620  -2.3575  -2.2777
    -2.2774  -2.1564  -2.1349  -2.1274  -2.0221  -2.0053  -1.9309  -1.8738
    -1.8274  -1.8161  -1.7847  -1.7718  -1.7639  -1.6552  -1.6215  -1.5999
    -1.5367  -1.5118  -1.4660  -1.4113  -1.4045  -1.3218  -1.3065  -1.2787
    -1.2457  -1.2194  -1.1796  -1.1307  -1.0996  -1.0872  -1.0679  -1.0079
    -0.9782  -0.9751  -0.9285  -0.8345  -0.7810  -0.7100  -0.6552  -0.6434
    -0.4636  -0.3643  -0.2886  -0.2391  -0.2196  -0.1303  -0.0679   0.0779
     0.1409   0.2692   0.3766   0.4304   0.4948   0.5935   0.6043   0.6106
     0.6876   0.7502   0.7932   0.9103   0.9330   0.9420   1.0674   1.1825
     1.1902   1.3277   1.3855   1.7131   1.8911   2.2300   2.4583   2.5002
     2.5481   2.6229   2.6357   2.6542   2.8320   2.8882   2.8989   2.9857
     3.0198   3.1340   3.3924   3.6998   3.7954   3.9245   3.9286   4.0143
     4.0416   4.0704   4.1184   4.2035   4.3502   4.4185   4.7671   4.8775
     5.4806   5.6990   6.1008   6.2579   6.5356   6.9404   7.0471   7.4944
     7.8580   8.0779   8.3150   8.5909   8.8494   8.9055   8.9391   9.0939
     9.1510   9.3076   9.3191   9.3872   9.4693   9.6024   9.6072   9.7024
     9.7838   9.8552  10.0143  10.0310  10.0997  10.1777  10.3188  10.3580
    10.3720  10.4114  10.4423  10.4705  10.4876  10.5654  10.7221  10.7826
    10.8524  10.8711  10.9732  10.9797  11.0481  11.1411  11.1675  11.1874
    11.1889  11.2193  11.3707  11.4908  11.5279  11.5463  11.7317  11.7716
    11.7947  11.9299  12.0408  12.1039  12.2714  12.3340  12.3652  12.4824
    12.4920  12.5272  12.5770  12.8026  12.8238  12.8615  12.8840  12.9574
    13.0619  13.1443  13.1638  13.1982  13.2532  13.2863  13.3363  13.4145
    13.4612  13.4678  13.5227  13.5546  13.5679  13.5869  13.6031  13.6165
    13.7029  13.7601  13.7615  13.8486  13.9029  13.9378  13.9475  14.0270
    14.0322  14.0632  14.0704  14.0850  14.1426  14.1589  14.2271  14.2371
    14.3110  14.3215  14.3636  14.4827  14.5209  14.5453  14.6000  14.6179
    14.6953  14.7175  14.7696  14.7788  14.8649  14.8753  14.9679  15.0525
    15.1247  15.2130  15.2241  15.3172  15.3827  15.3923  15.4347  15.6333
    15.6568  15.7145  15.7405  15.8829  15.9536  15.9661  16.0158  16.0350
    16.0863  16.1753  16.2635  16.2855  16.3929  16.4921  16.5670  16.6192
    16.6327  16.7111  16.8395  16.9620  17.0138  17.0906  17.1330  17.2036
    17.2346  17.2646  17.3200  17.4089  17.5213  17.6067  17.6851  17.7100
    17.7274  17.8220  17.8387  17.8743  17.9228  17.9646  18.0795  18.1553
    18.2564  18.3062  18.3226  18.3782  18.4449  18.4819  18.5103  18.6177
    18.6532  18.7470  18.7847  18.8294  18.8690  19.0494  19.0859  19.1534
    19.3228  19.3684  19.4171  19.4792  19.5274  19.5603  19.6592  19.7371
    19.7486  19.8751  19.9015  19.9177  19.9496  19.9725  20.0791  20.0862
    20.1533  20.1841  20.1965  20.1981  20.2426  20.2931  20.3395  20.3593
    20.4452  20.5320  20.5402  20.5651  20.6173  20.6370  20.7363  20.7584
    20.7988  20.8236  20.9156  20.9458  20.9968  21.0534  21.0808  21.0849
    21.1353  21.1676  21.2013  21.2551  21.2636  21.3592  21.4437  21.4636
    21.4774  21.5030  21.5885  21.5978  21.6386  21.6762  21.7065  21.7381
    21.7942  21.8022  21.8686  21.9141  21.9179  21.9540  22.0558  22.0838
    22.0936  22.1573  22.2146  22.2288  22.2392  22.3557  22.3842  22.4409
    22.4530  22.4924  22.5522  22.5900  22.6615  22.7387  22.7540  22.7828
    22.9083  22.9962  23.0512  23.1150  23.1374  23.1418  23.1814  23.2248
    23.2569  23.3500  23.3763  23.3978  23.5344  23.5782  23.5991  23.6171
    23.7451  23.7510  23.8055  23.8245  23.8519  23.8757  23.9200  23.9268
    23.9934  24.0202  24.0291  24.0723  24.0835  24.0847  24.1387  24.1444
    24.1926  24.2459  24.2511  24.3059  24.3336  24.3395  24.3577  24.3923
    24.4451  24.4826  24.5086  24.5134  24.5659  24.6384  24.6775  24.7280
    24.7702  24.7785  24.7796  24.8275  24.8419  24.8726  24.8933  24.9054
    24.9414  24.9691  25.0017  25.0935  25.1359  25.1386  25.1664  25.1810
    25.2023  25.2188  25.2640  25.2877  25.2890  25.2931  25.3262  25.3392
    25.3930  25.4128  25.4370  25.4579  25.5002  25.5218  25.5425  25.5667
    25.6605  25.7001  25.7063  25.7810  25.7861  25.8452  25.8819  25.8893
    25.9529  25.9734  26.0015  26.0499  26.0647  26.0864  26.1892  26.1974
    26.3363  26.3888  26.4352  26.4576  26.4843  26.5666  26.5780  26.5978
    26.6699  26.6906  26.7839  26.8371  26.8660  26.8947  26.9368  26.9471
    26.9984  27.0425  27.0915  27.1260  27.1399  27.2392  27.2583  27.2778
    27.2967  27.3318  27.3502  27.4205  27.4500  27.4850  27.5237  27.5453
    27.6102  27.6291  27.6311  27.7242  27.7345  27.7592  27.7989  27.8251
    27.8463  27.8560  27.8745

          k = 0.0000 0.2417 0.0000 ( 41668 PWs)   bands (ev):

   -47.3112 -47.3012 -47.2960 -47.2876 -47.2709 -47.2653 -47.2614 -47.2491
   -47.2475 -47.2381 -47.2329 -47.2304 -47.2302 -47.2257 -47.2243 -47.2200
   -47.1949 -47.1921 -47.1842 -47.1825 -47.1416 -47.1287 -47.1212 -47.1110
   -47.1071 -47.1066 -47.1011 -47.0891 -47.0842 -47.0764 -47.0641 -47.0525
   -47.0463 -46.9965 -46.9939 -46.9646 -46.9375 -46.9358 -46.9350 -46.8966
   -46.8884 -46.8334 -46.8159 -46.8016 -46.7840 -46.7358 -46.7174 -46.7125
   -23.1097 -19.2126 -18.9787 -18.7334 -18.7227 -18.6066 -18.4759 -18.3279
   -18.2274 -18.1758 -18.1637 -18.1503 -18.1413 -18.1172 -18.0399 -18.0392
   -18.0333 -17.8653 -17.8471 -17.8195 -17.8042 -17.7525 -17.7423 -17.6998
   -17.6682 -17.6311 -17.5878 -17.5620 -17.4793 -16.7144 -16.5890 -16.5719
   -16.4834 -15.5076  -7.8315  -7.5001  -7.4399  -7.3126  -7.2782  -7.2593
    -7.1441  -6.7041  -6.6305  -6.6165  -6.6008  -6.4850  -6.4407  -6.4368
    -6.4023  -6.4021  -6.3372  -6.3089  -6.2987  -6.2924  -6.2637  -6.1864
    -6.1731  -6.1530  -6.1193  -6.1028  -6.0710  -5.9856  -5.9091  -5.8874
    -5.8809  -5.7896  -5.7433  -5.6276  -5.5457  -5.3623  -5.1392  -4.9840
    -4.9802  -4.9060  -4.7490  -4.6966  -4.6700  -4.6540  -4.3964  -4.3581
    -4.3457  -4.3149  -4.2704  -4.2617  -4.2612  -4.2295  -4.1964  -4.1713
    -4.1249  -4.0964  -4.0185  -3.9787  -3.8904  -3.8379  -3.7322  -3.7124
    -3.6148  -3.5274  -3.4058  -3.3921  -3.3456  -3.2906  -3.2600  -3.2414
    -3.2065  -3.1950  -3.0807  -3.0485  -3.0204  -2.9750  -2.9750  -2.8795
    -2.7950  -2.7495  -2.6053  -2.5840  -2.4782  -2.4484  -2.3953  -2.3894
    -2.3328  -2.3275  -2.2350  -2.1975  -2.0898  -2.0606  -1.9688  -1.8444
    -1.8360  -1.7419  -1.6951  -1.5588  -1.5486  -1.4116  -1.4085  -1.3819
    -1.3222  -1.2763  -1.2677  -1.2477  -1.2338  -1.2327  -1.1755  -1.1740
    -1.1315  -1.1278  -1.0938  -1.0812  -1.0723  -1.0638  -1.0240  -0.9808
    -0.9541  -0.9419  -0.9294  -0.8753  -0.8528  -0.8225  -0.7932  -0.7558
    -0.6795  -0.6342  -0.6052  -0.5879  -0.3086  -0.1148  -0.0514   0.0622
     0.3881   0.4642   0.5160   0.5356   0.6443   0.6884   0.6920   0.7059
     0.7474   0.8312   0.8626   0.8802   0.9718   0.9871   1.0242   1.0614
     1.1417   1.2152   1.4885   1.5652   1.6455   1.7150   1.7500   1.8169
     2.0915   2.5360   2.7562   2.8415   3.0417   3.1456   3.3899   3.6946
     3.7284   3.7316   3.7951   3.8489   3.8747   3.8894   3.9540   3.9559
     3.9830   4.0104   4.0278   4.1052   4.3520   4.4194   4.6127   5.0327
     5.6372   5.9123   6.2656   6.3219   6.7292   7.0810   7.2522   7.3832
     7.6766   7.7648   7.9770   8.1210   8.2316   8.4312   8.5465   8.6959
     9.0754   9.1017   9.2337   9.2737   9.3834   9.3999   9.6874   9.7187
     9.8145   9.8238  10.0265  10.1571  10.2044  10.2111  10.2972  10.3523
    10.4710  10.6165  10.6708  10.7825  10.8357  10.8779  10.9961  11.0062
    11.0536  11.0938  11.1217  11.1805  11.1915  11.2216  11.2761  11.2854
    11.3623  11.3835  11.5114  11.5538  11.5880  11.6331  11.6342  11.6736
    11.7135  11.8323  11.8881  11.9402  12.0336  12.0745  12.1226  12.1948
    12.3170  12.3296  12.3572  12.4874  12.5417  12.6051  12.6219  12.6910
    12.6979  12.7460  12.9283  13.0209  13.0969  13.1395  13.1433  13.2486
    13.3124  13.4452  13.5018  13.5336  13.6376  13.7030  13.7995  13.8114
    13.8634  13.9186  13.9978  14.1158  14.1592  14.2527  14.2541  14.3224
    14.3326  14.3418  14.4117  14.4532  14.4567  14.4671  14.5410  14.5929
    14.7009  14.7672  14.8360  14.8802  14.8829  14.9010  14.9870  14.9962
    15.0525  15.0617  15.1589  15.1725  15.2088  15.2095  15.2706  15.2956
    15.3714  15.4207  15.5033  15.5204  15.5349  15.6267  15.7658  15.8860
    15.9253  16.0024  16.0326  16.0375  16.0906  16.1300  16.1941  16.2383
    16.2484  16.3142  16.3802  16.4297  16.4634  16.5178  16.5582  16.5758
    16.5863  16.7204  16.7204  16.7771  16.8138  16.8874  17.0259  17.1539
    17.1730  17.2135  17.2803  17.3260  17.4492  17.4547  17.5466  17.6029
    17.6189  17.6469  17.7259  17.7671  17.8089  17.9255  18.0064  18.0307
    18.0683  18.0798  18.1390  18.2059  18.2721  18.3566  18.3846  18.4496
    18.4684  18.4807  18.5728  18.6734  18.7379  18.7906  18.8479  18.8792
    18.9195  18.9362  18.9761  19.0573  19.0621  19.1387  19.1894  19.2504
    19.3100  19.3977  19.5103  19.6119  19.7188  19.7212  19.7749  19.8105
    19.8226  19.8960  19.9971  20.0249  20.0582  20.1156  20.1806  20.2168
    20.2613  20.2741  20.4325  20.4627  20.5010  20.5221  20.6165  20.6198
    20.6570  20.7008  20.7449  20.7459  20.8298  20.8657  20.9238  20.9314
    20.9921  21.0245  21.0840  21.1104  21.1727  21.2009  21.2516  21.2696
    21.3015  21.3827  21.4178  21.4485  21.4878  21.5141  21.5715  21.6266
    21.6581  21.6821  21.7186  21.7298  21.7591  21.7697  21.8387  21.8632
    21.9321  21.9486  22.0466  22.0797  22.0804  22.1186  22.1927  22.2128
    22.2685  22.2955  22.3065  22.3881  22.4279  22.4460  22.5150  22.5698
    22.6211  22.6493  22.6798  22.7469  22.7855  22.8195  22.9064  22.9496
    23.0527  23.0658  23.1075  23.1136  23.1547  23.1908  23.2925  23.3279
    23.3758  23.3774  23.4262  23.5167  23.5743  23.5922  23.5952  23.6303
    23.6347  23.6761  23.7135  23.7668  23.8692  23.8771  23.9430  23.9659
    24.0209  24.0435  24.0636  24.1060  24.1684  24.2035  24.2238  24.2451
    24.3233  24.3481  24.4048  24.4271  24.4627  24.5113  24.5274  24.6180
    24.6478  24.6685  24.7317  24.7703  24.8612  24.8704  24.9131  24.9807
    25.0259  25.0456  25.1083  25.1127  25.1987  25.2432  25.3277  25.3465
    25.4123  25.4273  25.4828  25.4871  25.5270  25.5576  25.5970  25.6441
    25.6618  25.6742  25.7020  25.7610  25.8259  25.8814  25.9417  26.0083
    26.0147  26.0710  26.1272  26.1511  26.1776  26.1979  26.2603  26.2804
    26.3455  26.4019  26.4147  26.4598  26.5355  26.5583  26.6458  26.7017
    26.7578  26.8065  26.8508  26.8857  26.8947  27.0056  27.0083  27.0356
    27.0810  27.1070  27.1145  27.1308  27.1663  27.1854  27.3176  27.3388
    27.3764  27.4066  27.4357  27.4506  27.4881  27.5225  27.5703  27.6021
    27.6072  27.6945  27.7024  27.7814  27.8276  27.8301  27.8567  27.8627
    27.8999  27.9754  27.9876  28.0065  28.0257  28.0553  28.0931  28.1059
    28.1284  28.1362  28.2013

          k = 0.0000-0.4833 0.0000 ( 41652 PWs)   bands (ev):

   -47.3113 -47.3024 -47.2960 -47.2875 -47.2699 -47.2680 -47.2614 -47.2492
   -47.2476 -47.2381 -47.2324 -47.2287 -47.2276 -47.2264 -47.2258 -47.2190
   -47.1943 -47.1914 -47.1846 -47.1812 -47.1413 -47.1287 -47.1214 -47.1109
   -47.1071 -47.1067 -47.1026 -47.0890 -47.0843 -47.0765 -47.0651 -47.0519
   -47.0464 -46.9965 -46.9937 -46.9644 -46.9375 -46.9358 -46.9354 -46.8966
   -46.8884 -46.8335 -46.8158 -46.8016 -46.7839 -46.7362 -46.7175 -46.7127
   -23.1096 -19.0249 -18.9879 -18.6788 -18.6532 -18.4850 -18.4323 -18.3312
   -18.2419 -18.2249 -18.2236 -18.2205 -18.2127 -18.1614 -18.1230 -18.0856
   -18.0539 -17.8100 -17.8082 -17.7907 -17.7580 -17.7464 -17.7450 -17.7139
   -17.7068 -17.6811 -17.6704 -17.6402 -17.5516 -16.7155 -16.5847 -16.5715
   -16.4804 -15.5047  -7.8232  -7.4797  -7.4355  -6.7836  -6.7674  -6.7388
    -6.6932  -6.6662  -6.6362  -6.6024  -6.5941  -6.5898  -6.5156  -6.4808
    -6.4401  -6.3843  -6.3385  -6.3159  -6.2377  -6.2319  -6.1960  -6.1917
    -6.1344  -6.1334  -6.1111  -6.0876  -6.0700  -5.9902  -5.9728  -5.8794
    -5.8272  -5.7897  -5.6219  -5.5423  -5.3969  -5.3142  -5.2516  -5.1123
    -5.0754  -4.9665  -4.9142  -4.8963  -4.8092  -4.7685  -4.7581  -4.4020
    -4.3990  -4.3895  -4.3552  -4.3359  -4.2060  -4.1867  -4.1619  -4.1367
    -4.1198  -4.0981  -3.9744  -3.9267  -3.8935  -3.7984  -3.7342  -3.7201
    -3.7026  -3.6844  -3.6533  -3.6022  -3.5616  -3.5509  -3.5298  -3.5089
    -3.4410  -3.3081  -3.2938  -3.2868  -3.2541  -2.9735  -2.9185  -2.8709
    -2.8500  -2.4817  -2.4275  -2.4231  -2.3667  -2.3250  -2.3127  -2.3005
    -2.2906  -2.2818  -2.2598  -2.1769  -2.1571  -2.0505  -2.0398  -1.9878
    -1.8052  -1.7506  -1.6970  -1.6645  -1.6187  -1.5607  -1.5123  -1.5085
    -1.4025  -1.3692  -1.3232  -1.3159  -1.2983  -1.2632  -1.2525  -1.2475
    -1.1753  -1.1469  -1.1243  -1.1085  -1.0682  -1.0194  -0.9792  -0.9393
    -0.9306  -0.8539  -0.8067  -0.7444  -0.7140  -0.6448  -0.6233  -0.6188
    -0.5862  -0.5411  -0.4256  -0.3581  -0.1718  -0.1092  -0.0001   0.0727
     0.1906   0.2111   0.4859   0.5671   0.5895   0.6417   0.6526   0.6875
     0.8533   0.8687   0.8938   0.9457   1.0200   1.0407   1.0492   1.0782
     1.1442   1.1616   1.1722   1.2698   1.2766   1.3087   1.8387   1.8732
     2.4128   2.6348   2.7960   2.8496   3.2157   3.4867   3.5105   3.6468
     3.6712   3.6923   3.7001   3.7991   3.8391   4.0017   4.0496   4.0854
     4.1420   4.2613   4.3255   4.3529   4.4150   4.4199   4.4420   5.2747
     5.9584   6.0614   6.5182   6.5805   6.8526   6.8763   7.1204   7.1966
     7.4201   7.6215   7.7534   8.0997   8.1913   8.2124   8.4034   8.5592
     8.7505   8.8172   8.8321   9.0587   9.4427   9.4888   9.5635   9.6736
     9.7007   9.7343  10.0576  10.1858  10.3611  10.4458  10.4577  10.5098
    10.5379  10.6196  10.6452  10.6792  10.6972  10.7224  10.8588  10.9020
    10.9166  10.9839  11.0451  11.0939  11.1846  11.2397  11.2645  11.3180
    11.3234  11.3481  11.3979  11.4708  11.5349  11.5684  11.6258  11.6522
    11.8176  11.8381  11.9655  12.1839  12.2622  12.2700  12.3014  12.3078
    12.4672  12.5392  12.5834  12.6239  12.7172  12.7184  12.7313  12.7996
    12.8071  12.9296  13.0334  13.0814  13.1503  13.1613  13.2671  13.3203
    13.3680  13.4547  13.5414  13.6449  13.6898  13.7354  13.8219  13.8797
    13.9731  14.1148  14.1304  14.2037  14.2285  14.2563  14.2807  14.2934
    14.3180  14.3313  14.4349  14.4827  14.5766  14.6262  14.7265  14.7623
    14.8261  14.8580  14.9012  14.9838  14.9902  14.9929  15.0284  15.0614
    15.0806  15.1850  15.2625  15.3153  15.3508  15.3849  15.4278  15.4926
    15.5059  15.5876  15.6526  15.8990  15.9397  15.9784  16.0339  16.0723
    16.0798  16.0900  16.2036  16.2311  16.2773  16.3777  16.3850  16.4703
    16.4893  16.5588  16.5741  16.6616  16.7373  16.7836  16.8718  16.8765
    16.9295  16.9340  17.0277  17.0493  17.0652  17.1248  17.1517  17.1672
    17.2698  17.2899  17.3447  17.3530  17.3686  17.3767  17.3956  17.4783
    17.4883  17.5082  17.5363  17.6782  17.6907  17.7748  17.8374  17.8892
    17.9525  18.0234  18.0959  18.1116  18.1811  18.1855  18.2461  18.2513
    18.2864  18.3361  18.4361  18.4656  18.5130  18.5753  18.6213  18.6578
    18.6961  18.7772  18.7902  18.8180  18.9308  18.9784  18.9919  19.0300
    19.0407  19.1780  19.1970  19.2872  19.4458  19.4586  19.4941  19.5061
    19.5177  19.5543  19.6418  19.6603  19.6669  19.6828  19.6837  19.7419
    19.7586  19.7761  19.8929  20.0368  20.0709  20.1026  20.1511  20.1772
    20.2229  20.2415  20.3873  20.4032  20.4033  20.4612  20.4824  20.6177
    20.7174  20.7481  20.8189  20.8650  20.9126  20.9513  21.0144  21.0675
    21.0846  21.1260  21.1776  21.1908  21.2542  21.2667  21.4012  21.4679
    21.5518  21.5865  21.6148  21.6323  21.7532  21.7635  21.8184  21.8775
    21.9078  21.9421  21.9814  22.0054  22.0572  22.0636  22.0760  22.1427
    22.1985  22.2016  22.2792  22.3442  22.3570  22.3684  22.4151  22.4315
    22.4428  22.4576  22.4883  22.5017  22.5747  22.6528  22.6701  22.6956
    22.7079  22.7750  22.8538  22.8955  22.9539  22.9764  23.0205  23.0486
    23.1271  23.1317  23.2345  23.2452  23.2594  23.3287  23.3377  23.3830
    23.3922  23.5625  23.6880  23.6893  23.7298  23.7416  23.8585  23.8598
    23.9133  23.9360  23.9457  24.0392  24.0746  24.1505  24.2003  24.2105
    24.2461  24.2661  24.3117  24.3240  24.3638  24.3716  24.3802  24.5378
    24.6311  24.6697  24.7444  24.7628  24.8371  24.8788  24.8885  24.9227
    24.9961  25.0352  25.0402  25.1155  25.1314  25.1666  25.2520  25.3429
    25.3991  25.5386  25.5958  25.6063  25.6961  25.7525  25.7680  25.8516
    25.8608  25.9316  26.0267  26.0349  26.1127  26.1662  26.1874  26.2442
    26.2474  26.2784  26.3493  26.3869  26.4491  26.4911  26.5221  26.5759
    26.6019  26.6768  26.7113  26.7911  26.8091  26.8208  26.8363  26.9145
    26.9624  27.0186  27.0571  27.1323  27.1565  27.1845  27.2740  27.2956
    27.3623  27.3834  27.4269  27.4424  27.4563  27.5542  27.6270  27.6866
    27.6991  27.7408  27.7606  27.7703  27.8216  27.8579  27.9124  27.9253
    27.9448  27.9805  28.0355  28.0474  28.0770  28.1256  28.1692  28.2199
    28.3001  28.3374  28.3548  28.3692  28.3966  28.4430  28.5359  28.5977
    28.6117  28.6527  28.6774

          k = 0.2500 0.0000 0.0000 ( 41648 PWs)   bands (ev):

   -47.2950 -47.2945 -47.2876 -47.2832 -47.2704 -47.2635 -47.2588 -47.2465
   -47.2391 -47.2362 -47.2321 -47.2303 -47.2262 -47.2227 -47.2171 -47.2169
   -47.2120 -47.2008 -47.1914 -47.1852 -47.1584 -47.1375 -47.1258 -47.1136
   -47.1040 -47.0975 -47.0917 -47.0906 -47.0864 -47.0611 -47.0601 -47.0484
   -47.0361 -47.0105 -46.9965 -46.9810 -46.9530 -46.9435 -46.9345 -46.8956
   -46.8893 -46.8308 -46.8185 -46.7989 -46.7866 -46.7328 -46.7200 -46.7125
   -23.1098 -19.1804 -18.9477 -18.7250 -18.6149 -18.5936 -18.4494 -18.3935
   -18.3367 -18.2540 -18.1345 -18.1219 -18.0776 -18.0669 -18.0094 -18.0009
   -17.9260 -17.9258 -17.8885 -17.8503 -17.8432 -17.7614 -17.7495 -17.7345
   -17.6704 -17.6133 -17.5764 -17.5227 -17.4549 -16.7450 -16.6382 -16.6005
   -16.5331 -15.5100  -7.8248  -7.5623  -7.5330  -7.4905  -7.3999  -7.2834
    -7.2382  -6.7664  -6.5876  -6.5431  -6.5067  -6.4941  -6.4859  -6.4522
    -6.4465  -6.4092  -6.3501  -6.3485  -6.2945  -6.2657  -6.2543  -6.2313
    -6.1862  -6.1586  -6.1339  -6.0545  -6.0461  -5.9355  -5.9120  -5.7733
    -5.7195  -5.6437  -5.5835  -5.5515  -5.4275  -5.3874  -5.3825  -5.3032
    -5.1700  -5.1084  -4.8132  -4.7471  -4.7322  -4.7143  -4.7099  -4.4151
    -4.3667  -4.3214  -4.3185  -4.2239  -4.1586  -4.0793  -4.0621  -4.0554
    -4.0347  -4.0005  -3.8653  -3.7936  -3.6683  -3.6427  -3.6059  -3.5909
    -3.5789  -3.5350  -3.5058  -3.4312  -3.4256  -3.4149  -3.2959  -3.2748
    -3.2295  -3.1580  -3.1159  -3.0691  -3.0559  -2.9777  -2.9289  -2.9001
    -2.8461  -2.7496  -2.7432  -2.7132  -2.6469  -2.6255  -2.5827  -2.5495
    -2.5360  -2.4208  -2.3888  -2.2676  -2.1263  -2.0490  -1.9917  -1.9735
    -1.9292  -1.8785  -1.8459  -1.7452  -1.6516  -1.6036  -1.4847  -1.4271
    -1.3721  -1.2969  -1.2428  -1.2067  -1.1909  -1.1574  -1.1222  -1.1075
    -1.0705  -1.0501  -1.0329  -1.0014  -0.9957  -0.9543  -0.8921  -0.8721
    -0.7666  -0.7398  -0.6853  -0.5767  -0.5109  -0.4513  -0.4378  -0.3663
    -0.3263  -0.2221  -0.1375  -0.1090  -0.0359   0.0713   0.0869   0.2221
     0.2409   0.2478   0.2935   0.3403   0.3625   0.3949   0.5097   0.5439
     0.6489   0.7700   0.8098   0.8239   0.8492   0.8892   1.0094   1.0594
     1.1443   1.2001   1.6180   1.8535   2.0247   2.3525   2.5911   2.6346
     2.6442   2.7247   2.7575   2.7954   2.8101   2.9111   2.9761   3.0423
     3.0679   3.1449   3.2274   3.2842   3.5884   3.6191   3.7413   3.7515
     3.8767   3.9005   3.9312   3.9625   4.0031   4.1639   4.6116   5.0687
     5.7331   5.9348   6.3284   6.4013   6.7736   7.0285   7.3028   7.3749
     7.4374   7.8170   8.0077   8.1596   8.2998   8.6195   8.7297   8.9034
     9.0940   9.1615   9.3472   9.3881   9.5309   9.6192   9.6976   9.7223
     9.8517   9.9589  10.0110  10.0403  10.1418  10.2159  10.3370  10.4360
    10.5672  10.6272  10.6759  10.7323  10.7835  10.8209  10.8810  10.9252
    10.9417  10.9521  11.0362  11.0930  11.1100  11.1797  11.2704  11.2874
    11.4113  11.4843  11.5053  11.5608  11.6102  11.6721  11.7364  11.8354
    11.8829  11.9496  12.0123  12.1014  12.1234  12.1794  12.2256  12.2969
    12.3524  12.3792  12.4319  12.5291  12.5604  12.6996  12.7424  12.7894
    12.8638  12.9030  12.9778  13.0048  13.0559  13.0795  13.2015  13.2619
    13.3074  13.4115  13.4414  13.5053  13.5395  13.5805  13.6190  13.7402
    13.7640  13.7762  13.8570  13.9172  14.0176  14.0544  14.1099  14.1875
    14.2066  14.2706  14.2724  14.3297  14.3789  14.3986  14.5063  14.5733
    14.6272  14.6562  14.7479  14.7795  14.8286  14.9311  14.9790  14.9977
    15.0306  15.0935  15.2007  15.2077  15.2833  15.3396  15.3826  15.3949
    15.4589  15.5129  15.6135  15.6837  15.7481  15.8069  15.8463  15.8794
    15.9929  16.0372  16.0802  16.1200  16.1341  16.1487  16.1765  16.2305
    16.2428  16.3127  16.3137  16.4070  16.4972  16.5459  16.5690  16.6341
    16.6886  16.8082  16.9188  16.9840  17.0241  17.0465  17.0883  17.1275
    17.1332  17.1956  17.2285  17.3213  17.3781  17.4302  17.4808  17.5531
    17.5681  17.5930  17.6944  17.7098  17.7567  17.8607  17.8824  17.9224
    17.9315  17.9619  17.9838  18.0335  18.0548  18.0965  18.2001  18.2384
    18.3316  18.3669  18.4247  18.5646  18.6130  18.7239  18.7303  18.7848
    18.7989  18.9353  18.9696  19.0646  19.1361  19.1574  19.2332  19.3132
    19.3625  19.4269  19.5067  19.6103  19.7157  19.7324  19.7587  19.8269
    19.8608  19.9081  19.9441  20.0750  20.1460  20.1950  20.3050  20.3201
    20.3988  20.4189  20.4328  20.4883  20.5120  20.5549  20.5898  20.6908
    20.7337  20.7559  20.7852  20.8585  20.8661  20.8769  20.9757  21.0055
    21.0903  21.1125  21.1283  21.2110  21.2652  21.3152  21.3349  21.3414
    21.4084  21.4769  21.4938  21.5204  21.5695  21.5817  21.5978  21.6713
    21.7140  21.7573  21.8449  21.8501  21.8907  21.9091  21.9766  22.0284
    22.0533  22.0819  22.1411  22.1478  22.2041  22.2680  22.2818  22.3058
    22.3357  22.3639  22.4238  22.4441  22.4796  22.5086  22.5102  22.5650
    22.5973  22.6370  22.6657  22.6804  22.7063  22.7708  22.8167  22.8384
    22.8910  22.9653  23.0059  23.0271  23.0522  23.0743  23.1299  23.1553
    23.1815  23.2130  23.2548  23.3831  23.4375  23.4698  23.4920  23.5466
    23.5722  23.6316  23.6650  23.6734  23.7100  23.7441  23.8115  23.8198
    23.8680  23.9223  23.9426  23.9595  24.0206  24.0519  24.1015  24.1479
    24.2288  24.2417  24.2736  24.3267  24.3412  24.4117  24.4389  24.4642
    24.5131  24.6349  24.6408  24.6838  24.7480  24.7689  24.8472  24.9713
    25.0390  25.0827  25.1321  25.2018  25.2274  25.2786  25.3252  25.4350
    25.4514  25.5040  25.5263  25.5412  25.5698  25.5963  25.6062  25.6361
    25.6708  25.7087  25.7188  25.7832  25.8242  25.8682  25.9309  25.9628
    25.9968  26.0340  26.0774  26.1108  26.1361  26.1418  26.1882  26.2518
    26.2723  26.3165  26.3416  26.4070  26.4881  26.5417  26.5744  26.5817
    26.6172  26.6324  26.6665  26.7036  26.8203  26.8947  26.9813  27.0168
    27.0389  27.1029  27.1165  27.1490  27.1678  27.2159  27.2596  27.2948
    27.3068  27.3266  27.3655  27.4350  27.4885  27.5061  27.5274  27.5676
    27.5991  27.6312  27.6516  27.6852  27.7495  27.7904  27.8169  27.8411
    27.8635  27.8994  27.9234  27.9432  27.9895  27.9949  28.0260  28.0555
    28.0975  28.1165  28.2266

          k = 0.2500 0.2417 0.0000 ( 41623 PWs)   bands (ev):

   -47.2951 -47.2945 -47.2876 -47.2845 -47.2696 -47.2651 -47.2588 -47.2466
   -47.2391 -47.2362 -47.2318 -47.2295 -47.2266 -47.2212 -47.2187 -47.2153
   -47.2116 -47.2007 -47.1908 -47.1836 -47.1582 -47.1377 -47.1259 -47.1136
   -47.1041 -47.0987 -47.0917 -47.0906 -47.0866 -47.0618 -47.0601 -47.0485
   -47.0356 -47.0105 -46.9965 -46.9810 -46.9530 -46.9434 -46.9348 -46.8956
   -46.8893 -46.8309 -46.8185 -46.7990 -46.7866 -46.7331 -46.7200 -46.7126
   -23.1096 -19.0908 -18.8706 -18.6341 -18.6188 -18.5072 -18.4311 -18.3833
   -18.3360 -18.2398 -18.1708 -18.1244 -18.1039 -18.0612 -18.0541 -18.0229
   -17.9699 -17.9160 -17.8819 -17.8554 -17.8534 -17.7850 -17.7609 -17.7466
   -17.6906 -17.6688 -17.6476 -17.6275 -17.5373 -16.7460 -16.6339 -16.6006
   -16.5301 -15.5071  -7.8157  -7.3587  -7.2698  -7.1497  -7.1179  -7.0974
    -6.9833  -6.6880  -6.5659  -6.5386  -6.5047  -6.4907  -6.4610  -6.4339
    -6.4093  -6.3784  -6.3161  -6.2716  -6.2712  -6.2525  -6.2205  -6.2040
    -6.1794  -6.1664  -6.1374  -6.0923  -6.0283  -5.9834  -5.9159  -5.8244
    -5.6935  -5.6249  -5.5853  -5.5573  -5.4349  -5.2987  -5.2428  -5.2146
    -5.0681  -4.9915  -4.9180  -4.8462  -4.7478  -4.6414  -4.5683  -4.5114
    -4.4656  -4.4249  -4.3193  -4.2466  -4.2023  -4.1860  -4.1278  -4.1170
    -4.0467  -4.0263  -3.9447  -3.8550  -3.8499  -3.8401  -3.8191  -3.7815
    -3.7529  -3.7205  -3.6924  -3.6500  -3.6070  -3.5727  -3.5430  -3.5170
    -3.4262  -3.3396  -3.2867  -3.2134  -3.1941  -3.1744  -3.1500  -3.0839
    -3.0032  -2.9336  -2.8605  -2.6310  -2.6186  -2.5757  -2.5538  -2.4769
    -2.4478  -2.3860  -2.3574  -2.1022  -2.0496  -2.0035  -1.9743  -1.9468
    -1.9041  -1.8466  -1.8269  -1.7963  -1.7001  -1.5520  -1.3810  -1.2708
    -1.2147  -1.2064  -1.1367  -1.0627  -1.0500  -1.0331  -1.0121  -1.0080
    -0.9964  -0.9830  -0.9600  -0.9189  -0.8669  -0.8480  -0.8182  -0.7891
    -0.7329  -0.7115  -0.6401  -0.6028  -0.5520  -0.5062  -0.5004  -0.4295
    -0.4040  -0.3458  -0.3244  -0.2988  -0.1383   0.0255   0.2356   0.2480
     0.3251   0.3579   0.4226   0.4523   0.5276   0.5417   0.5693   0.5948
     0.6197   0.6588   0.6909   0.8328   0.8585   0.9195   0.9890   0.9947
     1.1110   1.3082   1.7141   1.7823   1.8191   1.9294   1.9641   1.9929
     2.1813   2.5870   2.8142   2.8993   2.9790   3.0668   3.1766   3.2409
     3.3729   3.5111   3.5684   3.5847   3.6533   3.7370   3.7919   3.8489
     3.9028   3.9288   3.9894   4.0516   4.0755   4.1591   4.5403   5.2133
     5.8888   6.1394   6.3778   6.5647   6.9791   7.0869   7.4549   7.5416
     7.6430   7.7291   7.9625   8.0286   8.1687   8.2713   8.4003   8.5008
     8.6099   8.8246   8.9415   9.1375   9.3141   9.3941   9.5022   9.5507
     9.6922   9.8327   9.8813   9.9754  10.0596  10.0763  10.1582  10.2267
    10.3247  10.3814  10.4602  10.5287  10.6818  10.7129  10.7168  10.8131
    10.9770  11.0425  11.1048  11.1828  11.2656  11.2951  11.3874  11.4641
    11.5990  11.6393  11.6851  11.8305  11.8388  11.8781  11.9295  11.9525
    12.0359  12.1063  12.2130  12.2974  12.3571  12.4109  12.4603  12.5132
    12.5247  12.6184  12.7284  12.8445  12.8852  12.8965  12.9565  12.9801
    13.0319  13.0769  13.1501  13.2542  13.3440  13.3914  13.4182  13.4778
    13.5378  13.5833  13.6081  13.6465  13.6817  13.6953  13.7505  13.8114
    13.8367  13.9697  14.0194  14.0546  14.0985  14.1496  14.2354  14.2826
    14.3411  14.3787  14.4089  14.4332  14.4981  14.5088  14.5742  14.6127
    14.7194  14.7690  14.7865  14.8546  14.8943  14.9235  14.9714  15.0595
    15.1044  15.1775  15.2162  15.2902  15.3478  15.3895  15.4612  15.4876
    15.5620  15.6043  15.6308  15.6883  15.8055  15.8894  15.9376  15.9441
    16.0038  16.0780  16.1041  16.1552  16.2065  16.2429  16.2588  16.2731
    16.3168  16.3476  16.4342  16.4631  16.4911  16.5388  16.5967  16.6463
    16.6697  16.7025  16.7841  16.9345  17.0263  17.0542  17.0727  17.0804
    17.1848  17.2575  17.3543  17.3732  17.4209  17.4511  17.4956  17.5405
    17.6097  17.6341  17.6736  17.7248  17.7521  17.8145  17.8370  17.8699
    17.9007  17.9584  18.0017  18.0393  18.0619  18.1196  18.1826  18.2387
    18.2908  18.3069  18.3752  18.4340  18.5141  18.5680  18.6078  18.6804
    18.7261  18.8022  18.8326  18.8615  18.8870  18.9399  18.9527  18.9992
    19.0233  19.0641  19.1283  19.1634  19.2037  19.2577  19.2964  19.3315
    19.3706  19.4462  19.4909  19.5271  19.6156  19.6407  19.6934  19.7524
    19.8046  19.8853  19.9069  19.9294  20.0196  20.0443  20.1289  20.1609
    20.2257  20.2515  20.3004  20.3296  20.3911  20.4480  20.5676  20.6075
    20.6835  20.7806  20.7989  20.8148  20.8581  20.9255  20.9733  21.0126
    21.1142  21.1954  21.2211  21.3161  21.3261  21.3672  21.3796  21.4593
    21.4811  21.5380  21.5674  21.6105  21.6526  21.7464  21.7799  21.8294
    21.8682  21.9309  21.9868  22.0253  22.0668  22.0877  22.1633  22.2177
    22.2613  22.3321  22.3957  22.4427  22.5376  22.5661  22.6338  22.6616
    22.7146  22.7712  22.8332  22.8543  22.9017  22.9186  22.9742  23.0355
    23.0525  23.1122  23.1384  23.1776  23.2689  23.3100  23.3394  23.3601
    23.3806  23.4370  23.4775  23.5212  23.5555  23.6007  23.6290  23.6693
    23.7636  23.7967  23.8477  23.9012  23.9519  24.0033  24.0651  24.0911
    24.1397  24.1661  24.2009  24.2334  24.2586  24.2986  24.3246  24.3684
    24.4272  24.4791  24.5302  24.5596  24.6083  24.6666  24.7045  24.7272
    24.7662  24.8060  24.8467  24.8911  24.9210  24.9438  25.0066  25.0892
    25.0981  25.1611  25.2329  25.2549  25.3149  25.3392  25.4028  25.4545
    25.4941  25.5619  25.5883  25.5963  25.6522  25.6850  25.7100  25.7423
    25.7826  25.8153  25.8663  25.8738  25.9083  25.9563  25.9718  26.0247
    26.0739  26.0898  26.1720  26.2033  26.2686  26.2918  26.3069  26.3491
    26.4204  26.4936  26.5311  26.5530  26.6041  26.6319  26.6633  26.7163
    26.7532  26.7858  26.8228  26.8391  26.8924  26.9218  26.9437  26.9984
    27.0492  27.0809  27.0974  27.1541  27.1880  27.2439  27.2804  27.3045
    27.3312  27.3677  27.3949  27.4524  27.5061  27.5418  27.5629  27.6342
    27.6864  27.7004  27.7407  27.7639  27.8055  27.8162  27.8500  27.8625
    27.8912  27.9126  27.9296  27.9815  28.0420  28.0739  28.0986  28.1528
    28.1658  28.2345  28.2856

          k = 0.2500-0.4833 0.0000 ( 41698 PWs)   bands (ev):

   -47.2951 -47.2946 -47.2876 -47.2860 -47.2689 -47.2668 -47.2588 -47.2466
   -47.2391 -47.2364 -47.2314 -47.2287 -47.2272 -47.2203 -47.2199 -47.2138
   -47.2113 -47.2005 -47.1902 -47.1824 -47.1580 -47.1377 -47.1259 -47.1136
   -47.1041 -47.1000 -47.0917 -47.0907 -47.0869 -47.0626 -47.0603 -47.0488
   -47.0353 -47.0105 -46.9965 -46.9810 -46.9530 -46.9433 -46.9352 -46.8956
   -46.8893 -46.8309 -46.8185 -46.7990 -46.7866 -46.7335 -46.7203 -46.7129
   -23.1095 -18.9177 -18.8746 -18.5836 -18.5503 -18.3872 -18.3789 -18.3270
   -18.3035 -18.2611 -18.1847 -18.1773 -18.1736 -18.0931 -18.0889 -18.0747
   -18.0292 -17.9090 -17.8842 -17.8674 -17.8464 -17.8143 -17.8043 -17.7797
   -17.7447 -17.7443 -17.6874 -17.6672 -17.5982 -16.7473 -16.6304 -16.6008
   -16.5275 -15.5042  -7.8063  -7.3343  -7.2608  -6.6040  -6.5631  -6.5294
    -6.5250  -6.5065  -6.4988  -6.4537  -6.4309  -6.4292  -6.4246  -6.3707
    -6.3322  -6.3114  -6.3045  -6.2956  -6.2898  -6.2538  -6.2393  -6.2326
    -6.1989  -6.1781  -6.1594  -6.1350  -6.1156  -6.0200  -5.9781  -5.9685
    -5.6474  -5.6282  -5.5721  -5.4505  -5.2230  -5.2161  -5.1370  -5.1326
    -5.0577  -4.9514  -4.8901  -4.8693  -4.7484  -4.7354  -4.7153  -4.7078
    -4.6545  -4.6049  -4.5834  -4.4951  -4.4890  -4.4456  -4.3477  -4.2935
    -4.2245  -4.1347  -4.0965  -4.0679  -4.0444  -3.9759  -3.9586  -3.8746
    -3.8636  -3.8019  -3.7911  -3.7572  -3.7486  -3.7247  -3.6479  -3.5863
    -3.5295  -3.5115  -3.4902  -3.4579  -3.4396  -3.2313  -3.1647  -3.0332
    -2.9738  -2.9188  -2.8661  -2.5785  -2.5181  -2.4334  -2.4022  -2.3645
    -2.3411  -2.1949  -2.1603  -1.9875  -1.9654  -1.9484  -1.9084  -1.8877
    -1.8619  -1.8310  -1.8097  -1.7199  -1.6832  -1.5535  -1.5320  -1.5222
    -1.4482  -1.4347  -1.1881  -1.1481  -1.1410  -0.9865  -0.9863  -0.9665
    -0.9371  -0.9339  -0.8953  -0.8704  -0.8336  -0.8217  -0.8067  -0.7506
    -0.6925  -0.6712  -0.5318  -0.5056  -0.4199  -0.3610  -0.2931  -0.2906
    -0.2444  -0.1821  -0.1704  -0.1102  -0.0821   0.0129   0.0874   0.1114
     0.2587   0.3714   0.4460   0.4540   0.4591   0.4689   0.5044   0.6638
     0.6777   0.7427   0.7916   0.8361   0.8379   0.8507   0.8646   1.0793
     1.2876   1.2948   1.3083   1.4089   1.4981   1.5337   1.9681   2.0208
     2.4995   2.6070   2.7725   2.9083   2.9389   2.9952   3.1272   3.1509
     3.2024   3.5266   3.5444   3.7757   3.8456   3.8727   3.9127   3.9708
     3.9958   4.1758   4.1801   4.2305   4.2507   4.3267   4.3415   5.4248
     6.1592   6.2342   6.7151   6.8202   7.0605   7.1270   7.3054   7.4114
     7.4346   7.6683   7.8369   7.8715   8.2869   8.3206   8.4806   8.5400
     8.5743   8.7382   8.8855   8.9571   9.0580   9.0944   9.1434   9.1568
     9.2788   9.3584   9.6766   9.6856   9.8919   9.9439  10.0074  10.0331
    10.1261  10.2048  10.3279  10.4127  10.5141  10.5839  10.7304  10.7548
    10.8911  10.9321  11.0181  11.0343  11.0552  11.2065  11.6177  11.6509
    11.6726  11.7059  11.7690  11.8935  11.9680  12.0495  12.2583  12.4373
    12.4682  12.5376  12.5667  12.5971  12.6411  12.6776  12.7504  12.7770
    12.8392  12.8700  12.9509  13.0008  13.0468  13.1716  13.2090  13.2239
    13.2269  13.3014  13.3484  13.3769  13.4213  13.4498  13.6251  13.6526
    13.6937  13.7605  13.8424  13.8819  13.9318  13.9434  14.0205  14.0596
    14.0600  14.1090  14.1976  14.3155  14.3640  14.4030  14.4461  14.4820
    14.4927  14.5233  14.5920  14.5938  14.6894  14.7092  14.7219  14.8562
    14.8827  14.8984  14.9458  15.0132  15.0226  15.0568  15.0902  15.1231
    15.1611  15.2075  15.2893  15.3283  15.3714  15.3881  15.4708  15.4932
    15.5737  15.6308  15.7247  15.8547  15.8991  15.9156  15.9378  15.9598
    15.9883  16.0410  16.0479  16.0889  16.1242  16.1502  16.2020  16.2540
    16.3381  16.3651  16.3892  16.4354  16.4538  16.4755  16.5330  16.5750
    16.6027  16.6767  16.7375  16.7831  16.8890  16.9247  16.9324  16.9762
    17.0032  17.0325  17.0608  17.0973  17.1440  17.1721  17.2004  17.2624
    17.3037  17.3630  17.3914  17.4007  17.5739  17.6532  17.6863  17.7274
    17.7405  17.8988  17.9716  18.0134  18.0614  18.0911  18.1170  18.1647
    18.1926  18.2393  18.2644  18.2842  18.2991  18.3541  18.4118  18.4914
    18.5356  18.5936  18.6027  18.6414  18.6692  18.7308  18.8194  18.8774
    18.8963  18.9469  18.9963  19.0686  19.1409  19.2172  19.2921  19.3133
    19.3856  19.4127  19.4398  19.4874  19.5623  19.5860  19.6605  19.6809
    19.7375  19.7833  19.8789  19.9166  19.9288  19.9418  19.9773  19.9950
    20.0713  20.1426  20.1770  20.2255  20.2401  20.2519  20.3227  20.3392
    20.3733  20.4624  20.4898  20.5215  20.6276  20.6818  20.7303  20.7512
    20.8037  20.8783  20.8896  20.9338  20.9680  21.0230  21.0702  21.2137
    21.2273  21.3189  21.3384  21.4509  21.4636  21.4967  21.5293  21.5452
    21.6016  21.6208  21.6718  21.7313  21.7580  21.8174  21.9266  21.9284
    21.9970  22.0148  22.0744  22.1631  22.2525  22.2708  22.3448  22.4105
    22.4756  22.5470  22.5542  22.6192  22.6332  22.6884  22.7330  22.8127
    22.8840  22.8970  23.0320  23.0897  23.1330  23.1820  23.1908  23.2392
    23.2742  23.2876  23.4497  23.4945  23.5172  23.5739  23.5854  23.6335
    23.6837  23.7213  23.8281  23.9490  23.9672  24.0629  24.1314  24.1443
    24.2014  24.2675  24.3008  24.3937  24.4028  24.4812  24.5358  24.5651
    24.6070  24.6707  24.7469  24.7706  24.8181  24.8412  24.8887  24.9096
    24.9289  24.9478  25.0283  25.0865  25.1455  25.3018  25.3049  25.3583
    25.4385  25.4807  25.5852  25.5877  25.6471  25.6773  25.6851  25.7407
    25.7710  25.7855  25.7923  25.8404  25.8834  25.9093  25.9146  25.9537
    26.0664  26.0982  26.1168  26.1508  26.2138  26.2754  26.3054  26.3197
    26.3637  26.3802  26.3908  26.4329  26.4721  26.5040  26.5084  26.5209
    26.5449  26.5764  26.6040  26.6367  26.6477  26.7211  26.7517  26.7710
    26.8649  26.8758  26.8878  26.9208  26.9503  27.0138  27.0506  27.1045
    27.1485  27.1689  27.2449  27.2574  27.3357  27.3381  27.3928  27.4363
    27.4442  27.4750  27.5109  27.5795  27.5894  27.6590  27.6858  27.7643
    27.7748  27.8061  27.8204  27.8448  27.8884  27.9300  27.9717  28.0086
    28.0566  28.0689  28.1006  28.1223  28.1620  28.2105  28.2488  28.2621
    28.2723  28.2993  28.3839

          k =-0.5000 0.0000 0.0000 ( 41692 PWs)   bands (ev):

   -47.2940 -47.2881 -47.2669 -47.2669 -47.2579 -47.2555 -47.2549 -47.2455
   -47.2421 -47.2402 -47.2388 -47.2292 -47.2292 -47.2265 -47.2265 -47.2113
   -47.1986 -47.1976 -47.1885 -47.1881 -47.1794 -47.1756 -47.1197 -47.1197
   -47.0985 -47.0973 -47.0935 -47.0904 -47.0578 -47.0517 -47.0508 -47.0508
   -47.0209 -47.0205 -46.9964 -46.9955 -46.9941 -46.9499 -46.9344 -46.8942
   -46.8907 -46.8246 -46.8246 -46.7928 -46.7927 -46.7272 -46.7256 -46.7126
   -23.1097 -18.8599 -18.8382 -18.6788 -18.6396 -18.4688 -18.4581 -18.3673
   -18.3595 -18.3559 -18.3460 -18.2323 -18.1772 -18.0224 -18.0029 -17.9428
   -17.9421 -17.8179 -17.8157 -17.7712 -17.7711 -17.7382 -17.7348 -17.7348
   -17.7235 -17.6904 -17.6903 -17.6118 -17.6094 -16.7697 -16.6907 -16.6055
   -16.6043 -15.5095  -7.8171  -7.1565  -7.1533  -7.0759  -7.0758  -7.0280
    -7.0278  -6.9714  -6.9443  -6.8552  -6.8342  -6.7670  -6.7648  -6.5516
    -6.4924  -6.4136  -6.3983  -6.3931  -6.3898  -6.2664  -6.2597  -6.1422
    -6.0979  -6.0840  -6.0173  -6.0068  -5.9474  -5.8616  -5.8610  -5.8318
    -5.6152  -5.4596  -5.4399  -5.3717  -5.3352  -5.3282  -5.0206  -4.9316
    -4.9228  -4.9050  -4.8448  -4.7364  -4.7255  -4.6302  -4.5545  -4.5475
    -4.4846  -4.4845  -4.4065  -4.4035  -4.3323  -4.3094  -4.2704  -4.1451
    -4.1369  -3.9770  -3.9387  -3.8984  -3.8803  -3.7312  -3.7252  -3.6607
    -3.6311  -3.6154  -3.5940  -3.5898  -3.5769  -3.5119  -3.5042  -3.3755
    -3.3730  -3.3729  -3.3612  -3.2232  -3.1605  -3.1483  -3.1333  -2.9577
    -2.9516  -2.9002  -2.8934  -2.8680  -2.8677  -2.8580  -2.8475  -2.7272
    -2.6416  -2.4726  -2.4653  -2.1695  -2.1194  -2.0886  -2.0619  -1.9192
    -1.9112  -1.9062  -1.8961  -1.7022  -1.6299  -1.4824  -1.2570  -1.2370
    -1.2115  -1.1793  -1.1586  -1.1556  -1.1538  -1.1384  -1.1202  -1.0524
    -1.0116  -0.9869  -0.9203  -0.8786  -0.8776  -0.7905  -0.7828  -0.6725
    -0.4893  -0.4810  -0.4357  -0.3530  -0.3476  -0.2434  -0.1687  -0.1176
    -0.0371  -0.0353   0.0437   0.0513   0.1481   0.1649   0.2327   0.2353
     0.2405   0.2550   0.2557   0.2656   0.3201   0.3484   0.4534   0.4630
     0.4868   0.6188   0.6241   0.7363   0.7437   0.8427   0.8459   1.0239
     1.0276   1.3633   1.9636   2.0539   2.2404   2.4924   2.5809   2.7634
     2.7736   2.8259   2.9259   3.0192   3.0192   3.0679   3.0710   3.1042
     3.1064   3.1241   3.1420   3.1950   3.2386   3.2481   3.2488   3.3154
     3.3205   3.3400   3.5841   3.9397   4.0515   4.1722   4.1736   5.3790
     6.2264   6.4276   6.4278   6.5794   6.7020   6.7421   7.0636   7.0886
     7.4598   7.5597   7.9059   8.1409   8.3324   8.3478   8.6119   8.7883
     8.9281   8.9877   9.1844   9.3932   9.6107   9.7762   9.8070   9.8078
     9.9006  10.0405  10.0406  10.0671  10.2345  10.2600  10.2972  10.3392
    10.4032  10.4863  10.5907  10.6639  10.6691  10.7542  10.8472  10.9467
    10.9534  10.9999  11.0170  11.2104  11.2402  11.3189  11.3864  11.3979
    11.4335  11.5262  11.6662  11.8054  11.8589  11.8930  11.8967  11.9103
    11.9436  11.9654  12.0066  12.0164  12.0664  12.0674  12.1117  12.1762
    12.2070  12.2693  12.3733  12.3769  12.5141  12.6200  12.6691  12.8212
    12.9077  12.9405  12.9778  13.0388  13.3744  13.3983  13.4644  13.5234
    13.5628  13.6070  13.6523  13.6860  13.7265  13.7676  13.8015  13.8029
    13.8660  13.9623  14.0045  14.0856  14.1295  14.1700  14.2534  14.3071
    14.3287  14.3533  14.3842  14.4392  14.4966  14.5226  14.5654  14.6100
    14.7052  14.7703  14.8400  14.8966  15.0547  15.0797  15.1920  15.2854
    15.2925  15.3429  15.4686  15.5012  15.5430  15.6004  15.6763  15.6774
    15.7894  15.8243  15.8793  15.8894  15.8972  15.9072  15.9622  16.0292
    16.1039  16.1623  16.1793  16.2361  16.2640  16.3002  16.3567  16.3667
    16.3749  16.3775  16.4361  16.4683  16.5157  16.5254  16.6030  16.6127
    16.6548  16.6806  16.7702  16.7799  16.7878  16.8233  16.9343  16.9750
    17.0052  17.0636  17.2039  17.2250  17.3101  17.3482  17.4419  17.4439
    17.5407  17.6322  17.6690  17.6835  17.8123  17.8675  17.8925  17.9279
    17.9570  18.0257  18.0660  18.0730  18.1389  18.1419  18.2154  18.2244
    18.3080  18.3227  18.3493  18.3758  18.4815  18.4816  18.5993  18.6421
    18.6471  18.6991  18.7095  18.7724  18.8446  18.8617  18.9441  18.9529
    18.9863  19.0209  19.1076  19.2217  19.4580  19.4590  19.5172  19.5289
    19.5986  19.6226  19.6820  19.6950  19.7688  19.7899  19.8370  19.8896
    20.0370  20.0532  20.1037  20.1558  20.2833  20.3014  20.3689  20.4081
    20.4433  20.5473  20.6431  20.6591  20.7005  20.7824  20.8547  20.8610
    20.9429  20.9711  20.9734  21.0128  21.0378  21.0498  21.0534  21.1207
    21.1361  21.2538  21.2577  21.2950  21.3287  21.3880  21.4114  21.4154
    21.4337  21.4777  21.5192  21.5467  21.6255  21.6442  21.6995  21.8158
    21.8345  21.8676  21.8852  21.8964  21.9080  21.9817  22.0165  22.0534
    22.0584  22.1109  22.1586  22.1636  22.1734  22.2866  22.3537  22.3554
    22.4595  22.4919  22.5475  22.6580  22.7003  22.7194  22.7603  22.7653
    22.8330  22.8659  22.9223  22.9802  23.0084  23.0728  23.0801  23.1033
    23.1413  23.1785  23.2048  23.2278  23.2897  23.3029  23.3363  23.3400
    23.3655  23.4077  23.4091  23.5436  23.6354  23.6728  23.6913  23.7075
    23.7892  23.9103  23.9233  23.9683  24.0280  24.0353  24.0507  24.0776
    24.0941  24.1441  24.2523  24.2715  24.2991  24.3375  24.4209  24.4912
    24.5191  24.5427  24.5861  24.6274  24.6469  24.6860  24.7879  24.8330
    24.8381  24.9174  24.9377  24.9568  25.0142  25.0559  25.0707  25.1400
    25.1775  25.2189  25.2827  25.3099  25.4044  25.5323  25.6850  25.7727
    25.7793  25.8475  25.9372  25.9839  26.0047  26.0295  26.1085  26.1475
    26.2042  26.2527  26.2880  26.3292  26.3640  26.4298  26.4610  26.4618
    26.5288  26.6044  26.6760  26.7291  26.7358  26.7944  26.8534  26.9229
    26.9361  27.0219  27.0430  27.0443  27.0606  27.1165  27.1206  27.1989
    27.2235  27.2687  27.2857  27.3389  27.3763  27.4373  27.4629  27.5095
    27.5485  27.5887  27.6243  27.6259  27.6378  27.7517  27.7686  27.8512
    27.8676  27.9034  27.9671  28.0309  28.0326  28.0538  28.1086  28.1278
    28.1826  28.2097  28.2312  28.2916  28.3249  28.3783  28.4154  28.4221
    28.5090  28.5139  28.5330

          k =-0.5000 0.2417 0.0000 ( 41644 PWs)   bands (ev):

   -47.2939 -47.2881 -47.2669 -47.2669 -47.2579 -47.2554 -47.2548 -47.2476
   -47.2425 -47.2423 -47.2395 -47.2291 -47.2291 -47.2235 -47.2228 -47.2131
   -47.1986 -47.1975 -47.1882 -47.1860 -47.1790 -47.1751 -47.1197 -47.1197
   -47.0985 -47.0973 -47.0942 -47.0911 -47.0582 -47.0521 -47.0508 -47.0508
   -47.0210 -47.0205 -46.9964 -46.9953 -46.9939 -46.9497 -46.9346 -46.8942
   -46.8907 -46.8246 -46.8246 -46.7928 -46.7927 -46.7274 -46.7258 -46.7128
   -23.1096 -18.7926 -18.7634 -18.6249 -18.5746 -18.4000 -18.3842 -18.3700
   -18.3678 -18.2707 -18.2700 -18.2331 -18.1872 -18.0121 -17.9951 -17.9567
   -17.9492 -17.8999 -17.8998 -17.8283 -17.8271 -17.8139 -17.8114 -17.7690
   -17.7658 -17.7492 -17.7468 -17.6567 -17.6522 -16.7691 -16.6886 -16.6043
   -16.6032 -15.5066  -7.8068  -6.9900  -6.9834  -6.8433  -6.8418  -6.7880
    -6.7880  -6.7417  -6.7395  -6.7154  -6.7093  -6.6154  -6.6107  -6.5276
    -6.4859  -6.4067  -6.3980  -6.2423  -6.2394  -6.1501  -6.1249  -6.1147
    -6.0371  -5.9761  -5.9755  -5.9699  -5.9637  -5.9393  -5.8882  -5.7812
    -5.6702  -5.4283  -5.3925  -5.3684  -5.2121  -5.2013  -5.0716  -5.0463
    -5.0404  -5.0299  -5.0267  -5.0102  -4.9445  -4.9038  -4.8406  -4.8377
    -4.7329  -4.7197  -4.5890  -4.5617  -4.5492  -4.2951  -4.2809  -4.1043
    -4.0768  -4.0577  -4.0536  -3.9501  -3.9221  -3.8229  -3.8210  -3.7767
    -3.7179  -3.6650  -3.6397  -3.6131  -3.6115  -3.5742  -3.5610  -3.5199
    -3.5102  -3.4510  -3.4266  -3.4090  -3.4087  -3.2450  -3.2414  -3.2341
    -3.2082  -3.0519  -3.0422  -2.7976  -2.7926  -2.7356  -2.7328  -2.6531
    -2.6471  -2.5057  -2.4910  -2.2976  -2.2515  -2.0680  -2.0375  -1.9526
    -1.9474  -1.8293  -1.7652  -1.7335  -1.7300  -1.5288  -1.4491  -1.3532
    -1.2034  -1.2005  -1.0639  -0.9658  -0.9614  -0.7979  -0.7904  -0.7627
    -0.7324  -0.7270  -0.7063  -0.6960  -0.6819  -0.6176  -0.6074  -0.5874
    -0.4906  -0.4865  -0.4144  -0.4074  -0.3167  -0.3078  -0.1223  -0.0305
    -0.0061  -0.0041   0.0271   0.0610   0.0720   0.1251   0.1907   0.2028
     0.2304   0.2924   0.3225   0.3333   0.3651   0.3799   0.4076   0.4160
     0.4692   0.5278   0.5300   0.5971   0.6254   0.7036   0.7315   1.1558
     1.1584   1.5072   2.1125   2.1520   2.2805   2.3596   2.3670   2.4412
     2.4556   2.4779   2.5300   2.5387   2.5565   2.5627   2.8177   3.1876
     3.1904   3.2054   3.3109   3.3527   3.4201   3.5355   3.5713   3.6582
     3.6729   3.7596   3.7997   4.0329   4.1198   4.2645   4.2758   5.4846
     6.4306   6.5589   6.5593   6.5963   6.8899   6.9139   7.2665   7.2808
     7.6417   7.7170   8.0569   8.1153   8.3297   8.3897   8.5324   8.6304
     8.6909   8.7211   8.8333   8.8741   8.9573   9.0804   9.1976   9.2907
     9.3070   9.3709   9.5264   9.6895   9.9383   9.9888  10.0407  10.1824
    10.2238  10.3092  10.3208  10.3706  10.6978  10.7072  10.7803  10.8072
    10.8766  11.0186  11.0923  11.1478  11.5350  11.5437  11.5623  11.6056
    11.6846  11.7121  12.0031  12.0299  12.0799  12.1787  12.2891  12.3000
    12.3343  12.3441  12.3925  12.4535  12.5804  12.5993  12.6696  12.7078
    12.7255  12.7514  12.7681  12.8459  12.8872  12.9339  13.0667  13.0707
[...]
    13.6693  13.7041  13.8074  13.8498  13.9012  13.9573  13.9935  14.1123
    14.1183  14.2504  14.2568  14.3019  14.3437  14.4069  14.4368  14.4493
    14.5089  14.5758  14.6045  14.6477  14.6571  14.6943  14.7249  14.7531
    14.7949  14.8106  14.8250  14.8584  14.8902  14.8910  14.9563  14.9582
    15.0490  15.0943  15.1033  15.1774  15.2011  15.2032  15.2659  15.3373
    15.3633  15.4067  15.4120  15.4383  15.4405  15.4886  15.4958  15.5117
    15.5509  15.6425  15.6464  15.6793  15.6945  15.7225  15.7395  15.7473
    15.7907  15.8021  15.8523  15.8734  15.8816  15.9117  15.9436  15.9525
    16.0478  16.0719  16.0927  16.1247  16.1535  16.1674  16.1929  16.2161
    16.3510  16.4017  16.4436  16.4462  16.4684  16.4824  16.5039  16.5150
    16.5770  16.6639  16.7646  16.7819  16.9055  16.9286  16.9626  16.9836
    17.0673  17.0728  17.1313  17.1392  17.2194  17.3008  17.3864  17.4258
    17.4425  17.4571  17.5041  17.5058  17.7322  17.7624  17.7739  17.8246
    17.8432  17.8718  17.8771  17.8876  17.9244  18.0049  18.0977  18.1084
    18.1430  18.1883  18.1970  18.2407  18.4041  18.4419  18.4496  18.4920
    18.5802  18.5915  18.6407  18.6438  18.8003  18.8211  18.8339  18.8947
    18.9753  18.9772  19.0356  19.0483  19.1872  19.1904  19.2891  19.3824
    19.4308  19.5061  19.6524  19.7409  19.8134  19.8205  19.8407  19.8750
    19.9658  20.0083  20.0985  20.1040  20.1703  20.1722  20.2034  20.2374
    20.3762  20.3916  20.4192  20.4414  20.4527  20.6078  20.6243  20.7252
    20.9021  20.9529  21.1441  21.3084  21.3478  21.3803  21.4299  21.4662
    21.5090  21.5608  21.6358  21.6873  21.7396  21.7748  21.8315  21.9091
    21.9179  21.9913  22.0518  22.0971  22.1669  22.2142  22.2680  22.3073
    22.3310  22.3495  22.3612  22.5602  22.5605  22.5930  22.6157  22.6371
    22.7455  22.7928  22.8290  22.8754  22.8814  22.9033  22.9307  23.0498
    23.0929  23.1055  23.1197  23.1713  23.2113  23.2837  23.2939  23.3864
    23.4137  23.5165  23.5637  23.6037  23.6580  23.6599  23.7073  23.7187
    23.7381  23.7713  23.8129  23.8216  23.8562  23.9106  23.9470  23.9988
    24.0078  24.0215  24.0263  24.2506  24.2959  24.3587  24.3681  24.3973
    24.4071  24.4445  24.4595  24.5116  24.5271  24.5436  24.6334  24.6796
    24.7222  24.7391  24.8237  24.8516  24.8613  24.9199  24.9487  25.0329
    25.1178  25.1191  25.1771  25.1851  25.2226  25.2284  25.2753  25.2774
    25.3365  25.3665  25.4255  25.4257  25.4983  25.5201  25.5215  25.5902
    25.6725  25.6785  25.7384  25.7512  25.8680  25.9021  25.9975  26.0200
    26.0398  26.0415  26.0729  26.2449  26.2684  26.3549  26.4258  26.4527
    26.4878  26.5493  26.6465  26.6889  26.7765  26.7800  26.8287  26.8917
    26.9092  26.9316  26.9361  27.0074  27.0323  27.0869  27.1441  27.1683
    27.2190  27.2371  27.2819  27.2930  27.3941  27.4274  27.4569  27.4652
    27.4952  27.5019  27.5965  27.6003  27.6364  27.7798  27.8415  27.8701
    27.8975  27.9281  27.9689  27.9860  28.0528  28.1151  28.1758  28.2719
    28.2880  28.3088  28.3566  28.3607  28.4381  28.5058  28.5497  28.6338
    28.6399  28.6771  28.7011

     the Fermi energy is     0.4945 ev

!    total energy              =   -3823.54269482 Ry
     Harris-Foulkes estimate   =   -3823.54269482 Ry
     estimated scf accuracy    <          4.0E-09 Ry

     The total energy is the sum of the following terms:

     one-electron contribution =  -81014.63416559 Ry
     hartree contribution      =   40625.34541138 Ry
     xc contribution           =    -710.61842018 Ry
     ewald contribution        =   37276.36480786 Ry
     smearing contrib. (-TS)   =      -0.00032828 Ry

     convergence has been achieved in  28 iterations

     Forces acting on atoms (Ry/au):


     negative rho (up, down):  0.138E+01 0.000E+00
     atom    1 type  1   force =     0.00000000   -0.00001022    0.01139041
     atom    2 type  2   force =    -0.00042757    0.00003605   -0.02498216
     atom    3 type  2   force =     0.00000000    0.00013001    0.07784773
     atom    4 type  1   force =     0.00003866   -0.01189475   -0.02832428
     atom    5 type  1   force =     0.00002879    0.01181549   -0.02846851
     atom    6 type  1   force =     0.00000000   -0.00000490    0.02556097
     atom    7 type  1   force =     0.00000000   -0.00001208   -0.02735684
     atom    8 type  2   force =     0.00049246   -0.00005154   -0.01199249
     atom    9 type  2   force =     0.00000000    0.00013821   -0.01228099
     atom   10 type  1   force =    -0.00020441    0.02063899   -0.00291754
     atom   11 type  1   force =    -0.00002692   -0.02052601   -0.00278830
     atom   12 type  1   force =     0.00000000   -0.00039411    0.02511968
     atom   13 type  1   force =     0.00000000    0.00011029    0.00062892
     atom   14 type  2   force =    -0.00025454   -0.00010043   -0.00051784
     atom   15 type  2   force =     0.00000000   -0.00048596    0.00024984
     atom   16 type  1   force =    -0.00005316   -0.00011331    0.00102428
     atom   17 type  1   force =    -0.00038598   -0.00033098   -0.00011412
     atom   18 type  1   force =     0.00000000   -0.00108025    0.00090213
     atom   19 type  1   force =     0.00000000   -0.00119612    0.00003260
     atom   20 type  2   force =    -0.00030696    0.00044843    0.00028112
     atom   21 type  2   force =     0.00000000    0.00146975    0.00048550
     atom   22 type  1   force =    -0.00104391    0.00072901   -0.00011103
     atom   23 type  1   force =    -0.00066280   -0.00051778   -0.00176845
     atom   24 type  1   force =     0.00000000   -0.00108190    0.00000539
     atom   25 type  1   force =     0.00000000   -0.00012546    0.01092584
     atom   26 type  2   force =     0.00042757    0.00003605   -0.02498216
     atom   27 type  2   force =     0.00000000    0.00034591    0.07721694
     atom   28 type  1   force =    -0.00003866   -0.01189475   -0.02832428
     atom   29 type  1   force =    -0.00002879    0.01181549   -0.02846851
     atom   30 type  1   force =     0.00000000    0.00017212    0.02721884
     atom   31 type  1   force =     0.00000000   -0.00068839   -0.02662552
     atom   32 type  2   force =    -0.00049246   -0.00005154   -0.01199249
     atom   33 type  2   force =     0.00000000    0.00018031   -0.01662477
     atom   34 type  1   force =     0.00020441    0.02063899   -0.00291754
     atom   35 type  1   force =     0.00002692   -0.02052601   -0.00278830
     atom   36 type  1   force =     0.00000000   -0.00112768    0.02639781
     atom   37 type  1   force =     0.00000000   -0.00001780   -0.00139022
     atom   38 type  2   force =     0.00025454   -0.00010043   -0.00051784
     atom   39 type  2   force =     0.00000000    0.00002786    0.00051345
     atom   40 type  1   force =     0.00005316   -0.00011331    0.00102428
     atom   41 type  1   force =     0.00038598   -0.00033098   -0.00011412
     atom   42 type  1   force =     0.00000000   -0.00031824   -0.00214816
     atom   43 type  1   force =     0.00000000    0.00082916    0.00057599
     atom   44 type  2   force =     0.00030696    0.00044843    0.00028112
     atom   45 type  2   force =     0.00000000   -0.00081741   -0.00146715
     atom   46 type  1   force =     0.00104391    0.00072901   -0.00011103
     atom   47 type  1   force =     0.00066280   -0.00051778   -0.00176845
     atom   48 type  1   force =     0.00000000    0.00055230    0.00127605
     atom   49 type  1   force =     0.00000000    0.00106319    0.00107700
     atom   50 type  1   force =     0.00000000    0.00195941    0.00053138
     atom   51 type  3   force =     0.00000000    0.00011565    0.00129582

     Total force =     0.006597     Total SCF correction =     0.000136

     number of scf cycles    =  17
     number of bfgs steps    =  16

     energy   old            =   -3823.5426153542 Ry
     energy   new            =   -3823.5426948163 Ry

     CASE: energy  _new < energy  _old

     new trust radius        =       0.0190252929 bohr
     new conv_thr            =       0.0000000100 Ry


ATOMIC_POSITIONS (crystal)
O0       0.000000000   0.500000000   0.332440000    0   0   0
Rh1      0.250000000   0.500000000   0.366310000    0   0   0
Rh1      0.000000000   0.000000000   0.366310000    0   0   0
O0       0.250000000   0.810000000   0.366310000    0   0   0
O0       0.250000000   0.190000000   0.366310000    0   0   0
O0       0.000000000   0.500000000   0.400170000    0   0   0
O0       0.000000000   0.000000000   0.421570000    0   0   0
Rh1      0.250000000   0.000000000   0.455440000    0   0   0
Rh1      0.000000000   0.500000000   0.455440000    0   0   0
O0       0.250000000   0.690000000   0.455440000    0   0   0
O0       0.250000000   0.310000000   0.455440000    0   0   0
O0       0.000000000   0.000000000   0.489300000    0   0   0
O0       0.000000000   0.499887923   0.510031532
Rh1      0.252444928   0.498665949   0.544384582
Rh1      0.000000000  -0.000506041   0.544379168
O0       0.249969992   0.805588618   0.544549654
O0       0.250804168   0.192251894   0.544065408
O0       0.000000000   0.489795560   0.578006220
O0       0.000000000   0.004426310   0.598966641
Rh1      0.250082291  -0.001753360   0.633768901
Rh1      0.000000000   0.498099943   0.630801232
O0       0.246841473   0.690472723   0.633024894
O0       0.249626262   0.306929290   0.636239426
O0       0.000000000  -0.005907646   0.667204593
O0       0.500000000   0.500000000   0.332440000    0   0   0
Rh1      0.750000000   0.500000000   0.366310000    0   0   0
Rh1      0.500000000   0.000000000   0.366310000    0   0   0
O0       0.750000000   0.810000000   0.366310000    0   0   0
O0       0.750000000   0.190000000   0.366310000    0   0   0
O0       0.500000000   0.500000000   0.400170000    0   0   0
O0       0.500000000   0.000000000   0.421570000    0   0   0
Rh1      0.750000000   0.000000000   0.455440000    0   0   0
Rh1      0.500000000   0.500000000   0.455440000    0   0   0
O0       0.750000000   0.690000000   0.455440000    0   0   0
O0       0.750000000   0.310000000   0.455440000    0   0   0
O0       0.500000000   0.000000000   0.489300000    0   0   0
O0       0.500000000   0.500982445   0.509945346
Rh1      0.747555072   0.498665949   0.544384582
Rh1      0.500000000  -0.000861140   0.544438699
O0       0.750030008   0.805588618   0.544549654
O0       0.749195832   0.192251894   0.544065408
O0       0.500000000   0.495131187   0.579233625
O0       0.500000000   0.001298857   0.598822454
Rh1      0.749917709  -0.001753360   0.633768901
Rh1      0.500000000   0.499631524   0.635852519
O0       0.753158527   0.690472723   0.633024894
O0       0.750373738   0.306929290   0.636239426
O0       0.500000000  -0.018363293   0.666642892
O0       0.500000000   0.529501633   0.689019193
O0       0.500000000   0.330346907   0.707115692
H2       0.500000000   0.376952639   0.733209860


     Check: negative starting charge=   -1.287876
     NEW-OLD atomic charge density approx. for the potential

     Check: negative/imaginary core charge=   -0.000003    0.000000
     Check: negative starting charge=   -1.287980

     negative rho (up, down):  0.138E+01 0.000E+00

     total cpu time spent up to now is   166608.3 secs

     Self-consistent Calculation

     iteration #  1     ecut=    40.00 Ry     beta=0.30
     Davidson diagonalization with overlap
     ethr =  1.00E-06,  avg # of iterations =  4.3

     Threshold (ethr) on eigenvalues was too large:
     Diagonalizing with lowered threshold

     Davidson diagonalization with overlap
     ethr =  6.35E-08,  avg # of iterations =  1.0

     negative rho (up, down):  0.138E+01 0.000E+00

     total cpu time spent up to now is   167374.0 secs

     total energy              =   -3823.54268797 Ry
     Harris-Foulkes estimate   =   -3823.54277775 Ry
     estimated scf accuracy    <       0.00028334 Ry

     iteration #  2     ecut=    40.00 Ry     beta=0.30
     Davidson diagonalization with overlap
     ethr =  6.37E-08,  avg # of iterations =  4.2

     negative rho (up, down):  0.138E+01 0.000E+00

     total cpu time spent up to now is   167736.9 secs

     total energy              =   -3823.54123492 Ry
     Harris-Foulkes estimate   =   -3823.54422159 Ry
     estimated scf accuracy    <       0.22815580 Ry

     iteration #  3     ecut=    40.00 Ry     beta=0.30
     Davidson diagonalization with overlap
     ethr =  6.37E-08,  avg # of iterations =  3.6

     negative rho (up, down):  0.138E+01 0.000E+00

     total cpu time spent up to now is   168097.1 secs

     total energy              =   -3823.54265336 Ry
     Harris-Foulkes estimate   =   -3823.54284121 Ry
     estimated scf accuracy    <       0.00516523 Ry

     iteration #  4     ecut=    40.00 Ry     beta=0.30
     Davidson diagonalization with overlap
     ethr =  6.37E-08,  avg # of iterations =  1.0

     negative rho (up, down):  0.138E+01 0.000E+00

     total cpu time spent up to now is   168395.7 secs

     total energy              =   -3823.54272140 Ry
     Harris-Foulkes estimate   =   -3823.54278888 Ry
     estimated scf accuracy    <       0.00131829 Ry

     iteration #  5     ecut=    40.00 Ry     beta=0.30
     Davidson diagonalization with overlap
     ethr =  6.37E-08,  avg # of iterations =  1.0

     negative rho (up, down):  0.138E+01 0.000E+00

     total cpu time spent up to now is   168694.3 secs

     total energy              =   -3823.54273088 Ry
     Harris-Foulkes estimate   =   -3823.54279712 Ry
     estimated scf accuracy    <       0.00117140 Ry

     iteration #  6     ecut=    40.00 Ry     beta=0.30
     Davidson diagonalization with overlap
     ethr =  6.37E-08,  avg # of iterations =  1.0

     negative rho (up, down):  0.138E+01 0.000E+00

     total cpu time spent up to now is   168993.5 secs

     total energy              =   -3823.54275799 Ry
     Harris-Foulkes estimate   =   -3823.54277195 Ry
     estimated scf accuracy    <       0.00009697 Ry

     iteration #  7     ecut=    40.00 Ry     beta=0.30
     Davidson diagonalization with overlap
     ethr =  2.18E-08,  avg # of iterations =  1.0

     negative rho (up, down):  0.138E+01 0.000E+00

     total cpu time spent up to now is   169295.1 secs

     total energy              =   -3823.54276212 Ry
     Harris-Foulkes estimate   =   -3823.54277137 Ry
     estimated scf accuracy    <       0.00007668 Ry

     iteration #  8     ecut=    40.00 Ry     beta=0.30
     Davidson diagonalization with overlap
     ethr =  1.72E-08,  avg # of iterations =  1.0

     negative rho (up, down):  0.138E+01 0.000E+00

     total cpu time spent up to now is   169596.8 secs

     total energy              =   -3823.54276472 Ry
     Harris-Foulkes estimate   =   -3823.54277209 Ry
     estimated scf accuracy    <       0.00008036 Ry

     iteration #  9     ecut=    40.00 Ry     beta=0.30
     Davidson diagonalization with overlap
     ethr =  1.72E-08,  avg # of iterations =  1.0

     negative rho (up, down):  0.138E+01 0.000E+00

     total cpu time spent up to now is   169895.7 secs

     total energy              =   -3823.54276823 Ry
     Harris-Foulkes estimate   =   -3823.54276966 Ry
     estimated scf accuracy    <       0.00001282 Ry

     iteration # 10     ecut=    40.00 Ry     beta=0.30
     Davidson diagonalization with overlap
     ethr =  2.88E-09,  avg # of iterations =  1.0

     negative rho (up, down):  0.138E+01 0.000E+00

     total cpu time spent up to now is   170196.4 secs

     total energy              =   -3823.54276896 Ry
     Harris-Foulkes estimate   =   -3823.54276927 Ry
     estimated scf accuracy    <       0.00000266 Ry

     iteration # 11     ecut=    40.00 Ry     beta=0.30
     Davidson diagonalization with overlap
     ethr =  5.98E-10,  avg # of iterations =  1.0

     negative rho (up, down):  0.138E+01 0.000E+00

     total cpu time spent up to now is   170497.5 secs

     total energy              =   -3823.54276903 Ry
     Harris-Foulkes estimate   =   -3823.54276933 Ry
     estimated scf accuracy    <       0.00000226 Ry

     iteration # 12     ecut=    40.00 Ry     beta=0.30
     Davidson diagonalization with overlap
     ethr =  5.08E-10,  avg # of iterations =  1.0

     negative rho (up, down):  0.138E+01 0.000E+00

     total cpu time spent up to now is   170797.7 secs

     total energy              =   -3823.54276902 Ry
     Harris-Foulkes estimate   =   -3823.54276932 Ry
     estimated scf accuracy    <       0.00000489 Ry

     iteration # 13     ecut=    40.00 Ry     beta=0.30
     Davidson diagonalization with overlap
     ethr =  5.08E-10,  avg # of iterations =  1.0

     negative rho (up, down):  0.138E+01 0.000E+00

     total cpu time spent up to now is   171098.8 secs

     total energy              =   -3823.54276862 Ry
     Harris-Foulkes estimate   =   -3823.54276983 Ry
     estimated scf accuracy    <       0.00009218 Ry

     iteration # 14     ecut=    40.00 Ry     beta=0.30
     Davidson diagonalization with overlap
     ethr =  5.08E-10,  avg # of iterations =  1.0

     negative rho (up, down):  0.138E+01 0.000E+00

     total cpu time spent up to now is   171399.9 secs

     total energy              =   -3823.54276911 Ry
     Harris-Foulkes estimate   =   -3823.54276934 Ry
     estimated scf accuracy    <       0.00000442 Ry

     iteration # 15     ecut=    40.00 Ry     beta=0.30
     Davidson diagonalization with overlap
     ethr =  5.08E-10,  avg # of iterations =  1.0

     negative rho (up, down):  0.138E+01 0.000E+00

     total cpu time spent up to now is   171698.5 secs

     total energy              =   -3823.54276912 Ry
     Harris-Foulkes estimate   =   -3823.54276934 Ry
     estimated scf accuracy    <       0.00000496 Ry

     iteration # 16     ecut=    40.00 Ry     beta=0.30
     Davidson diagonalization with overlap
     ethr =  5.08E-10,  avg # of iterations =  1.0

     negative rho (up, down):  0.138E+01 0.000E+00

     total cpu time spent up to now is   171998.0 secs

     total energy              =   -3823.54276915 Ry
     Harris-Foulkes estimate   =   -3823.54276935 Ry
     estimated scf accuracy    <       0.00000300 Ry

     iteration # 17     ecut=    40.00 Ry     beta=0.30
     Davidson diagonalization with overlap
     ethr =  5.08E-10,  avg # of iterations =  1.0

     negative rho (up, down):  0.138E+01 0.000E+00

     total cpu time spent up to now is   172299.8 secs

     total energy              =   -3823.54276923 Ry
     Harris-Foulkes estimate   =   -3823.54276929 Ry
     estimated scf accuracy    <       0.00000059 Ry

     iteration # 18     ecut=    40.00 Ry     beta=0.30
     Davidson diagonalization with overlap
     ethr =  1.33E-10,  avg # of iterations =  1.0

     negative rho (up, down):  0.138E+01 0.000E+00

     total cpu time spent up to now is   172599.8 secs

     total energy              =   -3823.54276924 Ry
     Harris-Foulkes estimate   =   -3823.54276928 Ry
     estimated scf accuracy    <       0.00000034 Ry

     iteration # 19     ecut=    40.00 Ry     beta=0.30
     Davidson diagonalization with overlap
     ethr =  7.66E-11,  avg # of iterations =  1.0
=>> PBS: job killed: walltime 172816 exceeded limit 172800
mpirun: killing job...

mpirun: abort is already in progress...hit ctrl-c again to forcibly terminate

---------------------------------------
Running PBS batch system epilogue script
Job id: 381388.audhumbla.fysik.dtu.dk
Username: zhonxu
Groupname: campgst
Jobname: RhO2/Eads-4-layers/OOH-relax
Sessionid: 13589
Resources limits: neednodes=2:ppn=16:xeon16,nodes=2:ppn=16:xeon16,walltime=48:00:00
Resources used: cput=1532:12:28,mem=48629544kb,vmem=58320484kb,walltime=48:00:17
Queuename: verylong
Accounting:
This job has allocated the following 32 nodes:
g048 g048 g048 g048 g048 g048 g048 g048 g048 g048 g048 g048 g048 g048 g048 g048 g045 g045 g045 g045 g045 g045 g045 g045 g045 g045 g045 g045 g045 g045 g045 g045
Finished epilogue job 381388.audhumbla.fysik.dtu.dk for zhonxu
