
     Program PWSCF v.5.0.2 (svn rev. 9656) starts on  8Aug2014 at 17:28:51 

     This program is part of the open-source Quantum ESPRESSO suite
     for quantum simulation of materials; please cite
         "P. Giannozzi et al., J. Phys.:Condens. Matter 21 395502 (2009);
          URL http://www.quantum-espresso.org", 
     in publications or presentations arising from this work. More details at
     http://www.quantum-espresso.org/quote.php

     Parallel version (MPI), running on    16 processors
     K-points division:     npool     =       4
     R & G space division:  proc/nbgrp/npool/nimage =       4

     Current dimensions of program PWSCF are:
     Max number of different atomic species (ntypx) = 10
     Max number of k-points (npk) =  40000
     Max angular momentum in pseudopotentials (lmaxx) =  3
     Reading input from pwscf.in
Warning: card &CELL ignored
Warning: card / ignored

     Subspace diagonalization in iterative solution of the eigenvalue problem:
     a serial algorithm will be used

 
     Parallelization info
     --------------------
     sticks:   dense  smooth     PW     G-vecs:    dense   smooth      PW
     Min        1386     442    124               330660    59845    8892
     Max        1388     443    125               330662    59871    8899
     Sum        5547    1771    497              1322643   239441   35575
 


     bravais-lattice index     =            0
     lattice parameter (alat)  =      11.2250  a.u.
     unit-cell volume          =    7005.5484 (a.u.)^3
     number of atoms/cell      =           33
     number of atomic types    =            3
     number of electrons       =       221.00
     number of Kohn-Sham states=          319
     kinetic-energy cutoff     =      40.0000  Ry
     charge density cutoff     =     500.0000  Ry
     convergence threshold     =      1.0E-06
     mixing beta               =       0.7000
     number of iterations used =            8  plain     mixing
     Exchange-correlation      = SLA  PW   PBE  PBE ( 1 4 3 4 0)
     EXX-fraction              =        0.00
     nstep                     =           50


     celldm(1)=  11.224973  celldm(2)=   0.000000  celldm(3)=   0.000000
     celldm(4)=   0.000000  celldm(5)=   0.000000  celldm(6)=   0.000000

     crystal axes: (cart. coord. in units of alat)
               a(1) = (   1.000000   0.000000   0.000000 )  
               a(2) = (   0.000000   1.107086   0.000000 )  
               a(3) = (   0.000000   0.000000   4.474090 )  

     reciprocal axes: (cart. coord. in units 2 pi/alat)
               b(1) = (  1.000000  0.000000  0.000000 )  
               b(2) = (  0.000000  0.903272  0.000000 )  
               b(3) = (  0.000000  0.000000  0.223509 )  


     PseudoPot. # 1 for O  read from file:
     /home-research/zhongnanxu/gbrv_espresso_pseudo_v1.01/o_pbe_v1.01.uspp.F.UPF
     MD5 check sum: 2bcb18d16ea4b960afae9ec6d52f22d2
     Pseudo is Ultrasoft + core correction, Zval =  6.0
     Generated by new atomic code, or converted to UPF format
     Using radial grid of  737 points,  5 beta functions with: 
                l(1) =   0
                l(2) =   0
                l(3) =   1
                l(4) =   1
                l(5) =   2
     Q(r) pseudized with  8 coefficients,  rinner =    0.900   0.900   0.900
                                                       0.900   0.900

     PseudoPot. # 2 for Ti read from file:
     /home-research/zhongnanxu/gbrv_espresso_pseudo_v1.01/ti_pbe_v1.uspp.F.UPF
     MD5 check sum: bcc8f6961b3b91f0cac3ca967d22d0fb
     Pseudo is Ultrasoft + core correction, Zval = 12.0
     Generated by new atomic code, or converted to UPF format
     Using radial grid of  851 points,  6 beta functions with: 
                l(1) =   0
                l(2) =   0
                l(3) =   1
                l(4) =   1
                l(5) =   2
                l(6) =   2
     Q(r) pseudized with  6 coefficients,  rinner =    1.000   1.000   1.000
                                                       1.000   1.000

     PseudoPot. # 3 for H  read from file:
     /home-research/zhongnanxu/gbrv_espresso_pseudo_v1.01/h_pbe_v1.uspp.F.UPF
     MD5 check sum: 3408e3ff4ec8b0a4e358431e7e038a48
     Pseudo is Ultrasoft, Zval =  1.0
     Generated by new atomic code, or converted to UPF format
     Using radial grid of  615 points,  2 beta functions with: 
                l(1) =   0
                l(2) =   0
     Q(r) pseudized with  8 coefficients,  rinner =    0.700

     atomic species   valence    mass     pseudopotential
        O0             6.00    15.99940     O ( 1.00)
        Ti1           12.00    47.88000     Ti( 1.00)
        H2             1.00     1.00794     H ( 1.00)


     Simplified LDA+U calculation (l_max = 2) with parameters (eV):
     atomic species    L          U    alpha       J0     beta
        Ti1            2     5.5000   0.0000   0.0000   0.0000



     No symmetry found



   Cartesian axes

     site n.     atom                  positions (alat units)
         1           O0  tau(   1) = (   0.0000000   0.0000000   1.6912954  )
         2           O0  tau(   2) = (   0.0000000   0.5535432   1.7865040  )
         3           Ti1 tau(   3) = (   0.2500000   0.5535432   2.0182619  )
         4           Ti1 tau(   4) = (   0.0000000   0.0000000   2.0215280  )
         5           O0  tau(   5) = (   0.2500000   0.8967400   2.0132062  )
         6           O0  tau(   6) = (   0.2500000   0.2103464   2.0173223  )
         7           O0  tau(   7) = (   0.0000000   0.5535432   2.2297074  )
         8           O0  tau(   8) = (   0.0000000   0.0000000   2.3520737  )
         9           Ti1 tau(   9) = (   0.2500000   0.0000000   2.5974328  )
        10           Ti1 tau(  10) = (   0.0000000   0.5535432   2.5411040  )
        11           O0  tau(  11) = (   0.2500000   0.7638896   2.5876345  )
        12           O0  tau(  12) = (   0.2500000   0.3431968   2.5923323  )
        13           O0  tau(  13) = (   0.0000000   0.0000000   2.7826601  )
        14           O0  tau(  14) = (   0.5000000   0.0000000   1.6946510  )
        15           O0  tau(  15) = (   0.5000000   0.5535432   1.7849381  )
        16           Ti1 tau(  16) = (   0.7500000   0.5535432   2.0183066  )
        17           Ti1 tau(  17) = (   0.5000000   0.0000000   2.0277470  )
        18           O0  tau(  18) = (   0.7500000   0.8967400   2.0129377  )
        19           O0  tau(  19) = (   0.7500000   0.2103464   2.0175013  )
        20           O0  tau(  20) = (   0.5000000   0.5535432   2.2179405  )
        21           O0  tau(  21) = (   0.5000000   0.0000000   2.3528791  )
        22           Ti1 tau(  22) = (   0.7500000   0.0000000   2.5974328  )
        23           Ti1 tau(  23) = (   0.5000000   0.5535432   2.6181478  )
        24           O0  tau(  24) = (   0.7500000   0.7638896   2.5875898  )
        25           O0  tau(  25) = (   0.7500000   0.3431968   2.5922429  )
        26           O0  tau(  26) = (   0.5000000   0.0000000   2.7811837  )
        27           H2  tau(  27) = (  -0.0004600   0.6930693   1.6949194  )
        28           H2  tau(  28) = (   0.4997200   0.6918293   1.6916086  )
        29           H2  tau(  29) = (   0.1490000   0.0365781   1.6268238  )
        30           H2  tau(  30) = (   0.6482800   0.0381834   1.6297319  )
        31           O0  tau(  31) = (   0.5003100   0.5833902   2.9430115  )
        32           O0  tau(  32) = (   0.4991200   0.3876242   3.0783974  )
        33           H2  tau(  33) = (   0.5003600   0.4575034   3.2295322  )

     number of k points=    10  Methfessel-Paxton smearing, width (Ry)=  0.0100
                       cart. coord. in units 2pi/alat
        k(    1) = (   0.0000000   0.0000000   0.0000000), wk =   0.1250000
        k(    2) = (   0.0000000   0.2258180   0.0000000), wk =   0.2500000
        k(    3) = (   0.0000000  -0.4516359   0.0000000), wk =   0.1250000
        k(    4) = (   0.2500000   0.0000000   0.0000000), wk =   0.2500000
        k(    5) = (   0.2500000   0.2258180   0.0000000), wk =   0.2500000
        k(    6) = (   0.2500000  -0.4516359   0.0000000), wk =   0.2500000
        k(    7) = (  -0.5000000   0.0000000   0.0000000), wk =   0.1250000
        k(    8) = (  -0.5000000   0.2258180   0.0000000), wk =   0.2500000
        k(    9) = (  -0.5000000  -0.4516359   0.0000000), wk =   0.1250000
        k(   10) = (  -0.2500000   0.2258180   0.0000000), wk =   0.2500000

     Dense  grid:  1322643 G-vectors     FFT dimensions: (  80,  90, 360)

     Smooth grid:   239441 G-vectors     FFT dimensions: (  45,  54, 216)

     Largest allocated arrays     est. size (Mb)     dimensions
        Kohn-Sham Wavefunctions        36.83 Mb     (   7566,  319)
        Atomic wavefunctions           19.05 Mb     (   7566,  165)
        NL pseudopotentials            47.80 Mb     (   7566,  414)
        Each V/rho on FFT grid          9.89 Mb     ( 648000)
        Each G-vector array             2.52 Mb     ( 330661)
        G-vector shells                 1.08 Mb     ( 141764)
     Largest temporary arrays     est. size (Mb)     dimensions
        Auxiliary wavefunctions       147.31 Mb     (   7566, 1276)
        Each subspace H/S matrix       24.84 Mb     (1276,1276)
        Each <psi_i|beta_j> matrix      2.02 Mb     (    414,  319)
        Arrays for rho mixing          79.10 Mb     ( 648000,   8)

     Check: negative/imaginary core charge=   -0.000006    0.000000

     Initial potential from superposition of free atoms
     Check: negative starting charge=   -0.102033

     starting charge  212.99957, renormalised to  221.00000

     negative rho (up, down):  0.106E+00 0.000E+00
     Number of +U iterations with fixed ns =  0
     Starting occupations:
 --- enter write_ns ---
 LDA+U parameters:
U( 2)     =  5.50000000
alpha( 2) =  0.00000000
atom    3   Tr[ns(na)] =   2.00000
    eigenvalues: 
  0.200  0.200  0.200  0.200  0.200
    eigenvectors:
  1.000  0.000  0.000  0.000  0.000
  0.000  1.000  0.000  0.000  0.000
  0.000  0.000  1.000  0.000  0.000
  0.000  0.000  0.000  1.000  0.000
  0.000  0.000  0.000  0.000  1.000
    occupations:
  0.200  0.000  0.000  0.000  0.000
  0.000  0.200  0.000  0.000  0.000
  0.000  0.000  0.200  0.000  0.000
  0.000  0.000  0.000  0.200  0.000
  0.000  0.000  0.000  0.000  0.200
atom    4   Tr[ns(na)] =   2.00000
    eigenvalues: 
  0.200  0.200  0.200  0.200  0.200
    eigenvectors:
  1.000  0.000  0.000  0.000  0.000
  0.000  1.000  0.000  0.000  0.000
  0.000  0.000  1.000  0.000  0.000
  0.000  0.000  0.000  1.000  0.000
  0.000  0.000  0.000  0.000  1.000
    occupations:
  0.200  0.000  0.000  0.000  0.000
  0.000  0.200  0.000  0.000  0.000
  0.000  0.000  0.200  0.000  0.000
  0.000  0.000  0.000  0.200  0.000
  0.000  0.000  0.000  0.000  0.200
atom    9   Tr[ns(na)] =   2.00000
    eigenvalues: 
  0.200  0.200  0.200  0.200  0.200
    eigenvectors:
  1.000  0.000  0.000  0.000  0.000
  0.000  1.000  0.000  0.000  0.000
  0.000  0.000  1.000  0.000  0.000
  0.000  0.000  0.000  1.000  0.000
  0.000  0.000  0.000  0.000  1.000
    occupations:
  0.200  0.000  0.000  0.000  0.000
  0.000  0.200  0.000  0.000  0.000
  0.000  0.000  0.200  0.000  0.000
  0.000  0.000  0.000  0.200  0.000
  0.000  0.000  0.000  0.000  0.200
atom   10   Tr[ns(na)] =   2.00000
    eigenvalues: 
  0.200  0.200  0.200  0.200  0.200
    eigenvectors:
  1.000  0.000  0.000  0.000  0.000
  0.000  1.000  0.000  0.000  0.000
  0.000  0.000  1.000  0.000  0.000
  0.000  0.000  0.000  1.000  0.000
  0.000  0.000  0.000  0.000  1.000
    occupations:
  0.200  0.000  0.000  0.000  0.000
  0.000  0.200  0.000  0.000  0.000
  0.000  0.000  0.200  0.000  0.000
  0.000  0.000  0.000  0.200  0.000
  0.000  0.000  0.000  0.000  0.200
atom   16   Tr[ns(na)] =   2.00000
    eigenvalues: 
  0.200  0.200  0.200  0.200  0.200
    eigenvectors:
  1.000  0.000  0.000  0.000  0.000
  0.000  1.000  0.000  0.000  0.000
  0.000  0.000  1.000  0.000  0.000
  0.000  0.000  0.000  1.000  0.000
  0.000  0.000  0.000  0.000  1.000
    occupations:
  0.200  0.000  0.000  0.000  0.000
  0.000  0.200  0.000  0.000  0.000
  0.000  0.000  0.200  0.000  0.000
  0.000  0.000  0.000  0.200  0.000
  0.000  0.000  0.000  0.000  0.200
atom   17   Tr[ns(na)] =   2.00000
    eigenvalues: 
  0.200  0.200  0.200  0.200  0.200
    eigenvectors:
  1.000  0.000  0.000  0.000  0.000
  0.000  1.000  0.000  0.000  0.000
  0.000  0.000  1.000  0.000  0.000
  0.000  0.000  0.000  1.000  0.000
  0.000  0.000  0.000  0.000  1.000
    occupations:
  0.200  0.000  0.000  0.000  0.000
  0.000  0.200  0.000  0.000  0.000
  0.000  0.000  0.200  0.000  0.000
  0.000  0.000  0.000  0.200  0.000
  0.000  0.000  0.000  0.000  0.200
atom   22   Tr[ns(na)] =   2.00000
    eigenvalues: 
  0.200  0.200  0.200  0.200  0.200
    eigenvectors:
  1.000  0.000  0.000  0.000  0.000
  0.000  1.000  0.000  0.000  0.000
  0.000  0.000  1.000  0.000  0.000
  0.000  0.000  0.000  1.000  0.000
  0.000  0.000  0.000  0.000  1.000
    occupations:
  0.200  0.000  0.000  0.000  0.000
  0.000  0.200  0.000  0.000  0.000
  0.000  0.000  0.200  0.000  0.000
  0.000  0.000  0.000  0.200  0.000
  0.000  0.000  0.000  0.000  0.200
atom   23   Tr[ns(na)] =   2.00000
    eigenvalues: 
  0.200  0.200  0.200  0.200  0.200
    eigenvectors:
  1.000  0.000  0.000  0.000  0.000
  0.000  1.000  0.000  0.000  0.000
  0.000  0.000  1.000  0.000  0.000
  0.000  0.000  0.000  1.000  0.000
  0.000  0.000  0.000  0.000  1.000
    occupations:
  0.200  0.000  0.000  0.000  0.000
  0.000  0.200  0.000  0.000  0.000
  0.000  0.000  0.200  0.000  0.000
  0.000  0.000  0.000  0.200  0.000
  0.000  0.000  0.000  0.000  0.200
N of occupied +U levels =  16.0000000
 --- exit write_ns ---
 Atomic wfc used for LDA+U Projector are NOT orthogonalized
     Starting wfc are  165 randomized atomic wfcs

     total cpu time spent up to now is      100.2 secs

     per-process dynamical memory:   402.7 Mb

     Self-consistent Calculation

     iteration #  1     ecut=    40.00 Ry     beta=0.70
     Davidson diagonalization with overlap
     ethr =  1.00E-02,  avg # of iterations =  6.0
 --- enter write_ns ---
 LDA+U parameters:
U( 2)     =  5.50000000
alpha( 2) =  0.00000000
atom    3   Tr[ns(na)] =   1.71304
    eigenvalues: 
  0.089  0.104  0.117  0.255  0.292
    eigenvectors:
  0.076  0.041  0.734  0.148  0.002
  0.000  0.001  0.001  0.029  0.968
  0.850  0.029  0.120  0.000  0.000
  0.019  0.008  0.124  0.822  0.028
  0.055  0.921  0.022  0.000  0.002
    occupations:
  0.135  0.001 -0.006  0.051  0.001
  0.001  0.291  0.001 -0.007  0.009
 -0.006  0.001  0.092  0.007 -0.004
  0.051 -0.007  0.007  0.235 -0.001
  0.001  0.009 -0.004 -0.001  0.104
atom    4   Tr[ns(na)] =   2.02120
    eigenvalues: 
  0.108  0.130  0.157  0.290  0.325
    eigenvectors:
  0.012  0.005  0.000  0.000  0.983
  0.009  0.872  0.113  0.000  0.007
  0.001  0.111  0.887  0.000  0.001
  0.978  0.012  0.000  0.000  0.010
  0.000  0.000  0.000  1.000  0.000
    occupations:
  0.321  0.016  0.005 -0.022  0.000
  0.016  0.134 -0.008  0.001 -0.001
  0.005 -0.008  0.154  0.000  0.000
 -0.022  0.001  0.000  0.111  0.000
  0.000 -0.001  0.000  0.000  0.290
atom    9   Tr[ns(na)] =   1.98515
    eigenvalues: 
  0.116  0.141  0.149  0.278  0.308
    eigenvectors:
  0.000  0.003  0.937  0.059  0.000
  0.000  0.000  0.000  0.003  0.997
  0.990  0.010  0.000  0.000  0.000
  0.000  0.000  0.059  0.937  0.003
  0.010  0.986  0.003  0.000  0.000
    occupations:
  0.156  0.000  0.000  0.031  0.000
  0.000  0.308  0.000 -0.002  0.000
  0.000  0.000  0.116  0.001  0.003
  0.031 -0.002  0.001  0.271  0.000
  0.000  0.000  0.003  0.000  0.141
atom   10   Tr[ns(na)] =   2.33014
    eigenvalues: 
  0.107  0.156  0.221  0.284  0.398
    eigenvectors:
  0.000  0.000  0.997  0.000  0.003
  0.000  1.000  0.000  0.000  0.000
  1.000  0.000  0.000  0.000  0.000
  0.000  0.000  0.003  0.000  0.997
  0.000  0.000  0.000  1.000  0.000
    occupations:
  0.221  0.000  0.000  0.009  0.000
  0.000  0.156  0.000  0.000  0.001
  0.000  0.000  0.107  0.006  0.000
  0.009  0.000  0.006  0.398  0.000
  0.000  0.001  0.000  0.000  0.284
atom   16   Tr[ns(na)] =   1.71331
    eigenvalues: 
  0.089  0.104  0.117  0.255  0.292
    eigenvectors:
  0.076  0.042  0.732  0.148  0.002
  0.000  0.001  0.001  0.029  0.968
  0.849  0.029  0.121  0.000  0.000
  0.019  0.008  0.124  0.822  0.028
  0.056  0.920  0.023  0.000  0.002
    occupations:
  0.135 -0.001 -0.006  0.051 -0.001
 -0.001  0.291 -0.001  0.007  0.009
 -0.006 -0.001  0.093  0.006  0.004
  0.051  0.007  0.006  0.235  0.000
 -0.001  0.009  0.004  0.000  0.104
atom   17   Tr[ns(na)] =   2.01506
    eigenvalues: 
  0.108  0.130  0.155  0.289  0.326
    eigenvectors:
  0.012  0.005  0.000  0.000  0.983
  0.007  0.858  0.128  0.000  0.006
  0.001  0.127  0.872  0.000  0.001
  0.980  0.010  0.000  0.000  0.010
  0.000  0.000  0.000  1.000  0.000
    occupations:
  0.322  0.015  0.005 -0.022  0.000
  0.015  0.135 -0.008  0.000 -0.002
  0.005 -0.008  0.152  0.000  0.000
 -0.022  0.000  0.000  0.110  0.000
  0.000 -0.002  0.000  0.000  0.289
atom   22   Tr[ns(na)] =   1.98520
    eigenvalues: 
  0.116  0.141  0.149  0.278  0.308
    eigenvectors:
  0.000  0.003  0.937  0.059  0.000
  0.000  0.000  0.000  0.003  0.997
  0.990  0.010  0.000  0.000  0.000
  0.000  0.000  0.059  0.938  0.003
  0.010  0.986  0.003  0.000  0.000
    occupations:
  0.156  0.000  0.000  0.031  0.000
  0.000  0.308  0.000  0.002  0.000
  0.000  0.000  0.116  0.001 -0.003
  0.031  0.002  0.001  0.271  0.000
  0.000  0.000 -0.003  0.000  0.141
atom   23   Tr[ns(na)] =   2.05979
    eigenvalues: 
  0.109  0.145  0.157  0.278  0.341
    eigenvectors:
  0.011  0.000  0.001  0.000  0.989
  0.000  1.000  0.000  0.000  0.000
  0.985  0.000  0.004  0.000  0.011
  0.004  0.000  0.995  0.000  0.000
  0.000  0.000  0.000  1.000  0.000
    occupations:
  0.338  0.000  0.024  0.003  0.000
  0.000  0.145  0.000  0.000  0.000
  0.024  0.000  0.112  0.003  0.000
  0.003  0.000  0.003  0.156  0.000
  0.000  0.000  0.000  0.000  0.278
N of occupied +U levels =  15.8228955
 --- exit write_ns ---

     negative rho (up, down):  0.119E+00 0.000E+00

     total cpu time spent up to now is      511.2 secs

     total energy              =   -1590.82123744 Ry
     Harris-Foulkes estimate   =   -1599.46010467 Ry
     estimated scf accuracy    <      10.66877900 Ry

     iteration #  2     ecut=    40.00 Ry     beta=0.70
     Davidson diagonalization with overlap
     ethr =  4.83E-03,  avg # of iterations =  4.9

     negative rho (up, down):  0.112E+00 0.000E+00

     total cpu time spent up to now is      791.6 secs

     total energy              =   -1550.98164869 Ry
     Harris-Foulkes estimate   =   -1618.76728089 Ry
     estimated scf accuracy    <     531.26790630 Ry

     iteration #  3     ecut=    40.00 Ry     beta=0.70
     Davidson diagonalization with overlap
     ethr =  4.83E-03,  avg # of iterations =  5.0

     negative rho (up, down):  0.103E+00 0.000E+00

     total cpu time spent up to now is     1105.4 secs

     total energy              =   -1569.47058362 Ry
     Harris-Foulkes estimate   =   -1615.69588207 Ry
     estimated scf accuracy    <     769.59642578 Ry

     iteration #  4     ecut=    40.00 Ry     beta=0.70
     Davidson diagonalization with overlap
     ethr =  4.83E-03,  avg # of iterations =  3.5

     negative rho (up, down):  0.972E-01 0.000E+00

     total cpu time spent up to now is     1330.4 secs

     total energy              =   -1591.02448024 Ry
     Harris-Foulkes estimate   =   -1601.29653118 Ry
     estimated scf accuracy    <     154.27683478 Ry

     iteration #  5     ecut=    40.00 Ry     beta=0.70
     Davidson diagonalization with overlap
     ethr =  4.83E-03,  avg # of iterations =  3.0

     negative rho (up, down):  0.961E-01 0.000E+00

     total cpu time spent up to now is     1523.3 secs

     total energy              =   -1597.33960128 Ry
     Harris-Foulkes estimate   =   -1598.60111165 Ry
     estimated scf accuracy    <       4.27886435 Ry

     iteration #  6     ecut=    40.00 Ry     beta=0.70
     Davidson diagonalization with overlap
     ethr =  1.94E-03,  avg # of iterations =  3.2

     negative rho (up, down):  0.960E-01 0.000E+00

     total cpu time spent up to now is     1712.0 secs

     total energy              =   -1597.49490887 Ry
     Harris-Foulkes estimate   =   -1597.83989444 Ry
     estimated scf accuracy    <       2.35424737 Ry

     iteration #  7     ecut=    40.00 Ry     beta=0.70
     Davidson diagonalization with overlap
     ethr =  1.07E-03,  avg # of iterations =  4.4

     negative rho (up, down):  0.977E-01 0.000E+00

     total cpu time spent up to now is     1908.7 secs

     total energy              =   -1597.52253786 Ry
     Harris-Foulkes estimate   =   -1597.71603429 Ry
     estimated scf accuracy    <       1.80401261 Ry

     iteration #  8     ecut=    40.00 Ry     beta=0.70
     Davidson diagonalization with overlap
     ethr =  8.16E-04,  avg # of iterations =  1.2

     negative rho (up, down):  0.995E-01 0.000E+00

     total cpu time spent up to now is     2082.6 secs

     total energy              =   -1597.45357326 Ry
     Harris-Foulkes estimate   =   -1597.62244693 Ry
     estimated scf accuracy    <       1.29124143 Ry

     iteration #  9     ecut=    40.00 Ry     beta=0.70
     Davidson diagonalization with overlap
     ethr =  5.84E-04,  avg # of iterations =  4.1

     negative rho (up, down):  0.100E+00 0.000E+00

     total cpu time spent up to now is     2276.1 secs

     total energy              =   -1597.44727925 Ry
     Harris-Foulkes estimate   =   -1597.50946511 Ry
     estimated scf accuracy    <       1.07734762 Ry

     iteration # 10     ecut=    40.00 Ry     beta=0.70
     Davidson diagonalization with overlap
     ethr =  4.87E-04,  avg # of iterations =  1.9

     negative rho (up, down):  0.103E+00 0.000E+00

     total cpu time spent up to now is     2456.1 secs

     total energy              =   -1597.35583895 Ry
     Harris-Foulkes estimate   =   -1597.48959035 Ry
     estimated scf accuracy    <       1.13815883 Ry

     iteration # 11     ecut=    40.00 Ry     beta=0.70
     Davidson diagonalization with overlap
     ethr =  4.87E-04,  avg # of iterations =  4.3

     negative rho (up, down):  0.111E+00 0.000E+00

     total cpu time spent up to now is     2657.7 secs

     total energy              =   -1597.21383978 Ry
     Harris-Foulkes estimate   =   -1597.38730199 Ry
     estimated scf accuracy    <       0.39012280 Ry

     iteration # 12     ecut=    40.00 Ry     beta=0.70
     Davidson diagonalization with overlap
     ethr =  1.77E-04,  avg # of iterations =  6.8

     negative rho (up, down):  0.105E+00 0.000E+00

     total cpu time spent up to now is     2926.4 secs

     total energy              =   -1597.16622280 Ry
     Harris-Foulkes estimate   =   -1597.34031129 Ry
     estimated scf accuracy    <       0.94012336 Ry

     iteration # 13     ecut=    40.00 Ry     beta=0.70
     Davidson diagonalization with overlap
     ethr =  1.77E-04,  avg # of iterations =  4.1

     negative rho (up, down):  0.104E+00 0.000E+00

     total cpu time spent up to now is     3129.6 secs

     total energy              =   -1597.14626103 Ry
     Harris-Foulkes estimate   =   -1597.33819324 Ry
     estimated scf accuracy    <       0.59398658 Ry

     iteration # 14     ecut=    40.00 Ry     beta=0.70
     Davidson diagonalization with overlap
     ethr =  1.77E-04,  avg # of iterations =  5.1

     negative rho (up, down):  0.105E+00 0.000E+00

     total cpu time spent up to now is     3353.4 secs

     total energy              =   -1597.11115381 Ry
     Harris-Foulkes estimate   =   -1597.40976968 Ry
     estimated scf accuracy    <       1.20580825 Ry

     iteration # 15     ecut=    40.00 Ry     beta=0.70
     Davidson diagonalization with overlap
     ethr =  1.77E-04,  avg # of iterations =  4.4

     negative rho (up, down):  0.105E+00 0.000E+00

     total cpu time spent up to now is     3558.4 secs

     total energy              =   -1597.24499671 Ry
     Harris-Foulkes estimate   =   -1597.27537762 Ry
     estimated scf accuracy    <       0.19063795 Ry

     iteration # 16     ecut=    40.00 Ry     beta=0.70
     Davidson diagonalization with overlap
     ethr =  8.63E-05,  avg # of iterations =  1.0

     negative rho (up, down):  0.105E+00 0.000E+00

     total cpu time spent up to now is     3733.0 secs

     total energy              =   -1597.25253640 Ry
     Harris-Foulkes estimate   =   -1597.25870843 Ry
     estimated scf accuracy    <       0.02798415 Ry

     iteration # 17     ecut=    40.00 Ry     beta=0.70
     Davidson diagonalization with overlap
     ethr =  1.27E-05,  avg # of iterations =  3.5

     negative rho (up, down):  0.106E+00 0.000E+00

     total cpu time spent up to now is     3922.1 secs

     total energy              =   -1597.25103628 Ry
     Harris-Foulkes estimate   =   -1597.25753330 Ry
     estimated scf accuracy    <       0.08195140 Ry

     iteration # 18     ecut=    40.00 Ry     beta=0.70
     Davidson diagonalization with overlap
     ethr =  1.27E-05,  avg # of iterations =  1.0

     negative rho (up, down):  0.106E+00 0.000E+00

     total cpu time spent up to now is     4095.8 secs

     total energy              =   -1597.25299630 Ry
     Harris-Foulkes estimate   =   -1597.25679384 Ry
     estimated scf accuracy    <       0.09120034 Ry

     iteration # 19     ecut=    40.00 Ry     beta=0.70
     Davidson diagonalization with overlap
     ethr =  1.27E-05,  avg # of iterations =  1.0

     negative rho (up, down):  0.106E+00 0.000E+00

     total cpu time spent up to now is     4269.0 secs

     total energy              =   -1597.25409737 Ry
     Harris-Foulkes estimate   =   -1597.25479657 Ry
     estimated scf accuracy    <       0.00358238 Ry

     iteration # 20     ecut=    40.00 Ry     beta=0.70
     Davidson diagonalization with overlap
     ethr =  1.62E-06,  avg # of iterations =  5.0

     negative rho (up, down):  0.106E+00 0.000E+00

     total cpu time spent up to now is     4462.3 secs

     total energy              =   -1597.25362203 Ry
     Harris-Foulkes estimate   =   -1597.25520682 Ry
     estimated scf accuracy    <       0.03235344 Ry

     iteration # 21     ecut=    40.00 Ry     beta=0.70
     Davidson diagonalization with overlap
     ethr =  1.62E-06,  avg # of iterations =  1.2

     negative rho (up, down):  0.107E+00 0.000E+00

     total cpu time spent up to now is     4636.9 secs

     total energy              =   -1597.25438486 Ry
     Harris-Foulkes estimate   =   -1597.25468835 Ry
     estimated scf accuracy    <       0.00225381 Ry

     iteration # 22     ecut=    40.00 Ry     beta=0.70
     Davidson diagonalization with overlap
     ethr =  1.02E-06,  avg # of iterations =  2.1

     negative rho (up, down):  0.107E+00 0.000E+00

     total cpu time spent up to now is     4815.2 secs

     total energy              =   -1597.25448523 Ry
     Harris-Foulkes estimate   =   -1597.25458676 Ry
     estimated scf accuracy    <       0.00091757 Ry

     iteration # 23     ecut=    40.00 Ry     beta=0.70
     Davidson diagonalization with overlap
     ethr =  4.15E-07,  avg # of iterations =  1.0

     negative rho (up, down):  0.107E+00 0.000E+00

     total cpu time spent up to now is     4989.5 secs

     total energy              =   -1597.25452464 Ry
     Harris-Foulkes estimate   =   -1597.25455427 Ry
     estimated scf accuracy    <       0.00020168 Ry

     iteration # 24     ecut=    40.00 Ry     beta=0.70
     Davidson diagonalization with overlap
     ethr =  9.13E-08,  avg # of iterations =  1.0

     negative rho (up, down):  0.107E+00 0.000E+00

     total cpu time spent up to now is     5163.7 secs

     total energy              =   -1597.25453706 Ry
     Harris-Foulkes estimate   =   -1597.25454589 Ry
     estimated scf accuracy    <       0.00010548 Ry

     iteration # 25     ecut=    40.00 Ry     beta=0.70
     Davidson diagonalization with overlap
     ethr =  4.77E-08,  avg # of iterations =  1.0

     negative rho (up, down):  0.107E+00 0.000E+00

     total cpu time spent up to now is     5337.2 secs

     total energy              =   -1597.25454111 Ry
     Harris-Foulkes estimate   =   -1597.25454497 Ry
     estimated scf accuracy    <       0.00001960 Ry

     iteration # 26     ecut=    40.00 Ry     beta=0.70
     Davidson diagonalization with overlap
     ethr =  8.87E-09,  avg # of iterations =  1.0

     negative rho (up, down):  0.107E+00 0.000E+00

     total cpu time spent up to now is     5511.1 secs

     total energy              =   -1597.25454292 Ry
     Harris-Foulkes estimate   =   -1597.25454370 Ry
     estimated scf accuracy    <       0.00000535 Ry

     iteration # 27     ecut=    40.00 Ry     beta=0.70
     Davidson diagonalization with overlap
     ethr =  2.42E-09,  avg # of iterations =  1.0

     negative rho (up, down):  0.107E+00 0.000E+00

     total cpu time spent up to now is     5685.4 secs

     total energy              =   -1597.25454323 Ry
     Harris-Foulkes estimate   =   -1597.25454383 Ry
     estimated scf accuracy    <       0.00000468 Ry

     iteration # 28     ecut=    40.00 Ry     beta=0.70
     Davidson diagonalization with overlap
     ethr =  2.12E-09,  avg # of iterations =  1.0

     negative rho (up, down):  0.107E+00 0.000E+00

     total cpu time spent up to now is     5858.8 secs

     End of self-consistent calculation
 --- enter write_ns ---
 LDA+U parameters:
U( 2)     =  5.50000000
alpha( 2) =  0.00000000
atom    3   Tr[ns(na)] =   2.64154
    eigenvalues: 
  0.141  0.151  0.175  0.409  0.445
    eigenvectors:
  0.563  0.216  0.038  0.157  0.026
  0.003  0.000  0.001  0.218  0.778
  0.231  0.242  0.526  0.000  0.000
  0.132  0.043  0.006  0.625  0.194
  0.070  0.498  0.429  0.001  0.002
    occupations:
  0.195  0.006 -0.005  0.104  0.001
  0.006  0.436  0.002 -0.019  0.013
 -0.005  0.002  0.161  0.008 -0.013
  0.104 -0.019  0.008  0.368 -0.001
  0.001  0.013 -0.013 -0.001  0.161
atom    4   Tr[ns(na)] =   2.74978
    eigenvalues: 
  0.136  0.171  0.188  0.430  0.450
    eigenvectors:
  0.006  0.003  0.000  0.000  0.991
  0.001  0.873  0.123  0.000  0.003
  0.001  0.123  0.876  0.000  0.000
  0.992  0.002  0.000  0.000  0.006
  0.000  0.000  0.000  1.000  0.000
    occupations:
  0.447  0.014  0.005 -0.024  0.000
  0.014  0.174 -0.005  0.000 -0.002
  0.005 -0.005  0.186  0.001  0.000
 -0.024  0.000  0.001  0.138  0.000
  0.000 -0.002  0.000  0.000  0.430
atom    9   Tr[ns(na)] =   2.74400
    eigenvalues: 
  0.140  0.188  0.204  0.385  0.455
    eigenvectors:
  0.000  0.000  0.923  0.076  0.000
  0.000  0.000  0.000  0.000  1.000
  1.000  0.000  0.000  0.000  0.000
  0.000  0.000  0.076  0.924  0.000
  0.000  0.999  0.001  0.000  0.000
    occupations:
  0.218  0.001  0.001  0.048  0.000
  0.001  0.455  0.000 -0.001  0.000
  0.001  0.000  0.140  0.002  0.000
  0.048 -0.001  0.002  0.372  0.000
  0.000  0.000  0.000  0.000  0.188
atom   10   Tr[ns(na)] =   2.68486
    eigenvalues: 
  0.143  0.193  0.208  0.343  0.456
    eigenvectors:
  0.017  0.000  0.000  0.983  0.000
  0.000  0.000  1.000  0.000  0.000
  0.000  1.000  0.000  0.000  0.000
  0.983  0.000  0.000  0.016  0.000
  0.000  0.000  0.000  0.000  1.000
    occupations:
  0.340  0.000 -0.001 -0.026  0.000
  0.000  0.208  0.000  0.000  0.002
 -0.001  0.000  0.193 -0.001  0.000
 -0.026  0.000 -0.001  0.146  0.000
  0.000  0.002  0.000  0.000  0.456
atom   16   Tr[ns(na)] =   2.64180
    eigenvalues: 
  0.141  0.151  0.175  0.409  0.445
    eigenvectors:
  0.573  0.206  0.037  0.157  0.026
  0.003  0.000  0.001  0.217  0.778
  0.224  0.247  0.528  0.000  0.000
  0.135  0.041  0.006  0.625  0.194
  0.065  0.505  0.427  0.001  0.002
    occupations:
  0.195 -0.006 -0.005  0.104 -0.002
 -0.006  0.436 -0.002  0.019  0.013
 -0.005 -0.002  0.162  0.007  0.013
  0.104  0.019  0.007  0.368  0.001
 -0.002  0.013  0.013  0.001  0.161
atom   17   Tr[ns(na)] =   2.74934
    eigenvalues: 
  0.135  0.173  0.189  0.425  0.452
    eigenvectors:
  0.006  0.002  0.000  0.000  0.991
  0.001  0.892  0.105  0.000  0.002
  0.000  0.105  0.895  0.000  0.000
  0.993  0.001  0.000  0.000  0.006
  0.000  0.000  0.000  1.000  0.000
    occupations:
  0.449  0.013  0.005 -0.024  0.000
  0.013  0.176 -0.005  0.000 -0.002
  0.005 -0.005  0.188  0.000  0.000
 -0.024  0.000  0.000  0.136  0.000
  0.000 -0.002  0.000  0.000  0.425
atom   22   Tr[ns(na)] =   2.74400
    eigenvalues: 
  0.140  0.188  0.204  0.385  0.455
    eigenvectors:
  0.000  0.000  0.924  0.076  0.000
  0.000  0.000  0.000  0.000  1.000
  1.000  0.000  0.000  0.000  0.000
  0.000  0.000  0.076  0.924  0.000
  0.000  1.000  0.000  0.000  0.000
    occupations:
  0.218 -0.001  0.001  0.048  0.000
 -0.001  0.455  0.000  0.001  0.000
  0.001  0.000  0.140  0.002  0.000
  0.048  0.001  0.002  0.372  0.000
  0.000  0.000  0.000  0.000  0.188
atom   23   Tr[ns(na)] =   2.66297
    eigenvalues: 
  0.137  0.146  0.215  0.376  0.458
    eigenvectors:
  0.002  0.006  0.000  0.992  0.000
  0.000  0.000  1.000  0.000  0.000
  0.902  0.097  0.000  0.000  0.000
  0.096  0.897  0.000  0.008  0.000
  0.000  0.000  0.000  0.000  1.000
    occupations:
  0.374  0.000  0.005 -0.021  0.000
  0.000  0.215  0.000  0.000 -0.001
  0.005  0.000  0.138  0.002  0.000
 -0.021  0.000  0.002  0.147  0.000
  0.000 -0.001  0.000  0.000  0.458
N of occupied +U levels =  21.6182910
 --- exit write_ns ---

          k = 0.0000 0.0000 0.0000 ( 29975 PWs)   bands (ev):

   -60.8408 -60.8047 -60.5614 -60.3225 -59.5713 -59.5279 -59.2358 -59.1973
   -37.3146 -37.0642 -36.9990 -36.9345 -36.9189 -36.9008 -36.8825 -36.8220
   -36.6972 -36.5602 -36.5193 -36.4002 -36.1235 -35.8722 -35.7740 -35.6962
   -35.6488 -35.6365 -35.5981 -35.5325 -35.5046 -35.4515 -35.3647 -35.1870
   -24.6146 -21.2658 -20.9320 -20.2359 -19.7546 -19.6889 -19.1153 -18.9918
   -18.9842 -18.9105 -18.8483 -18.8052 -18.7061 -18.5708 -18.4802 -18.3436
   -17.9100 -17.6315 -17.4905 -17.4695  -9.4471  -8.9430  -8.5866  -7.8218
    -7.4463  -7.3937  -7.2596  -7.1537  -7.1185  -6.5841  -6.5044  -6.4087
    -6.3446  -6.2844  -6.2542  -6.2368  -6.1737  -6.1326  -5.9772  -5.9513
    -5.8316  -5.7741  -5.5726  -5.5427  -5.2829  -5.1182  -4.9753  -4.9262
    -4.9178  -4.9023  -4.5598  -4.5268  -4.4767  -4.3116  -4.2925  -4.2502
    -4.1289  -4.0486  -3.9354  -3.8183  -3.7228  -3.7015  -3.5994  -3.4883
    -3.4404  -3.3133  -3.2571  -3.1800  -2.8647  -2.8303  -2.7753  -2.6297
    -2.5319  -2.4488  -2.3350  -2.3029  -2.2470  -2.1089  -2.0015   0.1209
     0.4720   0.5211   0.5391   0.6859   0.6965   0.7847   1.0109   1.0770
     1.2042   1.2937   1.4361   1.5462   1.6098   1.6104   1.8427   1.8963
     2.0327   2.1110   2.1480   2.1541   2.2016   2.2870   2.3931   2.4480
     2.5315   2.5779   2.7343   2.8183   2.8254   2.9106   3.0950   3.1538
     3.2092   3.5382   3.6307   3.6677   3.6962   3.8608   3.9183   4.1698
     4.3249   4.4673   4.5741   4.7741   4.9092   5.3510   5.7314   6.1622
     6.2379   6.5031   6.6899   6.8265   6.9364   7.0724   7.1744   7.2027
     7.2570   7.2820   7.4972   7.7004   7.7649   7.8996   7.9113   8.1756
     8.2551   8.2953   8.3812   8.4677   8.5620   8.7742   8.8696   8.8752
     9.0494   9.1019   9.2920   9.3301   9.4636   9.5216   9.5443   9.5664
     9.8314   9.8765  10.0664  10.1251  10.2204  10.2362  10.3879  10.4117
    10.6934  10.7569  10.7724  10.8659  10.9740  11.0491  11.1208  11.1770
    11.1916  11.2290  11.3049  11.3612  11.3687  11.4549  11.4924  11.5911
    11.7686  11.8172  11.8613  11.9008  11.9358  12.0204  12.0842  12.1275
    12.1372  12.2862  12.3697  12.3997  12.4625  12.4718  12.6207  12.6439
    12.6821  12.7973  12.8666  12.9222  13.0928  13.1831  13.2017  13.4236
    13.5217  13.6059  13.6200  13.6561  13.7111  13.7735  14.0041  14.0798
    14.2155  14.2316  14.3164  14.4260  14.5177  14.6095  14.6369  14.7706
    14.8532  14.9107  14.9211  15.0626  15.0859  15.1612  15.3483  15.4099
    15.5349  15.5773  15.7044  15.7266  15.8307  15.8653  15.9642  16.1788
    16.2510  16.3472  16.3767  16.4553  16.5926  16.7761  16.8178  16.8846
    16.9185  16.9747  17.0510  17.0656  17.2617  17.3313  17.3712  17.4092
    17.4676  17.5964  17.6124  17.6407  17.7459  17.8610  17.9538  18.0104
    18.0711  18.1484  18.2476  18.3083  18.3772  18.4099  18.4455  18.5606
    18.6578  18.7402  18.7415  18.7960  18.9211  18.9496  19.0281  19.1136
    19.2105  19.2435  19.3145  19.3866  19.4925  19.5159  19.5851

          k = 0.0000 0.2258 0.0000 ( 29933 PWs)   bands (ev):

   -60.8409 -60.8047 -60.5614 -60.3224 -59.5714 -59.5278 -59.2360 -59.1973
   -37.3148 -37.0642 -36.9990 -36.9326 -36.9189 -36.9022 -36.8825 -36.8227
   -36.6960 -36.5601 -36.5191 -36.4003 -36.1220 -35.8742 -35.7742 -35.6962
   -35.6487 -35.6365 -35.5980 -35.5343 -35.5036 -35.4514 -35.3647 -35.1870
   -24.6145 -21.2574 -20.9314 -20.2207 -19.7154 -19.6216 -19.1129 -19.0832
   -19.0246 -19.0007 -18.7912 -18.7564 -18.7398 -18.6105 -18.5479 -18.2562
   -17.9108 -17.6360 -17.4847 -17.4690  -9.4432  -8.9447  -8.5873  -7.8292
    -7.3740  -7.2464  -7.1507  -7.0264  -6.9950  -6.5969  -6.5788  -6.5017
    -6.4871  -6.2639  -6.2464  -6.2066  -6.0672  -6.0431  -5.9621  -5.8424
    -5.8290  -5.5502  -5.5179  -5.4124  -5.3398  -5.1181  -5.0527  -5.0427
    -4.9984  -4.8022  -4.6887  -4.5726  -4.4946  -4.4520  -4.3431  -4.2883
    -4.2014  -4.1542  -4.0324  -3.8104  -3.7525  -3.6905  -3.6245  -3.5849
    -3.4670  -3.4196  -3.2660  -3.1103  -2.9870  -2.8338  -2.7950  -2.7497
    -2.6698  -2.4725  -2.4480  -2.3188  -2.2406  -2.1268  -2.0304   0.1533
     0.4186   0.5149   0.7065   0.7718   0.7748   1.0056   1.0429   1.0846
     1.1723   1.2436   1.3394   1.5699   1.6678   1.8016   1.8347   1.9335
     2.0143   2.0429   2.1306   2.1664   2.2218   2.3033   2.3759   2.3793
     2.5104   2.5784   2.6079   2.8191   2.8450   3.0066   3.0518   3.1768
     3.4436   3.6177   3.6380   3.8036   3.9001   3.9609   4.1740   4.1942
     4.3063   4.4566   4.6186   4.9131   4.9538   5.1301   5.3475   5.5683
     5.7587   6.0614   6.3007   6.6070   6.6631   6.8623   7.2623   7.3324
     7.4382   7.5506   7.7290   7.8801   8.0564   8.0938   8.1445   8.2171
     8.3517   8.4931   8.6162   8.6455   8.8599   8.9412   8.9868   9.0899
     9.1086   9.1480   9.3293   9.4580   9.4673   9.5191   9.5940   9.6844
     9.7269   9.8055   9.8491   9.8806   9.9991  10.0877  10.2200  10.2506
    10.3146  10.4185  10.5173  10.7692  10.8493  10.9161  10.9438  11.0001
    11.1300  11.1469  11.2012  11.2897  11.3867  11.4170  11.4832  11.8327
    11.8658  11.9107  12.0426  12.0789  12.1277  12.2315  12.3001  12.4074
    12.4958  12.5230  12.5673  12.7450  12.8236  12.9561  13.0133  13.0961
    13.1788  13.1976  13.2343  13.3162  13.3376  13.4372  13.4980  13.5412
    13.7051  13.7602  13.7943  13.9151  13.9870  13.9982  14.0750  14.1311
    14.1533  14.1881  14.2502  14.2870  14.3959  14.5432  14.6616  14.7009
    14.7318  14.7713  14.8742  14.8821  15.0428  15.0675  15.1730  15.2358
    15.2896  15.3037  15.3663  15.4838  15.5828  15.6688  15.7120  15.8456
    15.9386  16.0042  16.1717  16.2282  16.2733  16.4116  16.4747  16.5029
    16.7004  16.7152  16.7956  16.8665  16.9693  17.0458  17.1100  17.1986
    17.2368  17.3348  17.5234  17.5742  17.5976  17.7346  17.8588  17.9078
    18.0955  18.1285  18.1501  18.2521  18.3121  18.3468  18.4352  18.4764
    18.4903  18.5096  18.6499  18.7750  18.8405  18.8588  18.9072  19.0514
    19.0977  19.2191  19.2474  19.2930  19.3096  19.3647  19.3982

          k = 0.0000-0.4516 0.0000 ( 29906 PWs)   bands (ev):

   -60.8411 -60.8047 -60.5614 -60.3224 -59.5715 -59.5276 -59.2362 -59.1972
   -37.3151 -37.0641 -36.9990 -36.9307 -36.9189 -36.9036 -36.8825 -36.8235
   -36.6949 -36.5601 -36.5189 -36.4004 -36.1205 -35.8762 -35.7744 -35.6963
   -35.6487 -35.6364 -35.5980 -35.5360 -35.5025 -35.4514 -35.3647 -35.1870
   -24.6144 -21.2491 -20.9308 -20.2064 -19.6697 -19.5299 -19.1426 -19.0965
   -19.0908 -19.0146 -18.9398 -18.7898 -18.6777 -18.6149 -18.5424 -18.2107
   -17.9115 -17.6402 -17.4792 -17.4686  -9.4393  -8.9449  -8.5880  -7.8368
    -7.3516  -7.1694  -7.1483  -6.7643  -6.6835  -6.6366  -6.6239  -6.5763
    -6.4731  -6.2537  -6.2316  -6.0951  -6.0414  -5.9468  -5.9184  -5.8199
    -5.6532  -5.5738  -5.4175  -5.3628  -5.2277  -5.2111  -5.1164  -5.0961
    -5.0049  -4.9502  -4.9360  -4.7174  -4.6340  -4.4635  -4.4370  -4.3504
    -4.3398  -4.1511  -4.1473  -3.8875  -3.7804  -3.7552  -3.6748  -3.6328
    -3.3418  -3.3233  -3.2315  -3.1636  -3.0294  -2.9283  -2.8565  -2.8281
    -2.7659  -2.5161  -2.4820  -2.2959  -2.2350  -2.1463  -2.0446   0.1652
     0.3658   0.3726   0.7349   0.8845   0.9151   1.0045   1.0804   1.1199
     1.1644   1.2580   1.5862   1.6103   1.6643   1.7615   1.8901   1.9021
     1.9579   2.0339   2.1406   2.1829   2.2373   2.2798   2.3755   2.4500
     2.4950   2.6108   2.6976   2.8287   2.8415   2.9968   3.1874   3.2312
     3.3651   3.4699   3.8065   3.9523   4.0529   4.2092   4.2557   4.3137
     4.4715   4.5088   4.6114   4.6664   4.8372   4.9167   5.0376   5.3659
     5.5192   5.8610   6.0810   6.5676   6.7374   6.8094   6.9998   7.1329
     7.6052   7.6787   7.7775   7.7973   7.9373   8.0835   8.3296   8.3857
     8.5420   8.6619   8.6914   8.7806   8.8160   8.8434   8.9616   8.9826
     9.0835   9.2462   9.2838   9.3438   9.4468   9.4928   9.5364   9.6391
     9.7727   9.9170  10.0308  10.0657  10.0763  10.1374  10.2784  10.4373
    10.5822  10.6749  10.6949  10.7901  10.8762  10.9215  11.0065  11.1351
    11.2973  11.3060  11.3238  11.4254  11.5078  11.5652  11.6402  11.6935
    11.7711  11.8600  11.8730  11.9920  12.0501  12.2504  12.2921  12.3641
    12.4152  12.4839  12.5746  12.8377  12.8577  12.8983  12.9374  12.9464
    13.1052  13.2220  13.2636  13.3112  13.3662  13.5471  13.6225  13.6504
    13.6840  13.7676  13.8298  13.9075  13.9908  14.2035  14.2466  14.2986
    14.3640  14.3834  14.4994  14.6339  14.7928  14.8143  14.8236  14.8579
    14.9636  15.1413  15.1733  15.2513  15.3202  15.3907  15.4168  15.4413
    15.4664  15.5186  15.5621  15.5836  15.5916  15.6273  15.7212  15.7451
    15.7809  15.8282  15.8405  16.0059  16.1543  16.1766  16.2671  16.2781
    16.2919  16.2991  16.3774  16.4992  16.6245  16.7015  16.7550  16.8479
    16.9986  17.0471  17.0968  17.2437  17.3021  17.4087  17.5310  17.6002
    17.7131  17.7736  17.7930  17.8077  17.8379  17.9095  17.9278  17.9748
    18.0754  18.1077  18.2808  18.3975  18.5110  18.5580  18.6288  18.7615
    18.8334  18.8926  18.9819  19.0997  19.1259  19.1505  19.2544

          k = 0.2500 0.0000 0.0000 ( 29937 PWs)   bands (ev):

   -60.8365 -60.8110 -60.5617 -60.3239 -59.5676 -59.5338 -59.2310 -59.2038
   -37.2591 -37.0517 -37.0241 -36.9294 -36.9272 -36.9180 -36.9054 -36.7787
   -36.6915 -36.5614 -36.5232 -36.4427 -36.0609 -35.8590 -35.7875 -35.7575
   -35.6447 -35.6154 -35.5623 -35.5282 -35.5085 -35.4413 -35.3753 -35.2496
   -24.6145 -21.1949 -20.9517 -20.2465 -19.6633 -19.5726 -19.1495 -18.9880
   -18.9617 -18.9401 -18.9233 -18.8418 -18.7251 -18.6306 -18.5409 -18.2336
   -17.8831 -17.6305 -17.5708 -17.5283  -9.4474  -8.9034  -8.6581  -7.8203
    -7.3215  -7.2454  -7.1992  -7.1314  -6.9745  -6.5547  -6.5372  -6.4969
    -6.4202  -6.3838  -6.3254  -6.2984  -6.2560  -6.0640  -6.0126  -5.9853
    -5.7789  -5.6797  -5.5742  -5.4738  -5.2542  -5.0323  -4.9638  -4.8397
    -4.7836  -4.6908  -4.6149  -4.3977  -4.3591  -4.3176  -4.2791  -4.1798
    -4.1383  -4.0948  -4.0055  -3.9710  -3.8734  -3.8120  -3.6974  -3.6044
    -3.5066  -3.4094  -3.3526  -3.2072  -2.8806  -2.8570  -2.8410  -2.6497
    -2.6354  -2.5345  -2.4228  -2.3330  -2.2506  -2.1196  -2.0727   0.3002
     0.4680   0.6130   0.7084   0.7204   0.7229   0.8264   0.9869   1.0235
     1.2043   1.2758   1.3287   1.4872   1.5919   1.6926   1.7232   1.8537
     1.8907   1.9290   2.1017   2.2981   2.4056   2.4120   2.4575   2.4831
     2.5274   2.6013   2.7009   2.7702   2.9201   3.0220   3.0743   3.3347
     3.5219   3.6012   3.6295   3.6375   3.7093   3.8710   3.9787   4.0686
     4.3250   4.4402   4.5058   4.6857   5.0452   5.1643   5.5027   5.8181
     5.9749   6.1998   6.4875   6.5217   6.7156   6.9452   7.0643   7.1953
     7.3117   7.3669   7.4326   7.5413   7.7399   7.9322   8.0005   8.1864
     8.3453   8.4487   8.5061   8.6382   8.7401   8.8296   8.9288   9.1326
     9.1581   9.1988   9.2859   9.3579   9.3919   9.4603   9.5502   9.6297
     9.7333   9.8342   9.8821   9.9077   9.9538  10.0565  10.1912  10.2676
    10.4457  10.4725  10.5643  10.7833  10.8511  10.8941  10.9375  11.1078
    11.1517  11.1950  11.2842  11.3715  11.4261  11.5592  11.6620  11.7821
    11.8853  11.9473  12.0196  12.0530  12.1553  12.2293  12.2673  12.3478
    12.5367  12.5732  12.6565  12.7508  12.8512  12.9290  13.0740  13.1190
    13.2151  13.3268  13.4398  13.4974  13.5211  13.6164  13.7119  13.7493
    13.8147  13.8651  13.9145  14.0107  14.0386  14.0703  14.1742  14.3162
    14.3783  14.4501  14.5562  14.6161  14.6965  14.7787  14.8734  14.9449
    15.0601  15.0848  15.2133  15.2661  15.2900  15.3907  15.4210  15.4688
    15.6220  15.6863  15.7307  15.7968  15.9021  15.9316  16.0593  16.1281
    16.2039  16.2782  16.3283  16.4662  16.5095  16.5321  16.6483  16.6959
    16.7742  16.8256  16.8671  16.9387  17.0271  17.0788  17.1596  17.2382
    17.3815  17.4322  17.4825  17.5319  17.6222  17.7016  17.7332  17.7430
    17.8375  17.8821  17.9640  18.0384  18.1342  18.1816  18.2231  18.2893
    18.3733  18.4280  18.5444  18.6543  18.6994  18.7520  18.7604  18.8485
    18.8895  19.0106  19.0824  19.1239  19.2375  19.2682  19.2880

          k = 0.2500 0.2258 0.0000 ( 29912 PWs)   bands (ev):

   -60.8367 -60.8110 -60.5617 -60.3239 -59.5676 -59.5336 -59.2311 -59.2038
   -37.2593 -37.0517 -37.0242 -36.9282 -36.9270 -36.9180 -36.9063 -36.7794
   -36.6906 -36.5613 -36.5229 -36.4430 -36.0597 -35.8608 -35.7880 -35.7572
   -35.6447 -35.6154 -35.5623 -35.5295 -35.5078 -35.4412 -35.3753 -35.2496
   -24.6144 -21.1887 -20.9509 -20.2369 -19.6108 -19.5133 -19.1561 -19.0501
   -18.9874 -18.9556 -18.8848 -18.8388 -18.7693 -18.6656 -18.6068 -18.1871
   -17.8833 -17.6402 -17.5643 -17.5245  -9.4435  -8.9014  -8.6520  -7.8266
    -7.2765  -7.1790  -7.0276  -6.9428  -6.8871  -6.5730  -6.5162  -6.4352
    -6.3900  -6.3495  -6.3246  -6.2475  -6.1974  -6.0868  -6.0529  -5.8200
    -5.7819  -5.6780  -5.5191  -5.4761  -5.3248  -5.1347  -4.9642  -4.8242
    -4.7665  -4.7022  -4.6152  -4.5473  -4.4835  -4.4344  -4.3270  -4.2581
    -4.2135  -4.1487  -4.1181  -4.1080  -3.9986  -3.7981  -3.7281  -3.6584
    -3.6252  -3.4417  -3.2969  -3.2072  -2.9416  -2.8930  -2.8615  -2.6994
    -2.6543  -2.5326  -2.4770  -2.3252  -2.2415  -2.1248  -2.0559   0.3122
     0.4781   0.5738   0.6856   0.7260   0.9447   0.9957   1.0418   1.1117
     1.1762   1.2871   1.4081   1.5029   1.6116   1.7386   1.8238   1.8826
     1.9373   2.0071   2.1660   2.2522   2.3310   2.3520   2.3967   2.4766
     2.5049   2.5717   2.6331   2.6887   2.8294   2.9625   3.1750   3.3203
     3.4088   3.6148   3.7372   3.8381   3.8922   3.9800   4.0893   4.1317
     4.3198   4.5619   4.6003   4.7111   5.1896   5.2180   5.5630   5.6372
     5.6579   5.9722   6.0721   6.2543   6.4169   6.6044   6.7085   7.0547
     7.1308   7.3163   7.5203   7.5940   7.7258   7.9569   8.0100   8.1124
     8.2341   8.3290   8.5034   8.5539   8.7176   8.7812   8.8841   9.0164
     9.1449   9.2109   9.2791   9.3805   9.4858   9.6373   9.7364   9.7741
     9.8601  10.0001  10.1533  10.2830  10.3312  10.4206  10.4805  10.5556
    10.6579  10.8142  10.8780  10.9666  11.0251  11.0960  11.2036  11.3115
    11.4001  11.4295  11.5132  11.5765  11.6385  11.7239  11.8002  11.9151
    11.9728  12.1166  12.1739  12.2147  12.2671  12.3125  12.3862  12.4635
    12.5214  12.5919  12.6672  12.7230  12.8129  12.9271  12.9798  13.0464
    13.1207  13.1832  13.2734  13.3403  13.4212  13.5354  13.6341  13.7860
    13.8419  13.9271  14.0286  14.1159  14.1463  14.2049  14.2400  14.2892
    14.3416  14.3763  14.5323  14.5936  14.6536  14.6765  14.8021  14.8714
    14.8920  15.0323  15.1101  15.1540  15.2150  15.3086  15.3572  15.4096
    15.4645  15.5318  15.6357  15.6607  15.7088  15.7813  15.8341  15.9375
    16.0035  16.0944  16.1485  16.1801  16.2373  16.3295  16.4213  16.4654
    16.5374  16.5805  16.6838  16.7113  16.8086  16.8205  16.8885  17.0008
    17.0660  17.1411  17.2163  17.2622  17.3081  17.3435  17.4441  17.4564
    17.5481  17.6300  17.6538  17.8171  17.8556  17.8878  17.9606  18.0762
    18.1337  18.2146  18.2885  18.3927  18.4187  18.4947  18.5780  18.6159
    18.6490  18.7319  18.8142  18.8452  18.9531  19.0599  19.1007

          k = 0.2500-0.4516 0.0000 ( 29882 PWs)   bands (ev):

   -60.8368 -60.8110 -60.5617 -60.3238 -59.5677 -59.5335 -59.2313 -59.2038
   -37.2595 -37.0516 -37.0242 -36.9274 -36.9263 -36.9180 -36.9072 -36.7800
   -36.6897 -36.5612 -36.5225 -36.4432 -36.0585 -35.8624 -35.7885 -35.7571
   -35.6446 -35.6153 -35.5623 -35.5308 -35.5072 -35.4412 -35.3753 -35.2496
   -24.6143 -21.1827 -20.9501 -20.2277 -19.5438 -19.4409 -19.1456 -19.0975
   -18.9960 -18.9620 -18.9322 -18.9075 -18.7999 -18.6742 -18.6244 -18.1558
   -17.8834 -17.6481 -17.5600 -17.5204  -9.4395  -8.8984  -8.6469  -7.8330
    -7.2691  -7.1569  -6.9617  -6.6746  -6.5811  -6.4926  -6.4579  -6.3960
    -6.3862  -6.3173  -6.2910  -6.2172  -6.1989  -6.1436  -6.0586  -5.7251
    -5.6467  -5.5984  -5.4944  -5.4689  -5.3354  -5.0857  -4.9802  -4.9243
    -4.9098  -4.8335  -4.7465  -4.6993  -4.6783  -4.6209  -4.5151  -4.4238
    -4.2878  -4.2533  -4.1949  -4.1510  -4.0297  -3.7969  -3.7443  -3.6775
    -3.6193  -3.4693  -3.2179  -3.1257  -2.9330  -2.8989  -2.8744  -2.7971
    -2.6260  -2.5682  -2.5168  -2.3449  -2.2329  -2.1159  -2.0467   0.3174
     0.4537   0.4762   0.7013   0.8018   0.9727   1.0726   1.1066   1.1410
     1.1486   1.3843   1.5210   1.6283   1.7924   1.8183   1.8481   1.9831
     2.0061   2.0140   2.0550   2.1873   2.2650   2.3072   2.4055   2.4758
     2.5170   2.5885   2.5961   2.6519   2.7982   2.9477   2.9633   3.3558
     3.4324   3.5630   3.7212   3.9016   4.0216   4.1954   4.3168   4.3511
     4.5469   4.6409   4.6530   4.7261   4.8285   5.0945   5.3038   5.4703
     5.6512   5.8445   5.9532   6.2758   6.5399   6.6284   6.7051   6.8525
     6.9429   7.0494   7.1920   7.3384   7.4851   7.6485   7.8036   7.9341
     8.0501   8.3216   8.3925   8.4352   8.6090   8.7335   8.9832   9.0756
     9.1290   9.2026   9.3193   9.4574   9.7731   9.8670  10.0283  10.0708
    10.1660  10.1953  10.3857  10.5262  10.7449  10.8237  10.9097  11.0129
    11.1021  11.1575  11.2122  11.2449  11.3137  11.3431  11.4521  11.5028
    11.5873  11.6379  11.6748  11.7204  11.8514  11.9257  11.9504  12.0659
    12.0847  12.2208  12.2405  12.2900  12.3307  12.4613  12.4664  12.5079
    12.5869  12.6712  12.7424  12.8384  12.8772  12.9418  12.9932  13.0921
    13.1200  13.2651  13.2908  13.3602  13.4292  13.5141  13.5866  13.6323
    13.6977  13.7413  13.7788  13.8205  13.9187  13.9672  13.9727  14.0469
    14.1109  14.2018  14.3299  14.3586  14.4466  14.5375  14.6176  14.7231
    14.7578  14.8163  14.8250  14.8551  14.9489  15.0084  15.1007  15.1845
    15.3177  15.3321  15.3624  15.4470  15.5675  15.5850  15.6555  15.7020
    15.7704  15.8637  15.8775  16.0817  16.1509  16.2117  16.3842  16.4455
    16.5372  16.5657  16.6242  16.7004  16.7362  16.8253  17.0176  17.0384
    17.1073  17.1830  17.2039  17.2635  17.3743  17.4467  17.4610  17.4927
    17.5437  17.6242  17.6940  17.7572  17.7712  17.8561  17.8810  17.9475
    17.9622  18.0641  18.1451  18.1850  18.2039  18.3233  18.4190  18.4473
    18.5321  18.6156  18.6555  18.7338  18.7629  18.8784  18.9148

          k =-0.5000 0.0000 0.0000 ( 29982 PWs)   bands (ev):

   -60.8256 -60.8241 -60.5620 -60.3253 -59.5618 -59.5416 -59.2183 -59.2181
   -37.1425 -37.1189 -37.0069 -36.9954 -36.9180 -36.9168 -36.9163 -36.7216
   -36.6853 -36.5616 -36.5256 -36.5027 -35.9169 -35.9025 -35.8339 -35.8116
   -35.6394 -35.6168 -35.5184 -35.5180 -35.4428 -35.4337 -35.3816 -35.3752
   -24.6145 -21.0757 -21.0173 -20.2636 -19.4813 -19.3148 -19.2841 -19.2602
   -19.0488 -18.8764 -18.8209 -18.7912 -18.7623 -18.6878 -18.6855 -17.9925
   -17.9761 -17.6320 -17.6270 -17.6201  -9.4479  -8.8431  -8.7458  -7.8191
    -7.3176  -7.0389  -6.9943  -6.9220  -6.8017  -6.7781  -6.6608  -6.6376
    -6.6064  -6.5165  -6.4144  -6.3244  -6.2696  -5.9292  -5.9013  -5.7030
    -5.6864  -5.6226  -5.5575  -5.3423  -5.1113  -5.0855  -4.9716  -4.9081
    -4.8627  -4.7701  -4.7219  -4.4638  -4.4116  -4.3893  -4.2143  -4.1254
    -4.0811  -4.0286  -3.8642  -3.8302  -3.7826  -3.7736  -3.7639  -3.7377
    -3.6050  -3.5898  -3.5520  -3.3645  -3.0285  -2.9836  -2.9384  -2.8952
    -2.4481  -2.4338  -2.3589  -2.3350  -2.2935  -2.2549  -2.1184   0.4114
     0.5405   0.6487   0.7220   0.7611   0.9160   0.9329   1.0626   1.0784
     1.1436   1.1796   1.2078   1.2922   1.3877   1.6455   1.7809   1.8448
     1.9191   1.9221   1.9758   2.3800   2.3854   2.3926   2.4480   2.5630
     2.5897   2.6295   2.7875   2.8971   2.9024   3.1048   3.3028   3.3545
     3.6877   3.6953   3.7097   3.7164   3.7427   3.8030   4.0997   4.1947
     4.3111   4.3788   4.5375   4.5756   4.7328   4.8301   5.2553   5.2769
     5.7811   5.9104   6.3830   6.6248   6.8805   6.9232   7.2324   7.2934
     7.4388   7.6672   7.6907   7.7388   7.8677   7.9705   8.0027   8.1150
     8.1331   8.1903   8.2143   8.3026   8.3660   8.5432   8.6280   8.7440
     8.8553   8.8616   9.0742   9.2649   9.3816   9.4372   9.5830   9.6316
     9.6750   9.8127   9.8711  10.0412  10.1288  10.2048  10.3623  10.4400
    10.4929  10.5133  10.5989  10.7743  10.8751  10.9638  10.9771  11.1025
    11.2319  11.2839  11.3921  11.7051  11.8125  11.8602  11.9601  12.0114
    12.1113  12.1389  12.2569  12.3183  12.3926  12.5192  12.6100  12.6938
    12.8237  12.8896  13.0160  13.0606  13.1048  13.1646  13.2256  13.2879
    13.3680  13.4436  13.6014  13.6061  13.6640  13.7474  13.8890  13.9543
    14.0659  14.1604  14.2160  14.3354  14.3443  14.4047  14.4399  14.5244
    14.5387  14.5717  14.6178  14.7520  14.9928  14.9995  15.0538  15.1115
    15.3222  15.4572  15.5027  15.5300  15.6269  15.6771  15.7758  15.8061
    15.8486  15.8935  15.9450  16.0737  16.1250  16.1663  16.1928  16.2747
    16.3184  16.3696  16.4104  16.4411  16.4991  16.5183  16.5402  16.6423
    16.6694  16.6924  16.7410  16.7769  16.7895  16.9481  16.9815  16.9948
    17.0498  17.1090  17.1918  17.2773  17.2912  17.3972  17.4213  17.6044
    17.6368  17.6557  17.7081  17.7423  17.8509  17.8737  18.1157  18.1606
    18.1811  18.2610  18.2892  18.3332  18.4260  18.4641  18.4682  18.4900
    18.5075  18.5380  18.5718  18.6685  18.7111  18.7461  18.8081

          k =-0.5000 0.2258 0.0000 ( 29954 PWs)   bands (ev):

   -60.8257 -60.8241 -60.5620 -60.3253 -59.5618 -59.5416 -59.2184 -59.2182
   -37.1426 -37.1190 -37.0069 -36.9954 -36.9177 -36.9167 -36.9160 -36.7221
   -36.6847 -36.5613 -36.5251 -36.5033 -35.9162 -35.9018 -35.8350 -35.8126
   -35.6394 -35.6168 -35.5185 -35.5184 -35.4428 -35.4337 -35.3816 -35.3752
   -24.6144 -21.0734 -21.0150 -20.2580 -19.4219 -19.2827 -19.2362 -19.2001
   -19.0737 -18.8760 -18.8657 -18.8409 -18.8164 -18.7380 -18.7267 -17.9874
   -17.9692 -17.6569 -17.6191 -17.6008  -9.4438  -8.8350  -8.7373  -7.8245
    -7.3193  -6.9693  -6.8238  -6.7999  -6.6602  -6.6182  -6.5854  -6.5710
    -6.5275  -6.4634  -6.3179  -6.2461  -6.1937  -5.9348  -5.9067  -5.7256
    -5.6799  -5.6218  -5.5578  -5.3841  -5.2747  -5.2622  -5.1990  -5.0435
    -4.8868  -4.7269  -4.6437  -4.4750  -4.4268  -4.4005  -4.2790  -4.2590
    -4.1839  -4.1612  -4.0956  -4.0612  -3.9939  -3.9037  -3.7713  -3.7430
    -3.6328  -3.5761  -3.5388  -3.3840  -2.9408  -2.8934  -2.8449  -2.8271
    -2.5178  -2.4622  -2.4266  -2.3594  -2.2681  -2.2005  -2.0752   0.4333
     0.5561   0.6358   0.7085   0.7139   0.9170   0.9491   1.1196   1.1925
     1.2329   1.3182   1.4309   1.4469   1.5142   1.6243   1.7843   1.9236
     1.9769   1.9906   2.0444   2.2307   2.2961   2.4578   2.5047   2.5725
     2.5763   2.6084   2.7126   2.7354   2.7724   2.8970   2.9557   3.4086
     3.5578   3.6027   3.7943   3.8150   3.9582   3.9870   4.1205   4.3591
     4.4550   4.5658   4.6414   4.6643   4.8999   4.9963   5.4173   5.4493
     5.9036   5.9408   6.2035   6.2741   6.3256   6.4476   6.6832   6.7453
     6.8002   7.0429   7.1483   7.3423   7.3563   7.4934   7.7923   7.9096
     8.0500   8.2860   8.3273   8.5468   8.7114   8.7701   8.9172   8.9391
     9.1773   9.2741   9.3773   9.5180   9.6492   9.7682   9.9251  10.0046
    10.0443  10.0902  10.1605  10.2136  10.3054  10.4159  10.5136  10.5539
    10.8102  10.8925  10.9399  11.0515  11.1594  11.2559  11.2904  11.4471
    11.4842  11.6458  11.7654  11.8243  11.9172  11.9721  12.1697  12.2213
    12.2421  12.3741  12.4076  12.4970  12.6129  12.6651  12.8165  12.8577
    12.9293  12.9900  13.1102  13.1992  13.2730  13.3304  13.4106  13.4427
    13.4980  13.5744  13.6088  13.6464  13.7646  13.7827  13.9269  13.9751
    14.0216  14.0756  14.1107  14.2096  14.2740  14.3039  14.3265  14.3752
    14.5439  14.5595  14.6090  14.6504  14.8197  14.8493  14.9083  14.9343
    14.9665  15.0231  15.0602  15.1042  15.1485  15.1802  15.2098  15.2584
    15.3379  15.4377  15.4671  15.5057  15.5683  15.6351  15.6850  15.7421
    15.7859  15.8084  15.8622  15.8848  16.0003  16.0946  16.1467  16.2085
    16.2895  16.3896  16.4396  16.4725  16.5509  16.6030  16.6594  16.7644
    16.8209  16.8608  16.9215  16.9713  17.0890  17.1145  17.1719  17.2692
    17.3109  17.3810  17.4277  17.4576  17.5626  17.6697  17.7764  17.8684
    17.9097  17.9158  18.0167  18.1270  18.2668  18.3673  18.4719  18.5410
    18.5861  18.6283  18.6688  18.7196  18.7363  18.7867  18.8310

          k =-0.5000-0.4516 0.0000 ( 29868 PWs)   bands (ev):

   -60.8257 -60.8242 -60.5619 -60.3252 -59.5617 -59.5415 -59.2185 -59.2183
   -37.1427 -37.1191 -37.0069 -36.9954 -36.9174 -36.9167 -36.9157 -36.7225
   -36.6841 -36.5610 -36.5247 -36.5040 -35.9156 -35.9012 -35.8361 -35.8137
   -35.6394 -35.6168 -35.5189 -35.5184 -35.4428 -35.4337 -35.3816 -35.3751
   -24.6142 -21.0712 -21.0128 -20.2524 -19.3204 -19.2431 -19.2300 -19.0785
   -19.0407 -19.0022 -18.9749 -18.8693 -18.8161 -18.8017 -18.7651 -17.9828
   -17.9631 -17.6679 -17.6181 -17.5885  -9.4397  -8.8269  -8.7289  -7.8297
    -7.3211  -6.9515  -6.7395  -6.7385  -6.5328  -6.4332  -6.4017  -6.3714
    -6.3477  -6.2875  -6.1385  -6.1187  -6.0922  -5.8997  -5.8805  -5.8534
    -5.7478  -5.6644  -5.5335  -5.5078  -5.5005  -5.4629  -5.3509  -5.0712
    -4.9037  -4.7265  -4.6307  -4.6201  -4.5838  -4.5723  -4.4777  -4.4385
    -4.3867  -4.3065  -4.1602  -4.1457  -4.0665  -4.0189  -3.8926  -3.6909
    -3.5747  -3.5425  -3.4928  -3.3250  -2.9108  -2.8321  -2.7427  -2.7382
    -2.6449  -2.5055  -2.4172  -2.3795  -2.2211  -2.1749  -2.0450   0.4607
     0.5949   0.6428   0.6587   0.6945   0.9163   0.9757   1.1338   1.1961
     1.3185   1.4084   1.5154   1.5804   1.7552   1.9217   1.9353   2.0118
     2.0204   2.1873   2.1918   2.2172   2.2469   2.2609   2.2678   2.4359
     2.4510   2.5285   2.5606   2.6046   2.6205   2.7702   2.8405   3.4920
     3.6476   3.6907   3.7115   3.7387   4.0451   4.1121   4.1675   4.5207
     4.5538   4.9051   4.9068   4.9486   5.3153   5.3314   5.4818   5.4839
     5.5658   5.5742   5.8225   5.8511   6.0060   6.0880   6.3324   6.4415
     6.5143   6.7694   6.9303   7.1790   7.2284   7.5888   7.6208   7.8255
     7.8887   8.0280   8.2388   8.3610   8.4578   8.7201   8.7388   8.8751
     9.0981   9.1843   9.4679   9.5191   9.7598   9.8031  10.0911  10.1937
    10.4833  10.5220  10.6881  10.7491  10.7883  10.9122  10.9481  11.2497
    11.4396  11.5835  11.6135  11.7754  11.8314  11.8455  11.8786  12.0515
    12.0872  12.1515  12.2407  12.2706  12.3334  12.4128  12.4549  12.4627
    12.5015  12.6283  12.7022  12.7136  12.7563  12.7790  12.8459  12.8695
    12.9950  13.0134  13.0406  13.0549  13.1214  13.1661  13.2351  13.2610
    13.4277  13.4726  13.5045  13.5788  13.6219  13.6320  13.6923  13.7332
    13.7607  13.8166  13.8873  13.9777  13.9967  14.0131  14.0870  14.0911
    14.1625  14.2341  14.2719  14.3049  14.3328  14.3998  14.4185  14.4684
    14.4880  14.5285  14.6306  14.6814  14.7372  14.7654  14.8355  14.9629
    14.9949  15.0167  15.0714  15.1086  15.1299  15.1664  15.2540  15.3194
    15.4798  15.5056  15.6470  15.7556  15.8170  15.8583  15.9274  16.0181
    16.0601  16.0698  16.1659  16.1888  16.2257  16.2380  16.5175  16.5553
    16.5648  16.8458  16.8604  16.9175  16.9441  16.9663  17.0351  17.1281
    17.2257  17.2478  17.3344  17.4337  17.4446  17.4881  17.5956  17.6043
    17.8184  17.9782  18.0585  18.1082  18.1243  18.1465  18.2737  18.2919
    18.3554  18.5397  18.5690  18.6011  18.8009  18.8073  18.9449

          k =-0.2500 0.2258 0.0000 ( 29912 PWs)   bands (ev):

   -60.8367 -60.8110 -60.5617 -60.3239 -59.5676 -59.5336 -59.2311 -59.2038
   -37.2593 -37.0517 -37.0242 -36.9281 -36.9271 -36.9180 -36.9063 -36.7793
   -36.6906 -36.5613 -36.5229 -36.4430 -36.0597 -35.8606 -35.7879 -35.7573
   -35.6447 -35.6154 -35.5623 -35.5295 -35.5078 -35.4412 -35.3753 -35.2496
   -24.6144 -21.1888 -20.9509 -20.2369 -19.6111 -19.5132 -19.1552 -19.0502
   -18.9831 -18.9563 -18.8912 -18.8388 -18.7694 -18.6636 -18.6065 -18.1871
   -17.8833 -17.6402 -17.5643 -17.5245  -9.4435  -8.9011  -8.6533  -7.8266
    -7.2730  -7.1729  -7.0293  -6.9477  -6.8871  -6.5762  -6.5164  -6.4357
    -6.4007  -6.3535  -6.3290  -6.2708  -6.1719  -6.0697  -6.0397  -5.8458
    -5.7731  -5.6650  -5.5050  -5.4696  -5.3306  -5.1277  -4.9582  -4.8292
    -4.7821  -4.7303  -4.6072  -4.5549  -4.4816  -4.4353  -4.3311  -4.2669
    -4.2175  -4.1711  -4.1535  -4.0527  -3.9799  -3.7816  -3.7404  -3.6820
    -3.6269  -3.4549  -3.2899  -3.1485  -2.9213  -2.8694  -2.8539  -2.7368
    -2.6408  -2.5610  -2.4760  -2.3460  -2.2416  -2.1163  -2.0648   0.3122
     0.4781   0.5810   0.6856   0.7261   0.9445   0.9951   1.0392   1.1114
     1.1754   1.2860   1.4072   1.5026   1.6116   1.7356   1.8222   1.8845
     1.9398   2.0073   2.1663   2.2523   2.3316   2.3533   2.3923   2.4758
     2.5055   2.5713   2.6349   2.6887   2.8296   2.9629   3.1752   3.3203
     3.4083   3.6164   3.7372   3.8373   3.8919   3.9819   4.0896   4.1311
     4.3204   4.5635   4.6013   4.7105   5.1879   5.2199   5.5716   5.6442
     5.6585   5.9773   6.0699   6.2516   6.4174   6.6037   6.6997   7.0352
     7.1291   7.3062   7.5239   7.5869   7.7227   7.9558   8.0187   8.1259
     8.2251   8.3459   8.4865   8.5354   8.7157   8.7947   8.9024   9.0093
     9.1386   9.2215   9.2676   9.3838   9.4996   9.6719   9.7293   9.7622
     9.8602   9.9966  10.1565  10.2854  10.3268  10.4016  10.4775  10.5717
    10.6466  10.8142  10.8745  10.9607  11.0227  11.1212  11.1949  11.3000
    11.3925  11.4177  11.4977  11.5886  11.6419  11.7383  11.8066  11.9101
    11.9952  12.1277  12.1713  12.2227  12.2635  12.3072  12.3850  12.4713
    12.5232  12.5935  12.6750  12.7368  12.8024  12.9718  12.9841  13.0426
    13.1121  13.2004  13.2619  13.3445  13.4533  13.5501  13.6327  13.7637
    13.8351  13.9069  13.9800  14.0674  14.1226  14.2069  14.2532  14.2911
    14.3504  14.3858  14.5234  14.6008  14.6282  14.6600  14.7764  14.8493
    14.9082  15.0582  15.1004  15.1633  15.2077  15.3231  15.3644  15.4180
    15.4995  15.5629  15.6279  15.6738  15.6904  15.7754  15.8427  15.9389
    16.0064  16.1106  16.1561  16.1792  16.2562  16.3222  16.4236  16.4680
    16.5133  16.5705  16.6289  16.7153  16.7984  16.8263  16.8805  16.9449
    17.0528  17.1194  17.1738  17.2626  17.2997  17.3196  17.4323  17.4716
    17.5491  17.5973  17.6725  17.8253  17.8872  17.9630  18.0006  18.0619
    18.1473  18.1977  18.3060  18.3707  18.4213  18.4965  18.5782  18.6114
    18.6528  18.7331  18.8000  18.8673  18.9626  19.0711  19.1095

     the Fermi energy is    -2.0491 ev

!    total energy              =   -1597.25454276 Ry
     Harris-Foulkes estimate   =   -1597.25454364 Ry
     estimated scf accuracy    <       0.00000097 Ry

     The total energy is the sum of the following terms:

     one-electron contribution =  -19195.57190964 Ry
     hartree contribution      =    9619.88547892 Ry
     xc contribution           =    -284.67225663 Ry
     ewald contribution        =    8260.18478952 Ry
     Hubbard energy            =       2.92090799 Ry
     smearing contrib. (-TS)   =      -0.00155292 Ry

     convergence has been achieved in  28 iterations

     Forces acting on atoms (Ry/au):


     negative rho (up, down):  0.107E+00 0.000E+00
     atom    1 type  1   force =    -0.00253767   -0.01317984   -0.01736159
     atom    2 type  1   force =     0.00000661    0.01588621   -0.01342961
     atom    3 type  2   force =     0.05266241   -0.00710624   -0.01221807
     atom    4 type  2   force =     0.00044383    0.00829717   -0.00422633
     atom    5 type  1   force =    -0.00297741   -0.08641446   -0.00050579
     atom    6 type  1   force =    -0.00531582    0.08573239    0.00014554
     atom    7 type  1   force =     0.00007185   -0.00106722   -0.01466268
     atom    8 type  1   force =     0.00108886   -0.00070520    0.01187648
     atom    9 type  2   force =    -0.00043100   -0.00046057   -0.02054933
     atom   10 type  2   force =    -0.00002969    0.00053490    0.03337709
     atom   11 type  1   force =    -0.02127734   -0.01399312   -0.00069442
     atom   12 type  1   force =    -0.01819628    0.01771456    0.00017132
     atom   13 type  1   force =     0.00012675   -0.00169783    0.02686891
     atom   14 type  1   force =    -0.00407078   -0.01283484   -0.01737247
     atom   15 type  1   force =     0.00007955    0.01353015   -0.01238246
     atom   16 type  2   force =    -0.05246210   -0.00767354   -0.01221967
     atom   17 type  2   force =     0.00012443    0.00745595   -0.00583191
     atom   18 type  1   force =     0.00681706   -0.08641706   -0.00042292
     atom   19 type  1   force =     0.00552808    0.08614568    0.00025249
     atom   20 type  1   force =    -0.00009231   -0.00066256    0.02626860
     atom   21 type  1   force =     0.00111125   -0.00028164    0.01371225
     atom   22 type  2   force =    -0.00011953   -0.00043942   -0.02054241
     atom   23 type  2   force =    -0.00003274   -0.00698026   -0.01803341
     atom   24 type  1   force =     0.02144703   -0.01394203   -0.00067749
     atom   25 type  1   force =     0.01805470    0.01759082    0.00015814
     atom   26 type  1   force =     0.00021468   -0.00448373    0.02651512
     atom   27 type  3   force =     0.00004859    0.00045326    0.00150355
     atom   28 type  3   force =    -0.00003920    0.00080475    0.00267090
     atom   29 type  3   force =    -0.00026481   -0.00066114    0.00358417
     atom   30 type  3   force =     0.00001304   -0.00064732    0.00300725
     atom   31 type  1   force =     0.00016079    0.00925291    0.02227262
     atom   32 type  1   force =    -0.00017364   -0.00437536   -0.00007748
     atom   33 type  3   force =     0.00002082    0.00062461   -0.00117641

     Total force =     0.082868     Total SCF correction =     0.003669

     BFGS Geometry Optimization

     number of scf cycles    =   1
     number of bfgs steps    =   0

     energy   new            =   -1597.2545427638 Ry

     new trust radius        =       0.0333770867 bohr
     new conv_thr            =       0.0000010000 Ry


ATOMIC_POSITIONS (crystal)
O0       0.000000000   0.000000000   0.377674300    0   0   1
O0       0.000000000   0.500000000   0.399032593    0   0   1
Ti1      0.250000000   0.500000000   0.450856717    0   0   1
Ti1      0.000000000   0.000000000   0.451745846    0   0   1
O0       0.250000000   0.810000000   0.449959929    0   0   1
O0       0.250000000   0.190000000   0.450892898    0   0   1
O0       0.000000000   0.500000000   0.498068040    0   0   1
O0       0.000000000   0.000000000   0.525946482    0   0   1
Ti1      0.250000000   0.000000000   0.580140826    0   0   1
Ti1      0.000000000   0.500000000   0.568624597    0   0   1
O0       0.250000000   0.690000000   0.578346173    0   0   1
O0       0.250000000   0.310000000   0.579413411    0   0   1
O0       0.000000000   0.000000000   0.622485008    0   0   1
O0       0.500000000   0.000000000   0.378424083    0   0   1
O0       0.500000000   0.500000000   0.398703443    0   0   1
Ti1      0.750000000   0.500000000   0.450866685    0   0   1
Ti1      0.500000000   0.000000000   0.453103876    0   0   1
O0       0.750000000   0.810000000   0.449901579    0   0   1
O0       0.750000000   0.190000000   0.450935027    0   0   1
O0       0.500000000   0.500000000   0.496253054    0   0   1
O0       0.500000000   0.000000000   0.526163035    0   0   1
Ti1      0.750000000   0.000000000   0.580140964    0   0   1
Ti1      0.500000000   0.500000000   0.584820923    0   0   1
O0       0.750000000   0.690000000   0.578336510    0   0   1
O0       0.750000000   0.310000000   0.579393149    0   0   1
O0       0.500000000   0.000000000   0.622147963    0   0   1
H2      -0.000455671   0.626066474   0.378859938
H2       0.499716507   0.624974758   0.378143182
H2       0.148976408   0.032986798   0.363681367
H2       0.648281162   0.034437910   0.364319880
O0       0.500310000   0.527704580   0.658233487    0   1   1
O0       0.499120000   0.349777915   0.688048457    0   1   1
H2       0.500360000   0.413300262   0.721806576    0   1   1


     Check: negative starting charge=   -0.102033
     NEW-OLD atomic charge density approx. for the potential

     Check: negative/imaginary core charge=   -0.000006    0.000000
     Check: negative starting charge=   -0.101690

     negative rho (up, down):  0.107E+00 0.000E+00
 Atomic wfc used for LDA+U Projector are NOT orthogonalized

     total cpu time spent up to now is     6068.5 secs

     per-process dynamical memory:   443.2 Mb

     Self-consistent Calculation

     iteration #  1     ecut=    40.00 Ry     beta=0.70
     Davidson diagonalization with overlap
     ethr =  1.00E-06,  avg # of iterations =  4.8
 --- enter write_ns ---
 LDA+U parameters:
U( 2)     =  5.50000000
alpha( 2) =  0.00000000
atom    3   Tr[ns(na)] =   2.63536
    eigenvalues: 
  0.141  0.151  0.173  0.410  0.443
    eigenvectors:
  0.647  0.131  0.038  0.160  0.025
  0.002  0.000  0.001  0.198  0.798
  0.166  0.275  0.559  0.000  0.000
  0.152  0.026  0.006  0.642  0.175
  0.034  0.568  0.396  0.000  0.002
    occupations:
  0.194  0.005 -0.005  0.105  0.001
  0.005  0.435  0.002 -0.017  0.013
 -0.005  0.002  0.162  0.007 -0.011
  0.105 -0.017  0.007  0.367 -0.001
  0.001  0.013 -0.011 -0.001  0.160
atom    4   Tr[ns(na)] =   2.73304
    eigenvalues: 
  0.136  0.169  0.185  0.430  0.447
    eigenvectors:
  0.006  0.002  0.000  0.000  0.991
  0.001  0.855  0.141  0.000  0.002
  0.001  0.140  0.859  0.000  0.000
  0.992  0.002  0.000  0.000  0.006
  0.000  0.000  0.000  1.000  0.000
    occupations:
  0.444  0.014  0.005 -0.024  0.000
  0.014  0.172 -0.005  0.000 -0.003
  0.005 -0.005  0.183  0.001  0.000
 -0.024  0.000  0.001  0.138  0.000
  0.000 -0.003  0.000  0.000  0.430
atom    9   Tr[ns(na)] =   2.73911
    eigenvalues: 
  0.143  0.186  0.201  0.384  0.456
    eigenvectors:
  0.000  0.001  0.916  0.084  0.000
  0.000  0.000  0.000  0.000  1.000
  1.000  0.000  0.000  0.000  0.000
  0.000  0.000  0.084  0.916  0.000
  0.000  0.999  0.001  0.000  0.000
    occupations:
  0.216  0.001  0.001  0.051  0.000
  0.001  0.456  0.000 -0.001  0.000
  0.001  0.000  0.143  0.002  0.000
  0.051 -0.001  0.002  0.369  0.000
  0.000  0.000  0.000  0.000  0.186
atom   10   Tr[ns(na)] =   2.65945
    eigenvalues: 
  0.144  0.188  0.203  0.337  0.458
    eigenvectors:
  0.018  0.000  0.000  0.982  0.000
  0.000  0.000  1.000  0.000  0.000
  0.000  1.000  0.000  0.000  0.000
  0.982  0.000  0.000  0.018  0.000
  0.000  0.000  0.000  0.000  1.000
    occupations:
  0.334  0.000 -0.001 -0.025  0.000
  0.000  0.203  0.000  0.000  0.002
 -0.001  0.000  0.188 -0.001  0.000
 -0.025  0.000 -0.001  0.147  0.000
  0.000  0.002  0.000  0.000  0.458
atom   16   Tr[ns(na)] =   2.63560
    eigenvalues: 
  0.141  0.151  0.173  0.410  0.443
    eigenvectors:
  0.654  0.124  0.038  0.160  0.025
  0.002  0.001  0.001  0.197  0.799
  0.160  0.279  0.561  0.000  0.000
  0.153  0.024  0.006  0.642  0.175
  0.031  0.573  0.394  0.001  0.002
    occupations:
  0.194 -0.005 -0.005  0.105 -0.002
 -0.005  0.435 -0.002  0.017  0.013
 -0.005 -0.002  0.162  0.007  0.011
  0.105  0.017  0.007  0.367  0.001
 -0.002  0.013  0.011  0.001  0.160
atom   17   Tr[ns(na)] =   2.73293
    eigenvalues: 
  0.135  0.171  0.186  0.425  0.449
    eigenvectors:
  0.006  0.002  0.000  0.000  0.991
  0.001  0.874  0.123  0.000  0.002
  0.000  0.123  0.877  0.000  0.000
  0.993  0.001  0.000  0.000  0.006
  0.000  0.000  0.000  1.000  0.000
    occupations:
  0.447  0.013  0.005 -0.024  0.000
  0.013  0.173 -0.005  0.000 -0.002
  0.005 -0.005  0.184  0.000  0.000
 -0.024  0.000  0.000  0.137  0.000
  0.000 -0.002  0.000  0.000  0.425
atom   22   Tr[ns(na)] =   2.73918
    eigenvalues: 
  0.143  0.186  0.201  0.384  0.456
    eigenvectors:
  0.000  0.001  0.916  0.084  0.000
  0.000  0.000  0.000  0.000  1.000
  1.000  0.000  0.000  0.000  0.000
  0.000  0.000  0.084  0.916  0.000
  0.000  0.999  0.001  0.000  0.000
    occupations:
  0.216 -0.001  0.001  0.051  0.000
 -0.001  0.456  0.000  0.001  0.000
  0.001  0.000  0.143  0.002  0.000
  0.051  0.001  0.002  0.369  0.000
  0.000  0.000  0.000  0.000  0.186
atom   23   Tr[ns(na)] =   2.64310
    eigenvalues: 
  0.136  0.146  0.206  0.376  0.458
    eigenvectors:
  0.001  0.007  0.000  0.992  0.000
  0.000  0.000  1.000  0.000  0.000
  0.943  0.056  0.000  0.000  0.000
  0.055  0.937  0.000  0.008  0.000
  0.000  0.000  0.000  0.000  1.000
    occupations:
  0.374  0.000  0.004 -0.021  0.000
  0.000  0.206  0.000  0.000  0.000
  0.004  0.000  0.137  0.002  0.000
 -0.021  0.000  0.002  0.147  0.000
  0.000  0.000  0.000  0.000  0.458
N of occupied +U levels =  21.5177683
 --- exit write_ns ---

     negative rho (up, down):  0.107E+00 0.000E+00

     total cpu time spent up to now is     6421.2 secs

     total energy              =   -1597.06039992 Ry
     Harris-Foulkes estimate   =   -1597.26297155 Ry
     estimated scf accuracy    <       0.23310325 Ry

     iteration #  2     ecut=    40.00 Ry     beta=0.70
     Davidson diagonalization with overlap
     ethr =  1.05E-04,  avg # of iterations =  5.0

     negative rho (up, down):  0.121E+00 0.000E+00

     total cpu time spent up to now is     6688.5 secs

     total energy              =   -1594.84610246 Ry
     Harris-Foulkes estimate   =   -1599.01740285 Ry
     estimated scf accuracy    <      66.13988135 Ry

     iteration #  3     ecut=    40.00 Ry     beta=0.70
     Davidson diagonalization with overlap
     ethr =  1.05E-04,  avg # of iterations =  6.1

     negative rho (up, down):  0.109E+00 0.000E+00

     total cpu time spent up to now is     6949.3 secs

     total energy              =   -1597.22134065 Ry
     Harris-Foulkes estimate   =   -1597.45820835 Ry
     estimated scf accuracy    <       0.99647537 Ry

     iteration #  4     ecut=    40.00 Ry     beta=0.70
     Davidson diagonalization with overlap
     ethr =  1.05E-04,  avg # of iterations =  5.3

     negative rho (up, down):  0.107E+00 0.000E+00

     total cpu time spent up to now is     7169.4 secs

     total energy              =   -1597.26656620 Ry
     Harris-Foulkes estimate   =   -1597.30359720 Ry
     estimated scf accuracy    <       0.40367117 Ry

     iteration #  5     ecut=    40.00 Ry     beta=0.70
     Davidson diagonalization with overlap
     ethr =  1.05E-04,  avg # of iterations =  1.0

     negative rho (up, down):  0.107E+00 0.000E+00

     total cpu time spent up to now is     7341.2 secs

     total energy              =   -1597.26940149 Ry
     Harris-Foulkes estimate   =   -1597.28289643 Ry
     estimated scf accuracy    <       0.25966006 Ry

     iteration #  6     ecut=    40.00 Ry     beta=0.70
     Davidson diagonalization with overlap
     ethr =  1.05E-04,  avg # of iterations =  1.0

     negative rho (up, down):  0.107E+00 0.000E+00

     total cpu time spent up to now is     7510.8 secs

     total energy              =   -1597.26514518 Ry
     Harris-Foulkes estimate   =   -1597.27499167 Ry
     estimated scf accuracy    <       0.18137165 Ry

     iteration #  7     ecut=    40.00 Ry     beta=0.70
     Davidson diagonalization with overlap
     ethr =  8.21E-05,  avg # of iterations =  1.0

     negative rho (up, down):  0.107E+00 0.000E+00

     total cpu time spent up to now is     7681.1 secs

     total energy              =   -1597.26003799 Ry
     Harris-Foulkes estimate   =   -1597.26689309 Ry
     estimated scf accuracy    <       0.18719884 Ry

     iteration #  8     ecut=    40.00 Ry     beta=0.70
     Davidson diagonalization with overlap
     ethr =  8.21E-05,  avg # of iterations =  1.7

     negative rho (up, down):  0.107E+00 0.000E+00

     total cpu time spent up to now is     7861.9 secs

     total energy              =   -1597.25762083 Ry
     Harris-Foulkes estimate   =   -1597.26096058 Ry
     estimated scf accuracy    <       0.07798680 Ry

     iteration #  9     ecut=    40.00 Ry     beta=0.70
     Davidson diagonalization with overlap
     ethr =  3.53E-05,  avg # of iterations =  3.1

     negative rho (up, down):  0.107E+00 0.000E+00

     total cpu time spent up to now is     8054.0 secs

     total energy              =   -1597.25943003 Ry
     Harris-Foulkes estimate   =   -1597.25971720 Ry
     estimated scf accuracy    <       0.01625205 Ry

     iteration # 10     ecut=    40.00 Ry     beta=0.70
     Davidson diagonalization with overlap
     ethr =  7.35E-06,  avg # of iterations =  8.0

     negative rho (up, down):  0.107E+00 0.000E+00

     total cpu time spent up to now is     8273.2 secs

     total energy              =   -1597.25939271 Ry
     Harris-Foulkes estimate   =   -1597.25956312 Ry
     estimated scf accuracy    <       0.00367299 Ry

     iteration # 11     ecut=    40.00 Ry     beta=0.70
     Davidson diagonalization with overlap
     ethr =  1.66E-06,  avg # of iterations =  1.8

     negative rho (up, down):  0.107E+00 0.000E+00

     total cpu time spent up to now is     8448.2 secs

     total energy              =   -1597.25920755 Ry
     Harris-Foulkes estimate   =   -1597.25956018 Ry
     estimated scf accuracy    <       0.00351002 Ry

     iteration # 12     ecut=    40.00 Ry     beta=0.70
     Davidson diagonalization with overlap
     ethr =  1.59E-06,  avg # of iterations =  1.7

     negative rho (up, down):  0.107E+00 0.000E+00

     total cpu time spent up to now is     8625.8 secs

     total energy              =   -1597.25949757 Ry
     Harris-Foulkes estimate   =   -1597.25988329 Ry
     estimated scf accuracy    <       0.03441503 Ry

     iteration # 13     ecut=    40.00 Ry     beta=0.70
     Davidson diagonalization with overlap
     ethr =  1.59E-06,  avg # of iterations =  1.0

     negative rho (up, down):  0.107E+00 0.000E+00

     total cpu time spent up to now is     8795.5 secs

     total energy              =   -1597.25945459 Ry
     Harris-Foulkes estimate   =   -1597.25960407 Ry
     estimated scf accuracy    <       0.00777043 Ry

     iteration # 14     ecut=    40.00 Ry     beta=0.70
     Davidson diagonalization with overlap
     ethr =  1.59E-06,  avg # of iterations =  1.0

[...]
   -35.7787 -35.7543 -35.5582 -35.5577 -35.4351 -35.4301 -35.3844 -35.3833
   -24.8569 -21.1529 -21.1461 -20.2040 -19.5951 -19.3902 -19.3873 -19.3715
   -19.1429 -18.9350 -18.8989 -18.8928 -18.8447 -18.8037 -18.7985 -17.9218
   -17.9080 -17.6396 -17.4888 -17.4855  -9.5348  -8.8497  -8.7986  -7.8926
    -7.2947  -7.1092  -7.1046  -7.0035  -6.9036  -6.8606  -6.7103  -6.6452
    -6.6150  -6.6025  -6.5097  -6.4552  -6.3943  -6.0255  -5.9585  -5.7552
    -5.7123  -5.6399  -5.6008  -5.3756  -5.1911  -5.1620  -5.0727  -5.0146
    -4.9719  -4.7972  -4.7198  -4.5065  -4.4474  -4.4238  -4.2724  -4.1356
    -4.0958  -4.0644  -3.9730  -3.8890  -3.8838  -3.8776  -3.8354  -3.8025
    -3.5883  -3.5807  -3.5379  -3.4383  -2.9543  -2.9339  -2.9125  -2.8554
    -2.4158  -2.4100  -2.3379  -2.3085  -2.2842  -2.2621  -2.1142   0.2707
     0.3873   0.4523   0.5465   0.5962   0.6656   0.7308   0.8405   0.9195
     0.9472   0.9734   1.0930   1.1378   1.1721   1.4753   1.6577   1.7562
     1.8140   1.8348   1.8570   2.1453   2.2430   2.2482   2.2587   2.4587
     2.4771   2.5799   2.6822   2.6979   2.7248   3.0192   3.2350   3.2724
     3.5028   3.5341   3.5499   3.5546   3.6475   3.7332   4.0369   4.1285
     4.2842   4.3918   4.4625   4.4863   4.7349   4.8268   5.2787   5.2901
     5.7853   5.9194   6.3819   6.6307   6.8921   6.9438   7.2596   7.2950
     7.4089   7.6469   7.6838   7.7303   7.8489   8.0371   8.0671   8.1307
     8.1398   8.2222   8.2315   8.3423   8.3558   8.5250   8.6666   8.7851
     8.8822   8.9009   9.0677   9.2390   9.3355   9.4204   9.5784   9.6020
     9.6793   9.7916   9.8740  10.0149  10.1033  10.1696  10.3512  10.3978
    10.4767  10.4970  10.5848  10.7165  10.8172  10.8817  10.9115  11.0443
    11.1980  11.2787  11.3452  11.6631  11.7868  11.8281  11.9410  11.9750
    12.1140  12.1182  12.2259  12.2612  12.3234  12.4265  12.5262  12.6030
    12.8105  12.8419  12.9845  13.0431  13.1192  13.1960  13.2446  13.2971
    13.3268  13.4088  13.5769  13.6147  13.6639  13.7472  13.8460  13.8873
    14.0563  14.1008  14.2333  14.2616  14.2905  14.3886  14.4301  14.4747
    14.5051  14.5399  14.5997  14.6748  14.8864  14.9400  14.9998  15.1214
    15.1762  15.4249  15.4365  15.4660  15.5244  15.5637  15.7012  15.7707
    15.8446  15.8924  15.9023  15.9415  16.1041  16.1126  16.1529  16.2251
    16.2270  16.3223  16.3795  16.4216  16.4645  16.4920  16.5350  16.6251
    16.6848  16.7044  16.7150  16.7713  16.8043  16.9402  16.9703  17.0217
    17.0722  17.1208  17.2423  17.2740  17.3174  17.3750  17.4251  17.6203
    17.6269  17.6708  17.7289  17.7613  17.8778  17.8957  18.1441  18.1717
    18.2045  18.2243  18.2814  18.3555  18.4428  18.4643  18.4825  18.5081
    18.5095  18.5369  18.5794  18.6819  18.7258  18.7716  18.7768

          k =-0.5000 0.2258 0.0000 ( 29954 PWs)   bands (ev):

   -61.0228 -61.0211 -60.7464 -60.5114 -59.7312 -59.7122 -59.2443 -59.2438
   -37.3197 -37.3002 -37.1826 -37.1772 -37.1074 -37.1057 -37.0757 -36.9000
   -36.8642 -36.7109 -36.7086 -36.6966 -36.0836 -36.0686 -36.0019 -35.9836
   -35.7787 -35.7543 -35.5584 -35.5580 -35.4351 -35.4301 -35.3844 -35.3833
   -24.8568 -21.1507 -21.1439 -20.1965 -19.5377 -19.3499 -19.3349 -19.3156
   -19.1710 -19.0046 -18.9686 -18.9209 -18.8855 -18.8321 -18.8010 -17.9188
   -17.9035 -17.6470 -17.4881 -17.4768  -9.5299  -8.8407  -8.7890  -7.9003
    -7.2961  -6.9754  -6.8989  -6.8777  -6.7601  -6.7170  -6.6826  -6.6344
    -6.6007  -6.5036  -6.4238  -6.3629  -6.3182  -6.0271  -5.9536  -5.7686
    -5.7461  -5.6310  -5.5991  -5.4475  -5.3589  -5.3269  -5.2566  -5.0998
    -4.9655  -4.7572  -4.6691  -4.4985  -4.4659  -4.4307  -4.3418  -4.2913
    -4.2726  -4.2536  -4.1653  -4.1497  -4.0758  -3.9584  -3.8646  -3.7559
    -3.6516  -3.5815  -3.5521  -3.4075  -2.9258  -2.8552  -2.7843  -2.7713
    -2.4678  -2.4088  -2.3931  -2.3248  -2.2837  -2.2124  -2.0768   0.2932
     0.4061   0.4451   0.5436   0.5455   0.6611   0.7246   0.8935   1.0619
     1.1255   1.1472   1.2376   1.2702   1.3022   1.4670   1.6215   1.8234
     1.8772   1.8887   1.9355   2.0971   2.1159   2.2512   2.3762   2.4644
     2.4854   2.5152   2.5231   2.5422   2.6611   2.8188   2.8836   3.3017
     3.3747   3.4174   3.6145   3.6331   3.8932   3.9071   4.0629   4.2536
     4.3560   4.5576   4.6204   4.6396   4.9213   5.0075   5.4419   5.4629
     5.9184   5.9575   6.2298   6.2987   6.3560   6.5004   6.7067   6.7759
     6.8319   7.0561   7.1423   7.3608   7.3766   7.4595   7.7701   7.9240
     8.0275   8.2841   8.3120   8.5054   8.7211   8.7726   8.8738   8.9170
     9.1686   9.2399   9.3964   9.5178   9.6408   9.7353   9.9268   9.9718
    10.0083  10.1048  10.1935  10.2178  10.2524  10.3683  10.5204  10.5410
    10.7761  10.8930  10.9212  11.0295  11.1381  11.2205  11.2475  11.3907
    11.4609  11.6125  11.7372  11.7842  11.8704  11.9510  12.1180  12.1957
    12.2400  12.3116  12.3870  12.4591  12.5467  12.6355  12.7716  12.8149
    12.9020  12.9737  13.0534  13.1320  13.2708  13.3155  13.4028  13.4314
    13.4672  13.5503  13.5743  13.6323  13.7218  13.7562  13.8961  13.9422
    13.9819  14.0176  14.0922  14.1780  14.2559  14.2740  14.2927  14.3330
    14.4701  14.5345  14.5492  14.5605  14.6593  14.8301  14.8788  14.9432
    14.9705  15.0242  15.0592  15.0918  15.1434  15.1633  15.2352  15.2526
    15.3495  15.4437  15.4523  15.5040  15.5266  15.5612  15.6431  15.6864
    15.7872  15.8090  15.8795  15.8946  15.9697  16.0556  16.1091  16.1774
    16.2570  16.3881  16.4159  16.4346  16.5297  16.5871  16.6183  16.7306
    16.7944  16.8325  16.9089  16.9369  17.0610  17.0875  17.2052  17.2806
    17.3055  17.3590  17.4177  17.4511  17.5546  17.6581  17.7631  17.8687
    17.8995  17.9155  18.0095  18.0697  18.2631  18.3361  18.4753  18.5511
    18.6082  18.6357  18.6752  18.7016  18.7260  18.7955  18.8386

          k =-0.5000-0.4516 0.0000 ( 29868 PWs)   bands (ev):

   -61.0229 -61.0212 -60.7464 -60.5114 -59.7312 -59.7121 -59.2444 -59.2439
   -37.3198 -37.3003 -37.1825 -37.1772 -37.1071 -37.1053 -37.0757 -36.9004
   -36.8637 -36.7103 -36.7091 -36.6965 -36.0830 -36.0680 -36.0030 -35.9846
   -35.7786 -35.7542 -35.5587 -35.5581 -35.4351 -35.4301 -35.3844 -35.3832
   -24.8567 -21.1485 -21.1418 -20.1890 -19.4506 -19.3003 -19.2897 -19.2005
   -19.1638 -19.1314 -19.0979 -18.9759 -18.9223 -18.8476 -18.8023 -17.9161
   -17.8994 -17.6537 -17.4874 -17.4688  -9.5250  -8.8316  -8.7794  -7.9078
    -7.2982  -6.9574  -6.7135  -6.7049  -6.6806  -6.5750  -6.5438  -6.5098
    -6.4924  -6.3382  -6.2520  -6.2094  -6.1893  -6.0013  -5.9599  -5.8821
    -5.8381  -5.6446  -5.6301  -5.5900  -5.5418  -5.4800  -5.3869  -5.1044
    -4.9462  -4.7569  -4.7142  -4.6896  -4.6739  -4.6228  -4.5803  -4.4626
    -4.4182  -4.3362  -4.2179  -4.1893  -4.1136  -4.0807  -4.0056  -3.6757
    -3.6079  -3.5715  -3.5257  -3.3639  -2.9094  -2.8262  -2.6904  -2.6822
    -2.5491  -2.4100  -2.3802  -2.3440  -2.2484  -2.1902  -2.0505   0.3200
     0.4514   0.4556   0.4953   0.5377   0.6542   0.7357   0.9146   1.1453
     1.1821   1.2071   1.2761   1.4427   1.5099   1.8006   1.8305   1.9397
     1.9497   2.0193   2.0458   2.0499   2.0556   2.1091   2.1238   2.2678
     2.3406   2.3915   2.4775   2.4949   2.4974   2.6778   2.7195   3.3555
     3.4601   3.5057   3.5107   3.5469   3.9684   4.0250   4.1306   4.3862
     4.3921   4.9093   4.9334   4.9460   5.3282   5.3474   5.5233   5.5260
     5.6167   5.6192   5.8576   5.8822   6.0271   6.1218   6.3661   6.4733
     6.5364   6.7865   6.9518   7.2082   7.2483   7.5917   7.6115   7.7787
     7.8871   8.0767   8.1742   8.3025   8.3935   8.6774   8.7200   8.7974
     9.0995   9.1971   9.4411   9.4924   9.7391   9.7930  10.0471  10.1436
    10.4357  10.4737  10.6618  10.6977  10.7882  10.8670  10.9307  11.2454
    11.4631  11.5823  11.6095  11.7403  11.8230  11.8349  11.8647  12.0114
    12.0679  12.1014  12.1960  12.1994  12.3356  12.4060  12.4643  12.4665
    12.5318  12.6030  12.6195  12.7037  12.7250  12.7802  12.7990  12.8219
    12.9759  12.9849  13.0156  13.0503  13.0947  13.1190  13.1780  13.2309
    13.4202  13.4320  13.4572  13.5453  13.6213  13.6286  13.6579  13.6941
    13.7204  13.8048  13.8243  13.9005  13.9413  13.9831  14.0210  14.0872
    14.0910  14.2387  14.2516  14.2999  14.3585  14.3962  14.4044  14.4388
    14.4945  14.5177  14.6413  14.6694  14.7299  14.7380  14.8055  14.9435
    14.9788  15.0120  15.0679  15.0856  15.1681  15.1852  15.2517  15.3193
    15.4743  15.4983  15.6363  15.7302  15.7885  15.8651  15.9297  15.9795
    16.0231  16.0671  16.1169  16.1435  16.2359  16.2657  16.4297  16.4699
    16.4956  16.7279  16.8004  16.8329  16.8468  16.9418  17.0264  17.0805
    17.2201  17.2397  17.2843  17.4119  17.4496  17.4644  17.5942  17.6112
    17.8299  17.9850  17.9939  18.0708  18.1246  18.1481  18.2749  18.2882
    18.3809  18.4689  18.5431  18.5574  18.7910  18.8034  18.9834

          k =-0.2500 0.2258 0.0000 ( 29912 PWs)   bands (ev):

   -61.0333 -61.0085 -60.7461 -60.5098 -59.7373 -59.7040 -59.2564 -59.2299
   -37.4365 -37.2217 -37.2003 -37.1209 -37.1173 -37.0962 -37.0766 -36.9705
   -36.8701 -36.7064 -36.6967 -36.6370 -36.2262 -36.0289 -35.9576 -35.9248
   -35.7831 -35.7504 -35.5691 -35.5545 -35.5478 -35.4429 -35.3786 -35.2557
   -24.8569 -21.2787 -21.0570 -20.1918 -19.6927 -19.6285 -19.2658 -19.1921
   -19.0847 -18.9862 -18.9617 -18.9347 -18.8777 -18.7251 -18.7135 -18.1098
   -17.8243 -17.6454 -17.4277 -17.4041  -9.5293  -8.9253  -8.6967  -7.9041
    -7.2704  -7.1661  -7.1123  -7.0256  -6.9595  -6.6678  -6.6486  -6.5348
    -6.4982  -6.4624  -6.4071  -6.3090  -6.2404  -6.1600  -6.0876  -5.9398
    -5.8639  -5.6822  -5.5916  -5.4508  -5.3256  -5.0843  -4.9719  -4.8601
    -4.8495  -4.7602  -4.7043  -4.6485  -4.5479  -4.4882  -4.4073  -4.3462
    -4.3055  -4.2660  -4.2232  -4.0865  -4.0572  -3.8967  -3.8273  -3.7230
    -3.6489  -3.4980  -3.2989  -3.1130  -2.9167  -2.8181  -2.8024  -2.7091
    -2.5936  -2.4876  -2.4030  -2.3267  -2.2437  -2.1285  -2.0807   0.1176
     0.3175   0.4168   0.5081   0.5415   0.7629   0.8282   0.8480   0.9451
     1.0097   1.0913   1.2033   1.3567   1.4302   1.5719   1.6781   1.7538
     1.8020   1.8917   2.1077   2.1361   2.1966   2.2181   2.2774   2.3172
     2.3410   2.3962   2.4854   2.5304   2.7383   2.8831   3.0793   3.2287
     3.2951   3.4729   3.6587   3.6747   3.7994   3.9235   4.0120   4.1222
     4.2039   4.3946   4.4833   4.6965   5.1476   5.2330   5.5869   5.6738
     5.6973   5.9963   6.0815   6.2774   6.4054   6.6241   6.7164   7.0310
     7.1534   7.3346   7.4938   7.5931   7.7529   7.9768   8.0324   8.1133
     8.2152   8.3063   8.4722   8.4938   8.7100   8.7705   8.8864   8.9741
     9.1248   9.1651   9.2469   9.3758   9.5094   9.6492   9.6976   9.7523
     9.8551   9.9798  10.1347  10.2961  10.3475  10.3880  10.4656  10.5786
    10.6090  10.7940  10.8512  10.9486  11.0186  11.1010  11.1838  11.2821
    11.3554  11.4232  11.5016  11.5800  11.6433  11.7510  11.7726  11.8820
    11.9715  12.0736  12.1300  12.1867  12.2288  12.3004  12.3453  12.4557
    12.5211  12.5666  12.6422  12.7093  12.7757  12.9495  12.9959  13.0511
    13.0671  13.1755  13.2053  13.3247  13.4456  13.5616  13.5973  13.7453
    13.7990  13.9010  13.9217  14.0219  14.0777  14.1636  14.2356  14.2665
    14.3133  14.3401  14.4813  14.5454  14.5739  14.6099  14.6963  14.7916
    14.8540  14.9965  15.0242  15.1149  15.1577  15.2389  15.3464  15.3820
    15.4936  15.5352  15.5864  15.6438  15.6709  15.7504  15.8172  15.8924
    15.9793  16.0504  16.1027  16.1589  16.2203  16.3055  16.3834  16.4516
    16.5049  16.5837  16.6235  16.7046  16.8076  16.8410  16.8877  16.9211
    17.0209  17.1157  17.1501  17.2389  17.2907  17.3430  17.4285  17.4564
    17.5392  17.5897  17.6567  17.7916  17.8975  17.9330  17.9681  18.0545
    18.1426  18.1842  18.2928  18.3604  18.4190  18.4819  18.6007  18.6367
    18.6750  18.7421  18.7994  18.8666  18.9643  19.0713  19.1121

     the Fermi energy is    -2.0677 ev

!    total energy              =   -1597.26480445 Ry
     Harris-Foulkes estimate   =   -1597.26480446 Ry
     estimated scf accuracy    <          4.9E-09 Ry

     The total energy is the sum of the following terms:

     one-electron contribution =  -19110.87535268 Ry
     hartree contribution      =    9576.84865975 Ry
     xc contribution           =    -284.45582137 Ry
     ewald contribution        =    8218.32203493 Ry
     Hubbard energy            =       2.89704092 Ry
     smearing contrib. (-TS)   =      -0.00136600 Ry

     convergence has been achieved in  12 iterations

     Forces acting on atoms (Ry/au):


     negative rho (up, down):  0.107E+00 0.000E+00
     atom    1 type  1   force =    -0.00226802   -0.01457991    0.00045266
     atom    2 type  1   force =     0.00007793    0.01687267   -0.00010346
     atom    3 type  2   force =     0.04201830   -0.00856288    0.00022942
     atom    4 type  2   force =     0.00050378    0.00939289    0.00049724
     atom    5 type  1   force =    -0.00114495   -0.08827377   -0.00028822
     atom    6 type  1   force =    -0.00448596    0.08683396   -0.00031066
     atom    7 type  1   force =     0.00010982   -0.00106154    0.00046855
     atom    8 type  1   force =     0.00094677   -0.00072496   -0.00034103
     atom    9 type  2   force =     0.00116804    0.00004863    0.00028880
     atom   10 type  2   force =     0.00000107   -0.00078140   -0.00024759
     atom   11 type  1   force =    -0.02332280   -0.01425784   -0.00008233
     atom   12 type  1   force =    -0.02011449    0.01954727   -0.00025259
     atom   13 type  1   force =     0.00013466   -0.00252718   -0.00010083
     atom   14 type  1   force =    -0.00418722   -0.01469285    0.00051601
     atom   15 type  1   force =     0.00011015    0.01714771   -0.00018029
     atom   16 type  2   force =    -0.04186691   -0.00924349    0.00023003
     atom   17 type  2   force =     0.00046345    0.00885610    0.00033400
     atom   18 type  1   force =     0.00555600   -0.08836830   -0.00025976
     atom   19 type  1   force =     0.00370109    0.08728825   -0.00036018
     atom   20 type  1   force =    -0.00009937   -0.00045318    0.00076808
     atom   21 type  1   force =     0.00085690   -0.00001915   -0.00040289
     atom   22 type  2   force =    -0.00163629    0.00008721    0.00029081
     atom   23 type  2   force =    -0.00006298   -0.00278141   -0.00047313
     atom   24 type  1   force =     0.02347335   -0.01415533   -0.00007576
     atom   25 type  1   force =     0.02001295    0.01942360   -0.00025503
     atom   26 type  1   force =     0.00019248   -0.00528742   -0.00000889
     atom   27 type  3   force =    -0.00002768    0.00014407   -0.00012571
     atom   28 type  3   force =    -0.00000745    0.00008288   -0.00035994
     atom   29 type  3   force =    -0.00004871   -0.00013045    0.00020097
     atom   30 type  3   force =    -0.00005634   -0.00014499    0.00025016
     atom   31 type  1   force =     0.00015496   -0.00029702   -0.00053905
     atom   32 type  1   force =    -0.00019243    0.00032266    0.00033020
     atom   33 type  3   force =     0.00003990    0.00029514   -0.00008958

     Total force =     0.002014     Total SCF correction =     0.000132

     bfgs converged in  20 scf cycles and  19 bfgs steps
     (criteria: energy < 0.10E-03, force < 0.10E-02)

     End of BFGS Geometry Optimization

     Final energy   =   -1597.2648044549 Ry
Begin final coordinates

ATOMIC_POSITIONS (crystal)
O0       0.000000000   0.000000000   0.376380105    0   0   1
O0       0.000000000   0.500000000   0.398360154    0   0   1
Ti1      0.250000000   0.500000000   0.450769563    0   0   1
Ti1      0.000000000   0.000000000   0.450537094    0   0   1
O0       0.250000000   0.810000000   0.449492718    0   0   1
O0       0.250000000   0.190000000   0.450576697    0   0   1
O0       0.000000000   0.500000000   0.498386135    0   0   1
O0       0.000000000   0.000000000   0.526565481    0   0   1
Ti1      0.250000000   0.000000000   0.580994494    0   0   1
Ti1      0.000000000   0.500000000   0.569984124    0   0   1
O0       0.250000000   0.690000000   0.578921994    0   0   1
O0       0.250000000   0.310000000   0.580529149    0   0   1
O0       0.000000000   0.000000000   0.624057331    0   0   1
O0       0.500000000   0.000000000   0.377247170    0   0   1
O0       0.500000000   0.500000000   0.398385955    0   0   1
Ti1      0.750000000   0.500000000   0.450780523    0   0   1
Ti1      0.500000000   0.000000000   0.452413661    0   0   1
O0       0.750000000   0.810000000   0.449450252    0   0   1
O0       0.750000000   0.190000000   0.450668547    0   0   1
O0       0.500000000   0.500000000   0.497925643    0   0   1
O0       0.500000000   0.000000000   0.526768478    0   0   1
Ti1      0.750000000   0.000000000   0.581001767    0   0   1
Ti1      0.500000000   0.500000000   0.581758225    0   0   1
O0       0.750000000   0.690000000   0.578911884    0   0   1
O0       0.750000000   0.310000000   0.580521847    0   0   1
O0       0.500000000   0.000000000   0.623523818    0   0   1
H2      -0.000218626   0.629292646   0.379047096
H2       0.499810276   0.630453758   0.379516910
H2       0.151742287   0.030758929   0.363133448
H2       0.650714688   0.032312110   0.363715160
O0       0.500310000   0.538106829   0.658168125    0   1   1
O0       0.499120000   0.356915110   0.686177651    0   1   1
H2       0.500360000   0.412389519   0.720798800    0   1   1
End final coordinates


 
     init_run     :     94.96s CPU     98.36s WALL (       1 calls)
     electrons    :  58809.22s CPU  59443.18s WALL (      20 calls)
     update_pot   :    447.41s CPU    459.67s WALL (      19 calls)
     forces       :   3267.64s CPU   3287.27s WALL (      20 calls)

     Called by init_run:
     wfcinit      :     46.75s CPU     49.52s WALL (       1 calls)
     potinit      :      9.24s CPU      9.33s WALL (       1 calls)

     Called by electrons:
     c_bands      :  37125.79s CPU  37559.74s WALL (     290 calls)
     sum_band     :  12592.40s CPU  12647.18s WALL (     290 calls)
     v_of_rho     :    435.12s CPU    448.35s WALL (     308 calls)
     newd         :   9032.20s CPU   9061.73s WALL (     308 calls)
     mix_rho      :     72.49s CPU     72.74s WALL (     290 calls)

     Called by c_bands:
     init_us_2    :     70.37s CPU     70.51s WALL (    1923 calls)
     cegterg      :  36600.10s CPU  36986.92s WALL (     870 calls)

     Called by *egterg:
     h_psi        :  19315.81s CPU  19388.24s WALL (    2956 calls)
     s_psi        :   2530.21s CPU   2543.76s WALL (    3076 calls)
     g_psi        :     71.26s CPU     71.39s WALL (    2083 calls)
     cdiaghg      :   4222.73s CPU   4228.34s WALL (    2890 calls)

     Called by h_psi:
     add_vuspsi   :   2417.43s CPU   2427.67s WALL (    2956 calls)
     vhpsi        :   2119.13s CPU   2121.66s WALL (    2956 calls)

     General routines
     calbec       :   6103.42s CPU   6115.91s WALL (   25712 calls)
     fft          :    509.29s CPU    518.83s WALL (    5095 calls)
     ffts         :     10.53s CPU     10.68s WALL (     598 calls)
     fftw         :  11785.52s CPU  11844.22s WALL ( 1475140 calls)
     interpolate  :     70.82s CPU     71.17s WALL (     598 calls)
     davcio       :      0.12s CPU     60.15s WALL (    1983 calls)
 
     Parallel routines
     fft_scatter  :   3404.21s CPU   3462.27s WALL ( 1480833 calls)
     Hubbard U routines
     new_ns       :    485.31s CPU    498.97s WALL (     290 calls)
     vhpsi        :   2119.13s CPU   2121.66s WALL (    2956 calls)
     force_hub    :   1153.67s CPU   1157.33s WALL (      20 calls)
 
     PWSCF        :    17h34m CPU       17h46m WALL

 
   This run was terminated on:  11:15: 0   9Aug2014            

=------------------------------------------------------------------------------=
   JOB DONE.
=------------------------------------------------------------------------------=
