
     Program PWSCF v.5.0.2 (svn rev. 9656) starts on  7Jun2014 at  4: 3:44 

     This program is part of the open-source Quantum ESPRESSO suite
     for quantum simulation of materials; please cite
         "P. Giannozzi et al., J. Phys.:Condens. Matter 21 395502 (2009);
          URL http://www.quantum-espresso.org", 
     in publications or presentations arising from this work. More details at
     http://www.quantum-espresso.org/quote.php

     Parallel version (MPI), running on    32 processors
     K-points division:     npool     =       4
     R & G space division:  proc/nbgrp/npool/nimage =       8

     Current dimensions of program PWSCF are:
     Max number of different atomic species (ntypx) = 10
     Max number of k-points (npk) =  40000
     Max angular momentum in pseudopotentials (lmaxx) =  3
     Reading input from pwscf.in
Warning: card &CELL ignored
Warning: card / ignored

     Subspace diagonalization in iterative solution of the eigenvalue problem:
     a serial algorithm will be used


     Parallelization info
     --------------------
     sticks:   dense  smooth     PW     G-vecs:    dense   smooth      PW
     Min         745     237     66               241825    43740    6456
     Max         746     238     67               241838    43794    6459
     Sum        5965    1901    531              1934647   350115   51659



     bravais-lattice index     =            0
     lattice parameter (alat)  =      12.2076  a.u.
     unit-cell volume          =   10244.9005 (a.u.)^3
     number of atoms/cell      =           51
     number of atomic types    =            3
     number of electrons       =       461.00
     number of Kohn-Sham states=          691
     kinetic-energy cutoff     =      40.0000  Ry
     charge density cutoff     =     500.0000  Ry
     convergence threshold     =      1.0E-06
     mixing beta               =       0.3000
     number of iterations used =            8  plain     mixing
     Exchange-correlation      = SLA  PW   PBE  PBE ( 1 4 3 4 0)
     EXX-fraction              =        0.00
     nstep                     =           50


     celldm(1)=  12.207631  celldm(2)=   0.000000  celldm(3)=   0.000000
     celldm(4)=   0.000000  celldm(5)=   0.000000  celldm(6)=   0.000000

     crystal axes: (cart. coord. in units of alat)
               a(1) = (   1.000000   0.000000   0.000000 )  
               a(2) = (   0.000000   1.004836   0.000000 )  
               a(3) = (   0.000000   0.000000   5.604262 )  

     reciprocal axes: (cart. coord. in units 2 pi/alat)
               b(1) = (  1.000000  0.000000  0.000000 )  
               b(2) = (  0.000000  0.995187  0.000000 )  
               b(3) = (  0.000000  0.000000  0.178436 )  


     PseudoPot. # 1 for O  read from file:
     /home/camp/zhonxu/pseudo/o_pbe_v1.01.uspp.F.UPF
     MD5 check sum: 2bcb18d16ea4b960afae9ec6d52f22d2
     Pseudo is Ultrasoft + core correction, Zval =  6.0
     Generated by new atomic code, or converted to UPF format
     Using radial grid of  737 points,  5 beta functions with: 
                l(1) =   0
                l(2) =   0
                l(3) =   1
                l(4) =   1
                l(5) =   2
     Q(r) pseudized with  8 coefficients,  rinner =    0.900   0.900   0.900
                                                       0.900   0.900

     PseudoPot. # 2 for Pt read from file:
     /home/camp/zhonxu/pseudo/pt_pbe_v1.uspp.F.UPF
     MD5 check sum: 4c71d6ad5ef119f1eb26a4d0b7884226
     Pseudo is Ultrasoft + core correction, Zval = 16.0
     Generated by new atomic code, or converted to UPF format
     Using radial grid of  985 points,  6 beta functions with: 
                l(1) =   0
                l(2) =   0
                l(3) =   1
                l(4) =   1
                l(5) =   2
                l(6) =   2
     Q(r) pseudized with  8 coefficients,  rinner =    1.300   1.300   1.300
                                                       1.300   1.300

     PseudoPot. # 3 for H  read from file:
     /home/camp/zhonxu/pseudo/h_pbe_v1.uspp.F.UPF
     MD5 check sum: 3408e3ff4ec8b0a4e358431e7e038a48
     Pseudo is Ultrasoft, Zval =  1.0
     Generated by new atomic code, or converted to UPF format
     Using radial grid of  615 points,  2 beta functions with: 
                l(1) =   0
                l(2) =   0
     Q(r) pseudized with  8 coefficients,  rinner =    0.700

     atomic species   valence    mass     pseudopotential
        O0             6.00    15.99940     O ( 1.00)
        Pt1           16.00   195.08000     Pt( 1.00)
        H2             1.00     1.00794     H ( 1.00)

      2 Sym. Ops. (no inversion) found



   Cartesian axes

     site n.     atom                  positions (alat units)
         1           O0  tau(   1) = (   0.0000000   0.5024180   1.8575886  )
         2           Pt1 tau(   2) = (   0.2500000   0.5024180   2.0485258  )
         3           Pt1 tau(   3) = (   0.0000000   0.0000000   2.0485258  )
         4           O0  tau(   4) = (   0.2500000   0.8139171   2.0485258  )
         5           O0  tau(   5) = (   0.2500000   0.1909188   2.0485258  )
         6           O0  tau(   6) = (   0.0000000   0.5024180   2.2394070  )
         7           O0  tau(   7) = (   0.0000000   0.0000000   2.3600107  )
         8           Pt1 tau(   8) = (   0.2500000   0.0000000   2.5509479  )
         9           Pt1 tau(   9) = (   0.0000000   0.5024180   2.5509479  )
        10           O0  tau(  10) = (   0.2500000   0.6933368   2.5509479  )
        11           O0  tau(  11) = (   0.2500000   0.3114991   2.5509479  )
        12           O0  tau(  12) = (   0.0000000   0.0000000   2.7418291  )
        13           O0  tau(  13) = (   0.0000000   0.5024180   2.8577252  )
        14           Pt1 tau(  14) = (   0.2500000   0.5024180   3.0464207  )
        15           Pt1 tau(  15) = (   0.0000000   0.0000000   3.0519689  )
        16           O0  tau(  16) = (   0.2500000   0.8129525   3.0573490  )
        17           O0  tau(  17) = (   0.2500000   0.1918835   3.0573490  )
        18           O0  tau(  18) = (   0.0000000   0.5024180   3.2388711  )
        19           O0  tau(  19) = (   0.0000000   0.0000000   3.3644626  )
        20           Pt1 tau(  20) = (   0.2500000   0.0000000   3.5576415  )
        21           Pt1 tau(  21) = (   0.0000000   0.5024180   3.5547273  )
        22           O0  tau(  22) = (   0.2500000   0.6920004   3.5920516  )
        23           O0  tau(  23) = (   0.2500000   0.3128356   3.5920516  )
        24           O0  tau(  24) = (   0.0000000   0.0000000   3.7444315  )
        25           O0  tau(  25) = (   0.5000000   0.5024180   1.8575886  )
        26           Pt1 tau(  26) = (   0.7500000   0.5024180   2.0485258  )
        27           Pt1 tau(  27) = (   0.5000000   0.0000000   2.0485258  )
        28           O0  tau(  28) = (   0.7500000   0.8139171   2.0485258  )
        29           O0  tau(  29) = (   0.7500000   0.1909188   2.0485258  )
        30           O0  tau(  30) = (   0.5000000   0.5024180   2.2394070  )
        31           O0  tau(  31) = (   0.5000000   0.0000000   2.3600107  )
        32           Pt1 tau(  32) = (   0.7500000   0.0000000   2.5509479  )
        33           Pt1 tau(  33) = (   0.5000000   0.5024180   2.5509479  )
        34           O0  tau(  34) = (   0.7500000   0.6933368   2.5509479  )
        35           O0  tau(  35) = (   0.7500000   0.3114991   2.5509479  )
        36           O0  tau(  36) = (   0.5000000   0.0000000   2.7418291  )
        37           O0  tau(  37) = (   0.5000000   0.5024180   2.8577252  )
        38           Pt1 tau(  38) = (   0.7500000   0.5024180   3.0464207  )
        39           Pt1 tau(  39) = (   0.5000000   0.0000000   3.0519689  )
        40           O0  tau(  40) = (   0.7500000   0.8129525   3.0573490  )
        41           O0  tau(  41) = (   0.7500000   0.1918835   3.0573490  )
        42           O0  tau(  42) = (   0.5000000   0.5024180   3.2388711  )
        43           O0  tau(  43) = (   0.5000000   0.0000000   3.3644626  )
        44           Pt1 tau(  44) = (   0.7500000   0.0000000   3.5576415  )
        45           Pt1 tau(  45) = (   0.5000000   0.5024180   3.5547273  )
        46           O0  tau(  46) = (   0.7500000   0.6920004   3.5920516  )
        47           O0  tau(  47) = (   0.7500000   0.3128356   3.5920516  )
        48           O0  tau(  48) = (   0.5000000   0.0000000   3.7444315  )
        49           O0  tau(  49) = (   0.5000000   0.5024180   3.8661001  )
        50           O0  tau(  50) = (   0.5000000   0.3220801   3.9766721  )
        51           H2  tau(  51) = (   0.5000000   0.3679106   4.1223269  )

     number of k points=     9  Methfessel-Paxton smearing, width (Ry)=  0.0100
                       cart. coord. in units 2pi/alat
        k(    1) = (   0.0000000   0.0000000   0.0000000), wk =   0.1250000
        k(    2) = (   0.0000000   0.2487968   0.0000000), wk =   0.2500000
        k(    3) = (   0.0000000  -0.4975937   0.0000000), wk =   0.1250000
        k(    4) = (   0.2500000   0.0000000   0.0000000), wk =   0.2500000
        k(    5) = (   0.2500000   0.2487968   0.0000000), wk =   0.5000000
        k(    6) = (   0.2500000  -0.4975937   0.0000000), wk =   0.2500000
        k(    7) = (  -0.5000000   0.0000000   0.0000000), wk =   0.1250000
        k(    8) = (  -0.5000000   0.2487968   0.0000000), wk =   0.2500000
        k(    9) = (  -0.5000000  -0.4975937   0.0000000), wk =   0.1250000

     Dense  grid:  1934647 G-vectors     FFT dimensions: (  90,  90, 500)

     Smooth grid:   350115 G-vectors     FFT dimensions: (  50,  50, 288)

     Largest allocated arrays     est. size (Mb)     dimensions
        Kohn-Sham Wavefunctions        58.76 Mb     (   5573,  691)
        NL pseudopotentials            62.25 Mb     (   5573,  732)
        Each V/rho on FFT grid          7.79 Mb     ( 510300)
        Each G-vector array             1.85 Mb     ( 241838)
        G-vector shells                 0.88 Mb     ( 115255)
     Largest temporary arrays     est. size (Mb)     dimensions
        Auxiliary wavefunctions       235.04 Mb     (   5573, 2764)
        Each subspace H/S matrix      116.57 Mb     (2764,2764)
        Each <psi_i|beta_j> matrix      7.72 Mb     (    732,  691)
        Arrays for rho mixing          62.29 Mb     ( 510300,   8)

     Check: negative/imaginary core charge=   -0.000003    0.000000

     Initial potential from superposition of free atoms
     Check: negative starting charge=   -3.073571

     starting charge  452.99976, renormalised to  461.00000

     negative rho (up, down):  0.313E+01 0.000E+00
     Starting wfc are  329 randomized atomic wfcs

     total cpu time spent up to now is      146.0 secs

     Self-consistent Calculation

     iteration #  1     ecut=    40.00 Ry     beta=0.30
     Davidson diagonalization with overlap
     ethr =  1.00E-02,  avg # of iterations =  6.1

     negative rho (up, down):  0.308E+01 0.000E+00

     total cpu time spent up to now is     1248.8 secs

     total energy              =   -4342.72135492 Ry
     Harris-Foulkes estimate   =   -4437.06318488 Ry
     estimated scf accuracy    <     189.79200222 Ry

     iteration #  2     ecut=    40.00 Ry     beta=0.30
     Davidson diagonalization with overlap
     ethr =  1.00E-02,  avg # of iterations =  6.0

     negative rho (up, down):  0.300E+01 0.000E+00

     total cpu time spent up to now is     2160.3 secs

     total energy              =   -3973.71065336 Ry
     Harris-Foulkes estimate   =   -5201.91375149 Ry
     estimated scf accuracy    <   35721.04939231 Ry

     iteration #  3     ecut=    40.00 Ry     beta=0.30
     Davidson diagonalization with overlap
     ethr =  1.00E-02,  avg # of iterations =  6.0

     negative rho (up, down):  0.303E+01 0.000E+00

     total cpu time spent up to now is     3182.2 secs

     total energy              =   -4391.88573278 Ry
     Harris-Foulkes estimate   =   -4447.26236059 Ry
     estimated scf accuracy    <     720.68014472 Ry

     iteration #  4     ecut=    40.00 Ry     beta=0.30
     Davidson diagonalization with overlap
     ethr =  1.00E-02,  avg # of iterations =  5.0

     negative rho (up, down):  0.307E+01 0.000E+00

     total cpu time spent up to now is     3695.1 secs

     total energy              =   -4411.70009576 Ry
     Harris-Foulkes estimate   =   -4436.81480460 Ry
     estimated scf accuracy    <     336.81526867 Ry

     iteration #  5     ecut=    40.00 Ry     beta=0.30
     Davidson diagonalization with overlap
     ethr =  1.00E-02,  avg # of iterations =  2.4

     negative rho (up, down):  0.309E+01 0.000E+00

     total cpu time spent up to now is     4042.7 secs

     total energy              =   -4422.65741185 Ry
     Harris-Foulkes estimate   =   -4426.75981925 Ry
     estimated scf accuracy    <      24.53730733 Ry

     iteration #  6     ecut=    40.00 Ry     beta=0.30
     Davidson diagonalization with overlap
     ethr =  5.32E-03,  avg # of iterations =  1.0

     negative rho (up, down):  0.309E+01 0.000E+00

     total cpu time spent up to now is     4341.2 secs

     total energy              =   -4424.08753606 Ry
     Harris-Foulkes estimate   =   -4425.22436572 Ry
     estimated scf accuracy    <       7.25062152 Ry

     iteration #  7     ecut=    40.00 Ry     beta=0.30
     Davidson diagonalization with overlap
     ethr =  1.57E-03,  avg # of iterations =  3.0

     negative rho (up, down):  0.311E+01 0.000E+00

     total cpu time spent up to now is     4674.2 secs

     total energy              =   -4424.50243065 Ry
     Harris-Foulkes estimate   =   -4424.80123730 Ry
     estimated scf accuracy    <       2.37891742 Ry

     iteration #  8     ecut=    40.00 Ry     beta=0.30
     Davidson diagonalization with overlap
     ethr =  5.16E-04,  avg # of iterations =  3.9

     negative rho (up, down):  0.311E+01 0.000E+00

     total cpu time spent up to now is     5064.1 secs

     total energy              =   -4424.45709708 Ry
     Harris-Foulkes estimate   =   -4424.66147351 Ry
     estimated scf accuracy    <       2.76992707 Ry

     iteration #  9     ecut=    40.00 Ry     beta=0.30
     Davidson diagonalization with overlap
     ethr =  5.16E-04,  avg # of iterations =  1.0

     negative rho (up, down):  0.312E+01 0.000E+00

     total cpu time spent up to now is     5361.3 secs

     total energy              =   -4424.52290546 Ry
     Harris-Foulkes estimate   =   -4424.64011023 Ry
     estimated scf accuracy    <       0.82149509 Ry

     iteration # 10     ecut=    40.00 Ry     beta=0.30
     Davidson diagonalization with overlap
     ethr =  1.78E-04,  avg # of iterations =  5.6

     negative rho (up, down):  0.314E+01 0.000E+00

     total cpu time spent up to now is     5798.2 secs

     total energy              =   -4424.49696061 Ry
     Harris-Foulkes estimate   =   -4424.59461003 Ry
     estimated scf accuracy    <       1.57828253 Ry

     iteration # 11     ecut=    40.00 Ry     beta=0.30
     Davidson diagonalization with overlap
     ethr =  1.78E-04,  avg # of iterations =  6.2

     negative rho (up, down):  0.315E+01 0.000E+00

     total cpu time spent up to now is     6258.9 secs

     total energy              =   -4424.51191603 Ry
     Harris-Foulkes estimate   =   -4424.56400063 Ry
     estimated scf accuracy    <       1.43684781 Ry

     iteration # 12     ecut=    40.00 Ry     beta=0.30
     Davidson diagonalization with overlap
     ethr =  1.78E-04,  avg # of iterations =  1.0

     negative rho (up, down):  0.315E+01 0.000E+00

     total cpu time spent up to now is     6556.4 secs

     total energy              =   -4424.52316716 Ry
     Harris-Foulkes estimate   =   -4424.54301517 Ry
     estimated scf accuracy    <       0.37153753 Ry

     iteration # 13     ecut=    40.00 Ry     beta=0.30
     Davidson diagonalization with overlap
     ethr =  8.06E-05,  avg # of iterations =  1.0

     negative rho (up, down):  0.315E+01 0.000E+00

     total cpu time spent up to now is     6853.8 secs

     total energy              =   -4424.50754767 Ry
     Harris-Foulkes estimate   =   -4424.54918481 Ry
     estimated scf accuracy    <       1.30646952 Ry

     iteration # 14     ecut=    40.00 Ry     beta=0.30
     Davidson diagonalization with overlap
     ethr =  8.06E-05,  avg # of iterations =  2.7

     negative rho (up, down):  0.315E+01 0.000E+00

     total cpu time spent up to now is     7206.5 secs

     total energy              =   -4424.53250256 Ry
     Harris-Foulkes estimate   =   -4424.54067735 Ry
     estimated scf accuracy    <       0.09703849 Ry

     iteration # 15     ecut=    40.00 Ry     beta=0.30
     Davidson diagonalization with overlap
     ethr =  2.10E-05,  avg # of iterations =  6.3

     negative rho (up, down):  0.316E+01 0.000E+00

     total cpu time spent up to now is     7638.7 secs

     total energy              =   -4424.53370128 Ry
     Harris-Foulkes estimate   =   -4424.53767519 Ry
     estimated scf accuracy    <       0.16323595 Ry

     iteration # 16     ecut=    40.00 Ry     beta=0.30
     Davidson diagonalization with overlap
     ethr =  2.10E-05,  avg # of iterations =  1.0

     negative rho (up, down):  0.316E+01 0.000E+00

     total cpu time spent up to now is     7934.5 secs

     total energy              =   -4424.53474756 Ry
     Harris-Foulkes estimate   =   -4424.53619109 Ry
     estimated scf accuracy    <       0.03042233 Ry

     iteration # 17     ecut=    40.00 Ry     beta=0.30
     Davidson diagonalization with overlap
     ethr =  6.60E-06,  avg # of iterations =  5.1

     negative rho (up, down):  0.316E+01 0.000E+00

     total cpu time spent up to now is     8317.4 secs

     total energy              =   -4424.53512352 Ry
     Harris-Foulkes estimate   =   -4424.53581197 Ry
     estimated scf accuracy    <       0.00807698 Ry

     iteration # 18     ecut=    40.00 Ry     beta=0.30
     Davidson diagonalization with overlap
     ethr =  1.75E-06,  avg # of iterations =  8.7

     negative rho (up, down):  0.316E+01 0.000E+00

     total cpu time spent up to now is     8830.3 secs

     total energy              =   -4424.53536381 Ry
     Harris-Foulkes estimate   =   -4424.53576977 Ry
     estimated scf accuracy    <       0.00551017 Ry

     iteration # 19     ecut=    40.00 Ry     beta=0.30
     Davidson diagonalization with overlap
     ethr =  1.20E-06,  avg # of iterations =  1.9

     negative rho (up, down):  0.316E+01 0.000E+00

     total cpu time spent up to now is     9154.5 secs

     total energy              =   -4424.53550276 Ry
     Harris-Foulkes estimate   =   -4424.53566168 Ry
     estimated scf accuracy    <       0.00283877 Ry

     iteration # 20     ecut=    40.00 Ry     beta=0.30
     Davidson diagonalization with overlap
     ethr =  6.16E-07,  avg # of iterations =  1.0

     negative rho (up, down):  0.316E+01 0.000E+00

     total cpu time spent up to now is     9467.7 secs

     total energy              =   -4424.53555136 Ry
     Harris-Foulkes estimate   =   -4424.53562180 Ry
     estimated scf accuracy    <       0.00102422 Ry

     iteration # 21     ecut=    40.00 Ry     beta=0.30
     Davidson diagonalization with overlap
     ethr =  2.22E-07,  avg # of iterations =  1.0

     negative rho (up, down):  0.316E+01 0.000E+00

     total cpu time spent up to now is     9787.0 secs

     total energy              =   -4424.53555396 Ry
     Harris-Foulkes estimate   =   -4424.53561655 Ry
     estimated scf accuracy    <       0.00356924 Ry

     iteration # 22     ecut=    40.00 Ry     beta=0.30
     Davidson diagonalization with overlap
     ethr =  2.22E-07,  avg # of iterations =  1.0

     negative rho (up, down):  0.316E+01 0.000E+00

     total cpu time spent up to now is    10099.2 secs

     total energy              =   -4424.53557467 Ry
     Harris-Foulkes estimate   =   -4424.53559419 Ry
     estimated scf accuracy    <       0.00034546 Ry

     iteration # 23     ecut=    40.00 Ry     beta=0.30
     Davidson diagonalization with overlap
     ethr =  7.49E-08,  avg # of iterations =  1.0

     negative rho (up, down):  0.316E+01 0.000E+00

     total cpu time spent up to now is    10411.8 secs

     total energy              =   -4424.53557064 Ry
     Harris-Foulkes estimate   =   -4424.53559381 Ry
     estimated scf accuracy    <       0.00041891 Ry

     iteration # 24     ecut=    40.00 Ry     beta=0.30
     Davidson diagonalization with overlap
     ethr =  7.49E-08,  avg # of iterations =  1.0

     negative rho (up, down):  0.316E+01 0.000E+00

     total cpu time spent up to now is    10716.9 secs

     total energy              =   -4424.53557509 Ry
     Harris-Foulkes estimate   =   -4424.53559408 Ry
     estimated scf accuracy    <       0.00023897 Ry

     iteration # 25     ecut=    40.00 Ry     beta=0.30
     Davidson diagonalization with overlap
     ethr =  5.18E-08,  avg # of iterations =  1.0

     negative rho (up, down):  0.316E+01 0.000E+00

     total cpu time spent up to now is    11021.7 secs

     total energy              =   -4424.53558248 Ry
     Harris-Foulkes estimate   =   -4424.53558650 Ry
     estimated scf accuracy    <       0.00005912 Ry

     iteration # 26     ecut=    40.00 Ry     beta=0.30
     Davidson diagonalization with overlap
     ethr =  1.28E-08,  avg # of iterations =  1.0

     negative rho (up, down):  0.316E+01 0.000E+00

     total cpu time spent up to now is    11327.3 secs

     total energy              =   -4424.53558194 Ry
     Harris-Foulkes estimate   =   -4424.53558572 Ry
     estimated scf accuracy    <       0.00010505 Ry

     iteration # 27     ecut=    40.00 Ry     beta=0.30
     Davidson diagonalization with overlap
     ethr =  1.28E-08,  avg # of iterations =  1.0

     negative rho (up, down):  0.316E+01 0.000E+00

     total cpu time spent up to now is    11632.8 secs

     total energy              =   -4424.53558315 Ry
     Harris-Foulkes estimate   =   -4424.53558449 Ry
     estimated scf accuracy    <       0.00002490 Ry

     iteration # 28     ecut=    40.00 Ry     beta=0.30
     Davidson diagonalization with overlap
     ethr =  5.40E-09,  avg # of iterations =  1.0

     negative rho (up, down):  0.316E+01 0.000E+00

     total cpu time spent up to now is    11937.9 secs

     total energy              =   -4424.53558347 Ry
     Harris-Foulkes estimate   =   -4424.53558407 Ry
     estimated scf accuracy    <       0.00000550 Ry

     iteration # 29     ecut=    40.00 Ry     beta=0.30
     Davidson diagonalization with overlap
     ethr =  1.19E-09,  avg # of iterations =  1.0

     negative rho (up, down):  0.316E+01 0.000E+00

     total cpu time spent up to now is    12249.6 secs

     total energy              =   -4424.53558355 Ry
     Harris-Foulkes estimate   =   -4424.53558390 Ry
     estimated scf accuracy    <       0.00000383 Ry

     iteration # 30     ecut=    40.00 Ry     beta=0.30
     Davidson diagonalization with overlap
     ethr =  8.31E-10,  avg # of iterations =  1.0

     negative rho (up, down):  0.316E+01 0.000E+00

     total cpu time spent up to now is    12561.1 secs

     total energy              =   -4424.53558362 Ry
     Harris-Foulkes estimate   =   -4424.53558380 Ry
     estimated scf accuracy    <       0.00000211 Ry

     iteration # 31     ecut=    40.00 Ry     beta=0.30
     Davidson diagonalization with overlap
     ethr =  4.58E-10,  avg # of iterations =  1.0

     negative rho (up, down):  0.316E+01 0.000E+00

     total cpu time spent up to now is    12873.1 secs

     total energy              =   -4424.53558358 Ry
     Harris-Foulkes estimate   =   -4424.53558378 Ry
     estimated scf accuracy    <       0.00000839 Ry

     iteration # 32     ecut=    40.00 Ry     beta=0.30
     Davidson diagonalization with overlap
     ethr =  4.58E-10,  avg # of iterations =  1.0

     negative rho (up, down):  0.316E+01 0.000E+00

     total cpu time spent up to now is    13176.6 secs

     total energy              =   -4424.53558359 Ry
     Harris-Foulkes estimate   =   -4424.53558376 Ry
     estimated scf accuracy    <       0.00000708 Ry

     iteration # 33     ecut=    40.00 Ry     beta=0.30
     Davidson diagonalization with overlap
     ethr =  4.58E-10,  avg # of iterations =  1.0

     negative rho (up, down):  0.316E+01 0.000E+00

     total cpu time spent up to now is    13480.8 secs

     total energy              =   -4424.53558364 Ry
     Harris-Foulkes estimate   =   -4424.53558373 Ry
     estimated scf accuracy    <       0.00000186 Ry

     iteration # 34     ecut=    40.00 Ry     beta=0.30
     Davidson diagonalization with overlap
     ethr =  4.04E-10,  avg # of iterations =  1.0

     negative rho (up, down):  0.316E+01 0.000E+00

     total cpu time spent up to now is    13779.7 secs

     End of self-consistent calculation

          k = 0.0000 0.0000 0.0000 ( 43825 PWs)   bands (ev):

   -53.7405 -53.7402 -53.7074 -53.6853 -53.6577 -53.6525 -53.6240 -53.6236
   -53.6037 -53.5783 -53.5697 -53.5689 -53.5684 -53.5662 -53.5623 -53.5484
   -53.5370 -53.5266 -53.4806 -53.4495 -53.4453 -53.4405 -53.4340 -53.4257
   -53.4251 -53.4238 -53.4238 -53.4147 -53.3836 -53.3170 -53.3165 -53.3145
   -53.3094 -53.2901 -53.2824 -53.2774 -53.2210 -53.2124 -53.2051 -53.1680
   -53.1605 -53.0181 -52.9256 -52.9180 -52.7457 -52.7228 -52.7190 -52.5694
   -22.9914 -19.4894 -19.2330 -19.0356 -18.9292 -18.8323 -18.5331 -18.3624
   -18.3213 -18.2785 -18.2783 -18.2338 -18.2259 -18.2215 -18.1662 -18.1579
   -18.0696 -18.0603 -18.0302 -17.9897 -17.9236 -17.8929 -17.8496 -17.7467
   -17.6868 -17.6480 -17.6051 -17.5471 -17.4985 -16.7245 -16.6207 -16.6097
   -16.5417 -15.4565  -8.4077  -8.3969  -8.3606  -8.1181  -8.0581  -7.9470
    -7.7089  -7.1440  -7.1029  -7.0178  -7.0171  -6.9670  -6.9401  -6.9373
    -6.8701  -6.8649  -6.8394  -6.8393  -6.8293  -6.7981  -6.7859  -6.7542
    -6.6784  -6.6149  -6.5076  -6.4878  -6.4592  -6.3847  -6.3625  -6.2724
    -6.2645  -6.1966  -6.1926  -6.1803  -6.1663  -5.9051  -5.7972  -5.7637
    -5.6239  -5.5038  -5.3999  -5.2665  -4.9574  -4.8507  -4.7963  -4.7490
    -4.6849  -4.6779  -4.6771  -4.6196  -4.5745  -4.4996  -4.4453  -4.3918
    -4.1236  -4.1100  -4.0790  -4.0749  -3.9692  -3.9330  -3.9325  -3.8467
    -3.6771  -3.5486  -3.5280  -3.5072  -3.4564  -3.3872  -3.3564  -3.3350
    -3.2236  -3.1718  -3.1577  -3.1384  -3.1185  -3.1033  -3.0804  -3.0457
    -3.0137  -2.9246  -2.8865  -2.7465  -2.7161  -2.6560  -2.6272  -2.5984
    -2.5866  -2.5530  -2.5511  -2.5478  -2.5278  -2.5232  -2.4858  -2.4655
    -2.4605  -2.3574  -2.3304  -2.2963  -2.2737  -2.2523  -2.2377  -2.2138
    -2.1814  -2.1645  -2.0909  -2.0756  -2.0444  -2.0331  -2.0172  -1.9375
    -1.9329  -1.8806  -1.7834  -1.7193  -1.6611  -1.6516  -1.5658  -1.4780
    -1.3602  -1.3062  -1.2161  -1.1524  -1.0333  -0.9443  -0.7953  -0.7180
    -0.6788  -0.6609  -0.5691  -0.5389  -0.4942  -0.4206  -0.3563  -0.2573
    -0.1621  -0.0313   0.1578   0.1654   0.1981   0.2020   0.3122   0.4228
     0.4515   0.4741   0.5816   0.6836   0.7078   0.7649   0.8547   0.8973
     0.9384   0.9784   1.1422   1.2397   1.3584   1.6036   1.7359   1.7466
     1.8261   1.9369   1.9938   2.1450   2.2773   2.3134   2.4172   2.6170
     2.7762   2.8107   2.8456   3.5198   3.5390   3.5902   3.6095   3.6290
     3.6651   3.7227   3.7230   3.8667   4.0055   4.0775   4.3890   4.9030
     5.0994   5.3071   6.0377   6.0831   6.4587   6.8324   6.9051   7.4815
     7.5354   7.5371   8.0509   8.3780   8.4975   8.6625   8.9548   8.9786
     8.9920   9.0174   9.1368   9.1561   9.1933   9.2885   9.2898   9.4534
     9.5036   9.5048   9.5196   9.5903   9.6032   9.6253   9.6617   9.6947
     9.7020   9.7274   9.7883   9.8084   9.8845  10.0068  10.0180  10.0363
    10.0503  10.1718  10.2388  10.2990  10.3100  10.4275  10.5684  10.5738
    10.6522  10.6873  10.6931  10.7431  10.7960  11.0289  11.2076  11.2377
    11.2553  11.3413  11.3427  11.4929  11.5269  11.6606  11.7341  11.8042
    11.9205  12.0003  12.0346  12.0792  12.1600  12.1804  12.2390  12.3121
    12.3868  12.4393  12.4965  12.5696  12.6007  12.6388  12.7199  12.7516
    12.8264  12.9169  13.0370  13.0427  13.1602  13.1835  13.2168  13.2277
    13.3195  13.3645  13.3823  13.4272  13.4487  13.4603  13.5267  13.5509
    13.5632  13.6250  13.6355  13.6377  13.6651  13.6666  13.7400  13.7597
    13.8753  13.8874  13.9207  13.9791  14.0424  14.0791  14.1623  14.2125
    14.3518  14.3767  14.4157  14.4596  14.5401  14.5851  14.6448  14.6604
    14.7387  14.7703  14.7831  14.8861  15.0438  15.0652  15.1022  15.2018
    15.2608  15.2896  15.3029  15.5601  15.5633  15.6560  15.7229  15.7282
    15.8453  15.9716  15.9990  16.0010  16.1226  16.1709  16.1710  16.2136
    16.2387  16.2555  16.4097  16.4700  16.4983  16.5263  16.5529  16.7210
    16.7295  16.7347  16.7975  16.8621  16.9485  17.0028  17.0507  17.1961
    17.2345  17.2652  17.2788  17.3378  17.4331  17.4678  17.5607  17.5968
    17.6070  17.6209  17.7129  17.8184  17.8432  17.9350  17.9765  18.1221
    18.2177  18.2709  18.3555  18.3654  18.3785  18.4498  18.4672  18.4695
    18.4829  18.5204  18.5379  18.5395  18.5594  18.5840  18.5898  18.6288
    18.6539  18.6674  18.6864  18.7169  18.7489  18.7858  18.8127  18.8896
    18.8985  18.9295  18.9501  18.9677  19.0315  19.0718  19.0973  19.1653
    19.2356  19.2873  19.3209  19.3603  19.4205  19.5057  19.5724  19.5934
    19.7120  19.7323  19.7939  19.8259  19.9019  19.9032  20.0364  20.0544
    20.1283  20.1566  20.1897  20.2202  20.3058  20.3076  20.3460  20.3608
    20.4093  20.4618  20.4968  20.5933  20.5939  20.6569  20.6785  20.7196
    20.7440  20.7500  20.7596  20.8150  20.8290  20.9040  20.9338  20.9698
    20.9955  21.0455  21.0580  21.0947  21.1428  21.1874  21.2094  21.2139
    21.3508  21.3644  21.4040  21.4081  21.4839  21.5368  21.5539  21.5666
    21.6757  21.7745  21.7899  21.8564  21.9345  21.9425  21.9534  21.9860
    22.0283  22.0461  22.0749  22.0836  22.1563  22.2115  22.2178  22.2808
    22.3291  22.3469  22.4522  22.4735  22.5236  22.5564  22.6254  22.6448
    22.6704  22.6749  22.7361  22.7923  22.9000  22.9561  22.9959  23.0188
    23.1293  23.1748  23.2005  23.2147  23.2718  23.3399  23.3499  23.3594
    23.3912  23.4502  23.4884  23.5153  23.5636  23.6632  23.7068  23.7404
    23.7596  23.7878  23.8044  23.8282  23.8501  23.8986  23.9042  23.9308
    23.9512  23.9589  23.9705  24.0180  24.0373  24.0856  24.0914  24.1024
    24.1370  24.1546  24.1802  24.2195  24.2260  24.2438  24.2957  24.3773
    24.3873  24.4017  24.4373  24.4440  24.4702  24.4944  24.5226  24.5855
    24.6128  24.6359  24.6744  24.7454  24.7684  24.7969  24.8462  24.8491
    24.8686  24.8862  24.9395  24.9454  24.9859  25.0229  25.0559  25.0572
    25.0892  25.1211  25.1274  25.1371  25.1439  25.2049  25.2294  25.2522
    25.3285  25.3720  25.4401  25.4930  25.5094  25.5377  25.5647  25.6130
    25.6272  25.6968  25.7401  25.7581  25.7997  25.8051  25.8657  25.9374
    25.9450  25.9827  26.0160  26.0680  26.1276  26.1277  26.1324  26.1934
    26.1979  26.2139  26.2476  26.2487  26.2513  26.2684  26.3060  26.3302
    26.3608  26.3617  26.4862  26.5029  26.5897  26.6549  26.6967  26.7807
    26.7873  26.8263  26.8700  26.8708  26.9339  26.9494  27.0321  27.0372
    27.0660  27.0864  27.1138  27.1157  27.2018  27.2559  27.2618  27.2976
    27.3065  27.3419  27.4012

          k = 0.0000 0.2488 0.0000 ( 43767 PWs)   bands (ev):

   -53.7405 -53.7402 -53.7075 -53.6853 -53.6578 -53.6525 -53.6241 -53.6237
   -53.6037 -53.5783 -53.5696 -53.5689 -53.5685 -53.5663 -53.5623 -53.5484
   -53.5370 -53.5266 -53.4807 -53.4491 -53.4452 -53.4377 -53.4335 -53.4255
   -53.4251 -53.4247 -53.4237 -53.4166 -53.3840 -53.3174 -53.3165 -53.3145
   -53.3094 -53.2901 -53.2824 -53.2773 -53.2210 -53.2124 -53.2051 -53.1680
   -53.1605 -53.0181 -52.9257 -52.9180 -52.7458 -52.7228 -52.7190 -52.5694
   -22.9912 -19.3830 -19.1182 -18.9318 -18.8876 -18.8129 -18.5807 -18.3571
   -18.3460 -18.3253 -18.3103 -18.2794 -18.2789 -18.2226 -18.1712 -18.1569
   -18.0619 -18.0268 -17.9860 -17.9643 -17.9282 -17.8964 -17.8540 -17.7714
   -17.7509 -17.7160 -17.6907 -17.6631 -17.6030 -16.7249 -16.6092 -16.6085
   -16.5375 -15.4543  -8.0993  -7.9683  -7.9361  -7.9265  -7.8722  -7.7271
    -7.6385  -7.1305  -7.1259  -7.0944  -7.0679  -6.9571  -6.9531  -6.9381
    -6.8999  -6.8666  -6.8528  -6.8417  -6.8158  -6.7976  -6.7932  -6.7931
    -6.7509  -6.7445  -6.6605  -6.6210  -6.5683  -6.5053  -6.4788  -6.3717
    -6.3232  -6.2774  -5.9865  -5.9703  -5.6151  -5.5662  -5.4569  -5.4448
    -5.3719  -5.2960  -5.1145  -4.9526  -4.8785  -4.8515  -4.8295  -4.7315
    -4.7063  -4.6896  -4.6775  -4.6495  -4.6299  -4.6031  -4.5639  -4.5543
    -4.5513  -4.5375  -4.4331  -4.3558  -4.1944  -4.1304  -4.1090  -4.0250
    -3.9649  -3.9280  -3.8454  -3.7978  -3.7071  -3.6986  -3.6381  -3.5824
    -3.5149  -3.5128  -3.4661  -3.2925  -3.2491  -3.2213  -3.1954  -3.1085
    -3.0685  -2.9154  -2.8876  -2.8764  -2.8642  -2.8502  -2.7404  -2.6224
    -2.5342  -2.5240  -2.4749  -2.4631  -2.4049  -2.2585  -2.2565  -2.2511
    -2.2330  -2.1810  -2.1287  -2.1111  -2.0842  -2.0708  -2.0310  -2.0166
    -2.0080  -1.9772  -1.9426  -1.8997  -1.8793  -1.8221  -1.8179  -1.7948
    -1.7176  -1.7075  -1.7057  -1.6776  -1.6079  -1.5371  -1.5127  -1.4878
    -1.4582  -1.3652  -1.3346  -1.3213  -1.3172  -1.2215  -1.1298  -1.0483
    -1.0405  -0.8851  -0.7795  -0.6896  -0.6866  -0.5679  -0.4787  -0.2857
     0.1315   0.1960   0.2431   0.3419   0.3834   0.4261   0.4526   0.4723
     0.5210   0.5774   0.6289   0.6633   0.6634   0.7480   0.7519   0.8330
     0.8399   0.8772   0.9329   0.9574   1.0158   1.1779   1.2102   1.3277
     1.6267   2.0439   2.2231   2.3065   2.4942   2.6202   2.9095   3.3652
     3.4414   3.4534   3.4999   3.5449   3.5505   3.5575   3.5918   3.6328
     3.6627   3.6645   3.6726   3.7624   4.0074   4.0780   4.3668   5.1201
     5.2532   5.4998   6.2116   6.2732   6.6176   6.8988   7.0459   7.4657
     7.5473   7.6477   7.7678   7.8999   7.9472   8.1216   8.3395   8.3795
     8.5438   8.6870   8.8111   9.0451   9.0788   9.1447   9.1704   9.3266
     9.3597   9.5971   9.6194   9.6462   9.7444   9.7892   9.7952   9.8268
     9.8934   9.9109   9.9156   9.9702  10.0352  10.1118  10.1471  10.2145
    10.2591  10.3511  10.3927  10.4899  10.5264  10.5347  10.5881  10.6921
    10.7256  10.7770  10.8249  10.9030  11.0204  11.0360  11.1008  11.1656
    11.2285  11.3107  11.3913  11.4605  11.5389  11.5963  11.6079  11.7106
    11.7227  11.7591  11.8474  11.9377  12.0288  12.0415  12.1030  12.1717
    12.1898  12.2673  12.3376  12.3843  12.5056  12.5326  12.5993  12.6151
    12.7209  12.7997  12.8263  13.0156  13.0504  13.2476  13.2979  13.3214
    13.3322  13.4005  13.4651  13.4728  13.5444  13.5847  13.6473  13.7162
    13.7317  13.7605  13.8364  13.9232  13.9840  14.0525  14.1179  14.1397
    14.1803  14.2491  14.2720  14.3290  14.4015  14.4400  14.4496  14.4984
    14.5630  14.6135  14.6318  14.7058  14.7090  14.8416  14.9009  14.9035
    14.9941  15.1016  15.1586  15.1587  15.2244  15.3041  15.3562  15.3619
    15.4166  15.5536  15.5896  15.6571  15.6730  15.7273  15.8422  15.8585
    15.8979  15.9841  16.0652  16.0696  16.1616  16.1805  16.2145  16.3384
    16.3783  16.4417  16.4928  16.5264  16.5582  16.6211  16.7821  16.8059
    16.8896  16.9031  17.0060  17.0085  17.1339  17.1783  17.2283  17.2405
    17.3060  17.3661  17.3897  17.4048  17.4502  17.4719  17.5015  17.5336
    17.5554  17.5973  17.6383  17.6990  17.7623  17.8125  17.8911  17.9157
    17.9844  18.0182  18.0541  18.1244  18.1284  18.1859  18.2164  18.3103
    18.3312  18.4090  18.4385  18.4841  18.5155  18.5276  18.5366  18.5403
    18.5487  18.5856  18.5938  18.5993  18.6118  18.6454  18.6713  18.6934
    18.7307  18.7579  18.8077  18.8275  18.8385  18.8470  18.8713  18.9298
    18.9524  19.0076  19.0405  19.1273  19.2027  19.2142  19.2734  19.2882
    19.4026  19.4307  19.4594  19.4852  19.5340  19.6324  19.7281  19.7307
    19.8370  19.8539  19.9183  19.9805  20.0449  20.0506  20.1485  20.1702
    20.1813  20.2540  20.2873  20.4050  20.4098  20.4383  20.4558  20.4929
    20.5428  20.5527  20.6470  20.6605  20.6998  20.7053  20.7667  20.7950
    20.8479  20.8580  20.8802  20.8906  20.9629  20.9667  20.9881  21.0317
    21.0707  21.1156  21.1492  21.2087  21.2869  21.2874  21.2967  21.3749
    21.3769  21.4752  21.4997  21.5524  21.5930  21.6920  21.7181  21.7667
    21.7765  21.8354  21.8461  21.9371  21.9507  21.9761  22.0254  22.0687
    22.0754  22.1554  22.2041  22.2211  22.2703  22.3114  22.3416  22.3683
    22.3927  22.4410  22.4899  22.5321  22.5652  22.5837  22.6282  22.6777
    22.7486  22.7615  22.8147  22.8258  22.8720  22.9325  22.9768  22.9983
    23.0001  23.1424  23.1448  23.1800  23.2376  23.2410  23.2696  23.3116
    23.3163  23.3905  23.4108  23.4247  23.5622  23.6527  23.6718  23.7330
    23.7491  23.7740  23.8426  23.8651  23.9320  23.9664  24.0109  24.0668
    24.1258  24.1672  24.1862  24.2175  24.2217  24.2674  24.3396  24.3854
    24.3928  24.4691  24.5077  24.5104  24.5743  24.5950  24.6330  24.6425
    24.7036  24.7095  24.8314  24.8848  24.9300  24.9616  24.9631  24.9931
    25.0223  25.0868  25.1131  25.1451  25.2024  25.2089  25.2770  25.3299
    25.3533  25.4143  25.4199  25.4723  25.5284  25.5411  25.5585  25.6376
    25.6399  25.7137  25.7305  25.7826  25.8171  25.8896  25.9215  25.9619
    26.0149  26.0443  26.0496  26.1057  26.1228  26.2424  26.2750  26.3089
    26.3122  26.3724  26.3831  26.4316  26.4492  26.4562  26.4712  26.5334
    26.5345  26.5698  26.5939  26.6241  26.6604  26.7047  26.7552  26.7593
    26.7883  26.8597  26.9017  26.9209  27.0003  27.0033  27.0255  27.0544
    27.0780  27.1374  27.1498  27.2355  27.2358  27.2583  27.2891  27.3598
    27.3662  27.4316  27.4666  27.4866  27.5226  27.5508  27.5607  27.5782
    27.6351  27.6701  27.7082

          k = 0.0000-0.4976 0.0000 ( 43712 PWs)   bands (ev):

   -53.7406 -53.7403 -53.7076 -53.6853 -53.6577 -53.6525 -53.6241 -53.6237
   -53.6037 -53.5783 -53.5695 -53.5689 -53.5685 -53.5664 -53.5623 -53.5484
   -53.5370 -53.5266 -53.4808 -53.4486 -53.4452 -53.4334 -53.4331 -53.4272
   -53.4254 -53.4251 -53.4236 -53.4183 -53.3844 -53.3179 -53.3165 -53.3144
   -53.3094 -53.2901 -53.2824 -53.2772 -53.2210 -53.2124 -53.2051 -53.1680
   -53.1605 -53.0181 -52.9258 -52.9180 -52.7458 -52.7228 -52.7190 -52.5694
   -22.9911 -19.1532 -19.1203 -18.8659 -18.7991 -18.6553 -18.6190 -18.4586
   -18.4021 -18.3679 -18.3494 -18.3316 -18.3233 -18.2209 -18.1735 -18.1559
   -18.0632 -17.9969 -17.9492 -17.9434 -17.9334 -17.9003 -17.8804 -17.8587
   -17.8259 -17.8238 -17.7536 -17.6950 -17.6729 -16.7254 -16.6088 -16.5990
   -16.5342 -15.4521  -8.0955  -7.9513  -7.6989  -7.2906  -7.2840  -7.1963
    -7.1842  -7.1405  -7.1245  -7.0827  -7.0425  -7.0323  -7.0028  -6.9338
    -6.8805  -6.8441  -6.8414  -6.8319  -6.8286  -6.8025  -6.7427  -6.7240
    -6.7190  -6.7048  -6.6860  -6.5988  -6.5024  -6.4742  -6.4475  -6.4028
    -6.3567  -6.2790  -5.9607  -5.6939  -5.6371  -5.6214  -5.5912  -5.5587
    -5.5424  -5.5131  -5.4164  -5.3998  -5.0842  -4.9479  -4.8785  -4.7780
    -4.7676  -4.7221  -4.6926  -4.6732  -4.6656  -4.6119  -4.5630  -4.5411
    -4.3868  -4.3518  -4.3120  -4.2861  -4.2705  -4.2338  -4.2175  -4.2120
    -4.2120  -4.1673  -4.0699  -3.9228  -3.8957  -3.8546  -3.8376  -3.7220
    -3.7125  -3.6813  -3.6340  -3.5351  -3.4602  -3.3243  -3.3108  -3.2131
    -3.1687  -2.9113  -2.8972  -2.8643  -2.8258  -2.6161  -2.6003  -2.5755
    -2.5408  -2.5071  -2.4922  -2.4211  -2.3266  -2.3118  -2.2552  -2.2365
    -2.2164  -2.1787  -2.1132  -2.0807  -2.0802  -2.0642  -2.0359  -2.0024
    -1.9762  -1.9291  -1.8945  -1.8171  -1.8170  -1.7856  -1.7039  -1.6949
    -1.6809  -1.6207  -1.5881  -1.5597  -1.5499  -1.5301  -1.5108  -1.4518
    -1.4241  -1.3875  -1.3251  -1.2999  -1.2856  -1.2675  -1.1911  -1.1869
    -1.1718  -0.8350  -0.7825  -0.7174  -0.6369  -0.5718  -0.3344  -0.2903
    -0.1034  -0.0614   0.2307   0.2852   0.2890   0.3007   0.3477   0.4471
     0.4671   0.5059   0.5378   0.6028   0.6071   0.6889   0.7155   0.7523
     0.8255   0.8315   0.8381   0.8852   0.9114   0.9231   1.2676   1.3640
     1.8471   2.3173   2.3194   2.3478   2.7713   3.2034   3.2334   3.2649
     3.2678   3.3411   3.4336   3.5464   3.5931   3.7301   3.7387   3.7865
     3.8015   3.9595   4.0079   4.0529   4.0784   4.0911   4.1664   5.5509
     5.6310   5.9757   6.4855   6.6912   6.7429   6.8754   6.9975   7.1757
     7.2066   7.3669   7.5087   7.5678   7.7323   7.7610   7.8091   8.1201
     8.3441   8.4256   8.4750   8.7585   9.0243   9.1341   9.1852   9.4489
     9.4544   9.5409   9.5454   9.7400   9.8771   9.8782   9.9649   9.9924
    10.0416  10.0894  10.1116  10.1577  10.2493  10.2965  10.3243  10.3856
    10.4654  10.5073  10.5322  10.5362  10.5512  10.5775  10.6002  10.6450
    10.6759  10.7192  10.7707  10.7820  10.8842  10.9094  10.9234  10.9751
    10.9820  11.0123  11.0709  11.1247  11.1861  11.3753  11.4172  11.4574
    11.5823  11.5932  11.7230  11.7799  11.8279  12.0201  12.1671  12.2369
    12.2851  12.2961  12.4125  12.5371  12.6247  12.7295  12.8016  12.9051
    12.9763  13.1209  13.1845  13.2968  13.3390  13.3877  13.4231  13.4858
    13.4886  13.5227  13.5575  13.5811  13.6201  13.7693  13.7783  13.9272
    13.9880  13.9999  14.0699  14.1014  14.1701  14.2287  14.3295  14.3339
    14.3697  14.4343  14.4395  14.4621  14.5310  14.5560  14.5565  14.5686
    14.5926  14.6783  14.6839  14.7414  14.8375  14.9240  15.0784  15.1789
    15.2228  15.2264  15.3047  15.3090  15.4101  15.5033  15.5566  15.6105
    15.6383  15.7194  15.8010  15.8479  15.8838  15.8935  15.9482  15.9589
    15.9637  16.0425  16.1305  16.2044  16.2287  16.2611  16.3341  16.3569
    16.4622  16.5398  16.5689  16.6347  16.7128  16.8025  16.8477  16.8680
    16.9471  16.9881  17.0590  17.1882  17.2476  17.2756  17.2836  17.3228
    17.3406  17.3709  17.3879  17.4178  17.4662  17.4835  17.5345  17.6083
    17.6760  17.6840  17.7230  17.7268  17.7371  17.7741  17.9381  18.0019
    18.0037  18.0363  18.0593  18.0911  18.1053  18.1166  18.1908  18.1959
    18.2059  18.2445  18.3174  18.3763  18.3954  18.4309  18.4591  18.4767
    18.4845  18.5061  18.5253  18.5330  18.5536  18.5646  18.5810  18.5929
    18.5937  18.6203  18.6458  18.6519  18.6738  18.7012  18.7524  18.7760
    18.7818  18.8342  18.8623  18.8866  18.9253  18.9518  19.0017  19.0755
    19.1622  19.1860  19.2121  19.2229  19.2535  19.2823  19.2903  19.3470
    19.4072  19.4427  19.4474  19.4711  19.5254  19.5547  19.5927  19.7992
    19.8690  19.9084  19.9591  19.9811  20.0863  20.1077  20.1381  20.1588
    20.2047  20.2458  20.2843  20.3176  20.3922  20.4203  20.4439  20.4892
    20.5403  20.5832  20.5994  20.6452  20.7285  20.7838  20.9113  20.9697
    20.9781  20.9918  21.0459  21.0826  21.1051  21.1160  21.1538  21.2271
    21.2474  21.3704  21.3796  21.4068  21.4424  21.4988  21.5446  21.5736
    21.5774  21.6166  21.6308  21.6876  21.7129  21.7329  21.8549  21.8592
    21.8827  21.9385  21.9550  21.9741  21.9938  22.0341  22.0682  22.1275
    22.1388  22.1404  22.2440  22.3168  22.3425  22.3772  22.4328  22.4970
    22.4979  22.5500  22.6267  22.6617  22.6686  22.6966  22.7162  22.7793
    22.8037  22.8823  22.9220  22.9514  22.9861  23.0432  23.1244  23.1722
    23.2010  23.2174  23.2331  23.2481  23.3332  23.3391  23.3982  23.4645
    23.4857  23.5176  23.5760  23.6362  23.7320  23.8052  23.9086  24.0320
    24.1148  24.1507  24.1557  24.2431  24.2730  24.2825  24.3135  24.3567
    24.3983  24.4743  24.5236  24.5753  24.6042  24.6484  24.6718  24.7269
    24.7439  24.8007  24.8232  24.8613  24.8708  24.9091  24.9774  25.0526
    25.0541  25.2190  25.2734  25.2812  25.2987  25.3521  25.4105  25.4637
    25.4786  25.6233  25.6618  25.6752  25.7706  25.8051  25.8072  25.8316
    25.9356  25.9477  26.0181  26.0464  26.0574  26.1537  26.1608  26.1903
    26.2206  26.2438  26.2564  26.2674  26.3543  26.3657  26.3802  26.3855
    26.4265  26.4705  26.4814  26.5072  26.5216  26.6125  26.6871  26.7667
    26.7815  26.8339  26.9171  26.9711  26.9852  27.0319  27.1008  27.1036
    27.1054  27.2431  27.2564  27.3721  27.4367  27.4670  27.5098  27.5576
    27.5862  27.6549  27.6867  27.6998  27.7597  27.7642  27.8118  27.8439
    27.9265  28.0006  28.0498  28.0520  28.0712  28.1747  28.2066  28.2681
    28.2787  28.3026  28.3078

          k = 0.2500 0.0000 0.0000 ( 43773 PWs)   bands (ev):

   -53.7397 -53.7325 -53.6996 -53.6933 -53.6604 -53.6499 -53.6159 -53.6157
   -53.6117 -53.5788 -53.5770 -53.5763 -53.5692 -53.5667 -53.5620 -53.5485
   -53.5368 -53.5267 -53.4725 -53.4489 -53.4459 -53.4392 -53.4332 -53.4328
   -53.4277 -53.4269 -53.4214 -53.4145 -53.3836 -53.3166 -53.3155 -53.3149
   -53.3104 -53.2890 -53.2836 -53.2692 -53.2293 -53.2113 -53.2062 -53.1669
   -53.1616 -53.0187 -52.9245 -52.9191 -52.7457 -52.7223 -52.7194 -52.5694
   -22.9913 -19.3629 -19.1170 -18.9294 -18.8261 -18.7361 -18.6232 -18.4818
   -18.4479 -18.3801 -18.2988 -18.2792 -18.2166 -18.1648 -18.1575 -18.1278
   -18.0519 -18.0106 -17.9707 -17.9475 -17.9281 -17.8648 -17.8378 -17.8039
   -17.7457 -17.7127 -17.6703 -17.6153 -17.5590 -16.7487 -16.6671 -16.6372
   -16.5832 -15.4558  -8.2401  -8.2328  -8.1994  -7.9969  -7.9125  -7.8012
    -7.6941  -7.3102  -7.2529  -7.2318  -7.0973  -7.0206  -6.9698  -6.9400
    -6.9298  -6.8788  -6.8736  -6.8377  -6.7655  -6.7458  -6.6831  -6.6526
    -6.6144  -6.5055  -6.4922  -6.4340  -6.3413  -6.2691  -6.1608  -6.1264
    -6.1049  -6.0840  -6.0312  -6.0186  -5.9611  -5.8986  -5.8509  -5.7408
    -5.6711  -5.4747  -5.3892  -5.3545  -5.0477  -5.0137  -4.8321  -4.7371
    -4.7292  -4.6991  -4.6318  -4.5856  -4.4937  -4.4863  -4.4122  -4.4022
    -4.3478  -4.2722  -4.1703  -4.1613  -4.0565  -4.0290  -4.0100  -3.9301
    -3.9155  -3.8736  -3.8570  -3.7647  -3.7172  -3.6777  -3.6558  -3.6250
    -3.5036  -3.4683  -3.4322  -3.3853  -3.3577  -3.2755  -3.2665  -3.1910
    -3.1241  -3.0826  -3.0528  -3.0277  -3.0222  -2.9967  -2.9703  -2.9321
    -2.8748  -2.8348  -2.6961  -2.6721  -2.4662  -2.4303  -2.3943  -2.3706
    -2.3610  -2.3421  -2.1993  -2.1637  -2.1549  -2.1184  -2.1125  -2.0965
    -2.0725  -1.9409  -1.8899  -1.8844  -1.8479  -1.7795  -1.7669  -1.7523
    -1.5919  -1.5290  -1.4786  -1.4486  -1.3749  -1.2838  -1.2421  -1.1992
    -1.1661  -1.1235  -1.0859  -1.0562  -1.0138  -0.8842  -0.7029  -0.5743
    -0.4444  -0.3974  -0.3792  -0.3498  -0.3177  -0.2753  -0.2718  -0.2062
    -0.1672  -0.0790   0.0265   0.0536   0.0698   0.1984   0.3235   0.4399
     0.4901   0.5600   0.5708   0.5832   0.6011   0.6688   0.7786   0.7910
     0.8110   1.0111   1.1724   1.4140   1.5589   1.8287   1.9625   1.9750
     2.0574   2.1593   2.1811   2.2807   2.3275   2.3880   2.4597   2.6279
     2.7529   2.7980   2.8289   2.9480   3.2061   3.2969   3.3216   3.3501
     3.4995   3.5481   3.5802   3.6111   3.6523   3.7785   4.3244   5.2439
     5.3438   5.5701   6.2713   6.3145   6.6390   6.9716   7.0405   7.0987
     7.2668   7.7219   7.7848   8.0801   8.1205   8.4184   8.5206   8.5211
     8.7328   8.7626   8.9054   8.9833   9.1215   9.1527   9.3210   9.3428
     9.4023   9.4520   9.4739   9.5720   9.7154   9.7364   9.7885   9.8335
     9.9257   9.9590   9.9759  10.0288  10.0359  10.1765  10.2175  10.2926
    10.3448  10.4351  10.4636  10.5273  10.5887  10.6243  10.7715  10.8483
    10.8679  10.9041  10.9449  10.9827  11.0468  11.1038  11.1176  11.2480
    11.3756  11.4469  11.4915  11.5183  11.5810  11.6123  11.6913  11.7110
    11.7450  11.8037  11.9137  11.9943  12.0255  12.0757  12.0931  12.1112
    12.1316  12.2374  12.3519  12.4080  12.4678  12.5443  12.5960  12.6427
    12.6863  12.7901  12.8044  12.8303  12.8881  12.9510  13.1002  13.1051
    13.1601  13.3065  13.3560  13.4075  13.4519  13.4741  13.5171  13.5530
    13.5974  13.7201  13.7456  13.7533  13.7767  13.8335  13.9284  13.9575
    13.9839  14.0283  14.1569  14.2430  14.3871  14.4234  14.5234  14.5716
    14.6496  14.6947  14.7444  14.7951  14.8124  14.9120  14.9496  14.9923
    15.0535  15.1329  15.1626  15.2230  15.3415  15.3563  15.3810  15.4435
    15.5008  15.5281  15.5487  15.6208  15.7412  15.7727  15.8109  15.8298
    15.8794  15.9229  15.9868  15.9954  16.0191  16.0419  16.1195  16.1496
    16.1680  16.2290  16.2478  16.2570  16.3043  16.3306  16.4196  16.4888
    16.5503  16.6107  16.6736  16.7355  16.7574  16.7880  16.8168  16.8991
    16.9979  17.0749  17.1414  17.1982  17.2461  17.2713  17.3947  17.4288
    17.4589  17.5189  17.5651  17.6040  17.6617  17.6941  17.7801  17.8032
    17.8942  17.9169  17.9611  18.0427  18.2232  18.2291  18.3136  18.3808
    18.4725  18.5162  18.5397  18.5475  18.5520  18.5601  18.5683  18.5809
    18.6059  18.6122  18.6431  18.6535  18.7077  18.7322  18.7572  18.7755
    18.8376  18.8665  18.8806  18.8941  18.9385  18.9848  19.0653  19.1295
    19.1637  19.2026  19.2736  19.2995  19.3310  19.3692  19.4316  19.4635
    19.6059  19.6211  19.6558  19.7400  19.8838  19.9801  20.0447  20.0752
    20.0850  20.1165  20.1442  20.2172  20.2910  20.3306  20.3501  20.3796
    20.4373  20.4456  20.4658  20.4859  20.5191  20.5468  20.5894  20.6310
    20.6694  20.7293  20.7402  20.7836  20.7977  20.8453  20.9050  20.9472
    20.9826  20.9951  21.0605  21.0692  21.1525  21.1775  21.2252  21.2967
    21.3253  21.3506  21.3753  21.4028  21.4205  21.4579  21.4828  21.5197
    21.5545  21.5850  21.6685  21.7074  21.7624  21.8000  21.8305  21.8515
    21.8990  21.9102  21.9320  21.9959  22.0254  22.0373  22.0784  22.1181
    22.1262  22.1750  22.2022  22.2357  22.2627  22.2850  22.3144  22.3227
    22.3542  22.4194  22.4518  22.4954  22.5093  22.5603  22.6107  22.6332
    22.6813  22.7006  22.7287  22.7576  22.7911  22.8654  22.8961  22.9050
    22.9612  23.0067  23.0263  23.1224  23.1746  23.2091  23.2391  23.2845
    23.3279  23.3618  23.3930  23.4420  23.4847  23.5303  23.5630  23.5893
    23.6242  23.6577  23.7558  23.8036  23.8663  23.9082  23.9282  24.0002
    24.0376  24.1062  24.1209  24.1954  24.2243  24.2720  24.3150  24.3706
    24.3848  24.4225  24.4832  24.5169  24.5903  24.5990  24.6543  24.7142
    24.7811  24.8427  24.8839  24.9221  24.9584  24.9922  25.0155  25.0522
    25.1190  25.1540  25.1636  25.2218  25.2759  25.3057  25.3274  25.3770
    25.4241  25.4386  25.4924  25.5190  25.5597  25.6045  25.6418  25.6620
    25.6864  25.7220  25.7432  25.7930  25.8397  25.8803  25.9249  25.9726
    26.0089  26.0750  26.0903  26.1320  26.1354  26.1710  26.2164  26.2300
    26.2530  26.3012  26.3238  26.3513  26.3796  26.4119  26.4933  26.5598
    26.5754  26.5947  26.6090  26.6707  26.7094  26.7219  26.7323  26.7575
    26.8087  26.8289  26.8877  26.9237  26.9526  26.9722  26.9907  27.0143
    27.0254  27.0299  27.0779  27.1247  27.1512  27.1717  27.2510  27.2627
    27.2727  27.3286  27.3693  27.3797  27.4222  27.4401  27.4705  27.4959
    27.5491  27.5725  27.6033

          k = 0.2500 0.2488 0.0000 ( 43747 PWs)   bands (ev):

   -53.7397 -53.7326 -53.6997 -53.6933 -53.6604 -53.6499 -53.6160 -53.6157
   -53.6117 -53.5788 -53.5770 -53.5763 -53.5691 -53.5668 -53.5620 -53.5485
   -53.5368 -53.5267 -53.4727 -53.4485 -53.4458 -53.4367 -53.4340 -53.4316
   -53.4268 -53.4266 -53.4229 -53.4164 -53.3840 -53.3170 -53.3154 -53.3149
   -53.3104 -53.2890 -53.2836 -53.2691 -53.2293 -53.2113 -53.2062 -53.1669
   -53.1616 -53.0186 -52.9246 -52.9191 -52.7458 -52.7223 -52.7194 -52.5694
   -22.9911 -19.2608 -19.0061 -18.8278 -18.7880 -18.7135 -18.5746 -18.4892
   -18.4317 -18.3368 -18.3265 -18.2601 -18.2390 -18.2037 -18.1708 -18.1522
   -18.0557 -18.0400 -17.9950 -17.9798 -17.9344 -17.9053 -17.8599 -17.8301
   -17.8087 -17.7762 -17.7493 -17.7256 -17.6580 -16.7491 -16.6573 -16.6372
   -16.5796 -15.4535  -7.9867  -7.8142  -7.7957  -7.7864  -7.7395  -7.6944
    -7.5090  -7.2009  -7.1440  -7.0947  -7.0768  -6.9662  -6.9289  -6.8792
    -6.8618  -6.8579  -6.8273  -6.7993  -6.7535  -6.7234  -6.6941  -6.6723
    -6.6516  -6.6112  -6.5603  -6.4973  -6.4748  -6.3486  -6.2317  -6.1602
    -6.1147  -6.0991  -6.0136  -5.8543  -5.8280  -5.7830  -5.6797  -5.5689
    -5.5357  -5.5071  -5.4081  -5.3679  -5.1512  -4.9050  -4.8549  -4.7693
    -4.7311  -4.7167  -4.6769  -4.6332  -4.5412  -4.5308  -4.5121  -4.4735
    -4.4363  -4.4187  -4.3683  -4.2892  -4.2751  -4.2513  -4.2432  -4.2259
    -4.1874  -4.1426  -4.0991  -4.0431  -4.0007  -3.9341  -3.8269  -3.7855
    -3.7545  -3.6542  -3.5952  -3.5844  -3.5711  -3.4844  -3.4391  -3.3310
    -3.3133  -3.2978  -3.1519  -2.9865  -2.9478  -2.8576  -2.8382  -2.8108
    -2.7716  -2.7391  -2.6318  -2.5070  -2.4502  -2.4118  -2.3915  -2.3572
    -2.3328  -2.2632  -2.2285  -2.1939  -2.1869  -1.9418  -1.9292  -1.8972
    -1.8606  -1.8159  -1.6636  -1.6367  -1.6132  -1.5797  -1.5239  -1.4878
    -1.4385  -1.4025  -1.3808  -1.3261  -1.2996  -1.2634  -1.2479  -1.2102
    -1.1843  -1.1679  -1.1478  -1.0850  -1.0491  -0.9995  -0.9647  -0.8964
    -0.8413  -0.6891  -0.6376  -0.4549  -0.3559  -0.3271  -0.2481  -0.1967
     0.0153   0.1083   0.1674   0.2037   0.2654   0.3295   0.3431   0.3767
     0.4144   0.4411   0.5755   0.6204   0.6326   0.7074   0.7251   0.7519
     0.8230   0.9294   1.1444   1.2010   1.3260   1.3716   1.4919   1.5281
     1.7708   2.1321   2.3377   2.4035   2.5239   2.6012   2.7631   2.8876
     2.9811   3.1640   3.1951   3.2185   3.2588   3.3690   3.3908   3.5234
     3.5645   3.5701   3.5967   3.7232   3.7732   3.8122   4.2985   5.4438
     5.4964   5.8022   6.4275   6.5161   6.8079   7.0387   7.1285   7.2684
     7.4016   7.7121   7.9203   7.9563   8.1456   8.1672   8.2941   8.3259
     8.4298   8.5846   8.6410   8.7206   8.7671   8.9048   8.9637   9.0524
     9.1672   9.2585   9.3674   9.4596   9.4785   9.5327   9.6505   9.7560
     9.9108   9.9862  10.0292  10.0620  10.0982  10.1321  10.1748  10.2530
    10.3229  10.3767  10.3968  10.4226  10.4970  10.6241  10.7154  10.7444
    10.7965  10.8542  10.8927  10.9250  11.0404  11.0729  11.1648  11.2640
    11.3151  11.4583  11.4656  11.5232  11.5896  11.7455  11.8091  11.8643
    11.8920  11.9824  12.0487  12.0987  12.1500  12.2032  12.2281  12.3404
    12.3890  12.4278  12.4822  12.5621  12.6877  12.7381  12.8144  12.8547
    12.9944  13.0763  13.1261  13.1637  13.2498  13.3009  13.3614  13.4455
    13.4797  13.5152  13.5569  13.6153  13.6409  13.6828  13.7713  13.8152
    13.8983  13.9293  13.9841  14.0252  14.0647  14.1221  14.1713  14.2103
    14.2690  14.3068  14.3386  14.3753  14.4310  14.4804  14.5226  14.5805
    14.6186  14.6896  14.7047  14.7607  14.7845  14.8327  14.8684  14.9429
    14.9635  14.9927  15.0453  15.0980  15.1712  15.2271  15.2788  15.3264
    15.3888  15.4633  15.5100  15.5553  15.6446  15.6990  15.7328  15.8294
    15.9341  15.9703  16.0601  16.0880  16.1473  16.1960  16.2460  16.2955
    16.3607  16.3810  16.4466  16.4783  16.5712  16.6297  16.6700  16.7385
    16.7801  16.8430  16.8927  16.9246  17.0183  17.0848  17.1041  17.1345
    17.1588  17.1815  17.2307  17.2631  17.2933  17.3332  17.3758  17.4201
    17.4750  17.5243  17.5659  17.6097  17.6560  17.6869  17.7394  17.7896
    17.8319  17.9050  17.9714  18.0096  18.0866  18.1114  18.2040  18.2423
    18.2769  18.3247  18.3533  18.3786  18.4101  18.4614  18.5044  18.5187
    18.5348  18.5427  18.5624  18.5753  18.5967  18.5986  18.6153  18.6524
    18.6935  18.7147  18.7398  18.7455  18.8213  18.8684  18.8742  18.9034
    18.9298  18.9450  18.9627  18.9839  19.0146  19.0740  19.1325  19.1999
    19.2198  19.2520  19.2766  19.3183  19.3469  19.3737  19.3927  19.4370
    19.4790  19.5175  19.5339  19.5800  19.6293  19.6522  19.7345  19.7659
    19.8343  19.8531  19.9678  20.0353  20.0935  20.1182  20.1399  20.2106
    20.2600  20.3017  20.3154  20.3711  20.3988  20.4653  20.5035  20.5129
    20.6019  20.6239  20.6700  20.7328  20.7903  20.8008  20.8754  20.9269
    20.9616  20.9788  21.0431  21.1141  21.1388  21.2012  21.2198  21.3051
    21.4075  21.4318  21.4684  21.5138  21.5572  21.6204  21.6573  21.7444
    21.8050  21.8588  21.8713  21.9403  22.0385  22.1045  22.1315  22.2015
    22.2229  22.2780  22.3034  22.3571  22.3920  22.4218  22.4377  22.4986
    22.5375  22.5442  22.5705  22.6244  22.6515  22.6809  22.7335  22.7456
    22.8096  22.8581  22.8861  22.9220  22.9483  22.9748  23.0403  23.0560
    23.1560  23.1599  23.2356  23.2626  23.3479  23.3654  23.3939  23.4268
    23.4800  23.4985  23.5169  23.6287  23.6360  23.6833  23.7592  23.8009
    23.8235  23.8750  23.9453  23.9739  24.0423  24.0733  24.1429  24.1979
    24.2275  24.2554  24.3123  24.3390  24.3753  24.4297  24.4498  24.5157
    24.5461  24.5711  24.6194  24.6642  24.6795  24.7014  24.7810  24.7947
    24.8170  24.8581  24.9009  24.9151  25.0088  25.0394  25.0498  25.0787
    25.1210  25.1935  25.2257  25.2367  25.2997  25.3550  25.3940  25.4419
    25.4936  25.5024  25.5527  25.5713  25.5848  25.6325  25.6553  25.6768
    25.6843  25.7335  25.7575  25.7795  25.8473  25.8920  25.9396  25.9838
    26.0071  26.0433  26.0920  26.1059  26.1859  26.2069  26.2348  26.2830
    26.3050  26.3443  26.3607  26.3970  26.4386  26.4776  26.5432  26.5588
    26.5831  26.6472  26.6674  26.6895  26.7019  26.7405  26.7591  26.7884
    26.8320  26.8595  26.9054  26.9532  26.9701  27.0225  27.0345  27.0682
    27.0984  27.1264  27.1803  27.2078  27.2487  27.2680  27.3221  27.3448
    27.3678  27.3989  27.4574  27.5002  27.5179  27.6011  27.6415  27.7025
    27.7169  27.7711  27.7841

          k = 0.2500-0.4976 0.0000 ( 43762 PWs)   bands (ev):

   -53.7398 -53.7326 -53.6998 -53.6933 -53.6604 -53.6499 -53.6160 -53.6157
   -53.6116 -53.5788 -53.5770 -53.5763 -53.5691 -53.5669 -53.5620 -53.5485
   -53.5368 -53.5267 -53.4728 -53.4481 -53.4457 -53.4344 -53.4329 -53.4309
   -53.4266 -53.4265 -53.4241 -53.4188 -53.3844 -53.3174 -53.3154 -53.3149
   -53.3104 -53.2890 -53.2836 -53.2691 -53.2293 -53.2113 -53.2062 -53.1669
   -53.1616 -53.0186 -52.9247 -52.9192 -52.7458 -52.7223 -52.7194 -52.5694
   -22.9910 -19.0423 -19.0063 -18.7592 -18.6967 -18.5586 -18.5243 -18.4776
   -18.4142 -18.3884 -18.3410 -18.3223 -18.2640 -18.2593 -18.1762 -18.1286
   -18.0909 -18.0603 -18.0412 -18.0064 -17.9797 -17.9415 -17.9312 -17.8839
   -17.8751 -17.8655 -17.8098 -17.7530 -17.7261 -16.7496 -16.6495 -16.6371
   -16.5767 -15.4512  -7.9833  -7.8033  -7.6839  -7.1165  -7.0404  -6.9877
    -6.9767  -6.9734  -6.9604  -6.9218  -6.9113  -6.8865  -6.8810  -6.8615
    -6.8605  -6.8455  -6.8359  -6.7972  -6.7795  -6.7736  -6.7453  -6.7281
    -6.7246  -6.7040  -6.6872  -6.6029  -6.4229  -6.3614  -6.2785  -6.1670
    -6.1576  -6.1178  -6.1114  -5.8612  -5.6777  -5.6291  -5.4847  -5.4256
    -5.3974  -5.3662  -5.3204  -5.3155  -5.2933  -5.2853  -5.2682  -5.2168
    -5.1803  -5.0342  -5.0234  -4.9680  -4.8924  -4.8683  -4.8480  -4.5887
    -4.5188  -4.4767  -4.4243  -4.4226  -4.3714  -4.3285  -4.3082  -4.2849
    -4.2382  -4.1971  -4.1678  -4.1256  -4.0639  -3.9993  -3.9772  -3.9303
    -3.8589  -3.7661  -3.7102  -3.6717  -3.6426  -3.5718  -3.5086  -3.4886
    -3.4627  -3.3397  -3.3100  -2.9078  -2.8676  -2.7750  -2.7529  -2.7029
    -2.6809  -2.5994  -2.5290  -2.4745  -2.4441  -2.3106  -2.2651  -2.2127
    -2.1885  -2.1666  -2.1582  -2.0810  -1.9718  -1.9533  -1.9009  -1.8055
    -1.7811  -1.7607  -1.7024  -1.6564  -1.5991  -1.5955  -1.5815  -1.5460
    -1.4816  -1.4730  -1.3865  -1.3387  -1.3308  -1.2572  -1.2390  -1.1969
    -1.1782  -1.1576  -1.0429  -0.9718  -0.9362  -0.9270  -0.8886  -0.8873
    -0.6950  -0.5676  -0.5343  -0.4729  -0.4026  -0.3772  -0.2765  -0.2618
    -0.1235  -0.0655   0.1701   0.2184   0.2279   0.2792   0.3384   0.3674
     0.5006   0.5450   0.5836   0.6002   0.6052   0.6291   0.6600   0.7128
     0.7176   0.8247   0.8452   0.9573   1.0012   1.0774   1.4486   1.5552
     2.0111   2.3384   2.3524   2.4157   2.5990   2.6310   2.6893   2.7174
     2.7801   3.2295   3.2401   3.4460   3.5284   3.5368   3.5710   3.6178
     3.6208   3.8746   3.9069   3.9091   3.9828   4.0006   4.0640   5.6793
     5.8408   6.1940   6.7362   7.0047   7.0553   7.0975   7.2129   7.2246
     7.3900   7.4466   7.6036   7.6164   7.8491   7.9465   8.0270   8.0555
     8.4577   8.5786   8.6075   8.6507   8.7645   8.8113   8.8931   8.9629
     9.0831   9.1153   9.2619   9.2738   9.3529   9.4170   9.5288   9.5416
     9.5803   9.6652   9.7823   9.8834  10.0753  10.1360  10.1698  10.1902
    10.2084  10.3502  10.4483  10.4966  10.5690  10.6390  10.7004  10.7221
    10.8001  10.8296  10.8640  10.9323  10.9750  11.0637  11.1419  11.2482
    11.2559  11.3218  11.3430  11.3909  11.4496  11.4797  11.5387  11.9555
    12.0181  12.0868  12.2699  12.3114  12.4194  12.4401  12.5222  12.6052
    12.7164  12.7246  12.7773  12.8335  12.9672  13.0445  13.1604  13.2161
    13.2625  13.3214  13.3571  13.4374  13.4728  13.5481  13.5898  13.6319
    13.6425  13.6651  13.7025  13.7450  13.8386  13.9220  13.9398  13.9785
    14.0281  14.1696  14.2230  14.2843  14.2985  14.3345  14.3834  14.4436
    14.4608  14.4777  14.5293  14.6066  14.6296  14.6624  14.7064  14.7199
    14.7786  14.8044  14.8630  14.9505  15.0004  15.0636  15.1161  15.1742
    15.2090  15.2803  15.2902  15.3211  15.3849  15.4295  15.4730  15.5009
    15.5486  15.6042  15.6448  15.6880  15.7146  15.7801  15.8036  15.8504
    15.9737  15.9912  16.0230  16.0992  16.1072  16.1146  16.2077  16.2578
    16.2736  16.3462  16.3707  16.3917  16.4217  16.4623  16.4770  16.5140
    16.5409  16.6284  16.6607  16.7397  16.7603  16.7797  16.8703  16.9151
    16.9520  17.0122  17.0427  17.1061  17.1380  17.1680  17.2355  17.4006
    17.4310  17.4662  17.4920  17.5252  17.5887  17.6192  17.6587  17.7078
    17.7599  17.8209  17.8995  17.9189  18.0273  18.0438  18.0590  18.0793
    18.0945  18.1147  18.1520  18.1875  18.2228  18.2983  18.3497  18.4117
    18.4277  18.5001  18.5178  18.5318  18.5418  18.5614  18.5664  18.5807
    18.5823  18.5990  18.6214  18.6370  18.6559  18.6904  18.7036  18.7095
    18.7397  18.7755  18.7821  18.8414  18.8422  18.8658  18.9033  18.9312
    18.9917  19.0286  19.1018  19.1765  19.1931  19.2542  19.2976  19.3151
    19.3470  19.3876  19.4220  19.4619  19.5142  19.5497  19.6178  19.6246
    19.6539  19.6837  19.7441  19.7864  19.8316  19.8970  19.9600  19.9933
    20.0120  20.0447  20.0763  20.1731  20.1828  20.2040  20.2636  20.3474
    20.3991  20.4553  20.4686  20.4845  20.5360  20.5388  20.6418  20.6706
    20.6859  20.7280  20.7575  20.8482  20.9061  20.9211  20.9991  21.0604
    21.1083  21.1429  21.2859  21.3076  21.3958  21.4084  21.4642  21.4853
    21.5037  21.5476  21.6321  21.6811  21.7102  21.7691  21.8485  21.9234
    21.9808  22.0487  22.0644  22.1512  22.1687  22.1919  22.2082  22.2483
    22.3055  22.3938  22.4091  22.4445  22.5283  22.5495  22.5654  22.7599
    22.7911  22.8339  22.8436  22.8805  22.9574  22.9911  23.0114  23.0587
    23.1007  23.1465  23.1712  23.2816  23.3417  23.4054  23.4255  23.5052
    23.5348  23.5423  23.5934  23.6121  23.6665  23.7054  23.7348  23.7700
    23.8788  24.0018  24.0517  24.0730  24.1722  24.1857  24.2381  24.2744
    24.2993  24.3570  24.4089  24.5309  24.5545  24.6100  24.6287  24.6589
    24.6885  24.7116  24.7938  24.8283  24.8582  24.9195  24.9324  24.9965
    25.0349  25.0524  25.0589  25.0890  25.0955  25.1510  25.1599  25.1817
    25.2220  25.2442  25.2898  25.3171  25.3524  25.3950  25.4527  25.4802
    25.4963  25.5365  25.5827  25.6157  25.6290  25.6520  25.6730  25.7463
    25.7813  25.8298  25.8730  25.8878  25.9428  25.9663  26.0077  26.0590
    26.0717  26.1061  26.1304  26.1652  26.1973  26.2263  26.2428  26.3215
    26.3463  26.3632  26.3832  26.4461  26.4521  26.5009  26.5098  26.5614
    26.5726  26.6068  26.6351  26.6957  26.7199  26.7515  26.7957  26.8252
    26.8343  26.9185  26.9531  27.0056  27.0597  27.1446  27.1618  27.1796
    27.2144  27.2306  27.3064  27.3616  27.3981  27.4807  27.6215  27.6280
    27.6473  27.7701  27.7883  27.8130  27.8599  27.8875  27.9486  27.9862
    28.0268  28.0639  28.1003

          k =-0.5000 0.0000 0.0000 ( 43760 PWs)   bands (ev):

   -53.7392 -53.7157 -53.7103 -53.6838 -53.6763 -53.6308 -53.6308 -53.5965
   -53.5964 -53.5964 -53.5964 -53.5781 -53.5680 -53.5680 -53.5618 -53.5486
   -53.5367 -53.5268 -53.4530 -53.4529 -53.4477 -53.4470 -53.4373 -53.4306
   -53.4299 -53.4298 -53.4207 -53.4143 -53.3836 -53.3157 -53.3157 -53.3129
   -53.3129 -53.2863 -53.2863 -53.2496 -53.2490 -53.2088 -53.2088 -53.1643
   -53.1643 -53.0192 -52.9222 -52.9214 -52.7457 -52.7217 -52.7201 -52.5694
   -22.9912 -19.0390 -19.0212 -18.8234 -18.8147 -18.6632 -18.6627 -18.5718
   -18.5644 -18.5168 -18.4794 -18.2708 -18.2480 -18.1130 -18.0897 -18.0592
   -18.0423 -17.9533 -17.9039 -17.8742 -17.8645 -17.8645 -17.8467 -17.8233
   -17.8233 -17.7750 -17.7750 -17.7061 -17.6962 -16.7513 -16.7359 -16.6455
   -16.6449 -15.4551  -7.8780  -7.8022  -7.8004  -7.7907  -7.7881  -7.7641
    -7.7636  -7.5371  -7.5204  -7.4658  -7.4316  -7.4240  -7.4154  -6.8396
    -6.7526  -6.7437  -6.7404  -6.7266  -6.6901  -6.6349  -6.6307  -6.4911
    -6.4810  -6.4736  -6.4371  -6.4335  -6.2933  -6.2897  -6.2739  -6.0087
    -5.9830  -5.8316  -5.8132  -5.7954  -5.6171  -5.6041  -5.5924  -5.5636
    -5.4289  -5.2830  -5.2624  -5.2501  -5.0852  -5.0838  -5.0741  -5.0723
    -5.0384  -5.0369  -4.9091  -4.8973  -4.6350  -4.5876  -4.5671  -4.5647
    -4.4837  -4.4306  -4.3542  -4.2536  -4.2052  -4.1046  -4.0556  -4.0544
    -3.9908  -3.9853  -3.9626  -3.9623  -3.9425  -3.8675  -3.8646  -3.7138
    -3.6885  -3.6156  -3.6137  -3.5077  -3.5024  -3.4782  -3.3950  -3.3458
    -3.2922  -3.2749  -3.2673  -3.2430  -3.2361  -3.2300  -3.1464  -3.0688
    -3.0662  -2.7402  -2.7366  -2.5074  -2.4924  -2.4310  -2.4244  -2.3937
    -2.3845  -2.3654  -2.3578  -2.0421  -2.0399  -2.0257  -1.9932  -1.9916
    -1.8805  -1.8271  -1.8081  -1.7756  -1.6878  -1.6636  -1.5169  -1.4905
    -1.4869  -1.3106  -1.3002  -1.1826  -1.1227  -1.1060  -1.0816  -1.0414
    -1.0298  -0.9459  -0.9411  -0.7467  -0.7341  -0.6603  -0.5872  -0.5385
    -0.2850  -0.2783  -0.2369  -0.2350  -0.1818  -0.1540  -0.1458  -0.1438
    -0.0869  -0.0698   0.0258   0.0419   0.0842   0.0931   0.2229   0.2423
     0.3429   0.3461   0.4880   0.4903   0.6190   0.6566   0.6571   0.8114
     0.8236   0.9873   1.6249   1.7012   1.8832   2.0846   2.1354   2.3604
     2.3858   2.4077   2.4621   2.5478   2.5600   2.5813   2.5984   2.5998
     2.6237   2.6461   2.6570   2.6854   2.7620   2.7624   2.8276   2.8290
     2.9093   2.9351   3.1281   3.6002   3.6944   3.9010   3.9142   5.6166
     6.1332   6.1334   6.2795   6.5458   6.7006   6.8424   7.0093   7.0110
     7.1991   7.3399   7.5241   7.6335   7.7718   7.7729   8.2111   8.3162
     8.3872   8.6123   8.9431   9.0006   9.1005   9.1278   9.3058   9.3502
     9.4348   9.5848   9.6713   9.7914   9.8974   9.9238   9.9917  10.0813
    10.0835  10.0858  10.1883  10.3286  10.3637  10.4442  10.4558  10.4898
    10.5682  10.5692  10.5890  10.6605  10.7330  10.7384  10.7636  10.8166
    10.8811  10.9127  10.9442  10.9820  10.9899  11.0460  11.0634  11.0706
    11.1331  11.1503  11.3043  11.3477  11.3804  11.3998  11.4960  11.5082
    11.7127  11.7244  11.7561  11.7721  11.8635  11.8723  12.0185  12.2265
    12.2723  12.3279  12.3803  12.3840  12.4287  12.4686  12.7200  12.7282
    12.8580  12.8958  12.9837  13.0168  13.1542  13.2027  13.2341  13.2520
    13.4745  13.4890  13.4957  13.5384  13.5807  13.5959  13.7347  13.7778
    13.7973  13.9090  13.9924  14.0200  14.0377  14.0842  14.1061  14.1683
    14.2711  14.2907  14.3854  14.4064  14.4292  14.4772  14.5242  14.5260
    14.5526  14.5871  14.7148  14.7460  14.7943  14.8322  14.9107  15.0628
    15.1118  15.1316  15.2358  15.2475  15.2753  15.2904  15.2910  15.3738
    15.4052  15.4173  15.4227  15.4538  15.5655  15.6153  15.6424  15.6639
    15.7389  15.7547  15.7946  15.8015  15.8170  15.8432  15.8748  15.9194
    16.0809  16.1446  16.2575  16.2889  16.3034  16.3928  16.5055  16.6067
    16.6396  16.6728  16.6962  16.7906  16.8116  16.8748  17.0718  17.1262
    17.1326  17.1950  17.2386  17.3653  17.4803  17.5133  17.5199  17.5851
    17.6471  17.7123  17.7668  17.8340  17.8493  17.8537  17.8967  17.9082
    17.9853  17.9985  18.0240  18.0289  18.1003  18.1666  18.2618  18.2841
    18.3120  18.3144  18.3620  18.3651  18.5039  18.5070  18.5197  18.5202
    18.5342  18.5591  18.5676  18.5761  18.5845  18.6055  18.6189  18.6619
    18.6935  18.7255  18.7331  18.8387  18.8597  18.8780  18.9029  19.0002
    19.0181  19.0777  19.0816  19.1784  19.2007  19.2488  19.2492  19.2815
    19.3079  19.3371  19.3454  19.4229  19.4478  19.4536  19.5479  19.5790
    19.6417  19.6663  19.8252  19.8321  20.0433  20.0857  20.0995  20.2211
    20.2567  20.2582  20.3760  20.4048  20.4275  20.4963  20.5155  20.5771
    20.5811  20.5815  20.6507  20.7072  20.7266  20.7722  20.8005  20.8044
    20.8196  20.9414  20.9796  20.9827  21.0609  21.0912  21.1352  21.1623
    21.2174  21.2403  21.2453  21.2750  21.3435  21.3771  21.4116  21.4197
    21.4582  21.4970  21.5373  21.5543  21.5563  21.6356  21.6413  21.6463
    21.6777  21.7216  21.7771  21.7839  21.7952  21.8247  21.9748  22.0026
    22.0128  22.0641  22.1123  22.1139  22.1719  22.1833  22.2079  22.2748
    22.2766  22.3335  22.3485  22.3538  22.4630  22.4913  22.5143  22.5180
    22.5675  22.5931  22.6352  22.7135  22.7465  22.7480  22.7714  22.7873
    22.8949  22.9003  22.9039  22.9324  22.9471  22.9705  23.0609  23.1082
    23.1799  23.2087  23.2093  23.3090  23.4146  23.4286  23.4503  23.4546
    23.4570  23.5675  23.7156  23.7295  23.7483  23.8020  23.8585  24.0401
    24.0656  24.1318  24.1876  24.1959  24.2539  24.2613  24.2875  24.3047
    24.3217  24.3687  24.4415  24.4976  24.5580  24.6228  24.6265  24.7085
    24.7192  24.7281  24.7747  24.8598  24.8864  24.9331  25.0482  25.0907
    25.2581  25.3139  25.4168  25.4317  25.4750  25.5579  25.5761  25.6052
    25.6524  25.6810  25.7058  25.7459  25.7666  25.7689  25.8023  25.8107
    25.8602  25.8642  25.8798  25.9099  25.9195  25.9287  25.9533  25.9789
    26.0081  26.0360  26.0595  26.0649  26.1295  26.1920  26.2269  26.2294
    26.2551  26.2696  26.3211  26.3827  26.3924  26.4169  26.5076  26.5958
    26.6381  26.6453  26.7353  26.7512  26.8944  26.9094  26.9135  26.9461
    26.9562  26.9628  27.0833  27.1330  27.1587  27.2084  27.2872  27.3510
    27.3905  27.3926  27.4448  27.5373  27.5394  27.6346  27.6771  27.6869
    27.7189  27.7985  27.8080  27.8778  27.8972  27.9261  28.0104  28.0109
    28.0478  28.0891  28.1265

          k =-0.5000 0.2488 0.0000 ( 43812 PWs)   bands (ev):

   -53.7393 -53.7157 -53.7103 -53.6839 -53.6763 -53.6308 -53.6308 -53.5966
   -53.5965 -53.5964 -53.5964 -53.5781 -53.5680 -53.5680 -53.5618 -53.5486
   -53.5367 -53.5268 -53.4531 -53.4531 -53.4474 -53.4470 -53.4353 -53.4295
   -53.4295 -53.4284 -53.4226 -53.4162 -53.3840 -53.3160 -53.3160 -53.3129
   -53.3129 -53.2863 -53.2863 -53.2496 -53.2490 -53.2088 -53.2088 -53.1643
   -53.1643 -53.0192 -52.9223 -52.9215 -52.7458 -52.7217 -52.7201 -52.5694
   -22.9911 -18.9543 -18.9333 -18.7293 -18.7179 -18.5790 -18.5675 -18.5540
   -18.5333 -18.4736 -18.4649 -18.2880 -18.2632 -18.1512 -18.1379 -18.0666
   -18.0524 -17.9851 -17.9570 -17.9322 -17.9247 -17.9148 -17.8942 -17.8808
   -17.8772 -17.8743 -17.8535 -17.7889 -17.7732 -16.7478 -16.7318 -16.6440
   -16.6434 -15.4527  -7.8683  -7.5307  -7.4691  -7.4623  -7.4555  -7.4414
    -7.4273  -7.4178  -7.4150  -7.4080  -7.4024  -7.1703  -7.1333  -6.8267
    -6.7434  -6.7184  -6.6948  -6.6007  -6.5982  -6.5079  -6.5052  -6.4788
    -6.4333  -6.3740  -6.3701  -6.3403  -6.3390  -6.3083  -6.2235  -6.0252
    -5.9950  -5.8942  -5.8923  -5.8246  -5.7231  -5.6981  -5.6460  -5.6160
    -5.5540  -5.5482  -5.5382  -5.5373  -5.3448  -5.3207  -5.2990  -5.2911
    -5.2468  -5.2428  -4.8497  -4.8325  -4.7971  -4.6707  -4.6583  -4.5367
    -4.4800  -4.3665  -4.3650  -4.2834  -4.2387  -4.2289  -4.2073  -4.1151
    -4.0924  -4.0426  -4.0198  -4.0076  -4.0003  -3.9692  -3.9625  -3.9531
    -3.9473  -3.9140  -3.8260  -3.7252  -3.6964  -3.6022  -3.5657  -3.4823
    -3.4034  -3.3902  -3.3739  -3.1925  -3.1897  -3.0848  -3.0832  -3.0717
    -3.0579  -2.8532  -2.8521  -2.7010  -2.6066  -2.5020  -2.4955  -2.4506
    -2.4221  -2.3330  -2.3008  -2.2687  -2.2175  -1.7818  -1.6714  -1.5469
    -1.5406  -1.4827  -1.4786  -1.4466  -1.4306  -1.3622  -1.3600  -1.3390
    -1.3211  -1.2593  -1.2116  -1.2087  -1.1327  -1.1139  -1.0815  -1.0643
    -1.0368  -0.9959  -0.8258  -0.7789  -0.7777  -0.6517  -0.5091  -0.4559
    -0.3619  -0.3314  -0.3089  -0.2153  -0.2095  -0.1856  -0.1436  -0.1311
    -0.1309  -0.0633   0.0125   0.0228   0.1040   0.1234   0.1351   0.1640
     0.2180   0.2662   0.3414   0.3649   0.4886   0.5112   0.6292   0.9470
     0.9516   1.1066   1.7920   1.8127   1.9085   1.9348   1.9396   1.9851
     2.0033   2.0276   2.0753   2.0848   2.1244   2.1696   2.3463   2.7559
     2.7986   2.8305   2.8336   2.8729   2.9970   3.0637   3.1163   3.2928
     3.3107   3.3580   3.4147   3.6879   3.7711   4.0133   4.0296   5.7113
     6.2524   6.2525   6.4563   6.6218   6.9265   7.0504   7.1926   7.2447
     7.4133   7.5523   7.7161   7.8199   7.9362   7.9833   8.2244   8.2979
     8.5183   8.5307   8.5811   8.6629   8.7804   8.8043   8.8370   8.9711
     9.0626   9.0920   9.2331   9.2876   9.3077   9.3459   9.5262   9.5479
     9.6247   9.7734   9.7933   9.9143  10.1178  10.1374  10.1809  10.2990
    10.4211  10.5663  10.5923  10.6038  10.7592  10.7711  10.8322  10.8640
    10.9235  10.9632  11.0118  11.0498  11.0736  11.1145  11.1524  11.2153
    11.2316  11.4014  11.4386  11.4590  11.5614  11.8107  11.8544  11.9935
    12.0322  12.0333  12.2314  12.3102  12.4635  12.4675  12.5311  12.5410
    12.6493  12.7069  12.7329  12.7368  12.7912  12.8081  12.9149  12.9422
    13.0109  13.0884  13.1300  13.1480  13.2031  13.3113  13.4222  13.4384
    13.5813  13.6327  13.7263  13.7847  13.8908  13.8936  13.9490  13.9774
    14.0829  14.1055  14.1139  14.2034  14.3027  14.3569  14.3945  14.4146
    14.4874  14.5005  14.5672  14.7010  14.7242  14.7340  14.7963  14.8048
    14.8971  14.9160  15.0036  15.0057  15.0200  15.0960  15.1344  15.1477
    15.1551  15.1835  15.2284  15.2461  15.3018  15.3324  15.3363  15.3839
    15.4103  15.4587  15.5330  15.5437  15.6029  15.6077  15.6454  15.6518
    15.6931  15.7361  15.7475  15.7691  15.8291  15.8713  15.9188  15.9421
    15.9971  16.0307  16.0921  16.1555  16.1590  16.1991  16.2309  16.2315
    16.3998  16.5527  16.6018  16.6244  16.6396  16.7382  16.8040  16.8601
    16.8981  16.9434  16.9842  17.0004  17.0706  17.0793  17.1517  17.2010
    17.2807  17.3012  17.4133  17.5192  17.6437  17.6838  17.8207  17.8227
    17.8609  17.8813  17.9483  17.9816  18.0840  18.1449  18.1594  18.1599
    18.2305  18.2876  18.2918  18.3099  18.3503  18.3600  18.4829  18.5000
    18.5242  18.5284  18.5478  18.5511  18.5644  18.5835  18.5896  18.6131
    18.6332  18.6421  18.6837  18.7354  18.7430  18.7564  18.7980  18.8065
    18.8500  18.8888  18.9003  18.9722  18.9779  19.0071  19.0123  19.0766
    19.1040  19.1262  19.1939  19.2422  19.2544  19.3411  19.3464  19.3777
    19.4155  19.4455  19.4571  19.4798  19.5759  19.5856  19.6578  19.6666
    19.7102  19.7695  19.7840  19.8599  19.9262  19.9336  20.0583  20.0643
    20.0912  20.1733  20.2079  20.2868  20.3588  20.3848  20.4273  20.4558
    20.4939  20.4987  20.5364  20.6488  20.6969  20.7577  20.7706  20.7927
    20.9019  20.9602  21.0012  21.0399  21.0522  21.1028  21.1084  21.1262
    21.2352  21.2779  21.3084  21.3619  21.4365  21.5427  21.5523  21.5678
    21.5814  21.7347  21.7570  21.8509  21.9356  21.9932  22.0510  22.0712
    22.1322  22.1354  22.1918  22.2377  22.2451  22.2950  22.3619  22.4016
    22.5016  22.5209  22.5746  22.5900  22.6698  22.6791  22.7306  22.7947
    22.8471  22.8901  22.9167  22.9182  22.9724  22.9756  23.0515  23.0756
    23.1298  23.1961  23.2585  23.2645  23.3919  23.4243  23.4688  23.4792
    23.5537  23.5765  23.6113  23.6371  23.7082  23.7363  23.7913  23.8681
    23.8767  23.8962  23.9464  23.9905  24.0343  24.0389  24.1966  24.2149
    24.2540  24.2721  24.4254  24.4612  24.5202  24.5220  24.6394  24.6491
    24.7025  24.7321  24.7538  24.7926  24.8451  24.8909  24.8963  24.9324
    24.9745  25.0180  25.0816  25.0902  25.1308  25.1585  25.1882  25.2377
    25.2552  25.3252  25.3359  25.3576  25.4073  25.4396  25.5027  25.5420
    25.5697  25.5728  25.5951  25.5957  25.6290  25.6637  25.6827  25.7019
    25.7316  25.7611  25.7816  25.7992  25.8138  25.8427  25.8529  25.9081
    25.9847  26.0111  26.0136  26.0305  26.0631  26.1081  26.1143  26.1607
    26.1978  26.2229  26.2919  26.3310  26.3482  26.3776  26.4333  26.4704
    26.5274  26.5311  26.5613  26.5851  26.6345  26.6768  26.7189  26.7369
    26.8165  26.8557  26.8564  26.8875  26.9946  27.0131  27.0400  27.0518
    27.1206  27.1975  27.2771  27.3127  27.3789  27.4071  27.4389  27.4694
    27.5186  27.5356  27.6194  27.6609  27.6780  27.6971  27.8041  27.8310
    27.8978  27.9001  27.9412

          k =-0.5000-0.4976 0.0000 ( 43684 PWs)   bands (ev):

   -53.7393 -53.7157 -53.7103 -53.6839 -53.6763 -53.6308 -53.6308 -53.5966
   -53.5965 -53.5964 -53.5964 -53.5781 -53.5680 -53.5680 -53.5618 -53.5486
   -53.5367 -53.5268 -53.4533 -53.4533 -53.4470 -53.4469 -53.4324 -53.4291
   -53.4290 -53.4254 -53.4254 -53.4193 -53.3844 -53.3162 -53.3162 -53.3129
   -53.3129 -53.2863 -53.2863 -53.2495 -53.2489 -53.2088 -53.2088 -53.1643
   -53.1643 -53.0191 -52.9223 -52.9215 -52.7458 -52.7217 -52.7201 -52.5694
   -22.9909 -18.7886 -18.7386 -18.7195 -18.7156 -18.4985 -18.4944 -18.4653
   -18.4458 -18.3284 -18.3261 -18.2982 -18.2918 -18.2508 -18.2493 -18.1658
   -18.1564 -18.0773 -18.0602 -18.0203 -18.0199 -17.9773 -17.9561 -17.9446
   -17.9380 -17.9104 -17.8534 -17.8393 -17.8238 -16.7449 -16.7282 -16.6427
   -16.6420 -15.4504  -7.8613  -7.5215  -7.4336  -7.4265  -7.4187  -6.8989
    -6.8951  -6.8803  -6.8792  -6.8240  -6.8230  -6.8200  -6.7217  -6.7107
    -6.7100  -6.6234  -6.5160  -6.4520  -6.4457  -6.4193  -6.4142  -6.3883
    -6.3869  -6.3709  -6.3639  -6.3180  -6.2940  -6.2939  -6.1823  -6.1489
    -6.1362  -6.1307  -6.1272  -6.0580  -6.0200  -6.0086  -6.0032  -5.9336
    -5.8225  -5.8140  -5.7671  -5.7663  -5.4164  -5.3735  -5.3160  -5.3116
    -5.0062  -5.0056  -4.9870  -4.8528  -4.7881  -4.7524  -4.7236  -4.7230
    -4.7098  -4.6831  -4.6719  -4.6340  -4.6133  -4.5808  -4.5636  -4.4903
    -4.4842  -4.4217  -4.4139  -4.2472  -4.2177  -4.0989  -4.0942  -4.0793
    -4.0427  -3.9948  -3.9897  -3.9854  -3.7852  -3.6057  -3.5812  -3.5030
    -3.3750  -3.1101  -3.1026  -3.0254  -3.0030  -2.8619  -2.8438  -2.8407
    -2.7803  -2.7032  -2.7007  -2.6543  -2.6234  -2.5803  -2.5785  -2.5670
    -2.5357  -2.2723  -2.2666  -2.2454  -2.2321  -1.7598  -1.5504  -1.5051
    -1.4953  -1.3609  -1.3567  -1.3488  -1.3467  -1.2766  -1.2487  -1.2400
    -1.2197  -1.2088  -1.0921  -1.0873  -1.0820  -1.0722  -0.9785  -0.9637
    -0.8855  -0.8600  -0.8464  -0.8408  -0.7501  -0.6515  -0.4659  -0.4089
    -0.4051  -0.4031  -0.3823  -0.2034  -0.1631  -0.1065  -0.1064  -0.0930
    -0.0917   0.0417   0.0582   0.0626   0.0663   0.1129   0.1243   0.1705
     0.1707   0.2452   0.2544   0.2631   0.2681   0.3088   0.6283   1.0328
     1.0340   1.1892   1.5202   1.5261   1.5514   1.5516   1.6900   1.6928
     1.6962   1.9010   1.9434   2.0414   2.0455   2.0500   2.3278   2.7833
     2.8434   2.8445   2.8854   3.1525   3.1713   3.2060   3.3055   3.6493
     3.6783   3.7181   3.7421   3.9054   3.9222   3.9577   3.9684   5.8331
     6.4237   6.4238   6.6261   6.7562   7.4507   7.5565   7.5611   7.6931
[...]
   -18.0006 -17.9366 -17.9162 -17.8509 -17.7922 -16.8269 -16.8117 -16.7174
   -16.7123 -15.7085  -7.5828  -7.5575  -7.5007  -7.4528  -7.1263  -7.0114
    -6.9981  -6.9574  -6.9566  -6.9444  -6.8996  -6.8992  -6.8655  -6.7838
    -6.7796  -6.7151  -6.6581  -6.5584  -6.5523  -6.4962  -6.4887  -6.4591
    -6.4553  -6.4547  -6.4518  -6.3717  -6.3709  -6.2886  -6.2199  -6.1970
    -6.1844  -6.1652  -6.0979  -6.0861  -6.0819  -6.0371  -5.9384  -5.8999
    -5.8981  -5.8682  -5.8644  -5.8199  -5.5184  -5.4564  -5.4081  -5.3772
    -5.1226  -5.0530  -5.0153  -4.9393  -4.8128  -4.7925  -4.7795  -4.7628
    -4.7388  -4.7250  -4.6688  -4.6347  -4.6266  -4.5872  -4.5839  -4.5705
    -4.5266  -4.5105  -4.4832  -4.3226  -4.2615  -4.1734  -4.1427  -4.1335
    -4.1021  -4.0656  -4.0163  -3.9724  -3.7596  -3.6909  -3.6107  -3.5910
    -3.5567  -3.1167  -3.0919  -3.0859  -2.9918  -2.9716  -2.9643  -2.9014
    -2.8982  -2.7717  -2.7704  -2.7112  -2.6995  -2.6744  -2.6413  -2.5486
    -2.4846  -2.4452  -2.3002  -2.2982  -2.2402  -1.9967  -1.5964  -1.5512
    -1.5488  -1.4652  -1.4510  -1.4089  -1.4042  -1.3750  -1.2991  -1.2987
    -1.2939  -1.2673  -1.2093  -1.1888  -1.1722  -1.1402  -1.1046  -1.0162
    -1.0156  -0.9555  -0.9162  -0.8907  -0.8734  -0.7624  -0.4940  -0.4823
    -0.4395  -0.4132  -0.4120  -0.2693  -0.2319  -0.1852  -0.1828  -0.1708
    -0.1663  -0.0712  -0.0342   0.0006   0.0024   0.0336   0.0860   0.0998
     0.1055   0.1356   0.1611   0.1922   0.2036   0.3161   0.4539   0.9115
     0.9566   0.9572   1.4344   1.4409   1.4686   1.4835   1.4998   1.6143
     1.6171   1.7248   1.9083   1.9581   1.9986   2.0078   2.3911   2.7042
     2.7901   2.8156   2.8826   3.0971   3.1214   3.1466   3.3398   3.5593
     3.6257   3.6318   3.7017   3.8071   3.8505   3.8551   3.8748   5.0112
     6.2979   6.3500   6.3510   6.5546   7.5611   7.5907   7.6088   7.7454
     7.8278   7.8449   7.8679   7.9002   8.0276   8.0392   8.0652   8.0746
     8.1495   8.2405   8.2490   8.2968   8.5295   8.5711   8.5959   8.6445
     8.6635   8.7071   8.7257   8.8345   9.1813   9.2339   9.2552   9.3211
     9.3457   9.4616   9.4786   9.5498   9.9321   9.9409   9.9933  10.0249
    10.1318  10.3712  10.4243  10.5087  10.6786  10.6973  10.7557  10.8017
    10.9149  11.0357  11.0939  11.1243  11.1713  11.1751  11.2128  11.2172
    11.2867  11.3166  11.3883  11.4070  11.5893  11.7385  11.7485  11.7735
    12.0509  12.2511  12.2663  12.3956  12.4683  12.4797  12.5075  12.6082
    12.9567  13.0767  13.1036  13.1277  13.2089  13.4093  13.4570  13.5055
    13.6603  13.7520  13.8369  13.8452  13.9183  13.9535  13.9568  14.0425
    14.0582  14.1028  14.1375  14.1883  14.2245  14.3092  14.3782  14.4214
    14.4488  14.4656  14.5155  14.5940  14.6581  14.6983  14.7149  14.7650
    14.7827  14.7955  14.8309  14.8595  14.9399  14.9484  14.9899  15.0239
    15.0441  15.0474  15.0816  15.1329  15.1400  15.1734  15.1802  15.2820
    15.3064  15.3167  15.3469  15.3510  15.3826  15.3974  15.4115  15.4272
    15.4444  15.4718  15.4963  15.5212  15.5475  15.5537  15.5814  15.6224
    15.6734  15.6806  15.7674  15.7681  15.8661  15.8791  15.9226  15.9513
    15.9987  16.0075  16.0390  16.0626  16.1129  16.1416  16.1828  16.2531
    16.2671  16.3092  16.3563  16.4043  16.4944  16.5208  16.6042  16.6154
    16.7394  16.7409  16.7636  16.8523  16.8760  16.8994  16.9337  16.9458
    17.0372  17.0641  17.1157  17.1705  17.1890  17.2231  17.2998  17.3067
    17.3210  17.3317  17.3463  17.3706  17.4716  17.5007  17.5342  17.5344
    17.6324  17.6528  17.6620  17.7697  17.8663  17.8994  17.9404  17.9799
    18.1327  18.1357  18.1983  18.2671  18.3688  18.3754  18.4140  18.4195
    18.4524  18.4548  18.4894  18.4902  18.4950  18.5199  18.5225  18.5308
    18.5417  18.5636  18.5845  18.6060  18.6219  18.6302  18.6972  18.7438
    18.7488  18.8006  18.8245  18.8920  18.9219  19.1230  19.1700  19.2187
    19.2342  19.3391  19.4147  19.4247  19.4467  19.5218  19.5979  19.6311
    19.6448  19.6676  19.7079  19.7348  19.8141  19.8386  19.8433  19.8704
    20.0019  20.0389  20.1094  20.1388  20.2148  20.2649  20.3141  20.5363
    20.7319  20.7500  20.8083  20.8584  20.9162  20.9364  20.9982  21.0244
    21.0377  21.0569  21.0706  21.1089  21.1961  21.2078  21.2139  21.2716
    21.3097  21.4610  21.4937  21.6128  21.6687  21.7168  21.7442  21.8018
    21.9209  21.9660  22.0245  22.0838  22.1188  22.1208  22.1369  22.1558
    22.2297  22.2653  22.2761  22.3384  22.3591  22.3670  22.3918  22.4869
    22.5297  22.5411  22.6036  22.6357  22.6523  22.6856  22.6944  22.7377
    22.7697  22.8153  22.8687  22.9395  23.0059  23.0184  23.0297  23.0454
    23.0905  23.1137  23.1491  23.1841  23.2147  23.2357  23.2382  23.3315
    23.3527  23.4721  23.4963  23.5306  23.5610  23.5721  23.6233  23.6334
    23.6736  23.7041  23.7527  23.7625  23.7935  23.8262  23.8483  23.8674
    23.9267  23.9457  23.9863  24.0146  24.1035  24.1116  24.1517  24.2065
    24.2200  24.2740  24.2856  24.4292  24.4301  24.4779  24.5419  24.5602
    24.7456  24.7604  24.8050  24.8456  24.8573  24.9188  24.9552  24.9668
    25.0247  25.0755  25.1798  25.1958  25.2291  25.2410  25.2925  25.3504
    25.3955  25.4272  25.4711  25.4977  25.5934  25.6693  25.6800  25.6834
    25.7500  25.7806  25.8211  25.8856  25.9087  25.9332  25.9922  26.0666
    26.1058  26.1276  26.1811  26.1868  26.2808  26.2815  26.3243  26.3697
    26.3821  26.4338  26.4807  26.5454  26.6140  26.6268  26.6771  26.6803
    26.7473  26.8020  26.8073  26.9085  27.0186  27.0201  27.0980  27.1048
    27.1754  27.1757  27.1884  27.2253  27.2405  27.3632  27.3812  27.4699
    27.5165  27.6388  27.6904  27.7604  27.8082  27.8539  27.9262  27.9264
    28.0040  28.0177  28.1192  28.1522  28.1538  28.2339  28.2401  28.2848
    28.3316  28.3834  28.4629

     the Fermi energy is     0.6457 ev

!    total energy              =   -4424.57547054 Ry
     Harris-Foulkes estimate   =   -4424.57547060 Ry
     estimated scf accuracy    <       0.00000008 Ry

     The total energy is the sum of the following terms:

     one-electron contribution =  -82934.20128119 Ry
     hartree contribution      =   41575.16405113 Ry
     xc contribution           =   -1111.12757263 Ry
     ewald contribution        =   38045.58915162 Ry
     smearing contrib. (-TS)   =       0.00018053 Ry

     convergence has been achieved in  18 iterations

     Forces acting on atoms (Ry/au):


     negative rho (up, down):  0.317E+01 0.000E+00
     atom    1 type  1   force =     0.00000000   -0.00008686    0.01361368
     atom    2 type  2   force =     0.00046537   -0.00034098   -0.00457924
     atom    3 type  2   force =     0.00000000   -0.00049862    0.00537578
     atom    4 type  1   force =    -0.00005280   -0.00080445   -0.02952492
     atom    5 type  1   force =    -0.00000587    0.00063529   -0.02896576
     atom    6 type  1   force =     0.00000000    0.00197959    0.00827214
     atom    7 type  1   force =     0.00000000    0.00046298    0.02386160
     atom    8 type  2   force =    -0.00076651   -0.00156134    0.01671816
     atom    9 type  2   force =     0.00000000    0.00116039   -0.01170944
     atom   10 type  1   force =     0.00013485    0.00552442    0.00102580
     atom   11 type  1   force =     0.00023562   -0.00620741   -0.00046411
     atom   12 type  1   force =     0.00000000   -0.00233447    0.01102697
     atom   13 type  1   force =     0.00000000   -0.00214468   -0.00511981
     atom   14 type  2   force =    -0.00020911    0.00077077   -0.00497435
     atom   15 type  2   force =     0.00000000   -0.00031660   -0.00298020
     atom   16 type  1   force =    -0.00029011    0.00036964   -0.00584471
     atom   17 type  1   force =    -0.00096145    0.00044461    0.00471110
     atom   18 type  1   force =     0.00000000    0.00385678   -0.00038651
     atom   19 type  1   force =     0.00000000   -0.00473758   -0.00295609
     atom   20 type  2   force =    -0.00065330   -0.00027948   -0.00093583
     atom   21 type  2   force =     0.00000000    0.00042143    0.00360003
     atom   22 type  1   force =     0.00258854    0.00152347    0.00242235
     atom   23 type  1   force =    -0.00524437    0.00068835    0.00140132
     atom   24 type  1   force =     0.00000000   -0.00321275    0.00021740
     atom   25 type  1   force =     0.00000000   -0.00013004    0.01333804
     atom   26 type  2   force =    -0.00046537   -0.00034098   -0.00457924
     atom   27 type  2   force =     0.00000000   -0.00068704    0.00565873
     atom   28 type  1   force =     0.00005280   -0.00080445   -0.02952492
     atom   29 type  1   force =     0.00000587    0.00063529   -0.02896576
     atom   30 type  1   force =     0.00000000    0.00299279    0.00735307
     atom   31 type  1   force =     0.00000000    0.00159926    0.02398721
     atom   32 type  2   force =     0.00076651   -0.00156134    0.01671816
     atom   33 type  2   force =     0.00000000   -0.00040460   -0.00925205
     atom   34 type  1   force =    -0.00013485    0.00552442    0.00102580
     atom   35 type  1   force =    -0.00023562   -0.00620741   -0.00046411
     atom   36 type  1   force =     0.00000000   -0.00026080    0.01138944
     atom   37 type  1   force =     0.00000000   -0.00404556   -0.00757083
     atom   38 type  2   force =     0.00020911    0.00077077   -0.00497435
     atom   39 type  2   force =     0.00000000    0.00078523   -0.00029875
     atom   40 type  1   force =     0.00029011    0.00036964   -0.00584471
     atom   41 type  1   force =     0.00096145    0.00044461    0.00471110
     atom   42 type  1   force =     0.00000000   -0.00406075   -0.00077882
     atom   43 type  1   force =     0.00000000    0.00170165   -0.00001615
     atom   44 type  2   force =     0.00065330   -0.00027948   -0.00093583
     atom   45 type  2   force =     0.00000000    0.00766080    0.00077212
     atom   46 type  1   force =    -0.00258854    0.00152347    0.00242235
     atom   47 type  1   force =     0.00524437    0.00068835    0.00140132
     atom   48 type  1   force =     0.00000000   -0.00318838    0.00025620
     atom   49 type  1   force =     0.00000000   -0.00149115    0.00965178
     atom   50 type  1   force =     0.00000000    0.00590412   -0.00045041
     atom   51 type  3   force =     0.00000000   -0.00245096    0.00116527

     Total force =     0.025880     Total SCF correction =     0.000595

     number of scf cycles    =  21
     number of bfgs steps    =  20

     energy   old            =   -4424.5746036651 Ry
     energy   new            =   -4424.5754705383 Ry

     CASE: energy  _new < energy  _old

     new trust radius        =       0.0493313694 bohr
     new conv_thr            =       0.0000000867 Ry


ATOMIC_POSITIONS (crystal)
O0       0.000000000   0.500000000   0.331460000    0   0   0
Pt1      0.250000000   0.500000000   0.365530000    0   0   0
Pt1      0.000000000   0.000000000   0.365530000    0   0   0
O0       0.250000000   0.810000000   0.365530000    0   0   0
O0       0.250000000   0.190000000   0.365530000    0   0   0
O0       0.000000000   0.500000000   0.399590000    0   0   0
O0       0.000000000   0.000000000   0.421110000    0   0   0
Pt1      0.250000000   0.000000000   0.455180000    0   0   0
Pt1      0.000000000   0.500000000   0.455180000    0   0   0
O0       0.250000000   0.690000000   0.455180000    0   0   0
O0       0.250000000   0.310000000   0.455180000    0   0   0
O0       0.000000000   0.000000000   0.489240000    0   0   0
O0       0.000000000   0.483699129   0.510513636
Pt1      0.249969562   0.500476219   0.544170693
Pt1      0.000000000   0.000697337   0.544877392
O0       0.250556345   0.809917109   0.542331909
O0       0.249256152   0.191231574   0.546355718
O0       0.000000000   0.524054122   0.577609509
O0       0.000000000   0.024982806   0.600286266
Pt1      0.249928158  -0.009028255   0.634213959
Pt1      0.000000000   0.487391089   0.633561763
O0       0.248873242   0.681902054   0.626979873
O0       0.247806439   0.302448307   0.642302782
O0       0.000000000  -0.024141624   0.667351114
O0       0.500000000   0.500000000   0.331460000    0   0   0
Pt1      0.750000000   0.500000000   0.365530000    0   0   0
Pt1      0.500000000   0.000000000   0.365530000    0   0   0
O0       0.750000000   0.810000000   0.365530000    0   0   0
O0       0.750000000   0.190000000   0.365530000    0   0   0
O0       0.500000000   0.500000000   0.399590000    0   0   0
O0       0.500000000   0.000000000   0.421110000    0   0   0
Pt1      0.750000000   0.000000000   0.455180000    0   0   0
Pt1      0.500000000   0.500000000   0.455180000    0   0   0
O0       0.750000000   0.690000000   0.455180000    0   0   0
O0       0.750000000   0.310000000   0.455180000    0   0   0
O0       0.500000000   0.000000000   0.489240000    0   0   0
O0       0.500000000   0.486016661   0.509976389
Pt1      0.750030438   0.500476219   0.544170693
Pt1      0.500000000   0.001065265   0.544798831
O0       0.749443655   0.809917109   0.542331909
O0       0.750743848   0.191231574   0.546355718
O0       0.500000000   0.488089084   0.578335346
O0       0.500000000   0.012655061   0.600168717
Pt1      0.750071842  -0.009028255   0.634213959
Pt1      0.500000000   0.493211241   0.634725231
O0       0.751126758   0.681902054   0.626979873
O0       0.752193561   0.302448307   0.642302782
O0       0.500000000  -0.031029108   0.667214908
O0       0.500000000   0.541314962   0.688128301
O0       0.500000000   0.347898959   0.708232973
H2       0.500000000   0.404799605   0.733564139


     Check: negative starting charge=   -3.076882
     NEW-OLD atomic charge density approx. for the potential

     Check: negative/imaginary core charge=   -0.000003    0.000000
     Check: negative starting charge=   -3.076059

     negative rho (up, down):  0.316E+01 0.000E+00

     total cpu time spent up to now is   168091.5 secs

     Self-consistent Calculation

     iteration #  1     ecut=    40.00 Ry     beta=0.30
     Davidson diagonalization with overlap
     ethr =  1.00E-06,  avg # of iterations =  4.9

     negative rho (up, down):  0.316E+01 0.000E+00

     total cpu time spent up to now is   168941.6 secs

     total energy              =   -4424.57575144 Ry
     Harris-Foulkes estimate   =   -4424.57672757 Ry
     estimated scf accuracy    <       0.00303881 Ry

     iteration #  2     ecut=    40.00 Ry     beta=0.30
     Davidson diagonalization with overlap
     ethr =  6.59E-07,  avg # of iterations =  6.4

     negative rho (up, down):  0.316E+01 0.000E+00

     total cpu time spent up to now is   169369.3 secs

     total energy              =   -4424.56890286 Ry
     Harris-Foulkes estimate   =   -4424.58286929 Ry
     estimated scf accuracy    <       0.63338312 Ry

     iteration #  3     ecut=    40.00 Ry     beta=0.30
     Davidson diagonalization with overlap
     ethr =  6.59E-07,  avg # of iterations =  6.2

     negative rho (up, down):  0.317E+01 0.000E+00

     total cpu time spent up to now is   169836.5 secs

     total energy              =   -4424.57308863 Ry
     Harris-Foulkes estimate   =   -4424.57905315 Ry
     estimated scf accuracy    <       0.36603975 Ry

     iteration #  4     ecut=    40.00 Ry     beta=0.30
     Davidson diagonalization with overlap
     ethr =  6.59E-07,  avg # of iterations =  6.4

     negative rho (up, down):  0.317E+01 0.000E+00

     total cpu time spent up to now is   170324.4 secs

     total energy              =   -4424.57600587 Ry
     Harris-Foulkes estimate   =   -4424.57688236 Ry
     estimated scf accuracy    <       0.01606505 Ry

     iteration #  5     ecut=    40.00 Ry     beta=0.30
     Davidson diagonalization with overlap
     ethr =  6.59E-07,  avg # of iterations =  1.3

     negative rho (up, down):  0.317E+01 0.000E+00

     total cpu time spent up to now is   170648.7 secs

     total energy              =   -4424.57625705 Ry
     Harris-Foulkes estimate   =   -4424.57670820 Ry
     estimated scf accuracy    <       0.00507501 Ry

     iteration #  6     ecut=    40.00 Ry     beta=0.30
     Davidson diagonalization with overlap
     ethr =  6.59E-07,  avg # of iterations =  1.0

     negative rho (up, down):  0.316E+01 0.000E+00

     total cpu time spent up to now is   170951.2 secs

     total energy              =   -4424.57637187 Ry
     Harris-Foulkes estimate   =   -4424.57665922 Ry
     estimated scf accuracy    <       0.00310451 Ry

     iteration #  7     ecut=    40.00 Ry     beta=0.30
     Davidson diagonalization with overlap
     ethr =  6.59E-07,  avg # of iterations =  1.0

     negative rho (up, down):  0.316E+01 0.000E+00

     total cpu time spent up to now is   171252.9 secs

     total energy              =   -4424.57650567 Ry
     Harris-Foulkes estimate   =   -4424.57655994 Ry
     estimated scf accuracy    <       0.00045654 Ry

     iteration #  8     ecut=    40.00 Ry     beta=0.30
     Davidson diagonalization with overlap
     ethr =  9.90E-08,  avg # of iterations =  1.0

     negative rho (up, down):  0.316E+01 0.000E+00

     total cpu time spent up to now is   171553.9 secs

     total energy              =   -4424.57652134 Ry
     Harris-Foulkes estimate   =   -4424.57656858 Ry
     estimated scf accuracy    <       0.00047356 Ry

     iteration #  9     ecut=    40.00 Ry     beta=0.30
     Davidson diagonalization with overlap
     ethr =  9.90E-08,  avg # of iterations =  1.0

     negative rho (up, down):  0.316E+01 0.000E+00

     total cpu time spent up to now is   171856.5 secs

     total energy              =   -4424.57654699 Ry
     Harris-Foulkes estimate   =   -4424.57655256 Ry
     estimated scf accuracy    <       0.00005023 Ry

     iteration # 10     ecut=    40.00 Ry     beta=0.30
     Davidson diagonalization with overlap
     ethr =  1.09E-08,  avg # of iterations =  1.0

     negative rho (up, down):  0.316E+01 0.000E+00

     total cpu time spent up to now is   172156.3 secs

     total energy              =   -4424.57654945 Ry
     Harris-Foulkes estimate   =   -4424.57655348 Ry
     estimated scf accuracy    <       0.00003033 Ry

     iteration # 11     ecut=    40.00 Ry     beta=0.30
     Davidson diagonalization with overlap
     ethr =  6.58E-09,  avg # of iterations =  1.0

     negative rho (up, down):  0.316E+01 0.000E+00

     total cpu time spent up to now is   172453.3 secs

     total energy              =   -4424.57655193 Ry
     Harris-Foulkes estimate   =   -4424.57655266 Ry
     estimated scf accuracy    <       0.00000710 Ry

     iteration # 12     ecut=    40.00 Ry     beta=0.30
     Davidson diagonalization with overlap
     ethr =  1.54E-09,  avg # of iterations =  1.0

     negative rho (up, down):  0.316E+01 0.000E+00

     total cpu time spent up to now is   172751.8 secs

     total energy              =   -4424.57655235 Ry
     Harris-Foulkes estimate   =   -4424.57655272 Ry
     estimated scf accuracy    <       0.00000237 Ry

     iteration # 13     ecut=    40.00 Ry     beta=0.30
     Davidson diagonalization with overlap
=>> PBS: job killed: walltime 172808 exceeded limit 172800
mpirun: killing job...

mpirun: abort is already in progress...hit ctrl-c again to forcibly terminate

---------------------------------------
Running PBS batch system epilogue script
Job id: 381386.audhumbla.fysik.dtu.dk
Username: zhonxu
Groupname: campgst
Jobname: PtO2/Eads-4-layers/OOH-relax
Sessionid: 26726
Resources limits: neednodes=2:ppn=16:xeon16,nodes=2:ppn=16:xeon16,walltime=48:00:00
Resources used: cput=1532:11:57,mem=52088956kb,vmem=61646676kb,walltime=48:00:09
Queuename: verylong
Accounting:
This job has allocated the following 32 nodes:
g074 g074 g074 g074 g074 g074 g074 g074 g074 g074 g074 g074 g074 g074 g074 g074 g068 g068 g068 g068 g068 g068 g068 g068 g068 g068 g068 g068 g068 g068 g068 g068
Finished epilogue job 381386.audhumbla.fysik.dtu.dk for zhonxu
