
     Program PWSCF v.5.0.2 (svn rev. 9656) starts on 22Jun2014 at 12:35:43 

     This program is part of the open-source Quantum ESPRESSO suite
     for quantum simulation of materials; please cite
         "P. Giannozzi et al., J. Phys.:Condens. Matter 21 395502 (2009);
          URL http://www.quantum-espresso.org", 
     in publications or presentations arising from this work. More details at
     http://www.quantum-espresso.org/quote.php

     Parallel version (MPI), running on    32 processors
     K-points division:     npool     =       4
     R & G space division:  proc/nbgrp/npool/nimage =       8

     Current dimensions of program PWSCF are:
     Max number of different atomic species (ntypx) = 10
     Max number of k-points (npk) =  40000
     Max angular momentum in pseudopotentials (lmaxx) =  3
     Reading input from pwscf.in
Warning: card &CELL ignored
Warning: card / ignored

     Subspace diagonalization in iterative solution of the eigenvalue problem:
     a serial algorithm will be used


     Parallelization info
     --------------------
     sticks:   dense  smooth     PW     G-vecs:    dense   smooth      PW
     Min         745     237     66               241825    43740    6456
     Max         746     238     67               241838    43794    6459
     Sum        5965    1901    531              1934647   350115   51659



     bravais-lattice index     =            0
     lattice parameter (alat)  =      12.2076  a.u.
     unit-cell volume          =   10244.9005 (a.u.)^3
     number of atoms/cell      =           51
     number of atomic types    =            3
     number of electrons       =       461.00
     number of Kohn-Sham states=          691
     kinetic-energy cutoff     =      40.0000  Ry
     charge density cutoff     =     500.0000  Ry
     convergence threshold     =      1.0E-06
     mixing beta               =       0.3000
     number of iterations used =            8  plain     mixing
     Exchange-correlation      = SLA  PW   PBE  PBE ( 1 4 3 4 0)
     EXX-fraction              =        0.00
     nstep                     =           50


     celldm(1)=  12.207631  celldm(2)=   0.000000  celldm(3)=   0.000000
     celldm(4)=   0.000000  celldm(5)=   0.000000  celldm(6)=   0.000000

     crystal axes: (cart. coord. in units of alat)
               a(1) = (   1.000000   0.000000   0.000000 )  
               a(2) = (   0.000000   1.004836   0.000000 )  
               a(3) = (   0.000000   0.000000   5.604262 )  

     reciprocal axes: (cart. coord. in units 2 pi/alat)
               b(1) = (  1.000000  0.000000  0.000000 )  
               b(2) = (  0.000000  0.995187  0.000000 )  
               b(3) = (  0.000000  0.000000  0.178436 )  


     PseudoPot. # 1 for O  read from file:
     /home/camp/zhonxu/pseudo/o_pbe_v1.01.uspp.F.UPF
     MD5 check sum: 2bcb18d16ea4b960afae9ec6d52f22d2
     Pseudo is Ultrasoft + core correction, Zval =  6.0
     Generated by new atomic code, or converted to UPF format
     Using radial grid of  737 points,  5 beta functions with: 
                l(1) =   0
                l(2) =   0
                l(3) =   1
                l(4) =   1
                l(5) =   2
     Q(r) pseudized with  8 coefficients,  rinner =    0.900   0.900   0.900
                                                       0.900   0.900

     PseudoPot. # 2 for Pt read from file:
     /home/camp/zhonxu/pseudo/pt_pbe_v1.uspp.F.UPF
     MD5 check sum: 4c71d6ad5ef119f1eb26a4d0b7884226
     Pseudo is Ultrasoft + core correction, Zval = 16.0
     Generated by new atomic code, or converted to UPF format
     Using radial grid of  985 points,  6 beta functions with: 
                l(1) =   0
                l(2) =   0
                l(3) =   1
                l(4) =   1
                l(5) =   2
                l(6) =   2
     Q(r) pseudized with  8 coefficients,  rinner =    1.300   1.300   1.300
                                                       1.300   1.300

     PseudoPot. # 3 for H  read from file:
     /home/camp/zhonxu/pseudo/h_pbe_v1.uspp.F.UPF
     MD5 check sum: 3408e3ff4ec8b0a4e358431e7e038a48
     Pseudo is Ultrasoft, Zval =  1.0
     Generated by new atomic code, or converted to UPF format
     Using radial grid of  615 points,  2 beta functions with: 
                l(1) =   0
                l(2) =   0
     Q(r) pseudized with  8 coefficients,  rinner =    0.700

     atomic species   valence    mass     pseudopotential
        O0             6.00    15.99940     O ( 1.00)
        Pt1           16.00   195.08000     Pt( 1.00)
        H2             1.00     1.00794     H ( 1.00)

      2 Sym. Ops. (no inversion) found



   Cartesian axes

     site n.     atom                  positions (alat units)
         1           O0  tau(   1) = (   0.0000000   0.5024180   1.8575886  )
         2           Pt1 tau(   2) = (   0.2500000   0.5024180   2.0485258  )
         3           Pt1 tau(   3) = (   0.0000000   0.0000000   2.0485258  )
         4           O0  tau(   4) = (   0.2500000   0.8139171   2.0485258  )
         5           O0  tau(   5) = (   0.2500000   0.1909188   2.0485258  )
         6           O0  tau(   6) = (   0.0000000   0.5024180   2.2394070  )
         7           O0  tau(   7) = (   0.0000000   0.0000000   2.3600107  )
         8           Pt1 tau(   8) = (   0.2500000   0.0000000   2.5509479  )
         9           Pt1 tau(   9) = (   0.0000000   0.5024180   2.5509479  )
        10           O0  tau(  10) = (   0.2500000   0.6933368   2.5509479  )
        11           O0  tau(  11) = (   0.2500000   0.3114991   2.5509479  )
        12           O0  tau(  12) = (   0.0000000   0.0000000   2.7418291  )
        13           O0  tau(  13) = (   0.0000000   0.4860392   2.8610317  )
        14           Pt1 tau(  14) = (   0.2499700   0.5029003   3.0496712  )
        15           Pt1 tau(  15) = (   0.0000000   0.0007034   3.0536502  )
        16           O0  tau(  16) = (   0.2505600   0.8138367   3.0393593  )
        17           O0  tau(  17) = (   0.2492600   0.1921548   3.0619445  )
        18           O0  tau(  18) = (   0.0000000   0.5265843   3.2370777  )
        19           O0  tau(  19) = (   0.0000000   0.0251008   3.3641824  )
        20           Pt1 tau(  20) = (   0.2499300  -0.0090737   3.5542789  )
        21           Pt1 tau(  21) = (   0.0000000   0.4897470   3.5506361  )
        22           O0  tau(  22) = (   0.2488700   0.6851976   3.5137601  )
        23           O0  tau(  23) = (   0.2478100   0.3039126   3.5996174  )
        24           O0  tau(  24) = (   0.0000000  -0.0242567   3.7400042  )
        25           O0  tau(  25) = (   0.5000000   0.5024180   1.8575886  )
        26           Pt1 tau(  26) = (   0.7500000   0.5024180   2.0485258  )
        27           Pt1 tau(  27) = (   0.5000000   0.0000000   2.0485258  )
        28           O0  tau(  28) = (   0.7500000   0.8139171   2.0485258  )
        29           O0  tau(  29) = (   0.7500000   0.1909188   2.0485258  )
        30           O0  tau(  30) = (   0.5000000   0.5024180   2.2394070  )
        31           O0  tau(  31) = (   0.5000000   0.0000000   2.3600107  )
        32           Pt1 tau(  32) = (   0.7500000   0.0000000   2.5509479  )
        33           Pt1 tau(  33) = (   0.5000000   0.5024180   2.5509479  )
        34           O0  tau(  34) = (   0.7500000   0.6933368   2.5509479  )
        35           O0  tau(  35) = (   0.7500000   0.3114991   2.5509479  )
        36           O0  tau(  36) = (   0.5000000   0.0000000   2.7418291  )
        37           O0  tau(  37) = (   0.5000000   0.4883704   2.8580615  )
        38           Pt1 tau(  38) = (   0.7500300   0.5029003   3.0496712  )
        39           Pt1 tau(  39) = (   0.5000000   0.0010752   3.0532019  )
        40           O0  tau(  40) = (   0.7494400   0.8138367   3.0393593  )
        41           O0  tau(  41) = (   0.7507400   0.1921548   3.0619445  )
        42           O0  tau(  42) = (   0.5000000   0.4904504   3.2411688  )
        43           O0  tau(  43) = (   0.5000000   0.0127212   3.3635098  )
        44           Pt1 tau(  44) = (   0.7500700  -0.0090737   3.5542789  )
        45           Pt1 tau(  45) = (   0.5000000   0.4955951   3.5571931  )
        46           O0  tau(  46) = (   0.7511300   0.6851976   3.5137601  )
        47           O0  tau(  47) = (   0.7521900   0.3039126   3.5996174  )
        48           O0  tau(  48) = (   0.5000000  -0.0311801   3.7392196  )
        49           O0  tau(  49) = (   0.5000000   0.5439277   3.8564607  )
        50           O0  tau(  50) = (   0.5000000   0.3495824   3.9691064  )
        51           H2  tau(  51) = (   0.5000000   0.4067576   4.1110623  )

     number of k points=     9  Methfessel-Paxton smearing, width (Ry)=  0.0100
                       cart. coord. in units 2pi/alat
        k(    1) = (   0.0000000   0.0000000   0.0000000), wk =   0.1250000
        k(    2) = (   0.0000000   0.2487968   0.0000000), wk =   0.2500000
        k(    3) = (   0.0000000  -0.4975937   0.0000000), wk =   0.1250000
        k(    4) = (   0.2500000   0.0000000   0.0000000), wk =   0.2500000
        k(    5) = (   0.2500000   0.2487968   0.0000000), wk =   0.5000000
        k(    6) = (   0.2500000  -0.4975937   0.0000000), wk =   0.2500000
        k(    7) = (  -0.5000000   0.0000000   0.0000000), wk =   0.1250000
        k(    8) = (  -0.5000000   0.2487968   0.0000000), wk =   0.2500000
        k(    9) = (  -0.5000000  -0.4975937   0.0000000), wk =   0.1250000

     Dense  grid:  1934647 G-vectors     FFT dimensions: (  90,  90, 500)

     Smooth grid:   350115 G-vectors     FFT dimensions: (  50,  50, 288)

     Largest allocated arrays     est. size (Mb)     dimensions
        Kohn-Sham Wavefunctions        58.76 Mb     (   5573,  691)
        NL pseudopotentials            62.25 Mb     (   5573,  732)
        Each V/rho on FFT grid          7.79 Mb     ( 510300)
        Each G-vector array             1.85 Mb     ( 241838)
        G-vector shells                 0.88 Mb     ( 115255)
     Largest temporary arrays     est. size (Mb)     dimensions
        Auxiliary wavefunctions       235.04 Mb     (   5573, 2764)
        Each subspace H/S matrix      116.57 Mb     (2764,2764)
        Each <psi_i|beta_j> matrix      7.72 Mb     (    732,  691)
        Arrays for rho mixing          62.29 Mb     ( 510300,   8)

     Check: negative/imaginary core charge=   -0.000003    0.000000

     Initial potential from superposition of free atoms
     Check: negative starting charge=   -3.076058

     starting charge  452.99976, renormalised to  461.00000

     negative rho (up, down):  0.313E+01 0.000E+00
     Starting wfc are  329 randomized atomic wfcs

     total cpu time spent up to now is      147.5 secs

     Self-consistent Calculation

     iteration #  1     ecut=    40.00 Ry     beta=0.30
     Davidson diagonalization with overlap
     ethr =  1.00E-02,  avg # of iterations =  6.0

     negative rho (up, down):  0.309E+01 0.000E+00

     total cpu time spent up to now is     1261.3 secs

     total energy              =   -4370.07304086 Ry
     Harris-Foulkes estimate   =   -4436.99382946 Ry
     estimated scf accuracy    <     135.82654481 Ry

     iteration #  2     ecut=    40.00 Ry     beta=0.30
     Davidson diagonalization with overlap
     ethr =  1.00E-02,  avg # of iterations =  4.9

     negative rho (up, down):  0.301E+01 0.000E+00

     total cpu time spent up to now is     2107.2 secs

     total energy              =   -4131.59204756 Ry
     Harris-Foulkes estimate   =   -4949.74427815 Ry
     estimated scf accuracy    <   24508.88964115 Ry

     iteration #  3     ecut=    40.00 Ry     beta=0.30
     Davidson diagonalization with overlap
     ethr =  1.00E-02,  avg # of iterations =  6.0

     negative rho (up, down):  0.304E+01 0.000E+00

     total cpu time spent up to now is     3015.9 secs

     total energy              =   -4394.18925847 Ry
     Harris-Foulkes estimate   =   -4441.95041294 Ry
     estimated scf accuracy    <     568.53266432 Ry

     iteration #  4     ecut=    40.00 Ry     beta=0.30
     Davidson diagonalization with overlap
     ethr =  1.00E-02,  avg # of iterations =  4.3

     negative rho (up, down):  0.306E+01 0.000E+00

     total cpu time spent up to now is     3493.0 secs

     total energy              =   -4411.44077976 Ry
     Harris-Foulkes estimate   =   -4435.69421473 Ry
     estimated scf accuracy    <     356.28152999 Ry

     iteration #  5     ecut=    40.00 Ry     beta=0.30
     Davidson diagonalization with overlap
     ethr =  1.00E-02,  avg # of iterations =  2.0

     negative rho (up, down):  0.308E+01 0.000E+00

     total cpu time spent up to now is     3821.7 secs

     total energy              =   -4421.48949810 Ry
     Harris-Foulkes estimate   =   -4427.81437701 Ry
     estimated scf accuracy    <      45.35100311 Ry

     iteration #  6     ecut=    40.00 Ry     beta=0.30
     Davidson diagonalization with overlap
     ethr =  9.84E-03,  avg # of iterations =  1.0

     negative rho (up, down):  0.308E+01 0.000E+00

     total cpu time spent up to now is     4116.9 secs

     total energy              =   -4424.24606178 Ry
     Harris-Foulkes estimate   =   -4425.39909662 Ry
     estimated scf accuracy    <       7.69154275 Ry

     iteration #  7     ecut=    40.00 Ry     beta=0.30
     Davidson diagonalization with overlap
     ethr =  1.67E-03,  avg # of iterations =  4.1

     negative rho (up, down):  0.309E+01 0.000E+00

     total cpu time spent up to now is     4503.5 secs

     total energy              =   -4424.64134252 Ry
     Harris-Foulkes estimate   =   -4424.82644139 Ry
     estimated scf accuracy    <       1.83946977 Ry

     iteration #  8     ecut=    40.00 Ry     beta=0.30
     Davidson diagonalization with overlap
     ethr =  3.99E-04,  avg # of iterations =  4.2

     negative rho (up, down):  0.311E+01 0.000E+00

     total cpu time spent up to now is     4929.4 secs

     total energy              =   -4424.59843185 Ry
     Harris-Foulkes estimate   =   -4424.69542663 Ry
     estimated scf accuracy    <       0.56303831 Ry

     iteration #  9     ecut=    40.00 Ry     beta=0.30
     Davidson diagonalization with overlap
     ethr =  1.22E-04,  avg # of iterations =  5.1

     negative rho (up, down):  0.312E+01 0.000E+00

     total cpu time spent up to now is     5358.5 secs

     total energy              =   -4424.51433351 Ry
     Harris-Foulkes estimate   =   -4424.65430446 Ry
     estimated scf accuracy    <       2.12529045 Ry

     iteration # 10     ecut=    40.00 Ry     beta=0.30
     Davidson diagonalization with overlap
     ethr =  1.22E-04,  avg # of iterations =  1.0

     negative rho (up, down):  0.313E+01 0.000E+00

     total cpu time spent up to now is     5654.8 secs

     total energy              =   -4424.54995663 Ry
     Harris-Foulkes estimate   =   -4424.63538255 Ry
     estimated scf accuracy    <       1.17737279 Ry

     iteration # 11     ecut=    40.00 Ry     beta=0.30
     Davidson diagonalization with overlap
     ethr =  1.22E-04,  avg # of iterations =  5.3

     negative rho (up, down):  0.314E+01 0.000E+00

     total cpu time spent up to now is     6092.2 secs

     total energy              =   -4424.56262513 Ry
     Harris-Foulkes estimate   =   -4424.59428742 Ry
     estimated scf accuracy    <       0.31876079 Ry

     iteration # 12     ecut=    40.00 Ry     beta=0.30
     Davidson diagonalization with overlap
     ethr =  6.91E-05,  avg # of iterations =  6.3

     negative rho (up, down):  0.314E+01 0.000E+00

     total cpu time spent up to now is     6519.2 secs

     total energy              =   -4424.56739865 Ry
     Harris-Foulkes estimate   =   -4424.58463418 Ry
     estimated scf accuracy    <       0.30580112 Ry

     iteration # 13     ecut=    40.00 Ry     beta=0.30
     Davidson diagonalization with overlap
     ethr =  6.63E-05,  avg # of iterations =  2.2

     negative rho (up, down):  0.315E+01 0.000E+00

     total cpu time spent up to now is     6855.2 secs

     total energy              =   -4424.55098579 Ry
     Harris-Foulkes estimate   =   -4424.59045578 Ry
     estimated scf accuracy    <       1.84784403 Ry

     iteration # 14     ecut=    40.00 Ry     beta=0.30
     Davidson diagonalization with overlap
     ethr =  6.63E-05,  avg # of iterations =  1.6

     negative rho (up, down):  0.315E+01 0.000E+00

     total cpu time spent up to now is     7176.0 secs

     total energy              =   -4424.57400427 Ry
     Harris-Foulkes estimate   =   -4424.58001443 Ry
     estimated scf accuracy    <       0.26969801 Ry

     iteration # 15     ecut=    40.00 Ry     beta=0.30
     Davidson diagonalization with overlap
     ethr =  5.85E-05,  avg # of iterations =  1.0

     negative rho (up, down):  0.316E+01 0.000E+00

     total cpu time spent up to now is     7473.5 secs

     total energy              =   -4424.57479860 Ry
     Harris-Foulkes estimate   =   -4424.57880046 Ry
     estimated scf accuracy    <       0.07760849 Ry

     iteration # 16     ecut=    40.00 Ry     beta=0.30
     Davidson diagonalization with overlap
     ethr =  1.68E-05,  avg # of iterations =  4.0

     negative rho (up, down):  0.316E+01 0.000E+00

     total cpu time spent up to now is     7895.8 secs

     total energy              =   -4424.57564001 Ry
     Harris-Foulkes estimate   =   -4424.57725453 Ry
     estimated scf accuracy    <       0.02029372 Ry

     iteration # 17     ecut=    40.00 Ry     beta=0.30
     Davidson diagonalization with overlap
     ethr =  4.40E-06,  avg # of iterations =  6.8

     negative rho (up, down):  0.316E+01 0.000E+00

     total cpu time spent up to now is     8383.8 secs

     total energy              =   -4424.57567910 Ry
     Harris-Foulkes estimate   =   -4424.57720031 Ry
     estimated scf accuracy    <       0.02682671 Ry

     iteration # 18     ecut=    40.00 Ry     beta=0.30
     Davidson diagonalization with overlap
     ethr =  4.40E-06,  avg # of iterations =  1.0

     negative rho (up, down):  0.316E+01 0.000E+00

     total cpu time spent up to now is     8682.4 secs

     total energy              =   -4424.57637308 Ry
     Harris-Foulkes estimate   =   -4424.57659135 Ry
     estimated scf accuracy    <       0.00424619 Ry

     iteration # 19     ecut=    40.00 Ry     beta=0.30
     Davidson diagonalization with overlap
     ethr =  9.21E-07,  avg # of iterations =  4.3

     negative rho (up, down):  0.316E+01 0.000E+00

     total cpu time spent up to now is     9069.2 secs

     total energy              =   -4424.57644932 Ry
     Harris-Foulkes estimate   =   -4424.57659328 Ry
     estimated scf accuracy    <       0.00244567 Ry

     iteration # 20     ecut=    40.00 Ry     beta=0.30
     Davidson diagonalization with overlap
     ethr =  5.31E-07,  avg # of iterations =  3.8

     negative rho (up, down):  0.316E+01 0.000E+00

     total cpu time spent up to now is     9415.4 secs

     total energy              =   -4424.57651108 Ry
     Harris-Foulkes estimate   =   -4424.57658107 Ry
     estimated scf accuracy    <       0.00080198 Ry

     iteration # 21     ecut=    40.00 Ry     beta=0.30
     Davidson diagonalization with overlap
     ethr =  1.74E-07,  avg # of iterations =  1.0

     negative rho (up, down):  0.316E+01 0.000E+00

     total cpu time spent up to now is     9713.9 secs

     total energy              =   -4424.57651783 Ry
     Harris-Foulkes estimate   =   -4424.57658810 Ry
     estimated scf accuracy    <       0.00201050 Ry

     iteration # 22     ecut=    40.00 Ry     beta=0.30
     Davidson diagonalization with overlap
     ethr =  1.74E-07,  avg # of iterations =  1.0

     negative rho (up, down):  0.316E+01 0.000E+00

     total cpu time spent up to now is    10014.5 secs

     total energy              =   -4424.57654668 Ry
     Harris-Foulkes estimate   =   -4424.57656515 Ry
     estimated scf accuracy    <       0.00009937 Ry

     iteration # 23     ecut=    40.00 Ry     beta=0.30
     Davidson diagonalization with overlap
     ethr =  2.16E-08,  avg # of iterations =  1.0

     negative rho (up, down):  0.316E+01 0.000E+00

     total cpu time spent up to now is    10316.3 secs

     total energy              =   -4424.57654858 Ry
     Harris-Foulkes estimate   =   -4424.57656778 Ry
     estimated scf accuracy    <       0.00070082 Ry

     iteration # 24     ecut=    40.00 Ry     beta=0.30
     Davidson diagonalization with overlap
     ethr =  2.16E-08,  avg # of iterations =  1.0

     negative rho (up, down):  0.316E+01 0.000E+00

     total cpu time spent up to now is    10614.9 secs

     total energy              =   -4424.57655301 Ry
     Harris-Foulkes estimate   =   -4424.57656555 Ry
     estimated scf accuracy    <       0.00026168 Ry

     iteration # 25     ecut=    40.00 Ry     beta=0.30
     Davidson diagonalization with overlap
     ethr =  2.16E-08,  avg # of iterations =  1.0

     negative rho (up, down):  0.316E+01 0.000E+00

     total cpu time spent up to now is    10912.8 secs

     total energy              =   -4424.57655633 Ry
     Harris-Foulkes estimate   =   -4424.57656497 Ry
     estimated scf accuracy    <       0.00014176 Ry

     iteration # 26     ecut=    40.00 Ry     beta=0.30
     Davidson diagonalization with overlap
     ethr =  2.16E-08,  avg # of iterations =  1.0

     negative rho (up, down):  0.316E+01 0.000E+00

     total cpu time spent up to now is    11210.2 secs

     total energy              =   -4424.57655958 Ry
     Harris-Foulkes estimate   =   -4424.57656143 Ry
     estimated scf accuracy    <       0.00003704 Ry

     iteration # 27     ecut=    40.00 Ry     beta=0.30
     Davidson diagonalization with overlap
     ethr =  8.04E-09,  avg # of iterations =  1.0

     negative rho (up, down):  0.316E+01 0.000E+00

     total cpu time spent up to now is    11508.6 secs

     total energy              =   -4424.57655959 Ry
     Harris-Foulkes estimate   =   -4424.57656090 Ry
     estimated scf accuracy    <       0.00001780 Ry

     iteration # 28     ecut=    40.00 Ry     beta=0.30
     Davidson diagonalization with overlap
     ethr =  3.86E-09,  avg # of iterations =  1.0

     negative rho (up, down):  0.316E+01 0.000E+00

     total cpu time spent up to now is    11805.1 secs

     total energy              =   -4424.57656005 Ry
     Harris-Foulkes estimate   =   -4424.57656051 Ry
     estimated scf accuracy    <       0.00000548 Ry

     iteration # 29     ecut=    40.00 Ry     beta=0.30
     Davidson diagonalization with overlap
     ethr =  1.19E-09,  avg # of iterations =  1.0

     negative rho (up, down):  0.316E+01 0.000E+00

     total cpu time spent up to now is    12103.6 secs

     total energy              =   -4424.57656010 Ry
     Harris-Foulkes estimate   =   -4424.57656034 Ry
     estimated scf accuracy    <       0.00000396 Ry

     iteration # 30     ecut=    40.00 Ry     beta=0.30
     Davidson diagonalization with overlap
     ethr =  8.60E-10,  avg # of iterations =  1.0

     negative rho (up, down):  0.316E+01 0.000E+00

     total cpu time spent up to now is    12406.0 secs

     total energy              =   -4424.57656011 Ry
     Harris-Foulkes estimate   =   -4424.57656028 Ry
     estimated scf accuracy    <       0.00000184 Ry

     iteration # 31     ecut=    40.00 Ry     beta=0.30
     Davidson diagonalization with overlap
     ethr =  3.99E-10,  avg # of iterations =  1.0

     negative rho (up, down):  0.316E+01 0.000E+00

     total cpu time spent up to now is    12707.4 secs

     total energy              =   -4424.57656014 Ry
     Harris-Foulkes estimate   =   -4424.57656025 Ry
     estimated scf accuracy    <       0.00000312 Ry

     iteration # 32     ecut=    40.00 Ry     beta=0.30
     Davidson diagonalization with overlap
     ethr =  3.99E-10,  avg # of iterations =  1.0

     negative rho (up, down):  0.316E+01 0.000E+00

     total cpu time spent up to now is    13008.1 secs

     End of self-consistent calculation

          k = 0.0000 0.0000 0.0000 ( 43825 PWs)   bands (ev):

   -53.8065 -53.7881 -53.7448 -53.7408 -53.7320 -53.7236 -53.7212 -53.6865
   -53.6672 -53.6659 -53.6328 -53.6317 -53.6293 -53.6157 -53.6126 -53.6111
   -53.5897 -53.5826 -53.5556 -53.5411 -53.5338 -53.5137 -53.5046 -53.5002
   -53.4911 -53.4866 -53.4835 -53.4763 -53.4221 -53.3995 -53.3992 -53.3972
   -53.3919 -53.3802 -53.3731 -53.3515 -53.2951 -53.2542 -53.2473 -53.2469
   -53.2398 -53.0653 -52.9976 -52.9901 -52.8871 -52.7961 -52.7925 -52.5429
   -21.8861 -19.5657 -19.3220 -19.1039 -18.9519 -18.8853 -18.6090 -18.3941
   -18.3790 -18.3615 -18.3516 -18.3048 -18.2961 -18.2806 -18.2292 -18.1812
   -18.1554 -18.1420 -18.1151 -18.0616 -17.9835 -17.9322 -17.9303 -17.7809
   -17.7445 -17.7162 -17.6701 -17.6145 -17.4993 -16.7842 -16.6883 -16.6759
   -16.6082 -15.6817  -8.4882  -8.4651  -8.4310  -8.1106  -8.0307  -7.9908
    -7.2169  -7.1853  -7.1592  -7.0986  -7.0586  -7.0539  -7.0227  -6.9648
    -6.9426  -6.9367  -6.9248  -6.9007  -6.8898  -6.8784  -6.8714  -6.6884
    -6.6793  -6.5973  -6.5763  -6.5610  -6.5506  -6.4845  -6.3942  -6.3300
    -6.3174  -6.3053  -6.2480  -6.2199  -6.1669  -5.9772  -5.8653  -5.8179
    -5.7130  -5.5967  -5.3833  -5.3618  -5.0323  -4.8615  -4.8165  -4.7495
    -4.7362  -4.7051  -4.6780  -4.6559  -4.6418  -4.5814  -4.4424  -4.4029
    -4.2775  -4.1537  -4.1300  -4.0382  -3.9836  -3.9576  -3.9208  -3.7704
    -3.6879  -3.6581  -3.5248  -3.5226  -3.5097  -3.4828  -3.3697  -3.3570
    -3.2571  -3.2155  -3.2100  -3.1967  -3.1335  -3.1128  -3.1019  -3.0089
    -2.9748  -2.9247  -2.8704  -2.7897  -2.7745  -2.7137  -2.7068  -2.6709
    -2.6637  -2.6416  -2.6048  -2.6030  -2.5931  -2.5791  -2.5324  -2.5043
    -2.4798  -2.4792  -2.4464  -2.3780  -2.3498  -2.3235  -2.3033  -2.2993
    -2.2527  -2.2337  -2.1583  -2.1474  -2.1101  -2.0778  -2.0508  -2.0056
    -1.9918  -1.9915  -1.9208  -1.8726  -1.8168  -1.7251  -1.7125  -1.5800
    -1.4671  -1.4382  -1.3885  -1.2884  -1.1802  -1.1109  -0.8815  -0.7776
    -0.7613  -0.6580  -0.6316  -0.6312  -0.5516  -0.5457  -0.4317  -0.3778
    -0.2460  -0.0690  -0.0397   0.0322   0.0977   0.1290   0.2072   0.3474
     0.3792   0.3838   0.5481   0.5987   0.6362   0.7245   0.7613   0.7900
     0.8745   0.9839   1.0398   1.2207   1.3479   1.5922   1.6435   1.6775
     1.7796   1.8414   1.8644   2.1172   2.2397   2.2666   2.3536   2.5582
     2.7165   2.7541   2.8702   3.4386   3.4587   3.5317   3.5793   3.5823
     3.6088   3.6567   3.7565   3.7947   3.9366   4.0493   4.3200   4.9097
     5.0149   5.0920   5.6043   6.0357   6.2333   6.5973   6.8376   7.3175
     7.4660   7.5294   8.0532   8.3918   8.4387   8.8798   8.9356   8.9853
     9.0566   9.0609   9.0923   9.1879   9.2290   9.2441   9.3356   9.4262
     9.4835   9.5080   9.5346   9.5464   9.6287   9.6681   9.6831   9.7105
     9.7606   9.7732   9.7848   9.8290   9.8760  10.0158  10.0178  10.0334
    10.0397  10.1412  10.2379  10.2824  10.3201  10.3795  10.5614  10.6073
    10.6390  10.6433  10.6990  10.7339  10.7812  10.9394  11.1215  11.2129
    11.2380  11.2895  11.3220  11.4272  11.4828  11.6504  11.7852  11.8193
    11.9191  11.9545  11.9725  12.0464  12.1132  12.1219  12.2659  12.3141
    12.3635  12.4091  12.5239  12.5588  12.5776  12.6603  12.7334  12.8103
    12.8383  12.8994  12.9937  13.0925  13.1687  13.1981  13.2048  13.2652
    13.2701  13.3538  13.3553  13.3904  13.4181  13.4640  13.5071  13.5300
    13.5667  13.5982  13.6695  13.6822  13.6936  13.7384  13.7585  13.8484
    13.8505  13.8882  13.9736  14.0525  14.0890  14.1611  14.2096  14.2705
    14.3811  14.3929  14.4254  14.5012  14.5473  14.6371  14.6753  14.6938
    14.7191  14.7241  14.8027  14.9026  15.0255  15.0815  15.1253  15.1980
    15.2513  15.3095  15.3166  15.5448  15.6073  15.6441  15.6800  15.8289
    15.8798  15.9134  15.9475  16.0514  16.0991  16.1243  16.1256  16.1956
    16.2285  16.2525  16.3426  16.4331  16.4673  16.5058  16.5287  16.6197
    16.6608  16.7226  16.8632  16.8928  16.9333  16.9727  17.0831  17.1034
    17.1738  17.1865  17.2253  17.3179  17.3457  17.4224  17.4736  17.5394
    17.5976  17.6799  17.7016  17.7808  17.8814  17.9932  18.0249  18.0787
    18.2211  18.2364  18.2487  18.3018  18.3258  18.3848  18.4185  18.4407
    18.4493  18.4550  18.4680  18.4814  18.5091  18.5224  18.5241  18.5447
    18.5863  18.5863  18.6037  18.6426  18.6825  18.7247  18.8140  18.8670
    18.8784  18.9160  18.9933  18.9987  19.0027  19.0313  19.1228  19.1722
    19.1978  19.2463  19.2725  19.3087  19.4081  19.4317  19.4639  19.5385
    19.6584  19.6776  19.6938  19.7991  19.8407  19.9148  19.9612  20.0417
    20.0761  20.1102  20.1304  20.1935  20.1951  20.3333  20.3567  20.3918
    20.3936  20.4259  20.4684  20.5275  20.5932  20.6038  20.6616  20.6826
    20.7250  20.7252  20.8091  20.8358  20.8434  20.8678  20.8854  20.8919
    20.9464  20.9981  21.0275  21.0510  21.0760  21.1820  21.2185  21.2580
    21.3198  21.3671  21.3673  21.4065  21.4590  21.4992  21.5555  21.5964
    21.6304  21.6452  21.7400  21.8006  21.8506  21.8791  21.9107  21.9307
    21.9984  22.0525  22.0635  22.0760  22.1114  22.1975  22.2029  22.2468
    22.2584  22.3678  22.3973  22.4811  22.5228  22.5262  22.5504  22.6344
    22.7333  22.7822  22.8215  22.9160  22.9250  22.9450  23.0400  23.0615
    23.0936  23.1657  23.1800  23.2283  23.2406  23.3440  23.3726  23.3941
    23.4056  23.5076  23.5234  23.5831  23.5957  23.6694  23.7371  23.7590
    23.7773  23.7999  23.8579  23.8758  23.8972  23.9066  23.9237  23.9557
    23.9703  23.9774  24.0096  24.0501  24.0609  24.0695  24.1240  24.1598
    24.1662  24.1868  24.2239  24.2350  24.2890  24.3046  24.3064  24.3712
    24.4025  24.4214  24.4364  24.4541  24.4567  24.5175  24.5257  24.5622
    24.5987  24.6506  24.6847  24.7371  24.7428  24.7697  24.7821  24.8590
    24.8700  24.8919  24.9079  24.9429  24.9666  24.9755  25.0082  25.0346
    25.0836  25.0935  25.1279  25.1500  25.1809  25.2240  25.2302  25.2390
    25.3031  25.3710  25.4303  25.4561  25.4902  25.5511  25.5918  25.6243
    25.6840  25.6895  25.7010  25.7145  25.7564  25.8299  25.8609  25.8629
    25.8935  25.9774  25.9811  26.0899  26.0985  26.1139  26.1624  26.1826
    26.1950  26.2108  26.2625  26.2787  26.3074  26.3282  26.3331  26.3782
    26.4164  26.4298  26.5139  26.5763  26.6319  26.6555  26.6647  26.7609
    26.7773  26.7780  26.8328  26.9234  26.9333  26.9577  27.0400  27.0474
    27.0861  27.0872  27.1684  27.1886  27.2157  27.2481  27.2547  27.2829
    27.3609  27.3834  27.3967

          k = 0.0000 0.2488 0.0000 ( 43767 PWs)   bands (ev):

   -53.8065 -53.7882 -53.7448 -53.7408 -53.7320 -53.7236 -53.7212 -53.6865
   -53.6672 -53.6659 -53.6327 -53.6317 -53.6294 -53.6158 -53.6126 -53.6111
   -53.5897 -53.5825 -53.5557 -53.5398 -53.5337 -53.5133 -53.5055 -53.5002
   -53.4907 -53.4866 -53.4838 -53.4760 -53.4224 -53.4000 -53.3992 -53.3972
   -53.3919 -53.3802 -53.3731 -53.3514 -53.2951 -53.2542 -53.2473 -53.2469
   -53.2398 -53.0653 -52.9977 -52.9901 -52.8871 -52.7961 -52.7925 -52.5429
   -21.8857 -19.4583 -19.2078 -18.9952 -18.9615 -18.8247 -18.6619 -18.4182
   -18.3948 -18.3930 -18.3725 -18.3531 -18.3501 -18.2758 -18.2267 -18.2264
   -18.1653 -18.0986 -18.0680 -18.0359 -17.9874 -17.9356 -17.8906 -17.8353
   -17.8138 -17.7912 -17.7504 -17.7086 -17.5745 -16.7848 -16.6859 -16.6755
   -16.6041 -15.6774  -8.0769  -8.0236  -8.0124  -7.9894  -7.9392  -7.6346
    -7.2136  -7.2038  -7.1699  -7.1540  -7.1417  -7.0451  -7.0197  -7.0064
    -6.9989  -6.9290  -6.9213  -6.9003  -6.8878  -6.8751  -6.8695  -6.8627
    -6.8212  -6.7761  -6.6482  -6.6309  -6.6299  -6.5731  -6.5602  -6.4101
    -6.3663  -6.3166  -6.0406  -6.0349  -5.6445  -5.6396  -5.5323  -5.5037
    -5.4407  -5.3535  -5.1929  -4.9860  -4.8950  -4.8783  -4.8337  -4.7905
    -4.7762  -4.7562  -4.7378  -4.6865  -4.6560  -4.6390  -4.6306  -4.6023
    -4.5720  -4.4981  -4.4841  -4.3291  -4.2495  -4.1930  -4.0909  -4.0175
    -3.9361  -3.8904  -3.8708  -3.8356  -3.8056  -3.6899  -3.6465  -3.6135
    -3.6025  -3.5749  -3.4518  -3.3674  -3.3535  -3.3185  -3.2447  -3.2440
    -2.9946  -2.9793  -2.9545  -2.9281  -2.8664  -2.8628  -2.7803  -2.6865
    -2.6197  -2.5983  -2.5370  -2.4961  -2.4367  -2.3769  -2.3154  -2.2867
    -2.2769  -2.2455  -2.2144  -2.1450  -2.1442  -2.1221  -2.0947  -2.0930
    -2.0707  -2.0389  -2.0363  -1.9741  -1.9336  -1.8983  -1.8801  -1.8478
    -1.7935  -1.7817  -1.7814  -1.7433  -1.6839  -1.6232  -1.6231  -1.5550
    -1.4969  -1.4854  -1.4239  -1.4008  -1.3661  -1.3350  -1.2655  -1.1763
    -1.0961  -0.9312  -0.8605  -0.7859  -0.7494  -0.6358  -0.5975  -0.3928
    -0.0311   0.0550   0.0729   0.1411   0.2413   0.3575   0.3698   0.3807
     0.4764   0.4832   0.5724   0.5768   0.6289   0.6713   0.6886   0.7522
     0.7740   0.8020   0.8385   0.8770   0.9450   1.1139   1.1986   1.3334
     1.6071   1.9586   2.1480   2.2579   2.5016   2.5487   2.9244   3.2829
     3.3605   3.3903   3.4273   3.4582   3.5162   3.5164   3.5338   3.5888
     3.5932   3.6130   3.6131   3.7414   3.9383   4.0510   4.2950   4.9656
     5.0985   5.3313   5.7985   6.2474   6.4329   6.7754   7.0229   7.3507
     7.4882   7.5783   7.7190   7.8971   8.0316   8.1653   8.2850   8.3913
     8.5691   8.7024   8.8079   9.0276   9.1575   9.1963   9.2434   9.2977
     9.3676   9.5317   9.6099   9.6610   9.6829   9.7492   9.7616   9.8189
     9.8655   9.8657   9.9406   9.9997  10.0027  10.0762  10.1773  10.2236
    10.2419  10.3310  10.3820  10.4334  10.4959  10.5738  10.5984  10.6686
    10.7042  10.7826  10.8295  10.9043  10.9951  11.0521  11.1217  11.1242
    11.2137  11.2822  11.3813  11.4290  11.4958  11.5929  11.6455  11.7318
    11.7650  11.7688  11.8199  11.9234  12.0159  12.0281  12.0845  12.1624
    12.1701  12.2677  12.3340  12.4160  12.5313  12.5392  12.5944  12.6373
    12.7105  12.7948  12.8510  12.8968  13.0201  13.2438  13.2827  13.3174
    13.3321  13.3667  13.4023  13.4728  13.4884  13.5637  13.6865  13.7264
    13.7599  13.8018  13.8419  13.9574  14.0144  14.0434  14.0926  14.0999
    14.1625  14.2043  14.2883  14.4062  14.4218  14.4521  14.4641  14.5641
    14.6123  14.6163  14.6769  14.7206  14.7420  14.8743  14.8888  14.9704
    15.0076  15.1325  15.2149  15.2227  15.2555  15.2858  15.3527  15.3850
    15.4150  15.5262  15.6229  15.6636  15.6725  15.7139  15.8270  15.8721
    15.9063  15.9349  16.0737  16.0773  16.1653  16.1781  16.2269  16.2752
    16.3653  16.4437  16.4724  16.5438  16.5566  16.6198  16.7679  16.7822
    16.8761  16.9099  16.9681  17.0358  17.1350  17.1911  17.2303  17.2444
    17.2579  17.3181  17.3740  17.3877  17.4393  17.4508  17.5168  17.5187
    17.5674  17.5791  17.6321  17.6708  17.7792  17.8003  17.8701  17.9119
    17.9143  17.9843  18.0472  18.0762  18.1485  18.1809  18.2397  18.2948
    18.3433  18.4093  18.4189  18.4602  18.4739  18.4769  18.4910  18.4929
    18.5124  18.5249  18.5450  18.5689  18.5779  18.5793  18.6022  18.6230
    18.6264  18.6853  18.7170  18.7727  18.7754  18.7909  18.7923  18.8543
    18.9168  19.0437  19.0670  19.1231  19.1771  19.2170  19.2363  19.2383
    19.2605  19.2937  19.4005  19.4087  19.4799  19.5417  19.6438  19.7215
    19.8245  19.8560  19.9153  19.9565  19.9848  19.9901  20.0431  20.0943
    20.1668  20.1898  20.2285  20.3495  20.3653  20.4302  20.4855  20.5173
    20.5597  20.5925  20.5972  20.6242  20.6508  20.7301  20.7357  20.7884
    20.8310  20.8440  20.8715  20.9022  20.9270  20.9760  21.0022  21.0053
    21.0931  21.1151  21.1532  21.1922  21.2606  21.2649  21.3044  21.3598
    21.4243  21.4289  21.4757  21.5188  21.5394  21.5403  21.6832  21.6873
    21.7450  21.8017  21.8051  21.8852  21.9706  22.0136  22.0727  22.0741
    22.0975  22.1110  22.2015  22.2311  22.2354  22.2528  22.2907  22.3616
    22.3785  22.4319  22.4867  22.5382  22.5386  22.5757  22.6286  22.6662
    22.6992  22.7882  22.7934  22.8328  22.8672  22.9188  22.9525  23.0015
    23.0363  23.0852  23.1604  23.1778  23.2008  23.2236  23.2808  23.2984
    23.3750  23.3780  23.4137  23.4791  23.5281  23.6344  23.6915  23.7000
    23.7448  23.8193  23.8379  23.9037  23.9433  24.0164  24.0488  24.1002
    24.1082  24.1512  24.1699  24.2593  24.2811  24.2867  24.3254  24.3804
    24.4115  24.4127  24.4758  24.5386  24.5509  24.5593  24.6349  24.6720
    24.6865  24.7628  24.8608  24.8609  24.9001  24.9507  25.0089  25.0399
    25.0463  25.0931  25.1408  25.1476  25.2241  25.2251  25.2730  25.2869
    25.3393  25.3883  25.4436  25.4636  25.5117  25.5751  25.5811  25.6303
    25.7031  25.7261  25.7398  25.7653  25.8122  25.9067  25.9414  26.0167
    26.0252  26.0475  26.0925  26.1227  26.1795  26.2253  26.2282  26.2742
    26.3067  26.3503  26.3630  26.4184  26.4487  26.4488  26.4890  26.5007
    26.5581  26.5772  26.6349  26.6475  26.6695  26.6890  26.7104  26.7405
    26.7868  26.8640  26.8806  26.9352  26.9633  26.9775  27.0099  27.0477
    27.1406  27.1446  27.1606  27.2108  27.2323  27.2978  27.3263  27.3510
    27.4110  27.4340  27.4599  27.4936  27.5199  27.5390  27.5909  27.6054
    27.6911  27.6959  27.7588

          k = 0.0000-0.4976 0.0000 ( 43712 PWs)   bands (ev):

   -53.8066 -53.7883 -53.7448 -53.7408 -53.7320 -53.7237 -53.7212 -53.6865
   -53.6672 -53.6659 -53.6327 -53.6317 -53.6295 -53.6157 -53.6126 -53.6111
   -53.5897 -53.5825 -53.5558 -53.5385 -53.5336 -53.5130 -53.5066 -53.5003
   -53.4903 -53.4865 -53.4842 -53.4756 -53.4228 -53.4007 -53.3992 -53.3971
   -53.3919 -53.3802 -53.3731 -53.3513 -53.2951 -53.2542 -53.2473 -53.2469
   -53.2398 -53.0653 -52.9978 -52.9901 -52.8871 -52.7961 -52.7925 -52.5429
   -21.8854 -19.2286 -19.1873 -18.9517 -18.9004 -18.7199 -18.6013 -18.5275
   -18.4972 -18.4399 -18.4202 -18.3903 -18.3644 -18.2705 -18.2599 -18.2231
   -18.1765 -18.0691 -18.0315 -18.0148 -17.9919 -17.9488 -17.9378 -17.8969
   -17.8891 -17.8582 -17.8327 -17.7257 -17.6261 -16.7855 -16.6845 -16.6750
   -16.6007 -15.6731  -8.0719  -7.9958  -7.3925  -7.3460  -7.2641  -7.2588
    -7.2107  -7.2025  -7.1620  -7.1543  -7.1291  -7.0386  -7.0200  -6.9501
    -6.9420  -6.9287  -6.9111  -6.8809  -6.8778  -6.8435  -6.8249  -6.7964
    -6.7927  -6.7472  -6.7377  -6.6926  -6.5875  -6.5684  -6.5426  -6.4974
    -6.3566  -6.3494  -6.0305  -5.7096  -5.6952  -5.6806  -5.6240  -5.6126
    -5.5953  -5.5405  -5.4952  -5.4756  -5.0818  -4.9508  -4.9178  -4.8713
    -4.8340  -4.8065  -4.7509  -4.7227  -4.7077  -4.6935  -4.6255  -4.4570
    -4.4439  -4.4137  -4.3824  -4.3621  -4.3021  -4.2860  -4.2652  -4.2535
    -4.2003  -4.1340  -3.9956  -3.9687  -3.9029  -3.8705  -3.7947  -3.7650
    -3.7315  -3.6904  -3.6735  -3.5569  -3.4811  -3.4059  -3.2628  -3.2138
    -3.2010  -2.9985  -2.9451  -2.8970  -2.8875  -2.6756  -2.6600  -2.6246
    -2.6143  -2.5759  -2.5544  -2.5334  -2.4961  -2.3630  -2.3330  -2.3015
    -2.2964  -2.2748  -2.2038  -2.1411  -2.1310  -2.0815  -2.0495  -2.0399
    -2.0077  -1.9960  -1.9673  -1.9076  -1.8806  -1.8234  -1.8051  -1.7535
    -1.7378  -1.6996  -1.6459  -1.6254  -1.5981  -1.5707  -1.5225  -1.5018
    -1.4758  -1.4262  -1.3991  -1.3588  -1.3443  -1.3231  -1.2979  -1.2607
    -1.2400  -1.2106  -0.7845  -0.7404  -0.7206  -0.6651  -0.4292  -0.3147
    -0.2229  -0.1217  -0.0929   0.1252   0.1630   0.1721   0.2308   0.2375
     0.3295   0.4234   0.4353   0.4794   0.5019   0.5456   0.6613   0.7435
     0.7610   0.7697   0.7868   0.8509   0.8517   1.1469   1.1508   1.3710
     1.8422   2.2057   2.2619   2.2855   2.8559   3.1249   3.1616   3.1659
     3.1990   3.3182   3.3613   3.4613   3.5361   3.6389   3.6591   3.6970
     3.7278   3.9383   3.9485   3.9891   4.0435   4.0532   4.0950   4.9997
     5.5627   5.7455   6.4422   6.6350   6.6859   6.7835   7.0273   7.1092
     7.1537   7.2716   7.4583   7.6021   7.6915   7.7124   7.7640   8.0568
     8.3462   8.4106   8.4899   8.7308   9.0758   9.1417   9.3666   9.3854
     9.4041   9.4699   9.5771   9.6703   9.7561   9.8792   9.9464   9.9937
    10.0444  10.0744  10.1054  10.1389  10.2511  10.2978  10.3681  10.3762
    10.4245  10.4584  10.4730  10.5310  10.5470  10.5754  10.5784  10.6243
    10.6919  10.6932  10.7704  10.7947  10.8512  10.9001  10.9293  10.9667
    10.9795  10.9993  11.0692  11.1426  11.1475  11.3745  11.3752  11.4359
    11.6293  11.6581  11.6947  11.7538  11.8072  11.9905  12.1441  12.2153
    12.3350  12.3764  12.4167  12.5288  12.6540  12.7035  12.7386  12.8320
    12.9154  13.1717  13.2208  13.3023  13.3227  13.3516  13.4139  13.4535
    13.5192  13.5314  13.5777  13.6278  13.7323  13.7600  13.8113  13.8893
    13.9097  14.0316  14.0922  14.1090  14.1470  14.1702  14.2759  14.3067
    14.3919  14.4115  14.4133  14.5079  14.5445  14.5530  14.5589  14.5869
    14.6470  14.7209  14.8221  14.8592  14.8802  14.9271  15.1028  15.1521
    15.1812  15.1985  15.2475  15.2494  15.3887  15.4103  15.5331  15.5558
    15.6836  15.7224  15.7513  15.7971  15.8588  15.8647  15.9363  16.0066
    16.0799  16.0841  16.1185  16.1448  16.2450  16.3135  16.3665  16.4180
    16.5075  16.5381  16.5970  16.6311  16.7551  16.8217  16.8693  16.9300
    16.9598  17.0470  17.0552  17.1718  17.2234  17.2320  17.2580  17.3243
    17.3819  17.3904  17.3991  17.4250  17.4512  17.5319  17.5728  17.5934
    17.6637  17.7123  17.7478  17.7708  17.8030  17.8152  17.8659  18.0040
    18.0193  18.0375  18.0502  18.0867  18.1097  18.1383  18.1446  18.1719
    18.2365  18.2439  18.2540  18.3282  18.3552  18.3559  18.4177  18.4507
    18.4697  18.4727  18.4837  18.4995  18.5025  18.5253  18.5303  18.5330
    18.5501  18.5660  18.6172  18.6202  18.6402  18.6666  18.6809  18.7548
    18.7700  18.7931  18.8243  18.8303  18.8798  18.9179  18.9579  19.0246
    19.0544  19.0955  19.1656  19.1842  19.2221  19.2384  19.2683  19.3095
    19.3781  19.3798  19.3927  19.4718  19.4750  19.5681  19.5975  19.6591
    19.8273  19.8995  19.9009  19.9220  20.0608  20.0729  20.0884  20.1197
    20.1486  20.1646  20.2458  20.2532  20.3418  20.3856  20.3999  20.5306
    20.5454  20.5737  20.6267  20.6495  20.6923  20.7716  20.8089  20.8262
    20.9139  20.9608  21.0407  21.0507  21.1045  21.1528  21.1564  21.1889
    21.3016  21.3389  21.3644  21.4065  21.4215  21.4276  21.5305  21.5363
    21.5555  21.6083  21.6129  21.6526  21.6996  21.7262  21.8387  21.8767
    21.8868  21.8886  21.9677  21.9824  22.0211  22.0336  22.0958  22.1007
    22.1251  22.1837  22.2860  22.3560  22.3767  22.3846  22.3907  22.3913
    22.4553  22.5236  22.5618  22.5742  22.5994  22.6276  22.6514  22.6941
    22.7693  22.8825  22.8875  22.9363  22.9654  23.0003  23.0628  23.1200
    23.1797  23.2322  23.2883  23.3329  23.3637  23.4105  23.4397  23.4568
    23.4827  23.5303  23.5419  23.6241  23.7888  23.8234  23.9057  24.0306
    24.0476  24.1349  24.1463  24.2401  24.2523  24.2840  24.3135  24.3893
    24.4303  24.4397  24.4878  24.5355  24.5607  24.6600  24.6844  24.7437
    24.7800  24.7881  24.8142  24.8562  24.9148  24.9647  24.9996  25.0392
    25.0890  25.1595  25.2655  25.2688  25.2711  25.3387  25.3460  25.4400
    25.4801  25.5155  25.6106  25.6459  25.7661  25.7668  25.8138  25.8590
    25.8855  25.9593  26.0141  26.0735  26.1071  26.1435  26.1504  26.1830
    26.2253  26.2597  26.2904  26.3102  26.3302  26.3610  26.3697  26.4559
    26.4642  26.4786  26.4939  26.6170  26.6804  26.7528  26.7550  26.7695
    26.8067  26.8109  26.8758  26.9736  27.0043  27.0341  27.0593  27.1981
    27.1985  27.2463  27.2812  27.3024  27.3524  27.3742  27.5466  27.5581
    27.6312  27.7120  27.7135  27.7661  27.7724  27.8195  27.8457  27.8863
    27.9267  27.9816  28.0461  28.0722  28.1121  28.1909  28.2180  28.2543
    28.3185  28.3424  28.3505

          k = 0.2500 0.0000 0.0000 ( 43773 PWs)   bands (ev):

   -53.7996 -53.7805 -53.7517 -53.7397 -53.7329 -53.7230 -53.7133 -53.6944
   -53.6751 -53.6579 -53.6323 -53.6316 -53.6298 -53.6193 -53.6157 -53.6124
   -53.5897 -53.5825 -53.5476 -53.5401 -53.5349 -53.5135 -53.5084 -53.5045
   -53.4904 -53.4872 -53.4837 -53.4766 -53.4221 -53.3991 -53.3981 -53.3975
   -53.3930 -53.3791 -53.3741 -53.3432 -53.3033 -53.2531 -53.2479 -53.2462
   -53.2409 -53.0659 -52.9965 -52.9912 -52.8871 -52.7957 -52.7930 -52.5429
   -21.8859 -19.4388 -19.2062 -18.9983 -18.8511 -18.7927 -18.6838 -18.5675
   -18.5187 -18.4469 -18.3312 -18.3095 -18.2907 -18.2400 -18.2138 -18.1926
   -18.1409 -18.0832 -18.0582 -18.0119 -17.9989 -17.9391 -17.8761 -17.8302
   -17.7982 -17.7799 -17.7350 -17.6829 -17.5653 -16.8118 -16.7329 -16.7035
   -16.6496 -15.6818  -8.3221  -8.2996  -8.2698  -7.9518  -7.8866  -7.8462
    -7.3805  -7.3261  -7.3006  -7.1858  -7.1482  -7.0556  -7.0250  -6.9936
    -6.9733  -6.9580  -6.9360  -6.8569  -6.8443  -6.8337  -6.7358  -6.7280
    -6.6158  -6.5888  -6.5274  -6.5006  -6.4245  -6.3228  -6.2365  -6.2092
    -6.1906  -6.1144  -6.0770  -6.0491  -5.9894  -5.9558  -5.8908  -5.8068
    -5.6506  -5.5458  -5.4287  -5.4218  -5.0708  -4.9894  -4.9152  -4.8106
    -4.7578  -4.7247  -4.6706  -4.6483  -4.5300  -4.5051  -4.4712  -4.4043
    -4.3346  -4.3066  -4.2545  -4.1980  -4.0708  -4.0701  -4.0468  -3.9882
    -3.9714  -3.9286  -3.9191  -3.8626  -3.7725  -3.7370  -3.7033  -3.6845
    -3.6291  -3.5099  -3.4833  -3.4241  -3.3622  -3.3065  -3.2501  -3.2137
    -3.1852  -3.0978  -3.0808  -3.0664  -3.0391  -3.0230  -3.0146  -2.9742
    -2.8709  -2.8063  -2.6919  -2.6264  -2.5581  -2.4870  -2.4653  -2.4450
    -2.4230  -2.4028  -2.3765  -2.2655  -2.2571  -2.2257  -2.1885  -2.1771
    -2.1312  -2.0730  -2.0657  -1.9782  -1.9348  -1.8691  -1.8332  -1.8120
    -1.7268  -1.6506  -1.5958  -1.5243  -1.4209  -1.3552  -1.2953  -1.2813
    -1.2665  -1.2593  -1.1567  -1.1524  -1.0649  -0.9482  -0.8281  -0.6521
    -0.5901  -0.4535  -0.4410  -0.4311  -0.4046  -0.3685  -0.2890  -0.2584
    -0.2242  -0.1153  -0.0763  -0.0420   0.0314   0.1233   0.1985   0.2411
     0.4183   0.4651   0.4899   0.5305   0.5358   0.5961   0.6668   0.6987
     0.8414   0.9117   1.1803   1.3694   1.5064   1.8073   1.8697   1.9074
     1.9545   2.0213   2.0869   2.2510   2.2833   2.3223   2.4153   2.5809
     2.6942   2.7294   2.7859   2.9306   3.2138   3.2237   3.2683   3.2832
     3.4275   3.4878   3.5310   3.5400   3.5996   3.7920   4.2405   5.0592
     5.2342   5.3849   5.8450   6.2785   6.4422   6.7727   6.9729   7.0725
     7.2437   7.6864   7.7871   8.1161   8.2058   8.3863   8.5118   8.5207
     8.7384   8.7630   8.9314   9.0648   9.0943   9.1390   9.3048   9.3845
     9.3897   9.4239   9.4464   9.5333   9.6528   9.7063   9.8280   9.9080
     9.9127   9.9602   9.9908  10.0298  10.0566  10.1576  10.2657  10.2933
    10.3225  10.4081  10.4740  10.5646  10.5674  10.5942  10.7569  10.8180
    10.8743  10.8820  10.9282  10.9931  10.9975  11.1003  11.1223  11.2240
    11.3583  11.3934  11.4640  11.5949  11.6172  11.6551  11.7082  11.7445
    11.7529  11.8029  11.9179  11.9910  12.0379  12.0503  12.0862  12.1226
    12.1926  12.2371  12.3186  12.4016  12.4239  12.4908  12.5754  12.6150
    12.6869  12.7213  12.7982  12.8239  12.8658  12.9247  13.0100  13.1236
    13.1551  13.2232  13.3360  13.3540  13.4584  13.5026  13.5232  13.5707
    13.6476  13.6597  13.7220  13.7934  13.8459  13.8695  13.9489  13.9987
    14.0529  14.0896  14.1791  14.2851  14.4070  14.4686  14.5334  14.5999
    14.6659  14.7035  14.7746  14.8140  14.8771  14.9338  14.9649  15.0174
    15.0580  15.1124  15.1612  15.2305  15.3002  15.3612  15.3852  15.4338
    15.4721  15.5005  15.5674  15.6435  15.6999  15.7681  15.7729  15.8294
    15.8330  15.8881  15.9262  15.9736  15.9870  16.0380  16.0785  16.1189
    16.1574  16.2047  16.2276  16.2600  16.2927  16.3430  16.4520  16.4734
    16.5021  16.6375  16.6498  16.7367  16.7870  16.8474  16.8658  16.9385
    16.9937  17.0427  17.1253  17.1946  17.2153  17.2362  17.3980  17.4261
    17.4751  17.5527  17.5658  17.6049  17.6229  17.7095  17.7370  17.7780
    17.8905  17.9008  18.0458  18.0899  18.1750  18.1890  18.2664  18.3589
    18.3867  18.4681  18.4728  18.4865  18.4895  18.4994  18.5087  18.5302
    18.5364  18.5673  18.5945  18.6025  18.6166  18.6353  18.7033  18.7675
    18.7852  18.8207  18.8461  18.8757  18.8976  18.9331  19.0702  19.0872
    19.1299  19.1537  19.1976  19.2259  19.2846  19.3274  19.3564  19.4159
    19.4255  19.6166  19.6690  19.6951  19.7738  19.9411  19.9878  20.0011
    20.0538  20.1100  20.1606  20.1894  20.2035  20.2328  20.2931  20.3307
    20.3745  20.4175  20.4740  20.5002  20.5167  20.5478  20.5983  20.6379
    20.6672  20.6958  20.7447  20.7634  20.7852  20.7970  20.8739  20.9295
    20.9440  21.0150  21.0314  21.0851  21.1078  21.1708  21.1765  21.2370
    21.2589  21.3095  21.3253  21.3764  21.3915  21.4272  21.4686  21.4909
    21.5141  21.5565  21.6174  21.6794  21.7190  21.7776  21.8067  21.8337
    21.8663  21.8920  21.9303  21.9380  21.9947  22.0212  22.0522  22.0791
    22.1064  22.1370  22.1934  22.1998  22.2733  22.3164  22.3325  22.3500
    22.4223  22.4508  22.4738  22.5066  22.5438  22.5806  22.6021  22.6209
    22.6942  22.7282  22.7382  22.7912  22.8088  22.8395  22.8825  22.9246
    22.9767  23.0180  23.0570  23.1087  23.1637  23.1875  23.2395  23.2705
    23.3429  23.4236  23.4313  23.4780  23.5152  23.5626  23.5944  23.6136
    23.6343  23.6876  23.7303  23.8087  23.8311  23.8896  24.0100  24.0248
    24.0623  24.0806  24.1413  24.1986  24.2151  24.2228  24.3261  24.3317
    24.3858  24.4126  24.4924  24.5465  24.5555  24.5927  24.6573  24.6866
    24.7180  24.8170  24.8486  24.8903  24.9401  24.9806  24.9936  25.0334
    25.0825  25.1194  25.1393  25.1831  25.2306  25.2704  25.2827  25.3560
    25.4284  25.4637  25.4717  25.4992  25.5302  25.5899  25.6320  25.6574
    25.6684  25.7017  25.7632  25.7782  25.8555  25.8902  25.9384  25.9618
    25.9984  26.0054  26.0794  26.1106  26.1407  26.1704  26.2198  26.2335
    26.2597  26.2700  26.3274  26.3868  26.4164  26.4581  26.4764  26.5253
    26.5528  26.5799  26.6014  26.6591  26.6710  26.7349  26.7565  26.7629
    26.7996  26.8480  26.8599  26.8790  26.9157  26.9395  26.9686  26.9928
    27.0468  27.0685  27.0902  27.1184  27.1769  27.2200  27.2724  27.2888
    27.3060  27.3579  27.3622  27.3767  27.4013  27.4750  27.4920  27.5263
    27.5559  27.5716  27.6189

          k = 0.2500 0.2488 0.0000 ( 43747 PWs)   bands (ev):

   -53.7997 -53.7806 -53.7517 -53.7397 -53.7329 -53.7231 -53.7133 -53.6944
   -53.6751 -53.6579 -53.6323 -53.6316 -53.6299 -53.6193 -53.6157 -53.6124
   -53.5897 -53.5825 -53.5477 -53.5390 -53.5347 -53.5133 -53.5083 -53.5053
   -53.4901 -53.4872 -53.4840 -53.4762 -53.4224 -53.3996 -53.3981 -53.3976
   -53.3930 -53.3791 -53.3741 -53.3432 -53.3033 -53.2531 -53.2479 -53.2462
   -53.2409 -53.0659 -52.9966 -52.9912 -52.8871 -52.7957 -52.7930 -52.5429
   -21.8856 -19.3358 -19.0964 -18.8911 -18.8630 -18.7292 -18.6377 -18.5738
   -18.5066 -18.4070 -18.3664 -18.3271 -18.2903 -18.2789 -18.2346 -18.2169
   -18.1548 -18.1106 -18.0700 -18.0465 -17.9997 -17.9479 -17.9090 -17.8835
   -17.8721 -17.8379 -17.8087 -17.7675 -17.6371 -16.8126 -16.7314 -16.7034
   -16.6461 -15.6775  -7.9304  -7.8783  -7.8662  -7.8482  -7.8070  -7.5031
    -7.2758  -7.2236  -7.1661  -7.1594  -7.1365  -7.0361  -6.9996  -6.9578
    -6.9444  -6.9344  -6.8835  -6.8662  -6.8416  -6.7725  -6.7626  -6.7430
    -6.7121  -6.6527  -6.5857  -6.5562  -6.4503  -6.4043  -6.2971  -6.2334
    -6.1921  -6.1373  -6.1230  -5.8857  -5.8692  -5.8247  -5.7104  -5.6389
    -5.5700  -5.5309  -5.4591  -5.4128  -5.1165  -4.9671  -4.9181  -4.8607
    -4.8020  -4.7602  -4.6989  -4.6492  -4.6056  -4.5652  -4.5423  -4.5154
    -4.4854  -4.4540  -4.3957  -4.3489  -4.3263  -4.2954  -4.2730  -4.2380
    -4.1982  -4.1665  -4.1209  -4.0725  -4.0309  -3.9614  -3.9161  -3.8470
    -3.7634  -3.7294  -3.6980  -3.6163  -3.5835  -3.5503  -3.4890  -3.4179
    -3.3925  -3.2967  -3.1788  -3.0332  -2.9486  -2.9016  -2.8745  -2.8655
    -2.8133  -2.7719  -2.6498  -2.5852  -2.5276  -2.4943  -2.4647  -2.4061
    -2.3861  -2.3549  -2.2797  -2.2379  -2.1941  -2.0771  -2.0139  -1.9822
    -1.9101  -1.8726  -1.7853  -1.7224  -1.6949  -1.6557  -1.6325  -1.5703
    -1.5078  -1.4810  -1.4317  -1.3949  -1.3667  -1.3373  -1.3107  -1.2941
    -1.2708  -1.2513  -1.1936  -1.1735  -1.1253  -1.0884  -1.0172  -0.9915
    -0.9330  -0.7408  -0.7095  -0.5645  -0.4636  -0.3926  -0.2805  -0.2678
    -0.1136   0.0174   0.0623   0.1332   0.2028   0.2413   0.2585   0.2750
     0.3368   0.3724   0.4809   0.5363   0.5536   0.6215   0.6506   0.6784
     0.7680   0.8462   1.0622   1.1233   1.2403   1.2782   1.3733   1.5227
     1.7363   2.0724   2.2592   2.3584   2.4900   2.5163   2.7275   2.8586
     2.9088   3.0981   3.1301   3.1442   3.2167   3.3319   3.3545   3.4658
     3.4945   3.5065   3.5873   3.6416   3.6950   3.8019   4.2171   5.0384
     5.4215   5.6086   6.0710   6.4933   6.6337   6.9508   7.0606   7.2555
     7.3737   7.6530   7.9220   7.9707   8.1498   8.2621   8.3238   8.4016
     8.4620   8.5417   8.6403   8.7202   8.7928   8.9030   8.9817   9.0425
     9.1367   9.2432   9.3546   9.4506   9.4855   9.5386   9.6311   9.7369
     9.8382   9.9522   9.9964  10.0320  10.0960  10.1456  10.1527  10.2332
    10.2959  10.3349  10.4062  10.4377  10.4865  10.6110  10.6867  10.7186
    10.7602  10.8328  10.8853  10.9695  11.0134  11.0454  11.1456  11.2828
    11.3409  11.4019  11.4375  11.5208  11.5784  11.6922  11.8302  11.8859
    11.9084  11.9401  12.0190  12.0834  12.1639  12.2124  12.2457  12.3108
    12.3875  12.4472  12.5263  12.6047  12.6776  12.7314  12.8248  12.9312
    12.9637  13.0242  13.0946  13.1169  13.2103  13.2979  13.3523  13.4451
    13.4997  13.5303  13.5637  13.5990  13.6582  13.7046  13.7809  13.8145
    13.8849  13.9068  13.9437  14.0621  14.0826  14.1349  14.1670  14.1900
    14.2445  14.2954  14.3154  14.3593  14.4369  14.4692  14.5246  14.5733
    14.6492  14.6881  14.7548  14.7852  14.8326  14.8714  14.9205  14.9379
    14.9758  15.0484  15.0643  15.1239  15.1980  15.2226  15.2981  15.3408
    15.3920  15.4275  15.5371  15.5835  15.6481  15.6797  15.7203  15.8496
    15.9238  16.0062  16.0594  16.0890  16.1352  16.1765  16.2041  16.2436
    16.3137  16.3908  16.4142  16.5478  16.5925  16.6445  16.6711  16.7357
    16.7978  16.8166  16.8636  16.9163  16.9824  17.0497  17.1117  17.1445
    17.1897  17.2107  17.2318  17.2888  17.3280  17.3589  17.3937  17.4444
    17.4861  17.5158  17.5627  17.6142  17.6529  17.6861  17.7328  17.7794
    17.8068  17.9184  17.9703  18.0040  18.0482  18.0901  18.1761  18.2103
    18.2849  18.3195  18.3516  18.3843  18.4062  18.4410  18.4656  18.4717
    18.4817  18.4962  18.5068  18.5278  18.5509  18.5740  18.5918  18.6081
    18.6252  18.6600  18.7129  18.7469  18.7746  18.7902  18.8362  18.8582
    18.8716  18.9067  18.9303  18.9845  19.0077  19.0561  19.0977  19.1387
    19.1765  19.2050  19.2314  19.2757  19.3233  19.3438  19.4002  19.4062
    19.4469  19.4685  19.4999  19.5489  19.5910  19.6422  19.6969  19.7152
    19.7993  19.8442  19.8911  19.9842  20.0296  20.0526  20.0875  20.1636
    20.2004  20.2343  20.2700  20.2970  20.3689  20.4244  20.4414  20.5097
    20.5628  20.5898  20.6398  20.6841  20.7236  20.7656  20.7915  20.8943
    20.9443  20.9748  21.0152  21.0514  21.1488  21.1872  21.2188  21.3239
    21.3500  21.4122  21.4596  21.5056  21.5363  21.6050  21.6340  21.6764
    21.7212  21.7989  21.8339  21.8744  21.9786  22.0500  22.0586  22.1381
    22.1715  22.2080  22.2685  22.3373  22.3583  22.4029  22.4513  22.4879
    22.5125  22.5514  22.5943  22.6319  22.6967  22.7209  22.7389  22.7563
    22.7981  22.8466  22.8933  22.9180  22.9482  22.9963  23.0062  23.0772
    23.1378  23.1554  23.2084  23.2564  23.2883  23.3473  23.4049  23.4384
    23.4882  23.5081  23.5742  23.6195  23.6552  23.6792  23.7417  23.7997
    23.8248  23.9094  23.9597  24.0138  24.0623  24.0899  24.1138  24.1594
    24.1876  24.2133  24.3152  24.3348  24.3856  24.4297  24.4752  24.5164
    24.5456  24.5742  24.6221  24.6545  24.7116  24.7385  24.7622  24.8346
    24.8520  24.8783  24.8989  24.9550  24.9957  25.0279  25.0665  25.1032
    25.1146  25.1808  25.2109  25.2586  25.3293  25.3630  25.3784  25.4230
    25.4431  25.4831  25.5242  25.5712  25.5960  25.6258  25.6374  25.6615
    25.6903  25.7142  25.7657  25.8130  25.8493  25.8984  25.9550  25.9757
    26.0222  26.0665  26.1004  26.1615  26.1830  26.2330  26.2655  26.2775
    26.3040  26.3312  26.3561  26.4241  26.4619  26.4829  26.5109  26.5604
    26.5996  26.6362  26.6536  26.6882  26.7218  26.7323  26.7617  26.8087
    26.8361  26.8716  26.9074  26.9391  26.9719  27.0194  27.0333  27.0909
    27.1082  27.1217  27.1538  27.1987  27.2259  27.2639  27.3167  27.3689
    27.3862  27.3975  27.4641  27.5397  27.5666  27.6157  27.6702  27.6818
    27.7155  27.7539  27.7979

          k = 0.2500-0.4976 0.0000 ( 43762 PWs)   bands (ev):

   -53.7997 -53.7807 -53.7517 -53.7397 -53.7329 -53.7231 -53.7134 -53.6945
   -53.6751 -53.6580 -53.6322 -53.6316 -53.6300 -53.6193 -53.6157 -53.6124
   -53.5897 -53.5824 -53.5479 -53.5378 -53.5344 -53.5131 -53.5081 -53.5063
   -53.4897 -53.4871 -53.4844 -53.4758 -53.4228 -53.4001 -53.3981 -53.3976
   -53.3930 -53.3791 -53.3741 -53.3431 -53.3033 -53.2531 -53.2479 -53.2462
   -53.2409 -53.0658 -52.9966 -52.9912 -52.8872 -52.7957 -52.7930 -52.5429
   -21.8853 -19.1178 -19.0728 -18.8457 -18.8022 -18.6247 -18.5289 -18.5099
   -18.4769 -18.4573 -18.4197 -18.4123 -18.3487 -18.3205 -18.2500 -18.2072
   -18.1976 -18.1318 -18.0969 -18.0726 -18.0067 -17.9970 -17.9604 -17.9498
   -17.9496 -17.9177 -17.8695 -17.7825 -17.6858 -16.8135 -16.7306 -16.7034
   -16.6431 -15.6733  -7.9279  -7.8483  -7.1938  -7.1406  -7.1019  -7.0760
    -7.0528  -7.0446  -7.0407  -6.9966  -6.9857  -6.9717  -6.9491  -6.9464
    -6.9309  -6.9140  -6.8774  -6.8680  -6.8321  -6.8247  -6.8081  -6.7872
    -6.7667  -6.7242  -6.7022  -6.6595  -6.6205  -6.3993  -6.3499  -6.2333
    -6.2235  -6.1890  -6.1629  -5.8359  -5.7403  -5.6577  -5.4625  -5.4416
    -5.4217  -5.4001  -5.3796  -5.3686  -5.3609  -5.3532  -5.2890  -5.2368
    -5.1800  -5.1721  -5.0388  -5.0202  -4.9606  -4.9412  -4.8581  -4.7865
    -4.5717  -4.5430  -4.5052  -4.4858  -4.3934  -4.3325  -4.3207  -4.2550
    -4.2522  -4.2246  -4.1897  -4.1386  -4.0769  -4.0298  -3.9574  -3.9102
    -3.8819  -3.8334  -3.7885  -3.7048  -3.6505  -3.6171  -3.5872  -3.5594
    -3.5169  -3.3834  -3.2562  -3.0053  -2.9450  -2.8687  -2.8198  -2.7660
    -2.7427  -2.5864  -2.5764  -2.4971  -2.4691  -2.3826  -2.3295  -2.2707
    -2.2442  -2.2315  -2.1694  -2.1546  -2.1101  -2.0854  -1.9314  -1.8866
    -1.8446  -1.8428  -1.7303  -1.7186  -1.6768  -1.6350  -1.6126  -1.5936
    -1.5681  -1.5524  -1.5382  -1.4648  -1.4128  -1.3824  -1.3033  -1.2826
    -1.2367  -1.2023  -1.0558  -1.0363  -1.0225  -0.9716  -0.9556  -0.8881
    -0.7641  -0.7580  -0.5578  -0.5148  -0.4675  -0.4428  -0.3281  -0.2857
    -0.2128  -0.1857   0.0330   0.0736   0.0990   0.1982   0.2346   0.2985
     0.3970   0.4164   0.4472   0.5021   0.5173   0.5683   0.5691   0.6309
     0.6894   0.7410   0.7642   0.8011   0.9380   1.1095   1.3736   1.5451
     2.0042   2.2272   2.2816   2.3689   2.5082   2.5202   2.6049   2.6757
     2.8309   3.1847   3.1966   3.3930   3.4589   3.4808   3.4989   3.5735
     3.5993   3.7784   3.8132   3.8774   3.9129   3.9363   3.9931   5.0409
     5.7728   5.9352   6.5950   6.9298   7.0072   7.0699   7.1563   7.2281
     7.3690   7.4112   7.5470   7.6243   7.8791   7.9703   8.0069   8.0739
     8.4882   8.5918   8.6420   8.6933   8.7753   8.8085   8.8945   8.9751
     9.0869   9.1429   9.2282   9.3212   9.3308   9.3994   9.5107   9.5583
     9.5879   9.6546   9.7406   9.8259  10.0218  10.0897  10.1221  10.2127
    10.2406  10.2786  10.3800  10.3841  10.5004  10.5447  10.7086  10.7265
    10.7420  10.7782  10.8186  10.8908  10.9838  11.0612  11.1141  11.1941
    11.2172  11.2542  11.3250  11.3941  11.4237  11.4851  11.6042  11.9631
    12.0418  12.0996  12.2304  12.3341  12.3918  12.4361  12.5749  12.6061
    12.6838  12.7209  12.7818  12.8518  12.9748  13.0344  13.1520  13.2363
    13.2674  13.3136  13.3637  13.3948  13.5076  13.5202  13.5716  13.6032
    13.6572  13.6922  13.7513  13.8185  13.8398  13.8653  13.9441  13.9993
    14.0692  14.1022  14.2231  14.2463  14.3034  14.3258  14.3874  14.4190
    14.4927  14.5049  14.5890  14.6421  14.6671  14.6753  14.7139  14.7500
    14.7957  14.8561  14.8855  14.9319  14.9511  15.0438  15.0643  15.1529
    15.2360  15.2863  15.3145  15.3496  15.3653  15.4130  15.4499  15.5010
    15.5647  15.6347  15.6702  15.7340  15.8020  15.8133  15.8397  15.8700
    15.8885  15.9910  16.0129  16.0728  16.1282  16.1390  16.1711  16.1941
    16.2563  16.3036  16.3827  16.4224  16.4352  16.4780  16.5437  16.5753
    16.5954  16.6465  16.6593  16.7021  16.7597  16.7801  16.8618  16.9508
    17.0066  17.0383  17.1162  17.1237  17.1852  17.2228  17.2726  17.3858
    17.4148  17.4622  17.4851  17.5060  17.5674  17.6562  17.6646  17.7546
    17.7877  17.8281  17.8732  17.9034  17.9653  18.0227  18.0458  18.0820
    18.0936  18.1038  18.1476  18.1598  18.1941  18.3129  18.3318  18.3696
    18.3877  18.4601  18.4706  18.4792  18.4987  18.5031  18.5131  18.5239
    18.5487  18.5526  18.5682  18.5852  18.6019  18.6103  18.6357  18.6517
    18.6541  18.7047  18.7652  18.7812  18.7957  18.8392  18.8434  18.9037
    18.9807  19.0248  19.0855  19.1482  19.2051  19.2329  19.2684  19.3138
    19.3548  19.3598  19.3828  19.4251  19.4586  19.5209  19.5363  19.6007
    19.6523  19.6603  19.7427  19.7582  19.8260  19.8299  19.9474  19.9511
    20.0143  20.0433  20.0826  20.1289  20.1497  20.1862  20.2761  20.3016
    20.3783  20.3903  20.4290  20.4788  20.5213  20.5866  20.6281  20.6518
    20.6856  20.7038  20.7456  20.8300  20.8525  20.8889  20.9168  21.0348
    21.0851  21.1341  21.2259  21.2608  21.2696  21.3427  21.3756  21.3972
    21.4795  21.5365  21.5791  21.6504  21.6883  21.7582  21.8475  21.8649
    21.9291  21.9816  22.0503  22.0813  22.1243  22.1652  22.1988  22.2400
    22.2696  22.3158  22.4001  22.4249  22.4671  22.5060  22.6075  22.6343
    22.7073  22.7416  22.7947  22.8108  22.8698  22.9032  22.9747  23.0066
    23.0547  23.1128  23.2255  23.2728  23.3375  23.3642  23.3768  23.4957
    23.5149  23.5453  23.6093  23.6203  23.6610  23.7081  23.7552  23.7997
    23.9190  23.9938  24.0484  24.0925  24.1515  24.1863  24.2731  24.2862
    24.3564  24.4193  24.4458  24.4772  24.5636  24.5735  24.6186  24.6206
    24.7369  24.7626  24.7869  24.8143  24.8555  24.8916  24.9283  24.9804
    25.0202  25.0523  25.0819  25.0986  25.1397  25.1517  25.1692  25.1888
    25.2058  25.2670  25.3264  25.3486  25.3837  25.4055  25.4457  25.4832
    25.5269  25.5669  25.5862  25.6125  25.6400  25.6659  25.7375  25.7780
    25.8351  25.8372  25.8908  25.9322  25.9357  26.0163  26.0305  26.0382
    26.0815  26.1051  26.1298  26.1606  26.1905  26.2184  26.2423  26.2979
    26.3292  26.3653  26.4077  26.4121  26.4565  26.5111  26.5250  26.5751
    26.5939  26.6300  26.6845  26.7328  26.7907  26.8398  26.8801  26.8976
    26.9147  26.9377  26.9943  27.0469  27.0753  27.1476  27.1835  27.2437
    27.2581  27.3033  27.3742  27.4170  27.4584  27.4791  27.5507  27.6055
    27.6982  27.7300  27.7753  27.8158  27.8409  27.8942  27.9065  27.9731
    28.0063  28.0545  28.1135

          k =-0.5000 0.0000 0.0000 ( 43760 PWs)   bands (ev):

   -53.7898 -53.7670 -53.7616 -53.7533 -53.7226 -53.7141 -53.7131 -53.6943
   -53.6943 -53.6386 -53.6386 -53.6316 -53.6311 -53.6311 -53.6157 -53.6124
   -53.5897 -53.5825 -53.5379 -53.5372 -53.5281 -53.5280 -53.5132 -53.5043
   -53.4892 -53.4885 -53.4838 -53.4768 -53.4220 -53.3984 -53.3982 -53.3957
   -53.3955 -53.3766 -53.3766 -53.3237 -53.3230 -53.2505 -53.2505 -53.2435
   -53.2435 -53.0665 -52.9940 -52.9936 -52.8871 -52.7949 -52.7938 -52.5429
   -21.8857 -19.1222 -19.0874 -18.9231 -18.8892 -18.7373 -18.7281 -18.6129
   -18.5800 -18.5718 -18.5162 -18.3511 -18.2873 -18.2015 -18.1755 -18.1258
   -18.1118 -18.0406 -17.9583 -17.9443 -17.9354 -17.9311 -17.9010 -17.8753
   -17.8725 -17.8446 -17.8393 -17.7236 -17.7120 -16.8271 -16.7907 -16.7139
   -16.7092 -15.6819  -7.8834  -7.8823  -7.8587  -7.8551  -7.8344  -7.8338
    -7.5772  -7.5507  -7.5103  -7.4702  -7.4693  -7.4458  -7.1524  -6.9106
    -6.8572  -6.8208  -6.8039  -6.7872  -6.7594  -6.7131  -6.7042  -6.5611
    -6.5595  -6.5382  -6.5295  -6.4678  -6.3600  -6.3486  -6.3254  -6.0206
    -5.9496  -5.9128  -5.8936  -5.7767  -5.6875  -5.6629  -5.5918  -5.5847
    -5.3664  -5.3450  -5.2234  -5.1754  -5.1502  -5.1441  -5.1439  -5.1083
    -5.1024  -5.0520  -4.9866  -4.9646  -4.8076  -4.6542  -4.6475  -4.5879
    -4.5506  -4.5180  -4.4017  -4.2859  -4.2535  -4.2240  -4.1442  -4.0980
    -4.0726  -3.9986  -3.9866  -3.9648  -3.9251  -3.9121  -3.9107  -3.8838
    -3.8173  -3.7231  -3.6917  -3.6571  -3.6175  -3.5879  -3.4159  -3.3800
    -3.3404  -3.3108  -3.3023  -3.3000  -3.2011  -3.1829  -3.0138  -2.8533
    -2.8287  -2.7911  -2.6665  -2.6035  -2.5841  -2.5716  -2.5500  -2.4969
    -2.4522  -2.4388  -2.3979  -2.2874  -2.1535  -2.1323  -2.1020  -2.0900
    -2.0550  -2.0545  -2.0048  -1.8575  -1.7863  -1.7693  -1.5618  -1.5585
    -1.5506  -1.3525  -1.3158  -1.3052  -1.2201  -1.2145  -1.1580  -1.1020
    -1.0940  -0.9941  -0.9808  -0.8041  -0.7920  -0.6786  -0.6456  -0.4721
    -0.3685  -0.3489  -0.3196  -0.2979  -0.2725  -0.2270  -0.2203  -0.1957
    -0.1844  -0.1403  -0.0846  -0.0079   0.0008   0.0131   0.1082   0.1409
     0.2742   0.3122   0.4194   0.4208   0.4437   0.5664   0.5701   0.7515
     0.7582   0.9470   1.5866   1.6585   1.8792   1.9996   2.1001   2.2911
     2.3003   2.3170   2.3677   2.4083   2.4657   2.4825   2.5234   2.5375
     2.5635   2.5713   2.6155   2.6391   2.6901   2.6903   2.7670   2.8070
     2.8735   2.8917   3.2057   3.5131   3.7146   3.7976   3.8339   5.0926
     6.0060   6.0679   6.0679   6.1858   6.7776   6.7786   6.9825   7.0208
     7.1897   7.3416   7.5237   7.6200   7.7688   7.7743   8.0986   8.3316
     8.3975   8.5212   8.9610   9.0097   9.0549   9.1645   9.2973   9.3504
     9.4502   9.5024   9.6958   9.7076   9.8610   9.9401  10.0165  10.0249
    10.0632  10.1451  10.2218  10.3775  10.3804  10.4760  10.5256  10.5281
    10.5569  10.5782  10.6259  10.6711  10.7025  10.7472  10.7921  10.7940
    10.8477  10.8761  10.9489  11.0016  11.0187  11.0286  11.0727  11.1145
    11.1355  11.1576  11.2721  11.3581  11.3668  11.3938  11.5038  11.5042
    11.6163  11.6796  11.7755  11.7855  11.8203  11.8569  12.0072  12.2042
    12.3164  12.3663  12.3992  12.4076  12.4141  12.4339  12.6431  12.6915
    12.9078  12.9198  12.9814  12.9899  13.1313  13.2458  13.3023  13.3248
    13.3957  13.4188  13.4991  13.5399  13.5911  13.5927  13.6858  13.7595
    13.8000  13.8531  14.0075  14.0661  14.1024  14.1494  14.1693  14.1967
    14.2571  14.2692  14.3451  14.3899  14.4327  14.4432  14.4769  14.5087
    14.6275  14.6357  14.6664  14.7168  14.7962  14.8031  14.8965  14.9826
    15.0685  15.0963  15.1971  15.2035  15.2792  15.3007  15.3029  15.3500
    15.3706  15.3906  15.4674  15.4896  15.5679  15.5683  15.6183  15.6724
    15.7077  15.7601  15.7843  15.8081  15.8238  15.8748  15.9270  15.9851
    16.1015  16.1235  16.1860  16.3564  16.3675  16.4620  16.5596  16.6066
    16.6651  16.6784  16.7252  16.7800  16.8656  16.9029  16.9813  17.0962
    17.1291  17.1645  17.2935  17.3867  17.4978  17.5027  17.5297  17.6238
    17.6934  17.7517  17.7961  17.8107  17.8205  17.8484  17.8788  17.8846
    17.9477  17.9696  18.0404  18.0927  18.1182  18.1781  18.2263  18.2267
    18.3041  18.3234  18.3643  18.3898  18.4503  18.4682  18.4770  18.4922
    18.5007  18.5055  18.5197  18.5346  18.5362  18.5603  18.5731  18.6031
    18.6111  18.6420  18.6489  18.7006  18.7042  18.7977  18.8005  18.9402
    18.9642  19.0346  19.1131  19.1739  19.1904  19.2008  19.2221  19.2479
    19.2614  19.3221  19.3466  19.3791  19.3818  19.4305  19.5067  19.5559
    19.6036  19.6144  19.6450  19.8077  20.0050  20.0670  20.1066  20.1218
    20.2778  20.2780  20.3067  20.3809  20.4236  20.4317  20.4505  20.4960
    20.5031  20.5361  20.5982  20.6065  20.6647  20.7399  20.7857  20.8041
    20.8137  20.9152  20.9956  21.0249  21.0492  21.0762  21.1045  21.1236
    21.1594  21.1902  21.2401  21.2906  21.3073  21.3119  21.3335  21.3865
    21.4195  21.4501  21.4823  21.5135  21.5420  21.6057  21.6071  21.6589
    21.6692  21.6785  21.7590  21.7972  21.8702  21.8896  21.9350  21.9741
    22.0142  22.0201  22.0612  22.0739  22.0944  22.1705  22.2011  22.2285
    22.2655  22.2698  22.3634  22.4007  22.4428  22.4915  22.5043  22.5375
    22.5881  22.6334  22.6412  22.6635  22.7195  22.7519  22.8215  22.8218
    22.8649  22.8860  22.9032  22.9774  22.9819  23.0542  23.1266  23.1852
    23.1927  23.2022  23.2552  23.3255  23.3603  23.4123  23.4714  23.4756
    23.4759  23.5660  23.5989  23.7162  23.8041  23.8365  23.9595  23.9924
    24.0424  24.0618  24.1095  24.1610  24.2047  24.2533  24.2692  24.3439
    24.3526  24.3597  24.4223  24.4642  24.4867  24.5552  24.5909  24.6081
    24.6844  24.7266  24.8797  24.8830  24.8859  24.9114  25.0243  25.1486
    25.2546  25.2549  25.3129  25.3227  25.3636  25.4408  25.4458  25.4694
    25.5517  25.5985  25.6169  25.6682  25.6773  25.6897  25.6940  25.7142
    25.7260  25.8083  25.8503  25.8570  25.9217  25.9330  25.9510  25.9870
    26.0098  26.0220  26.0488  26.1192  26.1320  26.1813  26.1994  26.2743
    26.2971  26.3314  26.3675  26.4555  26.5012  26.5050  26.5894  26.6022
    26.6302  26.6409  26.7451  26.7738  26.8345  26.8432  26.9549  26.9696
    26.9759  26.9910  27.0400  27.0561  27.1427  27.2476  27.3167  27.3763
    27.3856  27.4486  27.5133  27.5586  27.5935  27.6882  27.7128  27.7412
    27.7850  27.7897  27.8155  27.8357  27.9412  27.9787  28.0185  28.0459
    28.0563  28.1068  28.2115

          k =-0.5000 0.2488 0.0000 ( 43812 PWs)   bands (ev):

   -53.7898 -53.7670 -53.7617 -53.7534 -53.7226 -53.7141 -53.7132 -53.6943
   -53.6943 -53.6387 -53.6386 -53.6316 -53.6311 -53.6311 -53.6157 -53.6124
   -53.5897 -53.5825 -53.5370 -53.5367 -53.5284 -53.5281 -53.5127 -53.5051
   -53.4889 -53.4885 -53.4843 -53.4764 -53.4224 -53.3987 -53.3986 -53.3957
   -53.3955 -53.3767 -53.3766 -53.3237 -53.3230 -53.2505 -53.2505 -53.2435
   -53.2435 -53.0665 -52.9941 -52.9937 -52.8871 -52.7949 -52.7938 -52.5429
   -21.8854 -19.0386 -18.9972 -18.8330 -18.7914 -18.6423 -18.6340 -18.6298
   -18.5768 -18.5087 -18.4881 -18.3874 -18.3130 -18.2136 -18.2110 -18.1388
   -18.1336 -18.0804 -18.0207 -18.0032 -18.0012 -17.9880 -17.9606 -17.9537
   -17.9370 -17.9005 -17.8894 -17.7943 -17.7567 -16.8252 -16.7925 -16.7124
   -16.7077 -15.6776  -7.5862  -7.5597  -7.5425  -7.5352  -7.5071  -7.5048
    -7.4854  -7.4820  -7.4756  -7.4508  -7.2212  -7.1822  -7.1309  -6.8720
    -6.7957  -6.7851  -6.7792  -6.6825  -6.6786  -6.5833  -6.5796  -6.5437
    -6.5343  -6.4492  -6.4345  -6.4087  -6.3966  -6.3081  -6.2416  -6.0200
    -5.9900  -5.9843  -5.9467  -5.8044  -5.7709  -5.7387  -5.6662  -5.6542
    -5.6167  -5.6158  -5.5332  -5.5215  -5.4356  -5.4060  -5.3675  -5.3234
    -5.3177  -5.3083  -4.9738  -4.8866  -4.8212  -4.7331  -4.7106  -4.6153
    -4.5128  -4.4203  -4.3710  -4.3244  -4.2924  -4.2348  -4.2250  -4.1686
    -4.1485  -4.1120  -4.0775  -4.0628  -4.0376  -4.0341  -4.0139  -3.9950
    -3.9235  -3.9196  -3.8666  -3.7952  -3.7729  -3.6263  -3.5975  -3.5769
    -3.5259  -3.3899  -3.3229  -3.2600  -3.2244  -3.1707  -3.1425  -3.1146
    -3.0655  -2.9728  -2.8653  -2.7310  -2.6456  -2.5933  -2.5779  -2.5303
    -2.4667  -2.4238  -2.3360  -2.3240  -2.2180  -2.0005  -1.7181  -1.6125
    -1.6005  -1.5703  -1.5540  -1.5478  -1.5172  -1.4901  -1.4132  -1.4062
    -1.3498  -1.3469  -1.2999  -1.2792  -1.2662  -1.2024  -1.1422  -1.1330
    -1.1039  -1.0879  -0.9625  -0.8779  -0.7760  -0.7049  -0.5424  -0.4909
    -0.4395  -0.3887  -0.3621  -0.2845  -0.2840  -0.2557  -0.2375  -0.2035
    -0.1995  -0.1096  -0.0868  -0.0282   0.0153   0.0565   0.0598   0.0818
     0.1925   0.2248   0.2971   0.3355   0.4130   0.4398   0.4506   0.8726
     0.8830   0.9516   1.7268   1.7423   1.7913   1.8540   1.8600   1.8733
     1.9203   1.9540   1.9946   2.0232   2.0594   2.0768   2.3574   2.6716
     2.7329   2.7885   2.8004   2.8244   2.9929   3.0143   3.1006   3.1973
     3.2393   3.2934   3.3972   3.6059   3.7850   3.9089   3.9520   5.0788
     6.1339   6.1857   6.1861   6.3280   7.0025   7.0567   7.2289   7.2306
     7.4015   7.5575   7.7157   7.8251   7.9334   7.9830   8.1434   8.2973
     8.4975   8.5196   8.5947   8.6751   8.7924   8.8459   8.8754   8.9470
     9.0832   9.1055   9.2234   9.2834   9.2952   9.3561   9.5458   9.5747
     9.6535   9.7469   9.7587   9.9131  10.0410  10.1641  10.2086  10.2200
    10.2994  10.5058  10.5441  10.5664  10.7297  10.7678  10.7768  10.8287
    10.9170  10.9412  10.9870  11.0262  11.0964  11.1286  11.1464  11.1893
    11.3235  11.4086  11.4233  11.4287  11.5283  11.8091  11.8123  11.9612
    11.9654  12.0800  12.2367  12.3111  12.4619  12.4819  12.5603  12.5737
    12.6066  12.6813  12.7081  12.7175  12.8388  12.8544  12.9321  12.9764
    12.9846  13.0693  13.1592  13.1723  13.2036  13.3631  13.4045  13.4439
    13.5461  13.6170  13.6722  13.7547  13.7636  13.8207  14.0041  14.0143
    14.0860  14.0878  14.1076  14.1558  14.2921  14.3554  14.3865  14.4536
    14.5119  14.5398  14.5695  14.5958  14.6851  14.7093  14.7880  14.7994
    14.9105  14.9121  15.0044  15.0088  15.0515  15.0836  15.1194  15.1557
    15.1752  15.1969  15.2854  15.2961  15.3384  15.3634  15.3882  15.4200
    15.4558  15.4587  15.5487  15.5566  15.5991  15.6289  15.6588  15.6901
    15.7253  15.7417  15.7829  15.7934  15.8273  15.9145  15.9516  15.9864
    16.0052  16.0652  16.1227  16.1264  16.1703  16.2058  16.2569  16.2695
    16.4518  16.4915  16.5720  16.5836  16.6745  16.7459  16.8141  16.8533
    16.8889  16.9534  16.9604  16.9902  17.0648  17.0648  17.1819  17.1907
    17.2380  17.3217  17.4477  17.5014  17.6661  17.7022  17.7624  17.8230
    17.8775  17.8906  17.9464  17.9779  18.0943  18.1166  18.1617  18.1692
    18.1997  18.2228  18.2921  18.2971  18.3382  18.3921  18.4508  18.4634
    18.4710  18.4800  18.4831  18.4980  18.5047  18.5437  18.5535  18.5648
    18.5947  18.5961  18.6056  18.6460  18.6948  18.7006  18.7204  18.7813
    18.8057  18.8183  18.8667  18.9475  18.9481  18.9856  19.0380  19.0599
    19.0711  19.0963  19.1805  19.1907  19.2174  19.3220  19.3468  19.3710
    19.4111  19.4407  19.4773  19.5076  19.5388  19.5558  19.6088  19.6142
    19.6796  19.7374  19.7888  19.8578  19.8773  19.9484  19.9846  20.0581
    20.0937  20.1228  20.1783  20.2224  20.3237  20.3315  20.4106  20.4231
    20.4599  20.4729  20.5057  20.6088  20.6274  20.6806  20.7392  20.7975
    20.8431  20.8526  20.9325  20.9525  21.0265  21.0503  21.1101  21.1184
    21.1855  21.2504  21.2840  21.3025  21.4055  21.4075  21.4493  21.5286
    21.5856  21.6559  21.6949  21.8129  21.8885  21.9485  21.9583  22.0080
    22.0480  22.0891  22.1617  22.2149  22.2362  22.2732  22.2983  22.3490
    22.4314  22.5066  22.5665  22.5890  22.6374  22.6876  22.7238  22.7645
    22.8211  22.8484  22.8991  22.9313  22.9372  22.9798  23.0699  23.0870
    23.1662  23.2008  23.2502  23.2903  23.3397  23.3796  23.4844  23.5035
    23.5721  23.5971  23.6474  23.6758  23.7202  23.7771  23.7968  23.8072
    23.8715  23.8738  23.9350  23.9803  24.0844  24.0894  24.1470  24.1472
    24.2453  24.2596  24.3685  24.4493  24.4871  24.5043  24.6403  24.6520
    24.6857  24.7282  24.7843  24.8333  24.8526  24.8734  24.8836  24.9383
    24.9851  24.9884  25.0761  25.1186  25.1271  25.1358  25.1867  25.1940
    25.2430  25.2703  25.3467  25.3648  25.4080  25.4377  25.4607  25.4639
    25.5271  25.5327  25.5806  25.6272  25.6335  25.6730  25.6962  25.7028
    25.7358  25.7706  25.7984  25.8080  25.8476  25.8511  25.8798  25.9261
    25.9468  26.0120  26.0329  26.0762  26.1073  26.1106  26.1888  26.2054
    26.2248  26.2897  26.3324  26.3419  26.3999  26.4096  26.4660  26.4691
    26.5201  26.5451  26.5797  26.6031  26.6603  26.6710  26.6900  26.7380
    26.8096  26.8216  26.8870  26.9116  27.0009  27.0225  27.0744  27.0913
    27.1119  27.1914  27.3191  27.3202  27.3743  27.4264  27.4841  27.5293
    27.5523  27.6214  27.6225  27.6544  27.6876  27.7231  27.7714  27.8144
    27.8234  27.8431  27.9715

          k =-0.5000-0.4976 0.0000 ( 43684 PWs)   bands (ev):

   -53.7898 -53.7670 -53.7617 -53.7534 -53.7227 -53.7142 -53.7132 -53.6943
   -53.6943 -53.6387 -53.6386 -53.6316 -53.6311 -53.6311 -53.6157 -53.6124
   -53.5897 -53.5824 -53.5362 -53.5361 -53.5287 -53.5282 -53.5122 -53.5060
   -53.4885 -53.4884 -53.4847 -53.4759 -53.4227 -53.3989 -53.3989 -53.3957
   -53.3955 -53.3766 -53.3766 -53.3236 -53.3229 -53.2505 -53.2505 -53.2435
   -53.2435 -53.0664 -52.9941 -52.9937 -52.8872 -52.7949 -52.7938 -52.5429
   -21.8851 -18.8891 -18.7925 -18.7793 -18.7720 -18.5951 -18.5839 -18.5790
   -18.4976 -18.3995 -18.3973 -18.3509 -18.3348 -18.3129 -18.2931 -18.2366
   -18.2338 -18.1329 -18.1249 -18.0947 -18.0845 -18.0673 -18.0210 -18.0049
   -17.9951 -17.9330 -17.9037 -17.8503 -17.7832 -16.8234 -16.7944 -16.7110
   -16.7063 -15.6734  -7.5756  -7.5432  -7.4849  -7.4542  -7.1332  -7.0011
    -6.9958  -6.9529  -6.9476  -6.9264  -6.8937  -6.8934  -6.8409  -6.7776
    -6.7725  -6.7044  -6.6614  -6.5501  -6.5470  -6.4866  -6.4827  -6.4547
    -6.4513  -6.4483  -6.4451  -6.3657  -6.3652  -6.2813  -6.2059  -6.1879
    -6.1793  -6.1495  -6.0914  -6.0806  -6.0760  -6.0252  -5.9354  -5.8949
    -5.8939  -5.8580  -5.8508  -5.8068  -5.4997  -5.4527  -5.4076  -5.3780
    -5.1191  -5.0527  -5.0074  -4.9308  -4.8086  -4.7802  -4.7745  -4.7586
    -4.7327  -4.7190  -4.6583  -4.6347  -4.6135  -4.5784  -4.5704  -4.5675
    -4.5220  -4.5063  -4.4725  -4.3157  -4.2562  -4.1640  -4.1429  -4.1229
    -4.1026  -4.0574  -4.0100  -3.9624  -3.7531  -3.6843  -3.6123  -3.5892
    -3.5587  -3.1029  -3.0846  -3.0725  -2.9812  -2.9694  -2.9589  -2.8947
    -2.8929  -2.7639  -2.7631  -2.7065  -2.6975  -2.6640  -2.6351  -2.5415
    -2.4916  -2.4232  -2.2989  -2.2938  -2.2387  -1.9777  -1.5855  -1.5449
    -1.5413  -1.4602  -1.4489  -1.4016  -1.3910  -1.3712  -1.2964  -1.2926
    -1.2867  -1.2630  -1.2033  -1.1814  -1.1666  -1.1300  -1.0954  -1.0129
    -1.0037  -0.9471  -0.9135  -0.8815  -0.8664  -0.7569  -0.4849  -0.4762
    -0.4233  -0.4187  -0.4012  -0.2760  -0.2261  -0.1798  -0.1770  -0.1640
    -0.1608  -0.0653  -0.0273   0.0060   0.0062   0.0372   0.0914   0.1052
     0.1088   0.1373   0.1681   0.1958   0.2088   0.3249   0.4632   0.9193
     0.9621   0.9627   1.4356   1.4440   1.4665   1.4909   1.4960   1.6198
     1.6231   1.7306   1.9074   1.9720   1.9983   2.0069   2.3848   2.7098
     2.7959   2.8140   2.8677   3.1074   3.1182   3.1456   3.3292   3.5728
     3.6275   3.6433   3.6992   3.8153   3.8596   3.8600   3.8861   5.0724
     6.2941   6.3557   6.3563   6.5501   7.5543   7.5940   7.6032   7.7418
     7.8333   7.8492   7.8639   7.8949   8.0241   8.0362   8.0660   8.0660
     8.1499   8.2420   8.2478   8.2983   8.5256   8.5727   8.6033   8.6406
     8.6667   8.7112   8.7289   8.8324   9.1809   9.2368   9.2523   9.3105
     9.3504   9.4696   9.4752   9.5505   9.9384   9.9385   9.9955  10.0256
    10.1402  10.3733  10.4228  10.5082  10.6773  10.6847  10.7618  10.8011
    10.9167  11.0467  11.0925  11.1099  11.1730  11.1810  11.2253  11.2266
    11.2865  11.3218  11.3954  11.4185  11.5864  11.7358  11.7482  11.7721
    12.0565  12.2605  12.2619  12.3955  12.4800  12.4806  12.5100  12.6083
    12.9536  13.0836  13.1064  13.1220  13.2035  13.4086  13.4537  13.5082
    13.6676  13.7522  13.8389  13.8406  13.9105  13.9477  13.9516  14.0508
    14.0560  14.1090  14.1387  14.1927  14.2311  14.3091  14.3779  14.4188
[...]
    18.7982  18.8151  18.8862  18.9357  18.9695  18.9819  19.0441  19.0671
    19.0750  19.1433  19.1842  19.1914  19.2225  19.3282  19.3542  19.3948
    19.4216  19.4715  19.5079  19.5110  19.5524  19.5581  19.6270  19.6364
    19.6833  19.7504  19.7963  19.8346  19.8794  19.9685  20.0013  20.0691
    20.1038  20.1366  20.1797  20.2304  20.3275  20.3521  20.4093  20.4331
    20.4561  20.4657  20.5062  20.5933  20.6142  20.6783  20.7245  20.7790
    20.8068  20.8500  20.9287  20.9368  21.0359  21.0385  21.1047  21.1103
    21.1673  21.2155  21.2753  21.2924  21.3932  21.4210  21.4254  21.5221
    21.5704  21.6442  21.6568  21.6950  21.7799  21.8646  21.9534  21.9549
    22.0253  22.0819  22.1020  22.1372  22.2134  22.2271  22.2624  22.2731
    22.3078  22.3798  22.4982  22.5519  22.5937  22.6246  22.6628  22.7406
    22.7444  22.8474  22.8908  22.9186  22.9514  23.0185  23.0908  23.1016
    23.1634  23.1935  23.3106  23.3194  23.3406  23.3602  23.4627  23.5333
    23.5598  23.5832  23.6581  23.7044  23.7339  23.7643  23.8158  23.8431
    23.9000  23.9165  23.9522  23.9542  24.1115  24.1156  24.1455  24.1965
    24.2290  24.2569  24.3749  24.3895  24.4794  24.5020  24.6232  24.6423
    24.7084  24.7333  24.7487  24.8253  24.8346  24.8680  24.8871  24.8982
    24.9563  24.9596  25.0666  25.0689  25.1257  25.1442  25.1659  25.1789
    25.2105  25.2135  25.2848  25.3060  25.3371  25.3538  25.3994  25.4324
    25.5139  25.5237  25.5363  25.5545  25.5911  25.6524  25.6740  25.7052
    25.7307  25.7560  25.8319  25.8323  25.8475  25.8669  25.9135  25.9449
    25.9594  25.9918  25.9941  26.0722  26.1239  26.1424  26.1819  26.2136
    26.2398  26.2630  26.3032  26.3545  26.3946  26.4079  26.4831  26.4887
    26.5253  26.5606  26.6168  26.6481  26.6862  26.7188  26.7765  26.7904
    26.8620  26.8653  26.9084  26.9484  26.9841  27.0026  27.0739  27.0787
    27.1645  27.2293  27.3096  27.3268  27.4319  27.4328  27.4811  27.4870
    27.5343  27.6026  27.6392  27.6537  27.7093  27.7108  27.7875  27.8089
    27.8434  27.8587  27.9433

          k =-0.5000-0.4976 0.0000 ( 43684 PWs)   bands (ev):

   -53.7676 -53.7503 -53.7467 -53.7434 -53.7396 -53.7386 -53.7205 -53.6848
   -53.6847 -53.6580 -53.6579 -53.6222 -53.6222 -53.6116 -53.6065 -53.6030
   -53.6020 -53.5729 -53.5379 -53.5377 -53.5307 -53.5306 -53.5050 -53.5049
   -53.4916 -53.4602 -53.4450 -53.4412 -53.4324 -53.4161 -53.4160 -53.4087
   -53.4087 -53.3726 -53.3726 -53.3237 -53.3223 -53.2619 -53.2618 -53.2499
   -53.2499 -53.0511 -52.9960 -52.9940 -52.9023 -52.7973 -52.7942 -52.4935
   -21.8851 -18.9165 -18.8115 -18.7990 -18.7837 -18.6044 -18.5852 -18.5807
   -18.4987 -18.4085 -18.3996 -18.3582 -18.3403 -18.3156 -18.2973 -18.2651
   -18.2603 -18.1584 -18.1478 -18.0979 -18.0816 -18.0640 -18.0190 -18.0004
   -17.9873 -17.9397 -17.8768 -17.8508 -17.7659 -16.8161 -16.7999 -16.7061
   -16.7004 -15.6662  -7.5082  -7.4842  -7.4731  -7.4700  -7.1256  -7.0304
    -7.0243  -6.9640  -6.9593  -6.9165  -6.8899  -6.8895  -6.8190  -6.7597
    -6.7558  -6.7077  -6.6732  -6.5557  -6.5443  -6.4609  -6.4512  -6.4391
    -6.4344  -6.3643  -6.3631  -6.3578  -6.3567  -6.2544  -6.2103  -6.1863
    -6.1668  -6.1464  -6.1092  -6.0735  -6.0709  -6.0196  -5.9454  -5.8875
    -5.8670  -5.8625  -5.8546  -5.8148  -5.5036  -5.4412  -5.4037  -5.3925
    -5.1316  -5.0382  -5.0077  -4.9351  -4.8226  -4.8117  -4.7807  -4.7537
    -4.7283  -4.7131  -4.6574  -4.6067  -4.6023  -4.5921  -4.5693  -4.5571
    -4.5286  -4.5115  -4.4719  -4.3293  -4.2793  -4.2020  -4.1467  -4.1154
    -4.1140  -4.0793  -3.9351  -3.8486  -3.7460  -3.6571  -3.5597  -3.5554
    -3.4871  -3.1081  -3.0500  -3.0436  -2.9819  -2.9609  -2.9460  -2.9056
    -2.8881  -2.7667  -2.7617  -2.7107  -2.7082  -2.6518  -2.6129  -2.5242
    -2.4866  -2.4606  -2.3515  -2.2946  -2.2223  -2.0035  -1.6736  -1.5550
    -1.5407  -1.4950  -1.4925  -1.4319  -1.4284  -1.3978  -1.3399  -1.2945
    -1.2877  -1.2727  -1.1918  -1.1846  -1.1708  -1.1129  -1.1026  -1.0352
    -1.0115  -0.9616  -0.9371  -0.8972  -0.8331  -0.7466  -0.5146  -0.4793
    -0.4523  -0.4417  -0.4118  -0.2922  -0.2906  -0.1933  -0.1902  -0.1639
    -0.1603  -0.0894  -0.0822  -0.0352  -0.0043   0.0091   0.0363   0.0428
     0.1026   0.1049   0.1078   0.2063   0.2091   0.3328   0.4564   0.8602
     0.9581   0.9597   1.3532   1.3621   1.4646   1.4918   1.5142   1.6218
     1.6263   1.7295   1.8723   1.9516   1.9674   1.9834   2.3032   2.6599
     2.8007   2.8159   2.8352   3.0539   3.0809   3.1119   3.2553   3.4685
     3.5295   3.5696   3.6485   3.7841   3.8256   3.8312   3.8324   5.0874
     6.3026   6.3586   6.3589   6.6397   7.5444   7.5742   7.6011   7.6207
     7.7814   7.7921   7.8010   7.8805   8.0195   8.0265   8.0549   8.0553
     8.0959   8.2266   8.2486   8.3071   8.5039   8.5223   8.5669   8.6321
     8.6638   8.6833   8.7328   8.7941   9.1418   9.2142   9.2335   9.2672
     9.2892   9.4374   9.4550   9.5104   9.9176   9.9415   9.9698   9.9903
    10.0016  10.3376  10.3916  10.4685  10.6261  10.6730  10.6802  10.7127
    10.8786  10.9135  10.9718  11.0552  11.1704  11.1870  11.1912  11.2423
    11.3294  11.3698  11.3741  11.4254  11.6107  11.7355  11.7355  11.7790
    12.0636  12.1834  12.2133  12.3746  12.4491  12.4666  12.5594  12.6572
    12.9824  13.0416  13.0464  13.1021  13.2042  13.3444  13.4248  13.4754
    13.6547  13.6667  13.8039  13.8275  13.9199  13.9581  13.9810  14.0305
    14.0868  14.1076  14.1104  14.2135  14.2609  14.2973  14.3649  14.3826
    14.4410  14.5054  14.5146  14.5214  14.6273  14.6498  14.6842  14.7474
    14.7647  14.8131  14.8758  14.8763  14.9230  14.9677  14.9939  15.0176
    15.0366  15.0522  15.0595  15.1157  15.1383  15.1552  15.1799  15.2333
    15.2970  15.3084  15.3572  15.3624  15.3863  15.4285  15.4303  15.4458
    15.4588  15.5109  15.5170  15.5457  15.5771  15.6227  15.6572  15.6640
    15.6976  15.7158  15.7977  15.8402  15.8722  15.9498  15.9657  15.9760
    16.0238  16.0249  16.0343  16.0902  16.1501  16.1609  16.2083  16.2588
    16.2698  16.3101  16.3447  16.4512  16.5707  16.5949  16.6293  16.7066
    16.7126  16.7722  16.8520  16.8553  16.8681  16.9219  16.9630  16.9885
    16.9961  17.0950  17.1073  17.1203  17.2023  17.2408  17.2865  17.3198
    17.3342  17.3411  17.3599  17.4130  17.4797  17.5050  17.5421  17.5924
    17.6797  17.6891  17.7275  17.8422  17.8969  17.9222  17.9717  18.0151
    18.1144  18.1510  18.2363  18.2815  18.3720  18.3991  18.4174  18.4423
    18.4516  18.4621  18.4969  18.5013  18.5306  18.5342  18.5368  18.5450
    18.5649  18.5700  18.5734  18.6004  18.6104  18.6328  18.7144  18.7535
    18.7543  18.8143  18.8252  18.9013  18.9369  19.1319  19.1859  19.2250
    19.2413  19.3637  19.4308  19.4665  19.4757  19.5214  19.5990  19.6583
    19.6615  19.6731  19.7275  19.7359  19.8386  19.8552  19.8560  19.9008
    20.0198  20.0411  20.1240  20.1465  20.2400  20.2738  20.3196  20.5422
    20.7395  20.7443  20.8174  20.8657  20.8924  20.9187  20.9283  20.9739
    21.0422  21.0444  21.0731  21.1070  21.2114  21.2249  21.2281  21.2873
    21.3274  21.4586  21.4917  21.5783  21.6323  21.7347  21.7451  21.8256
    21.8761  21.8952  21.9167  21.9629  22.0039  22.1087  22.1321  22.1421
    22.1603  22.2335  22.2703  22.3179  22.3323  22.3489  22.3698  22.4013
    22.4233  22.5194  22.5402  22.5837  22.5986  22.6106  22.6386  22.6970
    22.7303  22.7539  22.7610  22.8829  22.9525  22.9977  23.0151  23.0242
    23.0965  23.1010  23.1922  23.2102  23.2135  23.2527  23.2791  23.2857
    23.3687  23.3920  23.4294  23.4297  23.5452  23.5544  23.6078  23.6331
    23.6535  23.6913  23.7505  23.7625  23.8540  23.8808  23.8960  23.9118
    23.9752  23.9753  24.0164  24.0179  24.0659  24.0768  24.1736  24.2306
    24.2537  24.3021  24.3212  24.4244  24.4518  24.4992  24.6093  24.6198
    24.6892  24.7211  24.7938  24.8028  24.8277  24.9220  24.9585  24.9951
    25.0033  25.0373  25.1344  25.1587  25.1884  25.1911  25.2589  25.3140
    25.4059  25.4612  25.4687  25.5338  25.5918  25.6374  25.7140  25.7308
    25.7467  25.7548  25.7956  25.7971  25.8624  25.9426  25.9781  26.0432
    26.1144  26.1458  26.1812  26.1818  26.2958  26.3107  26.3992  26.4041
    26.4228  26.4753  26.5159  26.5175  26.6263  26.6413  26.7211  26.7461
    26.7899  26.7910  26.8499  26.9375  26.9969  27.0215  27.1091  27.1215
    27.1678  27.2146  27.2478  27.2549  27.2705  27.3554  27.4317  27.5659
    27.6118  27.6562  27.7089  27.7559  27.7874  27.8063  27.9237  27.9264
    27.9898  28.0624  28.1208  28.1300  28.1329  28.2304  28.2649  28.2752
    28.3217  28.3566  28.4193

     the Fermi energy is     0.6559 ev

!    total energy              =   -4424.58620970 Ry
     Harris-Foulkes estimate   =   -4424.58620971 Ry
     estimated scf accuracy    <       0.00000001 Ry

     The total energy is the sum of the following terms:

     one-electron contribution =  -82815.39892781 Ry
     hartree contribution      =   41515.76096101 Ry
     xc contribution           =   -1110.98685182 Ry
     ewald contribution        =   37986.03825469 Ry
     smearing contrib. (-TS)   =       0.00035424 Ry

     convergence has been achieved in  21 iterations

     Forces acting on atoms (Ry/au):


     negative rho (up, down):  0.317E+01 0.000E+00
     atom    1 type  1   force =     0.00000000   -0.00037001    0.01303349
     atom    2 type  2   force =    -0.00018149    0.00097133   -0.00374696
     atom    3 type  2   force =     0.00000000   -0.00021125    0.00589756
     atom    4 type  1   force =    -0.00000489   -0.00091070   -0.02944681
     atom    5 type  1   force =     0.00007653    0.00077535   -0.02929329
     atom    6 type  1   force =     0.00000000    0.00406043    0.00617810
     atom    7 type  1   force =     0.00000000    0.00000286    0.02277830
     atom    8 type  2   force =     0.00022341   -0.00072528    0.01658276
     atom    9 type  2   force =     0.00000000   -0.00471887   -0.01470299
     atom   10 type  1   force =     0.00034543    0.00536636    0.00231499
     atom   11 type  1   force =    -0.00031637   -0.00766189   -0.00155663
     atom   12 type  1   force =     0.00000000    0.00285668    0.00782505
     atom   13 type  1   force =     0.00000000    0.00207300    0.00084915
     atom   14 type  2   force =     0.00083272   -0.00094875    0.00154045
     atom   15 type  2   force =     0.00000000    0.00071590    0.00059612
     atom   16 type  1   force =     0.00008842   -0.00015392   -0.00159203
     atom   17 type  1   force =     0.00009079   -0.00015391    0.00093841
     atom   18 type  1   force =     0.00000000   -0.00218353   -0.00113118
     atom   19 type  1   force =     0.00000000    0.00040565    0.00064006
     atom   20 type  2   force =    -0.00004276   -0.00010243   -0.00068079
     atom   21 type  2   force =     0.00000000    0.00060775   -0.00126199
     atom   22 type  1   force =    -0.00044821    0.00008375   -0.00095291
     atom   23 type  1   force =    -0.00042421   -0.00092230    0.00063680
     atom   24 type  1   force =     0.00000000   -0.00000636   -0.00029594
     atom   25 type  1   force =     0.00000000   -0.00051838    0.01307344
     atom   26 type  2   force =     0.00018149    0.00097133   -0.00374696
     atom   27 type  2   force =     0.00000000   -0.00006415    0.00546074
     atom   28 type  1   force =     0.00000489   -0.00091070   -0.02944681
     atom   29 type  1   force =    -0.00007653    0.00077535   -0.02929329
     atom   30 type  1   force =     0.00000000    0.00537721    0.00750853
     atom   31 type  1   force =     0.00000000    0.00030899    0.02328460
     atom   32 type  2   force =    -0.00022341   -0.00072528    0.01658276
     atom   33 type  2   force =     0.00000000   -0.00810330   -0.01222662
     atom   34 type  1   force =    -0.00034543    0.00536636    0.00231499
     atom   35 type  1   force =     0.00031637   -0.00766189   -0.00155663
     atom   36 type  1   force =     0.00000000    0.00416911    0.00920560
     atom   37 type  1   force =     0.00000000    0.00181919    0.00146751
     atom   38 type  2   force =    -0.00083272   -0.00094875    0.00154045
     atom   39 type  2   force =     0.00000000   -0.00037547   -0.00036976
     atom   40 type  1   force =    -0.00008842   -0.00015392   -0.00159203
     atom   41 type  1   force =    -0.00009079   -0.00015391    0.00093841
     atom   42 type  1   force =     0.00000000    0.00274897    0.00250451
     atom   43 type  1   force =     0.00000000    0.00242460   -0.00106829
     atom   44 type  2   force =     0.00004276   -0.00010243   -0.00068079
     atom   45 type  2   force =     0.00000000   -0.00095526    0.00202890
     atom   46 type  1   force =     0.00044821    0.00008375   -0.00095291
     atom   47 type  1   force =     0.00042421   -0.00092230    0.00063680
     atom   48 type  1   force =     0.00000000    0.00057898   -0.00140426
     atom   49 type  1   force =     0.00000000   -0.00110594    0.00194724
     atom   50 type  1   force =     0.00000000   -0.00166049    0.00054639
     atom   51 type  3   force =     0.00000000    0.00088846   -0.00185225

     Total force =     0.009040     Total SCF correction =     0.000415

     number of scf cycles    =  24
     number of bfgs steps    =  23

     energy   old            =   -4424.5860656331 Ry
     energy   new            =   -4424.5862097012 Ry

     CASE: energy  _new < energy  _old

     new trust radius        =       0.0194945129 bohr
     new conv_thr            =       0.0000000144 Ry


ATOMIC_POSITIONS (crystal)
O0       0.000000000   0.500000000   0.331460000    0   0   0
Pt1      0.250000000   0.500000000   0.365530000    0   0   0
Pt1      0.000000000   0.000000000   0.365530000    0   0   0
O0       0.250000000   0.810000000   0.365530000    0   0   0
O0       0.250000000   0.190000000   0.365530000    0   0   0
O0       0.000000000   0.500000000   0.399590000    0   0   0
O0       0.000000000   0.000000000   0.421110000    0   0   0
Pt1      0.250000000   0.000000000   0.455180000    0   0   0
Pt1      0.000000000   0.500000000   0.455180000    0   0   0
O0       0.250000000   0.690000000   0.455180000    0   0   0
O0       0.250000000   0.310000000   0.455180000    0   0   0
O0       0.000000000   0.000000000   0.489240000    0   0   0
O0       0.000000000   0.461640434   0.510173980
Pt1      0.250013820   0.498897034   0.543862868
Pt1      0.000000000  -0.001546435   0.544801238
O0       0.251211762   0.809010549   0.537366100
O0       0.248930054   0.189667387   0.551650429
O0       0.000000000   0.544744361   0.576621821
O0       0.000000000   0.009167539   0.600503104
Pt1      0.249921349  -0.009466668   0.634608401
Pt1      0.000000000   0.486939573   0.633017538
O0       0.249472963   0.681376997   0.627790855
O0       0.246964106   0.302870371   0.642225877
O0       0.000000000  -0.021668909   0.667927198
O0       0.500000000   0.500000000   0.331460000    0   0   0
Pt1      0.750000000   0.500000000   0.365530000    0   0   0
Pt1      0.500000000   0.000000000   0.365530000    0   0   0
O0       0.750000000   0.810000000   0.365530000    0   0   0
O0       0.750000000   0.190000000   0.365530000    0   0   0
O0       0.500000000   0.500000000   0.399590000    0   0   0
O0       0.500000000   0.000000000   0.421110000    0   0   0
Pt1      0.750000000   0.000000000   0.455180000    0   0   0
Pt1      0.500000000   0.500000000   0.455180000    0   0   0
O0       0.750000000   0.690000000   0.455180000    0   0   0
O0       0.750000000   0.310000000   0.455180000    0   0   0
O0       0.500000000   0.000000000   0.489240000    0   0   0
O0       0.500000000   0.459023069   0.510089269
Pt1      0.749986180   0.498897034   0.543862868
Pt1      0.500000000  -0.000534110   0.544848941
O0       0.748788238   0.809010549   0.537366100
O0       0.751069946   0.189667387   0.551650429
O0       0.500000000   0.509262048   0.578301579
O0       0.500000000   0.000567168   0.600425927
Pt1      0.750078651  -0.009466668   0.634608401
Pt1      0.500000000   0.494276258   0.635090434
O0       0.750527037   0.681376997   0.627790855
O0       0.753035894   0.302870371   0.642225877
O0       0.500000000  -0.030555301   0.667549062
O0       0.500000000   0.545584574   0.688460438
O0       0.500000000   0.352846336   0.708666916
H2       0.500000000   0.409001528   0.734053717


     Check: negative starting charge=   -3.078621
     NEW-OLD atomic charge density approx. for the potential

     Check: negative/imaginary core charge=   -0.000003    0.000000
     Check: negative starting charge=   -3.078343

     negative rho (up, down):  0.317E+01 0.000E+00

     total cpu time spent up to now is   170813.9 secs

     Self-consistent Calculation

     iteration #  1     ecut=    40.00 Ry     beta=0.30
     Davidson diagonalization with overlap
     ethr =  1.00E-06,  avg # of iterations =  3.0

     Threshold (ethr) on eigenvalues was too large:
     Diagonalizing with lowered threshold

     Davidson diagonalization with overlap
     ethr =  3.70E-08,  avg # of iterations =  1.0

     negative rho (up, down):  0.317E+01 0.000E+00

     total cpu time spent up to now is   171550.1 secs

     total energy              =   -4424.58625980 Ry
     Harris-Foulkes estimate   =   -4424.58631558 Ry
     estimated scf accuracy    <       0.00017139 Ry

     iteration #  2     ecut=    40.00 Ry     beta=0.30
     Davidson diagonalization with overlap
     ethr =  3.72E-08,  avg # of iterations =  2.4

     negative rho (up, down):  0.317E+01 0.000E+00

     total cpu time spent up to now is   171888.1 secs

     total energy              =   -4424.58555104 Ry
     Harris-Foulkes estimate   =   -4424.58698613 Ry
     estimated scf accuracy    <       0.10976138 Ry

     iteration #  3     ecut=    40.00 Ry     beta=0.30
     Davidson diagonalization with overlap
     ethr =  3.72E-08,  avg # of iterations =  1.7

     negative rho (up, down):  0.317E+01 0.000E+00

     total cpu time spent up to now is   172218.8 secs

     total energy              =   -4424.58626341 Ry
     Harris-Foulkes estimate   =   -4424.58633068 Ry
     estimated scf accuracy    <       0.00106408 Ry

     iteration #  4     ecut=    40.00 Ry     beta=0.30
     Davidson diagonalization with overlap
     ethr =  3.72E-08,  avg # of iterations =  1.0

     negative rho (up, down):  0.317E+01 0.000E+00

     total cpu time spent up to now is   172516.5 secs

     total energy              =   -4424.58628640 Ry
     Harris-Foulkes estimate   =   -4424.58631765 Ry
     estimated scf accuracy    <       0.00035591 Ry

     iteration #  5     ecut=    40.00 Ry     beta=0.30
     Davidson diagonalization with overlap
     ethr =  3.72E-08,  avg # of iterations =  1.0

     negative rho (up, down):  0.317E+01 0.000E+00

     total cpu time spent up to now is   172813.8 secs

     total energy              =   -4424.58629078 Ry
     Harris-Foulkes estimate   =   -4424.58631253 Ry
     estimated scf accuracy    <       0.00023203 Ry

     iteration #  6     ecut=    40.00 Ry     beta=0.30
     Davidson diagonalization with overlap
=>> PBS: job killed: walltime 172842 exceeded limit 172800
mpirun: killing job...

mpirun: abort is already in progress...hit ctrl-c again to forcibly terminate

---------------------------------------
Running PBS batch system epilogue script
Job id: 388596.audhumbla.fysik.dtu.dk
Username: zhonxu
Groupname: campgst
Jobname: PtO2/Eads-4-layers/OOH-relax
Sessionid: 55323
Resources limits: neednodes=2:ppn=16:xeon16,nodes=2:ppn=16:xeon16,walltime=48:00:00
Resources used: cput=1532:28:30,mem=51594872kb,vmem=61482400kb,walltime=48:00:43
Queuename: verylong
Accounting:
This job has allocated the following 32 nodes:
g004 g004 g004 g004 g004 g004 g004 g004 g004 g004 g004 g004 g004 g004 g004 g004 g003 g003 g003 g003 g003 g003 g003 g003 g003 g003 g003 g003 g003 g003 g003 g003
Finished epilogue job 388596.audhumbla.fysik.dtu.dk for zhonxu
