
     Program PWSCF v.5.0.2 (svn rev. 9656) starts on 28Apr2014 at  9:13:25 

     This program is part of the open-source Quantum ESPRESSO suite
     for quantum simulation of materials; please cite
         "P. Giannozzi et al., J. Phys.:Condens. Matter 21 395502 (2009);
          URL http://www.quantum-espresso.org", 
     in publications or presentations arising from this work. More details at
     http://www.quantum-espresso.org/quote.php

     Parallel version (MPI), running on    16 processors
     K-points division:     npool     =       4
     R & G space division:  proc/nbgrp/npool/nimage =       4

     Current dimensions of program PWSCF are:
     Max number of different atomic species (ntypx) = 10
     Max number of k-points (npk) =  40000
     Max angular momentum in pseudopotentials (lmaxx) =  3
     Reading input from pwscf.in
Warning: card &CELL ignored
Warning: card / ignored

     Subspace diagonalization in iterative solution of the eigenvalue problem:
     a serial algorithm will be used


     Parallelization info
     --------------------
     sticks:   dense  smooth     PW     G-vecs:    dense   smooth      PW
     Min        1386     442    124               330660    59845    8892
     Max        1388     443    125               330662    59871    8899
     Sum        5547    1771    497              1322643   239441   35575



     bravais-lattice index     =            0
     lattice parameter (alat)  =      11.2250  a.u.
     unit-cell volume          =    7005.5484 (a.u.)^3
     number of atoms/cell      =           31
     number of atomic types    =            3
     number of electrons       =       214.00
     number of Kohn-Sham states=          309
     kinetic-energy cutoff     =      40.0000  Ry
     charge density cutoff     =     500.0000  Ry
     convergence threshold     =      1.0E-06
     mixing beta               =       0.7000
     number of iterations used =            8  plain     mixing
     Exchange-correlation      = SLA  PW   PBE  PBE ( 1 4 3 4 0)
     EXX-fraction              =        0.00
     nstep                     =           50


     celldm(1)=  11.224973  celldm(2)=   0.000000  celldm(3)=   0.000000
     celldm(4)=   0.000000  celldm(5)=   0.000000  celldm(6)=   0.000000

     crystal axes: (cart. coord. in units of alat)
               a(1) = (   1.000000   0.000000   0.000000 )  
               a(2) = (   0.000000   1.107086   0.000000 )  
               a(3) = (   0.000000   0.000000   4.474090 )  

     reciprocal axes: (cart. coord. in units 2 pi/alat)
               b(1) = (  1.000000  0.000000  0.000000 )  
               b(2) = (  0.000000  0.903272  0.000000 )  
               b(3) = (  0.000000  0.000000  0.223509 )  


     PseudoPot. # 1 for O  read from file:
     /home/camp/zhonxu/pseudo/o_pbe_v1.01.uspp.F.UPF
     MD5 check sum: 2bcb18d16ea4b960afae9ec6d52f22d2
     Pseudo is Ultrasoft + core correction, Zval =  6.0
     Generated by new atomic code, or converted to UPF format
     Using radial grid of  737 points,  5 beta functions with: 
                l(1) =   0
                l(2) =   0
                l(3) =   1
                l(4) =   1
                l(5) =   2
     Q(r) pseudized with  8 coefficients,  rinner =    0.900   0.900   0.900
                                                       0.900   0.900

     PseudoPot. # 2 for Ti read from file:
     /home/camp/zhonxu/pseudo/ti_pbe_v1.uspp.F.UPF
     MD5 check sum: bcc8f6961b3b91f0cac3ca967d22d0fb
     Pseudo is Ultrasoft + core correction, Zval = 12.0
     Generated by new atomic code, or converted to UPF format
     Using radial grid of  851 points,  6 beta functions with: 
                l(1) =   0
                l(2) =   0
                l(3) =   1
                l(4) =   1
                l(5) =   2
                l(6) =   2
     Q(r) pseudized with  6 coefficients,  rinner =    1.000   1.000   1.000
                                                       1.000   1.000

     PseudoPot. # 3 for H  read from file:
     /home/camp/zhonxu/pseudo/h_pbe_v1.uspp.F.UPF
     MD5 check sum: 3408e3ff4ec8b0a4e358431e7e038a48
     Pseudo is Ultrasoft, Zval =  1.0
     Generated by new atomic code, or converted to UPF format
     Using radial grid of  615 points,  2 beta functions with: 
                l(1) =   0
                l(2) =   0
     Q(r) pseudized with  8 coefficients,  rinner =    0.700

     atomic species   valence    mass     pseudopotential
        O0             6.00    15.99940     O ( 1.00)
        Ti1           12.00    47.88000     Ti( 1.00)
        H2             1.00     1.00794     H ( 1.00)


     Simplified LDA+U calculation (l_max = 2) with parameters (eV):
     atomic species    L          U    alpha       J0     beta
        Ti1            2     1.5000   0.0000   0.0000   0.0000



     No symmetry found



   Cartesian axes

     site n.     atom                  positions (alat units)
         1           O0  tau(   1) = (   0.0000000   0.0000000   1.6912507  )
         2           O0  tau(   2) = (   0.0000000   0.5535432   1.7801061  )
         3           Ti1 tau(   3) = (   0.2500000   0.5535432   2.0136983  )
         4           Ti1 tau(   4) = (   0.0000000   0.0000000   2.0256889  )
         5           O0  tau(   5) = (   0.2500000   0.8967400   2.0101638  )
         6           O0  tau(   6) = (   0.2500000   0.2103464   2.0140115  )
         7           O0  tau(   7) = (   0.0000000   0.5535432   2.2264413  )
         8           O0  tau(   8) = (   0.0000000   0.0000000   2.3510894  )
         9           Ti1 tau(   9) = (   0.2500000   0.0000000   2.5997146  )
        10           Ti1 tau(  10) = (   0.0000000   0.5535432   2.5433858  )
        11           O0  tau(  11) = (   0.2500000   0.7638896   2.5969406  )
        12           O0  tau(  12) = (   0.2500000   0.3431968   2.5970301  )
        13           O0  tau(  13) = (   0.0000000   0.0000000   2.7842260  )
        14           O0  tau(  14) = (   0.5000000   0.0000000   1.6905348  )
        15           O0  tau(  15) = (   0.5000000   0.5535432   1.7767953  )
        16           Ti1 tau(  16) = (   0.7500000   0.5535432   2.0136983  )
        17           Ti1 tau(  17) = (   0.5000000   0.0000000   2.0204542  )
        18           O0  tau(  18) = (   0.7500000   0.8967400   2.0103875  )
        19           O0  tau(  19) = (   0.7500000   0.2103464   2.0134299  )
        20           O0  tau(  20) = (   0.5000000   0.5535432   2.2001336  )
        21           O0  tau(  21) = (   0.5000000   0.0000000   2.3501946  )
        22           Ti1 tau(  22) = (   0.7500000   0.0000000   2.5996698  )
        23           Ti1 tau(  23) = (   0.5000000   0.5535432   2.6765794  )
        24           O0  tau(  24) = (   0.7500000   0.7638896   2.5974328  )
        25           O0  tau(  25) = (   0.7500000   0.3431968   2.5965380  )
        26           O0  tau(  26) = (   0.5000000   0.0000000   2.7806915  )
        27           H2  tau(  27) = (  -0.0007400   0.6861389   1.6797970  )
        28           H2  tau(  28) = (   0.4994200   0.6816995   1.6713410  )
        29           H2  tau(  29) = (   0.1486600   0.0377184   1.6265106  )
        30           H2  tau(  30) = (   0.6489300   0.0363456   1.6257052  )
        31           O0  tau(  31) = (   0.4999900   0.5533882   2.9590287  )

     number of k points=    10  Methfessel-Paxton smearing, width (Ry)=  0.0100
                       cart. coord. in units 2pi/alat
        k(    1) = (   0.0000000   0.0000000   0.0000000), wk =   0.1250000
        k(    2) = (   0.0000000   0.2258180   0.0000000), wk =   0.2500000
        k(    3) = (   0.0000000  -0.4516359   0.0000000), wk =   0.1250000
        k(    4) = (   0.2500000   0.0000000   0.0000000), wk =   0.2500000
        k(    5) = (   0.2500000   0.2258180   0.0000000), wk =   0.2500000
        k(    6) = (   0.2500000  -0.4516359   0.0000000), wk =   0.2500000
        k(    7) = (  -0.5000000   0.0000000   0.0000000), wk =   0.1250000
        k(    8) = (  -0.5000000   0.2258180   0.0000000), wk =   0.2500000
        k(    9) = (  -0.5000000  -0.4516359   0.0000000), wk =   0.1250000
        k(   10) = (  -0.2500000   0.2258180   0.0000000), wk =   0.2500000

     Dense  grid:  1322643 G-vectors     FFT dimensions: (  80,  90, 360)

     Smooth grid:   239441 G-vectors     FFT dimensions: (  45,  54, 216)

     Largest allocated arrays     est. size (Mb)     dimensions
        Kohn-Sham Wavefunctions        35.67 Mb     (   7566,  309)
        Atomic wavefunctions           18.47 Mb     (   7566,  160)
        NL pseudopotentials            46.06 Mb     (   7566,  399)
        Each V/rho on FFT grid          9.89 Mb     ( 648000)
        Each G-vector array             2.52 Mb     ( 330661)
        G-vector shells                 1.08 Mb     ( 141764)
     Largest temporary arrays     est. size (Mb)     dimensions
        Auxiliary wavefunctions       142.69 Mb     (   7566, 1236)
        Each subspace H/S matrix       23.31 Mb     (1236,1236)
        Each <psi_i|beta_j> matrix      1.88 Mb     (    399,  309)
        Arrays for rho mixing          79.10 Mb     ( 648000,   8)

     Check: negative/imaginary core charge=   -0.000006    0.000000

     Initial potential from superposition of free atoms
     Check: negative starting charge=   -0.102438

     starting charge  205.99958, renormalised to  214.00000

     negative rho (up, down):  0.106E+00 0.000E+00
     Number of +U iterations with fixed ns =  0
     Starting occupations:
 --- enter write_ns ---
 LDA+U parameters:
U( 2)     =  1.50000000
alpha( 2) =  0.00000000
atom    3   Tr[ns(na)] =   2.00000
    eigenvalues: 
  0.200  0.200  0.200  0.200  0.200
    eigenvectors:
  1.000  0.000  0.000  0.000  0.000
  0.000  1.000  0.000  0.000  0.000
  0.000  0.000  1.000  0.000  0.000
  0.000  0.000  0.000  1.000  0.000
  0.000  0.000  0.000  0.000  1.000
    occupations:
  0.200  0.000  0.000  0.000  0.000
  0.000  0.200  0.000  0.000  0.000
  0.000  0.000  0.200  0.000  0.000
  0.000  0.000  0.000  0.200  0.000
  0.000  0.000  0.000  0.000  0.200
atom    4   Tr[ns(na)] =   2.00000
    eigenvalues: 
  0.200  0.200  0.200  0.200  0.200
    eigenvectors:
  1.000  0.000  0.000  0.000  0.000
  0.000  1.000  0.000  0.000  0.000
  0.000  0.000  1.000  0.000  0.000
  0.000  0.000  0.000  1.000  0.000
  0.000  0.000  0.000  0.000  1.000
    occupations:
  0.200  0.000  0.000  0.000  0.000
  0.000  0.200  0.000  0.000  0.000
  0.000  0.000  0.200  0.000  0.000
  0.000  0.000  0.000  0.200  0.000
  0.000  0.000  0.000  0.000  0.200
atom    9   Tr[ns(na)] =   2.00000
    eigenvalues: 
  0.200  0.200  0.200  0.200  0.200
    eigenvectors:
  1.000  0.000  0.000  0.000  0.000
  0.000  1.000  0.000  0.000  0.000
  0.000  0.000  1.000  0.000  0.000
  0.000  0.000  0.000  1.000  0.000
  0.000  0.000  0.000  0.000  1.000
    occupations:
  0.200  0.000  0.000  0.000  0.000
  0.000  0.200  0.000  0.000  0.000
  0.000  0.000  0.200  0.000  0.000
  0.000  0.000  0.000  0.200  0.000
  0.000  0.000  0.000  0.000  0.200
atom   10   Tr[ns(na)] =   2.00000
    eigenvalues: 
  0.200  0.200  0.200  0.200  0.200
    eigenvectors:
  1.000  0.000  0.000  0.000  0.000
  0.000  1.000  0.000  0.000  0.000
  0.000  0.000  1.000  0.000  0.000
  0.000  0.000  0.000  1.000  0.000
  0.000  0.000  0.000  0.000  1.000
    occupations:
  0.200  0.000  0.000  0.000  0.000
  0.000  0.200  0.000  0.000  0.000
  0.000  0.000  0.200  0.000  0.000
  0.000  0.000  0.000  0.200  0.000
  0.000  0.000  0.000  0.000  0.200
atom   16   Tr[ns(na)] =   2.00000
    eigenvalues: 
  0.200  0.200  0.200  0.200  0.200
    eigenvectors:
  1.000  0.000  0.000  0.000  0.000
  0.000  1.000  0.000  0.000  0.000
  0.000  0.000  1.000  0.000  0.000
  0.000  0.000  0.000  1.000  0.000
  0.000  0.000  0.000  0.000  1.000
    occupations:
  0.200  0.000  0.000  0.000  0.000
  0.000  0.200  0.000  0.000  0.000
  0.000  0.000  0.200  0.000  0.000
  0.000  0.000  0.000  0.200  0.000
  0.000  0.000  0.000  0.000  0.200
atom   17   Tr[ns(na)] =   2.00000
    eigenvalues: 
  0.200  0.200  0.200  0.200  0.200
    eigenvectors:
  1.000  0.000  0.000  0.000  0.000
  0.000  1.000  0.000  0.000  0.000
  0.000  0.000  1.000  0.000  0.000
  0.000  0.000  0.000  1.000  0.000
  0.000  0.000  0.000  0.000  1.000
    occupations:
  0.200  0.000  0.000  0.000  0.000
  0.000  0.200  0.000  0.000  0.000
  0.000  0.000  0.200  0.000  0.000
  0.000  0.000  0.000  0.200  0.000
  0.000  0.000  0.000  0.000  0.200
atom   22   Tr[ns(na)] =   2.00000
    eigenvalues: 
  0.200  0.200  0.200  0.200  0.200
    eigenvectors:
  1.000  0.000  0.000  0.000  0.000
  0.000  1.000  0.000  0.000  0.000
  0.000  0.000  1.000  0.000  0.000
  0.000  0.000  0.000  1.000  0.000
  0.000  0.000  0.000  0.000  1.000
    occupations:
  0.200  0.000  0.000  0.000  0.000
  0.000  0.200  0.000  0.000  0.000
  0.000  0.000  0.200  0.000  0.000
  0.000  0.000  0.000  0.200  0.000
  0.000  0.000  0.000  0.000  0.200
atom   23   Tr[ns(na)] =   2.00000
    eigenvalues: 
  0.200  0.200  0.200  0.200  0.200
    eigenvectors:
  1.000  0.000  0.000  0.000  0.000
  0.000  1.000  0.000  0.000  0.000
  0.000  0.000  1.000  0.000  0.000
  0.000  0.000  0.000  1.000  0.000
  0.000  0.000  0.000  0.000  1.000
    occupations:
  0.200  0.000  0.000  0.000  0.000
  0.000  0.200  0.000  0.000  0.000
  0.000  0.000  0.200  0.000  0.000
  0.000  0.000  0.000  0.200  0.000
  0.000  0.000  0.000  0.000  0.200
N of occupied +U levels =  16.0000000
 --- exit write_ns ---
 Atomic wfc used for LDA+U Projector are NOT orthogonalized
     Starting wfc are  160 randomized atomic wfcs

     total cpu time spent up to now is       94.7 secs

     per-process dynamical memory:   362.6 Mb

     Self-consistent Calculation

     iteration #  1     ecut=    40.00 Ry     beta=0.70
     Davidson diagonalization with overlap
     ethr =  1.00E-02,  avg # of iterations =  6.0
 --- enter write_ns ---
 LDA+U parameters:
U( 2)     =  1.50000000
alpha( 2) =  0.00000000
atom    3   Tr[ns(na)] =   2.02081
    eigenvalues: 
  0.110  0.132  0.149  0.286  0.333
    eigenvectors:
  0.073  0.082  0.690  0.152  0.002
  0.002  0.001  0.003  0.059  0.935
  0.827  0.033  0.139  0.001  0.000
  0.021  0.016  0.115  0.788  0.059
  0.078  0.867  0.052  0.000  0.003
    occupations:
  0.166  0.005 -0.009  0.052  0.002
  0.005  0.329  0.002 -0.014  0.012
 -0.009  0.002  0.116  0.010 -0.007
  0.052 -0.014  0.010  0.267 -0.001
  0.002  0.012 -0.007 -0.001  0.132
atom    4   Tr[ns(na)] =   2.19371
    eigenvalues: 
  0.117  0.133  0.160  0.324  0.364
    eigenvectors:
  0.000  0.011  0.008  0.000  0.981
  0.017  0.011  0.963  0.000  0.009
  0.980  0.001  0.018  0.000  0.001
  0.002  0.977  0.011  0.000  0.009
  0.000  0.000  0.000  1.000  0.000
    occupations:
  0.359  0.020  0.005 -0.022 -0.000
  0.020  0.161  0.006  0.001 -0.001
  0.005  0.006  0.118  0.001  0.000
 -0.022  0.001  0.001  0.135  0.000
 -0.000 -0.001  0.000  0.000  0.324
atom    9   Tr[ns(na)] =   2.46224
    eigenvalues: 
  0.160  0.178  0.240  0.313  0.340
    eigenvectors:
  0.000  0.915  0.000  0.084  0.000
  0.000  0.000  0.000  0.003  0.997
  0.228  0.000  0.772  0.000  0.000
  0.000  0.084  0.000  0.913  0.003
  0.772  0.000  0.228  0.000  0.000
    occupations:
  0.189  0.001 -0.001  0.038 -0.000
  0.001  0.340 -0.000 -0.002  0.000
 -0.001 -0.000  0.222  0.001  0.033
  0.038 -0.002  0.001  0.302  0.000
 -0.000  0.000  0.033  0.000  0.178
atom   10   Tr[ns(na)] =   2.95104
    eigenvalues: 
  0.145  0.259  0.284  0.310  0.478
    eigenvectors:
  0.000  0.950  0.000  0.000  0.050
  0.000  0.000  1.000  0.000  0.000
  1.000  0.000  0.000  0.000  0.000
  0.000  0.050  0.000  0.000  0.950
  0.000  0.000  0.000  1.000  0.000
    occupations:
  0.270  0.000 -0.000  0.048 -0.000
  0.000  0.284 -0.000  0.000  0.000
 -0.000 -0.000  0.145  0.001  0.000
  0.048  0.000  0.001  0.467  0.000
 -0.000  0.000  0.000  0.000  0.310
atom   16   Tr[ns(na)] =   2.02046
    eigenvalues: 
  0.109  0.133  0.149  0.286  0.333
    eigenvectors:
  0.069  0.095  0.681  0.152  0.002
  0.002  0.001  0.003  0.060  0.934
  0.820  0.037  0.142  0.001  0.000
  0.021  0.019  0.113  0.787  0.060
  0.088  0.848  0.061  0.000  0.003
    occupations:
  0.166 -0.005 -0.009  0.052 -0.002
 -0.005  0.329 -0.002  0.014  0.012
 -0.009 -0.002  0.116  0.010  0.008
  0.052  0.014  0.010  0.267  0.001
 -0.002  0.012  0.008  0.001  0.132
atom   17   Tr[ns(na)] =   2.18264
    eigenvalues: 
  0.116  0.131  0.160  0.321  0.364
    eigenvectors:
  0.000  0.011  0.009  0.000  0.980
  0.032  0.013  0.945  0.000  0.010
  0.962  0.003  0.033  0.000  0.001
  0.005  0.973  0.012  0.000  0.009
  0.000  0.000  0.000  1.000  0.000
    occupations:
  0.360  0.021  0.007 -0.022 -0.000
  0.021  0.160  0.008  0.001 -0.001
  0.007  0.008  0.118  0.001  0.000
 -0.022  0.001  0.001  0.133  0.000
 -0.000 -0.001  0.000  0.000  0.321
atom   22   Tr[ns(na)] =   2.46301
    eigenvalues: 
  0.160  0.178  0.240  0.313  0.340
    eigenvectors:
  0.000  0.915  0.000  0.084  0.000
  0.000  0.000  0.000  0.002  0.998
  0.229  0.000  0.771  0.000  0.000
  0.000  0.084  0.000  0.914  0.002
  0.770  0.000  0.229  0.000  0.000
    occupations:
  0.189 -0.001 -0.001  0.038  0.000
 -0.001  0.340  0.000  0.002  0.000
 -0.001  0.000  0.222  0.000 -0.034
  0.038  0.002  0.000  0.302 -0.000
  0.000  0.000 -0.034 -0.000  0.178
atom   23   Tr[ns(na)] =   2.87985
    eigenvalues: 
  0.254  0.258  0.272  0.274  0.382
    eigenvectors:
  0.000  0.009  0.000  0.000  0.991
  0.000  0.000  1.000  0.000  0.000
  1.000  0.000  0.000  0.000  0.000
  0.000  0.991  0.000  0.000  0.009
  0.000  0.000  0.000  1.000  0.000
    occupations:
  0.381  0.000  0.000  0.012 -0.000
  0.000  0.272 -0.000 -0.000  0.000
  0.000 -0.000  0.254 -0.000  0.000
  0.012 -0.000 -0.000  0.259 -0.000
 -0.000  0.000  0.000 -0.000  0.274
N of occupied +U levels =  19.1737541
 --- exit write_ns ---

     negative rho (up, down):  0.111E+00 0.000E+00

     total cpu time spent up to now is      370.1 secs

     total energy              =   -1551.56176613 Ry
     Harris-Foulkes estimate   =   -1568.04748250 Ry
     estimated scf accuracy    <      19.18936673 Ry

     iteration #  2     ecut=    40.00 Ry     beta=0.70
     Davidson diagonalization with overlap
     ethr =  8.97E-03,  avg # of iterations =  6.2

     negative rho (up, down):  0.112E+00 0.000E+00

     total cpu time spent up to now is      642.5 secs

     total energy              =   -1443.98922624 Ry
     Harris-Foulkes estimate   =   -1727.57031500 Ry
     estimated scf accuracy    <    3228.61242405 Ry

     iteration #  3     ecut=    40.00 Ry     beta=0.70
     Davidson diagonalization with overlap
     ethr =  8.97E-03,  avg # of iterations =  6.0

     negative rho (up, down):  0.105E+00 0.000E+00

     total cpu time spent up to now is      933.0 secs

     total energy              =   -1554.20026198 Ry
     Harris-Foulkes estimate   =   -1574.40117544 Ry
     estimated scf accuracy    <     268.96636240 Ry

     iteration #  4     ecut=    40.00 Ry     beta=0.70
     Davidson diagonalization with overlap
     ethr =  8.97E-03,  avg # of iterations =  1.9

     negative rho (up, down):  0.100E+00 0.000E+00

     total cpu time spent up to now is     1079.6 secs

     total energy              =   -1566.02746932 Ry
     Harris-Foulkes estimate   =   -1567.79368021 Ry
     estimated scf accuracy    <       6.16409360 Ry

     iteration #  5     ecut=    40.00 Ry     beta=0.70
     Davidson diagonalization with overlap
     ethr =  2.88E-03,  avg # of iterations =  2.3

     negative rho (up, down):  0.101E+00 0.000E+00

     total cpu time spent up to now is     1235.0 secs

     total energy              =   -1566.25111115 Ry
     Harris-Foulkes estimate   =   -1566.66736025 Ry
     estimated scf accuracy    <       1.82404248 Ry

     iteration #  6     ecut=    40.00 Ry     beta=0.70
     Davidson diagonalization with overlap
     ethr =  8.52E-04,  avg # of iterations =  3.8

     negative rho (up, down):  0.101E+00 0.000E+00

     total cpu time spent up to now is     1397.2 secs

     total energy              =   -1566.22078286 Ry
     Harris-Foulkes estimate   =   -1566.49132410 Ry
     estimated scf accuracy    <       1.79917804 Ry

     iteration #  7     ecut=    40.00 Ry     beta=0.70
     Davidson diagonalization with overlap
     ethr =  8.41E-04,  avg # of iterations =  3.9

     negative rho (up, down):  0.100E+00 0.000E+00

     total cpu time spent up to now is     1572.5 secs

     total energy              =   -1566.24137752 Ry
     Harris-Foulkes estimate   =   -1566.44448673 Ry
     estimated scf accuracy    <       1.91350932 Ry

     iteration #  8     ecut=    40.00 Ry     beta=0.70
     Davidson diagonalization with overlap
     ethr =  8.41E-04,  avg # of iterations =  2.0

     negative rho (up, down):  0.100E+00 0.000E+00

     total cpu time spent up to now is     1733.0 secs

     total energy              =   -1566.17046478 Ry
     Harris-Foulkes estimate   =   -1566.32642777 Ry
     estimated scf accuracy    <       0.96339357 Ry

     iteration #  9     ecut=    40.00 Ry     beta=0.70
     Davidson diagonalization with overlap
     ethr =  4.50E-04,  avg # of iterations =  4.6

     negative rho (up, down):  0.100E+00 0.000E+00

     total cpu time spent up to now is     1901.5 secs

     total energy              =   -1566.15214798 Ry
     Harris-Foulkes estimate   =   -1566.23909809 Ry
     estimated scf accuracy    <       0.77092901 Ry

     iteration # 10     ecut=    40.00 Ry     beta=0.70
     Davidson diagonalization with overlap
     ethr =  3.60E-04,  avg # of iterations =  3.7

     negative rho (up, down):  0.101E+00 0.000E+00

     total cpu time spent up to now is     2068.3 secs

     total energy              =   -1566.10012403 Ry
     Harris-Foulkes estimate   =   -1566.19546539 Ry
     estimated scf accuracy    <       1.68834785 Ry

     iteration # 11     ecut=    40.00 Ry     beta=0.70
     Davidson diagonalization with overlap
     ethr =  3.60E-04,  avg # of iterations =  4.6

     negative rho (up, down):  0.104E+00 0.000E+00

     total cpu time spent up to now is     2240.2 secs

     total energy              =   -1565.95968349 Ry
     Harris-Foulkes estimate   =   -1566.14844677 Ry
     estimated scf accuracy    <       0.43021577 Ry

     iteration # 12     ecut=    40.00 Ry     beta=0.70
     Davidson diagonalization with overlap
     ethr =  2.01E-04,  avg # of iterations =  6.8

     negative rho (up, down):  0.102E+00 0.000E+00

     total cpu time spent up to now is     2445.4 secs

     total energy              =   -1565.89461384 Ry
     Harris-Foulkes estimate   =   -1566.32245455 Ry
     estimated scf accuracy    <       2.05916831 Ry

     iteration # 13     ecut=    40.00 Ry     beta=0.70
     Davidson diagonalization with overlap
     ethr =  2.01E-04,  avg # of iterations =  3.8

     negative rho (up, down):  0.103E+00 0.000E+00

     total cpu time spent up to now is     2616.1 secs

     total energy              =   -1566.02080993 Ry
     Harris-Foulkes estimate   =   -1566.11709029 Ry
     estimated scf accuracy    <       0.47120805 Ry

     iteration # 14     ecut=    40.00 Ry     beta=0.70
     Davidson diagonalization with overlap
     ethr =  2.01E-04,  avg # of iterations =  1.4

     negative rho (up, down):  0.102E+00 0.000E+00

     total cpu time spent up to now is     2771.9 secs

     total energy              =   -1566.04722140 Ry
     Harris-Foulkes estimate   =   -1566.09970606 Ry
     estimated scf accuracy    <       0.28768390 Ry

     iteration # 15     ecut=    40.00 Ry     beta=0.70
     Davidson diagonalization with overlap
     ethr =  1.34E-04,  avg # of iterations =  1.0

     negative rho (up, down):  0.103E+00 0.000E+00

     total cpu time spent up to now is     2919.1 secs

     total energy              =   -1566.06636194 Ry
     Harris-Foulkes estimate   =   -1566.08420468 Ry
     estimated scf accuracy    <       0.13296156 Ry

     iteration # 16     ecut=    40.00 Ry     beta=0.70
     Davidson diagonalization with overlap
     ethr =  6.21E-05,  avg # of iterations =  3.7

     negative rho (up, down):  0.103E+00 0.000E+00

     total cpu time spent up to now is     3087.1 secs

     total energy              =   -1566.06463362 Ry
     Harris-Foulkes estimate   =   -1566.08599340 Ry
     estimated scf accuracy    <       0.21749445 Ry

     iteration # 17     ecut=    40.00 Ry     beta=0.70
     Davidson diagonalization with overlap
     ethr =  6.21E-05,  avg # of iterations =  1.0

     negative rho (up, down):  0.103E+00 0.000E+00

     total cpu time spent up to now is     3239.4 secs

     total energy              =   -1566.07068373 Ry
     Harris-Foulkes estimate   =   -1566.07527251 Ry
     estimated scf accuracy    <       0.03770143 Ry

     iteration # 18     ecut=    40.00 Ry     beta=0.70
     Davidson diagonalization with overlap
     ethr =  1.76E-05,  avg # of iterations =  4.4

     negative rho (up, down):  0.103E+00 0.000E+00

     total cpu time spent up to now is     3404.5 secs

     total energy              =   -1566.06468693 Ry
     Harris-Foulkes estimate   =   -1566.08244884 Ry
     estimated scf accuracy    <       0.27638551 Ry

     iteration # 19     ecut=    40.00 Ry     beta=0.70
     Davidson diagonalization with overlap
     ethr =  1.76E-05,  avg # of iterations =  1.0

     negative rho (up, down):  0.103E+00 0.000E+00

     total cpu time spent up to now is     3549.6 secs

     total energy              =   -1566.07309742 Ry
     Harris-Foulkes estimate   =   -1566.07494518 Ry
     estimated scf accuracy    <       0.01973533 Ry

     iteration # 20     ecut=    40.00 Ry     beta=0.70
     Davidson diagonalization with overlap
     ethr =  9.22E-06,  avg # of iterations =  1.0

     negative rho (up, down):  0.103E+00 0.000E+00

     total cpu time spent up to now is     3702.7 secs

     total energy              =   -1566.07161781 Ry
     Harris-Foulkes estimate   =   -1566.07660980 Ry
     estimated scf accuracy    <       0.12433230 Ry

     iteration # 21     ecut=    40.00 Ry     beta=0.70
     Davidson diagonalization with overlap
     ethr =  9.22E-06,  avg # of iterations =  1.0

     negative rho (up, down):  0.103E+00 0.000E+00

     total cpu time spent up to now is     3847.3 secs

     total energy              =   -1566.07420247 Ry
     Harris-Foulkes estimate   =   -1566.07431311 Ry
     estimated scf accuracy    <       0.00072746 Ry

     iteration # 22     ecut=    40.00 Ry     beta=0.70
     Davidson diagonalization with overlap
     ethr =  3.40E-07,  avg # of iterations =  5.0

     negative rho (up, down):  0.103E+00 0.000E+00

     total cpu time spent up to now is     4014.3 secs

     total energy              =   -1566.07419588 Ry
     Harris-Foulkes estimate   =   -1566.07434179 Ry
     estimated scf accuracy    <       0.00085294 Ry

     iteration # 23     ecut=    40.00 Ry     beta=0.70
     Davidson diagonalization with overlap
     ethr =  3.40E-07,  avg # of iterations =  1.0

     negative rho (up, down):  0.103E+00 0.000E+00

     total cpu time spent up to now is     4162.1 secs

     total energy              =   -1566.07425396 Ry
     Harris-Foulkes estimate   =   -1566.07429070 Ry
     estimated scf accuracy    <       0.00018299 Ry

     iteration # 24     ecut=    40.00 Ry     beta=0.70
     Davidson diagonalization with overlap
     ethr =  8.55E-08,  avg # of iterations =  1.0

     negative rho (up, down):  0.103E+00 0.000E+00

     total cpu time spent up to now is     4306.1 secs

     total energy              =   -1566.07426710 Ry
     Harris-Foulkes estimate   =   -1566.07427551 Ry
     estimated scf accuracy    <       0.00003975 Ry

     iteration # 25     ecut=    40.00 Ry     beta=0.70
     Davidson diagonalization with overlap
     ethr =  1.86E-08,  avg # of iterations =  1.0

     negative rho (up, down):  0.103E+00 0.000E+00

     total cpu time spent up to now is     4449.6 secs

     total energy              =   -1566.07426537 Ry
     Harris-Foulkes estimate   =   -1566.07428051 Ry
     estimated scf accuracy    <       0.00009148 Ry

     iteration # 26     ecut=    40.00 Ry     beta=0.70
     Davidson diagonalization with overlap
     ethr =  1.86E-08,  avg # of iterations =  1.0

     negative rho (up, down):  0.103E+00 0.000E+00

     total cpu time spent up to now is     4593.5 secs

     total energy              =   -1566.07427201 Ry
     Harris-Foulkes estimate   =   -1566.07427339 Ry
     estimated scf accuracy    <       0.00000638 Ry

     iteration # 27     ecut=    40.00 Ry     beta=0.70
     Davidson diagonalization with overlap
     ethr =  2.98E-09,  avg # of iterations =  1.4

     negative rho (up, down):  0.103E+00 0.000E+00

     total cpu time spent up to now is     4750.3 secs

     total energy              =   -1566.07427049 Ry
     Harris-Foulkes estimate   =   -1566.07427525 Ry
     estimated scf accuracy    <       0.00006923 Ry

     iteration # 28     ecut=    40.00 Ry     beta=0.70
     Davidson diagonalization with overlap
     ethr =  2.98E-09,  avg # of iterations =  1.0

     negative rho (up, down):  0.103E+00 0.000E+00

     total cpu time spent up to now is     4894.9 secs

     total energy              =   -1566.07427260 Ry
     Harris-Foulkes estimate   =   -1566.07427317 Ry
     estimated scf accuracy    <       0.00000231 Ry

     iteration # 29     ecut=    40.00 Ry     beta=0.70
     Davidson diagonalization with overlap
     ethr =  1.08E-09,  avg # of iterations =  1.0

     negative rho (up, down):  0.103E+00 0.000E+00

     total cpu time spent up to now is     5036.3 secs

     total energy              =   -1566.07427241 Ry
     Harris-Foulkes estimate   =   -1566.07427314 Ry
     estimated scf accuracy    <       0.00000743 Ry

     iteration # 30     ecut=    40.00 Ry     beta=0.70
     Davidson diagonalization with overlap
     ethr =  1.08E-09,  avg # of iterations =  1.1

     negative rho (up, down):  0.103E+00 0.000E+00

     total cpu time spent up to now is     5177.2 secs

     total energy              =   -1566.07427117 Ry
     Harris-Foulkes estimate   =   -1566.07427467 Ry
     estimated scf accuracy    <       0.00008033 Ry

     iteration # 31     ecut=    40.00 Ry     beta=0.70
     Davidson diagonalization with overlap
     ethr =  1.08E-09,  avg # of iterations =  1.1

     negative rho (up, down):  0.103E+00 0.000E+00

     total cpu time spent up to now is     5318.9 secs

     End of self-consistent calculation
 --- enter write_ns ---
 LDA+U parameters:
U( 2)     =  1.50000000
alpha( 2) =  0.00000000
atom    3   Tr[ns(na)] =   2.83330
    eigenvalues: 
  0.183  0.201  0.220  0.385  0.428
    eigenvectors:
  0.033  0.722  0.067  0.168  0.009
  0.003  0.005  0.003  0.179  0.809
  0.617  0.000  0.382  0.001  0.000
  0.010  0.148  0.010  0.652  0.179
  0.336  0.125  0.537  0.000  0.002
    occupations:
  0.234  0.012 -0.004  0.070  0.003
  0.012  0.417  0.003 -0.024  0.011
 -0.004  0.003  0.198  0.006 -0.017
  0.070 -0.024  0.006  0.361 -0.002
  0.003  0.011 -0.017 -0.002  0.206
atom    4   Tr[ns(na)] =   2.91650
    eigenvalues: 
  0.174  0.213  0.228  0.416  0.427
    eigenvectors:
  0.006  0.002  0.000  0.001  0.991
  0.001  0.900  0.097  0.000  0.002
  0.000  0.096  0.903  0.000  0.000
  0.993  0.001  0.000  0.000  0.006
  0.000  0.000  0.000  0.999  0.001
    occupations:
  0.425  0.010  0.004 -0.019 -0.000
  0.010  0.215 -0.004  0.000 -0.002
  0.004 -0.004  0.226  0.000 -0.000
 -0.019  0.000  0.000  0.175 -0.000
 -0.000 -0.002 -0.000 -0.000  0.416
atom    9   Tr[ns(na)] =   2.89830
    eigenvalues: 
  0.179  0.220  0.239  0.385  0.426
    eigenvectors:
  0.000  0.000  0.924  0.076  0.000
  0.000  0.000  0.000  0.003  0.997
  0.999  0.001  0.000  0.000  0.000
  0.000  0.000  0.076  0.921  0.003
  0.001  0.999  0.000  0.000  0.000
    occupations:
  0.250  0.001 -0.000  0.039  0.000
  0.001  0.426  0.000 -0.003 -0.000
 -0.000  0.000  0.179 -0.000 -0.001
  0.039 -0.003 -0.000  0.374 -0.000
  0.000 -0.000 -0.001 -0.000  0.220
atom   10   Tr[ns(na)] =   2.81970
    eigenvalues: 
  0.182  0.228  0.241  0.329  0.430
    eigenvectors:
  0.016  0.000  0.000  0.984  0.000
  0.000  0.000  1.000  0.000  0.000
  0.000  1.000  0.000  0.000  0.000
  0.984  0.000  0.000  0.016  0.000
  0.000  0.000  0.000  0.000  1.000
    occupations:
  0.327 -0.000 -0.000 -0.019 -0.000
 -0.000  0.241 -0.000 -0.000 -0.000
 -0.000 -0.000  0.228 -0.000  0.000
 -0.019 -0.000 -0.000  0.185  0.000
 -0.000 -0.000  0.000  0.000  0.430
atom   16   Tr[ns(na)] =   2.83334
    eigenvalues: 
  0.183  0.201  0.220  0.385  0.428
    eigenvectors:
  0.033  0.721  0.069  0.168  0.009
  0.003  0.005  0.004  0.179  0.809
  0.619  0.000  0.380  0.001  0.000
  0.011  0.147  0.011  0.652  0.180
  0.334  0.127  0.536  0.001  0.002
    occupations:
  0.234 -0.012 -0.004  0.070 -0.003
 -0.012  0.417 -0.003  0.024  0.011
 -0.004 -0.003  0.198  0.007  0.017
  0.070  0.024  0.007  0.361  0.001
 -0.003  0.011  0.017  0.001  0.206
atom   17   Tr[ns(na)] =   2.90942
    eigenvalues: 
  0.174  0.210  0.228  0.415  0.428
    eigenvectors:
  0.006  0.003  0.000  0.000  0.991
  0.001  0.901  0.095  0.000  0.003
  0.000  0.095  0.905  0.000  0.000
  0.993  0.001  0.000  0.000  0.006
  0.000  0.000  0.000  1.000  0.000
    occupations:
  0.426  0.012  0.004 -0.019 -0.000
  0.012  0.212 -0.005  0.000 -0.002
  0.004 -0.005  0.226  0.000 -0.000
 -0.019  0.000  0.000  0.176 -0.000
 -0.000 -0.002 -0.000 -0.000  0.415
atom   22   Tr[ns(na)] =   2.89821
    eigenvalues: 
  0.179  0.220  0.239  0.385  0.426
    eigenvectors:
  0.000  0.000  0.924  0.076  0.000
  0.000  0.000  0.000  0.002  0.998
  0.999  0.001  0.000  0.000  0.000
  0.000  0.000  0.076  0.921  0.002
  0.001  0.999  0.000  0.000  0.000
    occupations:
  0.250 -0.001 -0.000  0.039  0.000
 -0.001  0.426  0.000  0.002 -0.000
 -0.000  0.000  0.179 -0.000  0.001
  0.039  0.002 -0.000  0.374 -0.000
  0.000 -0.000  0.001 -0.000  0.220
atom   23   Tr[ns(na)] =   3.03355
    eigenvalues: 
  0.125  0.298  0.310  0.346  0.438
    eigenvectors:
  0.003  0.000  0.000  0.000  0.997
  0.000  0.000  1.000  0.000  0.000
  0.000  1.000  0.000  0.000  0.000
  0.997  0.000  0.000  0.000  0.003
  0.000  0.000  0.000  1.000  0.000
    occupations:
  0.437 -0.000  0.000 -0.018 -0.000
 -0.000  0.310 -0.000 -0.000  0.000
  0.000 -0.000  0.298 -0.000  0.000
 -0.018 -0.000 -0.000  0.126  0.000
 -0.000  0.000  0.000  0.000  0.346
N of occupied +U levels =  23.1423205
 --- exit write_ns ---

          k = 0.0000 0.0000 0.0000 ( 29975 PWs)   bands (ev):

   -60.8339 -60.7952 -60.5044 -59.9819 -59.9405 -59.5579 -59.5172 -58.8417
   -37.3655 -37.0902 -37.0053 -36.9991 -36.9663 -36.9179 -36.8537 -36.7253
   -36.6761 -36.5895 -36.3002 -36.2002 -36.1403 -36.1099 -36.0903 -36.0528
   -35.8329 -35.8216 -35.7992 -35.7252 -35.5962 -35.2256 -35.1968 -35.1624
   -22.0591 -21.7151 -21.0536 -20.8703 -20.4306 -20.3463 -20.1156 -20.1040
   -19.9289 -19.8761 -19.6191 -19.6012 -19.5950 -19.5856 -19.2836 -19.2089
   -18.8001 -18.7160 -17.9526  -9.8592  -9.4722  -8.7271  -8.6637  -7.9875
    -7.9555  -7.8824  -7.5555  -7.4508  -7.4174  -7.3207  -7.2357  -7.1568
    -7.0822  -7.0024  -6.9582  -6.8325  -6.7927  -6.7815  -6.5779  -6.5253
    -6.3840  -6.1849  -6.0543  -5.9598  -5.9114  -5.7435  -5.5642  -5.4652
    -5.3532  -5.3105  -5.2928  -5.2548  -5.1051  -5.0687  -4.9908  -4.8620
    -4.7689  -4.6540  -4.5936  -4.4318  -4.3733  -4.3556  -4.3309  -4.2494
    -4.1654  -4.1171  -4.0435  -3.9997  -3.7730  -3.7430  -3.6608  -3.5754
    -3.5431  -3.5092  -3.3320  -3.1842  -1.1330  -0.9321  -0.7874  -0.7747
    -0.7130  -0.5417  -0.3704  -0.1379  -0.0715  -0.0086   0.1049   0.2348
     0.3007   0.3819   0.4081   0.5160   0.5586   0.7115   0.8610   0.9244
     1.0716   1.2988   1.4200   1.6506   1.6935   1.8340   1.9598   2.1419
     2.2244   2.3207   2.4477   2.5536   2.8226   2.8999   3.0293   3.2789
     3.5060   3.5603   3.5995   3.7025   3.7653   3.9728   4.1181   4.2962
     4.6950   5.0911   5.5276   5.6211   5.6901   6.0705   6.1686   6.6913
     6.9584   7.1286   7.1754   7.2775   7.4008   7.5468   7.5740   7.7391
     7.8223   7.8566   7.9355   8.1167   8.2265   8.2382   8.2609   8.4239
     8.5483   8.5925   8.6525   8.7483   8.8119   8.8776   8.9412   9.0044
     9.0676   9.2318   9.3594   9.3978   9.4043   9.6355   9.7590   9.8818
     9.9423  10.1040  10.3386  10.4519  10.5808  10.6254  10.6754  10.7222
    10.8000  10.9552  10.9777  11.0390  11.1119  11.1314  11.2162  11.2888
    11.3288  11.3829  11.3850  11.4616  11.5369  11.6044  11.6953  11.7563
    11.8627  11.9180  11.9628  12.0297  12.1301  12.1577  12.2161  12.3030
    12.3701  12.4107  12.4884  12.5351  12.6236  12.6500  12.7784  12.8492
    12.9669  12.9890  13.0625  13.2415  13.2711  13.3079  13.3888  13.5808
    13.6157  13.6684  13.7031  13.7843  13.8758  13.9715  13.9980  14.0806
    14.2115  14.3875  14.4454  14.5346  14.6625  14.7134  14.7597  14.7692
    14.8435  15.0209  15.0476  15.1358  15.2496  15.3963  15.4785  15.5531
    15.5757  15.6167  15.8999  16.0292  16.0795  16.2084  16.2798  16.3130
    16.4074  16.4183  16.5905  16.5984  16.7136  16.8805  16.9184  17.0899
    17.1484  17.1864  17.3845  17.4899  17.5106  17.5803  17.6024  17.6435
    17.6511  17.7285  17.8844  17.9004  18.0041  18.0688  18.1439  18.1465
    18.1733  18.2076  18.2364  18.2765  18.4166  18.5103  18.6286  18.6704
    18.7559  18.8418  18.8808  18.9858  19.0799

          k = 0.0000 0.2258 0.0000 ( 29933 PWs)   bands (ev):

   -60.8339 -60.7952 -60.5044 -59.9820 -59.9405 -59.5579 -59.5172 -58.8417
   -37.3657 -37.0902 -37.0020 -36.9991 -36.9699 -36.9179 -36.8537 -36.7261
   -36.6750 -36.5856 -36.3040 -36.2001 -36.1404 -36.1099 -36.0903 -36.0528
   -35.8330 -35.8216 -35.7991 -35.7252 -35.5961 -35.2255 -35.1959 -35.1639
   -22.0478 -21.7139 -21.0215 -20.8648 -20.3400 -20.3211 -20.2242 -20.1123
   -19.9617 -19.7608 -19.7206 -19.7116 -19.6734 -19.4614 -19.2905 -19.2092
   -18.7979 -18.7146 -17.9526  -9.8573  -9.4780  -8.7136  -8.4128  -7.9346
    -7.8802  -7.7996  -7.7225  -7.4736  -7.4063  -7.3363  -7.2443  -7.1252
    -7.0468  -6.9072  -6.8206  -6.7803  -6.6942  -6.5410  -6.4997  -6.4462
    -6.4243  -6.1822  -6.1061  -6.0403  -5.8849  -5.7575  -5.6221  -5.5896
    -5.4863  -5.4479  -5.3714  -5.2886  -5.1431  -5.0782  -5.0298  -4.7915
    -4.7635  -4.7352  -4.6548  -4.6212  -4.5342  -4.4842  -4.3084  -4.2003
    -4.1723  -4.0758  -4.0013  -3.9811  -3.9582  -3.7833  -3.7527  -3.6368
    -3.5594  -3.5321  -3.4700  -3.2786  -1.0535  -1.0203  -0.7748  -0.7444
    -0.4704  -0.3948  -0.3309  -0.3154  -0.0743   0.0101   0.1947   0.2842
     0.3051   0.3884   0.4981   0.5090   0.6927   0.7377   0.8385   0.9165
     1.1118   1.3008   1.3672   1.4379   1.8408   1.8564   1.9174   2.0681
     2.2186   2.3542   2.4753   2.5130   2.8582   3.2503   3.3179   3.3393
     3.3849   3.5824   3.6520   3.7880   3.8033   4.1247   4.1731   4.3385
     4.5764   4.9333   5.5221   5.6402   5.7502   5.8672   6.0614   6.2951
     6.3009   6.6630   6.9620   7.0789   7.1443   7.3287   7.4411   7.7322
     7.7831   8.0555   8.2296   8.2894   8.3630   8.4066   8.6163   8.6565
     8.6926   8.7695   8.8733   8.8979   8.9171   9.0108   9.1211   9.2110
     9.4048   9.4559   9.4928   9.5607   9.6748   9.7185   9.8201   9.8916
     9.9098  10.0418  10.1021  10.2294  10.2870  10.3935  10.4931  10.5153
    10.5678  10.6972  10.8026  10.8584  10.9353  11.0135  11.0785  11.1260
    11.1697  11.2043  11.3620  11.4844  11.5265  11.6189  11.7714  11.8416
    11.8762  12.0869  12.2050  12.2652  12.3385  12.3918  12.4574  12.5115
    12.5832  12.6042  12.6999  12.7927  12.9189  12.9550  13.0884  13.1677
    13.2675  13.3029  13.4136  13.4446  13.5343  13.5421  13.6529  13.7240
    13.7963  13.8106  13.8579  13.9015  13.9722  14.0627  14.0959  14.1490
    14.2872  14.3716  14.3912  14.4837  14.5176  14.6186  14.7123  14.7804
    14.8685  14.9434  15.0287  15.0682  15.1560  15.2350  15.3548  15.4149
    15.4293  15.5381  15.5899  15.6610  15.7569  15.8295  16.0261  16.0878
    16.1515  16.3361  16.3882  16.4499  16.5153  16.5988  16.6590  16.7583
    16.7875  16.9185  16.9867  17.1233  17.1464  17.1713  17.4614  17.6064
    17.6308  17.6516  17.6829  17.7911  17.8581  18.0022  18.0805  18.1877
    18.2027  18.2743  18.2919  18.3635  18.3961  18.5004  18.5916  18.6611
    18.7236  18.8151  18.8917  18.9019  19.0167

          k = 0.0000-0.4516 0.0000 ( 29906 PWs)   bands (ev):

   -60.8340 -60.7952 -60.5044 -59.9820 -59.9404 -59.5580 -59.5172 -58.8417
   -37.3659 -37.0902 -36.9993 -36.9985 -36.9733 -36.9178 -36.8537 -36.7268
   -36.6740 -36.5818 -36.3078 -36.2000 -36.1404 -36.1099 -36.0903 -36.0528
   -35.8331 -35.8216 -35.7989 -35.7252 -35.5961 -35.2254 -35.1951 -35.1654
   -22.0367 -21.7128 -20.9877 -20.8582 -20.2983 -20.2884 -20.1878 -20.1131
   -19.9945 -19.9060 -19.7840 -19.7245 -19.6731 -19.4070 -19.2940 -19.2096
   -18.7960 -18.7134 -17.9527  -9.8539  -9.4842  -8.6998  -8.1562  -7.9739
    -7.8780  -7.7930  -7.5049  -7.4711  -7.4027  -7.3848  -7.0832  -7.0123
    -7.0080  -6.9877  -6.7058  -6.6435  -6.5707  -6.5701  -6.4320  -6.2316
    -6.2219  -6.2018  -6.1373  -6.0450  -6.0193  -5.9614  -5.8118  -5.7398
    -5.7018  -5.5921  -5.4395  -5.4075  -5.2942  -5.0221  -4.9689  -4.9294
    -4.8251  -4.7299  -4.6575  -4.6036  -4.5557  -4.4975  -4.4086  -4.2216
    -4.1977  -4.1866  -4.1099  -4.0041  -3.9199  -3.7480  -3.7370  -3.6276
    -3.6177  -3.6107  -3.5041  -3.3525  -1.2262  -1.0286  -0.8125  -0.5578
    -0.5299  -0.3533  -0.1872  -0.1851  -0.0511   0.0710   0.1191   0.3040
     0.3949   0.4487   0.4672   0.6087   0.7209   0.7485   0.7967   1.0049
     1.1385   1.2802   1.3023   1.3554   1.7472   1.8798   1.9953   2.0591
     2.2427   2.3812   2.4991   2.6075   2.9937   3.2519   3.2551   3.4062
     3.5217   3.5636   3.7785   3.8128   3.8401   4.1302   4.4048   4.5733
     4.6904   5.0163   5.1330   5.3757   5.5609   5.7670   5.8030   6.2566
     6.3441   6.5303   6.5997   6.6985   6.7038   7.2753   7.7238   7.7991
     7.9010   7.9971   8.2531   8.3074   8.4032   8.4832   8.6642   8.7979
     8.8772   8.9283   8.9415   8.9705   8.9851   9.1557   9.2120   9.2747
     9.3125   9.3854   9.4779   9.4799   9.6051   9.6169   9.7906   9.8973
     9.9354  10.0477  10.0783  10.1768  10.3653  10.5533  10.6243  10.6474
    10.6918  10.8252  10.9736  11.0213  11.0591  11.1095  11.1832  11.2618
    11.4145  11.4333  11.5022  11.7404  11.7652  11.8025  11.8555  11.9026
    11.9111  12.0050  12.0196  12.0755  12.2233  12.3373  12.3929  12.4625
    12.6569  12.6673  12.7258  12.8140  12.8898  12.9558  12.9817  13.0682
    13.1553  13.2005  13.2386  13.4230  13.4577  13.5387  13.5955  13.6565
    13.7571  13.7675  13.9003  13.9664  13.9971  14.1184  14.1498  14.4547
    14.5836  14.6313  14.6642  14.7191  14.7478  14.7497  14.7859  14.8359
    15.0939  15.1563  15.1961  15.2415  15.2768  15.3453  15.3896  15.5413
    15.5958  15.6631  15.6837  15.7810  15.8222  15.8919  16.0121  16.0997
    16.1185  16.1377  16.3041  16.3670  16.4233  16.5036  16.5575  16.6614
    16.7202  16.8403  16.8653  16.9915  17.0228  17.0667  17.1520  17.2020
    17.2913  17.3286  17.5220  17.5524  17.5924  17.6552  17.7248  17.7374
    17.7641  17.8199  17.9840  17.9956  18.0097  18.0324  18.1355  18.1567
    18.1721  18.5243  18.5659  18.6592  18.7028

          k = 0.2500 0.0000 0.0000 ( 29937 PWs)   bands (ev):

   -60.8285 -60.8011 -60.5045 -59.9766 -59.9464 -59.5522 -59.5234 -58.8419
   -37.3050 -37.0784 -37.0248 -36.9994 -36.9719 -36.9690 -36.8529 -36.7187
   -36.6756 -36.5252 -36.2861 -36.2151 -36.2058 -36.1067 -36.0839 -35.9996
   -35.8282 -35.8121 -35.8040 -35.7370 -35.6625 -35.2251 -35.2049 -35.1629
   -21.9853 -21.7265 -21.0478 -20.7888 -20.3302 -20.2913 -20.2333 -20.0393
   -20.0015 -19.8929 -19.7223 -19.6886 -19.5446 -19.4896 -19.3240 -19.1790
   -18.8673 -18.7858 -17.9518  -9.8123  -9.5376  -8.5186  -8.4921  -8.0323
    -7.8706  -7.7337  -7.6057  -7.5680  -7.5100  -7.3902  -7.2759  -7.1296
    -7.0519  -6.9563  -6.8911  -6.8622  -6.8172  -6.6547  -6.6141  -6.4677
    -6.2526  -6.1521  -6.0556  -5.9207  -5.7283  -5.6496  -5.6094  -5.5105
    -5.4749  -5.4127  -5.2854  -5.1888  -5.0503  -4.9981  -4.9572  -4.9254
    -4.8880  -4.8148  -4.7329  -4.5986  -4.5700  -4.4974  -4.4496  -4.1998
    -4.1640  -4.1381  -4.0691  -3.9480  -3.9065  -3.7494  -3.6741  -3.6239
    -3.5422  -3.5295  -3.4650  -3.2654  -1.0172  -0.8984  -0.7890  -0.7027
    -0.6290  -0.4303  -0.3121  -0.1739  -0.1229   0.0060   0.1330   0.2008
     0.2253   0.3105   0.4373   0.5745   0.6096   0.8260   0.8938   0.9630
     1.0881   1.2534   1.3161   1.7343   1.7428   1.8223   1.9267   2.1100
     2.2094   2.4892   2.5153   2.6603   2.8584   2.8983   3.0507   3.2603
     3.2941   3.3956   3.6568   3.7157   3.8101   3.8746   4.2880   4.5316
     4.5938   4.9622   5.3733   5.8406   5.8945   5.9627   6.3258   6.3331
     6.5638   6.8270   7.0448   7.2366   7.3161   7.4152   7.4443   7.5948
     7.7116   7.7612   7.8454   8.0230   8.0912   8.2033   8.2254   8.3138
     8.4720   8.6399   8.8188   8.8936   8.9414   9.0624   9.1033   9.1629
     9.2599   9.4363   9.4726   9.5498   9.5847   9.6953   9.8529   9.9680
    10.0096  10.0619  10.1390  10.3001  10.3531  10.4500  10.5371  10.6056
    10.6922  10.7861  10.8308  10.8802  10.9690  11.0310  11.0389  11.1728
    11.2516  11.3402  11.3958  11.4666  11.5774  11.5906  11.6809  11.7235
    11.8874  11.9739  12.0677  12.1854  12.2203  12.3676  12.4968  12.5327
    12.6415  12.6906  12.7399  12.8338  12.9188  13.0425  13.1135  13.2609
    13.2997  13.3990  13.4847  13.5471  13.6914  13.7084  13.7938  13.8484
    13.9551  14.0294  14.1238  14.1749  14.2749  14.3068  14.4016  14.4576
    14.4930  14.6199  14.6430  14.6844  14.7317  14.8227  14.9397  15.0353
    15.1201  15.1395  15.2395  15.3112  15.3323  15.3687  15.5845  15.6288
    15.6750  15.7538  15.8359  15.8617  15.9730  16.0084  16.1170  16.2723
    16.2952  16.4590  16.5677  16.6261  16.6556  16.7866  16.8192  16.8713
    16.9724  17.0461  17.1091  17.1825  17.2758  17.3640  17.4388  17.4573
    17.5307  17.5723  17.7015  17.8073  17.8380  17.8730  17.9077  18.0266
    18.0848  18.1600  18.2022  18.2960  18.3305  18.4146  18.4759  18.5362
    18.5707  18.7038  18.7615  18.8213  18.8743

          k = 0.2500 0.2258 0.0000 ( 29912 PWs)   bands (ev):

   -60.8286 -60.8011 -60.5045 -59.9767 -59.9464 -59.5522 -59.5234 -58.8418
   -37.3052 -37.0784 -37.0248 -36.9969 -36.9741 -36.9690 -36.8529 -36.7194
   -36.6745 -36.5222 -36.2894 -36.2156 -36.2054 -36.1067 -36.0839 -35.9996
   -35.8281 -35.8121 -35.8041 -35.7370 -35.6625 -35.2250 -35.2039 -35.1644
   -21.9772 -21.7252 -21.0312 -20.7664 -20.2868 -20.2400 -20.2216 -20.1444
   -19.9745 -19.8449 -19.7481 -19.7335 -19.6222 -19.5294 -19.3044 -19.1786
   -18.8658 -18.7847 -17.9516  -9.8083  -9.5328  -8.5097  -8.2473  -8.0020
    -7.7580  -7.6600  -7.6292  -7.5554  -7.3591  -7.3166  -7.2439  -7.1349
    -7.0422  -6.9584  -6.8395  -6.8145  -6.7611  -6.6690  -6.5195  -6.4489
    -6.2864  -6.1961  -6.0521  -5.9086  -5.7520  -5.7001  -5.6275  -5.5157
    -5.5040  -5.4558  -5.3906  -5.2541  -5.2364  -5.1673  -5.0845  -5.0067
    -4.9703  -4.8680  -4.7970  -4.6812  -4.6323  -4.5034  -4.4442  -4.2292
    -4.2005  -4.1230  -4.0976  -3.9614  -3.9328  -3.8314  -3.6916  -3.6357
    -3.5959  -3.5014  -3.4587  -3.3031  -0.9862  -0.9490  -0.8371  -0.7106
    -0.4038  -0.3303  -0.2469  -0.2151  -0.1072   0.0550   0.1411   0.2500
     0.2950   0.3517   0.5696   0.6072   0.6745   0.8057   0.9257   1.0028
     1.1118   1.2278   1.2646   1.5291   1.7849   1.8657   1.9567   2.0461
     2.1860   2.2373   2.5549   2.7528   2.9115   3.0920   3.1394   3.1714
     3.3469   3.4912   3.6608   3.7742   3.8589   4.0519   4.4705   4.5967
     4.6573   4.8709   5.2382   5.7880   5.9324   6.0116   6.1457   6.3181
     6.3694   6.5581   6.7517   6.9014   7.0177   7.2668   7.3026   7.4412
     7.6129   7.6857   7.7467   7.8975   7.9269   8.0463   8.2111   8.3199
     8.5113   8.6609   8.7466   8.7961   9.0018   9.1466   9.2129   9.2938
     9.3740   9.4975   9.6023   9.6145   9.7169   9.8428   9.9376   9.9761
    10.0447  10.2754  10.3601  10.4589  10.5828  10.6852  10.7866  10.8212
    10.9257  11.0147  11.0659  11.1263  11.1467  11.2790  11.3636  11.3883
    11.4357  11.5178  11.6440  11.7043  11.7779  11.8594  11.9377  12.0265
    12.0590  12.0811  12.1574  12.2502  12.3827  12.4393  12.4938  12.5207
    12.5963  12.7474  12.8302  12.9042  12.9536  13.0374  13.0698  13.1904
    13.3121  13.3914  13.4197  13.5107  13.5828  13.6395  13.6987  13.7722
    13.8206  13.8909  13.9816  14.0577  14.0954  14.1984  14.2870  14.3237
    14.4244  14.5229  14.5802  14.6161  14.7005  14.7568  14.8337  14.9875
    15.0886  15.1630  15.2136  15.2807  15.3765  15.4349  15.4937  15.5741
    15.6323  15.7293  15.7553  15.8503  15.9011  16.0221  16.0516  16.0883
    16.1967  16.2173  16.3291  16.3707  16.4691  16.5979  16.6927  16.7167
    16.7581  16.8500  16.8783  16.9155  16.9754  17.0400  17.1027  17.1893
    17.2627  17.3346  17.3852  17.4456  17.5087  17.5772  17.6581  17.6968
    17.7888  17.8308  17.9633  18.0330  18.0759  18.1777  18.2486  18.3164
    18.3939  18.4949  18.5834  18.6104  18.6483

          k = 0.2500-0.4516 0.0000 ( 29882 PWs)   bands (ev):

   -60.8286 -60.8011 -60.5045 -59.9767 -59.9463 -59.5522 -59.5234 -58.8418
   -37.3053 -37.0784 -37.0248 -36.9944 -36.9762 -36.9690 -36.8530 -36.7201
   -36.6735 -36.5194 -36.2924 -36.2160 -36.2053 -36.1066 -36.0839 -35.9996
   -35.8283 -35.8121 -35.8040 -35.7370 -35.6625 -35.2248 -35.2030 -35.1660
   -21.9694 -21.7237 -21.0158 -20.7392 -20.2528 -20.2199 -20.2076 -20.1098
   -19.9889 -19.8267 -19.7985 -19.7818 -19.7459 -19.5181 -19.2944 -19.1781
   -18.8648 -18.7838 -17.9514  -9.8033  -9.5296  -8.4970  -8.0803  -7.8483
    -7.7617  -7.6502  -7.5633  -7.3207  -7.2675  -7.2354  -7.2131  -7.1795
    -7.0368  -6.8921  -6.8145  -6.7289  -6.6191  -6.5370  -6.4971  -6.3581
    -6.2858  -6.2387  -6.0881  -6.0361  -5.9173  -5.7888  -5.7674  -5.6787
    -5.5869  -5.5094  -5.4636  -5.3939  -5.3782  -5.3420  -5.1903  -5.1690
    -4.9595  -4.9171  -4.8220  -4.7806  -4.6934  -4.4346  -4.2754  -4.2525
    -4.1802  -4.1499  -4.1142  -4.0258  -3.9602  -3.8931  -3.7369  -3.6417
    -3.5495  -3.4701  -3.4456  -3.3662  -1.1119  -0.9603  -0.8264  -0.6415
    -0.5234  -0.2734  -0.1310  -0.1145   0.0488   0.1256   0.1380   0.3017
     0.3547   0.4344   0.5942   0.6965   0.7226   0.7736   0.9805   1.0521
     1.1001   1.2210   1.2558   1.3474   1.7043   1.8119   1.9933   2.0120
     2.2353   2.2488   2.5777   2.7152   2.8549   2.9420   3.2978   3.3493
     3.5335   3.5905   3.6203   3.8341   3.8764   3.9987   4.6778   4.8421
     4.8506   4.9736   5.2901   5.4102   5.6538   5.7595   5.8552   6.1154
     6.5379   6.6166   6.7097   6.8668   6.9257   6.9958   7.2039   7.3392
     7.4105   7.6148   7.6513   7.7343   7.9759   8.0373   8.1038   8.1144
     8.2375   8.4531   8.5558   8.6038   8.8051   8.9438   9.2031   9.2918
     9.3663   9.6232   9.8258   9.8607   9.8989   9.9501  10.1755  10.2460
    10.3692  10.7892  10.8201  10.9026  10.9363  11.0033  11.0288  11.0650
    11.2394  11.2764  11.3007  11.4037  11.4168  11.4800  11.5656  11.6312
    11.6964  11.7292  11.7968  11.9001  11.9671  11.9900  12.0380  12.1139
    12.1843  12.2130  12.2903  12.3473  12.3802  12.5062  12.6036  12.6305
    12.7001  12.7827  12.8434  12.9206  13.0596  13.0918  13.1366  13.1606
    13.2773  13.3254  13.3437  13.4554  13.4810  13.5276  13.6140  13.7160
    13.7756  13.8091  13.8619  13.9358  14.0067  14.0605  14.1166  14.1610
    14.2695  14.3060  14.3437  14.5056  14.6087  14.6677  14.7549  14.7888
    14.8112  14.8868  14.9639  15.0384  15.0880  15.1764  15.1985  15.2444
    15.3004  15.4001  15.5283  15.5654  15.6359  15.6757  15.7732  15.8548
    15.9437  16.0990  16.1942  16.4306  16.4675  16.5574  16.5900  16.6035
    16.6883  16.7854  16.8638  16.9069  16.9548  17.0593  17.1203  17.2169
    17.2737  17.3831  17.4065  17.4401  17.5543  17.5963  17.6253  17.6714
    17.7241  17.8765  17.9137  18.0538  18.0906  18.1839  18.2089  18.2334
    18.3649  18.4187  18.4385  18.4818  18.5794

          k =-0.5000 0.0000 0.0000 ( 29982 PWs)   bands (ev):

   -60.8158 -60.8144 -60.5046 -59.9671 -59.9565 -59.5384 -59.5376 -58.8420
   -37.1632 -37.1565 -37.0371 -37.0247 -36.9860 -36.9852 -36.8524 -36.7121
   -36.6751 -36.3759 -36.3592 -36.2511 -36.2495 -36.0974 -36.0910 -35.8551
   -35.8481 -35.8191 -35.8132 -35.7584 -35.7560 -35.2238 -35.2139 -35.1633
   -21.8790 -21.7670 -21.0625 -20.5518 -20.5063 -20.2000 -20.1195 -20.0524
   -20.0380 -19.8852 -19.8602 -19.8548 -19.4733 -19.3947 -19.2800 -19.2238
   -18.9621 -18.8565 -17.9510  -9.7518  -9.6131  -8.1680  -8.1572  -8.0523
    -7.8711  -7.8481  -7.6985  -7.6826  -7.6240  -7.5193  -7.4301  -7.0609
    -7.0319  -6.8627  -6.8229  -6.6564  -6.6245  -6.5607  -6.4157  -6.3556
    -6.1095  -6.0649  -6.0075  -5.9740  -5.9234  -5.9014  -5.7143  -5.5328
    -5.4915  -5.4831  -5.3180  -5.2587  -5.1682  -5.0580  -4.9557  -4.9135
    -4.8693  -4.8260  -4.8052  -4.7844  -4.6801  -4.5169  -4.4215  -4.2874
    -4.2727  -4.2318  -4.0907  -4.0687  -3.7363  -3.7193  -3.7008  -3.6101
    -3.6086  -3.5361  -3.5094  -3.3923  -1.0076  -0.8264  -0.7873  -0.6688
    -0.3745  -0.3237  -0.2590  -0.2392  -0.1759  -0.0450   0.0543   0.1971
     0.2473   0.2502   0.3295   0.7593   0.7858   0.8219   0.8465   1.0357
     1.0795   1.1297   1.2615   1.6844   1.8138   1.8844   1.9555   2.0684
     2.1250   2.5696   2.8598   2.9200   2.9285   2.9457   2.9762   3.0860
     3.1692   3.3714   3.3982   3.5345   3.8012   3.8108   4.6192   4.6376
     5.0122   5.1757   5.2574   5.5187   5.6789   5.8042   6.0999   6.1905
     6.5475   6.6692   6.7733   6.9487   7.0777   7.0862   7.5287   7.9051
     7.9106   7.9458   8.0859   8.1366   8.2241   8.2246   8.4420   8.4777
     8.5842   8.6351   8.6854   8.7654   8.8161   8.8708   8.9265   9.0706
     9.1172   9.3226   9.4298   9.5977   9.6397   9.6839   9.7136   9.7589
     9.8242   9.8582   9.9379  10.0424  10.0606  10.3022  10.3901  10.4808
    10.5335  10.7267  10.7859  10.9628  11.0379  11.1095  11.2968  11.3543
    11.5281  11.6250  11.6533  11.7473  11.7582  11.8024  11.9365  12.1010
    12.1564  12.2626  12.2739  12.5055  12.5450  12.6508  12.7555  12.7869
    12.8978  12.9261  12.9688  13.0912  13.1950  13.2490  13.3644  13.4303
    13.4589  13.6438  13.6886  13.7414  13.8663  13.8767  14.0367  14.0974
    14.1244  14.1516  14.1983  14.3282  14.3564  14.4426  14.4507  14.4619
    14.5451  14.6857  14.8414  14.9805  15.0356  15.0548  15.1105  15.2134
    15.2652  15.3702  15.3760  15.4728  15.5412  15.5876  15.6917  15.8193
    15.8552  15.8742  15.9511  16.0627  16.1277  16.1730  16.2593  16.2822
    16.4652  16.4824  16.5833  16.6423  16.6994  16.7441  16.8179  16.8991
    16.9080  16.9698  17.0130  17.0480  17.0821  17.2364  17.2480  17.3778
    17.4071  17.4930  17.6268  17.6368  17.7200  17.8665  17.8799  17.9013
    17.9486  17.9798  18.0171  18.0932  18.1228  18.2473  18.2783  18.3330
    18.3629  18.3720  18.3857  18.5060  18.5598

          k =-0.5000 0.2258 0.0000 ( 29954 PWs)   bands (ev):

   -60.8159 -60.8144 -60.5046 -59.9671 -59.9565 -59.5384 -59.5377 -58.8420
   -37.1633 -37.1566 -37.0371 -37.0247 -36.9855 -36.9847 -36.8524 -36.7128
   -36.6741 -36.3746 -36.3579 -36.2528 -36.2512 -36.0974 -36.0910 -35.8553
   -35.8480 -35.8169 -35.8155 -35.7584 -35.7560 -35.2237 -35.2128 -35.1649
   -21.8761 -21.7640 -21.0550 -20.5099 -20.4865 -20.2014 -20.1032 -20.0034
   -19.9760 -19.9291 -19.9163 -19.8362 -19.5616 -19.5195 -19.2493 -19.2101
   -18.9575 -18.8553 -17.9506  -9.7434  -9.6045  -8.1059  -8.0637  -8.0224
    -7.7370  -7.7194  -7.6897  -7.5863  -7.4283  -7.3894  -7.2291  -7.0147
    -6.9688  -6.8905  -6.8041  -6.6515  -6.6139  -6.5898  -6.5208  -6.3512
    -6.2958  -6.1632  -6.0495  -6.0343  -5.9343  -5.9226  -5.8159  -5.6180
    -5.5496  -5.4661  -5.3892  -5.3606  -5.2057  -5.1737  -5.0767  -5.0537
    -4.9838  -4.9405  -4.8058  -4.7482  -4.7124  -4.6533  -4.6174  -4.2368
    -4.2135  -4.1591  -4.0555  -4.0491  -3.8396  -3.7447  -3.6985  -3.6784
    -3.5760  -3.5396  -3.4011  -3.3964  -0.9952  -0.8346  -0.8250  -0.7323
    -0.4302  -0.2109  -0.1688  -0.1625   0.0237   0.0871   0.0922   0.1262
     0.2716   0.3943   0.4592   0.7315   0.8137   0.9060   0.9568   1.0544
     1.0592   1.1451   1.1476   1.6966   1.7681   1.8029   1.9482   1.9985
     2.1399   2.2863   2.7142   2.7639   2.7832   3.0319   3.0460   3.2336
     3.3897   3.5320   3.5705   3.5818   3.8347   3.8477   4.7859   4.8020
     5.1557   5.2188   5.2582   5.5227   5.6251   5.8298   6.0270   6.1749
     6.5264   6.5973   6.7164   6.7653   6.9205   6.9820   7.0571   7.2318
     7.2908   7.4791   7.6206   7.8116   7.8854   8.0616   8.1200   8.2639
     8.3186   8.4416   8.5449   8.6407   8.7624   8.8914   9.2799   9.4630
     9.5388   9.6878   9.7322   9.8320   9.8929   9.9127  10.0078  10.0847
    10.2303  10.2933  10.3206  10.5267  10.5975  10.6679  10.7719  10.8347
    10.8643  10.9733  11.0832  11.1930  11.2866  11.3482  11.4293  11.5614
    11.6590  11.7840  11.8393  11.9229  12.0013  12.0535  12.1075  12.1572
    12.2508  12.3680  12.5541  12.5819  12.7063  12.7948  12.8526  12.9366
    13.0639  13.0833  13.1823  13.2239  13.2534  13.3165  13.3838  13.4552
    13.4927  13.5288  13.6247  13.6719  13.8754  13.9701  13.9943  14.0147
    14.0408  14.0634  14.1291  14.2454  14.2830  14.3572  14.3889  14.4560
    14.5212  14.7846  14.8317  14.8936  14.9257  14.9440  14.9787  15.0027
    15.1543  15.1764  15.2363  15.2696  15.3079  15.3338  15.4019  15.5082
    15.5181  15.5612  15.5883  15.7048  15.7300  15.8011  15.8373  15.8731
    15.9523  15.9678  16.0191  16.1102  16.2614  16.3036  16.3621  16.4229
    16.4666  16.5132  16.5525  16.6720  16.7378  16.7988  16.8427  16.9253
    16.9411  17.0152  17.1768  17.1930  17.2358  17.3277  17.3501  17.4866
    17.5428  17.6013  17.6528  17.7866  17.9543  17.9885  18.1412  18.2124
    18.2392  18.2679  18.3109  18.3861  18.4314

          k =-0.5000-0.4516 0.0000 ( 29868 PWs)   bands (ev):

   -60.8159 -60.8144 -60.5046 -59.9671 -59.9565 -59.5384 -59.5377 -58.8420
   -37.1634 -37.1567 -37.0370 -37.0247 -36.9851 -36.9843 -36.8524 -36.7134
   -36.6731 -36.3733 -36.3566 -36.2546 -36.2530 -36.0974 -36.0910 -35.8555
   -35.8480 -35.8179 -35.8146 -35.7583 -35.7560 -35.2236 -35.2116 -35.1666
   -21.8731 -21.7609 -21.0475 -20.4644 -20.4570 -20.2055 -20.0531 -20.0323
   -20.0121 -19.9038 -19.8189 -19.7509 -19.7257 -19.7042 -19.2355 -19.2004
   -18.9536 -18.8543 -17.9501  -9.7350  -9.5958  -8.0900  -8.0442  -7.9947
    -7.6986  -7.4691  -7.4195  -7.3759  -7.2726  -7.1068  -7.0390  -7.0137
    -6.9000  -6.8699  -6.8269  -6.7992  -6.6940  -6.5671  -6.4730  -6.4044
    -6.3655  -6.2744  -6.2346  -6.1508  -6.0391  -5.9269  -5.6960  -5.6912
    -5.6671  -5.6614  -5.5858  -5.5157  -5.3547  -5.3272  -5.2628  -5.1824
    -5.1062  -4.9509  -4.9303  -4.7304  -4.6473  -4.6039  -4.5439  -4.2594
    -4.1956  -4.1593  -4.1127  -3.9755  -3.9527  -3.7329  -3.6873  -3.6542
    -3.5077  -3.4886  -3.4283  -3.3596  -0.9818  -0.8648  -0.8337  -0.7734
    -0.5061  -0.2214  -0.1651  -0.0723   0.0761   0.1593   0.3336   0.3391
     0.3555   0.5328   0.5589   0.6458   0.8167   0.9412   1.0434   1.0524
     1.0702   1.1459   1.2225   1.5484   1.5795   1.6991   1.7379   2.1135
     2.1493   2.2466   2.4204   2.8525   2.8580   2.9501   2.9911   3.3802
     3.4577   3.6032   3.7461   3.7840   3.9435   3.9599   4.6483   4.6546
     5.4511   5.4636   5.4650   5.6470   5.6490   6.0403   6.0481   6.1442
     6.1663   6.3682   6.3911   6.5115   6.5882   6.7246   6.8868   7.0001
     7.2063   7.2981   7.3945   7.5901   7.6732   7.7077   7.7497   7.8701
     8.1747   8.5450   8.7072   8.8371   8.8678   8.9712   9.0282   9.1325
     9.1959   9.3005   9.8343   9.9067   9.9724  10.3206  10.3943  10.5021
    10.5948  10.6063  10.8023  10.8272  10.9141  10.9780  11.2641  11.5170
    11.5640  11.6036  11.6119  11.6848  11.8585  11.9350  12.0427  12.0501
    12.0651  12.1863  12.2000  12.2875  12.3090  12.4088  12.4646  12.5050
    12.5118  12.6301  12.6491  12.7238  12.7810  12.8866  12.9019  12.9920
    13.0004  13.0564  13.1099  13.1709  13.2058  13.2261  13.3041  13.3113
    13.4840  13.5933  13.6134  13.6403  13.7255  13.7676  13.7886  13.8548
    13.8746  13.8835  13.9490  14.0559  14.1217  14.1235  14.2358  14.2684
    14.4123  14.4305  14.4756  14.4952  14.5764  14.5900  14.6135  14.6244
    14.6601  14.7621  14.8294  14.9811  15.0134  15.0262  15.0382  15.1058
    15.1454  15.1735  15.1937  15.3483  15.4180  15.4919  15.5544  15.6086
    15.7447  15.7718  15.8111  15.8798  15.9460  16.0051  16.0169  16.0914
    16.0995  16.1910  16.2635  16.3436  16.3774  16.4047  16.4552  16.4928
    16.8491  16.9461  17.0071  17.1171  17.1221  17.1865  17.2549  17.2989
    17.4035  17.4362  17.4816  17.5682  17.5797  17.7427  17.9009  17.9357
    17.9760  18.0646  18.1401  18.2163  18.2859

          k =-0.2500 0.2258 0.0000 ( 29912 PWs)   bands (ev):

   -60.8286 -60.8011 -60.5045 -59.9767 -59.9464 -59.5522 -59.5234 -58.8418
   -37.3052 -37.0784 -37.0248 -36.9970 -36.9741 -36.9690 -36.8529 -36.7194
   -36.6745 -36.5224 -36.2891 -36.2155 -36.2057 -36.1066 -36.0839 -35.9996
   -35.8281 -35.8121 -35.8041 -35.7370 -35.6625 -35.2250 -35.2039 -35.1644
   -21.9773 -21.7251 -21.0312 -20.7662 -20.2849 -20.2392 -20.2201 -20.1514
   -19.9740 -19.8411 -19.7500 -19.7327 -19.6217 -19.5302 -19.3045 -19.1786
   -18.8658 -18.7847 -17.9516  -9.8081  -9.5347  -8.5024  -8.2484  -8.0077
    -7.7654  -7.6525  -7.6385  -7.5586  -7.3654  -7.3178  -7.2299  -7.1328
    -7.0253  -6.9508  -6.8746  -6.8139  -6.7534  -6.6043  -6.5366  -6.4551
    -6.2899  -6.1903  -6.0536  -5.9252  -5.7758  -5.7273  -5.6478  -5.5361
    -5.4965  -5.4172  -5.3825  -5.3064  -5.2325  -5.1589  -5.0714  -4.9832
    -4.9309  -4.8856  -4.8083  -4.7160  -4.6403  -4.4642  -4.4105  -4.2046
    -4.1663  -4.1170  -4.0977  -3.9936  -3.9359  -3.8604  -3.6918  -3.6612
    -3.5786  -3.5181  -3.4523  -3.3078  -0.9834  -0.9359  -0.8387  -0.7150
    -0.4040  -0.3295  -0.2470  -0.2187  -0.1153   0.0520   0.1392   0.2672
     0.2953   0.3436   0.5593   0.6197   0.6751   0.8089   0.9201   1.0033
     1.1108   1.2277   1.2648   1.5292   1.7844   1.8658   1.9567   2.0465
     2.1859   2.2358   2.5547   2.7531   2.9127   3.0913   3.1412   3.1718
     3.3486   3.4873   3.6639   3.7761   3.8605   4.0517   4.4741   4.6054
     4.6657   4.8680   5.2333   5.7943   5.8955   6.0059   6.1475   6.3176
     6.3529   6.5629   6.7508   6.9069   7.0291   7.2643   7.3161   7.4194
     7.6078   7.6925   7.7615   7.8971   7.9248   8.0436   8.2109   8.3475
     8.4956   8.6905   8.7473   8.7855   9.0049   9.1505   9.2055   9.3030
     9.3670   9.4750   9.5815   9.6079   9.7157   9.8330   9.8817  10.0192
    10.0936  10.2779  10.3364  10.4766  10.5740  10.6874  10.7859  10.8400
    10.9387  11.0013  11.0659  11.1224  11.1564  11.2781  11.3650  11.4041
    11.4500  11.5199  11.6517  11.7042  11.7920  11.8710  11.9289  12.0156
    12.0643  12.0911  12.1596  12.2854  12.4015  12.4149  12.4925  12.5345
    12.6110  12.7305  12.8057  12.9004  12.9389  12.9861  13.0670  13.1990
    13.3088  13.3360  13.4160  13.4564  13.5701  13.6421  13.7166  13.7785
    13.8209  13.8946  13.9847  14.0726  14.1254  14.1744  14.2906  14.3530
    14.4331  14.5306  14.5823  14.6073  14.7185  14.7637  14.8657  14.9835
    15.0798  15.1730  15.2243  15.2858  15.3797  15.4470  15.4836  15.5778
    15.6083  15.6825  15.7634  15.8404  15.8542  15.9805  16.0321  16.0765
    16.1565  16.2093  16.3072  16.3552  16.4803  16.6038  16.6909  16.7030
    16.7717  16.8466  16.8823  16.9242  16.9640  17.0723  17.1072  17.1966
    17.2613  17.3268  17.4128  17.4653  17.5550  17.6115  17.6448  17.6945
    17.7670  17.8328  17.9486  18.0335  18.1250  18.1998  18.2416  18.3071
    18.3956  18.4878  18.5873  18.6079  18.6568

     the Fermi energy is    -3.3949 ev

!    total energy              =   -1566.07427251 Ry
     Harris-Foulkes estimate   =   -1566.07427294 Ry
     estimated scf accuracy    <       0.00000047 Ry

     The total energy is the sum of the following terms:

     one-electron contribution =  -18545.78637195 Ry
     hartree contribution      =    9288.19478989 Ry
     xc contribution           =    -276.73514651 Ry
     ewald contribution        =    7967.39032071 Ry
     Hubbard energy            =       0.86181323 Ry
     smearing contrib. (-TS)   =       0.00032211 Ry

     convergence has been achieved in  31 iterations

     Forces acting on atoms (Ry/au):


     negative rho (up, down):  0.103E+00 0.000E+00
     atom    1 type  1   force =    -0.00120017   -0.01027787   -0.00335653
     atom    2 type  1   force =     0.00008688    0.01425039   -0.00303215
     atom    3 type  2   force =     0.05697760   -0.00932668   -0.00370041
     atom    4 type  2   force =    -0.00268708    0.00492424   -0.00320222
     atom    5 type  1   force =    -0.00326601   -0.06751800    0.00026827
     atom    6 type  1   force =    -0.00560427    0.06925985    0.00036396
     atom    7 type  1   force =    -0.00003562    0.00056756   -0.00228794
     atom    8 type  1   force =     0.00174195   -0.00124477    0.00383221
     atom    9 type  2   force =     0.00881327    0.00016292   -0.00555044
     atom   10 type  2   force =     0.00004185    0.00016679    0.00516480
     atom   11 type  1   force =    -0.03354678   -0.00048035   -0.00052671
     atom   12 type  1   force =    -0.03395294    0.00080510   -0.00071802
     atom   13 type  1   force =     0.00013857    0.00013727    0.00792644
     atom   14 type  1   force =    -0.00059944   -0.00954022   -0.00486466
     atom   15 type  1   force =     0.00004015    0.01056673   -0.00363177
     atom   16 type  2   force =    -0.05662691   -0.00841750   -0.00368731
     atom   17 type  2   force =    -0.00303624    0.00440642   -0.00004968
     atom   18 type  1   force =     0.00751110   -0.06755300    0.00028598
     atom   19 type  1   force =     0.00551230    0.06913794    0.00045688
     atom   20 type  1   force =    -0.00022576   -0.00041399    0.00678804
     atom   21 type  1   force =     0.00186185   -0.00096987    0.00256958
     atom   22 type  2   force =    -0.00931208   -0.00000160   -0.00552554
     atom   23 type  2   force =    -0.00000521   -0.00016475   -0.00281987
     atom   24 type  1   force =     0.03408108   -0.00037159   -0.00074901
     atom   25 type  1   force =     0.03329193    0.00069880   -0.00052583
     atom   26 type  1   force =     0.00022686   -0.00010637    0.00601485
     atom   27 type  3   force =     0.00005675    0.00048873    0.00082941
     atom   28 type  3   force =    -0.00004030    0.00066562    0.00020214
     atom   29 type  3   force =    -0.00015978    0.00007987    0.00084357
     atom   30 type  3   force =    -0.00008895    0.00006857    0.00032426
     atom   31 type  1   force =     0.00000542   -0.00000025    0.00835771

     Total force =     0.020897     Total SCF correction =     0.002263
     SCF correction compared to forces is large: reduce conv_thr to get better values

     BFGS Geometry Optimization

     number of scf cycles    =   1
     number of bfgs steps    =   0

     energy   new            =   -1566.0742725051 Ry

     new trust radius        =       0.0083577148 bohr
     new conv_thr            =       0.0000010000 Ry


ATOMIC_POSITIONS (crystal)
O0       0.000000000   0.000000000   0.377943165    0   0   1
O0       0.000000000   0.500000000   0.397809624    0   0   1
Ti1      0.250000000   0.500000000   0.450006318    0   0   1
Ti1      0.000000000   0.000000000   0.452696238    0   0   1
O0       0.250000000   0.810000000   0.449295342    0   0   1
O0       0.250000000   0.190000000   0.450157247    0   0   1
O0       0.000000000   0.500000000   0.497584443    0   0   1
O0       0.000000000   0.000000000   0.525566306    0   0   1
Ti1      0.250000000   0.000000000   0.580949481    0   0   1
Ti1      0.000000000   0.500000000   0.568572840    0   0   1
O0       0.250000000   0.690000000   0.580429512    0   0   1
O0       0.250000000   0.310000000   0.580445703    0   0   1
O0       0.000000000   0.000000000   0.622457829    0   0   1
O0       0.500000000   0.000000000   0.377753136    0   0   1
O0       0.500000000   0.500000000   0.397057685    0   0   1
Ti1      0.750000000   0.500000000   0.450006579    0   0   1
Ti1      0.500000000   0.000000000   0.451589011    0   0   1
O0       0.750000000   0.810000000   0.449345694    0   0   1
O0       0.750000000   0.190000000   0.450029097    0   0   1
O0       0.500000000   0.500000000   0.491885162    0   0   1
O0       0.500000000   0.000000000   0.525341165    0   0   1
Ti1      0.750000000   0.000000000   0.580939977    0   0   1
Ti1      0.500000000   0.500000000   0.598183851    0   0   1
O0       0.750000000   0.690000000   0.580535086    0   0   1
O0       0.750000000   0.310000000   0.580339530    0   0   1
O0       0.500000000   0.000000000   0.621629766    0   0   1
H2      -0.000734944   0.619809328   0.375466515
H2       0.499416410   0.615813562   0.373564025
H2       0.148645765   0.034076427   0.363556797
H2       0.648922076   0.032835518   0.363366457
O0       0.499990483   0.499859980   0.661536417


     Check: negative starting charge=   -0.102438
     NEW-OLD atomic charge density approx. for the potential

     Check: negative/imaginary core charge=   -0.000006    0.000000
     Check: negative starting charge=   -0.102350

     negative rho (up, down):  0.103E+00 0.000E+00
 Atomic wfc used for LDA+U Projector are NOT orthogonalized

     total cpu time spent up to now is     5497.0 secs

     per-process dynamical memory:   376.9 Mb

     Self-consistent Calculation

     iteration #  1     ecut=    40.00 Ry     beta=0.70
     Davidson diagonalization with overlap
     ethr =  1.00E-06,  avg # of iterations =  3.4
 --- enter write_ns ---
 LDA+U parameters:
U( 2)     =  1.50000000
alpha( 2) =  0.00000000
atom    3   Tr[ns(na)] =   2.83071
    eigenvalues: 
  0.183  0.200  0.220  0.384  0.427
    eigenvectors:
  0.036  0.720  0.066  0.168  0.009
  0.003  0.005  0.003  0.176  0.812
  0.614  0.000  0.386  0.001  0.000
  0.011  0.148  0.010  0.654  0.176
  0.336  0.127  0.534  0.000  0.002
    occupations:
  0.234  0.012 -0.004  0.070  0.002
  0.012  0.417  0.003 -0.023  0.011
 -0.004  0.003  0.198  0.006 -0.016
  0.070 -0.023  0.006  0.361 -0.002
  0.002  0.011 -0.016 -0.002  0.206
atom    4   Tr[ns(na)] =   2.91148
    eigenvalues: 
  0.174  0.212  0.227  0.416  0.426
    eigenvectors:
  0.006  0.002  0.000  0.001  0.991
  0.001  0.895  0.102  0.000  0.002
  0.000  0.102  0.898  0.000  0.000
  0.993  0.001  0.000  0.000  0.006
  0.000  0.000  0.000  0.999  0.001
    occupations:
  0.424  0.010  0.004 -0.019 -0.000
  0.010  0.214 -0.004  0.000 -0.002
  0.004 -0.004  0.225  0.000 -0.000
 -0.019  0.000  0.000  0.175 -0.000
 -0.000 -0.002 -0.000 -0.000  0.416
atom    9   Tr[ns(na)] =   2.89559
    eigenvalues: 
  0.179  0.219  0.239  0.384  0.426
    eigenvectors:
  0.000  0.000  0.921  0.079  0.000
  0.000  0.000  0.000  0.003  0.997
  0.999  0.001  0.000  0.000  0.000
  0.000  0.000  0.078  0.919  0.003
  0.001  0.999  0.000  0.000  0.000
    occupations:
  0.250  0.001 -0.000  0.039  0.000
  0.001  0.426  0.000 -0.003 -0.000
 -0.000  0.000  0.180 -0.000 -0.001
  0.039 -0.003 -0.000  0.373 -0.000
  0.000 -0.000 -0.001 -0.000  0.219
atom   10   Tr[ns(na)] =   2.81268
    eigenvalues: 
  0.182  0.226  0.240  0.328  0.430
    eigenvectors:
  0.016  0.000  0.000  0.984  0.000
  0.000  0.000  1.000  0.000  0.000
  0.000  1.000  0.000  0.000  0.000
  0.984  0.000  0.000  0.016  0.000
  0.000  0.000  0.000  0.000  1.000
    occupations:
  0.326 -0.000 -0.000 -0.018 -0.000
 -0.000  0.240 -0.000 -0.000 -0.000
 -0.000 -0.000  0.226 -0.000  0.000
 -0.018 -0.000 -0.000  0.184  0.000
 -0.000 -0.000  0.000  0.000  0.430
atom   16   Tr[ns(na)] =   2.83073
    eigenvalues: 
  0.184  0.200  0.220  0.384  0.427
    eigenvectors:
  0.036  0.718  0.068  0.168  0.009
  0.003  0.005  0.003  0.177  0.812
  0.616  0.000  0.383  0.001  0.000
  0.011  0.147  0.011  0.654  0.177
  0.334  0.130  0.534  0.001  0.002
    occupations:
  0.234 -0.012 -0.004  0.070 -0.003
 -0.012  0.417 -0.003  0.023  0.011
 -0.004 -0.003  0.198  0.007  0.016
  0.070  0.023  0.007  0.361  0.001
 -0.003  0.011  0.016  0.001  0.206
atom   17   Tr[ns(na)] =   2.90508
    eigenvalues: 
  0.174  0.209  0.227  0.415  0.427
    eigenvectors:
  0.006  0.003  0.000  0.000  0.991
  0.001  0.898  0.098  0.000  0.003
  0.000  0.097  0.902  0.000  0.000
  0.993  0.001  0.000  0.000  0.006
  0.000  0.000  0.000  1.000  0.000
    occupations:
  0.425  0.012  0.004 -0.019 -0.000
  0.012  0.212 -0.005  0.000 -0.002
  0.004 -0.005  0.225  0.000 -0.000
 -0.019  0.000  0.000  0.176 -0.000
 -0.000 -0.002 -0.000 -0.000  0.415
atom   22   Tr[ns(na)] =   2.89551
    eigenvalues: 
  0.179  0.219  0.239  0.384  0.426
    eigenvectors:
  0.000  0.000  0.921  0.079  0.000
  0.000  0.000  0.000  0.002  0.998
  0.999  0.001  0.000  0.000  0.000
  0.000  0.000  0.079  0.919  0.002
  0.001  0.999  0.000  0.000  0.000
    occupations:
  0.250 -0.001 -0.000  0.039  0.000
 -0.001  0.426  0.000  0.003 -0.000
 -0.000  0.000  0.180 -0.000  0.001
  0.039  0.003 -0.000  0.373 -0.000
  0.000 -0.000  0.001 -0.000  0.219
atom   23   Tr[ns(na)] =   3.01302
    eigenvalues: 
  0.125  0.294  0.305  0.346  0.436
    eigenvectors:
  0.003  0.000  0.000  0.000  0.997
  0.000  0.000  1.000  0.000  0.000
  0.000  1.000  0.000  0.000  0.000
  0.997  0.000  0.000  0.000  0.003
  0.000  0.000  0.000  1.000  0.000
    occupations:
  0.435 -0.000  0.000 -0.018 -0.000
 -0.000  0.305 -0.000 -0.000  0.000
  0.000 -0.000  0.294 -0.000  0.000
 -0.018 -0.000 -0.000  0.126  0.000
 -0.000  0.000  0.000  0.000  0.346
N of occupied +U levels =  23.0948057
 --- exit write_ns ---

     negative rho (up, down):  0.103E+00 0.000E+00

     total cpu time spent up to now is     5691.0 secs

     total energy              =   -1566.04855056 Ry
     Harris-Foulkes estimate   =   -1566.07500235 Ry
     estimated scf accuracy    <       0.03005045 Ry

     iteration #  2     ecut=    40.00 Ry     beta=0.70
     Davidson diagonalization with overlap
     ethr =  1.40E-05,  avg # of iterations =  5.2

     negative rho (up, down):  0.104E+00 0.000E+00

     total cpu time spent up to now is     5889.4 secs

     total energy              =   -1566.00999362 Ry
     Harris-Foulkes estimate   =   -1566.33644240 Ry
     estimated scf accuracy    <       2.89684330 Ry

     iteration #  3     ecut=    40.00 Ry     beta=0.70
     Davidson diagonalization with overlap
     ethr =  1.40E-05,  avg # of iterations =  5.7

     negative rho (up, down):  0.104E+00 0.000E+00

     total cpu time spent up to now is     6081.3 secs

     total energy              =   -1566.06604360 Ry
     Harris-Foulkes estimate   =   -1566.11037136 Ry
     estimated scf accuracy    <       0.55471703 Ry

     iteration #  4     ecut=    40.00 Ry     beta=0.70
     Davidson diagonalization with overlap
     ethr =  1.40E-05,  avg # of iterations =  4.8

     negative rho (up, down):  0.103E+00 0.000E+00

     total cpu time spent up to now is     6243.7 secs

     total energy              =   -1566.07450279 Ry
     Harris-Foulkes estimate   =   -1566.08008803 Ry
     estimated scf accuracy    <       0.15812367 Ry

     iteration #  5     ecut=    40.00 Ry     beta=0.70
     Davidson diagonalization with overlap
     ethr =  1.40E-05,  avg # of iterations =  1.0

     negative rho (up, down):  0.103E+00 0.000E+00

     total cpu time spent up to now is     6388.6 secs

     total energy              =   -1566.07456893 Ry
     Harris-Foulkes estimate   =   -1566.07652951 Ry
     estimated scf accuracy    <       0.10786424 Ry

     iteration #  6     ecut=    40.00 Ry     beta=0.70
     Davidson diagonalization with overlap
     ethr =  1.40E-05,  avg # of iterations =  1.0

     negative rho (up, down):  0.103E+00 0.000E+00

     total cpu time spent up to now is     6536.3 secs

     total energy              =   -1566.07427677 Ry
     Harris-Foulkes estimate   =   -1566.07517195 Ry
     estimated scf accuracy    <       0.03416944 Ry

     iteration #  7     ecut=    40.00 Ry     beta=0.70
     Davidson diagonalization with overlap
     ethr =  1.40E-05,  avg # of iterations =  1.0

     negative rho (up, down):  0.103E+00 0.000E+00

     total cpu time spent up to now is     6687.2 secs

     total energy              =   -1566.07453676 Ry
     Harris-Foulkes estimate   =   -1566.07461784 Ry
     estimated scf accuracy    <       0.00230707 Ry

     iteration #  8     ecut=    40.00 Ry     beta=0.70
     Davidson diagonalization with overlap
     ethr =  1.08E-06,  avg # of iterations =  5.6

     negative rho (up, down):  0.103E+00 0.000E+00

     total cpu time spent up to now is     6856.8 secs

     total energy              =   -1566.07456538 Ry
     Harris-Foulkes estimate   =   -1566.07458662 Ry
     estimated scf accuracy    <       0.00016576 Ry

     iteration #  9     ecut=    40.00 Ry     beta=0.70
     Davidson diagonalization with overlap
     ethr =  7.75E-08,  avg # of iterations =  1.0

     negative rho (up, down):  0.103E+00 0.000E+00

     total cpu time spent up to now is     7004.2 secs

     total energy              =   -1566.07457350 Ry
     Harris-Foulkes estimate   =   -1566.07458081 Ry
     estimated scf accuracy    <       0.00018286 Ry

     iteration # 10     ecut=    40.00 Ry     beta=0.70
     Davidson diagonalization with overlap
     ethr =  7.75E-08,  avg # of iterations =  1.0

     negative rho (up, down):  0.103E+00 0.000E+00

     total cpu time spent up to now is     7150.1 secs

     total energy              =   -1566.07457689 Ry
     Harris-Foulkes estimate   =   -1566.07457746 Ry
     estimated scf accuracy    <       0.00000165 Ry

     iteration # 11     ecut=    40.00 Ry     beta=0.70
     Davidson diagonalization with overlap
     ethr =  7.73E-10,  avg # of iterations =  1.0

     negative rho (up, down):  0.103E+00 0.000E+00

     total cpu time spent up to now is     7298.7 secs

     total energy              =   -1566.07457713 Ry
     Harris-Foulkes estimate   =   -1566.07457742 Ry
     estimated scf accuracy    <       0.00000157 Ry

     iteration # 12     ecut=    40.00 Ry     beta=0.70
     Davidson diagonalization with overlap
     ethr =  7.33E-10,  avg # of iterations =  1.0

     negative rho (up, down):  0.103E+00 0.000E+00

     total cpu time spent up to now is     7443.6 secs

     total energy              =   -1566.07457716 Ry
     Harris-Foulkes estimate   =   -1566.07457739 Ry
     estimated scf accuracy    <       0.00000352 Ry

     iteration # 13     ecut=    40.00 Ry     beta=0.70
     Davidson diagonalization with overlap
     ethr =  7.33E-10,  avg # of iterations =  1.0

     negative rho (up, down):  0.103E+00 0.000E+00

     total cpu time spent up to now is     7588.1 secs

     End of self-consistent calculation
 --- enter write_ns ---
 LDA+U parameters:
U( 2)     =  1.50000000
alpha( 2) =  0.00000000
atom    3   Tr[ns(na)] =   2.83143
    eigenvalues: 
  0.183  0.200  0.220  0.385  0.427
    eigenvectors:
  0.036  0.719  0.067  0.168  0.009
  0.003  0.005  0.003  0.177  0.812
  0.614  0.000  0.385  0.001  0.000
  0.011  0.148  0.010  0.654  0.177
  0.335  0.128  0.534  0.000  0.002
    occupations:
[...]
   -35.8779 -35.8604 -35.8546 -35.7928 -35.7922 -35.2702 -35.2692 -35.2233
   -21.8911 -21.7689 -21.0505 -20.5789 -20.5350 -20.2158 -20.1573 -20.0874
   -20.0618 -19.9035 -19.8981 -19.8797 -19.5067 -19.4219 -19.2834 -19.2506
   -18.9764 -18.8560 -17.9725  -9.7343  -9.5879  -8.1973  -8.1826  -8.0499
    -7.8943  -7.8764  -7.7071  -7.6691  -7.6499  -7.5323  -7.4592  -7.0853
    -7.0356  -6.8641  -6.8250  -6.6705  -6.6333  -6.5649  -6.4248  -6.3618
    -6.1292  -6.0925  -6.0228  -5.9966  -5.9451  -5.9218  -5.7333  -5.5462
    -5.5179  -5.5040  -5.3284  -5.2748  -5.1761  -5.0702  -4.9753  -4.9460
    -4.9037  -4.8429  -4.8277  -4.8126  -4.6996  -4.5592  -4.4443  -4.3011
    -4.2785  -4.2454  -4.1045  -4.0915  -3.7563  -3.7489  -3.7181  -3.6407
    -3.6369  -3.5696  -3.5095  -3.4259  -1.0369  -0.8570  -0.8242  -0.7048
    -0.4199  -0.3727  -0.2970  -0.2911  -0.2182  -0.0955  -0.0081   0.1753
     0.1949   0.2015   0.2947   0.6964   0.7205   0.7770   0.7808   0.9697
     1.0131   1.0717   1.1890   1.6388   1.7686   1.8322   1.9057   2.0156
     2.0739   2.5102   2.7856   2.8627   2.8763   2.8802   2.9181   3.0254
     3.0562   3.3516   3.3982   3.4446   3.7328   3.7402   4.6301   4.6520
     4.9990   5.1814   5.2594   5.5158   5.6792   5.8000   6.0966   6.1818
     6.5144   6.6654   6.7510   6.9423   7.1017   7.1100   7.5137   7.8917
     7.9070   7.9479   8.0944   8.1418   8.2390   8.2406   8.4209   8.4570
     8.5885   8.6001   8.6881   8.7700   8.8082   8.8745   8.9376   9.0788
     9.1147   9.3081   9.4282   9.5666   9.6286   9.6617   9.6962   9.7473
     9.8207   9.8586   9.9166  10.0258  10.0484  10.2634  10.3852  10.4645
    10.5145  10.7042  10.7870  10.9639  11.0365  11.0906  11.2613  11.3409
    11.5228  11.6102  11.6381  11.7209  11.7331  11.7563  11.9327  12.0718
    12.1461  12.2516  12.2620  12.5080  12.5492  12.6475  12.7238  12.7822
    12.8822  12.9114  12.9497  13.0778  13.1681  13.2106  13.3570  13.4234
    13.4500  13.6349  13.6650  13.7181  13.8313  13.8630  14.0065  14.0819
    14.1187  14.1461  14.1996  14.3106  14.3451  14.4066  14.4367  14.4715
    14.5240  14.6700  14.8078  14.9645  15.0177  15.0222  15.0689  15.1756
    15.2507  15.3477  15.3578  15.4566  15.4929  15.5404  15.6647  15.8192
    15.8487  15.8803  15.9303  16.0519  16.1280  16.1601  16.2675  16.2873
    16.4788  16.4961  16.5897  16.6362  16.6988  16.7554  16.8184  16.9090
    16.9201  16.9729  17.0157  17.0431  17.0776  17.2431  17.2595  17.3846
    17.4118  17.4954  17.6253  17.6367  17.7078  17.8480  17.8705  17.9077
    17.9583  17.9905  18.0281  18.0925  18.1292  18.2429  18.2802  18.3315
    18.3693  18.3812  18.3927  18.5099  18.5661

          k =-0.5000 0.2258 0.0000 ( 29954 PWs)   bands (ev):

   -60.8457 -60.8444 -60.5544 -60.0271 -60.0206 -59.5784 -59.5778 -58.9027
   -37.1846 -37.1794 -37.0617 -37.0490 -37.0195 -37.0189 -36.8920 -36.7594
   -36.7245 -36.4319 -36.4203 -36.3136 -36.3117 -36.1508 -36.1457 -35.8848
   -35.8779 -35.8582 -35.8568 -35.7927 -35.7921 -35.2691 -35.2690 -35.2249
   -21.8881 -21.7657 -21.0420 -20.5365 -20.5156 -20.2173 -20.1413 -20.0221
   -20.0107 -19.9642 -19.9542 -19.8504 -19.5938 -19.5452 -19.2551 -19.2378
   -18.9718 -18.8548 -17.9720  -9.7251  -9.5785  -8.1194  -8.0766  -8.0312
    -7.7733  -7.7527  -7.6689  -7.5948  -7.4457  -7.4184  -7.2546  -7.0253
    -6.9918  -6.8893  -6.8096  -6.6704  -6.6310  -6.5993  -6.5301  -6.3666
    -6.3025  -6.1797  -6.0704  -6.0479  -5.9519  -5.9364  -5.8307  -5.6404
    -5.5650  -5.4834  -5.4115  -5.3839  -5.2374  -5.2018  -5.0954  -5.0683
    -5.0162  -4.9533  -4.8324  -4.7653  -4.7382  -4.6820  -4.6363  -4.2531
    -4.2208  -4.1713  -4.0761  -4.0674  -3.8587  -3.7596  -3.7150  -3.7027
    -3.6050  -3.5699  -3.4271  -3.4261  -1.0241  -0.8740  -0.8583  -0.7679
    -0.4681  -0.2501  -0.2218  -0.2018  -0.0272   0.0353   0.0409   0.0816
     0.2216   0.3479   0.4152   0.6648   0.7692   0.8446   0.8997   0.9874
     0.9888   1.0771   1.0861   1.6499   1.7187   1.7573   1.8918   1.9512
     2.0897   2.2360   2.6354   2.6935   2.7090   2.9742   2.9842   3.1699
     3.3076   3.4571   3.5318   3.5780   3.7761   3.7885   4.7975   4.8161
     5.1469   5.2287   5.2629   5.5266   5.6335   5.8296   6.0194   6.1614
     6.5306   6.6064   6.6987   6.7469   6.9007   6.9826   7.0545   7.2339
     7.2987   7.4827   7.6191   7.8017   7.8601   8.0522   8.1114   8.2567
     8.3077   8.4362   8.5390   8.6245   8.7602   8.8881   9.2671   9.4399
     9.5246   9.6832   9.7261   9.8302   9.8796   9.9053   9.9977  10.0645
    10.2276  10.2942  10.3202  10.5255  10.5654  10.6599  10.7578  10.8129
    10.8524  10.9493  11.0794  11.1622  11.2754  11.3293  11.4080  11.5439
    11.6498  11.7747  11.8227  11.9222  11.9861  12.0478  12.0869  12.1354
    12.2327  12.3530  12.5405  12.5708  12.7025  12.7808  12.8453  12.9025
    13.0405  13.0609  13.1754  13.1951  13.2171  13.2788  13.3752  13.4336
    13.4782  13.5096  13.6074  13.6594  13.8558  13.9445  13.9607  14.0024
    14.0281  14.0623  14.1202  14.2344  14.2661  14.3457  14.3712  14.4603
    14.5045  14.7732  14.8197  14.8852  14.9240  14.9424  14.9622  14.9847
    15.1568  15.1805  15.2118  15.2539  15.3018  15.3326  15.3997  15.4800
    15.5096  15.5489  15.5801  15.7082  15.7229  15.7883  15.8225  15.8811
    15.9449  15.9521  16.0295  16.1047  16.2655  16.2990  16.3650  16.4233
    16.4549  16.5045  16.5455  16.6695  16.7378  16.7980  16.8433  16.9284
    16.9478  17.0051  17.1667  17.1963  17.2315  17.3274  17.3502  17.4706
    17.5323  17.6049  17.6573  17.8068  17.9607  17.9908  18.1389  18.2063
    18.2267  18.2719  18.3118  18.3866  18.4408

          k =-0.5000-0.4516 0.0000 ( 29868 PWs)   bands (ev):

   -60.8457 -60.8444 -60.5544 -60.0271 -60.0206 -59.5784 -59.5778 -58.9027
   -37.1847 -37.1795 -37.0617 -37.0490 -37.0190 -37.0184 -36.8920 -36.7600
   -36.7235 -36.4305 -36.4190 -36.3154 -36.3135 -36.1508 -36.1457 -35.8850
   -35.8778 -35.8592 -35.8559 -35.7927 -35.7921 -35.2690 -35.2679 -35.2264
   -21.8852 -21.7625 -21.0336 -20.4942 -20.4819 -20.2216 -20.0921 -20.0627
   -20.0498 -19.9176 -19.8559 -19.7826 -19.7505 -19.7280 -19.2414 -19.2287
   -18.9678 -18.8537 -17.9715  -9.7157  -9.5691  -8.0937  -8.0553  -8.0091
    -7.6763  -7.4856  -7.4568  -7.4062  -7.2962  -7.1279  -7.0592  -7.0308
    -6.9192  -6.8940  -6.8499  -6.8094  -6.7008  -6.5707  -6.4903  -6.4136
    -6.3813  -6.2763  -6.2513  -6.1586  -6.0500  -5.9372  -5.7170  -5.7125
    -5.7020  -5.6888  -5.6094  -5.5245  -5.3764  -5.3611  -5.2884  -5.2216
    -5.1240  -4.9636  -4.9452  -4.7611  -4.6631  -4.6122  -4.5664  -4.2639
    -4.2111  -4.1724  -4.1338  -3.9899  -3.9825  -3.7582  -3.7115  -3.6585
    -3.5435  -3.5128  -3.4554  -3.3883  -1.0095  -0.9076  -0.8696  -0.8074
    -0.5415  -0.2599  -0.2037  -0.1167   0.0232   0.1033   0.2831   0.2916
     0.2980   0.4905   0.5066   0.5761   0.7748   0.8742   0.9805   0.9843
     1.0029   1.0851   1.1636   1.5029   1.5303   1.6403   1.6938   2.0667
     2.0987   2.2028   2.3332   2.7715   2.7787   2.8960   2.9431   3.3231
     3.3811   3.4952   3.6848   3.7321   3.9423   3.9594   4.6579   4.6603
     5.4403   5.4635   5.4797   5.6609   5.6644   6.0462   6.0546   6.1509
     6.1718   6.3744   6.3854   6.5140   6.5795   6.7087   6.8791   6.9947
     7.1729   7.2878   7.3756   7.5495   7.6636   7.6795   7.7411   7.8708
     8.1641   8.5392   8.7115   8.8339   8.8658   8.9629   9.0172   9.1177
     9.1799   9.2767   9.8225   9.9003   9.9706  10.3022  10.3623  10.4837
    10.5974  10.6071  10.7837  10.8379  10.8941  10.9712  11.2477  11.4853
    11.5439  11.5716  11.5913  11.6593  11.8214  11.8866  12.0035  12.0243
    12.0346  12.1815  12.2002  12.2736  12.3065  12.3916  12.4507  12.5059
    12.5147  12.6125  12.6374  12.7115  12.7801  12.8801  12.8877  12.9656
    12.9919  13.0221  13.0877  13.1673  13.1972  13.2190  13.2864  13.3037
    13.4796  13.5805  13.5893  13.6311  13.7323  13.7566  13.7829  13.8415
    13.8645  13.8784  13.9030  14.0392  14.1211  14.1263  14.2441  14.2708
    14.4013  14.4230  14.4691  14.4955  14.5762  14.5913  14.6083  14.6214
    14.6557  14.7609  14.8260  14.9784  15.0108  15.0283  15.0427  15.1029
    15.1467  15.1813  15.2042  15.3532  15.4095  15.4605  15.5321  15.5933
    15.7308  15.7573  15.7966  15.8577  15.9208  15.9958  16.0138  16.0873
    16.0936  16.1875  16.2481  16.3282  16.3572  16.3641  16.4355  16.4709
    16.8620  16.9614  16.9945  17.1129  17.1237  17.1845  17.2448  17.3013
    17.4055  17.4480  17.4858  17.5506  17.5877  17.7075  17.8973  17.9406
    17.9767  18.0531  18.1352  18.2186  18.2836

          k =-0.2500 0.2258 0.0000 ( 29912 PWs)   bands (ev):

   -60.8584 -60.8312 -60.5543 -60.0381 -60.0090 -59.5921 -59.5636 -58.9026
   -37.3253 -37.1023 -37.0503 -37.0309 -37.0082 -36.9927 -36.8925 -36.7656
   -36.7250 -36.5818 -36.3496 -36.2762 -36.2658 -36.1605 -36.1373 -36.0282
   -35.8693 -35.8458 -35.8454 -35.7715 -35.6967 -35.2708 -35.2604 -35.2244
   -21.9840 -21.7296 -21.0227 -20.7928 -20.3126 -20.2665 -20.2463 -20.1858
   -19.9777 -19.8765 -19.7819 -19.7621 -19.6412 -19.5625 -19.3304 -19.1945
   -18.8856 -18.7819 -17.9730  -9.7860  -9.5155  -8.5233  -8.2836  -8.0058
    -7.7657  -7.6595  -7.6396  -7.5705  -7.3946  -7.3430  -7.2293  -7.1511
    -7.0326  -6.9822  -6.8959  -6.8269  -6.7741  -6.6194  -6.5466  -6.4699
    -6.2981  -6.2029  -6.0559  -5.9364  -5.7966  -5.7505  -5.6674  -5.5532
    -5.5077  -5.4356  -5.4126  -5.3311  -5.2522  -5.1845  -5.0970  -5.0135
    -4.9539  -4.9086  -4.8387  -4.7283  -4.6575  -4.4791  -4.4164  -4.2265
    -4.1872  -4.1399  -4.1264  -4.0078  -3.9608  -3.8773  -3.6942  -3.6844
    -3.6049  -3.5469  -3.4799  -3.3397  -1.0143  -0.9717  -0.8738  -0.7506
    -0.4402  -0.3685  -0.2946  -0.2590  -0.1622  -0.0125   0.0937   0.2076
     0.2435   0.2897   0.5163   0.5793   0.6159   0.7538   0.8540   0.9568
     1.0350   1.1579   1.2100   1.4817   1.7376   1.8153   1.9013   1.9948
     2.1374   2.1838   2.4997   2.7252   2.8492   3.0241   3.0828   3.1279
     3.2677   3.4021   3.5712   3.7013   3.7918   4.0606   4.4678   4.5993
     4.6773   4.8725   5.2267   5.8037   5.9011   6.0057   6.1165   6.3208
     6.3661   6.5683   6.7502   6.9091   7.0243   7.2449   7.3018   7.4181
     7.5915   7.6764   7.7502   7.8893   7.9191   8.0393   8.1981   8.3486
     8.4974   8.6819   8.7328   8.7556   9.0053   9.1525   9.1966   9.2985
     9.3551   9.4652   9.5688   9.5970   9.7137   9.8183   9.8842  10.0048
    10.0732  10.2816  10.3342  10.4629  10.5555  10.6719  10.7581  10.8272
    10.9331  10.9831  11.0581  11.1103  11.1443  11.2678  11.3519  11.3958
    11.4414  11.5045  11.6241  11.6997  11.7746  11.8608  11.9184  12.0102
    12.0578  12.0775  12.1513  12.2708  12.3990  12.4130  12.4832  12.5181
    12.6082  12.7179  12.8000  12.8852  12.9203  12.9810  13.0502  13.1784
    13.2897  13.3201  13.3983  13.4417  13.5613  13.6225  13.6971  13.7382
    13.7960  13.8734  13.9573  14.0595  14.1055  14.1666  14.2622  14.3255
    14.4226  14.5120  14.5623  14.5923  14.7074  14.7499  14.8583  14.9715
    15.0737  15.1665  15.2216  15.2780  15.3694  15.4343  15.4795  15.5707
    15.6014  15.6668  15.7694  15.8323  15.8381  15.9700  16.0142  16.0721
    16.1476  16.2093  16.2939  16.3490  16.4948  16.5909  16.6825  16.7047
    16.7784  16.8515  16.8857  16.9244  16.9664  17.0581  17.1064  17.2028
    17.2595  17.3120  17.4037  17.4637  17.5618  17.6067  17.6469  17.6895
    17.7642  17.8299  17.9399  18.0385  18.1207  18.1981  18.2342  18.3046
    18.3848  18.4941  18.5968  18.6212  18.6609

     the Fermi energy is    -3.4235 ev

!    total energy              =   -1566.07501647 Ry
     Harris-Foulkes estimate   =   -1566.07501648 Ry
     estimated scf accuracy    <          2.3E-09 Ry

     The total energy is the sum of the following terms:

     one-electron contribution =  -18475.45982776 Ry
     hartree contribution      =    9252.76636443 Ry
     xc contribution           =    -276.65770252 Ry
     ewald contribution        =    7932.41549970 Ry
     Hubbard energy            =       0.86034982 Ry
     smearing contrib. (-TS)   =       0.00029986 Ry

     convergence has been achieved in  13 iterations

     Forces acting on atoms (Ry/au):


     negative rho (up, down):  0.103E+00 0.000E+00
     atom    1 type  1   force =    -0.00081286   -0.01063812    0.00029831
     atom    2 type  1   force =     0.00016099    0.01545242    0.00002850
     atom    3 type  2   force =     0.05851887   -0.00966370    0.00030938
     atom    4 type  2   force =    -0.00263076    0.00532861   -0.00030424
     atom    5 type  1   force =    -0.00294396   -0.06676172    0.00001966
     atom    6 type  1   force =    -0.00564554    0.06814322    0.00019381
     atom    7 type  1   force =    -0.00001773    0.00068436    0.00049413
     atom    8 type  1   force =     0.00163727   -0.00127906   -0.00029450
     atom    9 type  2   force =     0.00906945    0.00023368    0.00012429
     atom   10 type  2   force =     0.00003139    0.00013750    0.00007778
     atom   11 type  1   force =    -0.03303807   -0.00267131   -0.00007049
     atom   12 type  1   force =    -0.03328082    0.00301244    0.00000822
     atom   13 type  1   force =     0.00012102    0.00012454   -0.00004231
     atom   14 type  1   force =    -0.00145969   -0.01003699   -0.00026657
     atom   15 type  1   force =     0.00002277    0.01182883    0.00007302
     atom   16 type  2   force =    -0.05816295   -0.00914400    0.00030315
     atom   17 type  2   force =    -0.00270708    0.00473402   -0.00030459
     atom   18 type  1   force =     0.00746955   -0.06667147    0.00010663
     atom   19 type  1   force =     0.00522832    0.06827579    0.00004400
     atom   20 type  1   force =    -0.00021788   -0.00026188    0.00006784
     atom   21 type  1   force =     0.00174094   -0.00099595   -0.00059583
     atom   22 type  2   force =    -0.00944259   -0.00002514    0.00012403
     atom   23 type  2   force =     0.00002846   -0.00015413    0.00027504
     atom   24 type  1   force =     0.03339226   -0.00257626    0.00000668
     atom   25 type  1   force =     0.03282297    0.00289369   -0.00006850
     atom   26 type  1   force =     0.00019846   -0.00012778   -0.00063615
     atom   27 type  3   force =    -0.00003254   -0.00006329   -0.00019963
     atom   28 type  3   force =     0.00001634   -0.00003751   -0.00003228
     atom   29 type  3   force =    -0.00019980    0.00003630   -0.00004052
     atom   30 type  3   force =     0.00013164    0.00022080    0.00007629
     atom   31 type  1   force =     0.00000158    0.00000212    0.00022484

     Total force =     0.001422     Total SCF correction =     0.000179
     SCF correction compared to forces is large: reduce conv_thr to get better values

     bfgs converged in  13 scf cycles and  12 bfgs steps
     (criteria: energy < 0.10E-03, force < 0.10E-02)

     End of BFGS Geometry Optimization

     Final energy   =   -1566.0750164736 Ry
Begin final coordinates

ATOMIC_POSITIONS (crystal)
O0       0.000000000   0.000000000   0.377407404    0   0   1
O0       0.000000000   0.500000000   0.397253250    0   0   1
Ti1      0.250000000   0.500000000   0.449629629    0   0   1
Ti1      0.000000000   0.000000000   0.451991872    0   0   1
O0       0.250000000   0.810000000   0.449045801    0   0   1
O0       0.250000000   0.190000000   0.449843022    0   0   1
O0       0.000000000   0.500000000   0.497417842    0   0   1
O0       0.000000000   0.000000000   0.525620009    0   0   1
Ti1      0.250000000   0.000000000   0.580908014    0   0   1
Ti1      0.000000000   0.500000000   0.568621692    0   0   1
O0       0.250000000   0.690000000   0.581003579    0   0   1
O0       0.250000000   0.310000000   0.580945664    0   0   1
O0       0.000000000   0.000000000   0.622801684    0   0   1
O0       0.500000000   0.000000000   0.377422159    0   0   1
O0       0.500000000   0.500000000   0.396437048    0   0   1
Ti1      0.750000000   0.500000000   0.449625240    0   0   1
Ti1      0.500000000   0.000000000   0.451575402    0   0   1
O0       0.750000000   0.810000000   0.449032079    0   0   1
O0       0.750000000   0.190000000   0.449822969    0   0   1
O0       0.500000000   0.500000000   0.491601556    0   0   1
O0       0.500000000   0.000000000   0.525451775    0   0   1
Ti1      0.750000000   0.000000000   0.580899024    0   0   1
Ti1      0.500000000   0.500000000   0.599605547    0   0   1
O0       0.750000000   0.690000000   0.581025725    0   0   1
O0       0.750000000   0.310000000   0.580915966    0   0   1
O0       0.500000000   0.000000000   0.621772111    0   0   1
H2      -0.000517949   0.622236052   0.375617946
H2       0.499391999   0.618345050   0.373610878
H2       0.149201173   0.034491110   0.363269360
H2       0.648826541   0.033527501   0.362997519
O0       0.500041821   0.499892512   0.662868233
End final coordinates



     init_run     :     91.57s CPU     94.34s WALL (       1 calls)
     electrons    :  33745.59s CPU  34663.52s WALL (      13 calls)
     update_pot   :    216.89s CPU    223.01s WALL (      12 calls)
     forces       :   1471.37s CPU   1492.49s WALL (      13 calls)

     Called by init_run:
     wfcinit      :     29.23s CPU     29.72s WALL (       1 calls)
     potinit      :      6.72s CPU      6.87s WALL (       1 calls)

     Called by electrons:
     c_bands      :  16866.33s CPU  17337.55s WALL (     219 calls)
     sum_band     :   6866.59s CPU   7077.00s WALL (     219 calls)
     v_of_rho     :    220.45s CPU    230.76s WALL (     232 calls)
     newd         :  10206.34s CPU  10258.72s WALL (     232 calls)
     mix_rho      :     40.38s CPU     41.49s WALL (     219 calls)

     Called by c_bands:
     init_us_2    :     48.32s CPU     48.71s WALL (    1434 calls)
     cegterg      :  16629.81s CPU  17041.63s WALL (     657 calls)

     Called by *egterg:
     h_psi        :   9876.01s CPU  10102.70s WALL (    2082 calls)
     s_psi        :   1033.52s CPU   1046.40s WALL (    2160 calls)
     g_psi        :     22.39s CPU     22.43s WALL (    1422 calls)
     cdiaghg      :   1475.43s CPU   1481.33s WALL (    2043 calls)

     Called by h_psi:
     add_vuspsi   :    995.64s CPU   1009.38s WALL (    2082 calls)
     vhpsi        :    999.42s CPU   1012.68s WALL (    2082 calls)

     General routines
     calbec       :   2416.76s CPU   2448.00s WALL (   16515 calls)
     fft          :    315.32s CPU    406.80s WALL (    3815 calls)
     ffts         :      3.89s CPU      3.98s WALL (     451 calls)
     fftw         :   5839.46s CPU   6078.00s WALL ( 1068725 calls)
     interpolate  :     33.89s CPU     34.41s WALL (     451 calls)
     davcio       :      0.09s CPU     21.41s WALL (    1473 calls)

     Parallel routines
     fft_scatter  :   2127.44s CPU   2442.90s WALL ( 1072991 calls)
     Hubbard U routines
     new_ns       :    207.65s CPU    222.80s WALL (     219 calls)
     vhpsi        :    999.42s CPU   1012.68s WALL (    2082 calls)
     force_hub    :    389.09s CPU    396.29s WALL (      13 calls)

     PWSCF        :    10h 1m CPU       10h17m WALL


   This run was terminated on:  19:31:19  28Apr2014            

=------------------------------------------------------------------------------=
   JOB DONE.
=------------------------------------------------------------------------------=
---------------------------------------
Running PBS batch system epilogue script
Job id: 340504.audhumbla.fysik.dtu.dk
Username: zhonxu
Groupname: campgst
Jobname: TiO2/Eads-2-layers/O-U-1.5
Sessionid: 14957
Resources limits: neednodes=2:ppn=8:xeon8,nodes=2:ppn=8:xeon8,walltime=48:00:00
Resources used: cput=164:36:40,mem=15228276kb,vmem=18959724kb,walltime=10:17:55
Queuename: verylong
Accounting:
This job has allocated the following 16 nodes:
a011 a011 a011 a011 a011 a011 a011 a011 a003 a003 a003 a003 a003 a003 a003 a003
Finished epilogue job 340504.audhumbla.fysik.dtu.dk for zhonxu
