
     Program PWSCF v.5.0.2 (svn rev. 9656) starts on  4May2014 at 18:45:40 

     This program is part of the open-source Quantum ESPRESSO suite
     for quantum simulation of materials; please cite
         "P. Giannozzi et al., J. Phys.:Condens. Matter 21 395502 (2009);
          URL http://www.quantum-espresso.org", 
     in publications or presentations arising from this work. More details at
     http://www.quantum-espresso.org/quote.php

     Parallel version (MPI), running on    16 processors
     K-points division:     npool     =       4
     R & G space division:  proc/nbgrp/npool/nimage =       4

     Current dimensions of program PWSCF are:
     Max number of different atomic species (ntypx) = 10
     Max number of k-points (npk) =  40000
     Max angular momentum in pseudopotentials (lmaxx) =  3
     Reading input from pwscf.in
Warning: card &CELL ignored
Warning: card / ignored

     Subspace diagonalization in iterative solution of the eigenvalue problem:
     a serial algorithm will be used


     Parallelization info
     --------------------
     sticks:   dense  smooth     PW     G-vecs:    dense   smooth      PW
     Min        1244     397    112               291872    52833    7934
     Max        1245     398    113               291883    52857    7939
     Sum        4979    1589    451              1167509   211387   31747



     bravais-lattice index     =            0
     lattice parameter (alat)  =      10.7336  a.u.
     unit-cell volume          =    6184.1966 (a.u.)^3
     number of atoms/cell      =           32
     number of atomic types    =            3
     number of electrons       =       239.00 (up: 131.00, down: 108.00)
     number of Kohn-Sham states=          346
     kinetic-energy cutoff     =      40.0000  Ry
     charge density cutoff     =     500.0000  Ry
     convergence threshold     =      1.0E-06
     mixing beta               =       0.7000
     number of iterations used =            8  plain     mixing
     Exchange-correlation      = SLA  PW   PBE  PBE ( 1 4 3 4 0)
     EXX-fraction              =        0.00
     nstep                     =           50


     celldm(1)=  10.733644  celldm(2)=   0.000000  celldm(3)=   0.000000
     celldm(4)=   0.000000  celldm(5)=   0.000000  celldm(6)=   0.000000

     crystal axes: (cart. coord. in units of alat)
               a(1) = (   1.000000   0.000000   0.000000 )  
               a(2) = (   0.000000   1.085558   0.000000 )  
               a(3) = (   0.000000   0.000000   4.606685 )  

     reciprocal axes: (cart. coord. in units 2 pi/alat)
               b(1) = (  1.000000  0.000000  0.000000 )  
               b(2) = (  0.000000  0.921185  0.000000 )  
               b(3) = (  0.000000  0.000000  0.217076 )  


     PseudoPot. # 1 for O  read from file:
     /home/camp/zhonxu/pseudo/o_pbe_v1.01.uspp.F.UPF
     MD5 check sum: 2bcb18d16ea4b960afae9ec6d52f22d2
     Pseudo is Ultrasoft + core correction, Zval =  6.0
     Generated by new atomic code, or converted to UPF format
     Using radial grid of  737 points,  5 beta functions with: 
                l(1) =   0
                l(2) =   0
                l(3) =   1
                l(4) =   1
                l(5) =   2
     Q(r) pseudized with  8 coefficients,  rinner =    0.900   0.900   0.900
                                                       0.900   0.900

     PseudoPot. # 2 for Mn read from file:
     /home/camp/zhonxu/pseudo/mn_pbe_v1.uspp.F.UPF
     MD5 check sum: 5fd7c7b5c956fd19902447332617373a
     Pseudo is Ultrasoft + core correction, Zval = 15.0
     Generated by new atomic code, or converted to UPF format
     Using radial grid of  859 points,  6 beta functions with: 
                l(1) =   0
                l(2) =   0
                l(3) =   1
                l(4) =   1
                l(5) =   2
                l(6) =   2
     Q(r) pseudized with  6 coefficients,  rinner =    1.150   1.150   1.150
                                                       1.150   1.150

     PseudoPot. # 3 for H  read from file:
     /home/camp/zhonxu/pseudo/h_pbe_v1.uspp.F.UPF
     MD5 check sum: 3408e3ff4ec8b0a4e358431e7e038a48
     Pseudo is Ultrasoft, Zval =  1.0
     Generated by new atomic code, or converted to UPF format
     Using radial grid of  615 points,  2 beta functions with: 
                l(1) =   0
                l(2) =   0
     Q(r) pseudized with  8 coefficients,  rinner =    0.700

     atomic species   valence    mass     pseudopotential
        O0             6.00    15.99940     O ( 1.00)
        Mn1           15.00    54.93800     Mn( 1.00)
        H2             1.00     1.00794     H ( 1.00)

     Starting magnetic structure 
     atomic species   magnetization
        O0           0.000
        Mn1          0.600
        H2           0.000


     Simplified LDA+U calculation (l_max = 2) with parameters (eV):
     atomic species    L          U    alpha       J0     beta
        Mn1            2     1.5000   0.0000   0.0000   0.0000



     No symmetry found



   Cartesian axes

     site n.     atom                  positions (alat units)
         1           O0  tau(   1) = (   0.0000000   0.0000000   1.7414191  )
         2           O0  tau(   2) = (   0.0000000   0.5427791   1.8381134  )
         3           Mn1 tau(   3) = (   0.2500000   0.5427791   2.0740217  )
         4           Mn1 tau(   4) = (   0.0000000   0.0000000   2.0686319  )
         5           O0  tau(   5) = (   0.2500000   0.8684466   2.0678488  )
         6           O0  tau(   6) = (   0.2500000   0.2171117   2.0737453  )
         7           O0  tau(   7) = (   0.0000000   0.5427791   2.2873573  )
         8           O0  tau(   8) = (   0.0000000   0.0000000   2.4132120  )
         9           Mn1 tau(   9) = (   0.2500000   0.0000000   2.6399991  )
        10           Mn1 tau(  10) = (   0.0000000   0.5427791   2.6085815  )
        11           O0  tau(  11) = (   0.2500000   0.7598908   2.6551551  )
        12           O0  tau(  12) = (   0.2500000   0.3256675   2.6556157  )
        13           O0  tau(  13) = (   0.0000000   0.0000000   2.8417258  )
        14           O0  tau(  14) = (   0.5000000   0.0000000   1.7428932  )
        15           O0  tau(  15) = (   0.5000000   0.5427791   1.8386662  )
        16           Mn1 tau(  16) = (   0.7500000   0.5427791   2.0740678  )
        17           Mn1 tau(  17) = (   0.5000000   0.0000000   2.0707510  )
        18           O0  tau(  18) = (   0.7500000   0.8684466   2.0677106  )
        19           O0  tau(  19) = (   0.7500000   0.2171117   2.0738835  )
        20           O0  tau(  20) = (   0.5000000   0.5427791   2.2871270  )
        21           O0  tau(  21) = (   0.5000000   0.0000000   2.4132120  )
        22           Mn1 tau(  22) = (   0.7500000   0.0000000   2.6413811  )
        23           Mn1 tau(  23) = (   0.5000000   0.5427791   2.6662572  )
        24           O0  tau(  24) = (   0.7500000   0.7598908   2.6473698  )
        25           O0  tau(  25) = (   0.7500000   0.3256675   2.6477844  )
        26           O0  tau(  26) = (   0.5000000   0.0000000   2.8412191  )
        27           H2  tau(  27) = (   0.0000400   0.7014118   1.7620570  )
        28           H2  tau(  28) = (   0.5000900   0.7016832   1.7629323  )
        29           H2  tau(  29) = (   0.1613600   0.0398291   1.6869220  )
        30           H2  tau(  30) = (   0.6610200   0.0399703   1.6876591  )
        31           O0  tau(  31) = (   0.5153900   0.5432351   2.9826904  )
        32           H2  tau(  32) = (   0.3575300   0.5430397   3.0540479  )

     number of k points=    20  Methfessel-Paxton smearing, width (Ry)=  0.0100
                       cart. coord. in units 2pi/alat
        k(    1) = (   0.0000000   0.0000000   0.0000000), wk =   0.0625000
        k(    2) = (   0.0000000   0.2302962   0.0000000), wk =   0.1250000
        k(    3) = (   0.0000000  -0.4605925   0.0000000), wk =   0.0625000
        k(    4) = (   0.2500000   0.0000000   0.0000000), wk =   0.1250000
        k(    5) = (   0.2500000   0.2302962   0.0000000), wk =   0.1250000
        k(    6) = (   0.2500000  -0.4605925   0.0000000), wk =   0.1250000
        k(    7) = (  -0.5000000   0.0000000   0.0000000), wk =   0.0625000
        k(    8) = (  -0.5000000   0.2302962   0.0000000), wk =   0.1250000
        k(    9) = (  -0.5000000  -0.4605925   0.0000000), wk =   0.0625000
        k(   10) = (  -0.2500000   0.2302962   0.0000000), wk =   0.1250000
        k(   11) = (   0.0000000   0.0000000   0.0000000), wk =   0.0625000
        k(   12) = (   0.0000000   0.2302962   0.0000000), wk =   0.1250000
        k(   13) = (   0.0000000  -0.4605925   0.0000000), wk =   0.0625000
        k(   14) = (   0.2500000   0.0000000   0.0000000), wk =   0.1250000
        k(   15) = (   0.2500000   0.2302962   0.0000000), wk =   0.1250000
        k(   16) = (   0.2500000  -0.4605925   0.0000000), wk =   0.1250000
        k(   17) = (  -0.5000000   0.0000000   0.0000000), wk =   0.0625000
        k(   18) = (  -0.5000000   0.2302962   0.0000000), wk =   0.1250000
        k(   19) = (  -0.5000000  -0.4605925   0.0000000), wk =   0.0625000
        k(   20) = (  -0.2500000   0.2302962   0.0000000), wk =   0.1250000

     Dense  grid:  1167509 G-vectors     FFT dimensions: (  80,  90, 360)

     Smooth grid:   211387 G-vectors     FFT dimensions: (  45,  48, 200)

     Largest allocated arrays     est. size (Mb)     dimensions
        Kohn-Sham Wavefunctions        35.06 Mb     (   6641,  346)
        Atomic wavefunctions           18.75 Mb     (   6641,  185)
        NL pseudopotentials            40.63 Mb     (   6641,  401)
        Each V/rho on FFT grid         19.78 Mb     ( 648000,   2)
        Each G-vector array             2.23 Mb     ( 291883)
        G-vector shells                 0.97 Mb     ( 127585)
     Largest temporary arrays     est. size (Mb)     dimensions
        Auxiliary wavefunctions       140.25 Mb     (   6641, 1384)
        Each subspace H/S matrix       29.23 Mb     (1384,1384)
        Each <psi_i|beta_j> matrix      2.12 Mb     (    401,  346)
        Arrays for rho mixing          79.10 Mb     ( 648000,   8)

     Check: negative/imaginary core charge=   -0.000022    0.000000

     Initial potential from superposition of free atoms
     Check: negative starting charge=(component1):   -0.000716
     Check: negative starting charge=(component2):   -0.000389

     starting charge  230.99986, renormalised to  239.00000

     negative rho (up, down):  0.741E-03 0.403E-03
     Number of +U iterations with fixed ns =  0
     Starting occupations:
 --- enter write_ns ---
 LDA+U parameters:
U( 2)     =  1.50000000
alpha( 2) =  0.00000000
atom    3   Tr[ns(na)] (up, down, total) =   5.00000  0.00000  5.00000
   spin  1
    eigenvalues: 
  1.000  1.000  1.000  1.000  1.000
    eigenvectors:
  1.000  0.000  0.000  0.000  0.000
  0.000  1.000  0.000  0.000  0.000
  0.000  0.000  1.000  0.000  0.000
  0.000  0.000  0.000  1.000  0.000
  0.000  0.000  0.000  0.000  1.000
    occupations:
  1.000  0.000  0.000  0.000  0.000
  0.000  1.000  0.000  0.000  0.000
  0.000  0.000  1.000  0.000  0.000
  0.000  0.000  0.000  1.000  0.000
  0.000  0.000  0.000  0.000  1.000
   spin  2
    eigenvalues: 
  0.000  0.000  0.000  0.000  0.000
    eigenvectors:
  1.000  0.000  0.000  0.000  0.000
  0.000  1.000  0.000  0.000  0.000
  0.000  0.000  1.000  0.000  0.000
  0.000  0.000  0.000  1.000  0.000
  0.000  0.000  0.000  0.000  1.000
    occupations:
  0.000  0.000  0.000  0.000  0.000
  0.000  0.000  0.000  0.000  0.000
  0.000  0.000  0.000  0.000  0.000
  0.000  0.000  0.000  0.000  0.000
  0.000  0.000  0.000  0.000  0.000
atomic mag. moment =     5.000000
atom    4   Tr[ns(na)] (up, down, total) =   5.00000  0.00000  5.00000
   spin  1
    eigenvalues: 
  1.000  1.000  1.000  1.000  1.000
    eigenvectors:
  1.000  0.000  0.000  0.000  0.000
  0.000  1.000  0.000  0.000  0.000
  0.000  0.000  1.000  0.000  0.000
  0.000  0.000  0.000  1.000  0.000
  0.000  0.000  0.000  0.000  1.000
    occupations:
  1.000  0.000  0.000  0.000  0.000
  0.000  1.000  0.000  0.000  0.000
  0.000  0.000  1.000  0.000  0.000
  0.000  0.000  0.000  1.000  0.000
  0.000  0.000  0.000  0.000  1.000
   spin  2
    eigenvalues: 
  0.000  0.000  0.000  0.000  0.000
    eigenvectors:
  1.000  0.000  0.000  0.000  0.000
  0.000  1.000  0.000  0.000  0.000
  0.000  0.000  1.000  0.000  0.000
  0.000  0.000  0.000  1.000  0.000
  0.000  0.000  0.000  0.000  1.000
    occupations:
  0.000  0.000  0.000  0.000  0.000
  0.000  0.000  0.000  0.000  0.000
  0.000  0.000  0.000  0.000  0.000
  0.000  0.000  0.000  0.000  0.000
  0.000  0.000  0.000  0.000  0.000
atomic mag. moment =     5.000000
atom    9   Tr[ns(na)] (up, down, total) =   5.00000  0.00000  5.00000
   spin  1
    eigenvalues: 
  1.000  1.000  1.000  1.000  1.000
    eigenvectors:
  1.000  0.000  0.000  0.000  0.000
  0.000  1.000  0.000  0.000  0.000
  0.000  0.000  1.000  0.000  0.000
  0.000  0.000  0.000  1.000  0.000
  0.000  0.000  0.000  0.000  1.000
    occupations:
  1.000  0.000  0.000  0.000  0.000
  0.000  1.000  0.000  0.000  0.000
  0.000  0.000  1.000  0.000  0.000
  0.000  0.000  0.000  1.000  0.000
  0.000  0.000  0.000  0.000  1.000
   spin  2
    eigenvalues: 
  0.000  0.000  0.000  0.000  0.000
    eigenvectors:
  1.000  0.000  0.000  0.000  0.000
  0.000  1.000  0.000  0.000  0.000
  0.000  0.000  1.000  0.000  0.000
  0.000  0.000  0.000  1.000  0.000
  0.000  0.000  0.000  0.000  1.000
    occupations:
  0.000  0.000  0.000  0.000  0.000
  0.000  0.000  0.000  0.000  0.000
  0.000  0.000  0.000  0.000  0.000
  0.000  0.000  0.000  0.000  0.000
  0.000  0.000  0.000  0.000  0.000
atomic mag. moment =     5.000000
atom   10   Tr[ns(na)] (up, down, total) =   5.00000  0.00000  5.00000
   spin  1
    eigenvalues: 
  1.000  1.000  1.000  1.000  1.000
    eigenvectors:
  1.000  0.000  0.000  0.000  0.000
  0.000  1.000  0.000  0.000  0.000
  0.000  0.000  1.000  0.000  0.000
  0.000  0.000  0.000  1.000  0.000
  0.000  0.000  0.000  0.000  1.000
    occupations:
  1.000  0.000  0.000  0.000  0.000
  0.000  1.000  0.000  0.000  0.000
  0.000  0.000  1.000  0.000  0.000
  0.000  0.000  0.000  1.000  0.000
  0.000  0.000  0.000  0.000  1.000
   spin  2
    eigenvalues: 
  0.000  0.000  0.000  0.000  0.000
    eigenvectors:
  1.000  0.000  0.000  0.000  0.000
  0.000  1.000  0.000  0.000  0.000
  0.000  0.000  1.000  0.000  0.000
  0.000  0.000  0.000  1.000  0.000
  0.000  0.000  0.000  0.000  1.000
    occupations:
  0.000  0.000  0.000  0.000  0.000
  0.000  0.000  0.000  0.000  0.000
  0.000  0.000  0.000  0.000  0.000
  0.000  0.000  0.000  0.000  0.000
  0.000  0.000  0.000  0.000  0.000
atomic mag. moment =     5.000000
atom   16   Tr[ns(na)] (up, down, total) =   5.00000  0.00000  5.00000
   spin  1
    eigenvalues: 
  1.000  1.000  1.000  1.000  1.000
    eigenvectors:
  1.000  0.000  0.000  0.000  0.000
  0.000  1.000  0.000  0.000  0.000
  0.000  0.000  1.000  0.000  0.000
  0.000  0.000  0.000  1.000  0.000
  0.000  0.000  0.000  0.000  1.000
    occupations:
  1.000  0.000  0.000  0.000  0.000
  0.000  1.000  0.000  0.000  0.000
  0.000  0.000  1.000  0.000  0.000
  0.000  0.000  0.000  1.000  0.000
  0.000  0.000  0.000  0.000  1.000
   spin  2
    eigenvalues: 
  0.000  0.000  0.000  0.000  0.000
    eigenvectors:
  1.000  0.000  0.000  0.000  0.000
  0.000  1.000  0.000  0.000  0.000
  0.000  0.000  1.000  0.000  0.000
  0.000  0.000  0.000  1.000  0.000
  0.000  0.000  0.000  0.000  1.000
    occupations:
  0.000  0.000  0.000  0.000  0.000
  0.000  0.000  0.000  0.000  0.000
  0.000  0.000  0.000  0.000  0.000
  0.000  0.000  0.000  0.000  0.000
  0.000  0.000  0.000  0.000  0.000
atomic mag. moment =     5.000000
atom   17   Tr[ns(na)] (up, down, total) =   5.00000  0.00000  5.00000
   spin  1
    eigenvalues: 
  1.000  1.000  1.000  1.000  1.000
    eigenvectors:
  1.000  0.000  0.000  0.000  0.000
  0.000  1.000  0.000  0.000  0.000
  0.000  0.000  1.000  0.000  0.000
  0.000  0.000  0.000  1.000  0.000
  0.000  0.000  0.000  0.000  1.000
    occupations:
  1.000  0.000  0.000  0.000  0.000
  0.000  1.000  0.000  0.000  0.000
  0.000  0.000  1.000  0.000  0.000
  0.000  0.000  0.000  1.000  0.000
  0.000  0.000  0.000  0.000  1.000
   spin  2
    eigenvalues: 
  0.000  0.000  0.000  0.000  0.000
    eigenvectors:
  1.000  0.000  0.000  0.000  0.000
  0.000  1.000  0.000  0.000  0.000
  0.000  0.000  1.000  0.000  0.000
  0.000  0.000  0.000  1.000  0.000
  0.000  0.000  0.000  0.000  1.000
    occupations:
  0.000  0.000  0.000  0.000  0.000
  0.000  0.000  0.000  0.000  0.000
  0.000  0.000  0.000  0.000  0.000
  0.000  0.000  0.000  0.000  0.000
  0.000  0.000  0.000  0.000  0.000
atomic mag. moment =     5.000000
atom   22   Tr[ns(na)] (up, down, total) =   5.00000  0.00000  5.00000
   spin  1
    eigenvalues: 
  1.000  1.000  1.000  1.000  1.000
    eigenvectors:
  1.000  0.000  0.000  0.000  0.000
  0.000  1.000  0.000  0.000  0.000
  0.000  0.000  1.000  0.000  0.000
  0.000  0.000  0.000  1.000  0.000
  0.000  0.000  0.000  0.000  1.000
    occupations:
  1.000  0.000  0.000  0.000  0.000
  0.000  1.000  0.000  0.000  0.000
  0.000  0.000  1.000  0.000  0.000
  0.000  0.000  0.000  1.000  0.000
  0.000  0.000  0.000  0.000  1.000
   spin  2
    eigenvalues: 
  0.000  0.000  0.000  0.000  0.000
    eigenvectors:
  1.000  0.000  0.000  0.000  0.000
  0.000  1.000  0.000  0.000  0.000
  0.000  0.000  1.000  0.000  0.000
  0.000  0.000  0.000  1.000  0.000
  0.000  0.000  0.000  0.000  1.000
    occupations:
  0.000  0.000  0.000  0.000  0.000
  0.000  0.000  0.000  0.000  0.000
  0.000  0.000  0.000  0.000  0.000
  0.000  0.000  0.000  0.000  0.000
  0.000  0.000  0.000  0.000  0.000
atomic mag. moment =     5.000000
atom   23   Tr[ns(na)] (up, down, total) =   5.00000  0.00000  5.00000
   spin  1
    eigenvalues: 
  1.000  1.000  1.000  1.000  1.000
    eigenvectors:
  1.000  0.000  0.000  0.000  0.000
  0.000  1.000  0.000  0.000  0.000
  0.000  0.000  1.000  0.000  0.000
  0.000  0.000  0.000  1.000  0.000
  0.000  0.000  0.000  0.000  1.000
    occupations:
  1.000  0.000  0.000  0.000  0.000
  0.000  1.000  0.000  0.000  0.000
  0.000  0.000  1.000  0.000  0.000
  0.000  0.000  0.000  1.000  0.000
  0.000  0.000  0.000  0.000  1.000
   spin  2
    eigenvalues: 
  0.000  0.000  0.000  0.000  0.000
    eigenvectors:
  1.000  0.000  0.000  0.000  0.000
  0.000  1.000  0.000  0.000  0.000
  0.000  0.000  1.000  0.000  0.000
  0.000  0.000  0.000  1.000  0.000
  0.000  0.000  0.000  0.000  1.000
    occupations:
  0.000  0.000  0.000  0.000  0.000
  0.000  0.000  0.000  0.000  0.000
  0.000  0.000  0.000  0.000  0.000
  0.000  0.000  0.000  0.000  0.000
  0.000  0.000  0.000  0.000  0.000
atomic mag. moment =     5.000000
N of occupied +U levels =  40.0000000
 --- exit write_ns ---
 Atomic wfc used for LDA+U Projector are NOT orthogonalized
     Starting wfc are  185 randomized atomic wfcs

     total cpu time spent up to now is      126.2 secs

     per-process dynamical memory:   468.4 Mb

     Self-consistent Calculation

     iteration #  1     ecut=    40.00 Ry     beta=0.70
     Davidson diagonalization with overlap
     ethr =  1.00E-02,  avg # of iterations =  5.5
 --- enter write_ns ---
 LDA+U parameters:
U( 2)     =  1.50000000
alpha( 2) =  0.00000000
atom    3   Tr[ns(na)] (up, down, total) =   4.09880  0.61308  4.71189
   spin  1
    eigenvalues: 
  0.594  0.627  0.922  0.976  0.980
    eigenvectors:
  0.237  0.000  0.004  0.714  0.045
  0.000  0.997  0.000  0.001  0.002
  0.000  0.000  0.993  0.003  0.004
  0.762  0.001  0.001  0.222  0.014
  0.000  0.002  0.002  0.060  0.936
    occupations:
  0.885  0.005  0.002 -0.163  0.001
  0.005  0.628  0.001 -0.002 -0.016
  0.002  0.001  0.922 -0.004  0.003
 -0.163 -0.002 -0.004  0.685 -0.001
  0.001 -0.016  0.003 -0.001  0.979
   spin  2
    eigenvalues: 
  0.064  0.069  0.071  0.199  0.209
    eigenvectors:
  0.490  0.060  0.261  0.004  0.185
  0.000  0.001  0.000  0.978  0.021
  0.385  0.038  0.577  0.000  0.000
  0.116  0.014  0.059  0.017  0.794
  0.009  0.887  0.103  0.001  0.000
    occupations:
  0.094 -0.000 -0.003  0.056  0.000
 -0.000  0.199  0.000 -0.001  0.004
 -0.003  0.000  0.068  0.002 -0.001
  0.056 -0.001  0.002  0.182 -0.000
  0.000  0.004 -0.001 -0.000  0.069
atomic mag. moment =     3.485719
atom    4   Tr[ns(na)] (up, down, total) =   3.94593  0.63286  4.57879
   spin  1
    eigenvalues: 
  0.523  0.672  0.878  0.895  0.978
    eigenvectors:
  0.000  0.981  0.017  0.000  0.002
  0.000  0.012  0.823  0.161  0.004
  0.000  0.004  0.155  0.838  0.003
  0.000  0.003  0.005  0.001  0.991
  1.000  0.000  0.000  0.000  0.000
    occupations:
  0.676  0.022  0.013  0.015 -0.000
  0.022  0.879 -0.007 -0.007  0.005
  0.013 -0.007  0.891 -0.006  0.000
  0.015 -0.007 -0.006  0.976 -0.000
 -0.000  0.005  0.000 -0.000  0.523
   spin  2
    eigenvalues: 
  0.062  0.072  0.085  0.198  0.215
    eigenvectors:
  0.008  0.002  0.000  0.000  0.991
  0.009  0.862  0.127  0.000  0.002
  0.002  0.125  0.873  0.000  0.000
  0.982  0.011  0.000  0.000  0.007
  0.000  0.000  0.000  1.000  0.000
    occupations:
  0.214  0.007  0.003 -0.013  0.000
  0.007  0.074 -0.004  0.000 -0.002
  0.003 -0.004  0.083  0.000  0.000
 -0.013  0.000  0.000  0.064  0.000
  0.000 -0.002  0.000  0.000  0.198
atomic mag. moment =     3.313068
atom    9   Tr[ns(na)] (up, down, total) =   4.29396  0.68792  4.98188
   spin  1
    eigenvalues: 
  0.640  0.674  0.988  0.990  1.003
    eigenvectors:
  0.007  0.152  0.840  0.000  0.000
  0.950  0.050  0.000  0.000  0.000
  0.000  0.000  0.000  0.024  0.976
  0.043  0.798  0.159  0.000  0.000
  0.000  0.000  0.000  0.975  0.024
    occupations:
  0.938  0.002 -0.000 -0.116  0.000
  0.002  0.641  0.000  0.007  0.000
 -0.000  0.000  1.003 -0.000  0.002
 -0.116  0.007 -0.000  0.722  0.000
  0.000  0.000  0.002  0.000  0.990
   spin  2
    eigenvalues: 
  0.076  0.084  0.087  0.217  0.223
    eigenvectors:
  0.000  0.860  0.000  0.140  0.000
  0.000  0.000  0.000  0.003  0.997
  1.000  0.000  0.000  0.000  0.000
  0.000  0.140  0.000  0.857  0.003
  0.000  0.000  1.000  0.000  0.000
    occupations:
  0.103  0.000  0.000  0.046  0.000
  0.000  0.223  0.000 -0.000 -0.000
  0.000  0.000  0.076  0.000 -0.000
  0.046 -0.000  0.000  0.198 -0.000
  0.000 -0.000 -0.000 -0.000  0.087
atomic mag. moment =     3.606033
atom   10   Tr[ns(na)] (up, down, total) =   4.86924  0.54010  5.40934
   spin  1
    eigenvalues: 
  0.893  0.980  0.994  0.998  1.004
    eigenvectors:
  0.000  0.724  0.276  0.000  0.000
  0.000  0.001  0.001  0.998  0.000
  0.000  0.000  0.000  0.000  1.000
  0.000  0.275  0.723  0.002  0.000
  1.000  0.000  0.000  0.000  0.000
    occupations:
  0.984 -0.000 -0.000  0.006  0.000
 -0.000  0.998  0.000  0.000 -0.000
 -0.000  0.000  1.004  0.000  0.002
  0.006  0.000  0.000  0.990  0.000
  0.000 -0.000  0.002  0.000  0.893
   spin  2
    eigenvalues: 
  0.061  0.066  0.072  0.146  0.195
    eigenvectors:
  0.017  0.000  0.000  0.983  0.000
  0.001  0.000  0.999  0.000  0.000
  0.000  1.000  0.000  0.000  0.000
  0.982  0.000  0.000  0.017  0.000
  0.000  0.000  0.000  0.000  1.000
    occupations:
  0.145  0.000 -0.000 -0.011 -0.000
  0.000  0.072 -0.000 -0.000  0.000
 -0.000 -0.000  0.066 -0.000 -0.002
 -0.011 -0.000 -0.000  0.062  0.000
 -0.000  0.000 -0.002  0.000  0.195
atomic mag. moment =     4.329136
atom   16   Tr[ns(na)] (up, down, total) =   4.09583  0.61269  4.70852
   spin  1
    eigenvalues: 
  0.593  0.627  0.920  0.976  0.980
    eigenvectors:
  0.238  0.000  0.004  0.737  0.021
  0.000  0.997  0.000  0.000  0.002
  0.000  0.000  0.995  0.005  0.000
  0.762  0.000  0.001  0.231  0.006
  0.000  0.002  0.000  0.026  0.971
    occupations:
  0.885 -0.004  0.002 -0.163 -0.001
 -0.004  0.628 -0.001  0.002 -0.016
  0.002 -0.001  0.920 -0.004  0.001
 -0.163  0.002 -0.004  0.684  0.000
 -0.001 -0.016  0.001  0.000  0.979
   spin  2
    eigenvalues: 
  0.064  0.069  0.071  0.199  0.209
    eigenvectors:
  0.495  0.052  0.264  0.004  0.185
  0.000  0.001  0.000  0.980  0.019
  0.381  0.035  0.585  0.000  0.000
  0.117  0.012  0.060  0.016  0.795
  0.008  0.901  0.091  0.001  0.000
    occupations:
  0.094  0.000 -0.003  0.056 -0.000
  0.000  0.199 -0.000  0.001  0.004
 -0.003 -0.000  0.068  0.002  0.001
  0.056  0.001  0.002  0.182  0.000
 -0.000  0.004  0.001  0.000  0.069
atomic mag. moment =     3.483138
atom   17   Tr[ns(na)] (up, down, total) =   3.94389  0.63214  4.57603
   spin  1
    eigenvalues: 
  0.523  0.669  0.879  0.895  0.977
    eigenvectors:
  0.000  0.981  0.017  0.000  0.002
  0.000  0.012  0.806  0.179  0.003
  0.000  0.004  0.172  0.820  0.004
  0.000  0.003  0.005  0.001  0.991
  1.000  0.000  0.000  0.000  0.000
    occupations:
  0.673  0.022  0.014  0.015 -0.000
  0.022  0.880 -0.007 -0.007  0.005
  0.014 -0.007  0.892 -0.006  0.000
  0.015 -0.007 -0.006  0.976 -0.000
 -0.000  0.005  0.000 -0.000  0.523
   spin  2
    eigenvalues: 
  0.062  0.072  0.084  0.198  0.216
    eigenvectors:
  0.008  0.002  0.000  0.000  0.991
  0.008  0.858  0.131  0.000  0.002
  0.002  0.129  0.869  0.000  0.000
  0.982  0.011  0.000  0.000  0.007
  0.000  0.000  0.000  1.000  0.000
    occupations:
  0.214  0.007  0.003 -0.013  0.000
  0.007  0.074 -0.004  0.000 -0.002
  0.003 -0.004  0.082  0.000  0.000
 -0.013  0.000  0.000  0.063  0.000
  0.000 -0.002  0.000  0.000  0.198
atomic mag. moment =     3.311745
atom   22   Tr[ns(na)] (up, down, total) =   4.28640  0.69064  4.97705
   spin  1
    eigenvalues: 
  0.640  0.666  0.988  0.989  1.003
    eigenvectors:
  0.002  0.156  0.841  0.000  0.000
  0.990  0.010  0.000  0.000  0.000
  0.000  0.000  0.000  0.037  0.962
  0.008  0.833  0.158  0.000  0.000
  0.000  0.000  0.000  0.962  0.037
    occupations:
  0.937  0.003 -0.000 -0.117  0.000
  0.003  0.641  0.000  0.002  0.000
 -0.000  0.000  1.003 -0.000 -0.003
 -0.117  0.002 -0.000  0.717  0.000
  0.000  0.000 -0.003  0.000  0.990
   spin  2
    eigenvalues: 
  0.076  0.085  0.088  0.218  0.224
    eigenvectors:
  0.000  0.861  0.000  0.139  0.000
  0.000  0.000  0.000  0.003  0.997
  1.000  0.000  0.000  0.000  0.000
  0.000  0.139  0.000  0.858  0.003
  0.000  0.000  1.000  0.000  0.000
    occupations:
  0.103 -0.000  0.000  0.046  0.000
 -0.000  0.224 -0.000  0.000 -0.000
  0.000 -0.000  0.076  0.000  0.000
  0.046  0.000  0.000  0.199 -0.000
  0.000 -0.000  0.000 -0.000  0.088
atomic mag. moment =     3.595763
atom   23   Tr[ns(na)] (up, down, total) =   4.41452  0.60817  5.02269
   spin  1
    eigenvalues: 
  0.667  0.754  0.989  1.001  1.004
    eigenvectors:
  0.999  0.000  0.001  0.000  0.000
  0.000  0.000  0.005  0.995  0.000
  0.000  0.000  0.000  0.000  1.000
  0.001  0.000  0.994  0.005  0.000
  0.000  1.000  0.000  0.000  0.000
    occupations:
  0.667 -0.003  0.002  0.011  0.000
 -0.003  1.001  0.000 -0.001 -0.000
  0.002  0.000  1.004  0.000 -0.004
  0.011 -0.001  0.000  0.989  0.000
  0.000 -0.000 -0.004  0.000  0.754
   spin  2
    eigenvalues: 
  0.061  0.070  0.078  0.198  0.201
    eigenvectors:
  0.008  0.000  0.000  0.000  0.992
  0.000  1.000  0.000  0.000  0.000
  0.000  0.000  1.000  0.000  0.000
  0.992  0.000  0.000  0.000  0.008
  0.000  0.000  0.000  1.000  0.000
    occupations:
  0.200 -0.001 -0.000 -0.013  0.000
 -0.001  0.070 -0.000  0.000  0.000
 -0.000 -0.000  0.078  0.000  0.001
 -0.013  0.000  0.000  0.062 -0.000
  0.000  0.000  0.001 -0.000  0.198
atomic mag. moment =     3.806351
N of occupied +U levels =  38.9661899
 --- exit write_ns ---

     negative rho (up, down):  0.122E-02 0.103E-02

     total cpu time spent up to now is      618.6 secs

     total energy              =   -2307.98241824 Ry
     Harris-Foulkes estimate   =   -2319.26109439 Ry
     estimated scf accuracy    <      23.41304867 Ry

     total magnetization       =    23.00 Bohr mag/cell
     absolute magnetization    =    35.91 Bohr mag/cell

     iteration #  2     ecut=    40.00 Ry     beta=0.70
     Davidson diagonalization with overlap
     ethr =  9.80E-03,  avg # of iterations =  5.0

     negative rho (up, down):  0.904E-02 0.240E-02

     total cpu time spent up to now is     1101.0 secs

     total energy              =   -2177.96031310 Ry
     Harris-Foulkes estimate   =   -2486.55338022 Ry
     estimated scf accuracy    <    4547.68270946 Ry

     total magnetization       =    23.00 Bohr mag/cell
     absolute magnetization    =    23.36 Bohr mag/cell

     iteration #  3     ecut=    40.00 Ry     beta=0.70
     Davidson diagonalization with overlap
     ethr =  9.80E-03,  avg # of iterations =  4.7

     negative rho (up, down):  0.917E-02 0.853E-02

     total cpu time spent up to now is     1541.7 secs

     total energy              =   -2306.78245769 Ry
     Harris-Foulkes estimate   =   -2329.64190933 Ry
     estimated scf accuracy    <     143.04983925 Ry

     total magnetization       =    23.00 Bohr mag/cell
     absolute magnetization    =    23.75 Bohr mag/cell

     iteration #  4     ecut=    40.00 Ry     beta=0.70
     Davidson diagonalization with overlap
     ethr =  9.80E-03,  avg # of iterations =  1.9

     negative rho (up, down):  0.729E-02 0.997E-02

     total cpu time spent up to now is     1776.6 secs

     total energy              =   -2315.09762156 Ry
     Harris-Foulkes estimate   =   -2325.07807446 Ry
     estimated scf accuracy    <     103.13307745 Ry

     total magnetization       =    23.00 Bohr mag/cell
     absolute magnetization    =    24.83 Bohr mag/cell

     iteration #  5     ecut=    40.00 Ry     beta=0.70
     Davidson diagonalization with overlap
     ethr =  9.80E-03,  avg # of iterations =  3.0

     negative rho (up, down):  0.497E-02 0.234E-02

     total cpu time spent up to now is     2027.9 secs

     total energy              =   -2320.59362892 Ry
     Harris-Foulkes estimate   =   -2323.42534166 Ry
     estimated scf accuracy    <      15.36074728 Ry

     total magnetization       =    23.00 Bohr mag/cell
     absolute magnetization    =    26.51 Bohr mag/cell

     iteration #  6     ecut=    40.00 Ry     beta=0.70
     Davidson diagonalization with overlap
     ethr =  6.43E-03,  avg # of iterations =  1.9

     negative rho (up, down):  0.482E-02 0.417E-02

     total cpu time spent up to now is     2267.5 secs

     total energy              =   -2318.94054266 Ry
     Harris-Foulkes estimate   =   -2323.02761354 Ry
     estimated scf accuracy    <      30.91226752 Ry

     total magnetization       =    23.00 Bohr mag/cell
     absolute magnetization    =    25.33 Bohr mag/cell

     iteration #  7     ecut=    40.00 Ry     beta=0.70
     Davidson diagonalization with overlap
     ethr =  6.43E-03,  avg # of iterations =  1.2

     negative rho (up, down):  0.450E-02 0.290E-02

     total cpu time spent up to now is     2497.9 secs

     total energy              =   -2320.90388173 Ry
     Harris-Foulkes estimate   =   -2322.39149147 Ry
     estimated scf accuracy    <      11.41849453 Ry

     total magnetization       =    23.00 Bohr mag/cell
     absolute magnetization    =    25.24 Bohr mag/cell

     iteration #  8     ecut=    40.00 Ry     beta=0.70
     Davidson diagonalization with overlap
     ethr =  4.78E-03,  avg # of iterations =  1.0

     negative rho (up, down):  0.488E-02 0.269E-02

     total cpu time spent up to now is     2726.2 secs

     total energy              =   -2320.92786533 Ry
     Harris-Foulkes estimate   =   -2322.47832299 Ry
     estimated scf accuracy    <      13.06950229 Ry

     total magnetization       =    23.00 Bohr mag/cell
     absolute magnetization    =    24.12 Bohr mag/cell

     iteration #  9     ecut=    40.00 Ry     beta=0.70
     Davidson diagonalization with overlap
     ethr =  4.78E-03,  avg # of iterations =  1.0

     negative rho (up, down):  0.556E-02 0.315E-02

     total cpu time spent up to now is     2951.3 secs

     total energy              =   -2321.57707910 Ry
     Harris-Foulkes estimate   =   -2321.81001224 Ry
     estimated scf accuracy    <       1.50886564 Ry

     total magnetization       =    23.00 Bohr mag/cell
     absolute magnetization    =    24.85 Bohr mag/cell

     iteration # 10     ecut=    40.00 Ry     beta=0.70
     Davidson diagonalization with overlap
     ethr =  6.31E-04,  avg # of iterations =  4.7

     negative rho (up, down):  0.459E-02 0.260E-02

     total cpu time spent up to now is     3218.7 secs

     total energy              =   -2321.63934977 Ry
     Harris-Foulkes estimate   =   -2321.69309190 Ry
     estimated scf accuracy    <       0.63117470 Ry

     total magnetization       =    23.00 Bohr mag/cell
     absolute magnetization    =    25.11 Bohr mag/cell

     iteration # 11     ecut=    40.00 Ry     beta=0.70
     Davidson diagonalization with overlap
     ethr =  2.64E-04,  avg # of iterations =  3.5

     negative rho (up, down):  0.244E-02 0.157E-02

     total cpu time spent up to now is     3480.3 secs

     total energy              =   -2321.52614641 Ry
     Harris-Foulkes estimate   =   -2321.71413464 Ry
     estimated scf accuracy    <       0.80025619 Ry

     total magnetization       =    23.00 Bohr mag/cell
     absolute magnetization    =    25.53 Bohr mag/cell

     iteration # 12     ecut=    40.00 Ry     beta=0.70
     Davidson diagonalization with overlap
     ethr =  2.64E-04,  avg # of iterations =  6.3

     negative rho (up, down):  0.256E-02 0.163E-02

     total cpu time spent up to now is     3800.6 secs

     total energy              =   -2321.50328231 Ry
     Harris-Foulkes estimate   =   -2321.73468540 Ry
     estimated scf accuracy    <       1.14997208 Ry

     total magnetization       =    23.00 Bohr mag/cell
     absolute magnetization    =    25.22 Bohr mag/cell

     iteration # 13     ecut=    40.00 Ry     beta=0.70
     Davidson diagonalization with overlap
     ethr =  2.64E-04,  avg # of iterations =  3.8

     negative rho (up, down):  0.260E-02 0.164E-02

     total cpu time spent up to now is     4063.5 secs

     total energy              =   -2321.51281938 Ry
     Harris-Foulkes estimate   =   -2321.71797418 Ry
     estimated scf accuracy    <       1.06939298 Ry

     total magnetization       =    23.00 Bohr mag/cell
     absolute magnetization    =    25.67 Bohr mag/cell

     iteration # 14     ecut=    40.00 Ry     beta=0.70
     Davidson diagonalization with overlap
     ethr =  2.64E-04,  avg # of iterations =  1.0

     negative rho (up, down):  0.246E-02 0.138E-02

     total cpu time spent up to now is     4298.2 secs

     total energy              =   -2321.62128724 Ry
     Harris-Foulkes estimate   =   -2321.65638315 Ry
     estimated scf accuracy    <       0.23422300 Ry

     total magnetization       =    23.00 Bohr mag/cell
     absolute magnetization    =    25.45 Bohr mag/cell

     iteration # 15     ecut=    40.00 Ry     beta=0.70
     Davidson diagonalization with overlap
     ethr =  9.80E-05,  avg # of iterations =  1.5

     negative rho (up, down):  0.116E-01 0.438E-02

     total cpu time spent up to now is     4537.7 secs

     total energy              =   -2321.60124069 Ry
     Harris-Foulkes estimate   =   -2321.64322969 Ry
     estimated scf accuracy    <       0.12122068 Ry

     total magnetization       =    23.00 Bohr mag/cell
     absolute magnetization    =    25.47 Bohr mag/cell

     iteration # 16     ecut=    40.00 Ry     beta=0.70
     Davidson diagonalization with overlap
     ethr =  5.07E-05,  avg # of iterations =  5.6

     negative rho (up, down):  0.289E-02 0.136E-02

     total cpu time spent up to now is     4828.4 secs

     total energy              =   -2321.46026131 Ry
     Harris-Foulkes estimate   =   -2321.72258059 Ry
     estimated scf accuracy    <       2.46381666 Ry

     total magnetization       =    23.00 Bohr mag/cell
     absolute magnetization    =    26.66 Bohr mag/cell

     iteration # 17     ecut=    40.00 Ry     beta=0.70
     Davidson diagonalization with overlap
     ethr =  5.07E-05,  avg # of iterations =  5.2

     negative rho (up, down):  0.254E-02 0.137E-02

     total cpu time spent up to now is     5106.3 secs

     total energy              =   -2321.62865797 Ry
     Harris-Foulkes estimate   =   -2321.64518857 Ry
     estimated scf accuracy    <       0.15781686 Ry

     total magnetization       =    23.00 Bohr mag/cell
     absolute magnetization    =    25.76 Bohr mag/cell

     iteration # 18     ecut=    40.00 Ry     beta=0.70
     Davidson diagonalization with overlap
     ethr =  5.07E-05,  avg # of iterations =  1.0

     negative rho (up, down):  0.273E-02 0.145E-02

     total cpu time spent up to now is     5354.5 secs

     total energy              =   -2321.63371830 Ry
     Harris-Foulkes estimate   =   -2321.63721796 Ry
     estimated scf accuracy    <       0.02545776 Ry

     total magnetization       =    23.00 Bohr mag/cell
     absolute magnetization    =    25.59 Bohr mag/cell

     iteration # 19     ecut=    40.00 Ry     beta=0.70
     Davidson diagonalization with overlap
     ethr =  1.07E-05,  avg # of iterations =  2.9

     negative rho (up, down):  0.232E-02 0.133E-02

     total cpu time spent up to now is     5605.3 secs

     total energy              =   -2321.63019984 Ry
     Harris-Foulkes estimate   =   -2321.64072229 Ry
     estimated scf accuracy    <       0.07126908 Ry

     total magnetization       =    23.00 Bohr mag/cell
     absolute magnetization    =    25.68 Bohr mag/cell

     iteration # 20     ecut=    40.00 Ry     beta=0.70
     Davidson diagonalization with overlap
     ethr =  1.07E-05,  avg # of iterations =  1.9

     negative rho (up, down):  0.251E-02 0.136E-02

     total cpu time spent up to now is     5845.2 secs

     total energy              =   -2321.63485416 Ry
     Harris-Foulkes estimate   =   -2321.63663431 Ry
     estimated scf accuracy    <       0.01472378 Ry

     total magnetization       =    23.00 Bohr mag/cell
     absolute magnetization    =    25.55 Bohr mag/cell

     iteration # 21     ecut=    40.00 Ry     beta=0.70
     Davidson diagonalization with overlap
     ethr =  6.16E-06,  avg # of iterations =  2.0

     negative rho (up, down):  0.247E-02 0.137E-02

     total cpu time spent up to now is     6075.3 secs

     total energy              =   -2321.63506460 Ry
     Harris-Foulkes estimate   =   -2321.63596947 Ry
     estimated scf accuracy    <       0.00942039 Ry

     total magnetization       =    23.00 Bohr mag/cell
     absolute magnetization    =    25.63 Bohr mag/cell

     iteration # 22     ecut=    40.00 Ry     beta=0.70
     Davidson diagonalization with overlap
     ethr =  3.94E-06,  avg # of iterations =  3.6

     negative rho (up, down):  0.263E-02 0.141E-02

     total cpu time spent up to now is     6330.1 secs

     total energy              =   -2321.63511922 Ry
     Harris-Foulkes estimate   =   -2321.63587186 Ry
     estimated scf accuracy    <       0.00641383 Ry

     total magnetization       =    23.00 Bohr mag/cell
     absolute magnetization    =    25.60 Bohr mag/cell

     iteration # 23     ecut=    40.00 Ry     beta=0.70
     Davidson diagonalization with overlap
     ethr =  2.68E-06,  avg # of iterations =  2.9

     negative rho (up, down):  0.243E-02 0.136E-02

     total cpu time spent up to now is     6593.7 secs

     total energy              =   -2321.63525801 Ry
     Harris-Foulkes estimate   =   -2321.63559883 Ry
     estimated scf accuracy    <       0.00325205 Ry

     total magnetization       =    23.00 Bohr mag/cell
     absolute magnetization    =    25.61 Bohr mag/cell

     iteration # 24     ecut=    40.00 Ry     beta=0.70
     Davidson diagonalization with overlap
     ethr =  1.36E-06,  avg # of iterations =  1.4

     negative rho (up, down):  0.238E-02 0.134E-02

     total cpu time spent up to now is     6850.8 secs

     total energy              =   -2321.63506572 Ry
     Harris-Foulkes estimate   =   -2321.63584606 Ry
     estimated scf accuracy    <       0.00669287 Ry

     total magnetization       =    23.00 Bohr mag/cell
     absolute magnetization    =    25.63 Bohr mag/cell

     iteration # 25     ecut=    40.00 Ry     beta=0.70
     Davidson diagonalization with overlap
     ethr =  1.36E-06,  avg # of iterations =  2.0

     negative rho (up, down):  0.233E-02 0.133E-02

     total cpu time spent up to now is     7102.2 secs

     total energy              =   -2321.63518284 Ry
     Harris-Foulkes estimate   =   -2321.63547368 Ry
     estimated scf accuracy    <       0.00141045 Ry

     total magnetization       =    23.00 Bohr mag/cell
     absolute magnetization    =    25.60 Bohr mag/cell

     iteration # 26     ecut=    40.00 Ry     beta=0.70
     Davidson diagonalization with overlap
     ethr =  5.90E-07,  avg # of iterations =  4.4

     negative rho (up, down):  0.232E-02 0.132E-02

     total cpu time spent up to now is     7381.6 secs

     total energy              =   -2321.63504491 Ry
     Harris-Foulkes estimate   =   -2321.63574368 Ry
     estimated scf accuracy    <       0.00357333 Ry

     total magnetization       =    23.00 Bohr mag/cell
     absolute magnetization    =    25.59 Bohr mag/cell

     iteration # 27     ecut=    40.00 Ry     beta=0.70
     Davidson diagonalization with overlap
     ethr =  5.90E-07,  avg # of iterations =  2.1

     negative rho (up, down):  0.231E-02 0.132E-02

     total cpu time spent up to now is     7639.8 secs

     total energy              =   -2321.63487742 Ry
     Harris-Foulkes estimate   =   -2321.63587405 Ry
     estimated scf accuracy    <       0.00682244 Ry

     total magnetization       =    23.00 Bohr mag/cell
     absolute magnetization    =    25.56 Bohr mag/cell

     iteration # 28     ecut=    40.00 Ry     beta=0.70
     Davidson diagonalization with overlap
     ethr =  5.90E-07,  avg # of iterations =  1.8

     negative rho (up, down):  0.229E-02 0.132E-02

     total cpu time spent up to now is     7880.3 secs

     total energy              =   -2321.63505601 Ry
     Harris-Foulkes estimate   =   -2321.63578373 Ry
     estimated scf accuracy    <       0.00408867 Ry

     total magnetization       =    23.00 Bohr mag/cell
     absolute magnetization    =    25.61 Bohr mag/cell

     iteration # 29     ecut=    40.00 Ry     beta=0.70
     Davidson diagonalization with overlap
     ethr =  5.90E-07,  avg # of iterations =  1.0

     negative rho (up, down):  0.228E-02 0.131E-02

     total cpu time spent up to now is     8120.8 secs

     total energy              =   -2321.63534483 Ry
     Harris-Foulkes estimate   =   -2321.63545587 Ry
     estimated scf accuracy    <       0.00043224 Ry

     total magnetization       =    23.00 Bohr mag/cell
     absolute magnetization    =    25.59 Bohr mag/cell

     iteration # 30     ecut=    40.00 Ry     beta=0.70
     Davidson diagonalization with overlap
     ethr =  1.81E-07,  avg # of iterations =  1.1

     negative rho (up, down):  0.227E-02 0.131E-02

     total cpu time spent up to now is     8359.7 secs

     total energy              =   -2321.63531111 Ry
     Harris-Foulkes estimate   =   -2321.63552799 Ry
     estimated scf accuracy    <       0.00127267 Ry

     total magnetization       =    23.00 Bohr mag/cell
     absolute magnetization    =    25.62 Bohr mag/cell

     iteration # 31     ecut=    40.00 Ry     beta=0.70
     Davidson diagonalization with overlap
     ethr =  1.81E-07,  avg # of iterations =  1.0

     negative rho (up, down):  0.227E-02 0.131E-02

     total cpu time spent up to now is     8601.9 secs

     total energy              =   -2321.63540019 Ry
     Harris-Foulkes estimate   =   -2321.63543537 Ry
     estimated scf accuracy    <       0.00021985 Ry

     total magnetization       =    23.00 Bohr mag/cell
     absolute magnetization    =    25.59 Bohr mag/cell

     iteration # 32     ecut=    40.00 Ry     beta=0.70
     Davidson diagonalization with overlap
     ethr =  9.20E-08,  avg # of iterations =  1.0

     negative rho (up, down):  0.227E-02 0.131E-02

     total cpu time spent up to now is     8836.6 secs

     total energy              =   -2321.63540205 Ry
     Harris-Foulkes estimate   =   -2321.63543648 Ry
     estimated scf accuracy    <       0.00016452 Ry

     total magnetization       =    23.00 Bohr mag/cell
     absolute magnetization    =    25.60 Bohr mag/cell

     iteration # 33     ecut=    40.00 Ry     beta=0.70
     Davidson diagonalization with overlap
     ethr =  6.88E-08,  avg # of iterations =  1.0

     negative rho (up, down):  0.227E-02 0.131E-02

     total cpu time spent up to now is     9080.0 secs

     total energy              =   -2321.63541345 Ry
     Harris-Foulkes estimate   =   -2321.63543041 Ry
     estimated scf accuracy    <       0.00008842 Ry

     total magnetization       =    23.00 Bohr mag/cell
     absolute magnetization    =    25.59 Bohr mag/cell

     iteration # 34     ecut=    40.00 Ry     beta=0.70
     Davidson diagonalization with overlap
     ethr =  3.70E-08,  avg # of iterations =  1.0

     negative rho (up, down):  0.227E-02 0.131E-02

     total cpu time spent up to now is     9334.5 secs

     total energy              =   -2321.63541829 Ry
     Harris-Foulkes estimate   =   -2321.63542676 Ry
     estimated scf accuracy    <       0.00004792 Ry

     total magnetization       =    23.00 Bohr mag/cell
     absolute magnetization    =    25.59 Bohr mag/cell

     iteration # 35     ecut=    40.00 Ry     beta=0.70
     Davidson diagonalization with overlap
     ethr =  2.00E-08,  avg # of iterations =  1.0

     negative rho (up, down):  0.226E-02 0.131E-02

     total cpu time spent up to now is     9574.4 secs

     total energy              =   -2321.63542164 Ry
     Harris-Foulkes estimate   =   -2321.63542515 Ry
     estimated scf accuracy    <       0.00002461 Ry

     total magnetization       =    23.00 Bohr mag/cell
     absolute magnetization    =    25.59 Bohr mag/cell

     iteration # 36     ecut=    40.00 Ry     beta=0.70
     Davidson diagonalization with overlap
     ethr =  1.03E-08,  avg # of iterations =  1.0

     negative rho (up, down):  0.226E-02 0.131E-02

     total cpu time spent up to now is     9811.4 secs

     total energy              =   -2321.63542187 Ry
     Harris-Foulkes estimate   =   -2321.63542513 Ry
     estimated scf accuracy    <       0.00001592 Ry

     total magnetization       =    23.00 Bohr mag/cell
     absolute magnetization    =    25.59 Bohr mag/cell

     iteration # 37     ecut=    40.00 Ry     beta=0.70
     Davidson diagonalization with overlap
     ethr =  6.66E-09,  avg # of iterations =  1.9

     negative rho (up, down):  0.226E-02 0.131E-02

     total cpu time spent up to now is    10053.0 secs

     total energy              =   -2321.63541942 Ry
     Harris-Foulkes estimate   =   -2321.63542880 Ry
     estimated scf accuracy    <       0.00005165 Ry

     total magnetization       =    23.00 Bohr mag/cell
     absolute magnetization    =    25.59 Bohr mag/cell

     iteration # 38     ecut=    40.00 Ry     beta=0.70
     Davidson diagonalization with overlap
     ethr =  6.66E-09,  avg # of iterations =  1.2

     negative rho (up, down):  0.226E-02 0.131E-02

     total cpu time spent up to now is    10288.1 secs

     total energy              =   -2321.63542405 Ry
     Harris-Foulkes estimate   =   -2321.63542457 Ry
     estimated scf accuracy    <       0.00000684 Ry

     total magnetization       =    23.00 Bohr mag/cell
     absolute magnetization    =    25.59 Bohr mag/cell

     iteration # 39     ecut=    40.00 Ry     beta=0.70
     Davidson diagonalization with overlap
     ethr =  2.86E-09,  avg # of iterations =  1.0

     negative rho (up, down):  0.226E-02 0.131E-02

     total cpu time spent up to now is    10529.2 secs

     total energy              =   -2321.63542434 Ry
     Harris-Foulkes estimate   =   -2321.63542461 Ry
     estimated scf accuracy    <       0.00000327 Ry

     total magnetization       =    23.00 Bohr mag/cell
     absolute magnetization    =    25.59 Bohr mag/cell

     iteration # 40     ecut=    40.00 Ry     beta=0.70
     Davidson diagonalization with overlap
     ethr =  1.37E-09,  avg # of iterations =  1.0

     negative rho (up, down):  0.226E-02 0.131E-02

     total cpu time spent up to now is    10768.1 secs

     total energy              =   -2321.63542398 Ry
     Harris-Foulkes estimate   =   -2321.63542487 Ry
     estimated scf accuracy    <       0.00000221 Ry

     total magnetization       =    23.00 Bohr mag/cell
     absolute magnetization    =    25.59 Bohr mag/cell

     iteration # 41     ecut=    40.00 Ry     beta=0.70
     Davidson diagonalization with overlap
     ethr =  9.26E-10,  avg # of iterations =  2.0

     negative rho (up, down):  0.226E-02 0.131E-02

     total cpu time spent up to now is    11018.3 secs

     total energy              =   -2321.63542294 Ry
     Harris-Foulkes estimate   =   -2321.63542638 Ry
     estimated scf accuracy    <       0.00001856 Ry

     total magnetization       =    23.00 Bohr mag/cell
     absolute magnetization    =    25.59 Bohr mag/cell

     iteration # 42     ecut=    40.00 Ry     beta=0.70
     Davidson diagonalization with overlap
     ethr =  9.26E-10,  avg # of iterations =  1.9

     negative rho (up, down):  0.226E-02 0.131E-02

     total cpu time spent up to now is    11257.9 secs

     total energy              =   -2321.63542458 Ry
     Harris-Foulkes estimate   =   -2321.63542484 Ry
     estimated scf accuracy    <       0.00000178 Ry

     total magnetization       =    23.00 Bohr mag/cell
     absolute magnetization    =    25.59 Bohr mag/cell

     iteration # 43     ecut=    40.00 Ry     beta=0.70
     Davidson diagonalization with overlap
     ethr =  7.43E-10,  avg # of iterations =  1.0

     negative rho (up, down):  0.226E-02 0.131E-02

     total cpu time spent up to now is    11487.2 secs

     total energy              =   -2321.63542460 Ry
     Harris-Foulkes estimate   =   -2321.63542489 Ry
     estimated scf accuracy    <       0.00000196 Ry

     total magnetization       =    23.00 Bohr mag/cell
     absolute magnetization    =    25.59 Bohr mag/cell

     iteration # 44     ecut=    40.00 Ry     beta=0.70
     Davidson diagonalization with overlap
     ethr =  7.43E-10,  avg # of iterations =  1.0

     negative rho (up, down):  0.226E-02 0.131E-02

     total cpu time spent up to now is    11714.2 secs

     End of self-consistent calculation
 --- enter write_ns ---
 LDA+U parameters:
U( 2)     =  1.50000000
alpha( 2) =  0.00000000
atom    3   Tr[ns(na)] (up, down, total) =   4.16960  1.33611  5.50571
   spin  1
    eigenvalues: 
  0.585  0.595  0.992  0.994  1.004
    eigenvectors:
  0.029  0.220  0.743  0.002  0.007
  0.907  0.092  0.001  0.001  0.000
  0.000  0.000  0.007  0.003  0.990
  0.064  0.688  0.247  0.001  0.001
  0.001  0.000  0.003  0.994  0.002
    occupations:
  0.893 -0.009 -0.004 -0.172 -0.000
 -0.009  0.586 -0.001  0.002 -0.010
 -0.004 -0.001  1.004 -0.005  0.000
 -0.172  0.002 -0.005  0.693  0.000
 -0.000 -0.010  0.000  0.000  0.994
   spin  2
    eigenvalues: 
  0.134  0.179  0.219  0.393  0.411
    eigenvectors:
  0.780  0.000  0.002  0.143  0.076
  0.001  0.003  0.000  0.399  0.598
  0.001  0.046  0.953  0.000  0.000
  0.218  0.000  0.000  0.457  0.324
  0.000  0.952  0.045  0.001  0.002
    occupations:
  0.192  0.003 -0.001  0.110  0.001
  0.003  0.403  0.001 -0.011  0.012
 -0.001  0.001  0.217  0.005 -0.008
  0.110 -0.011  0.005  0.342 -0.001
  0.001  0.012 -0.008 -0.001  0.181
atomic mag. moment =     2.833497
atom    4   Tr[ns(na)] (up, down, total) =   4.16231  1.33824  5.50054
   spin  1
    eigenvalues: 
  0.562  0.610  0.990  0.998  1.002
    eigenvectors:
  0.000  0.999  0.000  0.000  0.001
  0.000  0.001  0.000  0.010  0.989
  0.000  0.000  0.001  0.989  0.010
  0.000  0.000  0.999  0.001  0.000
  1.000  0.000  0.000  0.000  0.000
    occupations:
  0.610 -0.012 -0.004  0.005 -0.000
 -0.012  1.002  0.000 -0.000  0.000
 -0.004  0.000  0.998  0.000  0.000
  0.005 -0.000  0.000  0.990  0.000
 -0.000  0.000  0.000  0.000  0.562
   spin  2
    eigenvalues: 
  0.124  0.178  0.217  0.406  0.414
    eigenvectors:
  0.002  0.005  0.000  0.001  0.993
  0.001  0.940  0.055  0.000  0.005
  0.000  0.054  0.945  0.000  0.001
  0.998  0.001  0.000  0.000  0.001
  0.000  0.000  0.000  0.999  0.001
    occupations:
  0.412  0.016  0.005 -0.011 -0.000
  0.016  0.181 -0.008  0.001 -0.002
  0.005 -0.008  0.215  0.001 -0.000
 -0.011  0.001  0.001  0.125 -0.000
 -0.000 -0.002 -0.000 -0.000  0.406
atomic mag. moment =     2.824072
atom    9   Tr[ns(na)] (up, down, total) =   4.08699  1.47752  5.56450
   spin  1
    eigenvalues: 
  0.607  0.614  0.914  0.960  0.992
    eigenvectors:
  0.195  0.000  0.000  0.000  0.805
  0.000  1.000  0.000  0.000  0.000
  0.000  0.000  0.053  0.947  0.000
  0.805  0.000  0.000  0.000  0.195
  0.000  0.000  0.947  0.053  0.000
    occupations:
  0.917 -0.000  0.000 -0.153  0.000
 -0.000  0.614  0.000  0.000 -0.000
  0.000  0.000  0.958  0.000  0.010
 -0.153  0.000  0.000  0.682  0.000
  0.000 -0.000  0.010  0.000  0.916
   spin  2
    eigenvalues: 
  0.187  0.209  0.218  0.415  0.449
    eigenvectors:
  0.840  0.000  0.000  0.160  0.000
  0.000  0.000  0.000  0.000  1.000
  0.000  0.967  0.033  0.000  0.000
  0.160  0.000  0.000  0.840  0.000
  0.000  0.033  0.967  0.000  0.000
    occupations:
  0.223 -0.001  0.000  0.084 -0.000
 -0.001  0.449 -0.000  0.000 -0.000
  0.000 -0.000  0.209  0.000  0.002
  0.084  0.000  0.000  0.378 -0.000
 -0.000 -0.000  0.002 -0.000  0.218
atomic mag. moment =     2.609467
atom   10   Tr[ns(na)] (up, down, total) =   4.28310  1.17033  5.45343
   spin  1
    eigenvalues: 
  0.586  0.705  0.993  0.995  1.004
    eigenvectors:
  0.000  0.996  0.000  0.003  0.000
  0.000  0.000  0.992  0.008  0.000
  0.000  0.000  0.000  0.000  1.000
  0.000  0.003  0.008  0.989  0.000
  1.000  0.000  0.000  0.000  0.000
    occupations:
  0.706 -0.004  0.002  0.017  0.000
 -0.004  0.993  0.000  0.000 -0.000
  0.002  0.000  1.004 -0.000  0.002
  0.017  0.000 -0.000  0.994 -0.000
  0.000 -0.000  0.002 -0.000  0.586
   spin  2
    eigenvalues: 
  0.120  0.180  0.190  0.283  0.396
    eigenvectors:
  0.009  0.000  0.000  0.991  0.000
  0.000  1.000  0.000  0.000  0.000
  0.000  0.000  1.000  0.000  0.000
  0.991  0.000  0.000  0.009  0.000
  0.000  0.000  0.000  0.000  1.000
    occupations:
  0.281  0.001 -0.001 -0.015 -0.000
  0.001  0.180 -0.000  0.000  0.000
 -0.001 -0.000  0.190 -0.000 -0.001
 -0.015  0.000 -0.000  0.122 -0.000
 -0.000  0.000 -0.001 -0.000  0.396
atomic mag. moment =     3.112769
atom   16   Tr[ns(na)] (up, down, total) =   4.17062  1.33431  5.50493
   spin  1
    eigenvalues: 
  0.585  0.596  0.992  0.994  1.004
    eigenvectors:
  0.034  0.215  0.741  0.004  0.007
  0.889  0.110  0.001  0.001  0.000
  0.000  0.000  0.007  0.003  0.990
  0.077  0.675  0.246  0.001  0.001
  0.001  0.000  0.005  0.992  0.002
    occupations:
  0.893  0.009 -0.004 -0.172  0.001
  0.009  0.587  0.001 -0.002 -0.010
 -0.004  0.001  1.004 -0.005 -0.000
 -0.172 -0.002 -0.005  0.693  0.000
  0.001 -0.010 -0.000  0.000  0.994
   spin  2
    eigenvalues: 
  0.134  0.179  0.219  0.393  0.410
    eigenvectors:
  0.780  0.000  0.002  0.138  0.081
  0.001  0.003  0.000  0.419  0.577
  0.001  0.043  0.956  0.000  0.000
  0.218  0.000  0.000  0.441  0.340
  0.000  0.954  0.043  0.001  0.001
    occupations:
  0.192 -0.003 -0.001  0.110 -0.001
 -0.003  0.402 -0.001  0.011  0.012
 -0.001 -0.001  0.217  0.005  0.008
  0.110  0.011  0.005  0.342  0.001
 -0.001  0.012  0.008  0.001  0.181
atomic mag. moment =     2.836309
atom   17   Tr[ns(na)] (up, down, total) =   4.16076  1.33779  5.49855
   spin  1
    eigenvalues: 
  0.562  0.611  0.990  0.996  1.002
    eigenvectors:
  0.000  0.999  0.000  0.000  0.001
  0.000  0.001  0.000  0.011  0.988
  0.000  0.000  0.002  0.987  0.011
  0.000  0.000  0.997  0.002  0.000
  1.000  0.000  0.000  0.000  0.000
    occupations:
  0.611 -0.012 -0.004  0.005 -0.000
 -0.012  1.001  0.000 -0.000  0.000
 -0.004  0.000  0.996  0.000  0.000
  0.005 -0.000  0.000  0.990  0.000
 -0.000  0.000  0.000  0.000  0.562
   spin  2
    eigenvalues: 
  0.125  0.177  0.217  0.403  0.416
    eigenvectors:
  0.002  0.005  0.000  0.000  0.993
  0.000  0.945  0.050  0.000  0.005
  0.000  0.049  0.950  0.000  0.001
  0.998  0.001  0.000  0.000  0.001
  0.000  0.000  0.000  1.000  0.000
    occupations:
  0.414  0.016  0.005 -0.011 -0.000
  0.016  0.180 -0.008  0.000 -0.002
  0.005 -0.008  0.215  0.001 -0.000
 -0.011  0.000  0.001  0.125 -0.000
 -0.000 -0.002 -0.000 -0.000  0.403
atomic mag. moment =     2.822969
atom   22   Tr[ns(na)] (up, down, total) =   4.07820  1.48915  5.56735
   spin  1
    eigenvalues: 
  0.606  0.612  0.910  0.958  0.992
    eigenvectors:
  0.193  0.002  0.000  0.000  0.805
  0.012  0.987  0.000  0.000  0.000
  0.000  0.000  0.057  0.943  0.000
  0.795  0.010  0.000  0.000  0.195
  0.000  0.000  0.943  0.057  0.000
    occupations:
  0.917  0.001  0.000 -0.153  0.000
  0.001  0.612  0.000  0.000 -0.000
  0.000  0.000  0.955  0.000 -0.011
 -0.153  0.000  0.000  0.682  0.000
  0.000 -0.000 -0.011  0.000  0.913
   spin  2
    eigenvalues: 
  0.189  0.213  0.221  0.418  0.449
    eigenvectors:
  0.841  0.000  0.000  0.159  0.000
  0.000  0.000  0.000  0.000  1.000
  0.000  0.963  0.037  0.000  0.000
  0.159  0.000  0.000  0.841  0.000
  0.000  0.037  0.963  0.000  0.000
    occupations:
  0.226  0.000  0.000  0.083 -0.000
  0.000  0.449 -0.000 -0.001 -0.000
  0.000 -0.000  0.213  0.000 -0.002
  0.083 -0.001  0.000  0.381  0.000
 -0.000 -0.000 -0.002  0.000  0.221
atomic mag. moment =     2.589050
atom   23   Tr[ns(na)] (up, down, total) =   4.16381  1.32865  5.49246
   spin  1
    eigenvalues: 
  0.570  0.613  0.987  0.991  1.002
    eigenvectors:
  0.000  1.000  0.000  0.000  0.000
  0.000  0.000  0.996  0.004  0.000
  0.000  0.000  0.000  0.000  1.000
  0.000  0.000  0.004  0.996  0.000
  1.000  0.000  0.000  0.000  0.000
    occupations:
  0.613 -0.003  0.001  0.003 -0.000
 -0.003  0.987  0.000 -0.000 -0.000
  0.001  0.000  1.002  0.000 -0.001
  0.003 -0.000  0.000  0.991 -0.000
 -0.000 -0.000 -0.001 -0.000  0.570
   spin  2
    eigenvalues: 
  0.123  0.170  0.229  0.398  0.408
    eigenvectors:
  0.002  0.004  0.000  0.994  0.000
  0.000  0.996  0.000  0.004  0.000
  0.000  0.000  1.000  0.000  0.000
  0.998  0.000  0.000  0.002  0.000
  0.000  0.000  0.000  0.000  1.000
    occupations:
  0.397  0.014 -0.000 -0.012 -0.000
  0.014  0.170 -0.000 -0.001  0.000
 -0.000 -0.000  0.229  0.000  0.002
 -0.012 -0.001  0.000  0.124  0.000
 -0.000  0.000  0.002  0.000  0.408
atomic mag. moment =     2.835158
N of occupied +U levels =  44.0874706
 --- exit write_ns ---

 ------ SPIN UP ------------


          k = 0.0000 0.0000 0.0000 ( 26393 PWs)   bands (ev):

   -84.2464 -84.2363 -84.1242 -83.9494 -83.9322 -83.9113 -83.7857 -83.7662
   -53.0770 -52.9679 -52.8830 -52.8780 -52.8548 -52.8545 -52.8421 -52.8058
   -52.7861 -52.7503 -52.7328 -52.6661 -52.6252 -52.6033 -52.5876 -52.5328
   -52.5243 -52.5089 -52.5028 -52.4333 -52.4159 -52.4103 -52.3589 -52.3311
   -22.0163 -21.3245 -21.2881 -20.9763 -20.6482 -20.2320 -20.2032 -20.1351
   -20.1072 -19.9415 -19.8649 -19.8342 -19.8134 -19.7157 -19.6995 -19.6360
   -19.2805 -19.0363 -18.8551 -10.1224  -9.9235  -9.8496  -9.5244  -9.1974
    -8.8341  -8.8000  -8.5641  -8.5336  -8.5104  -8.4778  -8.4179  -8.2281
    -8.1063  -8.0141  -7.9627  -7.8729  -7.8521  -7.6855  -7.6278  -7.4122
    -7.3860  -7.2711  -7.1479  -6.9801  -6.9552  -6.7547  -6.7289  -6.5445
    -6.4402  -6.3850  -6.1439  -6.1036  -5.9941  -5.8726  -5.7733  -5.6686
    -5.6511  -5.5299  -5.4322  -5.3278  -5.2921  -5.2807  -5.2116  -5.1140
    -5.0951  -5.0592  -5.0180  -4.8187  -4.7975  -4.7890  -4.7538  -4.6999
    -4.6236  -4.5381  -4.3761  -4.3432  -4.2833  -4.2439  -4.2001  -4.1251
    -3.9720  -3.7967  -3.5187  -3.3997  -3.2242  -3.1702  -3.1006  -2.9313
    -2.8891  -2.8634  -2.7515  -2.5877  -2.5758  -2.4806  -2.4361  -2.4027
    -2.1885  -2.1179  -2.0718  -1.8542  -1.6896  -1.1239  -0.8088  -0.5295
    -0.3568  -0.3068  -0.1337  -0.1313   0.1033   0.2782   0.3795   0.6900
     0.7532   1.0311   1.1573   1.3177   3.0930   3.4076   3.7565   4.2455
     4.7513   5.4973   6.0557   6.3001   6.6625   6.9263   7.0845   7.2222
     7.2807   7.5219   7.5837   7.6591   7.7604   7.9552   8.1691   8.2401
     8.2489   8.3783   8.3848   8.4682   8.5353   8.7593   8.8735   8.9311
     9.0177   9.2355   9.3699   9.4162   9.4316   9.4788   9.5828   9.7384
     9.8343   9.9145  10.0536  10.2765  10.3409  10.3470  10.5247  10.5499
    10.6693  10.7717  10.8950  11.0590  11.0899  11.1327  11.2733  11.3906
    11.5162  11.5499  11.6354  11.7276  11.9043  11.9434  12.0744  12.2037
    12.2424  12.2957  12.3193  12.3712  12.4306  12.5027  12.5857  12.5893
    12.6223  12.6889  12.7580  12.8333  12.9252  12.9507  13.0723  13.1065
    13.1660  13.2038  13.2396  13.2598  13.3138  13.4490  13.5157  13.6926
    13.7380  13.7876  13.8391  13.9446  14.0104  14.0442  14.1761  14.2084
    14.3073  14.3405  14.3780  14.4523  14.5257  14.6167  14.7358  14.8176
    14.8930  14.9950  15.1228  15.1847  15.2143  15.3062  15.3421  15.3861
    15.5335  15.6711  15.7703  15.8524  15.9486  16.0783  16.2126  16.2924
    16.3535  16.5001  16.5393  16.6921  16.7453  16.7824  16.9120  17.0798
    17.1560  17.2590  17.4159  17.4819  17.5588  17.6816  17.7093  17.8931
    17.9039  17.9529  17.9830  18.2370  18.4012  18.4295  18.4472  18.6689
    18.7429  18.7774  18.8529  18.8692  18.9523  19.0930  19.1830  19.2465
    19.4099  19.4971  19.5400  19.5525  19.5701  19.6936  19.7524  19.8699
    19.9097  19.9693  20.0028  20.0485  20.1413  20.2475  20.3127  20.3465
    20.4902  20.5406  20.6444  20.7130  20.8080  20.9679  21.0472  21.2002
    21.2160  21.3276  21.3428  21.4226  21.4711  21.5107  21.5913  21.6393
    21.7650  21.8145  21.9136  22.0796  22.0913  22.1930  22.2832  22.3347
    22.3640  22.3663  22.4386  22.4794  22.5579  22.6103  22.7109  22.7252
    22.7992  22.8833

          k = 0.0000 0.2303 0.0000 ( 26455 PWs)   bands (ev):

   -84.2464 -84.2363 -84.1242 -83.9494 -83.9322 -83.9113 -83.7857 -83.7662
   -53.0770 -52.9680 -52.8831 -52.8779 -52.8550 -52.8542 -52.8425 -52.8058
   -52.7854 -52.7501 -52.7329 -52.6662 -52.6257 -52.6033 -52.5870 -52.5326
   -52.5251 -52.5089 -52.5029 -52.4333 -52.4159 -52.4104 -52.3589 -52.3312
   -21.9573 -21.3143 -21.1985 -20.9774 -20.6669 -20.2844 -20.2332 -20.1414
   -20.1062 -20.0700 -19.9389 -19.9019 -19.8634 -19.6965 -19.6136 -19.5484
   -19.2857 -19.0368 -18.8462 -10.0639  -9.6987  -9.6308  -9.5535  -9.1766
    -8.9590  -8.8226  -8.7162  -8.5001  -8.4797  -8.4379  -8.3800  -8.1228
    -7.9785  -7.8576  -7.8177  -7.7818  -7.7027  -7.6317  -7.4741  -7.3833
    -7.3037  -7.2680  -7.1837  -6.9743  -6.9390  -6.7859  -6.7472  -6.7283
    -6.5450  -6.4682  -6.3096  -6.2328  -6.1250  -6.0405  -5.9951  -5.9172
    -5.7843  -5.7227  -5.6562  -5.5630  -5.4048  -5.2928  -5.2013  -5.1017
    -5.0442  -5.0017  -4.8976  -4.8073  -4.7711  -4.6983  -4.6844  -4.6453
    -4.5372  -4.4187  -4.3623  -4.2958  -4.2313  -4.1610  -4.1102  -3.9011
    -3.7462  -3.6665  -3.5875  -3.4942  -3.3575  -3.3071  -3.1968  -3.1314
    -3.0422  -2.9875  -2.8074  -2.7164  -2.5378  -2.4867  -2.4040  -2.3155
    -2.2390  -2.1788  -1.9110  -1.8506  -1.7080  -1.3797  -1.2063  -0.8814
    -0.4927  -0.4525   0.0607   0.0842   0.3278   0.5309   0.6240   0.8618
     1.0627   1.0750   1.1637   1.3241   3.3647   3.6040   4.0072   4.4670
     4.9613   5.2996   5.6869   5.9354   6.1444   6.3372   6.5940   6.8503
     7.0953   7.3008   7.4299   7.4989   7.8439   8.0856   8.2341   8.3157
     8.4718   8.5956   8.6321   8.7171   8.7965   8.9803   9.0774   9.1197
     9.2443   9.5405   9.5914   9.6214   9.7165   9.8088   9.8898   9.9789
    10.0350  10.0872  10.1853  10.2440  10.2875  10.3407  10.4325  10.5702
    10.6049  10.6678  10.7095  10.8439  10.9001  10.9691  11.0970  11.2094
    11.2458  11.3071  11.4361  11.4955  11.5707  11.6654  11.7400  11.8089
    11.8941  12.0737  12.1323  12.3146  12.4662  12.5649  12.6372  12.7056
    12.7333  12.8340  12.9074  12.9636  13.0115  13.2293  13.2862  13.3369
    13.4034  13.5036  13.5626  13.6680  13.7307  13.8275  13.8564  13.9188
    14.0896  14.1716  14.2784  14.3627  14.3761  14.4194  14.4815  14.5237
    14.5658  14.5994  14.6296  14.6822  14.7364  14.8158  14.9024  14.9690
    15.0461  15.0859  15.2050  15.2605  15.3607  15.3983  15.4460  15.4871
    15.6078  15.6702  15.7529  15.8334  15.9112  15.9584  16.0453  16.2039
    16.2639  16.3009  16.3354  16.4089  16.5130  16.6252  16.7038  16.7751
    16.9486  16.9707  17.1369  17.2149  17.2762  17.4094  17.4769  17.5252
    17.6408  17.6971  17.7976  17.8745  17.8852  18.0862  18.2497  18.3677
    18.5168  18.6450  18.7353  18.8049  18.8566  18.9192  19.0406  19.0760
    19.1277  19.2338  19.2761  19.3114  19.4142  19.5345  19.6374  19.6993
    19.7424  19.9678  20.0878  20.1900  20.2428  20.2818  20.3305  20.4431
    20.4688  20.4881  20.5135  20.6196  20.6633  20.8063  20.8833  20.9359
    20.9586  21.0492  21.0792  21.1477  21.2001  21.2742  21.3019  21.3844
    21.4627  21.5900  21.6692  21.7168  21.8192  21.8796  21.9898  22.0231
    22.1139  22.2439  22.3228  22.4170  22.4555  22.5350  22.6108  22.6812
    22.6928  22.7758

          k = 0.0000-0.4606 0.0000 ( 26364 PWs)   bands (ev):

   -84.2464 -84.2363 -84.1242 -83.9494 -83.9322 -83.9113 -83.7856 -83.7662
   -53.0770 -52.9679 -52.8830 -52.8778 -52.8551 -52.8537 -52.8428 -52.8058
   -52.7845 -52.7497 -52.7328 -52.6661 -52.6262 -52.6031 -52.5862 -52.5323
   -52.5258 -52.5088 -52.5030 -52.4332 -52.4159 -52.4103 -52.3588 -52.3311
   -21.8902 -21.3087 -21.0943 -20.9579 -20.6144 -20.5567 -20.2362 -20.1383
   -20.1275 -20.0655 -20.0159 -19.9359 -19.8789 -19.6937 -19.5839 -19.4878
   -19.2913 -19.0372 -18.8385 -10.0300  -9.8160  -9.2574  -9.1814  -9.1623
    -9.1398  -8.8423  -8.5940  -8.4223  -8.3963  -8.3418  -8.2407  -8.1729
    -7.9714  -7.8486  -7.7374  -7.6988  -7.6882  -7.5593  -7.3986  -7.3795
    -7.2925  -7.2751  -7.1846  -7.1405  -7.0242  -6.8631  -6.8229  -6.7913
    -6.5455  -6.4768  -6.3458  -6.3077  -6.2502  -6.1874  -6.1367  -5.9913
    -5.9314  -5.8244  -5.7052  -5.6218  -5.5952  -5.5381  -5.2458  -5.1209
    -5.0590  -4.9716  -4.9209  -4.7736  -4.7092  -4.7000  -4.6500  -4.4788
    -4.4757  -4.3717  -4.2847  -4.2767  -4.2038  -4.0785  -4.0115  -3.7890
    -3.7462  -3.6932  -3.5615  -3.4855  -3.2969  -3.2402  -3.1932  -3.1573
    -3.1252  -3.0746  -2.8696  -2.7922  -2.7266  -2.5869  -2.5608  -2.4497
    -2.0700  -2.0413  -1.9605  -1.8461  -1.7758  -1.7442  -1.6808  -0.7433
    -0.4294  -0.0214   0.0692   0.0773   0.3865   0.4335   0.4907   0.9085
     1.1009   1.3188   1.3260   1.6129   3.8926   3.9240   4.3075   4.6982
     4.7724   4.9912   5.1971   5.4834   5.7637   6.1111   6.4543   6.8765
     7.0552   7.0733   7.5743   7.6963   7.7830   7.8667   7.9237   8.2461
     8.3376   8.7158   9.0372   9.0517   9.1397   9.2015   9.2976   9.3173
     9.3629   9.4079   9.4294   9.5259   9.6091   9.6955   9.7718   9.8451
     9.8486   9.9111  10.0417  10.1890  10.3058  10.3491  10.4830  10.5394
    10.6387  10.7200  10.9231  10.9672  11.0363  11.0776  11.1474  11.2911
    11.3844  11.4540  11.6659  11.6952  11.7777  11.8346  12.1565  12.2126
    12.2714  12.3525  12.3755  12.4732  12.5115  12.5662  12.6167  12.7443
    12.8477  12.9327  12.9965  13.0595  13.1827  13.1995  13.2519  13.2967
    13.3869  13.4210  13.5175  13.6046  13.6460  13.7192  13.8386  13.9355
    13.9527  14.0669  14.1323  14.1594  14.2401  14.3236  14.3624  14.5136
    14.5593  14.6151  14.6347  14.7376  14.7446  14.8157  14.8481  14.9282
    14.9297  15.1113  15.2022  15.2353  15.2789  15.4003  15.4925  15.6696
    15.7832  15.8040  15.9441  15.9830  16.1954  16.2400  16.3029  16.4872
    16.5253  16.6479  16.7530  16.7978  16.8171  16.9440  17.0128  17.1452
    17.1788  17.2606  17.2716  17.3517  17.3702  17.5927  17.6244  17.6454
    17.6866  17.7778  17.8331  17.8872  17.9183  17.9853  18.0352  18.1281
    18.1997  18.3350  18.4312  18.5060  18.5188  18.6154  18.6477  18.6667
    18.7114  18.7384  18.7619  18.8142  18.9191  19.0509  19.1001  19.1675
    19.2381  19.4412  19.4772  19.7066  19.8207  19.9146  19.9992  20.0743
    20.1216  20.1499  20.1762  20.2256  20.2494  20.3911  20.4680  20.5862
    20.6017  20.6952  20.8309  20.8603  20.9130  21.0766  21.1335  21.1522
    21.2636  21.3330  21.4158  21.4570  21.5276  21.6186  21.6393  21.8437
    21.9210  22.0223  22.1827  22.2211  22.3589  22.4141  22.5449  22.6778
    22.7335  22.7726

          k = 0.2500 0.0000 0.0000 ( 26392 PWs)   bands (ev):

   -84.2449 -84.2377 -84.1241 -83.9493 -83.9315 -83.9119 -83.7849 -83.7669
   -53.0608 -52.9835 -52.8750 -52.8721 -52.8582 -52.8530 -52.8443 -52.8060
   -52.7691 -52.7500 -52.7435 -52.6827 -52.6242 -52.6051 -52.5878 -52.5240
   -52.5151 -52.5088 -52.5031 -52.4327 -52.4280 -52.4165 -52.3569 -52.3335
   -21.9035 -21.3973 -21.1835 -20.8878 -20.6949 -20.3857 -20.3306 -20.1389
   -20.0417 -19.9257 -19.8520 -19.8264 -19.7668 -19.7311 -19.7279 -19.6180
   -19.3348 -19.0382 -18.8892  -9.9361  -9.7643  -9.6866  -9.5373  -8.9988
    -8.7702  -8.7450  -8.6704  -8.6353  -8.5300  -8.4356  -8.3930  -8.3093
    -8.1922  -8.0943  -7.9817  -7.9457  -7.7114  -7.5774  -7.4908  -7.4797
    -7.3832  -7.2689  -7.1452  -7.0487  -6.9017  -6.7751  -6.5518  -6.5024
    -6.3770  -6.3595  -6.2317  -6.1945  -6.0727  -5.9347  -5.8747  -5.8187
    -5.7852  -5.7522  -5.6481  -5.6120  -5.5025  -5.4657  -5.3770  -5.2621
    -5.1447  -5.1050  -4.9821  -4.9285  -4.7807  -4.7318  -4.6929  -4.6143
    -4.5300  -4.4596  -4.3329  -4.2419  -4.2000  -4.1112  -4.0907  -3.9095
    -3.7681  -3.6689  -3.4516  -3.3390  -3.2873  -3.1693  -2.9754  -2.9236
    -2.8092  -2.8005  -2.7563  -2.5786  -2.5485  -2.4998  -2.4828  -2.3874
    -2.2888  -2.1681  -1.9851  -1.9654  -1.8585  -1.0269  -0.6997  -0.5274
    -0.2985  -0.2393  -0.1760  -0.1451  -0.1214   0.2944   0.4425   0.4706
     0.4823   0.8084   0.9787   1.2216   3.4157   3.7102   4.0591   4.5381
     5.0590   5.5108   5.7393   6.2095   6.3351   6.4356   6.6818   6.8238
     7.2239   7.3693   7.4503   7.5837   7.7604   7.8451   7.9453   7.9997
     8.1347   8.3472   8.4730   8.5449   8.6984   8.8264   9.0204   9.1145
     9.2091   9.4308   9.5288   9.6103   9.6887   9.8074   9.8214   9.9472
    10.0547  10.1375  10.1538  10.2261  10.2686  10.3965  10.4641  10.5705
    10.7089  10.7435  10.8029  10.8874  10.9859  11.0381  11.1438  11.2362
    11.3211  11.4178  11.4318  11.5059  11.5484  11.6170  11.7514  11.8251
    11.9067  12.1364  12.2680  12.3321  12.4196  12.5258  12.5752  12.7173
    12.7551  12.7691  12.8840  13.0319  13.1319  13.2222  13.2512  13.2929
    13.3535  13.3865  13.4788  13.6703  13.7346  13.8389  13.9405  14.0179
    14.0673  14.1182  14.1721  14.2437  14.3432  14.4167  14.4757  14.5584
    14.6064  14.6909  14.8007  14.8361  14.8890  15.0060  15.0695  15.1083
    15.2135  15.2754  15.4023  15.5074  15.5659  15.6904  15.7503  15.7915
    15.8769  15.9315  15.9778  16.0186  16.0712  16.1012  16.1860  16.3784
    16.5481  16.6160  16.6509  16.6862  16.7772  16.8682  16.9999  17.0237
    17.1879  17.2803  17.3381  17.5173  17.5416  17.6229  17.6980  17.8035
    17.8758  17.9432  18.0032  18.0826  18.1357  18.1688  18.2935  18.3038
    18.3571  18.5164  18.6157  18.7682  18.8833  18.9647  18.9888  19.0340
    19.1562  19.2487  19.3296  19.4508  19.5362  19.6608  19.6852  19.7627
    19.7845  19.8416  19.8770  19.9366  19.9850  20.0478  20.2453  20.2977
    20.3435  20.3979  20.4799  20.5824  20.6803  20.7234  20.7759  20.8446
    20.8811  20.9604  21.0075  21.1476  21.2364  21.3233  21.3501  21.4595
    21.5352  21.5739  21.6517  21.7254  21.7709  21.8230  21.8780  21.9461
    21.9807  22.0311  22.0693  22.0869  22.1694  22.1929  22.2344  22.2725
    22.3038  22.3703

          k = 0.2500 0.2303 0.0000 ( 26396 PWs)   bands (ev):

   -84.2449 -84.2377 -84.1241 -83.9493 -83.9315 -83.9119 -83.7849 -83.7669
   -53.0608 -52.9835 -52.8750 -52.8721 -52.8583 -52.8527 -52.8445 -52.8061
   -52.7685 -52.7498 -52.7436 -52.6828 -52.6245 -52.6051 -52.5871 -52.5246
   -52.5149 -52.5088 -52.5033 -52.4327 -52.4279 -52.4165 -52.3569 -52.3336
   -21.8542 -21.3902 -21.0959 -20.8671 -20.6957 -20.3646 -20.2915 -20.1870
   -20.0618 -20.0452 -20.0039 -19.9106 -19.8757 -19.7144 -19.6105 -19.5350
   -19.3321 -19.0384 -18.8814  -9.9072  -9.5902  -9.4511  -9.3803  -8.9660
    -8.7588  -8.6977  -8.6745  -8.6009  -8.5008  -8.4241  -8.3586  -8.2705
    -8.2006  -8.0192  -7.8985  -7.7678  -7.6741  -7.4889  -7.4750  -7.4419
    -7.3201  -7.2567  -7.1597  -7.0510  -6.8744  -6.8131  -6.7219  -6.5739
    -6.5170  -6.4050  -6.3348  -6.2941  -6.2505  -6.2185  -6.1338  -6.0544
    -5.9776  -5.8725  -5.8193  -5.7242  -5.5786  -5.5031  -5.3595  -5.2095
    -5.1554  -5.0733  -5.0363  -4.9130  -4.8710  -4.6670  -4.5870  -4.5176
    -4.4388  -4.4142  -4.3203  -4.2013  -4.0217  -3.9449  -3.9298  -3.7716
    -3.6272  -3.5441  -3.4389  -3.4095  -3.3092  -3.2261  -3.1556  -3.0678
    -2.9747  -2.8762  -2.7232  -2.6020  -2.5413  -2.4960  -2.4315  -2.3835
    -2.3582  -2.3088  -2.0121  -1.8981  -1.7807  -1.2172  -1.0353  -0.8387
    -0.4627  -0.3897  -0.2134  -0.0246   0.1783   0.2394   0.5717   0.7314
     0.8620   0.9951   1.1481   1.2170   3.6730   3.8891   4.3040   4.7540
     5.2418   5.5803   5.7034   5.9582   6.2101   6.3992   6.4766   6.5825
     6.7322   6.9066   7.0291   7.3179   7.4725   7.6205   7.7859   7.9792
     8.1380   8.3341   8.4659   8.5616   8.6727   8.8336   8.9967   9.0667
     9.1554   9.2596   9.3461   9.4795   9.6519   9.7384   9.8506   9.9359
    10.0946  10.1269  10.2208  10.3898  10.5090  10.5894  10.6625  10.8414
    10.9261  11.0375  11.0876  11.1793  11.2424  11.3708  11.4548  11.4730
    11.5637  11.7054  11.7169  11.7705  11.9268  12.0158  12.0940  12.2711
    12.3324  12.4091  12.4745  12.5576  12.6519  12.7375  12.8112  12.8900
    12.9040  12.9598  13.0009  13.1280  13.2076  13.2810  13.3095  13.3767
    13.4622  13.4862  13.5816  13.6866  13.7433  13.7831  13.8267  13.9627
    13.9942  14.0461  14.1704  14.1848  14.2682  14.3342  14.4033  14.4572
    14.5559  14.6119  14.6962  14.7851  14.8155  14.9236  15.0031  15.0380
    15.1266  15.2972  15.3846  15.3986  15.5109  15.5921  15.7623  15.7984
    15.8905  15.9506  16.0747  16.1039  16.1410  16.2669  16.2971  16.3321
    16.4152  16.5425  16.5588  16.6995  16.7463  16.8297  16.9353  17.0242
    17.0480  17.1474  17.1792  17.2684  17.2855  17.4256  17.4560  17.5384
    17.6299  17.7307  17.7862  17.8981  17.9191  18.0120  18.1623  18.2003
    18.2452  18.3502  18.3705  18.4438  18.5148  18.6027  18.7199  18.7528
    18.8590  18.9627  18.9981  19.0304  19.0955  19.1174  19.1830  19.3123
    19.3675  19.5023  19.5492  19.6425  19.6746  19.7716  19.8175  19.9245
    19.9729  19.9952  20.0673  20.1537  20.2259  20.3088  20.3903  20.4454
    20.5657  20.7355  20.7969  20.8647  20.8829  20.8965  21.0084  21.0638
    21.1855  21.2447  21.3089  21.3928  21.4453  21.5401  21.6257  21.6636
    21.7473  21.8264  21.8999  21.9707  22.0282  22.1904  22.2503  22.3654
    22.4156  22.5046

          k = 0.2500-0.4606 0.0000 ( 26462 PWs)   bands (ev):

   -84.2449 -84.2377 -84.1241 -83.9494 -83.9315 -83.9119 -83.7848 -83.7669
   -53.0609 -52.9835 -52.8750 -52.8722 -52.8584 -52.8523 -52.8448 -52.8061
   -52.7681 -52.7495 -52.7437 -52.6827 -52.6250 -52.6052 -52.5864 -52.5253
   -52.5148 -52.5089 -52.5036 -52.4327 -52.4280 -52.4166 -52.3569 -52.3336
   -21.8004 -21.3824 -20.9679 -20.8833 -20.6200 -20.4704 -20.2445 -20.2074
   -20.1592 -20.1206 -20.0358 -19.9860 -19.9529 -19.6968 -19.5857 -19.4785
   -19.3302 -19.0388 -18.8746  -9.8794  -9.6427  -9.0738  -8.9565  -8.9349
    -8.8680  -8.6952  -8.5705  -8.4774  -8.3888  -8.3459  -8.2442  -8.2318
    -8.0821  -7.9887  -7.8648  -7.8469  -7.7661  -7.4465  -7.4240  -7.3648
    -7.2987  -7.2496  -7.1687  -7.0696  -6.9712  -6.8859  -6.7994  -6.7718
    -6.7021  -6.5374  -6.5198  -6.4388  -6.3581  -6.2966  -6.2618  -6.1558
    -6.1184  -6.0364  -5.8609  -5.8249  -5.6657  -5.6015  -5.3847  -5.2874
    -5.1288  -5.0993  -4.9824  -4.9351  -4.8430  -4.8021  -4.5608  -4.4549
    -4.4169  -4.3230  -4.1848  -4.0483  -3.9193  -3.8584  -3.8242  -3.6388
    -3.6018  -3.4576  -3.3855  -3.3242  -3.2660  -3.1756  -3.1389  -3.0945
    -3.0258  -2.9166  -2.8427  -2.7888  -2.6717  -2.5902  -2.5485  -2.3809
    -2.2568  -2.2045  -2.0658  -1.9196  -1.6872  -1.6323  -1.5551  -0.7566
    -0.3581  -0.2502  -0.1302  -0.1168   0.0763   0.1361   0.6878   0.8797
     0.9687   1.1798   1.2120   1.5376   4.1446   4.2019   4.6026   4.9891
     5.0608   5.2825   5.4771   5.7779   6.0266   6.0420   6.4007   6.6551
     6.7334   6.9589   7.2231   7.2734   7.3363   7.4566   7.5364   7.7347
     7.9049   8.0333   8.1448   8.2579   8.4035   8.6025   8.6697   8.8356
     9.1009   9.1541   9.3985   9.4942   9.5462   9.7726   9.8158   9.8752
     9.9632  10.2491  10.4774  10.5986  10.7206  10.8956  10.9973  11.1344
    11.2824  11.3637  11.3990  11.5961  11.6949  11.7670  11.8561  11.9810
    11.9896  12.0249  12.0753  12.1707  12.2571  12.2969  12.3680  12.5566
    12.6140  12.7082  12.7449  12.7938  12.8494  12.8906  12.9512  12.9768
    13.0302  13.0811  13.1697  13.2232  13.3001  13.3713  13.4440  13.4838
    13.5659  13.6169  13.6881  13.7153  13.7943  13.8518  13.8944  13.9823
    14.0400  14.1853  14.2379  14.2556  14.2918  14.4131  14.4487  14.5479
    14.6237  14.6910  14.7073  14.7575  14.8479  14.8648  14.9555  15.0062
    15.0394  15.1081  15.1762  15.2180  15.2815  15.3312  15.4128  15.4696
    15.5521  15.5806  15.6485  15.7463  15.8440  15.8827  15.9232  16.0381
    16.1000  16.2513  16.3002  16.3504  16.4000  16.4976  16.6339  16.7026
    16.8105  16.8952  16.9330  17.0446  17.1053  17.1454  17.1835  17.4100
    17.5518  17.6813  17.7423  17.8454  17.8950  17.9566  18.0361  18.1029
    18.2599  18.2958  18.3852  18.4772  18.5187  18.5969  18.6693  18.6956
    18.8005  18.8739  18.9218  19.0174  19.0586  19.0887  19.1598  19.2100
    19.2412  19.4537  19.5723  19.6125  19.6834  19.7300  19.7719  19.7916
    19.8369  19.9387  20.0135  20.0412  20.0957  20.1241  20.1605  20.1957
    20.2412  20.3809  20.4828  20.6154  20.7165  20.7938  20.8694  20.9614
    20.9823  21.0372  21.0890  21.1271  21.1835  21.2237  21.3086  21.3273
    21.3799  21.4516  21.5024  21.6422  21.8243  21.9864  22.0442  22.1973
    22.3127  22.3646

          k =-0.5000 0.0000 0.0000 ( 26466 PWs)   bands (ev):

   -84.2421 -84.2404 -84.1240 -83.9493 -83.9307 -83.9125 -83.7840 -83.7676
   -53.0237 -53.0202 -52.8680 -52.8660 -52.8588 -52.8496 -52.8483 -52.8067
   -52.7562 -52.7498 -52.7362 -52.7156 -52.6226 -52.6073 -52.5882 -52.5238
   -52.5088 -52.5034 -52.4780 -52.4652 -52.4319 -52.4172 -52.3544 -52.3364
   -21.6513 -21.6183 -20.9543 -20.8842 -20.6640 -20.6007 -20.4893 -20.1344
   -19.9203 -19.8955 -19.8760 -19.8582 -19.8185 -19.7510 -19.6473 -19.5199
   -19.5056 -19.0034 -18.9479  -9.6322  -9.6037  -9.3349  -9.3308  -9.2531
    -9.2019  -8.8335  -8.5839  -8.5475  -8.4783  -8.4015  -8.3497  -8.3151
    -8.2895  -8.2834  -7.8572  -7.7790  -7.7548  -7.7070  -7.2795  -7.1444
    -7.1196  -7.1051  -7.0367  -6.9326  -6.8118  -6.7883  -6.7239  -6.6788
    -6.5833  -6.5668  -6.4978  -6.4170  -6.2252  -6.1118  -6.0367  -5.9542
    -5.8584  -5.8229  -5.7480  -5.7300  -5.6964  -5.6378  -5.6205  -5.5396
[...]
    11.5081  11.5550  11.6838  11.7510  11.9522  12.0949  12.2350  12.3371
    12.3945  12.4268  12.6493  12.8097  12.8649  12.9535  13.0109  13.0779
    13.2624  13.3794  13.4467  13.4619  13.6655  13.6789  13.7452  13.8437
    13.8530  13.9280  14.0961  14.1020  14.1551  14.2268  14.3148  14.3579
    14.4509  14.4968  14.5962  14.6531  14.6956  14.7642  14.9476  14.9531
    15.0211  15.1019  15.1755  15.2493  15.2568  15.2841  15.3151  15.4132
    15.5196  15.5833  15.7905  15.9142  15.9583  15.9649  16.0757  16.1333
    16.2410  16.3490  16.4585  16.5505  16.6539  16.7511  16.7673  16.8276
    16.9754  17.0346  17.1403  17.1459  17.2231  17.4611  17.4835  17.5437
    17.5854  17.6414  17.7995  17.8688  17.9405  17.9679  18.0001  18.0158
    18.0545  18.1619  18.2113  18.2905  18.3425  18.3779  18.4156  18.5956
    18.6188  18.6752  18.8054  18.8397  18.8605  18.8902  18.9451  19.0071
    19.1697  19.2415  19.2617  19.3222  19.3454  19.3787  19.4511  19.4966
    19.5295  19.5960  19.7268  19.9460  19.9855  20.0929  20.1571  20.2696
    20.3098  20.3782  20.3880  20.5172  20.5444  20.5897  20.6490  20.6749
    20.6856  20.7412  20.8642  20.9034  20.9349  20.9773  21.0021  21.0855
    21.1394  21.1840  21.2341  21.3339  21.3357  21.3874  21.4118  21.4859
    21.5413  21.5663  21.6601  21.7062  21.7574  21.8034  21.8122  21.8585
    21.8999  21.9781

          k =-0.5000 0.2303 0.0000 ( 26450 PWs)   bands (ev):

   -80.7730 -80.7728 -80.5782 -80.5668 -80.4922 -80.4793 -80.4731 -80.2649
   -49.6449 -49.6421 -49.5442 -49.5436 -49.4879 -49.4872 -49.4649 -49.4525
   -49.4366 -49.4262 -49.4060 -49.3951 -49.3893 -49.3105 -49.2935 -49.2550
   -49.2423 -49.1506 -49.1441 -49.1412 -49.0971 -49.0782 -49.0657 -48.8806
   -21.6632 -21.5935 -20.8327 -20.7646 -20.5585 -20.4828 -20.4165 -20.1718
   -20.0400 -19.9580 -19.8967 -19.8864 -19.8100 -19.7974 -19.5445 -19.5000
   -19.4619 -19.1922 -19.0469  -9.1888  -9.1787  -8.3324  -8.2969  -8.2025
    -8.1858  -7.9983  -7.8260  -7.7667  -7.6963  -7.5457  -7.5413  -7.4883
    -7.3944  -7.3396  -7.1155  -7.0909  -6.7107  -6.6498  -6.5873  -6.5480
    -6.5023  -6.3961  -6.2309  -6.1857  -6.1240  -6.0866  -5.9029  -5.8543
    -5.7808  -5.7059  -5.4957  -5.4713  -5.3778  -5.3405  -5.3150  -5.1591
    -5.0870  -4.9668  -4.8980  -4.7084  -4.5693  -4.4601  -4.4219  -4.2117
    -4.1171  -3.8776  -3.7722  -3.7407  -3.6542  -3.5254  -3.4252  -3.3158
    -3.1014  -2.9492  -2.9064  -2.8153  -0.7323  -0.7026  -0.6564  -0.5926
    -0.5255  -0.3578  -0.3279  -0.2919  -0.2312  -0.2277  -0.1905  -0.1549
    -0.0948  -0.0541   0.0614   0.1232   0.1998   0.2076   0.2634   0.2904
     0.4358   0.5042   0.6153   0.6753   0.8008   0.9955   1.3202   1.3322
     1.3811   1.4508   1.4576   1.5394   1.6032   1.7489   2.0777   2.1385
     2.4446   2.4547   2.6845   2.7527   4.5289   4.5386   4.5560   5.1490
     5.1872   5.4199   5.6226   5.8576   6.0989   6.2629   6.4417   6.6248
     6.8256   7.0405   7.1129   7.1987   7.2810   7.3896   7.5978   7.7281
     7.8289   7.9521   8.2663   8.4209   8.5453   8.6920   8.7841   8.9418
     9.1685   9.3560   9.4480   9.6125   9.7754   9.9252  10.0112  10.0883
    10.3892  10.4324  10.5937  10.6574  10.7914  10.9174  11.0038  11.0435
    11.0866  11.1498  11.2736  11.3936  11.5232  11.6400  11.7227  11.7476
    11.8062  11.9003  12.0402  12.1457  12.3576  12.4453  12.5175  12.5732
    12.6311  12.7483  12.8957  12.9839  12.9940  13.0728  13.2037  13.2850
    13.4254  13.4522  13.5794  13.6503  13.7026  13.7430  13.8618  13.9558
    14.0325  14.1525  14.3006  14.3750  14.4064  14.4956  14.5271  14.5415
    14.5747  14.6343  14.6700  14.7632  14.7780  14.8288  14.9037  14.9311
    15.0062  15.1008  15.1738  15.2164  15.3008  15.3577  15.4596  15.5568
    15.6219  15.6789  15.7576  15.8109  15.8599  15.9290  16.0180  16.1098
    16.1306  16.2296  16.2630  16.3194  16.3432  16.3675  16.4550  16.5182
    16.5815  16.6355  16.6906  16.7905  16.8683  16.9076  16.9268  16.9495
    16.9905  17.0920  17.1409  17.2108  17.3061  17.3762  17.4385  17.4794
    17.5752  17.6247  17.6650  17.6981  17.7772  17.8091  17.9279  17.9918
    18.0800  18.1503  18.1879  18.2081  18.3288  18.4740  18.5004  18.5269
    18.5759  18.6240  18.7763  18.8731  19.0752  19.1678  19.2404  19.3156
    19.4507  19.4738  19.6446  19.6801  19.7564  19.8191  19.8748  19.9445
    20.0223  20.1040  20.1496  20.2046  20.2431  20.2601  20.3194  20.3998
    20.4772  20.5003  20.5537  20.6174  20.6572  20.9168  20.9819  21.0320
    21.1226  21.2050  21.2490  21.3066  21.4765  21.5236  21.6902  21.7162
    21.8036  21.8340  21.8826  21.9149  22.0293  22.1093  22.2143  22.2860
    22.4182  22.4901

          k =-0.5000-0.4606 0.0000 ( 26416 PWs)   bands (ev):

   -80.7730 -80.7728 -80.5782 -80.5668 -80.4922 -80.4792 -80.4731 -80.2649
   -49.6449 -49.6421 -49.5440 -49.5435 -49.4879 -49.4871 -49.4649 -49.4525
   -49.4366 -49.4262 -49.4055 -49.3944 -49.3889 -49.3110 -49.2939 -49.2548
   -49.2427 -49.1505 -49.1439 -49.1414 -49.0971 -49.0782 -49.0659 -48.8806
   -21.6450 -21.5693 -20.7328 -20.5720 -20.5632 -20.5564 -20.2956 -20.2323
   -20.1923 -20.1401 -19.9911 -19.9126 -19.8319 -19.8212 -19.5148 -19.4670
   -19.4263 -19.1905 -19.0409  -9.1612  -9.1580  -8.0778  -7.9680  -7.8847
    -7.8505  -7.7516  -7.6473  -7.5910  -7.5535  -7.5057  -7.4342  -7.4315
    -7.3684  -7.3231  -7.1286  -7.0121  -6.8978  -6.8757  -6.8177  -6.7662
    -6.4616  -6.4236  -6.3802  -6.3652  -6.3123  -6.2462  -6.1237  -6.0487
    -5.9288  -5.8454  -5.7501  -5.6744  -5.5872  -5.4610  -5.2882  -5.2260
    -5.0938  -4.9924  -4.8859  -4.8615  -4.6863  -4.5504  -4.2992  -4.2347
    -4.1783  -3.8053  -3.7377  -3.5875  -3.5379  -3.5118  -3.3540  -3.2877
    -3.1860  -2.8284  -2.8055  -2.7954  -0.7873  -0.7822  -0.5888  -0.5798
    -0.5498  -0.4492  -0.3728  -0.3251  -0.2389  -0.1651   0.0734   0.0792
     0.0940   0.1825   0.2267   0.2322   0.2469   0.2790   0.3041   0.3209
     0.3472   0.5479   0.5679   0.6054   0.7700   0.8251   0.9691   1.0273
     1.0502   1.1368   1.5093   1.5935   1.6153   1.8511   2.2072   2.2408
     2.5155   2.5547   2.8008   2.8553   4.7463   4.9915   5.0055   5.4540
     5.4578   5.8516   5.8668   5.9265   5.9354   6.0786   6.1315   6.2409
     6.3500   6.5309   6.6321   6.7559   6.9158   7.0922   7.2742   7.4192
     7.6264   7.7985   8.0543   8.2202   8.3236   8.5060   8.7869   9.0022
     9.0167   9.2435   9.2838   9.4722   9.5820   9.6827   9.9873  10.1416
    10.2127  10.4075  10.8386  10.8717  11.0255  11.1745  11.2464  11.3433
    11.4288  11.5449  11.6017  11.9065  12.0976  12.4248  12.4736  12.5136
    12.5302  12.5747  12.6446  12.8035  13.0365  13.1211  13.1832  13.2483
    13.2888  13.3886  13.4343  13.4663  13.5271  13.6479  13.6693  13.6998
    13.7561  13.7667  13.8411  13.8688  13.9504  13.9780  14.0556  14.0684
    14.1328  14.1796  14.1969  14.2139  14.3238  14.3473  14.3678  14.4489
    14.4592  14.5971  14.6616  14.7496  14.8144  14.8786  14.9109  14.9512
    15.0268  15.0740  15.0930  15.1192  15.1725  15.2206  15.3148  15.3672
    15.3902  15.3983  15.4515  15.4950  15.5372  15.5736  15.5928  15.6562
    15.6892  15.6977  15.7828  15.8086  15.8413  15.9013  15.9507  16.0069
    16.0761  16.1401  16.2034  16.2375  16.2965  16.4524  16.5760  16.6294
    16.6834  16.7241  16.7695  16.8132  16.8949  16.9965  17.0294  17.0642
    17.0728  17.1386  17.1714  17.2272  17.3005  17.3264  17.4884  17.5786
    17.6060  17.8145  17.8984  18.1009  18.1308  18.1630  18.2190  18.2979
    18.3316  18.3486  18.3982  18.5298  18.5987  18.6308  18.8209  18.8743
    18.9139  19.0639  19.1252  19.3221  19.3423  19.4116  19.4829  19.6338
    19.8553  20.1446  20.1697  20.1935  20.3157  20.3641  20.4164  20.6273
    20.6838  20.7201  20.7930  20.8920  20.9364  21.0487  21.2267  21.2804
    21.5004  21.6329  21.7141  21.7599  21.8641  21.9106  21.9491  21.9677
    22.1784  22.2109  22.4809  22.4930  22.6116  22.6241  22.6961  22.7615
    22.8635  22.9929

          k =-0.2500 0.2303 0.0000 ( 26396 PWs)   bands (ev):

   -80.7768 -80.7688 -80.5795 -80.5654 -80.4930 -80.4793 -80.4722 -80.2647
   -49.6919 -49.5957 -49.5500 -49.5376 -49.4946 -49.4826 -49.4805 -49.4660
   -49.4518 -49.4486 -49.4092 -49.3800 -49.3459 -49.3140 -49.2898 -49.2427
   -49.2400 -49.1575 -49.1416 -49.1368 -49.0977 -49.0775 -49.0653 -48.8807
   -21.8549 -21.4216 -21.0581 -20.8025 -20.6051 -20.3245 -20.2461 -20.1591
   -20.0443 -20.0157 -19.9379 -19.8478 -19.8251 -19.7093 -19.5548 -19.5165
   -19.3912 -19.2210 -19.0159  -9.3636  -9.1045  -8.5791  -8.4691  -8.4338
    -8.0922  -8.0153  -7.9396  -7.7726  -7.7295  -7.6324  -7.4932  -7.4012
    -7.2790  -7.2017  -7.1252  -7.0320  -6.9466  -6.9107  -6.7274  -6.6563
    -6.5033  -6.4424  -6.3960  -6.2639  -6.0744  -5.8586  -5.7782  -5.7335
    -5.6198  -5.5334  -5.4958  -5.4581  -5.3224  -5.2631  -5.1852  -4.9849
    -4.9399  -4.7630  -4.6920  -4.5658  -4.4771  -4.3516  -4.2522  -4.1902
    -4.1572  -4.0380  -3.8387  -3.7592  -3.6604  -3.5659  -3.4138  -3.3179
    -3.1382  -3.0380  -2.9450  -2.6421  -0.8399  -0.7234  -0.6925  -0.6728
    -0.5570  -0.5309  -0.4925  -0.4041  -0.3115  -0.2743  -0.2092  -0.1775
    -0.0816  -0.0287  -0.0177   0.1023   0.1818   0.2305   0.2702   0.3469
     0.4934   0.6075   0.6349   0.7446   0.8823   0.9583   1.0285   1.1715
     1.3912   1.4006   1.5569   1.7698   1.9428   1.9578   2.2388   2.3217
     2.3443   2.5682   2.7079   2.8105   3.7153   4.0636   4.3418   4.8147
     5.3238   5.6396   5.7555   6.0220   6.2702   6.4543   6.5486   6.6799
     6.7954   6.9556   7.0571   7.3704   7.5003   7.7443   7.9220   8.0267
     8.2742   8.3837   8.4773   8.6296   8.7207   8.9109   9.0818   9.1995
     9.3006   9.3522   9.4926   9.5907   9.7354   9.8494   9.9655  10.0894
    10.1700  10.2377  10.3882  10.4858  10.6262  10.7107  10.7894  10.9908
    11.0743  11.1362  11.2000  11.3033  11.4275  11.5013  11.5653  11.6891
    11.7477  11.8615  11.9181  12.0467  12.0744  12.1785  12.2285  12.4036
    12.4487  12.4869  12.6572  12.7403  12.8677  12.9099  12.9700  13.0418
    13.1142  13.1387  13.1831  13.2690  13.3903  13.4252  13.5204  13.5916
    13.6811  13.7945  13.8235  13.8599  13.9382  14.0209  14.0925  14.1029
    14.2089  14.3437  14.3982  14.5041  14.5437  14.6087  14.6954  14.7971
    14.8273  14.8705  14.9421  14.9947  15.0893  15.1556  15.2813  15.3207
    15.4284  15.4730  15.5880  15.6935  15.7313  15.8355  15.8767  16.0644
    16.0931  16.1989  16.2568  16.3315  16.4120  16.5079  16.5184  16.5598
    16.6523  16.7465  16.8746  16.9196  16.9867  17.0830  17.1366  17.2088
    17.2816  17.3475  17.4132  17.4775  17.5277  17.6503  17.6925  17.7612
    17.8437  17.9231  17.9850  18.0562  18.0986  18.2188  18.2872  18.3291
    18.3882  18.4829  18.5398  18.5875  18.6456  18.7653  18.8341  18.9422
    19.0401  19.0839  19.1596  19.1938  19.2439  19.3360  19.4169  19.4937
    19.5336  19.6379  19.7571  19.8194  19.8920  19.9563  20.0478  20.0793
    20.1253  20.2653  20.3332  20.3574  20.3788  20.5064  20.6295  20.6560
    20.7645  20.8830  20.9870  21.0203  21.0540  21.1141  21.1908  21.2341
    21.3939  21.4133  21.5063  21.5867  21.6607  21.7146  21.7530  21.8501
    21.9064  21.9979  22.0745  22.1346  22.2209  22.3445  22.4015  22.4995
    22.5681  22.6330

     the spin up/dw Fermi energies are    -2.0178   -2.3997 ev

!    total energy              =   -2321.63698698 Ry
     Harris-Foulkes estimate   =   -2321.63698699 Ry
     estimated scf accuracy    <          8.3E-09 Ry

     The total energy is the sum of the following terms:

     one-electron contribution =  -26736.37842569 Ry
     hartree contribution      =   13386.39240427 Ry
     xc contribution           =    -349.03456596 Ry
     ewald contribution        =   11376.75331699 Ry
     Hubbard energy            =       0.63024969 Ry
     smearing contrib. (-TS)   =       0.00003373 Ry

     total magnetization       =    23.00 Bohr mag/cell
     absolute magnetization    =    25.82 Bohr mag/cell

     convergence has been achieved in  17 iterations

     Forces acting on atoms (Ry/au):


     negative rho (up, down):  0.224E-02 0.132E-02
     atom    1 type  1   force =    -0.00459089   -0.01590971    0.00042157
     atom    2 type  1   force =     0.00026063    0.01226491    0.00006088
     atom    3 type  2   force =     0.03527607   -0.00345741    0.00003723
     atom    4 type  2   force =     0.00536575    0.01210034   -0.00005305
     atom    5 type  1   force =     0.00139817    0.00976948   -0.00011071
     atom    6 type  1   force =    -0.00447604   -0.01295833   -0.00002946
     atom    7 type  1   force =     0.00271782    0.00107345   -0.00053869
     atom    8 type  1   force =     0.00141374   -0.00174708   -0.00046320
     atom    9 type  2   force =     0.00173614    0.00018758    0.00004408
     atom   10 type  2   force =    -0.00433220   -0.00111346    0.00035173
     atom   11 type  1   force =    -0.02180992   -0.05492643    0.00002370
     atom   12 type  1   force =    -0.02207725    0.05512619    0.00003094
     atom   13 type  1   force =    -0.00180332   -0.00022916    0.00001702
     atom   14 type  1   force =    -0.00524413   -0.01625257    0.00049788
     atom   15 type  1   force =     0.00040177    0.01249118   -0.00026476
     atom   16 type  2   force =    -0.03642443   -0.00337006    0.00004033
     atom   17 type  2   force =     0.00570943    0.01210826   -0.00007573
     atom   18 type  1   force =     0.00467002    0.00950660   -0.00011604
     atom   19 type  1   force =    -0.00077190   -0.01294370   -0.00003331
     atom   20 type  1   force =    -0.00226464    0.00045960    0.00081243
     atom   21 type  1   force =    -0.00280996   -0.00167843   -0.00064874
     atom   22 type  2   force =     0.00104019    0.00036942    0.00008455
     atom   23 type  2   force =     0.00420328   -0.00040754    0.00034740
     atom   24 type  1   force =     0.02040137   -0.05001619   -0.00023766
     atom   25 type  1   force =     0.02078154    0.05017533   -0.00020991
     atom   26 type  1   force =     0.00146268   -0.00025887    0.00020023
     atom   27 type  3   force =     0.00000169   -0.00028411   -0.00036877
     atom   28 type  3   force =     0.00000776   -0.00008378   -0.00043120
     atom   29 type  3   force =    -0.00034099   -0.00001632   -0.00024605
     atom   30 type  3   force =    -0.00036005   -0.00002647   -0.00019357
     atom   31 type  1   force =     0.00037716    0.00003630    0.00075213
     atom   32 type  3   force =     0.00008051    0.00001097    0.00029877

     Total force =     0.002020     Total SCF correction =     0.000248
     SCF correction compared to forces is large: reduce conv_thr to get better values

     bfgs converged in  10 scf cycles and   9 bfgs steps
     (criteria: energy < 0.10E-03, force < 0.10E-02)

     End of BFGS Geometry Optimization

     Final energy   =   -2321.6369869793 Ry
Begin final coordinates

ATOMIC_POSITIONS (crystal)
O0       0.000000000   0.000000000   0.377348308    0   0   1
O0       0.000000000   0.500000000   0.398439903    0   0   1
Mn1      0.250000000   0.500000000   0.449866453    0   0   1
Mn1      0.000000000   0.000000000   0.448583133    0   0   1
O0       0.250000000   0.800000000   0.448578575    0   0   1
O0       0.250000000   0.200000000   0.450097034    0   0   1
O0       0.000000000   0.500000000   0.496174929    0   0   1
O0       0.000000000   0.000000000   0.524231687    0   0   1
Mn1      0.250000000   0.000000000   0.573166218    0   0   1
Mn1      0.000000000   0.500000000   0.566626872    0   0   1
O0       0.250000000   0.700000000   0.577279462    0   0   1
O0       0.250000000   0.300000000   0.577425639    0   0   1
O0       0.000000000   0.000000000   0.617839686    0   0   1
O0       0.500000000   0.000000000   0.377707001    0   0   1
O0       0.500000000   0.500000000   0.398611803    0   0   1
Mn1      0.750000000   0.500000000   0.449882981    0   0   1
Mn1      0.500000000   0.000000000   0.449091777    0   0   1
O0       0.750000000   0.800000000   0.448557238    0   0   1
O0       0.750000000   0.200000000   0.450093009    0   0   1
O0       0.500000000   0.500000000   0.496591951    0   0   1
O0       0.500000000   0.000000000   0.524222448    0   0   1
Mn1      0.750000000   0.000000000   0.573444688    0   0   1
Mn1      0.500000000   0.500000000   0.578442029    0   0   1
O0       0.750000000   0.700000000   0.575127871    0   0   1
O0       0.750000000   0.300000000   0.575294689    0   0   1
O0       0.500000000   0.000000000   0.617905302    0   0   1
H2       0.000119907   0.646897703   0.382274868
H2       0.500166783   0.647257972   0.382536410
H2       0.161907446   0.037034690   0.365920146
H2       0.661617778   0.037131423   0.366135752
O0       0.517157773   0.500410394   0.647685917
H2       0.358335592   0.500257325   0.662696222
End final coordinates



     init_run     :    120.84s CPU    125.72s WALL (       1 calls)
     electrons    :  48354.48s CPU  50275.35s WALL (      10 calls)
     update_pot   :    172.19s CPU    179.71s WALL (       9 calls)
     forces       :   1950.32s CPU   2016.39s WALL (      10 calls)

     Called by init_run:
     wfcinit      :     56.18s CPU     59.65s WALL (       1 calls)
     potinit      :      8.11s CPU      8.44s WALL (       1 calls)

     Called by electrons:
     c_bands      :  27798.79s CPU  28814.94s WALL (     202 calls)
     sum_band     :  10665.73s CPU  11130.61s WALL (     202 calls)
     v_of_rho     :    449.84s CPU    502.95s WALL (     209 calls)
     newd         :   9591.75s CPU   9672.22s WALL (     209 calls)
     mix_rho      :     73.17s CPU     75.21s WALL (     202 calls)

     Called by c_bands:
     init_us_2    :     61.21s CPU     61.74s WALL (    2175 calls)
     cegterg      :  27139.03s CPU  27750.07s WALL (    1010 calls)

     Called by *egterg:
     h_psi        :  14963.55s CPU  15283.43s WALL (    2726 calls)
     s_psi        :   1696.48s CPU   1720.33s WALL (    2826 calls)
     g_psi        :     36.77s CPU     36.87s WALL (    1711 calls)
     cdiaghg      :   2815.69s CPU   2829.13s WALL (    2661 calls)

     Called by h_psi:
     add_vuspsi   :   1644.21s CPU   1669.15s WALL (    2726 calls)
     vhpsi        :   1646.56s CPU   1677.93s WALL (    2726 calls)

     General routines
     calbec       :   4063.58s CPU   4119.89s WALL (   22072 calls)
     fft          :    497.14s CPU    624.32s WALL (    6593 calls)
     ffts         :      5.57s CPU      5.82s WALL (     822 calls)
     fftw         :   8353.47s CPU   8664.21s WALL ( 1829850 calls)
     interpolate  :     59.22s CPU     60.10s WALL (     822 calls)
     davcio       :      0.20s CPU     37.05s WALL (    2225 calls)

     Parallel routines
     fft_scatter  :   2781.23s CPU   3186.41s WALL ( 1837265 calls)
     Hubbard U routines
     new_ns       :    390.68s CPU    412.44s WALL (     202 calls)
     vhpsi        :   1646.56s CPU   1677.93s WALL (    2726 calls)
     force_hub    :    550.91s CPU    564.61s WALL (      10 calls)

     PWSCF        :    14h11m CPU       14h44m WALL


   This run was terminated on:   9:30: 9   5May2014            

=------------------------------------------------------------------------------=
   JOB DONE.
=------------------------------------------------------------------------------=
---------------------------------------
Running PBS batch system epilogue script
Job id: 340691.audhumbla.fysik.dtu.dk
Username: zhonxu
Groupname: campgst
Jobname: MnO2/Eads-2-layers/OH-U-1.5
Sessionid: 6478
Resources limits: neednodes=2:ppn=8:xeon8,nodes=2:ppn=8:xeon8,walltime=48:00:00
Resources used: cput=234:55:21,mem=17285384kb,vmem=21366876kb,walltime=14:44:31
Queuename: verylong
Accounting:
This job has allocated the following 16 nodes:
d070 d070 d070 d070 d070 d070 d070 d070 d026 d026 d026 d026 d026 d026 d026 d026
Finished epilogue job 340691.audhumbla.fysik.dtu.dk for zhonxu
