
     Program PWSCF v.5.0.2 (svn rev. 9656) starts on 30May2014 at  0:33:13 

     This program is part of the open-source Quantum ESPRESSO suite
     for quantum simulation of materials; please cite
         "P. Giannozzi et al., J. Phys.:Condens. Matter 21 395502 (2009);
          URL http://www.quantum-espresso.org", 
     in publications or presentations arising from this work. More details at
     http://www.quantum-espresso.org/quote.php

     Parallel version (MPI), running on    16 processors
     K-points division:     npool     =       4
     R & G space division:  proc/nbgrp/npool/nimage =       4

     Current dimensions of program PWSCF are:
     Max number of different atomic species (ntypx) = 10
     Max number of k-points (npk) =  40000
     Max angular momentum in pseudopotentials (lmaxx) =  3
     Reading input from pwscf.in
Warning: card &CELL ignored
Warning: card / ignored

     Subspace diagonalization in iterative solution of the eigenvalue problem:
     a serial algorithm will be used


     Parallelization info
     --------------------
     sticks:   dense  smooth     PW     G-vecs:    dense   smooth      PW
     Min        1450     467    129               343652    62241    9199
     Max        1451     468    130               343665    62278    9208
     Sum        5803    1869    517              1374641   249013   36807



     bravais-lattice index     =            0
     lattice parameter (alat)  =      12.0187  a.u.
     unit-cell volume          =    7280.5819 (a.u.)^3
     number of atoms/cell      =           33
     number of atomic types    =            3
     number of electrons       =       245.00
     number of Kohn-Sham states=          367
     kinetic-energy cutoff     =      40.0000  Ry
     charge density cutoff     =     500.0000  Ry
     convergence threshold     =      1.0E-06
     mixing beta               =       0.7000
     number of iterations used =            8  plain     mixing
     Exchange-correlation      = SLA  PW   PBE  PBE ( 1 4 3 4 0)
     EXX-fraction              =        0.00
     nstep                     =           50


     celldm(1)=  12.018658  celldm(2)=   0.000000  celldm(3)=   0.000000
     celldm(4)=   0.000000  celldm(5)=   0.000000  celldm(6)=   0.000000

     crystal axes: (cart. coord. in units of alat)
               a(1) = (   1.000000   0.000000   0.000000 )  
               a(2) = (   0.000000   1.009517   0.000000 )  
               a(3) = (   0.000000   0.000000   4.154171 )  

     reciprocal axes: (cart. coord. in units 2 pi/alat)
               b(1) = (  1.000000  0.000000  0.000000 )  
               b(2) = (  0.000000  0.990572  0.000000 )  
               b(3) = (  0.000000  0.000000  0.240722 )  


     PseudoPot. # 1 for O  read from file:
     /home/camp/zhonxu/pseudo/o_pbe_v1.01.uspp.F.UPF
     MD5 check sum: 2bcb18d16ea4b960afae9ec6d52f22d2
     Pseudo is Ultrasoft + core correction, Zval =  6.0
     Generated by new atomic code, or converted to UPF format
     Using radial grid of  737 points,  5 beta functions with: 
                l(1) =   0
                l(2) =   0
                l(3) =   1
                l(4) =   1
                l(5) =   2
     Q(r) pseudized with  8 coefficients,  rinner =    0.900   0.900   0.900
                                                       0.900   0.900

     PseudoPot. # 2 for Ir read from file:
     /home/camp/zhonxu/pseudo/ir_pbe_v1.uspp.F.UPF
     MD5 check sum: abf987a9674477536ede83817f8f8b70
     Pseudo is Ultrasoft + core correction, Zval = 15.0
     Generated by new atomic code, or converted to UPF format
     Using radial grid of  983 points,  7 beta functions with: 
                l(1) =   0
                l(2) =   0
                l(3) =   1
                l(4) =   1
                l(5) =   1
                l(6) =   2
                l(7) =   2
     Q(r) pseudized with  8 coefficients,  rinner =    1.350   1.350   1.350
                                                       1.350   1.350

     PseudoPot. # 3 for H  read from file:
     /home/camp/zhonxu/pseudo/h_pbe_v1.uspp.F.UPF
     MD5 check sum: 3408e3ff4ec8b0a4e358431e7e038a48
     Pseudo is Ultrasoft, Zval =  1.0
     Generated by new atomic code, or converted to UPF format
     Using radial grid of  615 points,  2 beta functions with: 
                l(1) =   0
                l(2) =   0
     Q(r) pseudized with  8 coefficients,  rinner =    0.700

     atomic species   valence    mass     pseudopotential
        O0             6.00    15.99940     O ( 1.00)
        Ir1           15.00   192.22000     Ir( 1.00)
        H2             1.00     1.00794     H ( 1.00)


     Simplified LDA+U calculation (l_max = 2) with parameters (eV):
     atomic species    L          U    alpha       J0     beta
        Ir1            2     6.0000   0.0000   0.0000   0.0000



     No symmetry found



   Cartesian axes

     site n.     atom                  positions (alat units)
         1           O0  tau(   1) = (   0.0000000   0.0000000   1.5694875  )
         2           O0  tau(   2) = (   0.0000000   0.5047586   1.6702677  )
         3           Ir1 tau(   3) = (   0.2500000   0.5047586   1.8805934  )
         4           Ir1 tau(   4) = (   0.0000000   0.0000000   1.8807595  )
         5           O0  tau(   5) = (   0.2500000   0.8177090   1.8801779  )
         6           O0  tau(   6) = (   0.2500000   0.1918083   1.8787655  )
         7           O0  tau(   7) = (   0.0000000   0.5047586   2.0695666  )
         8           O0  tau(   8) = (   0.0000000   0.0000000   2.1948564  )
         9           Ir1 tau(   9) = (   0.2500000   0.0000000   2.3901025  )
        10           Ir1 tau(  10) = (   0.0000000   0.5047586   2.3742751  )
        11           O0  tau(  11) = (   0.2500000   0.6965669   2.3856575  )
        12           O0  tau(  12) = (   0.2500000   0.3129503   2.3949628  )
        13           O0  tau(  13) = (   0.0000000   0.0000000   2.5754200  )
        14           O0  tau(  14) = (   0.5000000   0.0000000   1.5694875  )
        15           O0  tau(  15) = (   0.5000000   0.5047586   1.6704338  )
        16           Ir1 tau(  16) = (   0.7500000   0.5047586   1.8805934  )
        17           Ir1 tau(  17) = (   0.5000000   0.0000000   1.8805518  )
        18           O0  tau(  18) = (   0.7500000   0.8177090   1.8801364  )
        19           O0  tau(  19) = (   0.7500000   0.1918083   1.8788486  )
        20           O0  tau(  20) = (   0.5000000   0.5047586   2.0759640  )
        21           O0  tau(  21) = (   0.5000000   0.0000000   2.1945241  )
        22           Ir1 tau(  22) = (   0.7500000   0.0000000   2.3900609  )
        23           Ir1 tau(  23) = (   0.5000000   0.5047586   2.3998648  )
        24           O0  tau(  24) = (   0.7500000   0.6965669   2.3856575  )
        25           O0  tau(  25) = (   0.7500000   0.3129503   2.3949628  )
        26           O0  tau(  26) = (   0.5000000   0.0000000   2.5728445  )
        27           H2  tau(  27) = (   0.0000400   0.6420328   1.5957418  )
        28           H2  tau(  28) = (   0.4999400   0.6424971   1.5965311  )
        29           H2  tau(  29) = (   0.1432100   0.0360095   1.5217560  )
        30           H2  tau(  30) = (   0.6436700   0.0339703   1.5215899  )
        31           O0  tau(  31) = (   0.4997900   0.5432313   2.6993805  )
        32           O0  tau(  32) = (   0.5001800   0.3480815   2.8224271  )
        33           H2  tau(  33) = (   0.4999800   0.4114489   2.9642920  )

     number of k points=    10  Methfessel-Paxton smearing, width (Ry)=  0.0100
                       cart. coord. in units 2pi/alat
        k(    1) = (   0.0000000   0.0000000   0.0000000), wk =   0.1250000
        k(    2) = (   0.0000000   0.2476431   0.0000000), wk =   0.2500000
        k(    3) = (   0.0000000  -0.4952862   0.0000000), wk =   0.1250000
        k(    4) = (   0.2500000   0.0000000   0.0000000), wk =   0.2500000
        k(    5) = (   0.2500000   0.2476431   0.0000000), wk =   0.2500000
        k(    6) = (   0.2500000  -0.4952862   0.0000000), wk =   0.2500000
        k(    7) = (  -0.5000000   0.0000000   0.0000000), wk =   0.1250000
        k(    8) = (  -0.5000000   0.2476431   0.0000000), wk =   0.2500000
        k(    9) = (  -0.5000000  -0.4952862   0.0000000), wk =   0.1250000
        k(   10) = (  -0.2500000   0.2476431   0.0000000), wk =   0.2500000

     Dense  grid:  1374641 G-vectors     FFT dimensions: (  90,  90, 360)

     Smooth grid:   249013 G-vectors     FFT dimensions: (  50,  50, 216)

     Largest allocated arrays     est. size (Mb)     dimensions
        Kohn-Sham Wavefunctions        44.06 Mb     (   7867,  367)
        Atomic wavefunctions           21.73 Mb     (   7867,  181)
        NL pseudopotentials            52.58 Mb     (   7867,  438)
        Each V/rho on FFT grid         11.12 Mb     ( 729000)
        Each G-vector array             2.62 Mb     ( 343661)
        G-vector shells                 1.13 Mb     ( 148760)
     Largest temporary arrays     est. size (Mb)     dimensions
        Auxiliary wavefunctions       176.22 Mb     (   7867, 1468)
        Each subspace H/S matrix       32.88 Mb     (1468,1468)
        Each <psi_i|beta_j> matrix      2.45 Mb     (    438,  367)
        Arrays for rho mixing          88.99 Mb     ( 729000,   8)

     Check: negative/imaginary core charge=   -0.000003    0.000000

     Initial potential from superposition of free atoms
     Check: negative starting charge=   -3.336869

     starting charge  240.99967, renormalised to  245.00000

     negative rho (up, down):  0.339E+01 0.000E+00
     Number of +U iterations with fixed ns =  0
     Starting occupations:
 --- enter write_ns ---
 LDA+U parameters:
U( 2)     =  6.00000000
alpha( 2) =  0.00000000
atom    3   Tr[ns(na)] =   7.00000
    eigenvalues: 
  0.700  0.700  0.700  0.700  0.700
    eigenvectors:
  1.000  0.000  0.000  0.000  0.000
  0.000  1.000  0.000  0.000  0.000
  0.000  0.000  1.000  0.000  0.000
  0.000  0.000  0.000  1.000  0.000
  0.000  0.000  0.000  0.000  1.000
    occupations:
  0.700  0.000  0.000  0.000  0.000
  0.000  0.700  0.000  0.000  0.000
  0.000  0.000  0.700  0.000  0.000
  0.000  0.000  0.000  0.700  0.000
  0.000  0.000  0.000  0.000  0.700
atom    4   Tr[ns(na)] =   7.00000
    eigenvalues: 
  0.700  0.700  0.700  0.700  0.700
    eigenvectors:
  1.000  0.000  0.000  0.000  0.000
  0.000  1.000  0.000  0.000  0.000
  0.000  0.000  1.000  0.000  0.000
  0.000  0.000  0.000  1.000  0.000
  0.000  0.000  0.000  0.000  1.000
    occupations:
  0.700  0.000  0.000  0.000  0.000
  0.000  0.700  0.000  0.000  0.000
  0.000  0.000  0.700  0.000  0.000
  0.000  0.000  0.000  0.700  0.000
  0.000  0.000  0.000  0.000  0.700
atom    9   Tr[ns(na)] =   7.00000
    eigenvalues: 
  0.700  0.700  0.700  0.700  0.700
    eigenvectors:
  1.000  0.000  0.000  0.000  0.000
  0.000  1.000  0.000  0.000  0.000
  0.000  0.000  1.000  0.000  0.000
  0.000  0.000  0.000  1.000  0.000
  0.000  0.000  0.000  0.000  1.000
    occupations:
  0.700  0.000  0.000  0.000  0.000
  0.000  0.700  0.000  0.000  0.000
  0.000  0.000  0.700  0.000  0.000
  0.000  0.000  0.000  0.700  0.000
  0.000  0.000  0.000  0.000  0.700
atom   10   Tr[ns(na)] =   7.00000
    eigenvalues: 
  0.700  0.700  0.700  0.700  0.700
    eigenvectors:
  1.000  0.000  0.000  0.000  0.000
  0.000  1.000  0.000  0.000  0.000
  0.000  0.000  1.000  0.000  0.000
  0.000  0.000  0.000  1.000  0.000
  0.000  0.000  0.000  0.000  1.000
    occupations:
  0.700  0.000  0.000  0.000  0.000
  0.000  0.700  0.000  0.000  0.000
  0.000  0.000  0.700  0.000  0.000
  0.000  0.000  0.000  0.700  0.000
  0.000  0.000  0.000  0.000  0.700
atom   16   Tr[ns(na)] =   7.00000
    eigenvalues: 
  0.700  0.700  0.700  0.700  0.700
    eigenvectors:
  1.000  0.000  0.000  0.000  0.000
  0.000  1.000  0.000  0.000  0.000
  0.000  0.000  1.000  0.000  0.000
  0.000  0.000  0.000  1.000  0.000
  0.000  0.000  0.000  0.000  1.000
    occupations:
  0.700  0.000  0.000  0.000  0.000
  0.000  0.700  0.000  0.000  0.000
  0.000  0.000  0.700  0.000  0.000
  0.000  0.000  0.000  0.700  0.000
  0.000  0.000  0.000  0.000  0.700
atom   17   Tr[ns(na)] =   7.00000
    eigenvalues: 
  0.700  0.700  0.700  0.700  0.700
    eigenvectors:
  1.000  0.000  0.000  0.000  0.000
  0.000  1.000  0.000  0.000  0.000
  0.000  0.000  1.000  0.000  0.000
  0.000  0.000  0.000  1.000  0.000
  0.000  0.000  0.000  0.000  1.000
    occupations:
  0.700  0.000  0.000  0.000  0.000
  0.000  0.700  0.000  0.000  0.000
  0.000  0.000  0.700  0.000  0.000
  0.000  0.000  0.000  0.700  0.000
  0.000  0.000  0.000  0.000  0.700
atom   22   Tr[ns(na)] =   7.00000
    eigenvalues: 
  0.700  0.700  0.700  0.700  0.700
    eigenvectors:
  1.000  0.000  0.000  0.000  0.000
  0.000  1.000  0.000  0.000  0.000
  0.000  0.000  1.000  0.000  0.000
  0.000  0.000  0.000  1.000  0.000
  0.000  0.000  0.000  0.000  1.000
    occupations:
  0.700  0.000  0.000  0.000  0.000
  0.000  0.700  0.000  0.000  0.000
  0.000  0.000  0.700  0.000  0.000
  0.000  0.000  0.000  0.700  0.000
  0.000  0.000  0.000  0.000  0.700
atom   23   Tr[ns(na)] =   7.00000
    eigenvalues: 
  0.700  0.700  0.700  0.700  0.700
    eigenvectors:
  1.000  0.000  0.000  0.000  0.000
  0.000  1.000  0.000  0.000  0.000
  0.000  0.000  1.000  0.000  0.000
  0.000  0.000  0.000  1.000  0.000
  0.000  0.000  0.000  0.000  1.000
    occupations:
  0.700  0.000  0.000  0.000  0.000
  0.000  0.700  0.000  0.000  0.000
  0.000  0.000  0.700  0.000  0.000
  0.000  0.000  0.000  0.700  0.000
  0.000  0.000  0.000  0.000  0.700
N of occupied +U levels =  56.0000000
 --- exit write_ns ---
 Atomic wfc used for LDA+U Projector are NOT orthogonalized
     Starting wfc are  181 randomized atomic wfcs

     total cpu time spent up to now is      187.2 secs

     per-process dynamical memory:   438.7 Mb

     Self-consistent Calculation

     iteration #  1     ecut=    40.00 Ry     beta=0.70
     Davidson diagonalization with overlap
     ethr =  1.00E-02,  avg # of iterations =  9.3
 --- enter write_ns ---
 LDA+U parameters:
U( 2)     =  6.00000000
alpha( 2) =  0.00000000
atom    3   Tr[ns(na)] =   7.16020
    eigenvalues: 
  0.453  0.493  0.745  0.939  0.951
    eigenvectors:
  0.000  0.180  0.003  0.814  0.004
  0.999  0.001  0.000  0.000  0.000
  0.000  0.000  0.995  0.003  0.002
  0.001  0.819  0.000  0.179  0.001
  0.000  0.000  0.002  0.005  0.993
    occupations:
  0.858  0.001  0.010 -0.171 -0.000
  0.001  0.453  0.000  0.001 -0.006
  0.010  0.000  0.746 -0.005 -0.009
 -0.171  0.001 -0.005  0.573  0.000
 -0.000 -0.006 -0.009  0.000  0.951
atom    4   Tr[ns(na)] =   6.84560
    eigenvalues: 
  0.480  0.503  0.690  0.796  0.954
    eigenvectors:
  0.000  0.986  0.000  0.000  0.013
  0.000  0.000  0.038  0.962  0.000
  0.000  0.000  0.962  0.038  0.000
  0.000  0.013  0.000  0.000  0.986
  1.000  0.000  0.000  0.000  0.000
    occupations:
  0.509 -0.002 -0.000  0.052  0.000
 -0.002  0.792  0.020 -0.001 -0.001
 -0.000  0.020  0.694  0.002  0.000
  0.052 -0.001  0.002  0.948  0.000
  0.000 -0.001  0.000  0.000  0.480
atom    9   Tr[ns(na)] =   7.04810
    eigenvalues: 
  0.489  0.511  0.751  0.809  0.965
    eigenvectors:
  0.001  0.144  0.001  0.000  0.855
  0.995  0.005  0.000  0.000  0.000
  0.000  0.000  0.934  0.066  0.000
  0.004  0.851  0.000  0.000  0.145
  0.000  0.000  0.066  0.934  0.000
    occupations:
  0.899 -0.002  0.002 -0.160  0.001
 -0.002  0.489  0.000 -0.001 -0.000
  0.002  0.000  0.755 -0.006 -0.014
 -0.160 -0.001 -0.006  0.577  0.000
  0.001 -0.000 -0.014  0.000  0.805
atom   10   Tr[ns(na)] =   7.37399
    eigenvalues: 
  0.454  0.481  0.893  0.902  0.958
    eigenvectors:
  0.991  0.000  0.000  0.000  0.009
  0.000  0.001  0.999  0.000  0.000
  0.000  0.000  0.000  1.000  0.000
  0.009  0.000  0.000  0.000  0.991
  0.000  0.999  0.001  0.000  0.000
    occupations:
  0.458 -0.000  0.003  0.048  0.000
 -0.000  0.892 -0.000 -0.000 -0.011
  0.003 -0.000  0.902 -0.001  0.000
  0.048 -0.000 -0.001  0.953 -0.000
  0.000 -0.011  0.000 -0.000  0.482
atom   16   Tr[ns(na)] =   7.16019
    eigenvalues: 
  0.453  0.493  0.744  0.938  0.951
    eigenvectors:
  0.000  0.180  0.003  0.810  0.007
  0.999  0.001  0.000  0.000  0.000
  0.000  0.000  0.994  0.003  0.003
  0.001  0.819  0.001  0.178  0.002
  0.000  0.000  0.002  0.009  0.988
    occupations:
  0.858 -0.001  0.010 -0.171  0.001
 -0.001  0.453 -0.000 -0.001 -0.006
  0.010 -0.000  0.745 -0.005  0.010
 -0.171 -0.001 -0.005  0.573 -0.000
  0.001 -0.006  0.010 -0.000  0.951
atom   17   Tr[ns(na)] =   6.85485
    eigenvalues: 
  0.480  0.503  0.692  0.801  0.952
    eigenvectors:
  0.000  0.986  0.000  0.000  0.014
  0.000  0.000  0.030  0.970  0.000
  0.000  0.000  0.969  0.030  0.000
  0.000  0.014  0.000  0.000  0.986
  1.000  0.000  0.000  0.000  0.000
    occupations:
  0.509 -0.002  0.000  0.052  0.000
 -0.002  0.797  0.019 -0.000 -0.001
  0.000  0.019  0.695  0.003  0.000
  0.052 -0.000  0.003  0.946 -0.000
  0.000 -0.001  0.000 -0.000  0.480
atom   22   Tr[ns(na)] =   7.04853
    eigenvalues: 
  0.489  0.511  0.751  0.809  0.965
    eigenvectors:
  0.001  0.143  0.001  0.000  0.855
  0.993  0.007  0.000  0.000  0.000
  0.000  0.000  0.936  0.063  0.000
  0.006  0.849  0.000  0.000  0.145
  0.000  0.000  0.063  0.937  0.000
    occupations:
  0.899  0.002  0.002 -0.160  0.000
  0.002  0.489  0.001  0.001 -0.000
  0.002  0.001  0.755 -0.006  0.014
 -0.160  0.001 -0.006  0.577 -0.000
  0.000 -0.000  0.014 -0.000  0.805
atom   23   Tr[ns(na)] =   6.99966
    eigenvalues: 
  0.474  0.516  0.685  0.880  0.945
    eigenvectors:
  0.000  0.989  0.000  0.003  0.008
  0.001  0.000  0.999  0.000  0.000
  0.000  0.002  0.000  0.985  0.014
  0.000  0.009  0.000  0.013  0.978
  0.999  0.000  0.001  0.000  0.000
    occupations:
  0.520 -0.000  0.014  0.041  0.000
 -0.000  0.685  0.000 -0.000 -0.006
  0.014  0.000  0.881 -0.009  0.000
  0.041 -0.000 -0.009  0.940 -0.000
  0.000 -0.006  0.000 -0.000  0.474
N of occupied +U levels =  56.4911257
 --- exit write_ns ---

     negative rho (up, down):  0.295E+01 0.000E+00

     total cpu time spent up to now is      699.5 secs

     total energy              =   -2127.87115579 Ry
     Harris-Foulkes estimate   =   -2140.69437364 Ry
     estimated scf accuracy    <      16.60905325 Ry

     iteration #  2     ecut=    40.00 Ry     beta=0.70
     Davidson diagonalization with overlap
     ethr =  6.78E-03,  avg # of iterations =  3.2

     negative rho (up, down):  0.271E+01 0.000E+00

     total cpu time spent up to now is      993.7 secs

     total energy              =   -2095.41683709 Ry
     Harris-Foulkes estimate   =   -2157.10451391 Ry
     estimated scf accuracy    <     352.12638150 Ry

     iteration #  3     ecut=    40.00 Ry     beta=0.70
     Davidson diagonalization with overlap
     ethr =  6.78E-03,  avg # of iterations =  4.0

     negative rho (up, down):  0.239E+01 0.000E+00

     total cpu time spent up to now is     1330.1 secs

     total energy              =   -2086.32092325 Ry
     Harris-Foulkes estimate   =   -2180.54086764 Ry
     estimated scf accuracy    <    1668.27223236 Ry

     iteration #  4     ecut=    40.00 Ry     beta=0.70
     Davidson diagonalization with overlap
     ethr =  6.78E-03,  avg # of iterations =  4.0

     negative rho (up, down):  0.253E+01 0.000E+00

     total cpu time spent up to now is     1663.4 secs

     total energy              =   -2136.40454872 Ry
     Harris-Foulkes estimate   =   -2138.29932074 Ry
     estimated scf accuracy    <       7.06696379 Ry

     iteration #  5     ecut=    40.00 Ry     beta=0.70
     Davidson diagonalization with overlap
     ethr =  2.88E-03,  avg # of iterations =  2.2

     negative rho (up, down):  0.265E+01 0.000E+00

     total cpu time spent up to now is     1908.4 secs

     total energy              =   -2136.61128916 Ry
     Harris-Foulkes estimate   =   -2137.88162307 Ry
     estimated scf accuracy    <       6.13810242 Ry

     iteration #  6     ecut=    40.00 Ry     beta=0.70
     Davidson diagonalization with overlap
     ethr =  2.51E-03,  avg # of iterations =  2.1

     negative rho (up, down):  0.271E+01 0.000E+00

     total cpu time spent up to now is     2150.6 secs

     total energy              =   -2137.16342488 Ry
     Harris-Foulkes estimate   =   -2137.48367766 Ry
     estimated scf accuracy    <       1.82890681 Ry

     iteration #  7     ecut=    40.00 Ry     beta=0.70
     Davidson diagonalization with overlap
     ethr =  7.46E-04,  avg # of iterations =  2.3

     negative rho (up, down):  0.279E+01 0.000E+00

     total cpu time spent up to now is     2404.6 secs

     total energy              =   -2137.19608450 Ry
     Harris-Foulkes estimate   =   -2137.34240403 Ry
     estimated scf accuracy    <       0.67609018 Ry

     iteration #  8     ecut=    40.00 Ry     beta=0.70
     Davidson diagonalization with overlap
     ethr =  2.76E-04,  avg # of iterations =  3.4

     negative rho (up, down):  0.285E+01 0.000E+00

     total cpu time spent up to now is     2649.2 secs

     total energy              =   -2137.15762116 Ry
     Harris-Foulkes estimate   =   -2137.30219978 Ry
     estimated scf accuracy    <       0.83543839 Ry

     iteration #  9     ecut=    40.00 Ry     beta=0.70
     Davidson diagonalization with overlap
     ethr =  2.76E-04,  avg # of iterations =  2.4

     negative rho (up, down):  0.293E+01 0.000E+00

     total cpu time spent up to now is     2887.5 secs

     total energy              =   -2137.16121941 Ry
     Harris-Foulkes estimate   =   -2137.24093238 Ry
     estimated scf accuracy    <       0.31647885 Ry

     iteration # 10     ecut=    40.00 Ry     beta=0.70
     Davidson diagonalization with overlap
     ethr =  1.29E-04,  avg # of iterations =  5.9

     negative rho (up, down):  0.304E+01 0.000E+00

     total cpu time spent up to now is     3152.0 secs

     total energy              =   -2137.14099905 Ry
     Harris-Foulkes estimate   =   -2137.21540993 Ry
     estimated scf accuracy    <       0.35826620 Ry

     iteration # 11     ecut=    40.00 Ry     beta=0.70
     Davidson diagonalization with overlap
     ethr =  1.29E-04,  avg # of iterations =  3.9

     negative rho (up, down):  0.310E+01 0.000E+00

     total cpu time spent up to now is     3402.6 secs

     total energy              =   -2137.14085791 Ry
     Harris-Foulkes estimate   =   -2137.18864355 Ry
     estimated scf accuracy    <       0.30963262 Ry

     iteration # 12     ecut=    40.00 Ry     beta=0.70
     Davidson diagonalization with overlap
     ethr =  1.26E-04,  avg # of iterations =  1.0

     negative rho (up, down):  0.312E+01 0.000E+00

     total cpu time spent up to now is     3627.6 secs

     total energy              =   -2137.13117853 Ry
     Harris-Foulkes estimate   =   -2137.17231516 Ry
     estimated scf accuracy    <       0.14214095 Ry

     iteration # 13     ecut=    40.00 Ry     beta=0.70
     Davidson diagonalization with overlap
     ethr =  5.80E-05,  avg # of iterations =  5.2

     negative rho (up, down):  0.312E+01 0.000E+00

     total cpu time spent up to now is     3907.7 secs

     total energy              =   -2137.03502437 Ry
     Harris-Foulkes estimate   =   -2137.27780527 Ry
     estimated scf accuracy    <       4.33053335 Ry

     iteration # 14     ecut=    40.00 Ry     beta=0.70
     Davidson diagonalization with overlap
     ethr =  5.80E-05,  avg # of iterations =  4.8

     negative rho (up, down):  0.313E+01 0.000E+00

     total cpu time spent up to now is     4167.3 secs

     total energy              =   -2137.14625742 Ry
     Harris-Foulkes estimate   =   -2137.17612900 Ry
     estimated scf accuracy    <       0.14812930 Ry

     iteration # 15     ecut=    40.00 Ry     beta=0.70
     Davidson diagonalization with overlap
     ethr =  5.80E-05,  avg # of iterations =  1.0

     negative rho (up, down):  0.314E+01 0.000E+00

     total cpu time spent up to now is     4395.1 secs

     total energy              =   -2137.15474036 Ry
     Harris-Foulkes estimate   =   -2137.16925493 Ry
     estimated scf accuracy    <       0.08561697 Ry

     iteration # 16     ecut=    40.00 Ry     beta=0.70
     Davidson diagonalization with overlap
     ethr =  3.49E-05,  avg # of iterations =  1.2

     negative rho (up, down):  0.314E+01 0.000E+00

     total cpu time spent up to now is     4625.4 secs

     total energy              =   -2137.15935883 Ry
     Harris-Foulkes estimate   =   -2137.16414531 Ry
     estimated scf accuracy    <       0.01624535 Ry

     iteration # 17     ecut=    40.00 Ry     beta=0.70
     Davidson diagonalization with overlap
     ethr =  6.63E-06,  avg # of iterations =  5.2

     negative rho (up, down):  0.314E+01 0.000E+00

     total cpu time spent up to now is     4879.3 secs

     total energy              =   -2137.16152212 Ry
     Harris-Foulkes estimate   =   -2137.16240761 Ry
     estimated scf accuracy    <       0.00364279 Ry

     iteration # 18     ecut=    40.00 Ry     beta=0.70
     Davidson diagonalization with overlap
     ethr =  1.49E-06,  avg # of iterations =  4.5

     negative rho (up, down):  0.314E+01 0.000E+00

     total cpu time spent up to now is     5139.6 secs

     total energy              =   -2137.16128701 Ry
     Harris-Foulkes estimate   =   -2137.16277293 Ry
     estimated scf accuracy    <       0.00739856 Ry

     iteration # 19     ecut=    40.00 Ry     beta=0.70
     Davidson diagonalization with overlap
     ethr =  1.49E-06,  avg # of iterations =  1.1

     negative rho (up, down):  0.314E+01 0.000E+00

     total cpu time spent up to now is     5370.0 secs

     total energy              =   -2137.16178062 Ry
     Harris-Foulkes estimate   =   -2137.16241814 Ry
     estimated scf accuracy    <       0.00498996 Ry

     iteration # 20     ecut=    40.00 Ry     beta=0.70
     Davidson diagonalization with overlap
     ethr =  1.49E-06,  avg # of iterations =  1.0

     negative rho (up, down):  0.314E+01 0.000E+00

     total cpu time spent up to now is     5591.4 secs

     total energy              =   -2137.16207360 Ry
     Harris-Foulkes estimate   =   -2137.16212294 Ry
     estimated scf accuracy    <       0.00019121 Ry

     iteration # 21     ecut=    40.00 Ry     beta=0.70
     Davidson diagonalization with overlap
     ethr =  7.80E-08,  avg # of iterations =  2.0

     negative rho (up, down):  0.314E+01 0.000E+00

     total cpu time spent up to now is     5825.3 secs

     total energy              =   -2137.16198070 Ry
     Harris-Foulkes estimate   =   -2137.16223354 Ry
     estimated scf accuracy    <       0.00182959 Ry

     iteration # 22     ecut=    40.00 Ry     beta=0.70
     Davidson diagonalization with overlap
     ethr =  7.80E-08,  avg # of iterations =  1.3

     negative rho (up, down):  0.314E+01 0.000E+00

     total cpu time spent up to now is     6053.7 secs

     total energy              =   -2137.16208864 Ry
     Harris-Foulkes estimate   =   -2137.16212516 Ry
     estimated scf accuracy    <       0.00018293 Ry

     iteration # 23     ecut=    40.00 Ry     beta=0.70
     Davidson diagonalization with overlap
     ethr =  7.47E-08,  avg # of iterations =  2.3

     negative rho (up, down):  0.314E+01 0.000E+00

     total cpu time spent up to now is     6289.2 secs

     total energy              =   -2137.16198435 Ry
     Harris-Foulkes estimate   =   -2137.16224183 Ry
     estimated scf accuracy    <       0.00364049 Ry

     iteration # 24     ecut=    40.00 Ry     beta=0.70
     Davidson diagonalization with overlap
     ethr =  7.47E-08,  avg # of iterations =  1.0

     negative rho (up, down):  0.314E+01 0.000E+00

     total cpu time spent up to now is     6520.8 secs

     total energy              =   -2137.16210932 Ry
     Harris-Foulkes estimate   =   -2137.16211703 Ry
     estimated scf accuracy    <       0.00004690 Ry

     iteration # 25     ecut=    40.00 Ry     beta=0.70
     Davidson diagonalization with overlap
     ethr =  1.91E-08,  avg # of iterations =  1.0

     negative rho (up, down):  0.314E+01 0.000E+00

     total cpu time spent up to now is     6757.1 secs

     total energy              =   -2137.16211056 Ry
     Harris-Foulkes estimate   =   -2137.16211680 Ry
     estimated scf accuracy    <       0.00003666 Ry

     iteration # 26     ecut=    40.00 Ry     beta=0.70
     Davidson diagonalization with overlap
     ethr =  1.50E-08,  avg # of iterations =  1.0

     negative rho (up, down):  0.314E+01 0.000E+00

     total cpu time spent up to now is     6985.7 secs

     total energy              =   -2137.16211236 Ry
     Harris-Foulkes estimate   =   -2137.16211533 Ry
     estimated scf accuracy    <       0.00001694 Ry

     iteration # 27     ecut=    40.00 Ry     beta=0.70
     Davidson diagonalization with overlap
     ethr =  6.91E-09,  avg # of iterations =  1.1

     negative rho (up, down):  0.314E+01 0.000E+00

     total cpu time spent up to now is     7218.0 secs

     total energy              =   -2137.16211174 Ry
     Harris-Foulkes estimate   =   -2137.16211659 Ry
     estimated scf accuracy    <       0.00002098 Ry

     iteration # 28     ecut=    40.00 Ry     beta=0.70
     Davidson diagonalization with overlap
     ethr =  6.91E-09,  avg # of iterations =  1.0

     negative rho (up, down):  0.314E+01 0.000E+00

     total cpu time spent up to now is     7448.5 secs

     total energy              =   -2137.16211372 Ry
     Harris-Foulkes estimate   =   -2137.16211458 Ry
     estimated scf accuracy    <       0.00000344 Ry

     iteration # 29     ecut=    40.00 Ry     beta=0.70
     Davidson diagonalization with overlap
     ethr =  1.40E-09,  avg # of iterations =  1.0

     negative rho (up, down):  0.314E+01 0.000E+00

     total cpu time spent up to now is     7686.4 secs

     total energy              =   -2137.16211350 Ry
     Harris-Foulkes estimate   =   -2137.16211492 Ry
     estimated scf accuracy    <       0.00001118 Ry

     iteration # 30     ecut=    40.00 Ry     beta=0.70
     Davidson diagonalization with overlap
     ethr =  1.40E-09,  avg # of iterations =  1.0

     negative rho (up, down):  0.314E+01 0.000E+00

     total cpu time spent up to now is     7918.5 secs

     total energy              =   -2137.16211420 Ry
     Harris-Foulkes estimate   =   -2137.16211436 Ry
     estimated scf accuracy    <       0.00000109 Ry

     iteration # 31     ecut=    40.00 Ry     beta=0.70
     Davidson diagonalization with overlap
     ethr =  4.45E-10,  avg # of iterations =  1.0

     negative rho (up, down):  0.314E+01 0.000E+00

     total cpu time spent up to now is     8158.0 secs

     End of self-consistent calculation
 --- enter write_ns ---
 LDA+U parameters:
U( 2)     =  6.00000000
alpha( 2) =  0.00000000
atom    3   Tr[ns(na)] =   8.19953
    eigenvalues: 
  0.607  0.634  0.904  0.972  0.983
    eigenvectors:
  0.005  0.178  0.003  0.001  0.813
  0.976  0.024  0.000  0.000  0.000
  0.000  0.000  0.990  0.007  0.003
  0.019  0.798  0.000  0.000  0.182
  0.000  0.000  0.006  0.993  0.001
    occupations:
  0.919 -0.003  0.003 -0.135 -0.001
 -0.003  0.608 -0.001 -0.003 -0.005
  0.003 -0.001  0.905 -0.004  0.005
 -0.135 -0.003 -0.004  0.697 -0.000
 -0.001 -0.005  0.005 -0.000  0.971
atom    4   Tr[ns(na)] =   8.20172
    eigenvalues: 
  0.619  0.669  0.892  0.935  0.986
    eigenvectors:
  0.000  0.989  0.000  0.000  0.011
  0.000  0.000  0.076  0.923  0.000
  0.000  0.000  0.924  0.076  0.000
  0.000  0.011  0.000  0.000  0.989
  1.000  0.000  0.000  0.000  0.000
    occupations:
  0.672 -0.003 -0.001  0.032  0.001
 -0.003  0.932  0.012  0.000 -0.001
 -0.001  0.012  0.895 -0.000  0.001
  0.032  0.000 -0.000  0.983  0.000
  0.001 -0.001  0.001  0.000  0.619
atom    9   Tr[ns(na)] =   8.19130
    eigenvalues: 
  0.654  0.671  0.873  0.913  0.985
    eigenvectors:
  0.000  0.139  0.001  0.000  0.860
  0.998  0.002  0.000  0.000  0.000
  0.000  0.000  0.989  0.010  0.000
  0.002  0.858  0.000  0.000  0.140
  0.000  0.000  0.010  0.990  0.000
    occupations:
  0.941 -0.001  0.000 -0.109 -0.001
 -0.001  0.654  0.000  0.001 -0.000
  0.000  0.000  0.873 -0.004 -0.004
 -0.109  0.001 -0.004  0.714  0.001
 -0.001 -0.000 -0.004  0.001  0.913
atom   10   Tr[ns(na)] =   8.15292
    eigenvalues: 
  0.576  0.611  0.948  0.955  0.986
    eigenvectors:
  0.990  0.000  0.000  0.000  0.009
  0.000  0.001  0.998  0.001  0.000
  0.000  0.000  0.001  0.999  0.000
  0.009  0.000  0.000  0.000  0.990
  0.000  0.999  0.001  0.000  0.000
    occupations:
  0.580  0.000  0.007  0.039 -0.000
  0.000  0.948 -0.000  0.000 -0.009
  0.007 -0.000  0.955 -0.000 -0.000
  0.039  0.000 -0.000  0.982 -0.000
 -0.000 -0.009 -0.000 -0.000  0.611
atom   16   Tr[ns(na)] =   8.19936
    eigenvalues: 
  0.607  0.634  0.904  0.972  0.983
    eigenvectors:
  0.005  0.178  0.003  0.001  0.813
  0.977  0.023  0.000  0.000  0.000
  0.000  0.000  0.993  0.004  0.003
  0.018  0.799  0.000  0.000  0.182
  0.000  0.000  0.003  0.995  0.001
    occupations:
  0.919  0.003  0.004 -0.135  0.001
  0.003  0.608 -0.000  0.003 -0.005
  0.004 -0.000  0.905 -0.003 -0.004
 -0.135  0.003 -0.003  0.697 -0.000
  0.001 -0.005 -0.004 -0.000  0.971
atom   17   Tr[ns(na)] =   8.20038
    eigenvalues: 
  0.619  0.670  0.892  0.934  0.986
    eigenvectors:
  0.000  0.989  0.000  0.000  0.011
  0.000  0.000  0.063  0.937  0.000
  0.000  0.000  0.937  0.063  0.000
  0.000  0.011  0.000  0.000  0.989
  1.000  0.000  0.000  0.000  0.000
    occupations:
  0.673 -0.003 -0.001  0.032  0.001
 -0.003  0.931  0.010  0.000 -0.001
 -0.001  0.010  0.895 -0.000  0.001
  0.032  0.000 -0.000  0.983  0.000
  0.001 -0.001  0.001  0.000  0.619
atom   22   Tr[ns(na)] =   8.19122
    eigenvalues: 
  0.654  0.671  0.872  0.913  0.985
    eigenvectors:
  0.000  0.139  0.000  0.000  0.860
  1.000  0.000  0.000  0.000  0.000
  0.000  0.000  0.990  0.009  0.000
  0.000  0.860  0.000  0.000  0.140
  0.000  0.000  0.009  0.991  0.000
    occupations:
  0.941  0.002  0.000 -0.109  0.000
  0.002  0.654  0.001 -0.001 -0.000
  0.000  0.001  0.873 -0.004  0.004
 -0.109 -0.001 -0.004  0.714  0.000
  0.000 -0.000  0.004  0.000  0.913
atom   23   Tr[ns(na)] =   8.20715
    eigenvalues: 
  0.620  0.662  0.878  0.959  0.985
    eigenvectors:
  0.000  0.992  0.000  0.004  0.005
  0.002  0.000  0.998  0.000  0.000
  0.000  0.003  0.000  0.994  0.003
  0.000  0.005  0.000  0.002  0.993
  0.998  0.000  0.002  0.000  0.000
    occupations:
  0.664 -0.000  0.016  0.023 -0.000
 -0.000  0.877 -0.000 -0.000 -0.010
  0.016 -0.000  0.958 -0.002  0.000
  0.023 -0.000 -0.002  0.983 -0.000
 -0.000 -0.010  0.000 -0.000  0.620
N of occupied +U levels =  65.5435795
 --- exit write_ns ---

          k = 0.0000 0.0000 0.0000 ( 31045 PWs)   bands (ev):

   -50.0634 -49.9511 -49.9444 -49.9062 -49.9013 -49.8651 -49.8038 -49.7886
   -49.7793 -49.7767 -49.7765 -49.7549 -49.6500 -49.6345 -49.5615 -49.5606
   -49.5593 -49.5372 -49.5013 -49.4864 -49.4606 -49.4364 -49.4200 -49.4038
   -23.3156 -21.1522 -20.9942 -20.7581 -20.4877 -20.2488 -19.9926 -19.9760
   -19.9644 -19.9252 -19.8513 -19.8268 -19.4619 -19.2275 -19.1848 -19.1666
   -19.1076 -18.4746 -18.2578 -17.4361 -10.9016 -10.7747 -10.0444  -9.5567
    -9.4603  -9.3435  -9.3058  -9.1356  -8.9556  -8.7023  -8.5421  -8.4376
    -8.3921  -8.2851  -8.1438  -8.0783  -7.9738  -7.7315  -7.6896  -7.6151
    -7.5445  -7.2560  -6.9969  -6.9279  -6.9094  -6.7407  -6.4246  -6.3852
    -6.0429  -5.9144  -5.8533  -5.8129  -5.7423  -5.7007  -5.6560  -5.3688
    -5.1946  -5.0058  -4.9381  -4.7646  -4.6478  -4.6468  -4.5678  -4.4582
    -4.3633  -4.3526  -4.1720  -4.0848  -4.0259  -3.9909  -3.9808  -3.9785
    -3.9525  -3.8622  -3.7910  -3.7603  -3.6948  -3.6025  -3.5850  -3.5464
    -3.3860  -3.3001  -3.2758  -3.1834  -3.1666  -3.0933  -2.7638  -2.5711
    -2.5141  -2.2416  -1.9410  -1.8080  -1.7015  -1.5705  -1.5268  -1.4965
    -0.9847  -0.9826  -0.7619  -0.5595  -0.3453  -0.0539   0.1953   0.2569
     1.3284   1.8525   1.8779   2.0544   2.0922   2.2540   2.6813   2.8748
     2.9050   3.3744   3.4747   3.5578   3.7324   3.7465   3.9757   3.9894
     4.2796   4.3115   4.5237   4.8732   4.9995   5.7829   6.1335   6.5339
     6.7225   6.8656   7.2147   7.3380   7.4866   7.5103   7.6003   7.6462
     7.7572   7.9630   8.0266   8.0540   8.0791   8.3436   8.3726   8.4479
     8.4674   8.5471   8.5715   8.5928   8.6331   8.8107   8.9873   9.0258
     9.0481   9.1837   9.2563   9.3010   9.3812   9.4959   9.5291   9.8447
     9.9028   9.9957  10.0383  10.1096  10.1143  10.1244  10.1263  10.1264
    10.1489  10.2087  10.2174  10.3239  10.3255  10.3845  10.5023  10.5793
    10.6069  10.6311  10.8190  10.9035  11.0908  11.1324  11.1873  11.2304
    11.2670  11.3397  11.5118  11.5221  11.5887  11.6356  11.6423  11.7145
    11.7565  11.7827  11.8036  11.9064  11.9713  12.0209  12.1917  12.2042
    12.2967  12.3341  12.4560  12.4835  12.5652  12.5896  12.6126  12.6601
    12.8337  12.8868  12.9104  12.9989  13.0217  13.1295  13.2704  13.3501
    13.5897  13.7266  13.7747  13.8072  13.8756  13.9730  14.0282  14.1263
    14.2135  14.4221  14.4434  14.4563  14.6569  14.6860  14.8634  14.9173
    14.9474  15.2113  15.3297  15.4520  15.5214  15.6377  15.6856  15.7142
    15.7464  15.7845  15.8425  15.9320  16.0741  16.2069  16.2932  16.3047
    16.5811  16.6054  16.7750  16.8084  16.9912  17.0271  17.0545  17.1878
    17.3018  17.3231  17.3774  17.4432  17.5288  17.5809  17.6323  17.7244
    17.7924  17.9014  17.9307  18.1708  18.2759  18.3208  18.3859  18.4046
    18.4547  18.5135  18.5536  18.5932  18.7199  18.8365  18.8533  18.9070
    18.9679  19.0579  19.0959  19.0967  19.1530  19.2283  19.2631  19.2735
    19.3489  19.3621  19.4523  19.4936  19.5803  19.6174  19.6979  19.7203
    19.7373  19.8066  19.8122  19.9515  20.0405  20.0803  20.2200  20.2317
    20.4246  20.4590  20.5498  20.5752  20.6021  20.6237  20.6887  20.7082
    20.7728  20.8354  20.8607  21.0547  21.1697  21.2109  21.2557  21.2792
    21.3168  21.3577  21.4787  21.5838  21.6888  21.7444  21.7710  21.8123
    21.8833  21.9395  22.0256  22.0757  22.1690  22.1793  22.1996  22.2505
    22.2956  22.3117  22.3568  22.4121  22.4505  22.4918  22.5178

          k = 0.0000 0.2476 0.0000 ( 31078 PWs)   bands (ev):

   -50.0637 -49.9515 -49.9434 -49.9061 -49.9014 -49.8641 -49.8039 -49.7888
   -49.7793 -49.7766 -49.7761 -49.7552 -49.6479 -49.6328 -49.5648 -49.5602
   -49.5578 -49.5371 -49.5017 -49.4863 -49.4606 -49.4368 -49.4200 -49.4033
   -23.3160 -21.0363 -20.8348 -20.7372 -20.4870 -20.2558 -20.2532 -20.2288
   -19.9560 -19.8370 -19.6411 -19.5955 -19.4822 -19.3986 -19.3315 -19.2065
   -19.1679 -18.4709 -18.2622 -17.4321 -10.4799 -10.3377  -9.9869  -9.9405
    -9.5989  -9.5728  -9.3108  -9.2344  -9.1536  -8.6342  -8.3830  -8.2921
    -8.2192  -8.0633  -7.9692  -7.9139  -7.7284  -7.7031  -7.6241  -7.5534
    -7.1247  -7.0793  -7.0666  -7.0043  -6.8805  -6.7528  -6.5761  -6.2541
    -6.1850  -5.9599  -5.9296  -5.8612  -5.8303  -5.7238  -5.6454  -5.6218
    -5.5746  -5.4942  -5.4580  -5.3766  -5.2820  -5.2005  -4.6343  -4.5445
    -4.4839  -4.3263  -4.2469  -4.1294  -4.0749  -4.0181  -3.7896  -3.7490
    -3.7046  -3.5948  -3.5846  -3.5518  -3.5113  -3.4494  -3.3477  -3.2803
    -3.2039  -3.1657  -3.1199  -2.9657  -2.9429  -2.8860  -2.8283  -2.7907
    -2.7003  -2.5908  -2.4010  -2.2289  -1.7944  -1.5716  -1.4749  -1.2520
    -0.9543  -0.8822  -0.6313  -0.4546  -0.2346  -0.1268  -0.0138   0.3657
     1.2727   1.3019   1.6469   1.8840   2.2074   2.6793   2.8603   3.3697
     3.4553   3.6094   3.7351   3.7414   3.7745   3.7930   3.8325   3.9225
     4.3140   4.3819   4.5435   5.0532   5.1777   5.7431   5.8917   6.1339
     6.3162   6.4450   6.8709   6.9632   7.0228   7.3698   7.4738   7.6653
     7.6817   7.7288   7.8974   8.0146   8.2143   8.2908   8.3219   8.4661
     8.5843   8.7560   8.7616   8.8662   9.0101   9.1158   9.1480   9.2752
     9.3489   9.3950   9.4237   9.4925   9.5877   9.6431   9.7201   9.8089
     9.8410   9.9364   9.9876  10.0167  10.0391  10.1111  10.1172  10.1244
    10.1267  10.1436  10.1497  10.1735  10.2937  10.3240  10.3257  10.4091
    10.4546  10.5120  10.5309  10.5843  10.7536  10.8226  10.9226  10.9593
    11.0059  11.1425  11.2470  11.3192  11.4120  11.4923  11.6151  11.7026
    11.7339  12.0013  12.0492  12.2029  12.3242  12.4554  12.4797  12.5035
    12.5210  12.6893  12.7079  12.8278  12.9236  13.0253  13.1260  13.1745
    13.1970  13.2887  13.5444  13.5843  13.6001  13.6591  13.7440  13.7549
    13.8136  13.8739  13.9857  14.0557  14.1764  14.2849  14.3285  14.3392
    14.3817  14.4031  14.5572  14.5762  14.6538  14.6980  14.8464  14.9180
    15.0256  15.0419  15.1844  15.2754  15.4793  15.5006  15.5336  15.7474
    15.7905  15.8043  15.8784  15.9706  16.0496  16.1139  16.1813  16.3036
    16.3427  16.3931  16.4763  16.5460  16.6802  16.7494  16.8296  16.8917
    16.9707  17.0403  17.1559  17.2216  17.3216  17.4249  17.4664  17.4875
    17.5371  17.5773  17.7155  17.8034  17.9620  18.0202  18.0584  18.1067
    18.2014  18.2513  18.3199  18.3746  18.4279  18.5688  18.6236  18.7267
    18.7701  18.8130  18.8946  18.9771  19.0391  19.0684  19.1124  19.1511
    19.2214  19.2270  19.3121  19.3804  19.4010  19.4905  19.5023  19.5382
    19.6137  19.6726  19.6904  19.7246  19.7583  19.8816  19.9470  19.9689
    20.0512  20.1594  20.1960  20.2334  20.2388  20.3228  20.3999  20.4999
    20.5381  20.5937  20.6357  20.7329  20.7850  20.8402  20.9092  20.9255
    20.9992  21.0297  21.0454  21.1126  21.1390  21.1723  21.2244  21.3121
    21.3431  21.4070  21.4879  21.5491  21.5867  21.6568  21.7314  21.7830
    21.8289  21.8691  21.9286  22.0093  22.0811  22.1609  22.1877

          k = 0.0000-0.4953 0.0000 ( 31160 PWs)   bands (ev):

   -50.0640 -49.9520 -49.9424 -49.9060 -49.9016 -49.8630 -49.8041 -49.7891
   -49.7794 -49.7768 -49.7756 -49.7555 -49.6457 -49.6311 -49.5689 -49.5591
   -49.5562 -49.5371 -49.5021 -49.4863 -49.4607 -49.4371 -49.4199 -49.4028
   -23.3164 -20.9084 -20.7113 -20.5659 -20.4869 -20.3764 -20.3500 -20.2977
   -19.9434 -19.8454 -19.6533 -19.6328 -19.5113 -19.4635 -19.4374 -19.2121
   -19.1694 -18.4673 -18.2672 -17.4280 -10.2486 -10.1336  -9.9335  -9.7767
    -9.6898  -9.6219  -9.3273  -9.3197  -8.9600  -8.1867  -8.1731  -8.1351
    -8.0750  -7.9817  -7.9515  -7.9330  -7.8657  -7.7142  -7.6788  -7.5625
    -7.1469  -7.1316  -7.0838  -6.9814  -6.9319  -6.7826  -6.7256  -6.3778
    -6.2648  -6.1518  -6.1233  -6.0413  -6.0320  -5.9810  -5.8352  -5.7829
    -5.7030  -5.4681  -5.3150  -5.1948  -5.1630  -5.0728  -4.8837  -4.8556
    -4.5387  -4.4207  -4.3470  -4.2597  -4.2384  -3.8330  -3.7608  -3.7206
    -3.6454  -3.6103  -3.5965  -3.5604  -3.5470  -3.5058  -3.4442  -3.2961
    -3.1499  -3.1400  -3.1084  -3.0011  -2.9052  -2.8593  -2.8140  -2.7029
    -2.6076  -2.3547  -2.3414  -2.1438  -1.6984  -1.4887  -1.4156  -1.2050
    -1.1715  -0.9737  -0.8251  -0.3304  -0.1770  -0.1113  -0.0241   0.4632
     0.8724   0.8883   1.8213   1.9034   2.5901   2.7319   3.2182   3.3534
     3.4905   3.4995   3.7548   3.7664   3.8600   4.1215   4.2360   4.2767
     4.3268   4.5673   4.9760   5.0549   5.2269   5.4215   5.6083   5.8069
     5.9477   6.2707   6.4354   6.8471   6.9499   7.1999   7.2130   7.3301
     7.8107   7.8702   7.9961   8.0697   8.0987   8.2398   8.4724   8.5872
     8.7267   8.8456   8.8942   8.9215   9.0017   9.1148   9.1406   9.1821
     9.2371   9.2915   9.3204   9.3944   9.4935   9.5248   9.5567   9.6054
     9.7087   9.8279   9.9958  10.0408  10.0643  10.0784  10.1115  10.1184
    10.1252  10.1263  10.1489  10.1640  10.1671  10.2449  10.3243  10.3281
    10.4121  10.4260  10.6605  10.6904  10.7474  10.9433  11.1763  11.2774
    11.3085  11.3804  11.5888  11.6098  11.6723  11.7329  11.7371  11.8507
    11.8966  12.0547  12.3520  12.4278  12.4828  12.5227  12.5493  12.6555
    12.7960  12.9208  12.9683  13.0179  13.0634  13.0958  13.1282  13.2148
    13.2686  13.3933  13.4801  13.5133  13.5688  13.6326  13.6816  13.7782
    13.8801  13.9244  14.0721  14.2709  14.2885  14.3624  14.4208  14.5078
    14.6328  14.7446  14.7497  14.8968  14.9149  15.0122  15.1876  15.3331
    15.4549  15.5148  15.5568  15.5815  15.6766  15.6914  15.7658  15.7860
    15.9129  16.0263  16.0734  16.0982  16.1779  16.2070  16.2576  16.3231
    16.3602  16.3738  16.3884  16.4541  16.4742  16.5354  16.5757  16.7161
    16.7683  16.8209  16.8387  16.9090  16.9199  17.0425  17.1036  17.1583
    17.2172  17.2905  17.4719  17.5128  17.6252  17.6385  17.8039  17.8378
    17.8542  17.9262  17.9508  18.0438  18.0687  18.1671  18.2568  18.2842
    18.3380  18.3574  18.4233  18.4464  18.5552  18.5869  18.6400  18.7312
    18.8145  18.8893  18.9396  19.0098  19.1006  19.1524  19.1955  19.2810
    19.3745  19.4465  19.5263  19.6209  19.7152  19.7830  19.8995  19.9581
    19.9649  20.0137  20.0274  20.0404  20.0594  20.0952  20.1500  20.2544
    20.3437  20.4432  20.4550  20.4918  20.5379  20.5925  20.6386  20.6497
    20.7127  20.7220  20.7839  20.8247  20.8710  20.9533  20.9941  21.0538
    21.1062  21.1730  21.2366  21.2889  21.3871  21.4312  21.4748  21.5734
    21.6052  21.6672  21.7231  21.7993  21.8436  21.9380  21.9860

          k = 0.2500 0.0000 0.0000 ( 31106 PWs)   bands (ev):

   -50.0618 -49.9507 -49.9459 -49.9017 -49.8945 -49.8526 -49.8210 -49.7903
   -49.7859 -49.7806 -49.7769 -49.7736 -49.6490 -49.6376 -49.5614 -49.5607
   -49.5482 -49.5373 -49.4994 -49.4888 -49.4779 -49.4346 -49.4234 -49.4041
   -23.3156 -21.0001 -20.8387 -20.6481 -20.4840 -20.1750 -20.1216 -20.0931
   -19.9931 -19.8513 -19.8108 -19.7590 -19.4200 -19.3103 -19.2711 -19.2223
   -19.1862 -18.5589 -18.3641 -17.4369 -10.5843 -10.4730  -9.7930  -9.3620
    -9.2639  -9.2258  -9.1441  -8.8875  -8.8513  -8.7420  -8.7085  -8.6418
    -8.6000  -8.3720  -8.2225  -7.9639  -7.8630  -7.7892  -7.6987  -7.5992
    -7.4654  -7.3271  -7.0790  -6.9818  -6.8824  -6.8158  -6.7478  -6.3242
    -6.1392  -6.0404  -5.9225  -5.8992  -5.8802  -5.7915  -5.7628  -5.6216
    -5.4423  -5.2951  -5.2285  -5.1042  -5.0753  -4.9733  -4.8321  -4.7691
    -4.6123  -4.5548  -4.4801  -4.3786  -4.2637  -4.1569  -4.1222  -3.9741
    -3.9517  -3.7122  -3.5758  -3.5220  -3.4443  -3.3931  -3.3389  -3.3340
    -3.1907  -3.0644  -2.9795  -2.8239  -2.7653  -2.6217  -2.4520  -2.2959
    -2.2056  -2.0841  -1.7891  -1.7233  -1.6966  -1.5953  -1.2976  -1.2245
    -1.1463  -1.0743  -0.7671  -0.7256  -0.5007  -0.2788   0.0877   0.3348
     1.5179   2.0187   2.0479   2.2592   2.2863   2.3362   2.6365   2.8137
     2.9116   3.0445   3.4956   3.5812   3.6177   3.7020   3.7502   3.8491
     4.0346   4.4190   4.5942   5.0945   5.2468   5.6761   5.8688   6.1975
     6.3697   6.4554   6.8548   6.9531   7.2685   7.3376   7.5326   7.7124
     7.8255   7.9215   7.9641   8.0860   8.1998   8.2632   8.3863   8.5997
     8.6885   8.7066   8.7796   8.8829   8.9497   8.9932   9.0962   9.2265
     9.2824   9.4042   9.4961   9.5520   9.5832   9.6268   9.6993   9.8797
     9.9166  10.0252  10.0398  10.0858  10.1104  10.1176  10.1250  10.1270
    10.1440  10.1608  10.1944  10.2890  10.3115  10.3250  10.3325  10.3559
    10.4218  10.5146  10.5548  10.6410  10.7030  10.8387  10.9616  11.0556
    11.1583  11.2186  11.2807  11.3601  11.4144  11.4420  11.5160  11.6015
    11.7593  11.9329  12.0963  12.1284  12.2507  12.2888  12.3163  12.4730
    12.4944  12.5142  12.6058  12.6664  12.7776  12.8559  13.0433  13.0867
    13.2071  13.2984  13.4688  13.5417  13.6768  13.7435  13.7672  13.8095
    13.9052  13.9267  13.9855  14.0247  14.0861  14.1936  14.2321  14.2584
    14.4164  14.5463  14.6005  14.6561  14.6889  14.7447  14.7972  14.9708
    15.0571  15.1550  15.2485  15.3088  15.4662  15.5160  15.5685  15.6413
    15.7343  15.7696  15.8633  15.9074  15.9834  16.0319  16.0661  16.1592
    16.2555  16.2783  16.3044  16.3399  16.5035  16.5719  16.6410  16.7202
    16.8385  16.9028  17.0704  17.1490  17.2592  17.3536  17.4121  17.4951
    17.5858  17.6085  17.6625  17.7651  17.7755  17.8321  18.0109  18.1374
    18.2090  18.3023  18.3920  18.4601  18.5331  18.7122  18.7791  18.8183
    18.8759  18.9406  19.0611  19.0965  19.1110  19.1730  19.2246  19.2534
    19.2818  19.3088  19.3701  19.4115  19.4417  19.5105  19.5376  19.6187
    19.6729  19.7251  19.8128  19.8382  19.9239  19.9961  20.0404  20.1015
    20.1292  20.1687  20.2452  20.3350  20.3859  20.4569  20.4929  20.5762
    20.6037  20.6521  20.7189  20.7938  20.8231  20.8751  20.8969  20.9606
    20.9892  21.0131  21.0960  21.1214  21.1761  21.2097  21.2946  21.3435
    21.4053  21.4253  21.5145  21.5622  21.6059  21.6428  21.7295  21.7834
    21.8127  21.9488  21.9942  22.0275  22.0964  22.1467  22.1883

          k = 0.2500 0.2476 0.0000 ( 31099 PWs)   bands (ev):

   -50.0620 -49.9509 -49.9452 -49.9019 -49.8943 -49.8517 -49.8210 -49.7904
   -49.7851 -49.7807 -49.7770 -49.7741 -49.6467 -49.6356 -49.5645 -49.5609
   -49.5468 -49.5371 -49.4997 -49.4888 -49.4777 -49.4348 -49.4233 -49.4037
   -23.3161 -20.8987 -20.6836 -20.6173 -20.4840 -20.2302 -20.1923 -20.1270
   -20.0094 -19.8512 -19.7238 -19.6791 -19.5137 -19.4776 -19.3823 -19.2505
   -19.1895 -18.5570 -18.3673 -17.4331 -10.1769 -10.0550  -9.7241  -9.6744
    -9.3571  -9.2586  -9.1504  -9.0773  -8.9851  -8.6157  -8.5041  -8.4652
    -8.3929  -8.2573  -8.0800  -7.9403  -7.8365  -7.7527  -7.6721  -7.3614
    -7.2548  -7.1772  -6.9929  -6.9558  -6.8176  -6.7988  -6.6690  -6.5730
    -6.4652  -6.2358  -6.1692  -6.0749  -5.9877  -5.9486  -5.8348  -5.7795
    -5.7236  -5.6736  -5.5412  -5.3578  -5.2573  -5.1909  -5.1027  -4.9579
    -4.7597  -4.5693  -4.4307  -4.3000  -4.1957  -4.1630  -4.0663  -3.9635
    -3.8530  -3.6988  -3.4981  -3.4115  -3.2852  -3.1971  -3.1872  -3.0445
    -2.9708  -2.8558  -2.7966  -2.6586  -2.5877  -2.5698  -2.5010  -2.4024
    -2.2581  -2.2055  -2.1711  -2.0728  -1.7955  -1.4381  -1.2435  -1.2164
    -1.0557  -0.9520  -0.7320  -0.6106  -0.4379  -0.3525  -0.1444   0.4699
     1.5097   1.5289   1.7699   2.0707   2.2743   2.6839   2.7837   3.0106
     3.2215   3.3409   3.4127   3.5284   3.6683   3.8174   3.8588   4.0414
     4.2628   4.4003   4.7802   5.2891   5.4056   5.7987   6.0427   6.0924
     6.2426   6.4300   6.5754   6.6517   6.7595   7.0703   7.1708   7.3475
     7.5536   7.6850   7.8443   7.9119   7.9759   8.1835   8.2573   8.3446
     8.3643   8.4796   8.7698   8.8050   8.8805   9.0813   9.1096   9.1873
     9.2440   9.4442   9.5494   9.6048   9.6726   9.7560   9.8303   9.9707
    10.0335  10.0415  10.1092  10.1163  10.1256  10.1267  10.1333  10.1488
    10.2106  10.3112  10.3237  10.3252  10.3945  10.4482  10.5368  10.5705
    10.6874  10.7297  10.8283  10.9542  11.0258  11.0749  11.1680  11.2146
    11.3013  11.3777  11.4665  11.5689  11.6834  11.7325  11.8256  11.8950
    11.9193  12.0562  12.1217  12.2237  12.3417  12.4866  12.5151  12.5364
    12.6114  12.6926  12.7970  12.8852  12.9640  13.0156  13.0984  13.1873
    13.2310  13.2847  13.4222  13.5541  13.6334  13.6839  13.7403  13.8689
    13.9202  13.9507  14.0552  14.1280  14.1882  14.2889  14.3795  14.4234
    14.4525  14.5289  14.6470  14.7203  14.8570  14.8907  15.0715  15.1313
    15.2108  15.2466  15.3708  15.4127  15.5193  15.6286  15.6667  15.7164
    15.7386  15.8090  15.8330  15.9417  15.9954  16.0594  16.0763  16.1396
    16.2257  16.2668  16.3482  16.3995  16.5089  16.5347  16.5596  16.6497
    16.7015  16.7552  16.7929  16.8523  16.9653  17.0001  17.1662  17.2022
    17.2681  17.3244  17.4033  17.4779  17.5237  17.5878  17.6481  17.7121
    17.7338  17.8149  17.8530  17.8876  17.9469  18.0241  18.0561  18.1160
    18.2216  18.3293  18.3796  18.4855  18.5834  18.7249  18.7544  18.7704
    18.8402  18.8798  18.9813  19.0584  19.1157  19.1818  19.2087  19.3446
    19.4104  19.4509  19.5475  19.6511  19.6953  19.7799  19.8346  19.8727
    19.9506  20.0239  20.0947  20.1474  20.2825  20.3579  20.4706  20.5115
    20.6076  20.6691  20.7407  20.8074  20.8393  20.8822  20.9749  21.0131
    21.1129  21.1541  21.2011  21.2510  21.2966  21.3113  21.3592  21.4724
    21.4950  21.5594  21.6542  21.6825  21.7260  21.8050  21.8597  21.9146
    21.9478  22.0293  22.0970  22.1556  22.2039  22.3040  22.3926

          k = 0.2500-0.4953 0.0000 ( 31088 PWs)   bands (ev):

   -50.0622 -49.9512 -49.9444 -49.9020 -49.8942 -49.8508 -49.8210 -49.7906
   -49.7841 -49.7808 -49.7771 -49.7746 -49.6443 -49.6332 -49.5680 -49.5611
   -49.5456 -49.5369 -49.4999 -49.4888 -49.4776 -49.4351 -49.4233 -49.4032
   -23.3165 -20.7981 -20.5483 -20.4852 -20.4207 -20.2766 -20.2632 -20.1719
   -20.0101 -19.8589 -19.7557 -19.7201 -19.6533 -19.6235 -19.4020 -19.2500
   -19.1926 -18.5552 -18.3709 -17.4292  -9.9105  -9.8591  -9.5689  -9.4893
    -9.4188  -9.3631  -9.1608  -9.0792  -8.9435  -8.3282  -8.1955  -8.1739
    -8.1259  -8.0452  -8.0176  -7.9919  -7.8515  -7.7326  -7.6452  -7.5359
    -7.3073  -7.1881  -7.1464  -7.0439  -6.9742  -6.8122  -6.7702  -6.6883
    -6.6079  -6.5315  -6.4429  -6.3962  -6.2879  -6.1763  -5.9897  -5.8570
    -5.7903  -5.5595  -5.5281  -5.4313  -5.3912  -5.2994  -5.1266  -4.9968
    -4.8462  -4.6866  -4.5611  -4.3125  -4.2173  -3.9944  -3.9248  -3.8333
    -3.7441  -3.5999  -3.5660  -3.3706  -3.2998  -3.1512  -3.1013  -3.0485
    -2.9193  -2.8733  -2.7733  -2.6951  -2.6586  -2.6036  -2.4907  -2.3988
    -2.2256  -2.1515  -1.9860  -1.8716  -1.6442  -1.3740  -1.2575  -1.2054
    -1.1124  -1.0789  -0.8655  -0.4780  -0.4035  -0.2985  -0.2518   0.5706
     1.0949   1.1047   1.8843   2.0859   2.6412   2.6644   2.8221   2.9304
     2.9843   3.3365   3.6852   3.7049   3.8242   3.9746   4.0179   4.1969
     4.3984   4.8462   5.2278   5.2892   5.4601   5.6595   5.7239   5.9953
     6.1911   6.3758   6.4638   6.5764   6.9274   6.9599   7.0803   7.1568
     7.2720   7.3257   7.4335   7.5647   7.7237   7.9503   8.0113   8.2589
     8.3412   8.4247   8.5156   8.6048   8.7375   8.8059   8.9491   9.1687
     9.2512   9.3020   9.5197   9.6544   9.7086   9.8822  10.0282  10.0474
    10.1109  10.1175  10.1250  10.1265  10.1408  10.1567  10.2459  10.2880
    10.3128  10.3235  10.3275  10.4381  10.5782  10.6332  10.6804  10.7652
    10.8057  10.8294  11.0071  11.0770  11.1938  11.2871  11.5005  11.5839
    11.6246  11.7007  11.7362  11.9150  11.9697  12.0156  12.0590  12.1335
    12.2108  12.2831  12.4993  12.5153  12.5930  12.7203  12.7666  12.8068
    12.8659  12.9357  13.0712  13.0793  13.1170  13.2010  13.2454  13.3110
    13.3450  13.4255  13.5293  13.6007  13.6606  13.7744  13.8161  13.8971
    13.9665  14.0184  14.0707  14.2441  14.2902  14.3192  14.3593  14.4261
    14.5358  14.5903  14.6108  14.6691  14.7751  14.8200  14.8817  14.9005
    14.9607  15.0612  15.1191  15.2322  15.2765  15.3229  15.3921  15.4228
    15.5666  15.6641  15.7953  15.8720  15.8854  15.9308  15.9598  16.0794
    16.1789  16.2374  16.3211  16.3449  16.4074  16.4587  16.5136  16.5631
    16.5747  16.6269  16.6700  16.7335  16.7835  16.9052  16.9363  17.0520
    17.0985  17.1563  17.1933  17.2450  17.3743  17.4013  17.4310  17.5306
    17.5393  17.6792  17.8243  17.8777  17.9098  17.9627  18.0011  18.0712
    18.1327  18.1990  18.2227  18.2719  18.3217  18.4639  18.5333  18.6305
    18.6825  18.7318  18.7498  18.7775  18.8475  18.9133  18.9771  19.0480
    19.0894  19.2037  19.2958  19.3214  19.4170  19.4601  19.4922  19.6177
    19.6494  19.7353  19.7734  19.8473  19.8757  19.9096  20.0671  20.1141
    20.2006  20.3788  20.4071  20.4508  20.6421  20.6884  20.7973  20.8314
    20.8598  20.9512  20.9890  21.0072  21.1596  21.2219  21.2676  21.2833
    21.3496  21.4640  21.5510  21.6077  21.7647  21.8285  21.9140  21.9971
    22.0265  22.0806  22.1197  22.1832  22.2083  22.2930  22.3558

          k =-0.5000 0.0000 0.0000 ( 31104 PWs)   bands (ev):

   -50.0600 -49.9493 -49.9483 -49.9022 -49.8629 -49.8592 -49.8195 -49.8169
   -49.7926 -49.7898 -49.7817 -49.7772 -49.6466 -49.6419 -49.5614 -49.5607
   -49.5373 -49.5182 -49.5143 -49.4946 -49.4939 -49.4300 -49.4289 -49.4044
   -23.3157 -20.6770 -20.6423 -20.4966 -20.4622 -20.4080 -20.4035 -20.0850
   -19.8933 -19.8797 -19.5920 -19.5906 -19.5156 -19.4995 -19.3344 -19.2851
   -19.2656 -18.6167 -18.5085 -17.4377  -9.7629  -9.7375  -9.6510  -9.6459
    -9.3014  -9.2146  -9.1231  -8.9163  -8.8643  -8.8187  -8.7188  -8.6086
    -8.5530  -8.3484  -8.2390  -8.0960  -8.0292  -7.9573  -7.8711  -7.4594
    -7.3603  -6.9153  -6.8644  -6.8165  -6.7769  -6.7487  -6.6929  -6.5387
    -6.4588  -6.4045  -6.2925  -6.2856  -6.1575  -6.0289  -5.8616  -5.7728
    -5.6505  -5.5251  -5.4571  -5.4458  -5.3790  -5.3457  -4.9722  -4.9232
    -4.7929  -4.7088  -4.5637  -4.2586  -4.2088  -4.1774  -4.1079  -3.9549
    -3.9268  -3.8018  -3.4813  -3.3205  -3.2731  -3.2446  -3.1868  -3.1522
    -3.0570  -2.9826  -2.7868  -2.7734  -2.6060  -2.2468  -2.2119  -2.0104
    -1.8944  -1.8255  -1.6584  -1.6446  -1.5281  -1.4812  -1.2163  -1.2096
    -1.1544  -1.0317  -0.9019  -0.7724  -0.7051  -0.3678  -0.3188   0.4668
     1.8584   2.2392   2.2486   2.3835   2.5370   2.7682   2.7926   2.8100
     2.8394   2.8437   2.8628   2.8698   3.0918   3.7259   3.8199   3.9643
     4.4482   4.7899   4.8168   4.9241   5.2645   5.3033   5.7248   5.7823
     6.0592   6.2794   6.7243   6.9423   7.0333   7.1409   7.4856   7.6002
     7.6738   7.9535   8.3184   8.3348   8.4171   8.4918   8.5082   8.5517
     8.5915   8.6292   8.8483   8.8904   8.9135   8.9731   9.2400   9.3288
     9.3451   9.4123   9.4282   9.4846   9.5251   9.6122   9.7115   9.8507
     9.8845   9.9061   9.9462  10.0362  10.0420  10.1115  10.1172  10.1262
    10.1271  10.1481  10.1512  10.1853  10.2024  10.3212  10.3237  10.3516
    10.3914  10.4776  10.5299  10.5658  10.8308  10.9784  11.0363  11.0739
    11.2726  11.3128  11.3889  11.6147  11.6798  11.6938  11.8237  11.9161
    12.1022  12.1146  12.2390  12.2866  12.5294  12.5672  12.6165  12.6376
    12.6668  12.7593  12.8343  12.8693  12.9354  13.0084  13.1791  13.2860
    13.3008  13.3714  13.4147  13.4918  13.6017  13.6285  13.7315  13.8314
    13.8712  13.9113  14.0869  14.1917  14.2853  14.3502  14.3710  14.4570
    14.5494  14.6204  14.6474  14.6975  14.7978  14.8980  14.9997  15.0628
    15.0843  15.1586  15.2109  15.2602  15.4372  15.5800  15.5807  15.6865
    15.8236  15.9172  15.9463  16.0498  16.0612  16.1886  16.2616  16.2946
    16.3081  16.3575  16.3732  16.4675  16.5325  16.5633  16.6105  16.6516
    16.6669  16.6926  16.7195  16.7854  16.8094  16.9312  16.9862  17.0722
    17.1586  17.2903  17.3449  17.4005  17.5172  17.5346  17.6243  17.7110
    17.8620  17.9341  18.0088  18.1428  18.1569  18.2026  18.2684  18.4852
    18.5331  18.6214  18.6774  18.7093  18.7441  18.7753  18.9313  18.9783
    19.0576  19.0725  19.1146  19.1484  19.2390  19.3378  19.3843  19.4346
    19.6761  19.6974  19.7452  19.7864  19.8140  19.8308  19.8343  19.8640
    19.9662  20.0316  20.0617  20.1851  20.2109  20.2173  20.2847  20.3377
    20.3500  20.3945  20.4337  20.4600  20.5259  20.5725  20.6400  20.7172
    20.8032  20.9025  21.0274  21.0537  21.0871  21.1438  21.2007  21.2258
    21.2599  21.2966  21.3988  21.4102  21.5269  21.5496  21.5894  21.6400
    21.6531  21.6835  21.7658  21.8365  21.9007  21.9842  22.1041

          k =-0.5000 0.2476 0.0000 ( 31120 PWs)   bands (ev):

   -50.0601 -49.9492 -49.9480 -49.9023 -49.8628 -49.8591 -49.8185 -49.8164
   -49.7927 -49.7900 -49.7818 -49.7773 -49.6441 -49.6394 -49.5635 -49.5626
   -49.5370 -49.5174 -49.5136 -49.4947 -49.4941 -49.4301 -49.4290 -49.4040
   -23.3162 -20.6302 -20.6001 -20.3853 -20.3726 -20.3286 -20.3227 -20.0918
   -19.9003 -19.8962 -19.7217 -19.7113 -19.6639 -19.6602 -19.3184 -19.2841
   -19.2702 -18.6196 -18.5081 -17.4340  -9.4662  -9.4023  -9.3455  -9.3179
    -9.1565  -9.1299  -9.0530  -8.9325  -8.8731  -8.7952  -8.7255  -8.6307
    -8.5929  -8.3807  -8.2974  -8.1721  -8.1231  -7.8068  -7.7033  -7.3664
    -7.3033  -7.1174  -7.1004  -7.0660  -7.0450  -6.7572  -6.6585  -6.5836
    -6.5013  -6.4484  -6.3378  -6.2922  -6.1885  -6.0827  -6.0208  -5.8505
    -5.7368  -5.6765  -5.5453  -5.4986  -5.4680  -5.4256  -5.3862  -5.1598
    -4.9588  -4.7322  -4.5865  -4.5292  -4.5044  -4.2235  -4.1761  -3.9995
    -3.8751  -3.7881  -3.5351  -3.2117  -3.1331  -3.0743  -2.8330  -2.7536
    -2.6550  -2.6281  -2.5800  -2.5611  -2.5002  -2.4135  -2.3101  -2.1541
    -2.0429  -1.9515  -1.6863  -1.5030  -1.4984  -1.4324  -1.3095  -1.1912
    -1.0441  -0.9420  -0.9146  -0.8167  -0.7430  -0.4776  -0.4516   0.5731
     1.9314   2.1170   2.1528   2.1568   2.2532   2.3996   2.5406   2.6186
     2.7724   3.1060   3.1412   3.3878   3.4370   3.6915   3.9252   4.1400
     4.5440   5.0153   5.0268   5.1123   5.4789   5.4996   5.9015   5.9754
     6.2484   6.4557   6.6835   6.7275   6.7899   6.9108   7.0376   7.2511
     7.2689   7.3763   7.3867   7.4791   7.8055   7.8903   8.0796   8.3296
     8.3559   8.5451   8.5838   8.6827   8.8480   8.8948   9.0355   9.1177
     9.3787   9.5069   9.5811   9.8117   9.8995  10.0221  10.0383  10.0764
    10.1065  10.1115  10.1175  10.1255  10.1275  10.1479  10.1669  10.2717
    10.3221  10.3234  10.3462  10.3734  10.4834  10.5062  10.5979  10.7729
    10.8567  10.9522  11.0411  11.0642  11.1389  11.1632  11.3821  11.4638
    11.5053  11.5236  11.7497  11.8288  11.9568  11.9943  12.0341  12.1367
    12.3515  12.3717  12.4650  12.4837  12.5742  12.6120  12.6963  12.7723
    12.8558  12.8933  12.9690  13.0674  13.2038  13.2466  13.3405  13.4090
    13.4499  13.4671  13.5545  13.6583  13.7652  13.7990  13.9000  13.9318
    14.0728  14.0977  14.1955  14.2835  14.3465  14.3621  14.4428  14.4813
    14.5184  14.5531  14.6170  14.6989  14.7266  14.7438  14.8127  14.8301
    14.9073  14.9369  15.0199  15.0521  15.1002  15.1384  15.1906  15.2540
    15.3453  15.4868  15.5782  15.6165  15.6754  15.7332  15.8276  15.8461
    15.9445  16.1020  16.1842  16.2358  16.3344  16.3762  16.4030  16.4321
    16.6422  16.6502  16.6835  16.7294  16.7496  16.8093  16.9043  16.9522
    17.1262  17.1687  17.2673  17.2849  17.3811  17.4412  17.4737  17.5685
    17.6400  17.6872  17.8152  17.8949  17.9605  18.0001  18.1030  18.1315
    18.1476  18.2623  18.2969  18.3902  18.4409  18.5154  18.5810  18.6180
    18.6667  18.7247  18.7863  18.7980  18.8462  18.9503  19.0535  19.1696
    19.2931  19.3560  19.4007  19.4564  19.5973  19.6367  19.6965  19.7384
    19.7999  19.8194  19.9403  19.9734  20.0109  20.0644  20.1503  20.1878
    20.3314  20.3681  20.4632  20.5346  20.5866  20.7390  20.8239  20.8739
    20.9274  21.0346  21.0788  21.0940  21.1742  21.2660  21.3017  21.4506
    21.6100  21.6481  21.7125  21.7316  21.8635  21.8977  21.9684  22.0195
    22.0494  22.0924  22.2309  22.2870  22.3095  22.3498  22.4034

          k =-0.5000-0.4953 0.0000 ( 31140 PWs)   bands (ev):

   -50.0601 -49.9493 -49.9476 -49.9024 -49.8627 -49.8590 -49.8174 -49.8159
   -49.7927 -49.7902 -49.7820 -49.7775 -49.6416 -49.6367 -49.5655 -49.5647
   -49.5367 -49.5168 -49.5129 -49.4949 -49.4942 -49.4303 -49.4291 -49.4037
   -23.3166 -20.5895 -20.5683 -20.2118 -20.1776 -20.1746 -20.0879 -20.0591
   -20.0242 -20.0003 -19.9886 -19.9105 -19.8172 -19.8033 -19.2938 -19.2898
   -19.2848 -18.6225 -18.5077 -17.4303  -9.4232  -9.3483  -9.0475  -9.0007
    -8.9601  -8.9369  -8.8757  -8.8415  -8.7303  -8.4733  -8.4284  -8.2504
    -8.2297  -8.1995  -8.1525  -8.1331  -8.1181  -8.0010  -7.9839  -7.9637
    -7.8369  -7.6565  -7.5379  -7.0299  -6.9285  -6.8900  -6.8095  -6.6515
    -6.6183  -6.4066  -6.3847  -6.2866  -6.2113  -6.1183  -6.0546  -6.0117
    -5.9351  -5.8856  -5.8798  -5.7452  -5.7012  -5.6526  -5.4397  -5.0184
    -4.9217  -4.7273  -4.5730  -4.4975  -4.4563  -4.2827  -4.1135  -3.9387
    -3.8648  -3.6809  -3.3845  -3.1743  -3.0063  -2.9749  -2.8670  -2.8446
    -2.7328  -2.5394  -2.5112  -2.4283  -2.3113  -2.2661  -2.1845  -2.1724
    -2.0868  -2.0287  -1.6510  -1.4445  -1.4265  -1.2886  -1.2184  -1.2096
    -1.1098  -0.9129  -0.8546  -0.7192  -0.6942  -0.6321  -0.6103   0.6601
     1.7510   1.7603   1.7866   1.8258   2.0997   2.4307   2.6292   2.6605
     2.8188   3.3018   3.3347   3.5428   3.6759   3.9444   4.0296   4.0448
     4.6742   5.4761   5.4824   5.4920   5.9021   5.9078   5.9582   5.9800
     6.0759   6.1612   6.3352   6.3578   6.4507   6.6723   6.7965   6.9078
     6.9236   7.1903   7.2694   7.4481   7.5637   7.8037   7.8396   7.9921
     8.0233   8.0380   8.1706   8.3565   8.7544   8.9857   8.9963   9.1123
     9.2221   9.2979   9.4493   9.4749   9.8432   9.8733  10.0153  10.0424
    10.1101  10.1167  10.1256  10.1268  10.1471  10.3209  10.3236  10.3408
    10.3566  10.3877  10.6421  10.6560  10.8445  10.9217  10.9484  11.0070
    11.1509  11.2208  11.3912  11.4034  11.5947  11.6818  11.7853  11.9676
    12.0910  12.4009  12.4327  12.4949  12.5738  12.5993  12.6692  12.7123
    12.8233  12.8663  12.9044  12.9222  13.0432  13.1634  13.2153  13.2569
    13.2776  13.3558  13.3640  13.4081  13.4246  13.4317  13.4576  13.4735
    13.5061  13.5410  13.6073  13.6276  13.6737  13.7549  13.8046  13.8066
    13.8274  13.9108  13.9474  13.9788  13.9994  14.0426  14.0744  14.1678
    14.1983  14.2237  14.2578  14.2853  14.4056  14.5113  14.5235  14.5379
    14.5811  14.6324  14.7290  14.8169  14.8773  15.0788  15.1121  15.1232
    15.1968  15.2749  15.3217  15.3497  15.3964  15.4253  15.4324  15.5289
    15.5728  15.5897  15.8139  15.8376  15.9259  15.9587  16.0042  16.1243
    16.1674  16.2574  16.3573  16.4552  16.5721  16.6156  16.6768  16.6994
    16.7573  16.7882  16.9330  16.9861  17.0317  17.0790  17.1320  17.1701
    17.2383  17.3483  17.5433  17.5552  17.6571  17.7123  17.8245  17.8983
    18.0718  18.1712  18.3282  18.3511  18.4090  18.5811  18.5962  18.6719
    18.7158  18.8635  18.8809  18.9454  19.0217  19.1318  19.2408  19.2848
    19.3800  19.4032  19.4466  19.5386  19.6248  19.8999  19.9245  20.0093
    20.1279  20.2153  20.2352  20.3601  20.3956  20.4812  20.4879  20.5744
    20.7183  20.7476  20.7701  20.7880  20.8854  20.9109  20.9530  21.0203
    21.0356  21.1137  21.1286  21.1574  21.2115  21.2347  21.2636  21.3328
    21.4675  21.5258  21.5375  21.5890  21.6208  21.6523  21.6988  21.7391
    21.8377  21.8695  21.9261  21.9676  22.0017  22.0273  22.1188

          k =-0.2500 0.2476 0.0000 ( 31099 PWs)   bands (ev):

   -50.0620 -49.9509 -49.9451 -49.9019 -49.8943 -49.8517 -49.8211 -49.7904
   -49.7851 -49.7807 -49.7770 -49.7740 -49.6468 -49.6352 -49.5643 -49.5613
   -49.5468 -49.5371 -49.4997 -49.4888 -49.4777 -49.4348 -49.4233 -49.4037
   -23.3161 -20.8988 -20.6836 -20.6169 -20.4836 -20.2302 -20.1930 -20.1264
   -20.0100 -19.8554 -19.7187 -19.6795 -19.5144 -19.4755 -19.3848 -19.2502
   -19.1892 -18.5571 -18.3673 -17.4331 -10.1751 -10.0547  -9.7275  -9.6788
    -9.3272  -9.2826  -9.1539  -9.0790  -8.9736  -8.6307  -8.5067  -8.4632
    -8.3976  -8.2613  -8.0768  -7.9360  -7.8400  -7.7462  -7.6733  -7.3676
    -7.2488  -7.1096  -7.0226  -6.9041  -6.8703  -6.7750  -6.7070  -6.6138
    -6.4450  -6.2790  -6.1529  -6.0528  -5.9848  -5.9242  -5.8185  -5.7657
    -5.7176  -5.6766  -5.5555  -5.3712  -5.2687  -5.2020  -5.1072  -4.9431
    -4.7910  -4.5965  -4.4267  -4.3166  -4.2253  -4.1757  -4.0021  -3.9431
    -3.8224  -3.7109  -3.4768  -3.3911  -3.2845  -3.2115  -3.1582  -3.0455
    -2.9750  -2.8339  -2.8067  -2.6408  -2.6271  -2.5581  -2.5405  -2.4680
    -2.2657  -2.2384  -2.1604  -2.0197  -1.7422  -1.4532  -1.2417  -1.2139
    -1.0354  -0.9926  -0.7490  -0.5971  -0.4210  -0.3543  -0.1495   0.4697
     1.5088   1.5286   1.7699   2.0702   2.2771   2.6860   2.7826   3.0122
     3.2108   3.3462   3.4165   3.5342   3.6676   3.8140   3.8524   4.0426
     4.2590   4.4032   4.7799   5.2906   5.4052   5.8033   6.0630   6.1138
     6.2421   6.4220   6.5790   6.6547   6.7571   7.0548   7.1744   7.3146
     7.5208   7.6874   7.8449   7.9106   7.9673   8.1740   8.2717   8.3578
     8.3717   8.4821   8.7450   8.8046   8.8915   9.0855   9.1281   9.1873
     9.2265   9.4243   9.5591   9.6190   9.6771   9.7726   9.8455   9.9638
    10.0322  10.0390  10.1093  10.1163  10.1254  10.1270  10.1358  10.1492
    10.2152  10.3186  10.3240  10.3308  10.3878  10.4626  10.5234  10.5765
    10.6699  10.7189  10.8321  10.9536  10.9877  11.0524  11.1705  11.2177
    11.3111  11.3798  11.4643  11.5758  11.7081  11.7510  11.7996  11.9078
    11.9257  12.0772  12.1326  12.2217  12.3471  12.4918  12.5257  12.5433
    12.6005  12.6890  12.8006  12.8969  12.9587  13.0197  13.0947  13.2001
    13.2517  13.2983  13.3870  13.5338  13.6289  13.7169  13.7570  13.8740
    13.9217  13.9706  14.0578  14.1415  14.1873  14.2603  14.3363  14.4219
    14.4596  14.5440  14.6490  14.7461  14.8406  14.8923  15.0697  15.1080
    15.1495  15.2353  15.3839  15.4028  15.5397  15.6173  15.6632  15.6914
    15.7280  15.7933  15.8416  15.9352  15.9694  16.0363  16.0723  16.0954
    16.2186  16.2766  16.3511  16.4023  16.4837  16.5333  16.5589  16.6296
    16.7171  16.7563  16.7894  16.8547  16.9463  16.9940  17.1758  17.2425
    17.2992  17.3277  17.4007  17.4527  17.5137  17.5927  17.6417  17.6899
    17.7275  17.8334  17.8561  17.8844  17.9211  18.0148  18.0631  18.1504
    18.2332  18.3212  18.3905  18.5053  18.6052  18.6950  18.7696  18.7898
    18.8246  18.8790  19.0425  19.0530  19.1259  19.2182  19.2610  19.3718
    19.3893  19.4607  19.5611  19.6399  19.6913  19.7648  19.8189  19.8531
    19.9562  20.0035  20.1443  20.2418  20.2967  20.3681  20.4560  20.5304
    20.6203  20.6754  20.7455  20.7934  20.8067  20.8841  20.9291  21.0481
    21.1201  21.1378  21.1929  21.2519  21.2858  21.3227  21.3516  21.4336
    21.5103  21.5687  21.6681  21.6803  21.7291  21.8454  21.8532  21.9189
    21.9852  22.0133  22.0828  22.1400  22.2194  22.3073  22.3999

     the Fermi energy is    -0.8191 ev

!    total energy              =   -2137.16211386 Ry
     Harris-Foulkes estimate   =   -2137.16211435 Ry
     estimated scf accuracy    <       0.00000056 Ry

     The total energy is the sum of the following terms:

     one-electron contribution =  -23091.64581108 Ry
     hartree contribution      =   11597.98111503 Ry
     xc contribution           =    -584.16260697 Ry
     ewald contribution        =    9938.47202558 Ry
     Hubbard energy            =       2.19300762 Ry
     smearing contrib. (-TS)   =       0.00015596 Ry

     convergence has been achieved in  31 iterations

     Forces acting on atoms (Ry/au):


     negative rho (up, down):  0.314E+01 0.000E+00
     atom    1 type  1   force =    -0.00807289   -0.01285675    0.00676506
     atom    2 type  1   force =     0.00020061    0.00807040    0.00370621
     atom    3 type  2   force =     0.03272661    0.00544199   -0.00813191
     atom    4 type  2   force =     0.00851015    0.00732138   -0.00437834
     atom    5 type  1   force =    -0.00456905   -0.02045359    0.00141369
     atom    6 type  1   force =     0.00552156    0.02000715    0.00048018
     atom    7 type  1   force =    -0.00046404   -0.00409738    0.01939568
     atom    8 type  1   force =    -0.00299947    0.00055334    0.00389240
     atom    9 type  2   force =     0.00529149    0.00082513   -0.00929548
     atom   10 type  2   force =    -0.00017047    0.00014518   -0.00494241
     atom   11 type  1   force =    -0.00231441    0.02121376   -0.00263863
     atom   12 type  1   force =     0.00426399   -0.01590117   -0.00213408
     atom   13 type  1   force =    -0.00085122   -0.00289328   -0.00034677
     atom   14 type  1   force =    -0.00785070   -0.01296202    0.00615587
     atom   15 type  1   force =     0.00021104    0.00792902    0.00288653
     atom   16 type  2   force =    -0.03235663    0.00541673   -0.00823108
     atom   17 type  2   force =     0.00859273    0.00782346   -0.00713551
     atom   18 type  1   force =    -0.00362412   -0.02118713    0.00148108
     atom   19 type  1   force =     0.00620441    0.01946131    0.00049066
     atom   20 type  1   force =    -0.00036063   -0.00737244    0.00835157
     atom   21 type  1   force =    -0.00313562    0.00133444    0.00433868
     atom   22 type  2   force =    -0.00302686    0.00015861   -0.00896944
     atom   23 type  2   force =    -0.00016633    0.00588854   -0.01048182
     atom   24 type  1   force =     0.00216843    0.02121358   -0.00267549
     atom   25 type  1   force =    -0.00367192   -0.01594305   -0.00215931
     atom   26 type  1   force =    -0.00083438   -0.00999878    0.00438422
     atom   27 type  3   force =    -0.00013726   -0.00400339    0.00229886
     atom   28 type  3   force =    -0.00011925   -0.00413073    0.00309991
     atom   29 type  3   force =     0.00049736    0.00043809    0.00050438
     atom   30 type  3   force =     0.00055138    0.00061614    0.00057867
     atom   31 type  1   force =    -0.00018279   -0.01633630    0.01041181
     atom   32 type  1   force =     0.00015486    0.01369710   -0.00994145
     atom   33 type  3   force =     0.00001344    0.00058065    0.00082626

     Total force =     0.043019     Total SCF correction =     0.001703


     entering subroutine stress ...


     negative rho (up, down):  0.314E+01 0.000E+00
          total   stress  (Ry/bohr**3)                   (kbar)     P=  -18.04
  -0.00013758   0.00000799   0.00000408        -20.24      1.18      0.60
   0.00000799  -0.00015170   0.00000781          1.18    -22.32      1.15
   0.00000408   0.00000781  -0.00007865          0.60      1.15    -11.57


     BFGS Geometry Optimization

     number of scf cycles    =   1
     number of bfgs steps    =   0

     energy   new            =   -2137.1621138618 Ry

     new trust radius        =       0.0193956829 bohr
     new conv_thr            =       0.0000010000 Ry


ATOMIC_POSITIONS (crystal)
O0       0.000000000   0.000000000   0.377945498    0   0   1
O0       0.000000000   0.500000000   0.402144232    0   0   1
Ir1      0.250000000   0.500000000   0.452537126    0   0   1
Ir1      0.000000000   0.000000000   0.452652306    0   0   1
O0       0.250000000   0.810000000   0.452628315    0   0   1
O0       0.250000000   0.190000000   0.452269618    0   0   1
O0       0.000000000   0.500000000   0.498578476    0   0   1
O0       0.000000000   0.000000000   0.528427961    0   0   1
Ir1      0.250000000   0.000000000   0.575163821    0   0   1
Ir1      0.000000000   0.500000000   0.571441008    0   0   1
O0       0.250000000   0.690000000   0.574227151    0   0   1
O0       0.250000000   0.310000000   0.576477257    0   0   1
O0       0.000000000   0.000000000   0.619953054    0   0   1
O0       0.500000000   0.000000000   0.377933296    0   0   1
O0       0.500000000   0.500000000   0.402167814    0   0   1
Ir1      0.750000000   0.500000000   0.452535140    0   0   1
Ir1      0.500000000   0.000000000   0.452547083    0   0   1
O0       0.750000000   0.810000000   0.452619665    0   0   1
O0       0.750000000   0.190000000   0.452289827    0   0   1
O0       0.500000000   0.500000000   0.499897274    0   0   1
O0       0.500000000   0.000000000   0.528356899    0   0   1
Ir1      0.750000000   0.000000000   0.575160351    0   0   1
Ir1      0.500000000   0.500000000   0.577490059    0   0   1
O0       0.750000000   0.690000000   0.574226412    0   0   1
O0       0.750000000   0.310000000   0.576476751    0   0   1
O0       0.500000000   0.000000000   0.619427812    0   0   1
H2       0.000028580   0.635650043   0.384176044
H2       0.499930078   0.636099547   0.384382088
H2       0.143251383   0.035706107   0.366330102
H2       0.643715877   0.033700782   0.366291590
O0       0.499774791   0.536763569   0.650008538
O0       0.500192885   0.345928909   0.679220883
H2       0.499981118   0.407617857   0.713586549


     Check: negative starting charge=   -3.336869
     NEW-OLD atomic charge density approx. for the potential

     Check: negative/imaginary core charge=   -0.000003    0.000000
     Check: negative starting charge=   -3.336559

     negative rho (up, down):  0.314E+01 0.000E+00
 Atomic wfc used for LDA+U Projector are NOT orthogonalized

     total cpu time spent up to now is     9235.6 secs

     per-process dynamical memory:   463.4 Mb

     Self-consistent Calculation

     iteration #  1     ecut=    40.00 Ry     beta=0.70
     Davidson diagonalization with overlap
     ethr =  1.00E-06,  avg # of iterations =  3.0
 --- enter write_ns ---
 LDA+U parameters:
U( 2)     =  6.00000000
alpha( 2) =  0.00000000
atom    3   Tr[ns(na)] =   8.20610
    eigenvalues: 
  0.606  0.633  0.906  0.974  0.984
    eigenvectors:
  0.005  0.179  0.003  0.001  0.813
  0.976  0.024  0.000  0.000  0.000
  0.000  0.000  0.990  0.007  0.003
  0.019  0.797  0.000  0.000  0.183
  0.000  0.000  0.007  0.992  0.001
    occupations:
  0.919 -0.004  0.003 -0.136 -0.001
 -0.004  0.607 -0.001 -0.003 -0.005
  0.003 -0.001  0.907 -0.004  0.005
 -0.136 -0.003 -0.004  0.697 -0.000
 -0.001 -0.005  0.005 -0.000  0.973
atom    4   Tr[ns(na)] =   8.20825
    eigenvalues: 
  0.619  0.669  0.894  0.937  0.986
    eigenvectors:
  0.000  0.989  0.000  0.000  0.011
  0.000  0.000  0.082  0.918  0.000
  0.000  0.000  0.918  0.082  0.000
  0.000  0.011  0.000  0.000  0.989
  1.000  0.000  0.000  0.000  0.000
    occupations:
  0.673 -0.003 -0.001  0.032  0.001
 -0.003  0.933  0.012  0.000 -0.001
 -0.001  0.012  0.897 -0.000  0.001
  0.032  0.000 -0.000  0.983  0.000
  0.001 -0.001  0.001  0.000  0.619
atom    9   Tr[ns(na)] =   8.19242
    eigenvalues: 
  0.655  0.671  0.873  0.913  0.985
    eigenvectors:
  0.000  0.140  0.001  0.000  0.859
  0.998  0.002  0.000  0.000  0.000
  0.000  0.000  0.991  0.008  0.000
  0.001  0.858  0.000  0.000  0.140
  0.000  0.000  0.008  0.992  0.000
    occupations:
  0.941 -0.001  0.000 -0.109 -0.001
 -0.001  0.655  0.000  0.001 -0.000
  0.000  0.000  0.873 -0.004 -0.004
 -0.109  0.001 -0.004  0.715  0.001
 -0.001 -0.000 -0.004  0.001  0.912
atom   10   Tr[ns(na)] =   8.14699
    eigenvalues: 
  0.574  0.611  0.948  0.954  0.986
    eigenvectors:
  0.991  0.000  0.000  0.000  0.009
  0.000  0.001  0.998  0.001  0.000
  0.000  0.000  0.001  0.998  0.000
  0.009  0.000  0.000  0.000  0.991
  0.000  0.999  0.001  0.000  0.000
    occupations:
  0.578  0.000  0.007  0.039 -0.000
  0.000  0.948 -0.000  0.000 -0.009
  0.007 -0.000  0.954 -0.000 -0.000
  0.039  0.000 -0.000  0.982 -0.000
 -0.000 -0.009 -0.000 -0.000  0.611
atom   16   Tr[ns(na)] =   8.20696
    eigenvalues: 
  0.607  0.633  0.906  0.974  0.984
    eigenvectors:
  0.005  0.179  0.003  0.001  0.812
  0.977  0.023  0.000  0.000  0.000
  0.000  0.000  0.993  0.004  0.003
  0.018  0.798  0.000  0.000  0.183
  0.000  0.000  0.004  0.995  0.001
    occupations:
  0.919  0.003  0.003 -0.136  0.001
  0.003  0.607 -0.000  0.003 -0.005
  0.003 -0.000  0.907 -0.004 -0.004
 -0.136  0.003 -0.004  0.697 -0.000
  0.001 -0.005 -0.004 -0.000  0.973
atom   17   Tr[ns(na)] =   8.20594
    eigenvalues: 
  0.619  0.670  0.893  0.935  0.986
    eigenvectors:
  0.000  0.989  0.000  0.000  0.011
  0.000  0.000  0.065  0.934  0.000
  0.000  0.000  0.935  0.065  0.000
  0.000  0.011  0.000  0.000  0.989
  1.000  0.000  0.000  0.000  0.000
    occupations:
  0.673 -0.003 -0.001  0.032  0.001
 -0.003  0.933  0.010  0.000 -0.001
 -0.001  0.010  0.896 -0.000  0.001
  0.032  0.000 -0.000  0.983  0.000
  0.001 -0.001  0.001  0.000  0.619
atom   22   Tr[ns(na)] =   8.19348
    eigenvalues: 
  0.655  0.671  0.873  0.913  0.985
    eigenvectors:
  0.000  0.140  0.000  0.000  0.860
  1.000  0.000  0.000  0.000  0.000
  0.000  0.000  0.992  0.007  0.000
  0.000  0.860  0.000  0.000  0.140
  0.000  0.000  0.007  0.993  0.000
    occupations:
  0.941  0.002  0.000 -0.109  0.000
  0.002  0.655  0.001 -0.001 -0.000
  0.000  0.001  0.873 -0.004  0.003
[...]
    16.3046  16.3436  16.3727  16.4722  16.5373  16.5559  16.6096  16.6457
    16.6681  16.6926  16.7157  16.7805  16.8104  16.9377  16.9953  17.0834
    17.1436  17.2865  17.3418  17.3974  17.5275  17.5673  17.6267  17.7069
    17.8689  17.9445  18.0010  18.1336  18.1521  18.1964  18.2645  18.4777
    18.5298  18.6060  18.6703  18.7132  18.7480  18.7802  18.9346  18.9851
    19.0434  19.0578  19.1198  19.1539  19.2488  19.3342  19.3779  19.4275
    19.6680  19.6915  19.7360  19.7780  19.8093  19.8319  19.8427  19.8702
    19.9675  20.0267  20.0560  20.1857  20.2049  20.2114  20.2841  20.3357
    20.3523  20.3956  20.4350  20.4664  20.5313  20.5680  20.6456  20.7222
    20.8039  20.8970  21.0445  21.0613  21.0884  21.1444  21.2087  21.2281
    21.2726  21.2996  21.4109  21.4220  21.5376  21.5550  21.5939  21.6557
    21.6627  21.7409  21.7817  21.8637  21.9325  21.9939  22.1152

          k =-0.5000 0.2476 0.0000 ( 31120 PWs)   bands (ev):

   -50.0228 -49.9034 -49.9025 -49.8684 -49.8259 -49.8255 -49.7761 -49.7744
   -49.7625 -49.7595 -49.7580 -49.7572 -49.6098 -49.6091 -49.5202 -49.5193
   -49.5001 -49.4787 -49.4760 -49.4470 -49.4469 -49.3915 -49.3909 -49.3761
   -23.5811 -20.6473 -20.6188 -20.3597 -20.3545 -20.2960 -20.2897 -20.0574
   -19.9145 -19.9006 -19.6892 -19.6768 -19.6242 -19.6220 -19.3469 -19.2905
   -19.2840 -18.5446 -18.4557 -17.3356  -9.4675  -9.3916  -9.3113  -9.2905
    -9.1736  -9.1381  -9.0674  -8.9241  -8.8808  -8.7921  -8.7154  -8.6116
    -8.5967  -8.3727  -8.2871  -8.1841  -8.1273  -7.8283  -7.7126  -7.3691
    -7.3027  -7.0899  -7.0712  -7.0377  -7.0168  -6.7653  -6.6663  -6.5683
    -6.5040  -6.4450  -6.3086  -6.2549  -6.1837  -6.0889  -6.0110  -5.8241
    -5.7158  -5.6528  -5.5215  -5.4681  -5.4383  -5.4035  -5.3614  -5.1275
    -4.9456  -4.7045  -4.5781  -4.5127  -4.4858  -4.2090  -4.1681  -3.9601
    -3.8287  -3.7302  -3.5087  -3.1729  -3.0950  -3.0324  -2.8091  -2.7245
    -2.6001  -2.5917  -2.5430  -2.5223  -2.4697  -2.3868  -2.2842  -2.1349
    -2.0036  -1.9151  -1.6356  -1.4576  -1.4526  -1.3912  -1.2738  -1.1635
    -1.0043  -0.9010  -0.8650  -0.7764  -0.7002  -0.4279  -0.4018   0.6544
     2.0000   2.1598   2.1956   2.2050   2.2866   2.4626   2.6107   2.6922
     2.8592   3.1636   3.2634   3.4743   3.4859   3.8342   3.9807   4.1989
     4.5896   5.0121   5.0322   5.1064   5.4678   5.4954   5.8953   5.9661
     6.2567   6.4574   6.6754   6.7346   6.7957   6.9121   7.0320   7.2617
     7.2915   7.3793   7.3890   7.4824   7.8036   7.8831   8.0888   8.3346
     8.3615   8.5692   8.6035   8.7047   8.8765   8.9173   9.0465   9.1174
     9.3830   9.5178   9.6020   9.8393   9.9181  10.0378  10.0744  10.1056
    10.1262  10.1503  10.1533  10.1712  10.1760  10.1831  10.1936  10.2833
    10.3587  10.3641  10.3691  10.3945  10.4990  10.5261  10.6153  10.7838
    10.8710  10.9723  11.0511  11.0803  11.1670  11.1932  11.3895  11.4677
    11.5171  11.5388  11.7448  11.8514  11.9660  12.0024  12.0356  12.1511
    12.3612  12.3771  12.4712  12.4992  12.5879  12.6205  12.7114  12.7780
    12.8564  12.8976  12.9751  13.0717  13.2155  13.2513  13.3360  13.4110
    13.4483  13.4720  13.5630  13.6615  13.7767  13.8144  13.9276  13.9818
    14.0915  14.1111  14.2134  14.3048  14.3492  14.3843  14.4565  14.5050
    14.5239  14.5692  14.6283  14.7071  14.7325  14.7571  14.8290  14.8531
    14.9383  14.9691  15.0322  15.0609  15.1103  15.1589  15.2025  15.2692
    15.3430  15.4751  15.5873  15.6167  15.6694  15.7264  15.8317  15.8447
    15.9390  16.1028  16.1859  16.2312  16.3395  16.3758  16.4003  16.4265
    16.6354  16.6472  16.6820  16.7274  16.7490  16.8127  16.8982  16.9447
    17.1347  17.1644  17.2683  17.2872  17.3831  17.4424  17.4761  17.5672
    17.6324  17.6939  17.8158  17.8959  17.9602  18.0033  18.0963  18.1219
    18.1434  18.2605  18.2976  18.4052  18.4562  18.5171  18.5856  18.6199
    18.6709  18.7249  18.7791  18.8021  18.8513  18.9489  19.0472  19.1647
    19.2879  19.3530  19.4003  19.4460  19.6111  19.6447  19.6953  19.7427
    19.7931  19.8210  19.9368  19.9687  20.0214  20.0567  20.1502  20.2011
    20.3286  20.3702  20.4610  20.5419  20.5981  20.7644  20.8395  20.8697
    20.9215  21.0376  21.0810  21.0919  21.1757  21.2758  21.3091  21.4483
    21.6138  21.6447  21.7174  21.7501  21.8579  21.9299  21.9848  22.0337
    22.0650  22.1094  22.2315  22.2936  22.3356  22.3670  22.4248

          k =-0.5000-0.4953 0.0000 ( 31140 PWs)   bands (ev):

   -50.0228 -49.9035 -49.9021 -49.8685 -49.8258 -49.8255 -49.7748 -49.7739
   -49.7626 -49.7595 -49.7586 -49.7574 -49.6074 -49.6067 -49.5219 -49.5211
   -49.4998 -49.4781 -49.4753 -49.4472 -49.4470 -49.3916 -49.3910 -49.3757
   -23.5815 -20.6179 -20.5949 -20.1883 -20.1618 -20.1560 -20.0513 -20.0182
   -19.9879 -19.9618 -19.9526 -19.8691 -19.8206 -19.7985 -19.3309 -19.2953
   -19.2914 -18.5469 -18.4551 -17.3321  -9.4388  -9.3589  -9.1108  -8.9808
    -8.9480  -8.9081  -8.8953  -8.8286  -8.7423  -8.4713  -8.4294  -8.2405
    -8.2231  -8.1781  -8.1243  -8.0984  -8.0872  -7.9835  -7.9559  -7.9332
    -7.8182  -7.6803  -7.5475  -7.0276  -6.9334  -6.8789  -6.8272  -6.6555
    -6.6148  -6.4198  -6.3579  -6.2659  -6.1944  -6.0754  -6.0289  -5.9883
    -5.9037  -5.8540  -5.8493  -5.7354  -5.6884  -5.6331  -5.4626  -4.9894
    -4.9026  -4.6763  -4.5606  -4.4585  -4.4478  -4.2602  -4.1282  -3.8807
    -3.8284  -3.6054  -3.3524  -3.1410  -2.9775  -2.9447  -2.8421  -2.8204
    -2.7082  -2.5110  -2.4918  -2.3997  -2.2580  -2.2333  -2.1461  -2.1334
    -2.0460  -1.9945  -1.5909  -1.3963  -1.3855  -1.2572  -1.1826  -1.1704
    -1.0634  -0.8649  -0.8046  -0.6826  -0.6558  -0.5819  -0.5672   0.7379
     1.7935   1.8042   1.8260   1.8749   2.1563   2.4934   2.7120   2.7380
     2.9274   3.3860   3.4078   3.6948   3.7179   4.0453   4.0805   4.1165
     4.6787   5.4687   5.4865   5.4901   5.8946   5.8972   5.9545   5.9707
     6.0697   6.1495   6.3300   6.3551   6.4406   6.6624   6.7973   6.9044
     6.9191   7.2026   7.2828   7.4656   7.5635   7.8335   7.8732   7.9927
     8.0628   8.0769   8.1785   8.3613   8.7756   8.9955   8.9986   9.1144
     9.2350   9.3160   9.4734   9.4922   9.8808   9.8981  10.0197  10.0802
    10.1497  10.1527  10.1752  10.1758  10.1820  10.3531  10.3655  10.3681
    10.3833  10.4106  10.6565  10.6918  10.8734  10.9406  10.9796  11.0260
    11.1805  11.2465  11.4074  11.4368  11.6066  11.7025  11.8074  11.9801
    12.0913  12.4140  12.4364  12.5092  12.5728  12.6159  12.6741  12.7357
    12.8428  12.8717  12.9138  12.9307  13.0609  13.1860  13.2301  13.2655
    13.2758  13.3636  13.3669  13.4048  13.4221  13.4323  13.4546  13.4685
    13.5120  13.5447  13.6051  13.6241  13.6701  13.7540  13.8024  13.8114
    13.8210  13.9118  13.9508  13.9932  14.0141  14.0519  14.1135  14.1646
    14.2127  14.2294  14.2670  14.2946  14.4200  14.5102  14.5223  14.5373
    14.5866  14.6416  14.7455  14.8331  14.8935  15.0962  15.1162  15.1218
    15.1907  15.2722  15.3205  15.3546  15.3893  15.4242  15.4334  15.5294
    15.5797  15.5908  15.8190  15.8443  15.9387  15.9689  16.0169  16.1373
    16.1752  16.2648  16.3713  16.4681  16.5794  16.6273  16.6912  16.7129
    16.7688  16.7893  16.9311  16.9973  17.0442  17.0978  17.1466  17.1829
    17.2395  17.3392  17.5657  17.5720  17.6569  17.7067  17.8183  17.8900
    18.0701  18.1838  18.3131  18.3528  18.4159  18.5825  18.6155  18.6798
    18.7178  18.8793  18.8921  18.9331  19.0279  19.1392  19.2339  19.2748
    19.3696  19.3909  19.4474  19.5397  19.6090  19.8992  19.9144  19.9971
    20.1215  20.2196  20.2303  20.3550  20.3847  20.4890  20.4931  20.5831
    20.7269  20.7527  20.7703  20.7878  20.8879  20.9065  20.9542  21.0158
    21.0341  21.1080  21.1245  21.1520  21.2026  21.2306  21.2585  21.3256
    21.4614  21.5285  21.5390  21.6019  21.6077  21.6526  21.6956  21.7467
    21.8570  21.8890  21.9543  21.9694  22.0226  22.0434  22.1164

          k =-0.2500 0.2476 0.0000 ( 31099 PWs)   bands (ev):

   -50.0248 -49.9052 -49.8995 -49.8679 -49.8590 -49.8092 -49.7863 -49.7621
   -49.7604 -49.7552 -49.7513 -49.7313 -49.6137 -49.6037 -49.5211 -49.5179
   -49.5088 -49.5002 -49.4522 -49.4413 -49.4388 -49.3962 -49.3856 -49.3757
   -23.5809 -20.8957 -20.6482 -20.6079 -20.5216 -20.1963 -20.1545 -20.1362
   -19.9801 -19.8648 -19.6887 -19.6399 -19.4864 -19.4483 -19.3714 -19.2831
   -19.1961 -18.4887 -18.3125 -17.3347 -10.1569 -10.0228  -9.7445  -9.6709
    -9.3305  -9.2685  -9.1618  -9.1189  -8.9872  -8.6510  -8.4715  -8.4346
    -8.3639  -8.2365  -8.0792  -7.9399  -7.8560  -7.7724  -7.6879  -7.3599
    -7.2353  -7.1130  -7.0090  -6.8941  -6.8565  -6.7742  -6.6929  -6.6021
    -6.4183  -6.2402  -6.1369  -6.0309  -5.9678  -5.9009  -5.8040  -5.7367
    -5.6886  -5.6466  -5.5282  -5.3703  -5.2575  -5.1977  -5.1297  -4.9421
    -4.7553  -4.5665  -4.3991  -4.2992  -4.2010  -4.1530  -3.9653  -3.9210
    -3.7762  -3.6636  -3.4307  -3.3565  -3.2317  -3.1774  -3.1150  -3.0149
    -2.9428  -2.8047  -2.7789  -2.6193  -2.5957  -2.5249  -2.5113  -2.4362
    -2.2291  -2.2060  -2.1175  -1.9871  -1.6987  -1.4140  -1.2009  -1.1714
    -0.9819  -0.9496  -0.7116  -0.5590  -0.3742  -0.3012  -0.0970   0.5476
     1.5501   1.5717   1.8305   2.1504   2.3314   2.7454   2.8847   3.0967
     3.2564   3.4235   3.4699   3.6517   3.7214   3.9005   3.9247   4.0660
     4.2694   4.4977   4.7744   5.2825   5.4302   5.7953   6.0616   6.1111
     6.2440   6.4200   6.5848   6.6504   6.7554   7.0518   7.1700   7.3147
     7.5185   7.6910   7.8590   7.9185   7.9833   8.2061   8.2964   8.3670
     8.3772   8.4826   8.7505   8.8104   8.9031   9.0930   9.1339   9.2122
     9.2508   9.4342   9.5631   9.6263   9.7098   9.7878   9.8657   9.9821
    10.0517  10.0776  10.1434  10.1510  10.1560  10.1755  10.1767  10.1834
    10.2148  10.3309  10.3652  10.3671  10.4090  10.4934  10.5428  10.5822
    10.6820  10.7307  10.8434  10.9579  11.0039  11.0686  11.1885  11.2288
    11.3195  11.3906  11.4726  11.5802  11.7263  11.7650  11.8197  11.9074
    11.9269  12.0913  12.1313  12.2211  12.3553  12.5020  12.5322  12.5490
    12.6071  12.6946  12.8184  12.8923  12.9989  13.0304  13.0958  13.2114
    13.2648  13.3118  13.3983  13.5494  13.6460  13.7317  13.7824  13.8871
    13.9253  13.9963  14.0601  14.1696  14.2220  14.2826  14.3505  14.4445
    14.4667  14.5489  14.6560  14.7586  14.8375  14.8896  15.0941  15.1209
    15.1512  15.2407  15.3896  15.4146  15.5507  15.6141  15.6624  15.6904
    15.7304  15.7955  15.8479  15.9427  15.9735  16.0389  16.0794  16.1020
    16.2198  16.2786  16.3505  16.4059  16.4829  16.5379  16.5672  16.6415
    16.7151  16.7577  16.7918  16.8607  16.9556  17.0141  17.1840  17.2465
    17.2979  17.3367  17.4008  17.4472  17.5095  17.5984  17.6416  17.6964
    17.7336  17.8291  17.8567  17.8851  17.9251  18.0110  18.0642  18.1524
    18.2270  18.3158  18.3947  18.5123  18.6051  18.6936  18.7638  18.7878
    18.8186  18.8832  19.0389  19.0539  19.1292  19.2212  19.2752  19.3766
    19.3899  19.4691  19.5663  19.6385  19.6979  19.7641  19.8195  19.8631
    19.9556  20.0102  20.1441  20.2629  20.3082  20.3781  20.4483  20.5358
    20.6526  20.6846  20.7483  20.7966  20.8162  20.8834  20.9378  21.0463
    21.1197  21.1360  21.1918  21.2492  21.2868  21.3205  21.3584  21.4458
    21.5134  21.5784  21.6755  21.6967  21.7266  21.8494  21.8748  21.9323
    21.9907  22.0299  22.0822  22.1521  22.2273  22.3142  22.4038

     the Fermi energy is    -0.7740 ev

!    total energy              =   -2137.16376896 Ry
     Harris-Foulkes estimate   =   -2137.16376897 Ry
     estimated scf accuracy    <          9.0E-09 Ry

     The total energy is the sum of the following terms:

     one-electron contribution =  -23164.36973809 Ry
     hartree contribution      =   11634.59331884 Ry
     xc contribution           =    -584.25023002 Ry
     ewald contribution        =    9974.67223221 Ry
     Hubbard energy            =       2.19062912 Ry
     smearing contrib. (-TS)   =       0.00001898 Ry

     convergence has been achieved in  15 iterations

     Forces acting on atoms (Ry/au):


     negative rho (up, down):  0.314E+01 0.000E+00
     atom    1 type  1   force =    -0.00726696   -0.01243338    0.00002709
     atom    2 type  1   force =     0.00011100    0.00333156   -0.00053931
     atom    3 type  2   force =     0.03069132    0.00571343    0.00007624
     atom    4 type  2   force =     0.00848538    0.00718671    0.00014077
     atom    5 type  1   force =    -0.00495637   -0.01979720   -0.00026837
     atom    6 type  1   force =     0.00583243    0.01934740   -0.00009247
     atom    7 type  1   force =    -0.00044340   -0.00424609   -0.00012943
     atom    8 type  1   force =    -0.00308629    0.00076844   -0.00005431
     atom    9 type  2   force =     0.00638577    0.00061294    0.00009473
     atom   10 type  2   force =    -0.00013298    0.00048181   -0.00003171
     atom   11 type  1   force =    -0.00174055    0.02141600    0.00013811
     atom   12 type  1   force =     0.00474796   -0.01620572    0.00017782
     atom   13 type  1   force =    -0.00077536   -0.00278886   -0.00013078
     atom   14 type  1   force =    -0.00663611   -0.01252694    0.00017462
     atom   15 type  1   force =     0.00007401    0.00343960   -0.00021246
     atom   16 type  2   force =    -0.03036070    0.00558432    0.00006109
     atom   17 type  2   force =     0.00831078    0.00769240    0.00012064
     atom   18 type  1   force =    -0.00406065   -0.02048788   -0.00025835
     atom   19 type  1   force =     0.00646108    0.01878017   -0.00009427
     atom   20 type  1   force =    -0.00031651   -0.00723901    0.00049432
     atom   21 type  1   force =    -0.00317085    0.00146383   -0.00013294
     atom   22 type  2   force =    -0.00409540    0.00014828    0.00014345
     atom   23 type  2   force =    -0.00045737    0.00367318   -0.00021254
     atom   24 type  1   force =     0.00134936    0.02118337    0.00016424
     atom   25 type  1   force =    -0.00385070   -0.01634804    0.00022316
     atom   26 type  1   force =    -0.00093619   -0.00982502    0.00048442
     atom   27 type  3   force =     0.00001309    0.00040114    0.00024827
     atom   28 type  3   force =     0.00002169    0.00035704    0.00058898
     atom   29 type  3   force =    -0.00008167    0.00016213    0.00021865
     atom   30 type  3   force =    -0.00024687    0.00025573    0.00007543
     atom   31 type  1   force =    -0.00017058   -0.00044076   -0.00001856
     atom   32 type  1   force =     0.00029768    0.00082218   -0.00079432
     atom   33 type  3   force =     0.00000396   -0.00048278   -0.00068221

     Total force =     0.002129     Total SCF correction =     0.000197


     entering subroutine stress ...


     negative rho (up, down):  0.314E+01 0.000E+00
          total   stress  (Ry/bohr**3)                   (kbar)     P=  -15.80
  -0.00013083   0.00000819   0.00000374        -19.25      1.21      0.55
   0.00000819  -0.00014154   0.00000447          1.21    -20.82      0.66
   0.00000374   0.00000447  -0.00004981          0.55      0.66     -7.33


     bfgs converged in   9 scf cycles and   8 bfgs steps
     (criteria: energy < 0.10E-03, force < 0.10E-02)

     End of BFGS Geometry Optimization

     Final energy   =   -2137.1637689614 Ry
Begin final coordinates

ATOMIC_POSITIONS (crystal)
O0       0.000000000   0.000000000   0.378258254    0   0   1
O0       0.000000000   0.500000000   0.402951839    0   0   1
Ir1      0.250000000   0.500000000   0.453013900    0   0   1
Ir1      0.000000000   0.000000000   0.452846077    0   0   1
O0       0.250000000   0.810000000   0.452916921    0   0   1
O0       0.250000000   0.190000000   0.452404346    0   0   1
O0       0.000000000   0.500000000   0.499037130    0   0   1
O0       0.000000000   0.000000000   0.528213651    0   0   1
Ir1      0.250000000   0.000000000   0.574771803    0   0   1
Ir1      0.000000000   0.500000000   0.571724865    0   0   1
O0       0.250000000   0.690000000   0.573700372    0   0   1
O0       0.250000000   0.310000000   0.575914741    0   0   1
O0       0.000000000   0.000000000   0.619433678    0   0   1
O0       0.500000000   0.000000000   0.378069043    0   0   1
O0       0.500000000   0.500000000   0.402744869    0   0   1
Ir1      0.750000000   0.500000000   0.453010771    0   0   1
Ir1      0.500000000   0.000000000   0.452627452    0   0   1
O0       0.750000000   0.810000000   0.452910777    0   0   1
O0       0.750000000   0.190000000   0.452421899    0   0   1
O0       0.500000000   0.500000000   0.499991079    0   0   1
O0       0.500000000   0.000000000   0.528123562    0   0   1
Ir1      0.750000000   0.000000000   0.574773166    0   0   1
Ir1      0.500000000   0.500000000   0.577029948    0   0   1
O0       0.750000000   0.690000000   0.573708769    0   0   1
O0       0.750000000   0.310000000   0.575929245    0   0   1
O0       0.500000000   0.000000000   0.618988600    0   0   1
H2      -0.000117092   0.634220656   0.384486296
H2       0.499806395   0.635560302   0.384808275
H2       0.143063007   0.036159576   0.366724642
H2       0.643619226   0.034463629   0.366602984
O0       0.499389354   0.535823383   0.649518409
O0       0.500599124   0.345887202   0.678822471
H2       0.499996750   0.407942276   0.713090168
End final coordinates



     init_run     :    182.31s CPU    186.47s WALL (       1 calls)
     electrons    :  37318.18s CPU  38316.00s WALL (       9 calls)
     update_pot   :    167.15s CPU    171.11s WALL (       8 calls)
     forces       :   1437.90s CPU   1471.48s WALL (       9 calls)
     stress       :   7385.00s CPU   7558.05s WALL (       9 calls)

     Called by init_run:
     wfcinit      :     52.24s CPU     55.59s WALL (       1 calls)
     potinit      :      8.07s CPU      8.24s WALL (       1 calls)

     Called by electrons:
     c_bands      :  18400.08s CPU  18974.79s WALL (     161 calls)
     sum_band     :   7719.99s CPU   7905.17s WALL (     161 calls)
     v_of_rho     :    206.52s CPU    218.89s WALL (     165 calls)
     newd         :  11606.95s CPU  11729.27s WALL (     165 calls)
     mix_rho      :     41.60s CPU     42.62s WALL (     161 calls)

     Called by c_bands:
     init_us_2    :     67.41s CPU     68.11s WALL (    1320 calls)
     cegterg      :  18178.52s CPU  18721.57s WALL (     483 calls)

     Called by *egterg:
     h_psi        :  11320.02s CPU  11644.16s WALL (    1301 calls)
     s_psi        :   1229.48s CPU   1244.17s WALL (    1598 calls)
     g_psi        :     20.41s CPU     20.46s WALL (     815 calls)
     cdiaghg      :   1381.39s CPU   1385.56s WALL (    1259 calls)

     Called by h_psi:
     add_vuspsi   :    970.65s CPU    984.25s WALL (    1301 calls)
     vhpsi        :   1068.50s CPU   1086.11s WALL (    1301 calls)

     General routines
     calbec       :   2876.35s CPU   2926.02s WALL (   12451 calls)
     fft          :    314.29s CPU    393.67s WALL (    2857 calls)
     ffts         :      3.80s CPU      3.98s WALL (     326 calls)
     fftw         :   6034.63s CPU   6391.58s WALL (  923885 calls)
     interpolate  :     34.48s CPU     35.26s WALL (     326 calls)
     davcio       :      0.13s CPU     32.62s WALL (    1563 calls)

     Parallel routines
     fft_scatter  :   2632.52s CPU   3055.42s WALL (  927068 calls)
     Hubbard U routines
     new_ns       :    216.91s CPU    231.02s WALL (     161 calls)
     vhpsi        :   1068.50s CPU   1086.11s WALL (    1301 calls)
     force_hub    :    378.73s CPU    388.13s WALL (       9 calls)
     stres_hub    :   3552.04s CPU   3672.82s WALL (       9 calls)

     PWSCF        :    13h 6m CPU       13h26m WALL


   This run was terminated on:  13:59:44  30May2014            

=------------------------------------------------------------------------------=
   JOB DONE.
=------------------------------------------------------------------------------=
