
     Program PWSCF v.5.0.2 (svn rev. 9656) starts on  6May2014 at  3:48:17 

     This program is part of the open-source Quantum ESPRESSO suite
     for quantum simulation of materials; please cite
         "P. Giannozzi et al., J. Phys.:Condens. Matter 21 395502 (2009);
          URL http://www.quantum-espresso.org", 
     in publications or presentations arising from this work. More details at
     http://www.quantum-espresso.org/quote.php

     Parallel version (MPI), running on    16 processors
     K-points division:     npool     =       4
     R & G space division:  proc/nbgrp/npool/nimage =       4

     Current dimensions of program PWSCF are:
     Max number of different atomic species (ntypx) = 10
     Max number of k-points (npk) =  40000
     Max angular momentum in pseudopotentials (lmaxx) =  3
     Reading input from pwscf.in
Warning: card &CELL ignored
Warning: card / ignored

     Subspace diagonalization in iterative solution of the eigenvalue problem:
     a serial algorithm will be used


     Parallelization info
     --------------------
     sticks:   dense  smooth     PW     G-vecs:    dense   smooth      PW
     Min        1419     456    126               336167    60843    9016
     Max        1420     457    127               336172    60875    9024
     Sum        5677    1827    505              1344679   243423   36075



     bravais-lattice index     =            0
     lattice parameter (alat)  =      11.7919  a.u.
     unit-cell volume          =    7123.6633 (a.u.)^3
     number of atoms/cell      =           30
     number of atomic types    =            3
     number of electrons       =       240.00
     number of Kohn-Sham states=          348
     kinetic-energy cutoff     =      40.0000  Ry
     charge density cutoff     =     500.0000  Ry
     convergence threshold     =      1.0E-06
     mixing beta               =       0.7000
     number of iterations used =            8  plain     mixing
     Exchange-correlation      = SLA  PW   PBE  PBE ( 1 4 3 4 0)
     EXX-fraction              =        0.00
     nstep                     =           50


     celldm(1)=  11.791891  celldm(2)=   0.000000  celldm(3)=   0.000000
     celldm(4)=   0.000000  celldm(5)=   0.000000  celldm(6)=   0.000000

     crystal axes: (cart. coord. in units of alat)
               a(1) = (   1.000000   0.000000   0.000000 )  
               a(2) = (   0.000000   1.026665   0.000000 )  
               a(3) = (   0.000000   0.000000   4.231793 )  

     reciprocal axes: (cart. coord. in units 2 pi/alat)
               b(1) = (  1.000000  0.000000  0.000000 )  
               b(2) = (  0.000000  0.974028  0.000000 )  
               b(3) = (  0.000000  0.000000  0.236306 )  


     PseudoPot. # 1 for O  read from file:
     /home/camp/zhonxu/pseudo/o_pbe_v1.01.uspp.F.UPF
     MD5 check sum: 2bcb18d16ea4b960afae9ec6d52f22d2
     Pseudo is Ultrasoft + core correction, Zval =  6.0
     Generated by new atomic code, or converted to UPF format
     Using radial grid of  737 points,  5 beta functions with: 
                l(1) =   0
                l(2) =   0
                l(3) =   1
                l(4) =   1
                l(5) =   2
     Q(r) pseudized with  8 coefficients,  rinner =    0.900   0.900   0.900
                                                       0.900   0.900

     PseudoPot. # 2 for Ru read from file:
     /home/camp/zhonxu/pseudo/ru_pbe_v1.uspp.F.UPF
     MD5 check sum: df00be1c11b23341d9806d8f1dfa10cf
     Pseudo is Ultrasoft + core correction, Zval = 16.0
     Generated by new atomic code, or converted to UPF format
     Using radial grid of  967 points,  6 beta functions with: 
                l(1) =   0
                l(2) =   0
                l(3) =   1
                l(4) =   1
                l(5) =   2
                l(6) =   2
     Q(r) pseudized with  8 coefficients,  rinner =    1.300   1.300   1.300
                                                       1.300   1.300

     PseudoPot. # 3 for H  read from file:
     /home/camp/zhonxu/pseudo/h_pbe_v1.uspp.F.UPF
     MD5 check sum: 3408e3ff4ec8b0a4e358431e7e038a48
     Pseudo is Ultrasoft, Zval =  1.0
     Generated by new atomic code, or converted to UPF format
     Using radial grid of  615 points,  2 beta functions with: 
                l(1) =   0
                l(2) =   0
     Q(r) pseudized with  8 coefficients,  rinner =    0.700

     atomic species   valence    mass     pseudopotential
        O0             6.00    15.99940     O ( 1.00)
        Ru1           16.00   101.07000     Ru( 1.00)
        H2             1.00     1.00794     H ( 1.00)


     Simplified LDA+U calculation (l_max = 2) with parameters (eV):
     atomic species    L          U    alpha       J0     beta
        Ru1            2     0.5000   0.0000   0.0000   0.0000



     No symmetry found



   Cartesian axes

     site n.     atom                  positions (alat units)
         1           O0  tau(   1) = (   0.0000000   0.0000000   1.6080390  )
         2           O0  tau(   2) = (   0.0000000   0.5133323   1.7023233  )
         3           Ru1 tau(   3) = (   0.2500000   0.5133323   1.9175523  )
         4           Ru1 tau(   4) = (   0.0000000   0.0000000   1.9215302  )
         5           O0  tau(   5) = (   0.2500000   0.8315984   1.9195836  )
         6           O0  tau(   6) = (   0.2500000   0.1950663   1.9193297  )
         7           O0  tau(   7) = (   0.0000000   0.5133323   2.1106490  )
         8           O0  tau(   8) = (   0.0000000   0.0000000   2.2345136  )
         9           Ru1 tau(   9) = (   0.2500000   0.0000000   2.4487269  )
        10           Ru1 tau(  10) = (   0.0000000   0.5133323   2.4113179  )
        11           O0  tau(  11) = (   0.2500000   0.7083986   2.4387399  )
        12           O0  tau(  12) = (   0.2500000   0.3182660   2.4402210  )
        13           O0  tau(  13) = (   0.0000000   0.0000000   2.6238385  )
        14           O0  tau(  14) = (   0.5000000   0.0000000   1.6080390  )
        15           O0  tau(  15) = (   0.5000000   0.5133323   1.7023233  )
        16           Ru1 tau(  16) = (   0.7500000   0.5133323   1.9175523  )
        17           Ru1 tau(  17) = (   0.5000000   0.0000000   1.9215302  )
        18           O0  tau(  18) = (   0.7500000   0.8315984   1.9195836  )
        19           O0  tau(  19) = (   0.7500000   0.1950663   1.9193297  )
        20           O0  tau(  20) = (   0.5000000   0.5133323   2.1106490  )
        21           O0  tau(  21) = (   0.5000000   0.0000000   2.2345136  )
        22           Ru1 tau(  22) = (   0.7500000   0.0000000   2.4487269  )
        23           Ru1 tau(  23) = (   0.5000000   0.5133323   2.4113179  )
        24           O0  tau(  24) = (   0.7500000   0.7083986   2.4387399  )
        25           O0  tau(  25) = (   0.7500000   0.3182660   2.4401787  )
        26           O0  tau(  26) = (   0.5000000   0.0000000   2.6238385  )
        27           H2  tau(  27) = (  -0.0004100   0.6466653   1.6162063  )
        28           H2  tau(  28) = (   0.4995900   0.6466653   1.6162063  )
        29           H2  tau(  29) = (   0.1464700   0.0296706   1.5559879  )
        30           H2  tau(  30) = (   0.6464700   0.0296706   1.5559879  )

     number of k points=    10  Methfessel-Paxton smearing, width (Ry)=  0.0100
                       cart. coord. in units 2pi/alat
        k(    1) = (   0.0000000   0.0000000   0.0000000), wk =   0.1250000
        k(    2) = (   0.0000000   0.2435070   0.0000000), wk =   0.2500000
        k(    3) = (   0.0000000  -0.4870139   0.0000000), wk =   0.1250000
        k(    4) = (   0.2500000   0.0000000   0.0000000), wk =   0.2500000
        k(    5) = (   0.2500000   0.2435070   0.0000000), wk =   0.2500000
        k(    6) = (   0.2500000  -0.4870139   0.0000000), wk =   0.2500000
        k(    7) = (  -0.5000000   0.0000000   0.0000000), wk =   0.1250000
        k(    8) = (  -0.5000000   0.2435070   0.0000000), wk =   0.2500000
        k(    9) = (  -0.5000000  -0.4870139   0.0000000), wk =   0.1250000
        k(   10) = (  -0.2500000   0.2435070   0.0000000), wk =   0.2500000

     Dense  grid:  1344679 G-vectors     FFT dimensions: (  90,  90, 360)

     Smooth grid:   243423 G-vectors     FFT dimensions: (  48,  50, 216)

     Largest allocated arrays     est. size (Mb)     dimensions
        Kohn-Sham Wavefunctions        40.53 Mb     (   7632,  348)
        Atomic wavefunctions           20.96 Mb     (   7632,  180)
        NL pseudopotentials            44.95 Mb     (   7632,  386)
        Each V/rho on FFT grid         11.12 Mb     ( 729000)
        Each G-vector array             2.56 Mb     ( 336169)
        G-vector shells                 1.12 Mb     ( 146910)
     Largest temporary arrays     est. size (Mb)     dimensions
        Auxiliary wavefunctions       162.11 Mb     (   7632, 1392)
        Each subspace H/S matrix       29.57 Mb     (1392,1392)
        Each <psi_i|beta_j> matrix      2.05 Mb     (    386,  348)
        Arrays for rho mixing          88.99 Mb     ( 729000,   8)

     Check: negative/imaginary core charge=   -0.000003    0.000000

     Initial potential from superposition of free atoms
     Check: negative starting charge=   -0.522083

     starting charge  231.99981, renormalised to  240.00000

     negative rho (up, down):  0.540E+00 0.000E+00
     Number of +U iterations with fixed ns =  0
     Starting occupations:
 --- enter write_ns ---
 LDA+U parameters:
U( 2)     =  0.50000000
alpha( 2) =  0.00000000
atom    3   Tr[ns(na)] =   6.00000
    eigenvalues: 
  0.600  0.600  0.600  0.600  0.600
    eigenvectors:
  1.000  0.000  0.000  0.000  0.000
  0.000  1.000  0.000  0.000  0.000
  0.000  0.000  1.000  0.000  0.000
  0.000  0.000  0.000  1.000  0.000
  0.000  0.000  0.000  0.000  1.000
    occupations:
  0.600  0.000  0.000  0.000  0.000
  0.000  0.600  0.000  0.000  0.000
  0.000  0.000  0.600  0.000  0.000
  0.000  0.000  0.000  0.600  0.000
  0.000  0.000  0.000  0.000  0.600
atom    4   Tr[ns(na)] =   6.00000
    eigenvalues: 
  0.600  0.600  0.600  0.600  0.600
    eigenvectors:
  1.000  0.000  0.000  0.000  0.000
  0.000  1.000  0.000  0.000  0.000
  0.000  0.000  1.000  0.000  0.000
  0.000  0.000  0.000  1.000  0.000
  0.000  0.000  0.000  0.000  1.000
    occupations:
  0.600  0.000  0.000  0.000  0.000
  0.000  0.600  0.000  0.000  0.000
  0.000  0.000  0.600  0.000  0.000
  0.000  0.000  0.000  0.600  0.000
  0.000  0.000  0.000  0.000  0.600
atom    9   Tr[ns(na)] =   6.00000
    eigenvalues: 
  0.600  0.600  0.600  0.600  0.600
    eigenvectors:
  1.000  0.000  0.000  0.000  0.000
  0.000  1.000  0.000  0.000  0.000
  0.000  0.000  1.000  0.000  0.000
  0.000  0.000  0.000  1.000  0.000
  0.000  0.000  0.000  0.000  1.000
    occupations:
  0.600  0.000  0.000  0.000  0.000
  0.000  0.600  0.000  0.000  0.000
  0.000  0.000  0.600  0.000  0.000
  0.000  0.000  0.000  0.600  0.000
  0.000  0.000  0.000  0.000  0.600
atom   10   Tr[ns(na)] =   6.00000
    eigenvalues: 
  0.600  0.600  0.600  0.600  0.600
    eigenvectors:
  1.000  0.000  0.000  0.000  0.000
  0.000  1.000  0.000  0.000  0.000
  0.000  0.000  1.000  0.000  0.000
  0.000  0.000  0.000  1.000  0.000
  0.000  0.000  0.000  0.000  1.000
    occupations:
  0.600  0.000  0.000  0.000  0.000
  0.000  0.600  0.000  0.000  0.000
  0.000  0.000  0.600  0.000  0.000
  0.000  0.000  0.000  0.600  0.000
  0.000  0.000  0.000  0.000  0.600
atom   16   Tr[ns(na)] =   6.00000
    eigenvalues: 
  0.600  0.600  0.600  0.600  0.600
    eigenvectors:
  1.000  0.000  0.000  0.000  0.000
  0.000  1.000  0.000  0.000  0.000
  0.000  0.000  1.000  0.000  0.000
  0.000  0.000  0.000  1.000  0.000
  0.000  0.000  0.000  0.000  1.000
    occupations:
  0.600  0.000  0.000  0.000  0.000
  0.000  0.600  0.000  0.000  0.000
  0.000  0.000  0.600  0.000  0.000
  0.000  0.000  0.000  0.600  0.000
  0.000  0.000  0.000  0.000  0.600
atom   17   Tr[ns(na)] =   6.00000
    eigenvalues: 
  0.600  0.600  0.600  0.600  0.600
    eigenvectors:
  1.000  0.000  0.000  0.000  0.000
  0.000  1.000  0.000  0.000  0.000
  0.000  0.000  1.000  0.000  0.000
  0.000  0.000  0.000  1.000  0.000
  0.000  0.000  0.000  0.000  1.000
    occupations:
  0.600  0.000  0.000  0.000  0.000
  0.000  0.600  0.000  0.000  0.000
  0.000  0.000  0.600  0.000  0.000
  0.000  0.000  0.000  0.600  0.000
  0.000  0.000  0.000  0.000  0.600
atom   22   Tr[ns(na)] =   6.00000
    eigenvalues: 
  0.600  0.600  0.600  0.600  0.600
    eigenvectors:
  1.000  0.000  0.000  0.000  0.000
  0.000  1.000  0.000  0.000  0.000
  0.000  0.000  1.000  0.000  0.000
  0.000  0.000  0.000  1.000  0.000
  0.000  0.000  0.000  0.000  1.000
    occupations:
  0.600  0.000  0.000  0.000  0.000
  0.000  0.600  0.000  0.000  0.000
  0.000  0.000  0.600  0.000  0.000
  0.000  0.000  0.000  0.600  0.000
  0.000  0.000  0.000  0.000  0.600
atom   23   Tr[ns(na)] =   6.00000
    eigenvalues: 
  0.600  0.600  0.600  0.600  0.600
    eigenvectors:
  1.000  0.000  0.000  0.000  0.000
  0.000  1.000  0.000  0.000  0.000
  0.000  0.000  1.000  0.000  0.000
  0.000  0.000  0.000  1.000  0.000
  0.000  0.000  0.000  0.000  1.000
    occupations:
  0.600  0.000  0.000  0.000  0.000
  0.000  0.600  0.000  0.000  0.000
  0.000  0.000  0.600  0.000  0.000
  0.000  0.000  0.000  0.600  0.000
  0.000  0.000  0.000  0.000  0.600
N of occupied +U levels =  48.0000000
 --- exit write_ns ---
 Atomic wfc used for LDA+U Projector are NOT orthogonalized
     Starting wfc are  180 randomized atomic wfcs

     total cpu time spent up to now is      100.8 secs

     per-process dynamical memory:   392.5 Mb

     Self-consistent Calculation

     iteration #  1     ecut=    40.00 Ry     beta=0.70
     Davidson diagonalization with overlap
     ethr =  1.00E-02,  avg # of iterations =  5.6
 --- enter write_ns ---
 LDA+U parameters:
U( 2)     =  0.50000000
alpha( 2) =  0.00000000
atom    3   Tr[ns(na)] =   3.80342
    eigenvalues: 
  0.241  0.380  0.391  0.404  0.485
    eigenvectors:
  0.000  0.180  0.000  0.169  0.652
  0.003  0.000  0.997  0.000  0.000
  0.000  0.478  0.000  0.184  0.338
  0.000  0.342  0.000  0.648  0.010
  0.997  0.000  0.003  0.000  0.000
    occupations:
  0.453  0.000  0.045 -0.001 -0.000
  0.000  0.391  0.000  0.000  0.008
  0.045  0.000  0.420 -0.015 -0.003
 -0.001  0.000 -0.015  0.397  0.000
 -0.000  0.008 -0.003  0.000  0.241
atom    4   Tr[ns(na)] =   3.32912
    eigenvalues: 
  0.261  0.273  0.306  0.389  0.436
    eigenvectors:
  0.001  0.001  0.008  0.000  0.989
  0.007  0.007  0.979  0.000  0.008
  0.966  0.024  0.009  0.000  0.000
  0.026  0.968  0.004  0.000  0.002
  0.000  0.000  0.000  1.000  0.000
    occupations:
  0.434  0.012  0.003 -0.008  0.000
  0.012  0.306 -0.004 -0.003 -0.001
  0.003 -0.004  0.261  0.002  0.000
 -0.008 -0.003  0.002  0.273 -0.000
  0.000 -0.001  0.000 -0.000  0.389
atom    9   Tr[ns(na)] =   7.50029
    eigenvalues: 
  0.422  0.439  0.949  0.958  0.981
    eigenvectors:
  0.000  0.141  0.000  0.859  0.000
  1.000  0.000  0.000  0.000  0.000
  0.000  0.000  0.000  0.000  1.000
  0.000  0.859  0.000  0.141  0.000
  0.000  0.000  1.000  0.000  0.000
    occupations:
  0.885 -0.000 -0.001 -0.181  0.000
 -0.000  0.422 -0.000  0.000 -0.000
 -0.001 -0.000  0.981 -0.001 -0.000
 -0.181  0.000 -0.001  0.512  0.000
  0.000 -0.000 -0.000  0.000  0.949
atom   10   Tr[ns(na)] =   8.21717
    eigenvalues: 
  0.417  0.785  0.965  0.966  0.975
    eigenvectors:
  0.000  0.946  0.007  0.047  0.000
  0.000  0.000  0.000  0.000  1.000
  0.000  0.000  0.868  0.132  0.000
  0.000  0.054  0.125  0.821  0.000
  1.000  0.000  0.000  0.000  0.000
    occupations:
  0.795 -0.000 -0.001  0.041  0.000
 -0.000  0.975 -0.000  0.000 -0.002
 -0.001 -0.000  0.965 -0.000 -0.000
  0.041  0.000 -0.000  0.956 -0.000
  0.000 -0.002 -0.000 -0.000  0.417
atom   16   Tr[ns(na)] =   3.80335
    eigenvalues: 
  0.241  0.380  0.391  0.404  0.485
    eigenvectors:
  0.000  0.180  0.000  0.168  0.652
  0.003  0.000  0.997  0.000  0.000
  0.000  0.478  0.000  0.184  0.338
  0.000  0.342  0.000  0.648  0.010
  0.997  0.000  0.003  0.000  0.000
    occupations:
  0.453  0.000  0.045 -0.001 -0.000
  0.000  0.391  0.000  0.000  0.008
  0.045  0.000  0.420 -0.015 -0.003
 -0.001  0.000 -0.015  0.397  0.000
 -0.000  0.008 -0.003  0.000  0.241
atom   17   Tr[ns(na)] =   3.32911
    eigenvalues: 
  0.261  0.273  0.306  0.389  0.436
    eigenvectors:
  0.001  0.001  0.008  0.000  0.989
  0.007  0.007  0.979  0.000  0.008
  0.966  0.024  0.009  0.000  0.000
  0.026  0.968  0.004  0.000  0.002
  0.000  0.000  0.000  1.000  0.000
    occupations:
  0.434  0.012  0.003 -0.008  0.000
  0.012  0.306 -0.004 -0.003 -0.001
  0.003 -0.004  0.261  0.002  0.000
 -0.008 -0.003  0.002  0.273 -0.000
  0.000 -0.001  0.000 -0.000  0.389
atom   22   Tr[ns(na)] =   7.50029
    eigenvalues: 
  0.422  0.439  0.949  0.958  0.981
    eigenvectors:
  0.000  0.141  0.000  0.859  0.000
  1.000  0.000  0.000  0.000  0.000
  0.000  0.000  0.000  0.000  1.000
  0.000  0.859  0.000  0.141  0.000
  0.000  0.000  1.000  0.000  0.000
    occupations:
  0.885 -0.000 -0.001 -0.181  0.000
 -0.000  0.422 -0.000  0.000 -0.000
 -0.001 -0.000  0.981 -0.001 -0.000
 -0.181  0.000 -0.001  0.512  0.000
  0.000 -0.000 -0.000  0.000  0.949
atom   23   Tr[ns(na)] =   8.21717
    eigenvalues: 
  0.417  0.785  0.965  0.966  0.975
    eigenvectors:
  0.000  0.946  0.007  0.047  0.000
  0.000  0.000  0.000  0.000  1.000
  0.000  0.000  0.868  0.132  0.000
  0.000  0.054  0.125  0.821  0.000
  1.000  0.000  0.000  0.000  0.000
    occupations:
  0.795  0.000 -0.001  0.041 -0.000
  0.000  0.975 -0.000 -0.000 -0.002
 -0.001 -0.000  0.965 -0.000 -0.000
  0.041 -0.000 -0.000  0.956  0.000
 -0.000 -0.002 -0.000  0.000  0.417
N of occupied +U levels =  45.6999196
 --- exit write_ns ---

     negative rho (up, down):  0.626E+00 0.000E+00

     total cpu time spent up to now is      430.4 secs

     total energy              =   -2068.53913081 Ry
     Harris-Foulkes estimate   =   -2135.79567564 Ry
     estimated scf accuracy    <      76.31921766 Ry

     iteration #  2     ecut=    40.00 Ry     beta=0.70
     Davidson diagonalization with overlap
     ethr =  1.00E-02,  avg # of iterations =  7.1

     negative rho (up, down):  0.603E+00 0.000E+00

     total cpu time spent up to now is      786.3 secs

     total energy              =   -1895.26896071 Ry
     Harris-Foulkes estimate   =   -2620.38129284 Ry
     estimated scf accuracy    <    6080.36617596 Ry

     iteration #  3     ecut=    40.00 Ry     beta=0.70
     Davidson diagonalization with overlap
     ethr =  1.00E-02,  avg # of iterations =  6.2

     negative rho (up, down):  0.573E+00 0.000E+00

     total cpu time spent up to now is     1152.6 secs

     total energy              =   -2113.74095838 Ry
     Harris-Foulkes estimate   =   -2178.37286083 Ry
     estimated scf accuracy    <     271.94313619 Ry

     iteration #  4     ecut=    40.00 Ry     beta=0.70
     Davidson diagonalization with overlap
     ethr =  1.00E-02,  avg # of iterations =  4.9

     negative rho (up, down):  0.563E+00 0.000E+00

     total cpu time spent up to now is     1372.6 secs

     total energy              =   -2128.53440076 Ry
     Harris-Foulkes estimate   =   -2137.68545779 Ry
     estimated scf accuracy    <      52.14433531 Ry

     iteration #  5     ecut=    40.00 Ry     beta=0.70
     Davidson diagonalization with overlap
     ethr =  1.00E-02,  avg # of iterations =  1.0

     negative rho (up, down):  0.566E+00 0.000E+00

     total cpu time spent up to now is     1532.7 secs

     total energy              =   -2131.84576560 Ry
     Harris-Foulkes estimate   =   -2133.02786437 Ry
     estimated scf accuracy    <      44.80206296 Ry

     iteration #  6     ecut=    40.00 Ry     beta=0.70
     Davidson diagonalization with overlap
     ethr =  1.00E-02,  avg # of iterations =  1.0

     negative rho (up, down):  0.569E+00 0.000E+00

     total cpu time spent up to now is     1695.4 secs

     total energy              =   -2131.26733647 Ry
     Harris-Foulkes estimate   =   -2132.03017843 Ry
     estimated scf accuracy    <      25.79308830 Ry

     iteration #  7     ecut=    40.00 Ry     beta=0.70
     Davidson diagonalization with overlap
     ethr =  1.00E-02,  avg # of iterations =  1.0

     negative rho (up, down):  0.572E+00 0.000E+00

     total cpu time spent up to now is     1858.1 secs

     total energy              =   -2130.71974279 Ry
     Harris-Foulkes estimate   =   -2131.89308872 Ry
     estimated scf accuracy    <      20.40772935 Ry

     iteration #  8     ecut=    40.00 Ry     beta=0.70
     Davidson diagonalization with overlap
     ethr =  8.50E-03,  avg # of iterations =  1.1

     negative rho (up, down):  0.571E+00 0.000E+00

     total cpu time spent up to now is     2021.3 secs

     total energy              =   -2131.02102499 Ry
     Harris-Foulkes estimate   =   -2131.37598278 Ry
     estimated scf accuracy    <       5.95823028 Ry

     iteration #  9     ecut=    40.00 Ry     beta=0.70
     Davidson diagonalization with overlap
     ethr =  2.48E-03,  avg # of iterations =  3.7

     negative rho (up, down):  0.574E+00 0.000E+00

     total cpu time spent up to now is     2199.1 secs

     total energy              =   -2130.97572145 Ry
     Harris-Foulkes estimate   =   -2131.34110498 Ry
     estimated scf accuracy    <       7.20879035 Ry

     iteration # 10     ecut=    40.00 Ry     beta=0.70
     Davidson diagonalization with overlap
     ethr =  2.48E-03,  avg # of iterations =  1.4

     negative rho (up, down):  0.576E+00 0.000E+00

     total cpu time spent up to now is     2361.6 secs

     total energy              =   -2130.97761043 Ry
     Harris-Foulkes estimate   =   -2131.10827498 Ry
     estimated scf accuracy    <       0.66206426 Ry

     iteration # 11     ecut=    40.00 Ry     beta=0.70
     Davidson diagonalization with overlap
     ethr =  2.76E-04,  avg # of iterations =  6.6

     negative rho (up, down):  0.575E+00 0.000E+00

     total cpu time spent up to now is     2565.0 secs

     total energy              =   -2130.99815385 Ry
     Harris-Foulkes estimate   =   -2131.07985775 Ry
     estimated scf accuracy    <       1.24009255 Ry

     iteration # 12     ecut=    40.00 Ry     beta=0.70
     Davidson diagonalization with overlap
     ethr =  2.76E-04,  avg # of iterations =  1.0

     negative rho (up, down):  0.574E+00 0.000E+00

     total cpu time spent up to now is     2724.3 secs

     total energy              =   -2130.97994701 Ry
     Harris-Foulkes estimate   =   -2131.07429363 Ry
     estimated scf accuracy    <       0.55207212 Ry

     iteration # 13     ecut=    40.00 Ry     beta=0.70
     Davidson diagonalization with overlap
     ethr =  2.30E-04,  avg # of iterations =  3.6

     negative rho (up, down):  0.576E+00 0.000E+00

     total cpu time spent up to now is     2898.0 secs

     total energy              =   -2130.91279620 Ry
     Harris-Foulkes estimate   =   -2131.17515124 Ry
     estimated scf accuracy    <       2.87092765 Ry

     iteration # 14     ecut=    40.00 Ry     beta=0.70
     Davidson diagonalization with overlap
     ethr =  2.30E-04,  avg # of iterations =  1.0

     negative rho (up, down):  0.576E+00 0.000E+00

     total cpu time spent up to now is     3058.5 secs

     total energy              =   -2131.02514246 Ry
     Harris-Foulkes estimate   =   -2131.05889360 Ry
     estimated scf accuracy    <       0.27600227 Ry

     iteration # 15     ecut=    40.00 Ry     beta=0.70
     Davidson diagonalization with overlap
     ethr =  1.15E-04,  avg # of iterations =  1.7

     negative rho (up, down):  0.576E+00 0.000E+00

     total cpu time spent up to now is     3219.4 secs

     total energy              =   -2131.03191136 Ry
     Harris-Foulkes estimate   =   -2131.05288841 Ry
     estimated scf accuracy    <       0.16765680 Ry

     iteration # 16     ecut=    40.00 Ry     beta=0.70
     Davidson diagonalization with overlap
     ethr =  6.99E-05,  avg # of iterations =  2.2

     negative rho (up, down):  0.576E+00 0.000E+00

     total cpu time spent up to now is     3387.0 secs

     total energy              =   -2131.03815113 Ry
     Harris-Foulkes estimate   =   -2131.04746949 Ry
     estimated scf accuracy    <       0.05174311 Ry

     iteration # 17     ecut=    40.00 Ry     beta=0.70
     Davidson diagonalization with overlap
     ethr =  2.16E-05,  avg # of iterations =  4.0

     negative rho (up, down):  0.576E+00 0.000E+00

     total cpu time spent up to now is     3565.2 secs

     total energy              =   -2131.03487753 Ry
     Harris-Foulkes estimate   =   -2131.05112481 Ry
     estimated scf accuracy    <       0.18662214 Ry

     iteration # 18     ecut=    40.00 Ry     beta=0.70
     Davidson diagonalization with overlap
     ethr =  2.16E-05,  avg # of iterations =  1.0

     negative rho (up, down):  0.576E+00 0.000E+00

     total cpu time spent up to now is     3738.0 secs

     total energy              =   -2131.04244431 Ry
     Harris-Foulkes estimate   =   -2131.04464696 Ry
     estimated scf accuracy    <       0.01453389 Ry

     iteration # 19     ecut=    40.00 Ry     beta=0.70
     Davidson diagonalization with overlap
     ethr =  6.06E-06,  avg # of iterations =  1.0

     negative rho (up, down):  0.576E+00 0.000E+00

     total cpu time spent up to now is     3898.9 secs

     total energy              =   -2131.04202392 Ry
     Harris-Foulkes estimate   =   -2131.04482355 Ry
     estimated scf accuracy    <       0.02671287 Ry

     iteration # 20     ecut=    40.00 Ry     beta=0.70
     Davidson diagonalization with overlap
     ethr =  6.06E-06,  avg # of iterations =  1.0

     negative rho (up, down):  0.576E+00 0.000E+00

     total cpu time spent up to now is     4068.1 secs

     total energy              =   -2131.04316070 Ry
     Harris-Foulkes estimate   =   -2131.04405631 Ry
     estimated scf accuracy    <       0.00648129 Ry

     iteration # 21     ecut=    40.00 Ry     beta=0.70
     Davidson diagonalization with overlap
     ethr =  2.70E-06,  avg # of iterations =  1.0

     negative rho (up, down):  0.576E+00 0.000E+00

     total cpu time spent up to now is     4230.2 secs

     total energy              =   -2131.04347401 Ry
     Harris-Foulkes estimate   =   -2131.04374607 Ry
     estimated scf accuracy    <       0.00331891 Ry

     iteration # 22     ecut=    40.00 Ry     beta=0.70
     Davidson diagonalization with overlap
     ethr =  1.38E-06,  avg # of iterations =  1.0

     negative rho (up, down):  0.576E+00 0.000E+00

     total cpu time spent up to now is     4392.2 secs

     total energy              =   -2131.04345089 Ry
     Harris-Foulkes estimate   =   -2131.04377234 Ry
     estimated scf accuracy    <       0.00277661 Ry

     iteration # 23     ecut=    40.00 Ry     beta=0.70
     Davidson diagonalization with overlap
     ethr =  1.16E-06,  avg # of iterations =  1.0

     negative rho (up, down):  0.576E+00 0.000E+00

     total cpu time spent up to now is     4554.4 secs

     total energy              =   -2131.04341112 Ry
     Harris-Foulkes estimate   =   -2131.04383813 Ry
     estimated scf accuracy    <       0.00421727 Ry

     iteration # 24     ecut=    40.00 Ry     beta=0.70
     Davidson diagonalization with overlap
     ethr =  1.16E-06,  avg # of iterations =  1.0

     negative rho (up, down):  0.576E+00 0.000E+00

     total cpu time spent up to now is     4720.3 secs

     total energy              =   -2131.04356135 Ry
     Harris-Foulkes estimate   =   -2131.04370025 Ry
     estimated scf accuracy    <       0.00234769 Ry

     iteration # 25     ecut=    40.00 Ry     beta=0.70
     Davidson diagonalization with overlap
     ethr =  9.78E-07,  avg # of iterations =  1.0

     negative rho (up, down):  0.576E+00 0.000E+00

     total cpu time spent up to now is     4894.4 secs

     total energy              =   -2131.04359641 Ry
     Harris-Foulkes estimate   =   -2131.04365946 Ry
     estimated scf accuracy    <       0.00040914 Ry

     iteration # 26     ecut=    40.00 Ry     beta=0.70
     Davidson diagonalization with overlap
     ethr =  1.70E-07,  avg # of iterations =  1.0

     negative rho (up, down):  0.576E+00 0.000E+00

     total cpu time spent up to now is     5059.8 secs

     total energy              =   -2131.04353537 Ry
     Harris-Foulkes estimate   =   -2131.04373794 Ry
     estimated scf accuracy    <       0.00216488 Ry

     iteration # 27     ecut=    40.00 Ry     beta=0.70
     Davidson diagonalization with overlap
     ethr =  1.70E-07,  avg # of iterations =  1.0

     negative rho (up, down):  0.576E+00 0.000E+00

     total cpu time spent up to now is     5221.5 secs

     total energy              =   -2131.04362676 Ry
     Harris-Foulkes estimate   =   -2131.04364752 Ry
     estimated scf accuracy    <       0.00010055 Ry

     iteration # 28     ecut=    40.00 Ry     beta=0.70
     Davidson diagonalization with overlap
     ethr =  4.19E-08,  avg # of iterations =  1.0

     negative rho (up, down):  0.576E+00 0.000E+00

     total cpu time spent up to now is     5387.1 secs

     total energy              =   -2131.04363506 Ry
     Harris-Foulkes estimate   =   -2131.04364037 Ry
     estimated scf accuracy    <       0.00004766 Ry

     iteration # 29     ecut=    40.00 Ry     beta=0.70
     Davidson diagonalization with overlap
     ethr =  1.99E-08,  avg # of iterations =  1.0

     negative rho (up, down):  0.576E+00 0.000E+00

     total cpu time spent up to now is     5550.9 secs

     total energy              =   -2131.04363535 Ry
     Harris-Foulkes estimate   =   -2131.04364062 Ry
     estimated scf accuracy    <       0.00002982 Ry

     iteration # 30     ecut=    40.00 Ry     beta=0.70
     Davidson diagonalization with overlap
     ethr =  1.24E-08,  avg # of iterations =  1.0

     negative rho (up, down):  0.576E+00 0.000E+00

     total cpu time spent up to now is     5731.2 secs

     total energy              =   -2131.04363717 Ry
     Harris-Foulkes estimate   =   -2131.04363929 Ry
     estimated scf accuracy    <       0.00002698 Ry

     iteration # 31     ecut=    40.00 Ry     beta=0.70
     Davidson diagonalization with overlap
     ethr =  1.12E-08,  avg # of iterations =  1.0

     negative rho (up, down):  0.576E+00 0.000E+00

     total cpu time spent up to now is     5905.1 secs

     total energy              =   -2131.04363730 Ry
     Harris-Foulkes estimate   =   -2131.04363909 Ry
     estimated scf accuracy    <       0.00001482 Ry

     iteration # 32     ecut=    40.00 Ry     beta=0.70
     Davidson diagonalization with overlap
     ethr =  6.18E-09,  avg # of iterations =  1.0

     negative rho (up, down):  0.576E+00 0.000E+00

     total cpu time spent up to now is     6079.1 secs

     total energy              =   -2131.04363747 Ry
     Harris-Foulkes estimate   =   -2131.04363919 Ry
     estimated scf accuracy    <       0.00001985 Ry

     iteration # 33     ecut=    40.00 Ry     beta=0.70
     Davidson diagonalization with overlap
     ethr =  6.18E-09,  avg # of iterations =  1.0

     negative rho (up, down):  0.576E+00 0.000E+00

     total cpu time spent up to now is     6252.6 secs

     total energy              =   -2131.04363771 Ry
     Harris-Foulkes estimate   =   -2131.04363897 Ry
     estimated scf accuracy    <       0.00001329 Ry

     iteration # 34     ecut=    40.00 Ry     beta=0.70
     Davidson diagonalization with overlap
     ethr =  5.54E-09,  avg # of iterations =  1.0

     negative rho (up, down):  0.576E+00 0.000E+00

     total cpu time spent up to now is     6425.9 secs

     total energy              =   -2131.04363822 Ry
     Harris-Foulkes estimate   =   -2131.04363846 Ry
     estimated scf accuracy    <       0.00000181 Ry

     iteration # 35     ecut=    40.00 Ry     beta=0.70
     Davidson diagonalization with overlap
     ethr =  7.53E-10,  avg # of iterations =  1.0

     negative rho (up, down):  0.576E+00 0.000E+00

     total cpu time spent up to now is     6599.4 secs

     total energy              =   -2131.04363808 Ry
     Harris-Foulkes estimate   =   -2131.04363863 Ry
     estimated scf accuracy    <       0.00000778 Ry

     iteration # 36     ecut=    40.00 Ry     beta=0.70
     Davidson diagonalization with overlap
     ethr =  7.53E-10,  avg # of iterations =  1.0

     negative rho (up, down):  0.576E+00 0.000E+00

     total cpu time spent up to now is     6772.5 secs

     total energy              =   -2131.04363802 Ry
     Harris-Foulkes estimate   =   -2131.04363870 Ry
     estimated scf accuracy    <       0.00000696 Ry

     iteration # 37     ecut=    40.00 Ry     beta=0.70
     Davidson diagonalization with overlap
     ethr =  7.53E-10,  avg # of iterations =  1.0

     negative rho (up, down):  0.576E+00 0.000E+00

     total cpu time spent up to now is     6945.8 secs

     total energy              =   -2131.04363829 Ry
     Harris-Foulkes estimate   =   -2131.04363845 Ry
     estimated scf accuracy    <       0.00000122 Ry

     iteration # 38     ecut=    40.00 Ry     beta=0.70
     Davidson diagonalization with overlap
     ethr =  5.08E-10,  avg # of iterations =  1.0

     negative rho (up, down):  0.576E+00 0.000E+00

     total cpu time spent up to now is     7118.2 secs

     total energy              =   -2131.04363831 Ry
     Harris-Foulkes estimate   =   -2131.04363844 Ry
     estimated scf accuracy    <       0.00000113 Ry

     iteration # 39     ecut=    40.00 Ry     beta=0.70
     Davidson diagonalization with overlap
     ethr =  4.70E-10,  avg # of iterations =  1.0

     negative rho (up, down):  0.576E+00 0.000E+00

     total cpu time spent up to now is     7284.1 secs

     End of self-consistent calculation
 --- enter write_ns ---
 LDA+U parameters:
U( 2)     =  0.50000000
alpha( 2) =  0.00000000
atom    3   Tr[ns(na)] =   7.17346
    eigenvalues: 
  0.526  0.569  0.736  0.820  0.936
    eigenvectors:
  0.000  0.199  0.006  0.000  0.795
  1.000  0.000  0.000  0.000  0.000
  0.000  0.000  0.991  0.000  0.009
  0.000  0.801  0.003  0.000  0.196
  0.000  0.000  0.000  1.000  0.000
    occupations:
  0.861  0.000  0.018 -0.145 -0.000
  0.000  0.526 -0.000 -0.000 -0.003
  0.018 -0.000  0.738 -0.007  0.000
 -0.145 -0.000 -0.007  0.641  0.000
 -0.000 -0.003  0.000  0.000  0.819
atom    4   Tr[ns(na)] =   7.14865
    eigenvalues: 
  0.558  0.602  0.684  0.772  0.958
    eigenvectors:
  0.000  0.990  0.000  0.000  0.010
  0.000  0.000  0.017  0.983  0.000
  0.000  0.000  0.983  0.017  0.000
  0.000  0.010  0.000  0.000  0.990
  1.000  0.000  0.000  0.000  0.000
    occupations:
  0.606 -0.001 -0.000  0.035  0.001
 -0.001  0.771  0.011 -0.001 -0.001
 -0.000  0.011  0.686  0.002  0.000
  0.035 -0.001  0.002  0.954  0.000
  0.001 -0.001  0.000  0.000  0.558
atom    9   Tr[ns(na)] =   7.12889
    eigenvalues: 
  0.582  0.600  0.760  0.810  0.812
    eigenvectors:
  0.000  0.142  0.001  0.331  0.526
  1.000  0.000  0.000  0.000  0.000
  0.000  0.000  0.999  0.000  0.000
  0.000  0.857  0.000  0.055  0.087
  0.000  0.000  0.000  0.613  0.387
    occupations:
  0.781  0.000 -0.001 -0.074  0.001
  0.000  0.582  0.001  0.000  0.000
 -0.001  0.001  0.760  0.000  0.000
 -0.074  0.000  0.000  0.630 -0.000
  0.001  0.000  0.000 -0.000  0.811
atom   10   Tr[ns(na)] =   7.16966
    eigenvalues: 
  0.544  0.555  0.757  0.807  0.923
    eigenvectors:
  0.000  0.991  0.000  0.000  0.009
  0.000  0.000  0.000  1.000  0.000
  0.000  0.000  1.000  0.000  0.000
  0.000  0.009  0.000  0.000  0.991
  1.000  0.000  0.000  0.000  0.000
    occupations:
  0.558  0.000 -0.001  0.034  0.000
  0.000  0.807  0.000  0.000 -0.001
 -0.001  0.000  0.757 -0.002 -0.000
  0.034  0.000 -0.002  0.920 -0.000
  0.000 -0.001 -0.000 -0.000  0.544
atom   16   Tr[ns(na)] =   7.17321
    eigenvalues: 
  0.526  0.569  0.736  0.819  0.936
    eigenvectors:
  0.000  0.199  0.006  0.000  0.795
  1.000  0.000  0.000  0.000  0.000
  0.000  0.000  0.991  0.000  0.009
  0.000  0.801  0.003  0.000  0.196
  0.000  0.000  0.000  1.000  0.000
    occupations:
  0.861  0.000  0.018 -0.145 -0.000
  0.000  0.526 -0.000 -0.000 -0.003
  0.018 -0.000  0.738 -0.007  0.000
 -0.145 -0.000 -0.007  0.641  0.000
 -0.000 -0.003  0.000  0.000  0.819
atom   17   Tr[ns(na)] =   7.14904
    eigenvalues: 
  0.558  0.602  0.684  0.772  0.958
    eigenvectors:
  0.000  0.990  0.000  0.000  0.010
  0.000  0.000  0.017  0.983  0.000
  0.000  0.000  0.983  0.017  0.000
  0.000  0.010  0.000  0.000  0.990
  1.000  0.000  0.000  0.000  0.000
    occupations:
  0.606 -0.001 -0.000  0.035  0.001
 -0.001  0.771  0.011 -0.001 -0.001
 -0.000  0.011  0.686  0.002  0.000
  0.035 -0.001  0.002  0.954  0.000
  0.001 -0.001  0.000  0.000  0.558
atom   22   Tr[ns(na)] =   7.12947
    eigenvalues: 
  0.582  0.600  0.760  0.810  0.813
    eigenvectors:
  0.000  0.142  0.001  0.323  0.534
  1.000  0.000  0.000  0.000  0.000
  0.000  0.000  0.999  0.000  0.000
  0.000  0.857  0.000  0.054  0.089
  0.000  0.000  0.000  0.623  0.377
    occupations:
  0.781  0.000 -0.001 -0.074  0.001
  0.000  0.582  0.001  0.000  0.000
 -0.001  0.001  0.760  0.000  0.000
 -0.074  0.000  0.000  0.630 -0.000
  0.001  0.000  0.000 -0.000  0.811
atom   23   Tr[ns(na)] =   7.16915
    eigenvalues: 
  0.543  0.554  0.757  0.807  0.923
    eigenvectors:
  0.000  0.991  0.000  0.000  0.009
  0.000  0.000  0.000  1.000  0.000
  0.000  0.000  1.000  0.000  0.000
  0.000  0.009  0.000  0.000  0.991
  1.000  0.000  0.000  0.000  0.000
    occupations:
  0.558  0.000 -0.001  0.034  0.000
  0.000  0.806  0.000  0.000 -0.001
 -0.001  0.000  0.757 -0.002 -0.000
  0.034  0.000 -0.002  0.920 -0.000
  0.000 -0.001 -0.000 -0.000  0.543
N of occupied +U levels =  57.2415335
 --- exit write_ns ---

          k = 0.0000 0.0000 0.0000 ( 30363 PWs)   bands (ev):

   -74.5893 -74.5785 -74.3382 -74.3279 -74.1986 -74.1881 -74.0678 -74.0577
   -44.7479 -44.5861 -44.5721 -44.5652 -44.5617 -44.5502 -44.4754 -44.4607
   -44.4485 -44.4472 -44.3145 -44.2704 -44.2331 -44.2059 -44.1525 -44.1056
   -44.1037 -44.0898 -44.0810 -44.0162 -43.9874 -43.9768 -43.9479 -43.9088
   -21.0693 -20.5696 -20.5473 -20.3237 -20.3190 -20.1783 -19.8558 -19.7034
   -19.6125 -19.5632 -19.5286 -19.5054 -19.4542 -19.1986 -19.1174 -18.9862
   -18.9269 -18.7706  -9.2416  -9.1480  -9.0290  -8.3605  -8.2256  -8.0590
    -8.0571  -7.8053  -7.7001  -7.6953  -7.6522  -7.6443  -7.6073  -7.5886
    -7.4593  -7.4523  -7.2839  -7.1688  -7.1511  -6.9430  -6.7871  -6.6467
    -6.4013  -5.9887  -5.9029  -5.6423  -5.5374  -5.4690  -5.4552  -5.1756
    -5.1728  -5.0794  -4.9463  -4.9326  -4.8739  -4.7693  -4.7178  -4.6279
    -4.5609  -4.3960  -4.3062  -4.2518  -4.1603  -4.1107  -3.9051  -3.8927
    -3.7756  -3.6622  -3.5710  -3.4589  -3.2529  -3.2365  -3.1593  -2.7586
    -2.3963  -2.2519  -2.2245  -2.0396  -1.9187  -1.8068  -1.7929  -1.7390
    -1.6374  -1.5850  -1.5253  -1.3989  -1.3852  -1.3260  -1.0904  -1.0692
    -0.8797  -0.5913  -0.5241  -0.2869  -0.2175   0.0457   0.1552   0.2453
     0.4710   0.5095   1.3987   1.8160   2.1243   2.1982   2.3036   2.3450
     2.4894   2.5954   3.0024   3.4361   3.5571   3.5783   3.5967   3.6266
     3.8740   4.0784   4.2259   4.6751   5.0760   5.8801   6.1706   6.4418
     6.6799   7.0906   7.1434   7.1709   7.2069   7.3785   7.3790   7.4996
     7.7624   7.8576   7.9448   8.0036   8.0695   8.2551   8.2711   8.3479
     8.4264   8.4979   8.5825   8.7241   8.7317   8.7488   9.0277   9.0673
     9.1225   9.1931   9.2764   9.3189   9.3795   9.5952   9.7689   9.7915
     9.9077   9.9270  10.0598  10.2700  10.2785  10.6698  10.6783  10.7852
    10.8419  10.9765  11.0354  11.0895  11.2461  11.3488  11.3654  11.4511
    11.4595  11.5122  11.5843  11.6678  11.7003  11.7385  11.7479  11.7880
    11.9655  12.0136  12.0590  12.1237  12.2004  12.2796  12.3414  12.3681
    12.4500  12.4900  12.5405  12.6036  12.6847  12.7128  12.7161  12.8469
    12.9909  13.0353  13.0916  13.1389  13.2705  13.3477  13.3722  13.5373
    13.6191  13.6798  13.7743  13.8737  13.9497  14.0516  14.2003  14.2764
    14.3082  14.3984  14.5224  14.5803  14.7015  14.7212  14.9607  15.0036
    15.0206  15.2161  15.3433  15.4357  15.5095  15.5522  15.7481  15.8149
    15.8431  15.9150  15.9240  16.0032  16.1364  16.2455  16.2483  16.4581
    16.4663  16.6869  16.8743  16.8989  16.9491  17.0991  17.1808  17.2447
    17.2925  17.3224  17.4033  17.4280  17.5273  17.8496  17.8891  17.8945
    17.9492  18.0722  18.1204  18.2535  18.3473  18.4641  18.4958  18.4973
    18.6041  18.6195  18.6908  18.7444  18.8257  18.8755  18.9614  18.9828
    19.0210  19.0513  19.1483  19.2227  19.2876  19.2897  19.4300  19.4621
    19.5290  19.5517  19.6301  19.6734  19.7092  19.7548  19.8201  19.9141
    19.9467  19.9844  20.0590  20.1186  20.2280  20.2496  20.2547  20.3389
    20.4647  20.5396  20.6114  20.6992  20.7053  20.7401  20.7734  20.8021
    20.8137  20.8738  21.0232  21.1722  21.2218  21.2964  21.3605  21.4390
    21.4465  21.5634  21.6819  21.7217  21.7514  21.8144  21.9185  22.0146
    22.0330  22.1803  22.2579  22.2705

          k = 0.0000 0.2435 0.0000 ( 30432 PWs)   bands (ev):

   -74.5892 -74.5785 -74.3382 -74.3279 -74.1986 -74.1881 -74.0678 -74.0577
   -44.7479 -44.5861 -44.5721 -44.5644 -44.5614 -44.5515 -44.4753 -44.4609
   -44.4485 -44.4472 -44.3177 -44.2691 -44.2262 -44.2027 -44.1566 -44.1086
   -44.1066 -44.0898 -44.0780 -44.0174 -43.9873 -43.9769 -43.9479 -43.9089
   -21.0329 -20.5465 -20.4716 -20.3163 -20.2906 -20.1568 -19.8834 -19.8408
   -19.6930 -19.5536 -19.5320 -19.4627 -19.2927 -19.2272 -19.1908 -19.0676
   -18.9858 -18.7696  -9.2338  -8.7437  -8.6298  -8.4649  -8.2386  -8.0676
    -8.0547  -8.0240  -7.6517  -7.6479  -7.6084  -7.6083  -7.5708  -7.5671
    -7.5260  -7.4092  -7.3462  -7.1558  -7.0637  -6.7022  -6.6493  -6.3353
    -6.1223  -6.0894  -5.9938  -5.8606  -5.7947  -5.6872  -5.4880  -5.4342
    -5.1359  -5.0183  -5.0024  -4.9834  -4.9272  -4.8434  -4.7147  -4.6748
    -4.5455  -4.5316  -4.4134  -4.3589  -4.2603  -4.2000  -4.0635  -4.0419
    -4.0299  -3.8865  -3.6810  -3.5451  -3.4894  -3.1874  -3.1451  -2.7001
    -2.1778  -2.0978  -1.9605  -1.9506  -1.9362  -1.6849  -1.6655  -1.6126
    -1.5793  -1.5744  -1.5507  -1.5194  -1.4108  -1.3689  -1.2909  -1.0949
    -0.8931  -0.4744  -0.3771  -0.2203  -0.1021   0.0336   0.1516   0.2806
     0.3429   0.6914   1.3540   1.4209   1.4561   2.1378   2.1701   2.6879
     3.0019   3.3596   3.3708   3.4666   3.5889   3.6315   3.6435   3.6591
     3.7608   4.0672   4.4350   4.8651   5.2905   5.6287   5.8737   6.1454
     6.3111   6.4080   6.7350   6.8251   7.2291   7.2300   7.2834   7.4827
     7.4904   7.6916   7.9050   8.0684   8.1825   8.2228   8.2801   8.4595
     8.4822   8.6299   8.8257   8.8674   8.9650   8.9727   9.2027   9.2353
     9.4077   9.4882   9.5093   9.6436   9.6550   9.7559   9.8672   9.8808
     9.9565   9.9935  10.1169  10.1464  10.1765  10.3127  10.3389  10.3938
    10.4981  10.5625  10.6919  10.9474  11.0785  11.1138  11.1519  11.2011
    11.2825  11.2846  11.4185  11.4389  11.4883  11.6031  11.8487  11.8929
    12.0184  12.2527  12.3690  12.4363  12.4779  12.5226  12.5854  12.6340
    12.6626  12.7604  12.8123  13.0085  13.1150  13.1528  13.1728  13.2733
    13.3421  13.4631  13.5213  13.6498  13.6854  13.7388  13.7585  13.8483
    13.9248  14.0071  14.1005  14.2009  14.2122  14.2681  14.4053  14.4103
    14.4837  14.5965  14.6087  14.7144  14.7347  14.8626  15.0068  15.0285
    15.0746  15.1722  15.3135  15.4093  15.5071  15.5392  15.6129  15.7102
    15.7919  15.8424  15.8889  15.9852  15.9938  16.1595  16.2132  16.3077
    16.3343  16.4098  16.5998  16.6327  16.6463  16.8301  16.8360  16.8958
    17.0779  17.1577  17.1610  17.2839  17.3057  17.3555  17.3872  17.4155
    17.4635  17.5977  17.7514  17.7658  18.0949  18.2038  18.2184  18.2703
    18.2865  18.5508  18.5856  18.6129  18.6862  18.7402  18.7718  18.8725
    18.9732  18.9744  19.0351  19.0750  19.1080  19.1845  19.2310  19.3016
    19.3202  19.4205  19.5284  19.5452  19.6139  19.6533  19.7158  19.7175
    19.8423  19.8898  19.9918  19.9923  20.0172  20.0494  20.0934  20.1494
    20.1906  20.2624  20.2867  20.3687  20.4778  20.4859  20.5025  20.5541
    20.5833  20.6791  20.8802  20.9348  20.9796  21.0724  21.0939  21.1531
    21.1792  21.2270  21.2565  21.2642  21.3487  21.4194  21.4654  21.4984
    21.5296  21.6224  21.6398  21.7331

          k = 0.0000-0.4870 0.0000 ( 30448 PWs)   bands (ev):

   -74.5892 -74.5785 -74.3382 -74.3279 -74.1986 -74.1881 -74.0677 -74.0577
   -44.7480 -44.5861 -44.5721 -44.5637 -44.5610 -44.5527 -44.4751 -44.4610
   -44.4485 -44.4472 -44.3207 -44.2679 -44.2177 -44.1997 -44.1624 -44.1110
   -44.1093 -44.0898 -44.0754 -44.0187 -43.9871 -43.9769 -43.9479 -43.9090
   -20.9969 -20.5458 -20.3257 -20.3135 -20.2800 -20.0914 -19.9599 -19.9124
   -19.7710 -19.5569 -19.5276 -19.3886 -19.3328 -19.2392 -19.2368 -19.1618
   -18.9852 -18.7698  -9.2287  -8.5664  -8.2358  -8.2281  -8.1689  -8.1098
    -8.0724  -7.9882  -7.6482  -7.6097  -7.5950  -7.5454  -7.4832  -7.4811
    -7.4542  -7.3872  -7.2259  -7.1928  -6.7835  -6.7381  -6.6750  -6.4806
    -6.3285  -6.2615  -6.1237  -5.9374  -5.7366  -5.7170  -5.5549  -5.4880
    -5.2943  -5.2588  -5.1900  -5.1784  -4.9945  -4.9613  -4.9101  -4.7685
    -4.6401  -4.5096  -4.3934  -4.2778  -4.2729  -4.2277  -4.2128  -3.9493
    -3.9015  -3.8224  -3.7153  -3.6926  -3.5769  -3.1627  -3.0559  -2.6120
    -2.5838  -2.2984  -2.1569  -2.0902  -1.9146  -1.8819  -1.5892  -1.5754
    -1.4237  -1.3691  -1.3222  -1.2787  -1.2427  -1.1413  -1.0697  -1.0055
    -0.8662  -0.7726  -0.4853  -0.2609  -0.0326  -0.0322   0.1654   0.3716
     0.3982   0.8941   1.0058   1.0772   1.4392   2.1512   2.4856   2.9347
     3.0018   3.1465   3.4110   3.4459   3.6516   3.7025   3.8764   3.8871
     4.3142   4.3989   4.7780   4.9255   5.1178   5.2205   5.5151   5.6919
     6.0138   6.2091   6.6983   6.9099   6.9958   7.0085   7.2136   7.4085
     7.6055   7.6136   7.7381   7.9027   8.1219   8.2007   8.5209   8.5540
     8.6743   8.7846   8.9074   8.9325   8.9936   9.0828   9.1346   9.1757
     9.2513   9.3638   9.4805   9.4895   9.5457   9.5482   9.5739   9.7700
     9.8608   9.9431  10.0438  10.1347  10.1452  10.1781  10.2998  10.6140
    10.7426  10.9241  10.9526  10.9663  11.0434  11.3366  11.3709  11.4723
    11.6279  11.6404  11.6447  11.7121  11.7987  11.8179  11.8565  12.0310
    12.1724  12.3256  12.3408  12.4055  12.5458  12.5821  12.5986  12.8117
    12.8167  12.8505  12.9461  13.0193  13.0474  13.1716  13.1934  13.3695
    13.4968  13.5050  13.5436  13.6083  13.6510  13.7540  13.8159  13.9276
    13.9490  14.1147  14.2542  14.2971  14.4093  14.4537  14.5471  14.6074
    14.6306  14.7220  14.9844  15.0020  15.1446  15.1601  15.2471  15.3139
    15.3328  15.5248  15.6213  15.6597  15.7525  15.7943  15.8257  15.8602
    15.9573  16.0187  16.1207  16.1733  16.2273  16.2406  16.2462  16.2631
    16.4138  16.4415  16.4760  16.5181  16.5186  16.5270  16.6490  16.7629
    16.8215  16.9009  16.9385  16.9679  17.0208  17.0315  17.2323  17.2951
    17.3515  17.3818  17.4737  17.5296  17.6209  17.7378  17.8230  17.8971
    17.9740  18.0059  18.0883  18.1704  18.2958  18.3515  18.3946  18.4021
    18.4632  18.4713  18.4964  18.5717  18.6076  18.6610  18.7404  18.7622
    18.8878  18.9930  19.0120  19.0167  19.1473  19.3383  19.4925  19.5045
    19.5975  19.7399  19.9215  19.9322  19.9914  20.0672  20.1539  20.2163
    20.3115  20.3568  20.3710  20.4671  20.4942  20.5076  20.5255  20.5433
    20.5597  20.5848  20.6195  20.7119  20.7251  20.7493  20.7536  20.7753
    20.8198  20.9188  20.9478  21.0037  21.0899  21.1429  21.2181  21.2203
    21.3282  21.3866  21.4919  21.5074

          k = 0.2500 0.0000 0.0000 ( 30394 PWs)   bands (ev):

   -74.5876 -74.5800 -74.3366 -74.3293 -74.1970 -74.1895 -74.0662 -74.0591
   -44.7213 -44.5916 -44.5827 -44.5740 -44.5624 -44.5523 -44.4711 -44.4588
   -44.4517 -44.4498 -44.2894 -44.2444 -44.2295 -44.2095 -44.1701 -44.1167
   -44.1103 -44.1077 -44.0564 -44.0120 -43.9916 -43.9727 -43.9521 -43.9343
   -20.9631 -20.5017 -20.4677 -20.4321 -20.2449 -20.1884 -19.8373 -19.7586
   -19.6824 -19.5435 -19.4858 -19.4842 -19.3862 -19.1985 -19.1930 -19.0669
   -19.0092 -18.8461  -9.0852  -8.9600  -8.8380  -8.4761  -8.1194  -8.1063
    -7.9781  -7.9374  -7.9106  -7.7737  -7.7164  -7.6204  -7.6038  -7.5051
    -7.3887  -7.3327  -7.2512  -7.1445  -6.8208  -6.7843  -6.7135  -6.7038
    -6.4703  -5.9757  -5.7923  -5.7243  -5.5326  -5.5116  -5.4233  -5.3855
    -5.3396  -5.2777  -5.1794  -5.1125  -4.9794  -4.8193  -4.7363  -4.7344
    -4.6436  -4.4689  -4.4404  -4.2923  -4.1975  -4.1344  -4.1125  -3.9215
    -3.8609  -3.8383  -3.7633  -3.4940  -3.3688  -3.1237  -3.1005  -2.9325
    -2.2366  -2.0850  -2.0152  -1.9582  -1.7954  -1.6732  -1.6561  -1.5587
    -1.4655  -1.4231  -1.3431  -1.3298  -1.2862  -1.2447  -1.1094  -0.8287
    -0.7597  -0.6507  -0.6223  -0.4654  -0.2807  -0.0901  -0.0206   0.3727
     0.4690   0.5836   1.5988   1.9400   2.0707   2.3222   2.3860   2.4424
     2.4599   2.6693   2.7482   3.1210   3.2903   3.5211   3.5259   3.6459
     3.8339   4.2181   4.4686   4.9135   5.3441   5.6371   5.8327   6.1123
     6.3822   6.4524   6.7111   6.7490   7.2197   7.3870   7.4419   7.6147
     7.6383   7.7433   8.0104   8.0993   8.1264   8.2054   8.3223   8.5053
     8.6067   8.6316   8.7282   8.8486   9.0515   9.0819   9.1470   9.2495
     9.3092   9.4513   9.4728   9.5465   9.5974   9.6374   9.8642   9.9215
    10.0050  10.0900  10.1550  10.1648  10.2248  10.3485  10.4599  10.4878
    10.4913  10.6942  10.7812  10.8959  11.0566  11.1307  11.2478  11.3125
    11.3396  11.4128  11.4785  11.5406  11.5543  11.5961  11.7224  11.7445
    11.8963  12.0469  12.1805  12.2793  12.3281  12.4500  12.5477  12.5740
    12.7244  12.7320  12.7561  12.8171  12.9848  13.0660  13.1781  13.2313
    13.3656  13.3965  13.5570  13.7422  13.8164  13.8307  13.8842  13.8959
    13.9786  14.1014  14.1355  14.2178  14.2370  14.3085  14.3371  14.3720
    14.5112  14.5304  14.6512  14.6537  14.8297  14.9536  14.9643  15.0110
    15.1201  15.2027  15.4331  15.5095  15.5598  15.5665  15.7186  15.8082
    15.8110  15.8521  15.9404  15.9704  16.0388  16.0438  16.2153  16.2238
    16.2741  16.4070  16.4799  16.5315  16.6507  16.6918  16.8464  16.8891
    16.9465  16.9511  17.2617  17.2731  17.3229  17.3749  17.4558  17.5360
    17.5827  17.6647  17.7513  17.7612  17.9406  18.0039  18.1547  18.2993
    18.3026  18.3604  18.4532  18.4947  18.6254  18.7324  18.8277  18.9866
    19.0424  19.0824  19.1603  19.2291  19.2761  19.3290  19.3502  19.3915
    19.4252  19.4752  19.4841  19.5187  19.5970  19.6787  19.7183  19.7800
    19.7841  19.8154  19.8657  19.9754  19.9988  20.0019  20.1008  20.1678
    20.2309  20.2392  20.2595  20.4926  20.5319  20.5934  20.6334  20.6736
    20.7443  20.7865  20.8256  20.8277  20.8797  20.9018  20.9246  21.0223
    21.0457  21.1253  21.1862  21.1992  21.2667  21.2812  21.4168  21.5092
    21.5408  21.5605  21.6044  21.6206

          k = 0.2500 0.2435 0.0000 ( 30434 PWs)   bands (ev):

   -74.5876 -74.5800 -74.3366 -74.3293 -74.1970 -74.1896 -74.0662 -74.0591
   -44.7214 -44.5915 -44.5827 -44.5740 -44.5616 -44.5531 -44.4710 -44.4590
   -44.4515 -44.4500 -44.2924 -44.2435 -44.2258 -44.2061 -44.1686 -44.1166
   -44.1156 -44.1094 -44.0550 -44.0130 -43.9917 -43.9728 -43.9521 -43.9344
   -20.9325 -20.5003 -20.4277 -20.3852 -20.2303 -20.1309 -19.8538 -19.7828
   -19.6886 -19.5573 -19.5206 -19.4954 -19.3286 -19.2906 -19.1964 -19.1415
   -19.0675 -18.8452  -9.0716  -8.5702  -8.4961  -8.4577  -8.1031  -8.0984
    -7.9592  -7.9234  -7.9207  -7.7164  -7.6161  -7.6141  -7.5425  -7.4795
    -7.3406  -7.3154  -7.2209  -7.1916  -6.7996  -6.7218  -6.6952  -6.5333
    -6.4147  -6.0793  -5.9524  -5.8130  -5.7722  -5.5491  -5.5360  -5.4375
    -5.4185  -5.3130  -5.2054  -5.1707  -5.0465  -4.9610  -4.9431  -4.8801
    -4.7312  -4.6597  -4.5539  -4.4552  -4.2906  -4.2203  -4.1200  -4.0283
    -4.0261  -3.7429  -3.7362  -3.4966  -3.4760  -3.1331  -3.0383  -2.8057
    -2.2120  -2.1278  -1.9527  -1.8040  -1.6548  -1.6543  -1.5696  -1.4662
    -1.4142  -1.4054  -1.3639  -1.2989  -1.2924  -1.2136  -1.0963  -0.9728
    -0.6502  -0.5541  -0.4764  -0.3598  -0.3128  -0.1022  -0.0065   0.1718
     0.5745   0.7565   1.4786   1.6379   1.6827   2.1286   2.2208   2.5471
     2.7251   3.0419   3.1749   3.1766   3.2945   3.3877   3.6606   3.7147
     4.0758   4.2890   4.6848   5.1094   5.5464   5.8055   5.8662   5.9793
     6.1115   6.4158   6.5741   6.5929   6.6898   6.9220   6.9901   7.2665
     7.4776   7.5708   7.7576   7.9037   7.9480   8.2134   8.2540   8.3735
     8.3873   8.4773   8.6873   8.7700   8.8269   8.9867   9.1718   9.1733
     9.2557   9.4704   9.4950   9.7648   9.7722   9.9070   9.9445  10.0583
    10.1340  10.2570  10.3673  10.4371  10.4458  10.5887  10.5977  10.8209
    10.8376  10.9031  10.9888  11.1514  11.2725  11.2896  11.4011  11.5105
    11.5928  11.6321  11.6828  11.8022  11.8562  11.9250  12.0393  12.0427
    12.1488  12.2601  12.3487  12.4517  12.5092  12.5383  12.6055  12.6690
    12.7109  12.7565  12.8952  12.9153  12.9955  13.0967  13.1674  13.3254
    13.3486  13.4518  13.5354  13.5977  13.7110  13.7796  13.8346  13.9374
    14.0012  14.0299  14.1933  14.2926  14.2979  14.3944  14.4957  14.5087
    14.5515  14.6779  14.7313  14.7956  14.8413  14.9785  14.9862  15.0930
    15.2473  15.3759  15.5022  15.5649  15.6567  15.6603  15.7683  15.8162
    15.8405  15.9087  15.9454  15.9628  16.0377  16.1541  16.1711  16.2171
    16.3361  16.4049  16.4223  16.5466  16.5841  16.6943  16.7431  16.7964
    16.8506  16.8903  16.9872  16.9878  17.0819  17.2046  17.2051  17.3949
    17.4103  17.4295  17.5100  17.5488  17.6000  17.6418  17.7425  17.7443
    17.8556  17.8893  18.0106  18.0144  18.0845  18.1475  18.1804  18.2896
    18.3020  18.4655  18.5063  18.6026  18.6107  18.7437  18.7626  18.8832
    18.9597  19.0483  19.1393  19.1848  19.2189  19.2406  19.3358  19.3894
    19.4435  19.5385  19.5825  19.8007  19.8210  19.8447  19.9422  19.9456
    20.0240  20.1152  20.2061  20.2645  20.3970  20.5114  20.6199  20.6952
    20.7404  20.7597  20.8728  20.9144  20.9904  21.0121  21.0234  21.1201
    21.2480  21.2822  21.3351  21.3438  21.3986  21.4254  21.4781  21.6184
    21.6449  21.6823  21.7271  21.8371

          k = 0.2500-0.4870 0.0000 ( 30468 PWs)   bands (ev):

   -74.5876 -74.5800 -74.3366 -74.3293 -74.1970 -74.1896 -74.0662 -74.0591
   -44.7214 -44.5915 -44.5827 -44.5740 -44.5608 -44.5539 -44.4708 -44.4591
   -44.4512 -44.4503 -44.2962 -44.2425 -44.2181 -44.2008 -44.1738 -44.1182
   -44.1165 -44.1120 -44.0538 -44.0141 -43.9918 -43.9728 -43.9521 -43.9344
   -20.9027 -20.4990 -20.4229 -20.3043 -20.1802 -20.0348 -19.8693 -19.8595
   -19.6897 -19.6031 -19.5094 -19.4989 -19.3718 -19.3133 -19.2947 -19.1923
   -19.0681 -18.8453  -9.0639  -8.5147  -8.1459  -8.0957  -7.9894  -7.9865
    -7.9197  -7.8873  -7.7521  -7.6791  -7.5814  -7.5610  -7.5152  -7.4268
    -7.3089  -7.2957  -7.2063  -7.1005  -6.8106  -6.7698  -6.5626  -6.5035
    -6.4366  -6.1900  -6.0506  -5.9449  -5.9155  -5.8546  -5.8126  -5.6453
    -5.4894  -5.4545  -5.3677  -5.2782  -5.2695  -5.1914  -5.0815  -4.9686
    -4.9679  -4.8356  -4.5046  -4.3686  -4.3303  -4.1963  -4.0376  -3.9149
    -3.8429  -3.7387  -3.5763  -3.5671  -3.4647  -3.1517  -3.1354  -2.6416
    -2.3536  -2.2587  -2.0811  -1.9210  -1.8833  -1.6131  -1.4691  -1.3826
    -1.3450  -1.3157  -1.3069  -1.2580  -0.9738  -0.9714  -0.8622  -0.8466
    -0.7193  -0.6133  -0.5540  -0.2966  -0.2499  -0.1451  -0.1179   0.2148
     0.6695   0.9177   1.1420   1.2361   1.6551   2.1397   2.4153   2.6543
     2.6748   2.7539   3.1485   3.2627   3.4750   3.6201   3.7495   3.8426
     4.5704   4.6051   5.0324   5.1871   5.3596   5.4814   5.7637   5.9607
     6.0996   6.2057   6.2745   6.5033   6.7980   6.9665   7.0432   7.2249
     7.2555   7.3247   7.3767   7.5273   7.6031   7.8409   8.0686   8.1650
     8.4062   8.4101   8.5018   8.5506   8.8230   8.8569   8.9281   9.1184
     9.1749   9.3895   9.3949   9.7697   9.8576   9.8709  10.1201  10.2010
    10.2339  10.3534  10.3625  10.6884  10.7469  11.0408  11.1249  11.2230
    11.2855  11.3085  11.3894  11.5005  11.5229  11.6293  11.6807  11.7346
    11.8363  11.8585  11.9396  12.0094  12.0667  12.0692  12.2078  12.2857
    12.3828  12.5075  12.5217  12.5575  12.6532  12.7689  12.7945  12.8078
    12.9566  13.0052  13.0496  13.1177  13.2176  13.3131  13.3369  13.4156
    13.5071  13.5308  13.6171  13.6549  13.6942  13.7918  13.8051  13.8318
    13.9450  14.0947  14.1214  14.3293  14.3517  14.4104  14.5051  14.5882
    14.6241  14.6882  14.7078  14.7684  14.8465  14.8860  14.9251  14.9297
    15.0172  15.0658  15.1706  15.2148  15.2483  15.3785  15.4289  15.4677
    15.6503  15.6895  15.7643  15.8799  15.8959  16.0182  16.1200  16.1520
    16.2361  16.3064  16.3157  16.4326  16.4548  16.4775  16.6416  16.7041
    16.7109  16.8071  16.8599  16.9927  17.0014  17.0250  17.0670  17.1985
    17.2369  17.3202  17.3336  17.4544  17.4653  17.4935  17.5982  17.6201
    17.7550  17.8279  17.8397  17.9450  18.1348  18.2322  18.2332  18.2888
    18.3915  18.4047  18.4537  18.4828  18.5029  18.5461  18.6718  18.7420
    18.7998  18.8057  18.8719  18.8757  18.9489  19.0516  19.0911  19.1948
    19.2725  19.2766  19.3406  19.4443  19.6370  19.6737  19.6987  19.7305
    19.7758  19.8928  19.9654  20.0039  20.0446  20.0611  20.1125  20.2206
    20.2805  20.3230  20.5671  20.6082  20.6795  20.7046  20.8008  20.8985
    20.9644  20.9717  21.0420  21.0521  21.0937  21.1719  21.2183  21.3826
    21.4290  21.5881  21.5910  21.7280

          k =-0.5000 0.0000 0.0000 ( 30480 PWs)   bands (ev):

   -74.5840 -74.5836 -74.3331 -74.3327 -74.1934 -74.1930 -74.0627 -74.0625
   -44.6568 -44.6564 -44.5789 -44.5786 -44.5576 -44.5572 -44.4615 -44.4611
   -44.4546 -44.4541 -44.2320 -44.2317 -44.2155 -44.2153 -44.1813 -44.1809
   -44.1117 -44.1114 -44.0021 -44.0016 -43.9965 -43.9963 -43.9620 -43.9618
   -20.7023 -20.7022 -20.3990 -20.3990 -20.1244 -20.1242 -19.9519 -19.9518
   -19.5634 -19.5634 -19.3712 -19.3711 -19.3496 -19.3496 -19.2017 -19.2017
   -19.0111 -19.0111  -8.7303  -8.7303  -8.4823  -8.4822  -8.3461  -8.3460
    -8.0769  -8.0769  -7.9631  -7.9631  -7.6867  -7.6866  -7.5281  -7.5281
    -7.2226  -7.2226  -7.1007  -7.1007  -6.6222  -6.6221  -6.3760  -6.3759
    -6.2276  -6.2276  -5.9661  -5.9661  -5.8145  -5.8144  -5.5828  -5.5827
    -5.3682  -5.3681  -5.1318  -5.1318  -4.9951  -4.9951  -4.8692  -4.8691
    -4.7647  -4.7647  -4.3254  -4.3253  -4.2300  -4.2299  -4.1994  -4.1993
    -3.9782  -3.9782  -3.3713  -3.3713  -3.2874  -3.2874  -3.0879  -3.0879
    -2.1429  -2.1427  -1.8636  -1.8635  -1.5899  -1.5898  -1.5838  -1.5837
    -1.3109  -1.3108  -1.1354  -1.1353  -1.0137  -1.0137  -0.8927  -0.8926
    -0.8010  -0.8009  -0.5957  -0.5956  -0.3030  -0.3029   0.0250   0.0250
     0.6684   0.6686   2.0860   2.0861   2.1496   2.1496   2.3869   2.3870
     2.7220   2.7223   2.7379   2.7381   2.8885   2.8887   3.6102   3.6103
     4.5803   4.5803   4.7735   4.7735   5.1960   5.1960   5.6140   5.6140
     6.1055   6.1055   6.7519   6.7520   7.1734   7.1735   7.4189   7.4190
     7.9617   7.9617   8.0891   8.0892   8.3089   8.3089   8.4109   8.4109
     8.7291   8.7291   8.8045   8.8045   8.9155   8.9155   9.2115   9.2115
     9.3330   9.3330   9.4461   9.4462   9.5968   9.5968   9.9415   9.9416
    10.0537  10.0538  10.1737  10.1737  10.3224  10.3225  10.4209  10.4211
    10.6583  10.6583  10.8284  10.8285  10.9792  10.9792  11.1394  11.1395
    11.5609  11.5609  11.7242  11.7243  11.9544  11.9544  12.1061  12.1062
    12.2543  12.2543  12.4568  12.4569  12.4866  12.4867  12.7212  12.7212
    12.8020  12.8021  12.9745  12.9745  13.1048  13.1048  13.2956  13.2956
    13.5283  13.5283  13.6794  13.6795  13.8313  13.8314  13.9740  13.9740
    14.2374  14.2375  14.2681  14.2681  14.4771  14.4772  14.5196  14.5196
    14.5710  14.5711  14.8068  14.8069  14.8646  14.8646  15.1268  15.1268
    15.2364  15.2364  15.3074  15.3074  15.5089  15.5089  15.9330  15.9330
    16.0694  16.0694  16.3693  16.3693  16.4096  16.4096  16.4496  16.4497
    16.5475  16.5475  16.6289  16.6289  16.6798  16.6799  16.7445  16.7445
    16.8329  16.8329  16.8859  16.8859  16.9852  16.9852  17.0964  17.0965
    17.2339  17.2340  17.4350  17.4351  17.6460  17.6460  17.8266  17.8267
    17.9865  17.9865  18.0882  18.0883  18.2993  18.2993  18.5444  18.5444
    18.5841  18.5842  18.7379  18.7379  18.9503  18.9504  18.9810  18.9810
    19.2316  19.2316  19.3493  19.3494  19.4191  19.4191  19.4875  19.4875
    19.6247  19.6248  19.7594  19.7594  19.8159  19.8159  19.8869  19.8869
    19.9931  19.9931  20.0448  20.0449  20.2498  20.2498  20.3337  20.3338
    20.3777  20.3777  20.4787  20.4787  20.6046  20.6047  20.7369  20.7369
    20.8376  20.8376  21.1278  21.1278  21.2355  21.2355  21.2914  21.2915
    21.4184  21.4184  21.5581  21.5591

          k =-0.5000 0.2435 0.0000 ( 30444 PWs)   bands (ev):

   -74.5840 -74.5836 -74.3331 -74.3327 -74.1934 -74.1930 -74.0627 -74.0625
   -44.6568 -44.6564 -44.5789 -44.5786 -44.5575 -44.5571 -44.4613 -44.4609
   -44.4547 -44.4543 -44.2406 -44.2333 -44.2121 -44.2026 -44.1808 -44.1804
   -44.1160 -44.1137 -44.0026 -44.0022 -43.9962 -43.9960 -43.9620 -43.9618
   -20.6860 -20.6858 -20.3923 -20.3922 -20.0513 -20.0512 -19.8915 -19.8912
   -19.5868 -19.5847 -19.4685 -19.4681 -19.3462 -19.3443 -19.2896 -19.2856
   -19.0105 -19.0104  -8.7045  -8.7042  -8.1775  -8.1743  -8.0932  -8.0913
    -8.0644  -8.0613  -7.9224  -7.9200  -7.5841  -7.5763  -7.4421  -7.4377
    -7.3099  -7.2659  -7.0512  -7.0121  -6.6212  -6.5575  -6.4995  -6.4929
    -6.3624  -6.3450  -6.1769  -6.1682  -6.0409  -5.9721  -5.7164  -5.7106
    -5.3594  -5.3524  -5.2504  -5.2097  -5.0690  -5.0376  -4.9478  -4.9198
    -4.7944  -4.7752  -4.6866  -4.6566  -4.3287  -4.2471  -4.2024  -4.1430
    -3.9718  -3.9231  -3.4116  -3.3858  -3.3423  -3.2742  -3.0997  -2.9331
    -2.1496  -2.1121  -1.7641  -1.7604  -1.6324  -1.5687  -1.4000  -1.3854
    -1.2574  -1.2504  -1.1874  -1.1852  -0.9464  -0.9411  -0.8746  -0.8744
    -0.6795  -0.6761  -0.5288  -0.4808  -0.3593  -0.3537  -0.0727  -0.0578
     0.7802   0.7805   1.9819   1.9824   2.1340   2.1459   2.1892   2.1938
     2.3267   2.3278   2.8879   2.8997   3.2256   3.2265   3.7065   3.7133
     4.7884   4.7949   4.9251   4.9252   5.4105   5.4110   5.8063   5.8083
     6.2342   6.2520   6.5297   6.5498   6.8035   6.8107   7.1578   7.1580
     7.2934   7.3032   7.4485   7.4510   7.7133   7.7177   8.1383   8.1567
     8.4116   8.4253   8.5830   8.6174   8.9392   8.9598   9.0657   9.1121
     9.3276   9.4212   9.7974   9.8023  10.0560  10.0729  10.2197  10.2222
    10.3950  10.4086  10.4744  10.4981  10.7650  10.7978  10.9103  10.9128
    11.1426  11.1442  11.2186  11.2216  11.2819  11.2845  11.4693  11.4822
    11.8390  11.8398  12.0729  12.0923  12.2047  12.2287  12.2543  12.2811
    12.4094  12.4203  12.5043  12.5339  12.6454  12.6548  12.8868  12.9004
    13.0284  13.0491  13.1480  13.1565  13.2883  13.3186  13.3612  13.3711
    13.4708  13.5149  13.6886  13.7142  13.8449  13.8583  14.0377  14.0422
    14.1319  14.1777  14.2747  14.2958  14.5080  14.5098  14.5928  14.6340
    14.7559  14.7655  14.7836  14.8052  14.8767  14.8824  15.0724  15.0983
    15.1238  15.1422  15.1796  15.2296  15.2982  15.3015  15.4418  15.4602
    15.6276  15.6278  15.7094  15.7158  15.7878  15.7930  15.9657  15.9731
    16.1464  16.1524  16.3398  16.3411  16.3945  16.4020  16.5875  16.6064
    16.6478  16.7053  16.7280  16.7597  16.7978  16.8003  17.0132  17.0257
    17.1652  17.1776  17.2771  17.2808  17.4333  17.4694  17.5396  17.6100
    17.7468  17.7502  17.9195  17.9330  18.0664  18.0969  18.1798  18.2078
    18.3376  18.3484  18.4698  18.4748  18.5511  18.5561  18.7488  18.7748
    18.8173  18.8310  18.9633  18.9717  19.0336  19.0343  19.1038  19.1123
    19.3554  19.3745  19.4765  19.4904  19.6406  19.6833  19.7403  19.7413
    19.8453  19.8567  20.0643  20.0814  20.1182  20.1314  20.3282  20.3308
    20.4328  20.4390  20.6319  20.6375  20.7078  20.7428  20.7916  20.8731
    20.9850  20.9956  21.1385  21.1948  21.3431  21.3704  21.5781  21.5876
    21.6520  21.6525  21.7754  21.7762

          k =-0.5000-0.4870 0.0000 ( 30440 PWs)   bands (ev):

   -74.5840 -74.5836 -74.3331 -74.3327 -74.1934 -74.1930 -74.0627 -74.0625
   -44.6568 -44.6564 -44.5789 -44.5786 -44.5575 -44.5571 -44.4611 -44.4608
   -44.4549 -44.4544 -44.2411 -44.2409 -44.2002 -44.2000 -44.1803 -44.1799
   -44.1185 -44.1182 -44.0032 -44.0027 -43.9958 -43.9957 -43.9620 -43.9618
   -20.6698 -20.6698 -20.3868 -20.3868 -19.9263 -19.9263 -19.7927 -19.7925
   -19.7039 -19.7038 -19.5037 -19.5036 -19.4448 -19.4448 -19.3234 -19.3233
   -19.0103 -19.0103  -8.6867  -8.6867  -8.0676  -8.0675  -8.0288  -8.0288
    -7.6251  -7.6250  -7.5094  -7.5093  -7.4507  -7.4507  -7.3410  -7.3410
    -7.3181  -7.3181  -7.0810  -7.0809  -6.8960  -6.8960  -6.7440  -6.7439
    -6.4286  -6.4285  -6.2127  -6.2127  -5.9733  -5.9733  -5.7471  -5.7471
    -5.6069  -5.6068  -5.4365  -5.4365  -5.3728  -5.3728  -5.2796  -5.2796
    -5.0521  -5.0521  -4.5517  -4.5516  -4.0850  -4.0849  -3.9129  -3.9128
    -3.8554  -3.8554  -3.6698  -3.6697  -3.3310  -3.3310  -2.7662  -2.7662
    -2.0475  -2.0474  -1.9574  -1.9573  -1.7017  -1.7016  -1.5243  -1.5242
    -1.1450  -1.1449  -0.9431  -0.9430  -0.7780  -0.7779  -0.7163  -0.7163
    -0.6050  -0.6049  -0.5097  -0.5095  -0.3281  -0.3280  -0.1328  -0.1327
     0.8736   0.8739   1.6778   1.6781   1.8133   1.8134   2.2408   2.2409
     2.2691   2.2692   3.0643   3.0644   3.4550   3.4551   3.7210   3.7212
     5.1918   5.1919   5.2147   5.2148   5.7330   5.7330   5.8964   5.8964
     6.0728   6.0728   6.2097   6.2097   6.4685   6.4685   6.6946   6.6946
     6.9847   6.9848   7.2747   7.2748   7.6799   7.6799   7.9796   7.9797
     8.0992   8.0992   8.2689   8.2690   8.7975   8.7976   9.1103   9.1103
     9.2486   9.2486   9.5949   9.5949   9.9160   9.9160  10.3473  10.3474
    10.6080  10.6080  10.8847  10.8847  10.9886  10.9886  11.3511  11.3511
    11.7542  11.7543  11.9056  11.9057  12.1129  12.1129  12.1396  12.1397
    12.3249  12.3249  12.3861  12.3862  12.5249  12.5250  12.6919  12.6919
    12.8682  12.8683  13.1445  13.1445  13.2241  13.2242  13.2816  13.2817
    13.3382  13.3382  13.4309  13.4309  13.5154  13.5154  13.5440  13.5441
    13.6673  13.6674  13.7133  13.7133  13.7655  13.7656  13.8322  13.8322
    13.8454  13.8455  14.1022  14.1023  14.1428  14.1429  14.1740  14.1740
    14.3260  14.3260  14.4089  14.4089  14.5444  14.5444  14.6078  14.6078
    14.7531  14.7531  14.8568  14.8568  15.1085  15.1085  15.1784  15.1785
    15.3367  15.3368  15.4400  15.4400  15.4633  15.4633  15.5663  15.5663
    15.8052  15.8052  15.9245  15.9246  15.9982  15.9982  16.2138  16.2138
    16.3446  16.3447  16.4631  16.4632  16.6739  16.6740  16.7746  16.7746
    16.9567  16.9568  17.0971  17.0971  17.2050  17.2050  17.3198  17.3198
    17.3909  17.3910  17.6313  17.6313  17.6912  17.6912  17.8581  17.8581
    18.3118  18.3119  18.4809  18.4809  18.5104  18.5104  18.5917  18.5917
    18.7151  18.7152  18.8846  18.8847  19.0196  19.0196  19.4126  19.4126
    19.5320  19.5321  19.6122  19.6122  19.7481  19.7482  19.9679  19.9679
    20.3439  20.3439  20.5055  20.5055  20.6823  20.6823  20.8207  20.8207
    20.9453  20.9453  21.0344  21.0344  21.0816  21.0816  21.1609  21.1609
    21.2204  21.2204  21.3010  21.3010  21.4310  21.4311  21.4902  21.4902
    21.5519  21.5520  21.6366  21.6367

          k =-0.2500 0.2435 0.0000 ( 30434 PWs)   bands (ev):

   -74.5876 -74.5800 -74.3366 -74.3293 -74.1970 -74.1896 -74.0662 -74.0591
   -44.7214 -44.5916 -44.5827 -44.5740 -44.5616 -44.5531 -44.4710 -44.4590
   -44.4515 -44.4500 -44.2935 -44.2434 -44.2225 -44.2040 -44.1747 -44.1167
   -44.1128 -44.1103 -44.0551 -44.0130 -43.9917 -43.9728 -43.9521 -43.9343
   -20.9326 -20.5004 -20.4274 -20.3851 -20.2300 -20.1313 -19.8537 -19.7826
   -19.6864 -19.5621 -19.5217 -19.4949 -19.3253 -19.2904 -19.1963 -19.1424
   -19.0675 -18.8452  -9.0714  -8.5701  -8.4971  -8.4564  -8.1091  -8.1037
    -7.9551  -7.9203  -7.9035  -7.7253  -7.6151  -7.6151  -7.5426  -7.4846
    -7.3431  -7.3417  -7.2117  -7.1911  -6.8030  -6.7092  -6.6760  -6.5054
    -6.4231  -6.0889  -5.9519  -5.8526  -5.7664  -5.5707  -5.4776  -5.4387
    -5.4084  -5.2972  -5.2738  -5.1753  -5.0397  -4.9868  -4.9083  -4.8637
    -4.7288  -4.6882  -4.5441  -4.4730  -4.2403  -4.2216  -4.1021  -4.0629
    -3.9564  -3.8345  -3.7623  -3.4673  -3.4630  -3.1356  -3.0926  -2.7222
    -2.2107  -2.1330  -1.9689  -1.8000  -1.6956  -1.6235  -1.5812  -1.4636
    -1.4331  -1.4141  -1.3492  -1.3007  -1.2927  -1.1731  -1.0928  -0.9944
    -0.6554  -0.5302  -0.4835  -0.3713  -0.3184  -0.1001   0.0013   0.1688
     0.5745   0.7563   1.4799   1.6383   1.6794   2.1285   2.2233   2.5479
     2.7257   3.0379   3.1749   3.1848   3.2889   3.3894   3.6529   3.7202
     4.0734   4.2898   4.6845   5.1103   5.5523   5.8187   5.8793   5.9798
     6.1076   6.4137   6.5743   6.5923   6.6869   6.9080   6.9930   7.2193
     7.4886   7.5632   7.7595   7.9177   7.9349   8.2112   8.2666   8.3905
     8.4034   8.4725   8.6874   8.7336   8.8477   8.9914   9.1603   9.1756
     9.2464   9.4746   9.5044   9.7706   9.7956   9.8960   9.9527  10.0309
    10.1370  10.2583  10.3674  10.4282  10.4401  10.5887  10.6673  10.7190
    10.8401  10.9032  11.0001  11.1252  11.2723  11.2931  11.4391  11.5071
    11.6006  11.6322  11.6623  11.8072  11.8537  11.9566  12.0465  12.0551
    12.1551  12.2658  12.3725  12.4450  12.4986  12.5392  12.6086  12.6552
    12.7597  12.7811  12.9155  12.9165  12.9562  13.1084  13.2038  13.3186
    13.3378  13.4515  13.5107  13.6135  13.7080  13.7504  13.8553  13.9184
    13.9693  14.0313  14.1616  14.2917  14.3143  14.3755  14.4981  14.5044
    14.5687  14.6658  14.7285  14.7996  14.8545  14.9753  15.0330  15.0643
    15.2027  15.3522  15.5212  15.5645  15.6683  15.6928  15.7640  15.8406
    15.8409  15.9022  15.9423  15.9514  16.0290  16.0896  16.1581  16.2015
    16.2867  16.3791  16.4262  16.5379  16.6042  16.7102  16.7167  16.8041
    16.8269  16.8376  17.0002  17.0105  17.0570  17.2166  17.2221  17.3521
    17.4387  17.4855  17.5027  17.5675  17.5875  17.6327  17.7366  17.7574
    17.8626  17.8736  17.9950  18.0186  18.0829  18.1658  18.1753  18.3154
    18.3269  18.4570  18.4885  18.6036  18.6240  18.7455  18.7636  18.9127
    18.9971  19.0630  19.1358  19.1563  19.2606  19.2613  19.3462  19.4273
    19.4404  19.5422  19.5907  19.7765  19.7991  19.8551  19.9366  19.9383
    20.0004  20.1830  20.2189  20.3674  20.3710  20.5466  20.6092  20.6321
    20.7546  20.7560  20.8660  20.9051  20.9623  21.0192  21.0473  21.1294
    21.1704  21.2683  21.3289  21.3561  21.4114  21.4260  21.4802  21.5998
    21.6415  21.6671  21.7787  21.8058

     the Fermi energy is    -0.8051 ev

!    total energy              =   -2131.04363768 Ry
     Harris-Foulkes estimate   =   -2131.04363841 Ry
     estimated scf accuracy    <       0.00000076 Ry

     The total energy is the sum of the following terms:

     one-electron contribution =  -24448.77175084 Ry
     hartree contribution      =   12244.37336129 Ry
     xc contribution           =    -330.64454129 Ry
     ewald contribution        =   10403.72718313 Ry
     Hubbard energy            =       0.27145747 Ry
     smearing contrib. (-TS)   =       0.00065257 Ry

     convergence has been achieved in  39 iterations

     Forces acting on atoms (Ry/au):


     negative rho (up, down):  0.576E+00 0.000E+00
     atom    1 type  1   force =    -0.00538531   -0.01178012    0.00182592
     atom    2 type  1   force =    -0.00017723    0.00952311    0.00140745
     atom    3 type  2   force =    -0.00023583   -0.00015517   -0.00113560
     atom    4 type  2   force =     0.00380540    0.00666370    0.00026767
     atom    5 type  1   force =     0.00158842   -0.02720171   -0.00045379
     atom    6 type  1   force =     0.00054014    0.02706601   -0.00036193
     atom    7 type  1   force =     0.00008450   -0.00198854    0.00342025
     atom    8 type  1   force =    -0.00001255   -0.00098825   -0.00259950
     atom    9 type  2   force =     0.00090206    0.00047287    0.00093505
     atom   10 type  2   force =     0.00006006    0.00030173   -0.00198069
     atom   11 type  1   force =     0.00004875    0.00155635   -0.00080846
     atom   12 type  1   force =     0.00005235   -0.00255483   -0.00089918
     atom   13 type  1   force =    -0.00155642   -0.00023207    0.00080065
     atom   14 type  1   force =    -0.00540611   -0.01178538    0.00175913
     atom   15 type  1   force =    -0.00012617    0.00951846    0.00140500
     atom   16 type  2   force =    -0.00024441   -0.00016969   -0.00111769
     atom   17 type  2   force =     0.00381065    0.00666545    0.00026714
     atom   18 type  1   force =     0.00168398   -0.02723244   -0.00046581
     atom   19 type  1   force =     0.00063524    0.02709885   -0.00037534
     atom   20 type  1   force =     0.00012562   -0.00198899    0.00352715
     atom   21 type  1   force =    -0.00015208   -0.00098865   -0.00253492
     atom   22 type  2   force =     0.00090133    0.00048369    0.00084707
     atom   23 type  2   force =     0.00004124    0.00030235   -0.00202057
     atom   24 type  1   force =    -0.00007440    0.00148402   -0.00081144
     atom   25 type  1   force =    -0.00007044   -0.00250351   -0.00084855
     atom   26 type  1   force =    -0.00173553   -0.00023189    0.00080398
     atom   27 type  3   force =    -0.00000510   -0.00095380   -0.00022314
     atom   28 type  3   force =    -0.00000511   -0.00095314   -0.00022613
     atom   29 type  3   force =     0.00045473    0.00028591   -0.00020296
     atom   30 type  3   force =     0.00045223    0.00028570   -0.00020076

     Total force =     0.008209     Total SCF correction =     0.003780
     SCF correction compared to forces is large: reduce conv_thr to get better values

     BFGS Geometry Optimization

     number of scf cycles    =   1
     number of bfgs steps    =   0

     energy   new            =   -2131.0436376794 Ry

     new trust radius        =       0.0035271528 bohr
     new conv_thr            =       0.0000010000 Ry


ATOMIC_POSITIONS (crystal)
O0       0.000000000   0.000000000   0.380026591    0   0   1
O0       0.000000000   0.500000000   0.402298205    0   0   1
Ru1      0.250000000   0.500000000   0.453107243    0   0   1
Ru1      0.000000000   0.000000000   0.454075364    0   0   1
O0       0.250000000   0.810000000   0.453600906    0   0   1
O0       0.250000000   0.190000000   0.453542747    0   0   1
O0       0.000000000   0.500000000   0.498828541    0   0   1
O0       0.000000000   0.000000000   0.527977907    0   0   1
Ru1      0.250000000   0.000000000   0.578668738    0   0   1
Ru1      0.000000000   0.500000000   0.569770308    0   0   1
O0       0.250000000   0.690000000   0.576273799    0   0   1
O0       0.250000000   0.310000000   0.576621981    0   0   1
O0       0.000000000   0.000000000   0.620046045    0   0   1
O0       0.500000000   0.000000000   0.380025253    0   0   1
O0       0.500000000   0.500000000   0.402298156    0   0   1
Ru1      0.750000000   0.500000000   0.453107602    0   0   1
Ru1      0.500000000   0.000000000   0.454075353    0   0   1
O0       0.750000000   0.810000000   0.453600665    0   0   1
O0       0.750000000   0.190000000   0.453542478    0   0   1
O0       0.500000000   0.500000000   0.498830683    0   0   1
O0       0.500000000   0.000000000   0.527979201    0   0   1
Ru1      0.750000000   0.000000000   0.578666975    0   0   1
Ru1      0.500000000   0.500000000   0.569769508    0   0   1
O0       0.750000000   0.690000000   0.576273739    0   0   1
O0       0.750000000   0.310000000   0.576612995    0   0   1
O0       0.500000000   0.000000000   0.620046112    0   0   1
H2      -0.000410433   0.629791214   0.381915528
H2       0.499589567   0.629791269   0.381915468
H2       0.146508563   0.028923616   0.367685933
H2       0.646508351   0.028923600   0.367685977


     Check: negative starting charge=   -0.522083
     NEW-OLD atomic charge density approx. for the potential

     Check: negative/imaginary core charge=   -0.000003    0.000000
     Check: negative starting charge=   -0.522056

     negative rho (up, down):  0.576E+00 0.000E+00
 Atomic wfc used for LDA+U Projector are NOT orthogonalized

     total cpu time spent up to now is     7481.7 secs

     per-process dynamical memory:   407.2 Mb

     Self-consistent Calculation

     iteration #  1     ecut=    40.00 Ry     beta=0.70
     Davidson diagonalization with overlap
     ethr =  1.00E-06,  avg # of iterations =  3.3
 --- enter write_ns ---
 LDA+U parameters:
U( 2)     =  0.50000000
alpha( 2) =  0.00000000
atom    3   Tr[ns(na)] =   7.18413
    eigenvalues: 
  0.526  0.569  0.738  0.822  0.937
    eigenvectors:
  0.000  0.199  0.006  0.000  0.795
  1.000  0.000  0.000  0.000  0.000
  0.000  0.000  0.991  0.000  0.009
  0.000  0.801  0.003  0.000  0.196
  0.000  0.000  0.000  1.000  0.000
    occupations:
  0.862  0.000  0.018 -0.146 -0.000
  0.000  0.526 -0.000 -0.000 -0.003
  0.018 -0.000  0.740 -0.007  0.000
 -0.146 -0.000 -0.007  0.641  0.000
 -0.000 -0.003  0.000  0.000  0.822
atom    4   Tr[ns(na)] =   7.16426
    eigenvalues: 
  0.558  0.603  0.687  0.774  0.960
    eigenvectors:
  0.000  0.990  0.000  0.000  0.010
  0.000  0.000  0.018  0.982  0.000
  0.000  0.000  0.982  0.018  0.000
  0.000  0.010  0.000  0.000  0.990
  1.000  0.000  0.000  0.000  0.000
    occupations:
  0.606 -0.001 -0.000  0.035  0.001
 -0.001  0.773  0.011 -0.001 -0.000
 -0.000  0.011  0.689  0.002  0.000
  0.035 -0.001  0.002  0.956  0.000
  0.001 -0.000  0.000  0.000  0.558
atom    9   Tr[ns(na)] =   7.12245
    eigenvalues: 
  0.582  0.599  0.760  0.809  0.811
    eigenvectors:
  0.000  0.144  0.001  0.489  0.367
  0.999  0.000  0.000  0.000  0.000
  0.000  0.000  0.999  0.001  0.000
  0.000  0.856  0.000  0.082  0.062
  0.000  0.000  0.000  0.428  0.572
    occupations:
  0.779  0.000 -0.001 -0.074  0.001
  0.000  0.582  0.001  0.000  0.000
 -0.001  0.001  0.760  0.000  0.000
 -0.074  0.000  0.000  0.630 -0.000
  0.001  0.000  0.000 -0.000  0.810
atom   10   Tr[ns(na)] =   7.15520
    eigenvalues: 
  0.543  0.553  0.754  0.805  0.922
    eigenvectors:
  0.000  0.991  0.000  0.000  0.009
  0.000  0.000  0.000  1.000  0.000
  0.000  0.000  1.000  0.000  0.000
  0.000  0.009  0.000  0.000  0.991
  1.000  0.000  0.000  0.000  0.000
    occupations:
  0.557  0.000 -0.001  0.034  0.000
  0.000  0.805  0.000  0.000 -0.001
 -0.001  0.000  0.754 -0.002  0.000
  0.034  0.000 -0.002  0.919 -0.000
  0.000 -0.001  0.000 -0.000  0.543
atom   16   Tr[ns(na)] =   7.18839
    eigenvalues: 
  0.526  0.569  0.739  0.823  0.937
    eigenvectors:
  0.000  0.199  0.006  0.000  0.795
  1.000  0.000  0.000  0.000  0.000
  0.000  0.000  0.991  0.000  0.009
  0.000  0.801  0.003  0.000  0.196
  0.000  0.000  0.000  1.000  0.000
    occupations:
  0.862 -0.000  0.018 -0.146 -0.000
 -0.000  0.526 -0.000 -0.000 -0.003
  0.018 -0.000  0.741 -0.006 -0.000
 -0.146 -0.000 -0.006  0.641  0.000
 -0.000 -0.003 -0.000  0.000  0.823
atom   17   Tr[ns(na)] =   7.15792
    eigenvalues: 
  0.558  0.602  0.686  0.773  0.959
    eigenvectors:
  0.000  0.990  0.000  0.000  0.010
  0.000  0.000  0.017  0.982  0.000
  0.000  0.000  0.982  0.017  0.000
  0.000  0.010  0.000  0.000  0.990
  1.000  0.000  0.000  0.000  0.000
[...]
    -3.9812  -3.9811  -3.3704  -3.3704  -3.2841  -3.2840  -3.0833  -3.0833
    -2.1382  -2.1382  -1.8644  -1.8643  -1.5866  -1.5866  -1.5819  -1.5819
    -1.3061  -1.3060  -1.1326  -1.1326  -1.0075  -1.0074  -0.8843  -0.8842
    -0.7969  -0.7968  -0.5860  -0.5859  -0.2950  -0.2949   0.0316   0.0316
     0.6837   0.6840   2.0890   2.0891   2.1517   2.1519   2.3922   2.3923
     2.7237   2.7238   2.7410   2.7410   2.8929   2.8929   3.6222   3.6223
     4.5760   4.5761   4.7766   4.7766   5.1949   5.1949   5.6129   5.6129
     6.1048   6.1048   6.7506   6.7506   7.1734   7.1734   7.4176   7.4176
     7.9651   7.9651   8.0927   8.0927   8.3050   8.3050   8.4101   8.4101
     8.7299   8.7299   8.8033   8.8033   8.9144   8.9144   9.2106   9.2106
     9.3320   9.3320   9.4496   9.4496   9.5979   9.5979   9.9414   9.9414
    10.0527  10.0527  10.1742  10.1742  10.3234  10.3235  10.4257  10.4258
    10.6584  10.6584  10.8290  10.8290  10.9794  10.9794  11.1397  11.1397
    11.5618  11.5618  11.7243  11.7244  11.9550  11.9550  12.1109  12.1110
    12.2588  12.2589  12.4603  12.4603  12.4881  12.4882  12.7217  12.7217
    12.8012  12.8012  12.9744  12.9744  13.1054  13.1054  13.2952  13.2952
    13.5290  13.5290  13.6801  13.6801  13.8316  13.8316  13.9723  13.9724
    14.2403  14.2404  14.2697  14.2697  14.4826  14.4826  14.5254  14.5254
    14.5748  14.5748  14.8101  14.8102  14.8647  14.8648  15.1296  15.1297
    15.2389  15.2390  15.3074  15.3074  15.5104  15.5104  15.9323  15.9323
    16.0694  16.0695  16.3702  16.3702  16.4095  16.4095  16.4486  16.4486
    16.5464  16.5464  16.6309  16.6309  16.6815  16.6815  16.7435  16.7435
    16.8333  16.8333  16.8843  16.8843  16.9862  16.9862  17.0961  17.0961
    17.2314  17.2315  17.4340  17.4340  17.6453  17.6453  17.8258  17.8259
    17.9855  17.9856  18.0873  18.0874  18.2979  18.2979  18.5431  18.5432
    18.5836  18.5837  18.7375  18.7375  18.9505  18.9505  18.9828  18.9829
    19.2318  19.2318  19.3494  19.3494  19.4174  19.4174  19.4865  19.4865
    19.6243  19.6243  19.7576  19.7577  19.8147  19.8147  19.8865  19.8865
    19.9942  19.9942  20.0461  20.0462  20.2486  20.2486  20.3342  20.3342
    20.3773  20.3773  20.4783  20.4783  20.6047  20.6047  20.7366  20.7366
    20.8367  20.8368  21.1280  21.1281  21.2341  21.2342  21.2892  21.2894
    21.4193  21.4194  21.5567  21.5568

          k =-0.5000 0.2435 0.0000 ( 30444 PWs)   bands (ev):

   -74.5746 -74.5744 -74.3319 -74.3319 -74.1955 -74.1953 -74.0538 -74.0537
   -44.6468 -44.6465 -44.5803 -44.5802 -44.5484 -44.5483 -44.4632 -44.4629
   -44.4520 -44.4518 -44.2365 -44.2299 -44.2045 -44.1955 -44.1802 -44.1801
   -44.1142 -44.1118 -44.0033 -44.0032 -43.9863 -43.9862 -43.9543 -43.9543
   -20.6880 -20.6877 -20.3972 -20.3971 -20.0464 -20.0464 -19.8868 -19.8865
   -19.5812 -19.5792 -19.4645 -19.4642 -19.3397 -19.3379 -19.2834 -19.2795
   -19.0072 -19.0071  -8.7096  -8.7094  -8.1740  -8.1706  -8.0924  -8.0900
    -8.0654  -8.0625  -7.9184  -7.9157  -7.5791  -7.5711  -7.4380  -7.4336
    -7.3099  -7.2666  -7.0534  -7.0153  -6.6204  -6.5564  -6.4936  -6.4876
    -6.3546  -6.3373  -6.1725  -6.1659  -6.0362  -5.9683  -5.7142  -5.7081
    -5.3613  -5.3533  -5.2534  -5.2123  -5.0655  -5.0320  -4.9428  -4.9137
    -4.7882  -4.7693  -4.6805  -4.6496  -4.3282  -4.2451  -4.1972  -4.1375
    -3.9729  -3.9240  -3.4072  -3.3823  -3.3393  -3.2704  -3.0972  -2.9294
    -2.1467  -2.1089  -1.7636  -1.7603  -1.6281  -1.5648  -1.3974  -1.3827
    -1.2556  -1.2480  -1.1837  -1.1816  -0.9399  -0.9346  -0.8679  -0.8677
    -0.6723  -0.6687  -0.5209  -0.4727  -0.3511  -0.3455  -0.0661  -0.0511
     0.7955   0.7958   1.9826   1.9831   2.1405   2.1525   2.1915   2.1963
     2.3279   2.3290   2.8946   2.9064   3.2282   3.2292   3.7169   3.7237
     4.7837   4.7902   4.9282   4.9284   5.4094   5.4099   5.8051   5.8072
     6.2325   6.2506   6.5264   6.5460   6.8046   6.8118   7.1571   7.1576
     7.2922   7.3021   7.4518   7.4543   7.7126   7.7167   8.1390   8.1577
     8.4142   8.4280   8.5825   8.6173   8.9413   8.9606   9.0693   9.1150
     9.3251   9.4190   9.7993   9.8040  10.0569  10.0734  10.2214  10.2243
    10.3959  10.4099  10.4746  10.4983  10.7642  10.7969  10.9097  10.9125
    11.1459  11.1476  11.2184  11.2216  11.2823  11.2849  11.4694  11.4823
    11.8390  11.8395  12.0762  12.0955  12.2058  12.2307  12.2584  12.2845
    12.4133  12.4241  12.5057  12.5353  12.6467  12.6564  12.8861  12.8998
    13.0271  13.0487  13.1483  13.1570  13.2897  13.3188  13.3621  13.3717
    13.4709  13.5153  13.6890  13.7145  13.8460  13.8602  14.0376  14.0425
    14.1335  14.1801  14.2741  14.2966  14.5115  14.5128  14.5939  14.6369
    14.7588  14.7742  14.7878  14.8042  14.8769  14.8830  15.0731  15.0997
    15.1248  15.1419  15.1784  15.2297  15.2981  15.3009  15.4437  15.4624
    15.6284  15.6292  15.7099  15.7162  15.7891  15.7940  15.9663  15.9737
    16.1476  16.1534  16.3391  16.3404  16.3933  16.4011  16.5866  16.6055
    16.6467  16.7045  16.7272  16.7594  16.7963  16.7988  17.0129  17.0255
    17.1653  17.1775  17.2777  17.2808  17.4350  17.4697  17.5382  17.6094
    17.7470  17.7501  17.9182  17.9318  18.0657  18.0961  18.1786  18.2071
    18.3369  18.3482  18.4699  18.4745  18.5496  18.5548  18.7490  18.7752
    18.8170  18.8310  18.9631  18.9720  19.0340  19.0348  19.1036  19.1123
    19.3541  19.3733  19.4757  19.4897  19.6399  19.6832  19.7400  19.7407
    19.8445  19.8562  20.0647  20.0818  20.1170  20.1304  20.3288  20.3313
    20.4316  20.4376  20.6326  20.6396  20.7092  20.7439  20.7935  20.8750
    20.9860  20.9965  21.1387  21.1954  21.3446  21.3717  21.5788  21.5879
    21.6515  21.6532  21.7775  21.7776

          k =-0.5000-0.4870 0.0000 ( 30440 PWs)   bands (ev):

   -74.5746 -74.5744 -74.3319 -74.3319 -74.1955 -74.1953 -74.0538 -74.0537
   -44.6468 -44.6466 -44.5803 -44.5802 -44.5483 -44.5482 -44.4631 -44.4627
   -44.4521 -44.4519 -44.2369 -44.2369 -44.1929 -44.1929 -44.1797 -44.1796
   -44.1168 -44.1168 -44.0039 -44.0037 -43.9860 -43.9859 -43.9543 -43.9543
   -20.6721 -20.6721 -20.3917 -20.3917 -19.9215 -19.9214 -19.7881 -19.7881
   -19.6988 -19.6988 -19.4973 -19.4973 -19.4392 -19.4391 -19.3177 -19.3176
   -19.0070 -19.0070  -8.6920  -8.6920  -8.0708  -8.0707  -8.0289  -8.0288
    -7.6204  -7.6203  -7.5044  -7.5043  -7.4484  -7.4483  -7.3396  -7.3395
    -7.3145  -7.3144  -7.0783  -7.0782  -6.8903  -6.8903  -6.7437  -6.7436
    -6.4220  -6.4219  -6.2064  -6.2063  -5.9675  -5.9674  -5.7501  -5.7500
    -5.6037  -5.6037  -5.4354  -5.4353  -5.3689  -5.3689  -5.2810  -5.2810
    -5.0479  -5.0479  -4.5514  -4.5513  -4.0830  -4.0830  -3.9064  -3.9064
    -3.8499  -3.8498  -3.6646  -3.6645  -3.3292  -3.3292  -2.7634  -2.7633
    -2.0466  -2.0466  -1.9540  -1.9539  -1.6998  -1.6997  -1.5203  -1.5202
    -1.1415  -1.1414  -0.9381  -0.9380  -0.7726  -0.7725  -0.7108  -0.7108
    -0.5979  -0.5979  -0.5015  -0.5015  -0.3207  -0.3206  -0.1262  -0.1262
     0.8889   0.8892   1.6791   1.6791   1.8188   1.8188   2.2417   2.2418
     2.2710   2.2712   3.0723   3.0724   3.4589   3.4589   3.7292   3.7293
     5.1867   5.1867   5.2182   5.2182   5.7278   5.7278   5.8982   5.8982
     6.0718   6.0718   6.2087   6.2087   6.4671   6.4671   6.6935   6.6936
     6.9841   6.9841   7.2745   7.2745   7.6790   7.6791   7.9825   7.9825
     8.1003   8.1003   8.2741   8.2741   8.8016   8.8016   9.1104   9.1104
     9.2490   9.2490   9.5971   9.5972   9.9128   9.9128  10.3497  10.3498
    10.6101  10.6101  10.8876  10.8876  10.9903  10.9903  11.3512  11.3513
    11.7546  11.7547  11.9083  11.9083  12.1139  12.1139  12.1407  12.1408
    12.3238  12.3239  12.3875  12.3875  12.5253  12.5254  12.6952  12.6953
    12.8687  12.8688  13.1467  13.1468  13.2269  13.2269  13.2852  13.2853
    13.3382  13.3382  13.4316  13.4316  13.5163  13.5163  13.5440  13.5440
    13.6676  13.6677  13.7133  13.7133  13.7651  13.7651  13.8325  13.8325
    13.8462  13.8462  14.1037  14.1037  14.1446  14.1446  14.1744  14.1744
    14.3258  14.3258  14.4077  14.4077  14.5445  14.5446  14.6081  14.6082
    14.7538  14.7538  14.8571  14.8571  15.1091  15.1092  15.1791  15.1791
    15.3357  15.3357  15.4392  15.4392  15.4628  15.4628  15.5660  15.5660
    15.8046  15.8046  15.9246  15.9246  15.9982  15.9982  16.2138  16.2138
    16.3472  16.3472  16.4645  16.4645  16.6760  16.6761  16.7748  16.7749
    16.9547  16.9548  17.0960  17.0961  17.2044  17.2044  17.3195  17.3196
    17.3918  17.3918  17.6302  17.6303  17.6912  17.6912  17.8575  17.8575
    18.3109  18.3109  18.4811  18.4811  18.5107  18.5107  18.5941  18.5942
    18.7159  18.7159  18.8856  18.8856  19.0186  19.0187  19.4124  19.4125
    19.5319  19.5319  19.6121  19.6121  19.7470  19.7470  19.9676  19.9676
    20.3431  20.3432  20.5062  20.5062  20.6874  20.6874  20.8208  20.8208
    20.9450  20.9450  21.0342  21.0342  21.0834  21.0834  21.1609  21.1609
    21.2201  21.2201  21.3018  21.3018  21.4289  21.4289  21.4896  21.4897
    21.5517  21.5517  21.6387  21.6388

          k =-0.2500 0.2435 0.0000 ( 30434 PWs)   bands (ev):

   -74.5783 -74.5708 -74.3356 -74.3283 -74.1992 -74.1918 -74.0574 -74.0503
   -44.7113 -44.5872 -44.5787 -44.5756 -44.5526 -44.5442 -44.4677 -44.4616
   -44.4586 -44.4423 -44.2908 -44.2430 -44.2141 -44.1953 -44.1723 -44.1162
   -44.1107 -44.1086 -44.0453 -44.0138 -43.9926 -43.9651 -43.9444 -43.9246
   -20.9337 -20.5041 -20.4314 -20.3844 -20.2286 -20.1283 -19.8488 -19.7750
   -19.6810 -19.5585 -19.5170 -19.4916 -19.3189 -19.2852 -19.1907 -19.1357
   -19.0625 -18.8437  -9.0768  -8.5654  -8.5004  -8.4512  -8.1117  -8.0979
    -7.9570  -7.9185  -7.9049  -7.7234  -7.6119  -7.6104  -7.5383  -7.4826
    -7.3428  -7.3386  -7.2027  -7.1903  -6.8039  -6.7043  -6.6749  -6.5013
    -6.4183  -6.0858  -5.9506  -5.8495  -5.7649  -5.5694  -5.4782  -5.4361
    -5.4062  -5.2961  -5.2688  -5.1728  -5.0334  -4.9849  -4.9008  -4.8634
    -4.7286  -4.6902  -4.5389  -4.4721  -4.2373  -4.2190  -4.0999  -4.0610
    -3.9557  -3.8329  -3.7589  -3.4627  -3.4574  -3.1331  -3.0883  -2.7190
    -2.2016  -2.1314  -1.9661  -1.7968  -1.6906  -1.6175  -1.5760  -1.4614
    -1.4298  -1.4112  -1.3412  -1.2961  -1.2859  -1.1667  -1.0862  -0.9867
    -0.6486  -0.5219  -0.4776  -0.3649  -0.3130  -0.0949   0.0070   0.1756
     0.5873   0.7717   1.4799   1.6430   1.6806   2.1367   2.2321   2.5503
     2.7253   3.0388   3.1737   3.1909   3.2913   3.3926   3.6664   3.7273
     4.0698   4.2931   4.6834   5.1094   5.5515   5.8134   5.8749   5.9833
     6.1098   6.4131   6.5733   6.5911   6.6896   6.9063   6.9921   7.2164
     7.4888   7.5618   7.7623   7.9181   7.9349   8.2125   8.2665   8.3937
     8.4039   8.4764   8.6892   8.7317   8.8476   8.9920   9.1612   9.1774
     9.2482   9.4753   9.5046   9.7713   9.7956   9.8984   9.9545  10.0320
    10.1356  10.2599  10.3653  10.4272  10.4399  10.5880  10.6666  10.7228
    10.8401  10.9023  11.0018  11.1273  11.2726  11.2933  11.4392  11.5106
    11.6003  11.6345  11.6628  11.8076  11.8556  11.9589  12.0466  12.0553
    12.1557  12.2673  12.3729  12.4465  12.4989  12.5399  12.6135  12.6551
    12.7615  12.7816  12.9174  12.9176  12.9569  13.1102  13.2046  13.3204
    13.3373  13.4523  13.5135  13.6140  13.7068  13.7509  13.8543  13.9190
    13.9713  14.0309  14.1625  14.2942  14.3155  14.3762  14.5018  14.5076
    14.5693  14.6704  14.7315  14.8051  14.8563  14.9773  15.0330  15.0671
    15.2041  15.3520  15.5213  15.5637  15.6676  15.6935  15.7637  15.8401
    15.8418  15.9027  15.9414  15.9522  16.0279  16.0889  16.1567  16.2017
    16.2873  16.3803  16.4268  16.5374  16.6045  16.7100  16.7174  16.8032
    16.8277  16.8381  17.0001  17.0122  17.0579  17.2161  17.2222  17.3525
    17.4380  17.4858  17.5011  17.5690  17.5882  17.6318  17.7352  17.7593
    17.8630  17.8730  17.9956  18.0178  18.0823  18.1654  18.1741  18.3158
    18.3260  18.4564  18.4897  18.6043  18.6238  18.7442  18.7624  18.9122
    18.9971  19.0616  19.1344  19.1571  19.2598  19.2603  19.3460  19.4264
    19.4406  19.5450  19.5913  19.7768  19.8017  19.8553  19.9376  19.9376
    20.0026  20.1842  20.2186  20.3687  20.3726  20.5479  20.6116  20.6331
    20.7545  20.7572  20.8674  20.9042  20.9632  21.0211  21.0463  21.1283
    21.1719  21.2674  21.3289  21.3547  21.4118  21.4239  21.4795  21.6017
    21.6414  21.6677  21.7787  21.8059

     the Fermi energy is    -0.7994 ev

!    total energy              =   -2131.04370217 Ry
     Harris-Foulkes estimate   =   -2131.04370218 Ry
     estimated scf accuracy    <          9.8E-09 Ry

     The total energy is the sum of the following terms:

     one-electron contribution =  -24451.90448575 Ry
     hartree contribution      =   12245.97091281 Ry
     xc contribution           =    -330.64927340 Ry
     ewald contribution        =   10405.26714320 Ry
     Hubbard energy            =       0.27136475 Ry
     smearing contrib. (-TS)   =       0.00063622 Ry

     convergence has been achieved in  16 iterations

     Forces acting on atoms (Ry/au):


     negative rho (up, down):  0.576E+00 0.000E+00
     atom    1 type  1   force =    -0.00490374   -0.01159345    0.00038065
     atom    2 type  1   force =    -0.00013852    0.00922432    0.00076638
     atom    3 type  2   force =    -0.00022831   -0.00029033    0.00064719
     atom    4 type  2   force =     0.00383927    0.00663163   -0.00002897
     atom    5 type  1   force =     0.00169345   -0.02738566   -0.00021607
     atom    6 type  1   force =     0.00059098    0.02729698   -0.00016743
     atom    7 type  1   force =     0.00011258   -0.00189678   -0.00043423
     atom    8 type  1   force =    -0.00009430   -0.00102237   -0.00016921
     atom    9 type  2   force =     0.00091358    0.00054004   -0.00018331
     atom   10 type  2   force =     0.00006304    0.00031260    0.00039786
     atom   11 type  1   force =     0.00000570    0.00174860   -0.00056130
     atom   12 type  1   force =     0.00000700   -0.00274203   -0.00063956
     atom   13 type  1   force =    -0.00166314   -0.00026516    0.00036934
     atom   14 type  1   force =    -0.00488668   -0.01159146    0.00039035
     atom   15 type  1   force =    -0.00014536    0.00922949    0.00076681
     atom   16 type  2   force =    -0.00024901   -0.00029886    0.00068761
     atom   17 type  2   force =     0.00384345    0.00663195   -0.00003135
     atom   18 type  1   force =     0.00168592   -0.02738309   -0.00021712
     atom   19 type  1   force =     0.00058438    0.02729403   -0.00017054
     atom   20 type  1   force =     0.00011566   -0.00189419   -0.00052763
     atom   21 type  1   force =    -0.00008836   -0.00102234   -0.00018593
     atom   22 type  2   force =     0.00094259    0.00054686   -0.00015741
     atom   23 type  2   force =     0.00005770    0.00031249    0.00046607
     atom   24 type  1   force =    -0.00001187    0.00174762   -0.00056945
     atom   25 type  1   force =    -0.00000947   -0.00275661   -0.00060916
     atom   26 type  1   force =    -0.00163515   -0.00026574    0.00034892
     atom   27 type  3   force =     0.00000180   -0.00066541   -0.00033712
     atom   28 type  3   force =    -0.00000019   -0.00067015   -0.00033559
     atom   29 type  3   force =    -0.00019343    0.00011504    0.00015759
     atom   30 type  3   force =    -0.00020957    0.00011197    0.00016262

     Total force =     0.002537     Total SCF correction =     0.000222

     bfgs converged in   3 scf cycles and   2 bfgs steps
     (criteria: energy < 0.10E-03, force < 0.10E-02)

     End of BFGS Geometry Optimization

     Final energy   =   -2131.0437021677 Ry
Begin final coordinates

ATOMIC_POSITIONS (crystal)
O0       0.000000000   0.000000000   0.380052015    0   0   1
O0       0.000000000   0.500000000   0.402329793    0   0   1
Ru1      0.250000000   0.500000000   0.453111528    0   0   1
Ru1      0.000000000   0.000000000   0.454087585    0   0   1
O0       0.250000000   0.810000000   0.453587028    0   0   1
O0       0.250000000   0.190000000   0.453531439    0   0   1
O0       0.000000000   0.500000000   0.498871774    0   0   1
O0       0.000000000   0.000000000   0.527927714    0   0   1
Ru1      0.250000000   0.000000000   0.578680723    0   0   1
Ru1      0.000000000   0.500000000   0.569747303    0   0   1
O0       0.250000000   0.690000000   0.576249694    0   0   1
O0       0.250000000   0.310000000   0.576594765    0   0   1
O0       0.000000000   0.000000000   0.620066916    0   0   1
O0       0.500000000   0.000000000   0.380051135    0   0   1
O0       0.500000000   0.500000000   0.402329890    0   0   1
Ru1      0.750000000   0.500000000   0.453109827    0   0   1
Ru1      0.500000000   0.000000000   0.454087578    0   0   1
O0       0.750000000   0.810000000   0.453586856    0   0   1
O0       0.750000000   0.190000000   0.453531263    0   0   1
O0       0.500000000   0.500000000   0.498875792    0   0   1
O0       0.500000000   0.000000000   0.527929184    0   0   1
Ru1      0.750000000   0.000000000   0.578678408    0   0   1
Ru1      0.500000000   0.500000000   0.569746751    0   0   1
O0       0.750000000   0.690000000   0.576250134    0   0   1
O0       0.750000000   0.310000000   0.576587964    0   0   1
O0       0.500000000   0.000000000   0.620065357    0   0   1
H2      -0.000409416   0.629646637   0.381908595
H2       0.499590151   0.629646522   0.381908466
H2       0.146440972   0.028936619   0.367692396
H2       0.646443315   0.028937187   0.367692126
End final coordinates



     init_run     :     98.19s CPU    100.35s WALL (       1 calls)
     electrons    :  11548.31s CPU  11846.78s WALL (       3 calls)
     update_pot   :     40.53s CPU     42.10s WALL (       2 calls)
     forces       :    367.57s CPU    375.59s WALL (       3 calls)

     Called by init_run:
     wfcinit      :     34.20s CPU     34.90s WALL (       1 calls)
     potinit      :      7.43s CPU      7.50s WALL (       1 calls)

     Called by electrons:
     c_bands      :   6297.26s CPU   6453.92s WALL (      66 calls)
     sum_band     :   2237.63s CPU   2295.56s WALL (      66 calls)
     v_of_rho     :     74.05s CPU     79.75s WALL (      68 calls)
     newd         :   3018.12s CPU   3041.47s WALL (      68 calls)
     mix_rho      :     13.48s CPU     13.82s WALL (      66 calls)

     Called by c_bands:
     init_us_2    :     16.45s CPU     16.60s WALL (     426 calls)
     cegterg      :   6220.69s CPU   6355.90s WALL (     198 calls)

     Called by *egterg:
     h_psi        :   3574.53s CPU   3644.20s WALL (     561 calls)
     s_psi        :    352.06s CPU    356.79s WALL (     579 calls)
     g_psi        :      8.12s CPU      8.12s WALL (     360 calls)
     cdiaghg      :    553.37s CPU    555.05s WALL (     549 calls)

     Called by h_psi:
     add_vuspsi   :    343.19s CPU    348.03s WALL (     561 calls)
     vhpsi        :    392.93s CPU    395.39s WALL (     561 calls)

     General routines
     calbec       :    823.63s CPU    830.88s WALL (    3984 calls)
     fft          :     95.12s CPU    116.23s WALL (    1115 calls)
     ffts         :      1.19s CPU      1.23s WALL (     134 calls)
     fftw         :   1973.46s CPU   2047.68s WALL (  371848 calls)
     interpolate  :     11.38s CPU     11.56s WALL (     134 calls)
     davcio       :      0.03s CPU      6.61s WALL (     435 calls)

     Parallel routines
     fft_scatter  :    705.74s CPU    798.17s WALL (  373097 calls)
     Hubbard U routines
     new_ns       :     80.28s CPU     86.00s WALL (      66 calls)
     vhpsi        :    392.93s CPU    395.39s WALL (     561 calls)
     force_hub    :    102.75s CPU    104.33s WALL (       3 calls)

     PWSCF        :     3h22m CPU        3h27m WALL


   This run was terminated on:   7:16: 2   6May2014            

=------------------------------------------------------------------------------=
   JOB DONE.
=------------------------------------------------------------------------------=
