
     Program PWSCF v.5.0.2 (svn rev. 9656) starts on 24Jan2014 at 14:12:22 

     This program is part of the open-source Quantum ESPRESSO suite
     for quantum simulation of materials; please cite
         "P. Giannozzi et al., J. Phys.:Condens. Matter 21 395502 (2009);
          URL http://www.quantum-espresso.org", 
     in publications or presentations arising from this work. More details at
     http://www.quantum-espresso.org/quote.php

     Parallel version (MPI), running on     4 processors
     R & G space division:  proc/nbgrp/npool/nimage =       4

     Current dimensions of program PWSCF are:
     Max number of different atomic species (ntypx) = 10
     Max number of k-points (npk) =  40000
     Max angular momentum in pseudopotentials (lmaxx) =  3
     Reading input from SnO2-v-0.95.in

     Subspace diagonalization in iterative solution of the eigenvalue problem:
     a serial algorithm will be used


     Parallelization info
     --------------------
     sticks:   dense  smooth     PW     G-vecs:    dense   smooth      PW
     Min         824     262     75                22926     4142     673
     Max         825     263     77                22927     4151     674
     Sum        3297    1049    305                91705    16583    2693



     bravais-lattice index     =            0
     lattice parameter (alat)  =       9.0987  a.u.
     unit-cell volume          =     485.4283 (a.u.)^3
     number of atoms/cell      =            6
     number of atomic types    =            2
     number of electrons       =        52.00
     number of Kohn-Sham states=           75
     kinetic-energy cutoff     =      40.0000  Ry
     charge density cutoff     =     500.0000  Ry
     convergence threshold     =      1.0E-06
     mixing beta               =       0.3000
     number of iterations used =            8  plain     mixing
     Exchange-correlation      = SLA  PW   PBE  PBE ( 1 4 3 4 0)
     EXX-fraction              =        0.00
     nstep                     =           50


     celldm(1)=   9.098711  celldm(2)=   0.000000  celldm(3)=   0.000000
     celldm(4)=   0.000000  celldm(5)=   0.000000  celldm(6)=   0.000000

     crystal axes: (cart. coord. in units of alat)
               a(1) = (   1.000000   0.000000   0.000000 )  
               a(2) = (   0.000000   1.000000   0.000000 )  
               a(3) = (   0.000000   0.000000   0.644444 )  

     reciprocal axes: (cart. coord. in units 2 pi/alat)
               b(1) = (  1.000000  0.000000  0.000000 )  
               b(2) = (  0.000000  1.000000  0.000000 )  
               b(3) = (  0.000000  0.000000  1.551724 )  


     PseudoPot. # 1 for Sn read from file:
     /home/camp/zhonxu/pseudo/sn_pbe_v1.uspp.F.UPF
     MD5 check sum: 4cf58ce39ec5d5d420df3dd08604eb00
     Pseudo is Ultrasoft + core correction, Zval = 14.0
     Generated by new atomic code, or converted to UPF format
     Using radial grid of  891 points,  6 beta functions with: 
                l(1) =   0
                l(2) =   0
                l(3) =   1
                l(4) =   1
                l(5) =   2
                l(6) =   2
     Q(r) pseudized with  6 coefficients,  rinner =    1.200   1.200   1.200
                                                       1.200   1.200

     PseudoPot. # 2 for O  read from file:
     /home/camp/zhonxu/pseudo/o_pbe_v1.01.uspp.F.UPF
     MD5 check sum: 2bcb18d16ea4b960afae9ec6d52f22d2
     Pseudo is Ultrasoft + core correction, Zval =  6.0
     Generated by new atomic code, or converted to UPF format
     Using radial grid of  737 points,  5 beta functions with: 
                l(1) =   0
                l(2) =   0
                l(3) =   1
                l(4) =   1
                l(5) =   2
     Q(r) pseudized with  8 coefficients,  rinner =    0.900   0.900   0.900
                                                       0.900   0.900

     atomic species   valence    mass     pseudopotential
        Sn0           14.00   118.71000     Sn( 1.00)
        O1             6.00    15.99940     O ( 1.00)

     Starting magnetic structure 
     atomic species   magnetization
        Sn0          0.000
        O1           0.000

      8 Sym. Ops., with inversion, found
          (note:  8 additional sym.ops. were found but ignored
           their fractional translations are incommensurate with FFT grid)


   Cartesian axes

     site n.     atom                  positions (alat units)
         1           Sn0 tau(   1) = (   0.0000000   0.0000000   0.0000000  )
         2           Sn0 tau(   2) = (   0.5000000   0.5000000   0.3222222  )
         3           O1  tau(   3) = (   0.3050000   0.3050000   0.0000000  )
         4           O1  tau(   4) = (  -0.3050000  -0.3050000   0.0000000  )
         5           O1  tau(   5) = (   0.8050000   0.1950000   0.3222222  )
         6           O1  tau(   6) = (   0.1950000   0.8050000   0.3222222  )

     number of k points=    54  Methfessel-Paxton smearing, width (Ry)=  0.0100
                       cart. coord. in units 2pi/alat
        k(    1) = (   0.0000000   0.0000000   0.0000000), wk =   0.0080000
        k(    2) = (   0.0000000   0.0000000   0.3103448), wk =   0.0160000
        k(    3) = (   0.0000000   0.0000000   0.6206897), wk =   0.0160000
        k(    4) = (   0.0000000   0.2000000   0.0000000), wk =   0.0320000
        k(    5) = (   0.0000000   0.2000000   0.3103448), wk =   0.0640000
        k(    6) = (   0.0000000   0.2000000   0.6206897), wk =   0.0640000
        k(    7) = (   0.0000000   0.4000000   0.0000000), wk =   0.0320000
        k(    8) = (   0.0000000   0.4000000   0.3103448), wk =   0.0640000
        k(    9) = (   0.0000000   0.4000000   0.6206897), wk =   0.0640000
        k(   10) = (   0.2000000   0.2000000   0.0000000), wk =   0.0160000
        k(   11) = (   0.2000000   0.2000000   0.3103448), wk =   0.0320000
        k(   12) = (   0.2000000   0.2000000   0.6206897), wk =   0.0320000
        k(   13) = (   0.2000000   0.4000000   0.0000000), wk =   0.0320000
        k(   14) = (   0.2000000   0.4000000   0.3103448), wk =   0.0640000
        k(   15) = (   0.2000000   0.4000000   0.6206897), wk =   0.0640000
        k(   16) = (   0.4000000   0.4000000   0.0000000), wk =   0.0160000
        k(   17) = (   0.4000000   0.4000000   0.3103448), wk =   0.0320000
        k(   18) = (   0.4000000   0.4000000   0.6206897), wk =   0.0320000
        k(   19) = (  -0.2000000   0.2000000   0.0000000), wk =   0.0160000
        k(   20) = (  -0.2000000   0.2000000  -0.3103448), wk =   0.0320000
        k(   21) = (  -0.2000000   0.2000000  -0.6206897), wk =   0.0320000
        k(   22) = (  -0.2000000   0.4000000   0.0000000), wk =   0.0320000
        k(   23) = (  -0.2000000   0.4000000  -0.3103448), wk =   0.0640000
        k(   24) = (  -0.2000000   0.4000000  -0.6206897), wk =   0.0640000
        k(   25) = (  -0.4000000   0.4000000   0.0000000), wk =   0.0160000
        k(   26) = (  -0.4000000   0.4000000  -0.3103448), wk =   0.0320000
        k(   27) = (  -0.4000000   0.4000000  -0.6206897), wk =   0.0320000
        k(   28) = (   0.0000000   0.0000000   0.0000000), wk =   0.0080000
        k(   29) = (   0.0000000   0.0000000   0.3103448), wk =   0.0160000
        k(   30) = (   0.0000000   0.0000000   0.6206897), wk =   0.0160000
        k(   31) = (   0.0000000   0.2000000   0.0000000), wk =   0.0320000
        k(   32) = (   0.0000000   0.2000000   0.3103448), wk =   0.0640000
        k(   33) = (   0.0000000   0.2000000   0.6206897), wk =   0.0640000
        k(   34) = (   0.0000000   0.4000000   0.0000000), wk =   0.0320000
        k(   35) = (   0.0000000   0.4000000   0.3103448), wk =   0.0640000
        k(   36) = (   0.0000000   0.4000000   0.6206897), wk =   0.0640000
        k(   37) = (   0.2000000   0.2000000   0.0000000), wk =   0.0160000
        k(   38) = (   0.2000000   0.2000000   0.3103448), wk =   0.0320000
        k(   39) = (   0.2000000   0.2000000   0.6206897), wk =   0.0320000
        k(   40) = (   0.2000000   0.4000000   0.0000000), wk =   0.0320000
        k(   41) = (   0.2000000   0.4000000   0.3103448), wk =   0.0640000
        k(   42) = (   0.2000000   0.4000000   0.6206897), wk =   0.0640000
        k(   43) = (   0.4000000   0.4000000   0.0000000), wk =   0.0160000
        k(   44) = (   0.4000000   0.4000000   0.3103448), wk =   0.0320000
        k(   45) = (   0.4000000   0.4000000   0.6206897), wk =   0.0320000
        k(   46) = (  -0.2000000   0.2000000   0.0000000), wk =   0.0160000
        k(   47) = (  -0.2000000   0.2000000  -0.3103448), wk =   0.0320000
        k(   48) = (  -0.2000000   0.2000000  -0.6206897), wk =   0.0320000
        k(   49) = (  -0.2000000   0.4000000   0.0000000), wk =   0.0320000
        k(   50) = (  -0.2000000   0.4000000  -0.3103448), wk =   0.0640000
        k(   51) = (  -0.2000000   0.4000000  -0.6206897), wk =   0.0640000
        k(   52) = (  -0.4000000   0.4000000   0.0000000), wk =   0.0160000
        k(   53) = (  -0.4000000   0.4000000  -0.3103448), wk =   0.0320000
        k(   54) = (  -0.4000000   0.4000000  -0.6206897), wk =   0.0320000

     Dense  grid:    91705 G-vectors     FFT dimensions: (  72,  72,  45)

     Smooth grid:    16583 G-vectors     FFT dimensions: (  40,  40,  24)

     Largest allocated arrays     est. size (Mb)     dimensions
        Kohn-Sham Wavefunctions         0.61 Mb     (    534,   75)
        NL pseudopotentials             0.72 Mb     (    534,   88)
        Each V/rho on FFT grid          1.90 Mb     (  62208,   2)
        Each G-vector array             0.17 Mb     (  22926)
        G-vector shells                 0.17 Mb     (  22926)
     Largest temporary arrays     est. size (Mb)     dimensions
        Auxiliary wavefunctions         2.44 Mb     (    534,  300)
        Each subspace H/S matrix        1.37 Mb     ( 300, 300)
        Each <psi_i|beta_j> matrix      0.10 Mb     (     88,   75)
        Arrays for rho mixing           7.59 Mb     (  62208,   8)

     Check: negative/imaginary core charge=   -0.000004    0.000000

     Initial potential from superposition of free atoms

     starting charge   49.99990, renormalised to   52.00000
     Starting wfc are   34 randomized atomic wfcs

     total cpu time spent up to now is       16.0 secs

     per-process dynamical memory:    64.5 Mb

     Self-consistent Calculation

     iteration #  1     ecut=    40.00 Ry     beta=0.30
     Davidson diagonalization with overlap
     ethr =  1.00E-02,  avg # of iterations =  5.1

     total cpu time spent up to now is       97.4 secs

     total energy              =    -455.37202565 Ry
     Harris-Foulkes estimate   =    -456.13799768 Ry
     estimated scf accuracy    <       1.66082218 Ry

     total magnetization       =    -0.00 Bohr mag/cell
     absolute magnetization    =     0.00 Bohr mag/cell

     iteration #  2     ecut=    40.00 Ry     beta=0.30
     Davidson diagonalization with overlap
     ethr =  3.19E-03,  avg # of iterations =  1.0

     total cpu time spent up to now is      133.1 secs

     total energy              =    -455.49269932 Ry
     Harris-Foulkes estimate   =    -455.57706257 Ry
     estimated scf accuracy    <       0.18497780 Ry

     total magnetization       =    -0.00 Bohr mag/cell
     absolute magnetization    =     0.00 Bohr mag/cell

     iteration #  3     ecut=    40.00 Ry     beta=0.30
     Davidson diagonalization with overlap
     ethr =  3.56E-04,  avg # of iterations =  2.3

     total cpu time spent up to now is      175.2 secs

     total energy              =    -455.49243279 Ry
     Harris-Foulkes estimate   =    -455.50924408 Ry
     estimated scf accuracy    <       0.03699603 Ry

     total magnetization       =     0.00 Bohr mag/cell
     absolute magnetization    =     0.00 Bohr mag/cell

     iteration #  4     ecut=    40.00 Ry     beta=0.30
     Davidson diagonalization with overlap
     ethr =  7.11E-05,  avg # of iterations =  2.7

     total cpu time spent up to now is      215.8 secs

     total energy              =    -455.49600874 Ry
     Harris-Foulkes estimate   =    -455.49654440 Ry
     estimated scf accuracy    <       0.00273371 Ry

     total magnetization       =     0.00 Bohr mag/cell
     absolute magnetization    =     0.00 Bohr mag/cell

     iteration #  5     ecut=    40.00 Ry     beta=0.30
     Davidson diagonalization with overlap
     ethr =  5.26E-06,  avg # of iterations =  2.9

     total cpu time spent up to now is      259.5 secs

     total energy              =    -455.49619957 Ry
     Harris-Foulkes estimate   =    -455.49622216 Ry
     estimated scf accuracy    <       0.00010532 Ry

     total magnetization       =     0.00 Bohr mag/cell
     absolute magnetization    =     0.00 Bohr mag/cell

     iteration #  6     ecut=    40.00 Ry     beta=0.30
     Davidson diagonalization with overlap
     ethr =  2.03E-07,  avg # of iterations =  2.0

     total cpu time spent up to now is      301.5 secs

     total energy              =    -455.49622839 Ry
     Harris-Foulkes estimate   =    -455.49621301 Ry
     estimated scf accuracy    <       0.00001511 Ry

     total magnetization       =     0.00 Bohr mag/cell
     absolute magnetization    =     0.00 Bohr mag/cell

     iteration #  7     ecut=    40.00 Ry     beta=0.30
     Davidson diagonalization with overlap
     ethr =  2.91E-08,  avg # of iterations =  1.0

     total cpu time spent up to now is      339.4 secs

     End of self-consistent calculation

 ------ SPIN UP ------------


          k = 0.0000 0.0000 0.0000 (  2063 PWs)   bands (ev):

   -11.6759 -10.9724 -10.6239 -10.5828 -10.5827 -10.4670 -10.4649 -10.3806
   -10.3631 -10.3631  -9.4752  -7.6935  -7.6934  -5.9019   1.2406   5.2360
     5.2360   5.8215   6.3551   7.4706   7.5671   8.3585   8.3587   8.6641
     8.6641   9.4836  10.8018  16.0604  16.1097  16.1097  19.7673  20.5274
    21.3756  21.3756  21.9118  22.0675  25.0321  27.0018  28.4401  28.6662
    29.3551  29.3551  29.6899  29.6899  30.1073  30.1087  30.2041  30.2041
    31.4316  31.9194  32.2023  32.9576  35.2336  35.2336  37.3613  37.3614
    37.3660  38.1541  39.7338  39.8230  39.8230  41.4739  42.0553  42.0715
    43.2307  43.2308  43.6726  43.8127  43.9449  43.9449  45.7896  46.0483
    46.7770  46.7770  47.5687

          k = 0.0000 0.0000 0.3103 (  2080 PWs)   bands (ev):

   -11.4743 -10.9664 -10.9664 -10.7388 -10.5439 -10.4894 -10.4483 -10.4156
   -10.4156 -10.3803  -9.2527  -7.0637  -7.0635  -6.1803   1.2791   5.4139
     5.6087   5.6155   5.6156   6.6275   7.0735   7.0845   7.0846   8.6801
     8.6802   9.1748  12.7066  16.6100  17.6150  17.6151  18.5975  21.3127
    21.3127  21.3214  21.3594  22.0110  24.4649  24.5995  25.8445  25.8445
    29.2153  30.0761  30.1079  30.1282  30.1552  30.2390  30.2390  33.8599
    33.8604  34.2802  34.2802  35.0932  35.0932  35.7797  35.8021  35.8021
    36.4594  38.5507  39.6249  40.3001  41.0007  41.0007  41.5460  42.3077
    42.4815  42.4815  43.4932  44.4345  45.0476  45.0994  45.0994  45.5970
    46.6848  46.6848  47.7073

          k = 0.0000 0.0000 0.6207 (  2076 PWs)   bands (ev):

   -11.4250 -11.4250 -11.0526 -10.7186 -10.4874 -10.4874 -10.4135 -10.3876
   -10.3798 -10.3547  -8.3855  -7.0972  -6.1653  -6.1651   1.7103   3.1796
     5.3046   5.3650   5.3651   6.0781   6.6232   6.6233   7.3758   8.3540
     8.3541   8.3581  14.8860  16.2864  18.4808  19.8380  19.8380  19.8722
    20.9208  20.9209  22.0576  22.4349  22.7409  23.8378  24.0790  24.0790
    29.7190  30.0134  30.0135  30.1075  30.1095  31.7581  31.8256  33.9171
    34.0926  34.3327  34.3327  35.0128  35.9490  35.9490  38.5437  38.9369
    38.9369  39.4995  39.4995  39.6010  40.4557  40.5275  41.3955  42.3895
    42.6876  43.0614  43.0615  43.3469  44.0554  44.0554  46.6335  47.6851
    47.6853  48.1675  48.2800

          k = 0.0000 0.2000 0.0000 (  2044 PWs)   bands (ev):

   -11.6187 -11.0380 -10.6213 -10.5803 -10.5802 -10.5209 -10.4559 -10.3876
   -10.3661 -10.3660  -9.3510  -7.9355  -7.4664  -6.0041   1.4960   4.5826
     5.4725   5.9603   6.5737   7.3518   7.7066   7.9890   8.3677   8.3832
     8.6921   9.2883  11.6614  15.5377  16.2833  16.5538  20.1071  20.8860
    21.0160  21.3714  21.9841  22.0707  24.4549  26.4654  27.1936  27.6744
    29.1143  29.4181  29.7382  30.0590  30.0849  30.1172  30.1201  30.3619
    31.3915  33.1936  33.6110  34.2001  34.5343  35.4576  36.5365  36.9802
    37.4126  38.6383  39.5818  39.8296  40.7925  41.3686  41.5561  42.0355
    43.2300  43.5273  43.7243  43.7758  43.8082  44.8510  45.1715  45.4936
    46.9044  47.2293  47.7228

          k = 0.0000 0.2000 0.3103 (  2075 PWs)   bands (ev):

   -11.4424 -11.0534 -10.9425 -10.7467 -10.5385 -10.4872 -10.4421 -10.4138
   -10.4109 -10.3848  -9.1158  -7.4211  -6.9109  -6.1142   1.5523   4.7632
     4.9189   5.4580   6.4049   6.5952   6.9002   7.3664   7.6429   8.5491
     8.6564   9.1186  13.0859  16.2857  17.7221  17.7860  18.7527  20.6956
    21.3689  21.5394  21.5728  21.9789  23.7066  24.7812  24.9929  27.0204
    28.6312  29.4582  30.1019  30.1071  30.1867  30.6223  30.7531  32.7820
    33.4305  33.5559  34.5297  34.5813  35.8516  36.0231  36.2894  37.3360
    37.4000  38.5599  38.7986  40.4885  40.9223  41.4138  41.5499  41.8406
    42.3295  42.8360  42.9725  44.5278  44.6445  45.1114  45.9931  46.2157
    47.3184  47.3925  48.2637

          k = 0.0000 0.2000 0.6207 (  2084 PWs)   bands (ev):

   -11.5004 -11.4845 -10.9231 -10.6557 -10.4916 -10.4883 -10.4091 -10.3884
   -10.3744 -10.3540  -8.3667  -7.3690  -6.0908  -6.0288   1.8982   3.1137
     4.5921   5.0396   5.4152   5.4799   7.2867   7.3671   7.6031   8.3117
     8.4312   8.4636  15.0191  16.2374  18.0908  18.7205  20.0349  20.4818
    21.0815  21.1802  22.0297  22.2161  22.8107  22.8956  24.1121  25.1861
    29.1216  29.6997  30.1074  30.1080  30.9510  31.6023  32.5495  32.8171
    33.4100  33.7219  35.1245  35.2664  35.9118  36.2794  36.5460  38.1002
    39.2778  39.4851  40.0162  40.1160  41.1480  41.1562  41.9395  42.2439
    42.9443  43.1494  43.5196  44.2982  44.3772  45.2307  46.7591  46.9748
    47.5006  48.2416  48.2828

          k = 0.0000 0.4000 0.0000 (  2080 PWs)   bands (ev):

   -11.4570 -11.2310 -10.6117 -10.5855 -10.5760 -10.5759 -10.4333 -10.4071
   -10.3710 -10.3708  -8.9917  -8.4645  -6.9346  -6.3701   2.2486   3.3729
     6.0877   6.3423   6.8644   6.9617   7.1434   7.7016   8.3867   8.3993
     8.7642   8.9281  13.1678  14.5773  16.7574  16.9424  20.2597  20.3736
    21.6517  21.8542  21.9159  22.6920  23.1759  24.1991  27.4393  27.7068
    28.3804  28.8707  29.5620  29.8544  30.1009  30.1118  30.2229  30.6914
    31.2344  33.0359  34.6371  34.9965  35.7013  36.8072  37.3505  37.4740
    37.9144  38.2652  38.6773  39.5444  40.3647  41.4926  41.9400  42.5924
    42.6355  42.6582  43.3240  44.4829  44.5672  44.7417  45.0347  45.2465
    46.1178  47.6193  47.8612

          k = 0.0000 0.4000 0.3103 (  2078 PWs)   bands (ev):

   -11.3502 -11.2102 -10.8786 -10.7996 -10.5232 -10.5018 -10.4275 -10.4134
   -10.4073 -10.3957  -8.7015  -8.0821  -6.5557  -6.2216   2.3305   3.4805
     4.7774   5.0254   6.5916   6.7677   7.4098   7.8611   7.9416   8.2007
     8.6351   8.8564  14.1144  15.3589  18.1199  18.1400  18.9211  19.5959
    21.7518  21.7992  21.9419  22.1531  22.8655  23.4192  25.6310  27.1809
    28.4669  29.1142  30.1072  30.1097  30.5900  30.8062  30.8118  31.9052
    32.5258  33.2899  34.1649  35.1718  35.6372  36.1174  36.8829  37.5764
    38.2744  38.8622  40.1513  40.5967  41.1201  41.5715  42.0401  42.1517
    42.6939  43.3313  43.3458  43.7231  43.8611  45.4332  46.5953  46.7961
    46.8618  47.2324  48.1045

          k = 0.0000 0.4000 0.6207 (  2085 PWs)   bands (ev):

   -11.5755 -11.5660 -10.7190 -10.6148 -10.4942 -10.4873 -10.4001 -10.3922
   -10.3644 -10.3568  -8.2171  -7.8469  -5.9522  -5.9058   2.4027   2.9117
     4.0139   4.1256   5.3836   5.4033   7.7230   7.8300   8.1324   8.4519
     8.4620   8.7005  15.4410  15.9927  17.5808  17.7222  20.3209  20.5656
    21.4295  21.4998  21.9010  22.0831  22.1335  22.6558  24.7560  25.5841
    29.5464  29.8705  30.1061  30.1077  31.3259  31.3589  31.7253  32.3147
    32.5074  33.2982  34.1834  34.6807  36.2396  37.2928  37.3650  37.6080
    39.6484  39.8626  39.9481  40.5669  41.2080  41.4554  41.5210  42.3300
    42.8286  43.2472  45.1756  45.4725  45.9215  46.3891  46.7915  47.1149
    48.3236  48.3740  48.8428

          k = 0.2000 0.2000 0.0000 (  2061 PWs)   bands (ev):

   -11.5793 -11.1076 -10.6176 -10.5834 -10.5758 -10.5503 -10.4484 -10.3930
   -10.3710 -10.3628  -9.2134  -7.7309  -7.6956  -6.1447   1.7765   4.5481
     5.2717   6.0805   6.7386   7.2076   7.5703   7.8049   8.3362   8.4023
     8.6184   9.1383  12.2770  15.2766  16.6050  16.6696  20.0871  20.9103
    21.1898  21.3565  21.9856  22.2987  24.0491  26.1021  27.1817  27.3592
    27.6594  28.4683  28.9241  30.1059  30.1103  30.2864  31.2999  31.5203
    32.2605  32.6825  34.1336  35.0450  35.3351  35.7584  35.7836  36.3651
    36.9567  38.4447  40.0758  40.1678  40.2814  40.3938  42.1993  42.5645
    43.1037  43.3606  44.0354  44.4257  44.5478  45.3013  45.3034  45.4330
    46.0995  46.9999  47.8573

          k = 0.2000 0.2000 0.3103 (  2068 PWs)   bands (ev):

   -11.4132 -11.0777 -10.9694 -10.7671 -10.5387 -10.4870 -10.4371 -10.4146
   -10.4107 -10.3887  -8.9608  -7.3786  -7.0961  -6.1353   1.8120   4.0678
     5.3180   5.6871   6.0472   6.4532   6.9339   7.4829   7.9840   8.4146
     8.6409   9.0932  13.4029  15.9585  17.9015  17.9240  18.7367  20.8898
    20.9353  21.6160  21.9141  21.9631  23.1132  24.8453  25.3974  26.6308
    28.3334  29.3848  29.7224  30.1055  30.1076  30.5362  30.8737  32.2532
    32.9433  34.4456  34.7657  34.9508  35.3287  36.5079  36.6761  37.3962
    37.9045  38.2386  39.3622  40.2703  40.6285  41.0181  41.7493  42.0892
    42.7527  42.9475  43.2106  44.2718  44.5832  45.0901  46.3164  46.4899
    47.5907  47.8702  48.3823

          k = 0.2000 0.2000 0.6207 (  2073 PWs)   bands (ev):

   -11.5705 -11.4292 -10.9448 -10.6090 -10.4929 -10.4904 -10.4059 -10.3892
   -10.3714 -10.3549  -8.3162  -7.4331  -6.1907  -5.9142   1.9121   2.9953
     4.1924   5.0595   5.1006   6.3292   6.6089   7.7836   7.9720   8.4150
     8.4284   8.5083  14.9534  15.9901  17.5841  19.5383  19.5468  20.4771
    20.8155  21.5169  22.1311  22.2336  22.7716  23.1063  23.6582  26.0904
    28.7332  28.9895  30.1034  30.1084  30.3818  31.5284  32.4885  33.1332
    33.6380  33.7528  35.0844  35.4298  36.0828  36.4076  36.6956  37.1973
    38.8355  39.0793  40.4910  40.9775  41.2236  41.7221  41.8771  42.8152
    43.2119  43.3297  43.7745  43.8068  44.1832  46.2497  46.3939  47.2777
    48.1615  48.1957  48.7692

          k = 0.2000 0.4000 0.0000 (  2073 PWs)   bands (ev):

   -11.4610 -11.2811 -10.6072 -10.5877 -10.5812 -10.5764 -10.4295 -10.4083
   -10.3707 -10.3656  -8.8224  -8.2627  -7.1770  -6.5763   2.5621   3.6437
     5.7978   6.4074   6.6811   6.8379   7.1980   7.6902   8.3434   8.3815
     8.6468   8.8240  13.4921  14.6119  16.9343  17.0340  20.1185  20.4063
    21.5751  21.8766  22.0030  23.0311  23.0779  24.2597  27.4088  27.4935
    27.8037  27.8900  28.3851  29.2760  30.1096  30.1110  31.3516  31.9314
    32.4916  33.1203  34.1358  35.3020  35.9961  36.3854  36.6384  37.3518
    37.4647  38.1193  38.5917  39.1839  40.6147  41.3848  42.0712  43.2178
    43.4470  43.8606  43.9429  44.5581  44.7624  44.8921  44.9576  45.5597
    46.3505  47.1088  47.1611

          k = 0.2000 0.4000 0.3103 (  2079 PWs)   bands (ev):

   -11.3284 -11.2009 -10.9236 -10.8369 -10.5283 -10.5065 -10.4254 -10.4154
   -10.4090 -10.3985  -8.5228  -7.9093  -6.7858  -6.3679   2.5005   3.3454
     5.1273   5.2236   6.4079   6.5573   7.1436   7.8880   7.9716   8.2128
     8.6461   8.8998  14.2248  15.1888  18.1485  18.2262  18.9580  19.8568
    21.3864  21.7604  21.9193  22.2182  23.0056  24.2069  25.5155  26.7476
    27.9357  28.6678  29.8047  30.1005  30.1113  30.1465  31.1279  31.6475
    33.3150  34.3357  34.7950  35.0695  35.3517  35.6070  37.2176  37.9837
    38.5490  38.9058  39.4781  39.9818  41.3455  41.8676  42.1170  42.6400
    42.9870  43.4223  43.5678  43.8902  44.6590  45.1662  45.8858  46.6309
    46.8065  47.0098  48.0695

          k = 0.2000 0.4000 0.6207 (  2085 PWs)   bands (ev):

   -11.5724 -11.4963 -10.8250 -10.6577 -10.4943 -10.4909 -10.3990 -10.3926
   -10.3644 -10.3588  -8.0907  -7.7197  -6.0951  -5.9351   2.0642   2.4732
     4.4015   4.7443   5.1141   5.6819   7.5766   8.0351   8.2144   8.3698
     8.5140   8.6280  14.9564  15.3329  17.7708  18.5268  20.2048  20.5181
    20.9576  21.3823  22.0440  22.1930  22.7770  23.1286  24.5408  26.1567
    28.6311  28.8433  29.5242  30.1074  30.1111  30.8973  32.1088  32.9639
    33.3739  33.5506  34.9477  35.3320  36.5194  36.9053  37.3885  37.8154
    38.7937  39.6039  39.7938  41.0398  41.1281  41.6715  41.8910  42.8205
    43.0169  43.1732  44.6146  45.6348  45.6913  46.0471  46.6168  46.7987
    48.3249  48.5020  48.9336

          k = 0.4000 0.4000 0.0000 (  2077 PWs)   bands (ev):

   -11.4456 -11.3786 -10.5989 -10.5923 -10.5846 -10.5817 -10.4209 -10.4127
   -10.3653 -10.3622  -8.3643  -7.7921  -7.6991  -7.1060   3.3381   3.9746
     5.4002   5.9615   6.5688   6.7386   7.3933   7.6109   8.3003   8.3251
     8.5203   8.6011  14.1301  14.5581  17.1761  17.1845  20.1414  20.3275
    21.6977  21.9604  22.3733  22.7876  23.0721  23.5817  26.7754  26.9768
    28.0287  28.0425  28.2695  29.6812  30.0960  30.1086  30.6538  31.9209
    32.0668  33.1264  34.8713  35.6023  35.6542  36.0038  37.0152  37.3383
    37.5608  38.4151  38.6536  38.9065  41.5189  42.0319  42.4073  43.6072
    43.9294  44.3487  44.4911  44.9377  45.1282  45.1844  45.2192  45.4672
    46.2808  46.5622  46.6478

          k = 0.4000 0.4000 0.3103 (  2070 PWs)   bands (ev):

   -11.2683 -11.2055 -10.9739 -10.9229 -10.5291 -10.5200 -10.4202 -10.4159
   -10.4098 -10.4042  -8.0664  -7.6368  -7.1487  -6.7792   2.8578   3.1438
     5.4755   5.7949   6.2196   6.2927   6.7579   7.3299   8.2291   8.5160
     8.5526   8.8079  14.5139  14.8601  18.1989  18.2259  19.4839  20.2521
    20.6882  21.3082  22.0515  22.0844  24.2928  25.1885  25.6037  25.7518
    26.8875  27.1418  29.9255  30.1052  30.1146  30.1962  31.2331  31.5844
    33.3413  33.7159  34.4239  34.7487  36.1732  36.7535  37.3254  38.1995
    38.8902  38.9067  39.5131  39.8757  42.1630  42.2178  42.6383  43.1517
    43.5736  43.7994  44.1814  44.3135  44.7820  44.8818  45.5172  45.8063
    46.4313  46.7896  46.9556

          k = 0.4000 0.4000 0.6207 (  2082 PWs)   bands (ev):

   -11.4993 -11.4357 -10.9237 -10.8164 -10.4915 -10.4902 -10.3966 -10.3941
   -10.3651 -10.3627  -7.7854  -7.5904  -6.2317  -6.1102   1.8007   1.9409
     4.7482   4.7517   5.6187   6.6806   6.8446   7.8230   8.3872   8.4646
     8.5644   8.6436  14.4613  14.5702  18.2816  18.6862  20.2545  20.5124
    20.7134  20.9495  22.2296  22.3915  23.9626  24.3824  24.4067  26.2768
    27.2687  27.5249  28.6466  29.6284  30.1081  30.1086  32.4674  33.0680
    33.9454  34.0357  35.3368  35.8242  36.6790  37.2328  37.7446  38.0624
    38.3292  39.4082  39.9972  40.2090  41.7925  41.8466  42.6521  43.2866
    43.3226  44.1408  44.2572  44.5195  45.1228  45.7584  46.5603  47.3670
    47.9218  48.2543  48.7682

          k =-0.2000 0.2000 0.0000 (  2061 PWs)   bands (ev):

   -11.5793 -11.1076 -10.6176 -10.5835 -10.5758 -10.5503 -10.4484 -10.3930
   -10.3710 -10.3628  -9.2134  -7.7311  -7.6955  -6.1447   1.7765   4.5482
     5.2716   6.0805   6.7386   7.2076   7.5703   7.8048   8.3360   8.4024
     8.6184   9.1383  12.2771  15.2766  16.6049  16.6697  20.0871  20.9102
    21.1898  21.3565  21.9856  22.2987  24.0491  26.1021  27.1818  27.3591
    27.6594  28.4683  28.9241  30.1059  30.1103  30.2864  31.2999  31.5203
    32.2605  32.6825  34.1336  35.0450  35.3351  35.7584  35.7836  36.3652
    36.9567  38.4447  40.0758  40.1678  40.2813  40.3938  42.1993  42.5645
    43.1037  43.3606  44.0354  44.4258  44.5478  45.3013  45.3034  45.4330
    46.0994  46.9999  47.8573

          k =-0.2000 0.2000-0.3103 (  2068 PWs)   bands (ev):

   -11.4132 -11.0777 -10.9694 -10.7671 -10.5387 -10.4870 -10.4371 -10.4146
   -10.4107 -10.3887  -8.9608  -7.3785  -7.0962  -6.1353   1.8120   4.0679
     5.3181   5.6871   6.0472   6.4531   6.9340   7.4828   7.9840   8.4146
     8.6410   9.0932  13.4029  15.9585  17.9015  17.9239  18.7367  20.8898
    20.9353  21.6160  21.9141  21.9632  23.1132  24.8453  25.3974  26.6308
    28.3334  29.3848  29.7224  30.1054  30.1076  30.5362  30.8737  32.2532
    32.9433  34.4456  34.7657  34.9508  35.3287  36.5079  36.6761  37.3962
    37.9044  38.2386  39.3622  40.2702  40.6285  41.0181  41.7493  42.0892
    42.7526  42.9475  43.2106  44.2718  44.5832  45.0901  46.3164  46.4899
    47.5907  47.8703  48.3823

          k =-0.2000 0.2000-0.6207 (  2073 PWs)   bands (ev):

   -11.5705 -11.4292 -10.9448 -10.6090 -10.4929 -10.4904 -10.4059 -10.3892
   -10.3714 -10.3549  -8.3162  -7.4331  -6.1908  -5.9141   1.9121   2.9953
     4.1926   5.0596   5.1005   6.3292   6.6088   7.7836   7.9719   8.4150
     8.4285   8.5083  14.9534  15.9901  17.5841  19.5383  19.5467  20.4771
    20.8155  21.5169  22.1311  22.2336  22.7716  23.1063  23.6582  26.0903
    28.7332  28.9895  30.1034  30.1084  30.3818  31.5284  32.4885  33.1332
    33.6380  33.7528  35.0844  35.4298  36.0828  36.4076  36.6957  37.1972
    38.8355  39.0793  40.4910  40.9776  41.2236  41.7221  41.8771  42.8152
    43.2119  43.3297  43.7745  43.8068  44.1832  46.2497  46.3940  47.2777
    48.1615  48.1957  48.7692

          k =-0.2000 0.4000 0.0000 (  2073 PWs)   bands (ev):

   -11.4610 -11.2811 -10.6072 -10.5876 -10.5812 -10.5764 -10.4295 -10.4083
   -10.3707 -10.3656  -8.8223  -8.2628  -7.1770  -6.5763   2.5621   3.6437
     5.7978   6.4073   6.6811   6.8380   7.1980   7.6902   8.3432   8.3816
     8.6469   8.8240  13.4922  14.6119  16.9343  17.0340  20.1185  20.4063
    21.5751  21.8766  22.0030  23.0311  23.0778  24.2597  27.4088  27.4935
    27.8037  27.8900  28.3851  29.2760  30.1096  30.1110  31.3516  31.9314
    32.4916  33.1203  34.1358  35.3020  35.9961  36.3854  36.6384  37.3518
    37.4647  38.1193  38.5916  39.1839  40.6147  41.3848  42.0712  43.2178
    43.4470  43.8606  43.9429  44.5581  44.7624  44.8921  44.9576  45.5597
    46.3505  47.1088  47.1611

          k =-0.2000 0.4000-0.3103 (  2079 PWs)   bands (ev):

   -11.3284 -11.2009 -10.9236 -10.8369 -10.5283 -10.5065 -10.4254 -10.4154
   -10.4090 -10.3985  -8.5228  -7.9093  -6.7858  -6.3678   2.5005   3.3454
     5.1274   5.2235   6.4079   6.5574   7.1435   7.8879   7.9716   8.2128
     8.6462   8.8998  14.2249  15.1888  18.1485  18.2263  18.9580  19.8568
    21.3864  21.7604  21.9193  22.2182  23.0056  24.2069  25.5155  26.7476
    27.9357  28.6678  29.8047  30.1005  30.1114  30.1465  31.1279  31.6475
    33.3150  34.3357  34.7950  35.0695  35.3518  35.6070  37.2176  37.9837
    38.5490  38.9058  39.4781  39.9818  41.3455  41.8676  42.1170  42.6400
    42.9870  43.4223  43.5678  43.8902  44.6590  45.1662  45.8858  46.6309
    46.8065  47.0098  48.0693

          k =-0.2000 0.4000-0.6207 (  2085 PWs)   bands (ev):

   -11.5724 -11.4964 -10.8250 -10.6577 -10.4943 -10.4909 -10.3990 -10.3926
   -10.3644 -10.3588  -8.0906  -7.7198  -6.0952  -5.9350   2.0642   2.4732
     4.4016   4.7443   5.1140   5.6819   7.5765   8.0350   8.2145   8.3697
     8.5141   8.6280  14.9564  15.3329  17.7709  18.5268  20.2048  20.5181
    20.9576  21.3823  22.0440  22.1929  22.7770  23.1286  24.5408  26.1567
    28.6311  28.8433  29.5242  30.1074  30.1111  30.8973  32.1088  32.9639
    33.3739  33.5506  34.9477  35.3320  36.5194  36.9053  37.3885  37.8154
    38.7937  39.6040  39.7938  41.0398  41.1281  41.6715  41.8910  42.8205
    43.0169  43.1732  44.6146  45.6347  45.6913  46.0471  46.6168  46.7987
    48.3249  48.5020  48.9336

          k =-0.4000 0.4000 0.0000 (  2077 PWs)   bands (ev):

   -11.4456 -11.3786 -10.5989 -10.5923 -10.5846 -10.5817 -10.4209 -10.4127
   -10.3653 -10.3622  -8.3643  -7.7922  -7.6990  -7.1060   3.3381   3.9746
     5.4001   5.9615   6.5688   6.7387   7.3934   7.6109   8.3001   8.3252
     8.5204   8.6009  14.1301  14.5580  17.1761  17.1845  20.1415  20.3275
    21.6977  21.9604  22.3733  22.7876  23.0721  23.5817  26.7754  26.9767
    28.0287  28.0425  28.2695  29.6812  30.0960  30.1086  30.6538  31.9209
    32.0668  33.1264  34.8713  35.6023  35.6542  36.0038  37.0152  37.3383
    37.5608  38.4151  38.6537  38.9065  41.5189  42.0318  42.4073  43.6072
    43.9295  44.3486  44.4911  44.9377  45.1282  45.1843  45.2193  45.4672
    46.2809  46.5622  46.6478

          k =-0.4000 0.4000-0.3103 (  2070 PWs)   bands (ev):

   -11.2683 -11.2055 -10.9740 -10.9229 -10.5291 -10.5200 -10.4202 -10.4159
   -10.4098 -10.4042  -8.0664  -7.6367  -7.1489  -6.7791   2.8578   3.1438
     5.4756   5.7948   6.2197   6.2926   6.7578   7.3300   8.2290   8.5160
     8.5527   8.8078  14.5140  14.8601  18.1989  18.2259  19.4840  20.2521
    20.6883  21.3082  22.0515  22.0844  24.2928  25.1885  25.6036  25.7518
    26.8875  27.1418  29.9255  30.1052  30.1146  30.1962  31.2331  31.5844
    33.3413  33.7158  34.4239  34.7487  36.1732  36.7535  37.3254  38.1995
    38.8901  38.9067  39.5132  39.8757  42.1630  42.2178  42.6383  43.1517
    43.5736  43.7994  44.1814  44.3135  44.7820  44.8818  45.5172  45.8063
    46.4313  46.7896  46.9556

          k =-0.4000 0.4000-0.6207 (  2082 PWs)   bands (ev):

   -11.4992 -11.4357 -10.9238 -10.8164 -10.4915 -10.4902 -10.3966 -10.3941
   -10.3651 -10.3627  -7.7854  -7.5904  -6.2318  -6.1101   1.8008   1.9409
     4.7483   4.7517   5.6188   6.6805   6.8446   7.8231   8.3872   8.4645
     8.5646   8.6435  14.4614  14.5702  18.2816  18.6861  20.2546  20.5124
    20.7133  20.9495  22.2296  22.3915  23.9626  24.3824  24.4067  26.2768
    27.2687  27.5250  28.6466  29.6284  30.1081  30.1086  32.4674  33.0680
    33.9454  34.0358  35.3368  35.8242  36.6789  37.2328  37.7446  38.0623
    38.3292  39.4082  39.9972  40.2090  41.7926  41.8466  42.6521  43.2865
    43.3226  44.1408  44.2572  44.5195  45.1229  45.7584  46.5603  47.3670
    47.9218  48.2543  48.7681

 ------ SPIN DOWN ----------


          k = 0.0000 0.0000 0.0000 (  2063 PWs)   bands (ev):

   -11.6759 -10.9724 -10.6239 -10.5828 -10.5827 -10.4670 -10.4649 -10.3806
   -10.3631 -10.3631  -9.4752  -7.6935  -7.6934  -5.9019   1.2406   5.2360
     5.2360   5.8215   6.3551   7.4706   7.5671   8.3585   8.3587   8.6641
     8.6641   9.4836  10.8018  16.0604  16.1097  16.1097  19.7673  20.5274
    21.3756  21.3756  21.9118  22.0675  25.0321  27.0018  28.4401  28.6662
    29.3551  29.3551  29.6899  29.6899  30.1073  30.1087  30.2041  30.2041
    31.4316  31.9194  32.2023  32.9576  35.2336  35.2336  37.3613  37.3614
    37.3660  38.1541  39.7339  39.8230  39.8230  41.4739  42.0553  42.0715
    43.2307  43.2308  43.6726  43.8127  43.9449  43.9449  45.7896  46.0483
    46.7770  46.7770  47.5687

          k = 0.0000 0.0000 0.3103 (  2080 PWs)   bands (ev):

   -11.4743 -10.9664 -10.9664 -10.7388 -10.5439 -10.4894 -10.4483 -10.4156
   -10.4156 -10.3803  -9.2527  -7.0637  -7.0635  -6.1803   1.2791   5.4139
     5.6087   5.6155   5.6156   6.6275   7.0735   7.0845   7.0846   8.6801
     8.6802   9.1748  12.7066  16.6100  17.6150  17.6151  18.5975  21.3127
    21.3127  21.3214  21.3594  22.0110  24.4649  24.5995  25.8445  25.8445
    29.2153  30.0761  30.1079  30.1282  30.1552  30.2390  30.2390  33.8599
    33.8604  34.2802  34.2802  35.0932  35.0932  35.7797  35.8021  35.8021
    36.4594  38.5507  39.6249  40.3001  41.0007  41.0007  41.5460  42.3077
    42.4815  42.4815  43.4932  44.4345  45.0476  45.0994  45.0994  45.5970
    46.6848  46.6848  47.7073

          k = 0.0000 0.0000 0.6207 (  2076 PWs)   bands (ev):

   -11.4250 -11.4250 -11.0526 -10.7186 -10.4874 -10.4874 -10.4135 -10.3876
   -10.3798 -10.3547  -8.3855  -7.0972  -6.1653  -6.1651   1.7103   3.1796
     5.3046   5.3650   5.3651   6.0781   6.6232   6.6233   7.3758   8.3540
     8.3541   8.3581  14.8860  16.2864  18.4808  19.8380  19.8380  19.8722
    20.9208  20.9209  22.0576  22.4349  22.7409  23.8378  24.0790  24.0790
    29.7190  30.0134  30.0135  30.1075  30.1095  31.7581  31.8256  33.9171
    34.0926  34.3327  34.3327  35.0128  35.9490  35.9490  38.5437  38.9369
    38.9369  39.4995  39.4995  39.6010  40.4557  40.5275  41.3955  42.3895
    42.6876  43.0614  43.0615  43.3469  44.0554  44.0554  46.6335  47.6851
    47.6853  48.1675  48.2800

          k = 0.0000 0.2000 0.0000 (  2044 PWs)   bands (ev):

   -11.6187 -11.0380 -10.6213 -10.5803 -10.5802 -10.5209 -10.4559 -10.3876
   -10.3661 -10.3660  -9.3510  -7.9355  -7.4664  -6.0041   1.4960   4.5826
     5.4725   5.9603   6.5737   7.3518   7.7066   7.9890   8.3677   8.3832
     8.6921   9.2883  11.6614  15.5377  16.2833  16.5538  20.1071  20.8860
    21.0160  21.3714  21.9841  22.0707  24.4549  26.4654  27.1936  27.6744
    29.1143  29.4181  29.7382  30.0590  30.0849  30.1172  30.1201  30.3619
    31.3915  33.1936  33.6110  34.2001  34.5343  35.4576  36.5365  36.9802
    37.4126  38.6383  39.5818  39.8296  40.7925  41.3686  41.5561  42.0355
    43.2300  43.5273  43.7243  43.7758  43.8082  44.8510  45.1715  45.4936
    46.9044  47.2293  47.7228

          k = 0.0000 0.2000 0.3103 (  2075 PWs)   bands (ev):

   -11.4424 -11.0534 -10.9425 -10.7467 -10.5385 -10.4872 -10.4421 -10.4138
   -10.4109 -10.3848  -9.1158  -7.4211  -6.9109  -6.1142   1.5523   4.7632
     4.9189   5.4580   6.4049   6.5952   6.9002   7.3664   7.6429   8.5491
     8.6564   9.1186  13.0859  16.2857  17.7221  17.7860  18.7527  20.6956
    21.3689  21.5394  21.5728  21.9789  23.7066  24.7812  24.9929  27.0204
    28.6312  29.4582  30.1019  30.1071  30.1867  30.6223  30.7531  32.7820
    33.4305  33.5559  34.5297  34.5813  35.8516  36.0231  36.2894  37.3360
    37.4000  38.5599  38.7986  40.4885  40.9223  41.4138  41.5499  41.8406
    42.3295  42.8360  42.9725  44.5278  44.6445  45.1114  45.9931  46.2157
    47.3184  47.3925  48.2637

          k = 0.0000 0.2000 0.6207 (  2084 PWs)   bands (ev):

   -11.5004 -11.4845 -10.9231 -10.6557 -10.4916 -10.4883 -10.4091 -10.3884
   -10.3744 -10.3540  -8.3667  -7.3690  -6.0908  -6.0288   1.8982   3.1137
     4.5921   5.0396   5.4152   5.4799   7.2867   7.3671   7.6031   8.3117
     8.4312   8.4636  15.0191  16.2374  18.0908  18.7205  20.0349  20.4818
    21.0815  21.1802  22.0297  22.2161  22.8107  22.8956  24.1121  25.1861
    29.1216  29.6997  30.1074  30.1080  30.9510  31.6023  32.5495  32.8171
    33.4100  33.7219  35.1245  35.2664  35.9118  36.2794  36.5460  38.1002
    39.2778  39.4851  40.0162  40.1160  41.1480  41.1562  41.9395  42.2439
    42.9443  43.1494  43.5196  44.2982  44.3772  45.2307  46.7591  46.9748
    47.5006  48.2416  48.2829

          k = 0.0000 0.4000 0.0000 (  2080 PWs)   bands (ev):

   -11.4570 -11.2310 -10.6117 -10.5855 -10.5760 -10.5759 -10.4333 -10.4071
   -10.3710 -10.3708  -8.9917  -8.4645  -6.9346  -6.3701   2.2486   3.3729
     6.0877   6.3423   6.8644   6.9617   7.1434   7.7016   8.3867   8.3993
     8.7642   8.9281  13.1678  14.5773  16.7574  16.9424  20.2597  20.3736
    21.6517  21.8542  21.9159  22.6920  23.1759  24.1991  27.4393  27.7068
    28.3804  28.8707  29.5620  29.8544  30.1009  30.1118  30.2229  30.6914
    31.2344  33.0359  34.6371  34.9965  35.7013  36.8072  37.3505  37.4740
    37.9144  38.2652  38.6773  39.5444  40.3647  41.4926  41.9400  42.5924
    42.6355  42.6582  43.3240  44.4829  44.5672  44.7417  45.0347  45.2465
    46.1178  47.6193  47.8612

          k = 0.0000 0.4000 0.3103 (  2078 PWs)   bands (ev):

   -11.3502 -11.2102 -10.8786 -10.7996 -10.5232 -10.5018 -10.4275 -10.4134
   -10.4073 -10.3957  -8.7015  -8.0821  -6.5557  -6.2216   2.3305   3.4805
     4.7774   5.0254   6.5916   6.7677   7.4098   7.8611   7.9416   8.2007
     8.6351   8.8564  14.1144  15.3589  18.1199  18.1400  18.9211  19.5959
    21.7518  21.7992  21.9419  22.1531  22.8655  23.4192  25.6310  27.1809
    28.4669  29.1142  30.1072  30.1097  30.5900  30.8062  30.8118  31.9052
    32.5258  33.2899  34.1649  35.1718  35.6372  36.1174  36.8829  37.5764
    38.2744  38.8622  40.1513  40.5967  41.1201  41.5715  42.0401  42.1517
    42.6939  43.3313  43.3458  43.7231  43.8611  45.4332  46.5953  46.7961
    46.8618  47.2324  48.1045

          k = 0.0000 0.4000 0.6207 (  2085 PWs)   bands (ev):

   -11.5755 -11.5660 -10.7190 -10.6148 -10.4942 -10.4873 -10.4001 -10.3922
   -10.3644 -10.3568  -8.2171  -7.8469  -5.9522  -5.9058   2.4027   2.9117
     4.0139   4.1256   5.3836   5.4033   7.7230   7.8300   8.1324   8.4519
     8.4620   8.7005  15.4410  15.9927  17.5808  17.7222  20.3209  20.5656
    21.4295  21.4998  21.9010  22.0831  22.1335  22.6558  24.7560  25.5841
    29.5464  29.8705  30.1061  30.1077  31.3259  31.3589  31.7253  32.3147
    32.5074  33.2982  34.1834  34.6807  36.2396  37.2928  37.3650  37.6080
    39.6484  39.8626  39.9481  40.5669  41.2080  41.4554  41.5210  42.3300
    42.8286  43.2472  45.1756  45.4725  45.9215  46.3891  46.7915  47.1149
    48.3236  48.3740  48.8413

          k = 0.2000 0.2000 0.0000 (  2061 PWs)   bands (ev):

   -11.5793 -11.1076 -10.6176 -10.5834 -10.5758 -10.5503 -10.4484 -10.3930
   -10.3710 -10.3628  -9.2134  -7.7309  -7.6956  -6.1447   1.7765   4.5481
     5.2717   6.0805   6.7386   7.2076   7.5703   7.8049   8.3362   8.4023
     8.6184   9.1383  12.2770  15.2766  16.6050  16.6696  20.0871  20.9103
    21.1898  21.3565  21.9856  22.2987  24.0491  26.1021  27.1817  27.3592
    27.6594  28.4683  28.9241  30.1059  30.1103  30.2864  31.2999  31.5203
    32.2605  32.6825  34.1336  35.0450  35.3351  35.7584  35.7836  36.3651
    36.9567  38.4447  40.0758  40.1678  40.2814  40.3938  42.1993  42.5645
    43.1037  43.3606  44.0354  44.4257  44.5478  45.3013  45.3034  45.4330
    46.0995  46.9999  47.8573

          k = 0.2000 0.2000 0.3103 (  2068 PWs)   bands (ev):

   -11.4132 -11.0777 -10.9694 -10.7671 -10.5387 -10.4870 -10.4371 -10.4146
   -10.4107 -10.3887  -8.9608  -7.3786  -7.0961  -6.1353   1.8120   4.0678
     5.3180   5.6871   6.0472   6.4532   6.9339   7.4829   7.9840   8.4146
     8.6409   9.0932  13.4029  15.9585  17.9015  17.9240  18.7367  20.8898
    20.9353  21.6160  21.9141  21.9631  23.1132  24.8453  25.3974  26.6308
    28.3334  29.3848  29.7224  30.1055  30.1076  30.5362  30.8737  32.2532
    32.9433  34.4456  34.7657  34.9508  35.3287  36.5079  36.6761  37.3962
    37.9045  38.2386  39.3622  40.2703  40.6285  41.0181  41.7493  42.0892
    42.7527  42.9475  43.2106  44.2718  44.5832  45.0901  46.3164  46.4899
    47.5907  47.8702  48.3823

          k = 0.2000 0.2000 0.6207 (  2073 PWs)   bands (ev):

   -11.5705 -11.4292 -10.9448 -10.6090 -10.4929 -10.4904 -10.4059 -10.3892
   -10.3714 -10.3549  -8.3162  -7.4331  -6.1907  -5.9142   1.9121   2.9953
     4.1924   5.0595   5.1006   6.3292   6.6089   7.7836   7.9720   8.4150
     8.4284   8.5083  14.9534  15.9901  17.5841  19.5383  19.5468  20.4771
    20.8155  21.5169  22.1311  22.2336  22.7716  23.1063  23.6582  26.0904
    28.7332  28.9895  30.1034  30.1084  30.3818  31.5284  32.4885  33.1332
    33.6380  33.7528  35.0844  35.4298  36.0828  36.4076  36.6956  37.1973
    38.8355  39.0793  40.4910  40.9775  41.2236  41.7221  41.8771  42.8152
    43.2119  43.3297  43.7745  43.8068  44.1832  46.2497  46.3939  47.2777
    48.1615  48.1957  48.7692

          k = 0.2000 0.4000 0.0000 (  2073 PWs)   bands (ev):

   -11.4610 -11.2811 -10.6072 -10.5877 -10.5812 -10.5764 -10.4295 -10.4083
   -10.3707 -10.3656  -8.8224  -8.2627  -7.1770  -6.5763   2.5621   3.6437
     5.7978   6.4074   6.6811   6.8379   7.1980   7.6902   8.3433   8.3815
     8.6468   8.8240  13.4921  14.6119  16.9343  17.0340  20.1185  20.4063
    21.5751  21.8766  22.0030  23.0311  23.0779  24.2597  27.4088  27.4935
    27.8037  27.8900  28.3851  29.2760  30.1096  30.1110  31.3516  31.9314
    32.4916  33.1203  34.1358  35.3020  35.9961  36.3854  36.6384  37.3518
    37.4647  38.1193  38.5917  39.1839  40.6147  41.3848  42.0712  43.2178
    43.4470  43.8606  43.9429  44.5581  44.7624  44.8921  44.9576  45.5597
    46.3505  47.1088  47.1611

          k = 0.2000 0.4000 0.3103 (  2079 PWs)   bands (ev):

   -11.3284 -11.2009 -10.9236 -10.8369 -10.5283 -10.5065 -10.4254 -10.4154
   -10.4090 -10.3985  -8.5228  -7.9093  -6.7858  -6.3679   2.5005   3.3454
     5.1273   5.2236   6.4079   6.5573   7.1436   7.8880   7.9716   8.2128
     8.6461   8.8998  14.2248  15.1888  18.1485  18.2262  18.9580  19.8568
    21.3864  21.7604  21.9193  22.2182  23.0056  24.2069  25.5155  26.7476
    27.9357  28.6678  29.8047  30.1005  30.1113  30.1465  31.1279  31.6475
    33.3150  34.3357  34.7950  35.0695  35.3517  35.6070  37.2176  37.9837
    38.5490  38.9058  39.4781  39.9818  41.3455  41.8676  42.1170  42.6400
    42.9870  43.4223  43.5678  43.8902  44.6590  45.1662  45.8858  46.6309
    46.8065  47.0098  48.0694

          k = 0.2000 0.4000 0.6207 (  2085 PWs)   bands (ev):

   -11.5724 -11.4963 -10.8250 -10.6577 -10.4943 -10.4909 -10.3990 -10.3926
   -10.3644 -10.3588  -8.0907  -7.7197  -6.0951  -5.9351   2.0642   2.4732
     4.4015   4.7443   5.1141   5.6819   7.5766   8.0351   8.2144   8.3698
     8.5140   8.6280  14.9564  15.3329  17.7708  18.5268  20.2048  20.5181
    20.9576  21.3823  22.0440  22.1930  22.7770  23.1286  24.5408  26.1567
    28.6311  28.8433  29.5242  30.1074  30.1111  30.8973  32.1088  32.9639
    33.3739  33.5506  34.9477  35.3320  36.5194  36.9053  37.3885  37.8154
    38.7937  39.6039  39.7938  41.0398  41.1281  41.6715  41.8910  42.8205
    43.0169  43.1732  44.6146  45.6348  45.6913  46.0471  46.6168  46.7987
    48.3249  48.5020  48.9336

          k = 0.4000 0.4000 0.0000 (  2077 PWs)   bands (ev):

   -11.4456 -11.3786 -10.5989 -10.5923 -10.5846 -10.5817 -10.4209 -10.4127
   -10.3653 -10.3622  -8.3643  -7.7921  -7.6991  -7.1060   3.3381   3.9746
     5.4002   5.9615   6.5688   6.7386   7.3933   7.6109   8.3003   8.3251
     8.5203   8.6011  14.1301  14.5581  17.1761  17.1845  20.1414  20.3275
    21.6977  21.9604  22.3733  22.7876  23.0721  23.5817  26.7754  26.9768
    28.0287  28.0425  28.2695  29.6812  30.0960  30.1086  30.6538  31.9209
    32.0668  33.1264  34.8713  35.6023  35.6542  36.0038  37.0152  37.3383
    37.5608  38.4151  38.6536  38.9065  41.5189  42.0319  42.4073  43.6072
    43.9294  44.3487  44.4911  44.9377  45.1282  45.1844  45.2192  45.4672
    46.2808  46.5622  46.6478

          k = 0.4000 0.4000 0.3103 (  2070 PWs)   bands (ev):

   -11.2683 -11.2055 -10.9739 -10.9229 -10.5291 -10.5200 -10.4202 -10.4159
   -10.4098 -10.4042  -8.0664  -7.6368  -7.1487  -6.7792   2.8578   3.1438
     5.4755   5.7949   6.2196   6.2927   6.7579   7.3299   8.2291   8.5160
     8.5526   8.8079  14.5139  14.8601  18.1989  18.2259  19.4839  20.2521
    20.6882  21.3082  22.0515  22.0844  24.2928  25.1885  25.6037  25.7518
    26.8875  27.1418  29.9255  30.1052  30.1146  30.1962  31.2331  31.5844
    33.3413  33.7159  34.4239  34.7487  36.1732  36.7535  37.3254  38.1995
    38.8902  38.9067  39.5131  39.8757  42.1630  42.2178  42.6383  43.1517
    43.5736  43.7994  44.1814  44.3135  44.7820  44.8818  45.5172  45.8063
    46.4313  46.7896  46.9556

          k = 0.4000 0.4000 0.6207 (  2082 PWs)   bands (ev):

   -11.4993 -11.4357 -10.9237 -10.8164 -10.4915 -10.4902 -10.3966 -10.3941
   -10.3651 -10.3627  -7.7854  -7.5904  -6.2317  -6.1102   1.8007   1.9409
     4.7482   4.7517   5.6187   6.6806   6.8446   7.8230   8.3872   8.4646
     8.5644   8.6436  14.4613  14.5702  18.2816  18.6862  20.2545  20.5124
    20.7134  20.9495  22.2296  22.3915  23.9626  24.3824  24.4067  26.2768
    27.2687  27.5249  28.6466  29.6284  30.1081  30.1086  32.4674  33.0680
    33.9454  34.0357  35.3368  35.8242  36.6790  37.2328  37.7446  38.0624
    38.3292  39.4082  39.9972  40.2090  41.7925  41.8466  42.6521  43.2866
    43.3226  44.1408  44.2572  44.5195  45.1228  45.7584  46.5603  47.3670
    47.9218  48.2543  48.7682

          k =-0.2000 0.2000 0.0000 (  2061 PWs)   bands (ev):

   -11.5793 -11.1076 -10.6176 -10.5835 -10.5758 -10.5503 -10.4484 -10.3930
   -10.3710 -10.3628  -9.2134  -7.7311  -7.6955  -6.1447   1.7765   4.5482
     5.2716   6.0805   6.7386   7.2076   7.5703   7.8048   8.3360   8.4024
     8.6184   9.1383  12.2771  15.2766  16.6049  16.6697  20.0871  20.9102
    21.1898  21.3565  21.9856  22.2987  24.0491  26.1021  27.1818  27.3591
    27.6594  28.4683  28.9241  30.1059  30.1103  30.2864  31.2999  31.5203
    32.2605  32.6825  34.1336  35.0450  35.3351  35.7584  35.7836  36.3651
    36.9567  38.4447  40.0758  40.1678  40.2813  40.3938  42.1993  42.5645
    43.1037  43.3606  44.0354  44.4258  44.5478  45.3013  45.3034  45.4330
    46.0994  46.9999  47.8573

          k =-0.2000 0.2000-0.3103 (  2068 PWs)   bands (ev):

   -11.4132 -11.0777 -10.9694 -10.7671 -10.5387 -10.4870 -10.4371 -10.4146
   -10.4108 -10.3887  -8.9608  -7.3785  -7.0962  -6.1353   1.8120   4.0679
     5.3181   5.6871   6.0472   6.4531   6.9340   7.4828   7.9840   8.4146
     8.6410   9.0932  13.4029  15.9585  17.9015  17.9239  18.7367  20.8898
    20.9353  21.6160  21.9141  21.9632  23.1132  24.8453  25.3974  26.6308
    28.3334  29.3848  29.7224  30.1054  30.1076  30.5361  30.8737  32.2532
    32.9433  34.4456  34.7657  34.9508  35.3287  36.5079  36.6761  37.3962
    37.9044  38.2386  39.3622  40.2702  40.6285  41.0181  41.7493  42.0892
    42.7526  42.9475  43.2106  44.2718  44.5832  45.0901  46.3164  46.4899
    47.5907  47.8702  48.3822

          k =-0.2000 0.2000-0.6207 (  2073 PWs)   bands (ev):

   -11.5705 -11.4292 -10.9448 -10.6090 -10.4929 -10.4904 -10.4059 -10.3892
   -10.3714 -10.3549  -8.3162  -7.4331  -6.1908  -5.9141   1.9121   2.9953
     4.1926   5.0596   5.1005   6.3292   6.6088   7.7836   7.9719   8.4150
     8.4285   8.5083  14.9534  15.9901  17.5841  19.5383  19.5467  20.4771
    20.8155  21.5169  22.1311  22.2336  22.7716  23.1063  23.6582  26.0903
    28.7332  28.9895  30.1034  30.1084  30.3818  31.5284  32.4885  33.1332
    33.6380  33.7528  35.0844  35.4298  36.0828  36.4076  36.6957  37.1972
    38.8355  39.0793  40.4910  40.9776  41.2236  41.7221  41.8771  42.8152
    43.2119  43.3297  43.7745  43.8068  44.1832  46.2497  46.3940  47.2777
    48.1615  48.1957  48.7691

          k =-0.2000 0.4000 0.0000 (  2073 PWs)   bands (ev):

   -11.4610 -11.2811 -10.6072 -10.5876 -10.5812 -10.5764 -10.4295 -10.4083
   -10.3707 -10.3656  -8.8223  -8.2628  -7.1770  -6.5763   2.5621   3.6437
     5.7978   6.4073   6.6811   6.8380   7.1980   7.6902   8.3432   8.3816
     8.6469   8.8240  13.4922  14.6119  16.9343  17.0340  20.1185  20.4063
    21.5751  21.8766  22.0030  23.0311  23.0778  24.2596  27.4088  27.4935
    27.8037  27.8900  28.3851  29.2760  30.1096  30.1110  31.3516  31.9314
    32.4916  33.1203  34.1358  35.3020  35.9961  36.3854  36.6384  37.3518
    37.4647  38.1193  38.5916  39.1839  40.6147  41.3848  42.0712  43.2178
    43.4470  43.8606  43.9429  44.5581  44.7624  44.8921  44.9576  45.5597
    46.3505  47.1088  47.1611

          k =-0.2000 0.4000-0.3103 (  2079 PWs)   bands (ev):

   -11.3284 -11.2009 -10.9236 -10.8369 -10.5283 -10.5065 -10.4254 -10.4154
   -10.4090 -10.3985  -8.5228  -7.9093  -6.7858  -6.3678   2.5005   3.3454
     5.1274   5.2235   6.4079   6.5574   7.1435   7.8879   7.9716   8.2128
     8.6462   8.8998  14.2249  15.1888  18.1485  18.2263  18.9580  19.8568
    21.3864  21.7604  21.9193  22.2182  23.0056  24.2069  25.5155  26.7476
    27.9357  28.6678  29.8047  30.1005  30.1114  30.1465  31.1279  31.6475
    33.3150  34.3357  34.7950  35.0695  35.3518  35.6070  37.2176  37.9837
    38.5490  38.9058  39.4781  39.9818  41.3455  41.8676  42.1170  42.6400
    42.9870  43.4223  43.5678  43.8902  44.6590  45.1662  45.8858  46.6309
    46.8065  47.0098  48.0694

          k =-0.2000 0.4000-0.6207 (  2085 PWs)   bands (ev):

   -11.5724 -11.4964 -10.8250 -10.6577 -10.4943 -10.4909 -10.3990 -10.3926
   -10.3644 -10.3588  -8.0906  -7.7198  -6.0952  -5.9350   2.0642   2.4732
     4.4016   4.7443   5.1140   5.6819   7.5765   8.0350   8.2145   8.3697
     8.5141   8.6280  14.9564  15.3329  17.7709  18.5268  20.2048  20.5181
    20.9576  21.3823  22.0440  22.1929  22.7770  23.1286  24.5408  26.1567
    28.6311  28.8433  29.5242  30.1074  30.1111  30.8973  32.1088  32.9639
    33.3739  33.5506  34.9477  35.3320  36.5194  36.9053  37.3885  37.8154
    38.7937  39.6040  39.7938  41.0398  41.1281  41.6715  41.8910  42.8205
    43.0169  43.1732  44.6146  45.6347  45.6913  46.0471  46.6168  46.7987
    48.3249  48.5020  48.9336

          k =-0.4000 0.4000 0.0000 (  2077 PWs)   bands (ev):

   -11.4456 -11.3786 -10.5989 -10.5923 -10.5846 -10.5817 -10.4209 -10.4127
   -10.3653 -10.3622  -8.3643  -7.7922  -7.6990  -7.1060   3.3381   3.9746
     5.4001   5.9615   6.5688   6.7387   7.3934   7.6109   8.3001   8.3252
     8.5204   8.6009  14.1301  14.5580  17.1761  17.1845  20.1415  20.3275
    21.6977  21.9604  22.3733  22.7876  23.0721  23.5817  26.7754  26.9767
    28.0287  28.0425  28.2695  29.6812  30.0960  30.1086  30.6538  31.9209
    32.0668  33.1264  34.8713  35.6023  35.6542  36.0038  37.0152  37.3383
    37.5608  38.4151  38.6537  38.9065  41.5189  42.0318  42.4073  43.6072
    43.9295  44.3486  44.4911  44.9377  45.1282  45.1843  45.2193  45.4672
    46.2809  46.5622  46.6478

          k =-0.4000 0.4000-0.3103 (  2070 PWs)   bands (ev):

   -11.2683 -11.2055 -10.9740 -10.9229 -10.5291 -10.5200 -10.4202 -10.4159
   -10.4098 -10.4042  -8.0664  -7.6367  -7.1489  -6.7791   2.8578   3.1438
     5.4756   5.7948   6.2197   6.2926   6.7578   7.3300   8.2290   8.5160
     8.5527   8.8078  14.5140  14.8601  18.1989  18.2259  19.4840  20.2521
    20.6882  21.3082  22.0515  22.0844  24.2928  25.1885  25.6036  25.7518
    26.8875  27.1418  29.9255  30.1052  30.1146  30.1962  31.2331  31.5844
    33.3413  33.7158  34.4239  34.7487  36.1732  36.7534  37.3254  38.1995
    38.8901  38.9067  39.5132  39.8757  42.1630  42.2178  42.6383  43.1517
    43.5736  43.7994  44.1814  44.3135  44.7820  44.8818  45.5172  45.8063
    46.4313  46.7896  46.9556

          k =-0.4000 0.4000-0.6207 (  2082 PWs)   bands (ev):

   -11.4992 -11.4357 -10.9238 -10.8164 -10.4915 -10.4902 -10.3966 -10.3941
   -10.3651 -10.3627  -7.7854  -7.5904  -6.2318  -6.1101   1.8008   1.9409
     4.7483   4.7517   5.6188   6.6805   6.8446   7.8231   8.3872   8.4645
     8.5646   8.6435  14.4614  14.5702  18.2816  18.6861  20.2546  20.5124
    20.7133  20.9495  22.2296  22.3915  23.9626  24.3824  24.4067  26.2768
    27.2687  27.5250  28.6466  29.6284  30.1081  30.1086  32.4674  33.0680
    33.9454  34.0358  35.3368  35.8242  36.6789  37.2328  37.7446  38.0623
    38.3292  39.4082  39.9972  40.2090  41.7926  41.8466  42.6521  43.2865
    43.3226  44.1408  44.2572  44.5195  45.1228  45.7584  46.5603  47.3670
    47.9218  48.2543  48.7683

     the Fermi energy is     9.5897 ev

!    total energy              =    -455.49624442 Ry
     Harris-Foulkes estimate   =    -455.49622933 Ry
     estimated scf accuracy    <       0.00000034 Ry

     The total energy is the sum of the following terms:

     one-electron contribution =    -132.56923738 Ry
     hartree contribution      =     107.55177012 Ry
     xc contribution           =    -124.76760022 Ry
     ewald contribution        =    -305.71118563 Ry
     smearing contrib. (-TS)   =       0.00000868 Ry

     total magnetization       =     0.00 Bohr mag/cell
     absolute magnetization    =     0.00 Bohr mag/cell

     convergence has been achieved in   7 iterations

     Forces acting on atoms (Ry/au):

     atom    1 type  1   force =     0.00000000    0.00000000    0.00000000
     atom    2 type  1   force =     0.00000000    0.00000000    0.00000000
     atom    3 type  2   force =    -0.00380423   -0.00380423    0.00000000
     atom    4 type  2   force =     0.00380423    0.00380423   -0.00000000
     atom    5 type  2   force =    -0.00380325    0.00380325    0.00000000
     atom    6 type  2   force =     0.00380325   -0.00380325    0.00000000

     Total force =     0.010759     Total SCF correction =     0.000834


     entering subroutine stress ...

          total   stress  (Ry/bohr**3)                   (kbar)     P=  112.86
   0.00048129  -0.00000016   0.00000000         70.80     -0.02      0.00
  -0.00000016   0.00048129   0.00000000         -0.02     70.80      0.00
   0.00000000   0.00000000   0.00133906          0.00      0.00    196.98

     Volume is kept fixed: isostatic pressure set to zero

     BFGS Geometry Optimization

     number of scf cycles    =   1
     number of bfgs steps    =   0

     enthalpy new            =    -455.4962444227 Ry

     new trust radius        =       0.0629959230 bohr
     new conv_thr            =       0.0000010000 Ry

     new unit-cell volume =    485.42829 a.u.^3 (    71.93305 Ang^3 )

CELL_PARAMETERS (alat=  9.09871090)
   0.992902405  -0.000003952   0.000000000
  -0.000003952   0.992902405   0.000000000
   0.000000000   0.000000000   0.653690779

ATOMIC_POSITIONS (crystal)
Sn0      0.000000000   0.000000000   0.000000000    0   0   0
Sn0      0.500000000   0.500000000   0.500000000    0   0   0
O1       0.304581893   0.304581893   0.000000000    1   1   0
O1      -0.304581893  -0.304581893   0.000000000    1   1   0
O1       0.804582001   0.195417999   0.500000000    1   1   0
O1       0.195417999   0.804582001   0.500000000    1   1   0


     NEW-OLD atomic charge density approx. for the potential
     NEW k-points:
        k(    1) = (   0.0000000   0.0000000   0.0000000), wk =   0.0080000
        k(    2) = (   0.0000000   0.0000000   0.3059551), wk =   0.0160000
        k(    3) = (   0.0000000   0.0000000   0.6119101), wk =   0.0160000
        k(    4) = (   0.0000008   0.2014297   0.0000000), wk =   0.0320000
        k(    5) = (   0.0000008   0.2014297   0.3059551), wk =   0.0640000
        k(    6) = (   0.0000008   0.2014297   0.6119101), wk =   0.0640000
        k(    7) = (   0.0000016   0.4028593   0.0000000), wk =   0.0320000
        k(    8) = (   0.0000016   0.4028593   0.3059551), wk =   0.0640000
        k(    9) = (   0.0000016   0.4028593   0.6119101), wk =   0.0640000
        k(   10) = (   0.2014305   0.2014305   0.0000000), wk =   0.0160000
        k(   11) = (   0.2014305   0.2014305   0.3059551), wk =   0.0320000
        k(   12) = (   0.2014305   0.2014305   0.6119101), wk =   0.0320000
        k(   13) = (   0.2014313   0.4028601   0.0000000), wk =   0.0320000
        k(   14) = (   0.2014313   0.4028601   0.3059551), wk =   0.0640000
        k(   15) = (   0.2014313   0.4028601   0.6119101), wk =   0.0640000
        k(   16) = (   0.4028609   0.4028609   0.0000000), wk =   0.0160000
        k(   17) = (   0.4028609   0.4028609   0.3059551), wk =   0.0320000
        k(   18) = (   0.4028609   0.4028609   0.6119101), wk =   0.0320000
        k(   19) = (  -0.2014289   0.2014289   0.0000000), wk =   0.0160000
        k(   20) = (  -0.2014289   0.2014289  -0.3059551), wk =   0.0320000
        k(   21) = (  -0.2014289   0.2014289  -0.6119101), wk =   0.0320000
        k(   22) = (  -0.2014281   0.4028585   0.0000000), wk =   0.0320000
        k(   23) = (  -0.2014281   0.4028585  -0.3059551), wk =   0.0640000
        k(   24) = (  -0.2014281   0.4028585  -0.6119101), wk =   0.0640000
        k(   25) = (  -0.4028577   0.4028577   0.0000000), wk =   0.0160000
        k(   26) = (  -0.4028577   0.4028577  -0.3059551), wk =   0.0320000
        k(   27) = (  -0.4028577   0.4028577  -0.6119101), wk =   0.0320000
        k(   28) = (   0.0000000   0.0000000   0.0000000), wk =   0.0080000
        k(   29) = (   0.0000000   0.0000000   0.3059551), wk =   0.0160000
        k(   30) = (   0.0000000   0.0000000   0.6119101), wk =   0.0160000
        k(   31) = (   0.0000008   0.2014297   0.0000000), wk =   0.0320000
        k(   32) = (   0.0000008   0.2014297   0.3059551), wk =   0.0640000
        k(   33) = (   0.0000008   0.2014297   0.6119101), wk =   0.0640000
        k(   34) = (   0.0000016   0.4028593   0.0000000), wk =   0.0320000
        k(   35) = (   0.0000016   0.4028593   0.3059551), wk =   0.0640000
        k(   36) = (   0.0000016   0.4028593   0.6119101), wk =   0.0640000
        k(   37) = (   0.2014305   0.2014305   0.0000000), wk =   0.0160000
        k(   38) = (   0.2014305   0.2014305   0.3059551), wk =   0.0320000
        k(   39) = (   0.2014305   0.2014305   0.6119101), wk =   0.0320000
        k(   40) = (   0.2014313   0.4028601   0.0000000), wk =   0.0320000
        k(   41) = (   0.2014313   0.4028601   0.3059551), wk =   0.0640000
        k(   42) = (   0.2014313   0.4028601   0.6119101), wk =   0.0640000
        k(   43) = (   0.4028609   0.4028609   0.0000000), wk =   0.0160000
        k(   44) = (   0.4028609   0.4028609   0.3059551), wk =   0.0320000
        k(   45) = (   0.4028609   0.4028609   0.6119101), wk =   0.0320000
        k(   46) = (  -0.2014289   0.2014289   0.0000000), wk =   0.0160000
        k(   47) = (  -0.2014289   0.2014289  -0.3059551), wk =   0.0320000
        k(   48) = (  -0.2014289   0.2014289  -0.6119101), wk =   0.0320000
        k(   49) = (  -0.2014281   0.4028585   0.0000000), wk =   0.0320000
        k(   50) = (  -0.2014281   0.4028585  -0.3059551), wk =   0.0640000
        k(   51) = (  -0.2014281   0.4028585  -0.6119101), wk =   0.0640000
        k(   52) = (  -0.4028577   0.4028577   0.0000000), wk =   0.0160000
        k(   53) = (  -0.4028577   0.4028577  -0.3059551), wk =   0.0320000
        k(   54) = (  -0.4028577   0.4028577  -0.6119101), wk =   0.0320000

     Check: negative/imaginary core charge=   -0.000004    0.000000

     total cpu time spent up to now is      379.0 secs

     per-process dynamical memory:    67.9 Mb

     Self-consistent Calculation

     iteration #  1     ecut=    40.00 Ry     beta=0.30
     Davidson diagonalization with overlap
     ethr =  1.00E-06,  avg # of iterations =  4.8

     total cpu time spent up to now is      462.4 secs

     total energy              =    -455.50088499 Ry
     Harris-Foulkes estimate   =    -455.50089426 Ry
     estimated scf accuracy    <       0.00017771 Ry

     total magnetization       =     0.00 Bohr mag/cell
     absolute magnetization    =     0.00 Bohr mag/cell

     iteration #  2     ecut=    40.00 Ry     beta=0.30
     Davidson diagonalization with overlap
     ethr =  3.42E-07,  avg # of iterations =  1.0

     total cpu time spent up to now is      498.9 secs

     total energy              =    -455.50088946 Ry
     Harris-Foulkes estimate   =    -455.50089048 Ry
     estimated scf accuracy    <       0.00006428 Ry

     total magnetization       =     0.00 Bohr mag/cell
     absolute magnetization    =     0.00 Bohr mag/cell

     iteration #  3     ecut=    40.00 Ry     beta=0.30
     Davidson diagonalization with overlap
     ethr =  1.24E-07,  avg # of iterations =  1.0

     total cpu time spent up to now is      534.1 secs

     total energy              =    -455.50089964 Ry
     Harris-Foulkes estimate   =    -455.50089301 Ry
     estimated scf accuracy    <       0.00000672 Ry

     total magnetization       =     0.00 Bohr mag/cell
     absolute magnetization    =     0.00 Bohr mag/cell

     iteration #  4     ecut=    40.00 Ry     beta=0.30
     Davidson diagonalization with overlap
     ethr =  1.29E-08,  avg # of iterations =  1.0

     total cpu time spent up to now is      569.4 secs

     End of self-consistent calculation

 ------ SPIN UP ------------


          k = 0.0000 0.0000 0.0000 (  2063 PWs)   bands (ev):

   -11.6494 -10.9015 -10.6167 -10.5787 -10.5787 -10.4920 -10.4625 -10.3766
   -10.3537 -10.3536  -9.4514  -7.6403  -7.6401  -5.8111   1.2633   5.3202
     5.3202   5.7090   6.3737   7.5625   7.5660   8.3099   8.3100   8.7037
     8.7038   9.4979  10.7324  15.8878  15.9665  15.9665  19.8194  20.2237
    21.5480  21.5481  21.9468  22.1397  24.8220  26.6443  28.5030  28.8088
    29.4174  29.4175  29.4572  29.4573  30.0980  30.1003  30.4191  30.4191
    31.6341  31.6614  32.2485  33.0062  35.5381  35.5382  37.0387  37.0387
    37.1517  38.1457  39.9182  39.9184  40.0818  41.3739  41.7181  42.5201
    43.1631  43.1632  43.7694  43.9082  44.1185  44.1187  45.2758  46.2153
    47.0960  47.0961  47.6045

          k = 0.0000 0.0000 0.3060 (  2080 PWs)   bands (ev):

   -11.4643 -10.9270 -10.9270 -10.7029 -10.5424 -10.5145 -10.4467 -10.4013
   -10.4013 -10.3774  -9.2152  -7.0586  -7.0584  -6.1052   1.2944   5.3763
     5.6039   5.6779   5.6780   6.6408   7.0885   7.0887   7.1659   8.7012
     8.7013   9.1807  12.6467  16.4634  17.4609  17.4610  18.5500  21.3213
    21.4108  21.4391  21.4392  22.0810  24.3217  24.4690  25.8966  25.8967
    29.0507  30.0839  30.0988  30.2155  30.2575  30.4497  30.4498  33.7227
    34.0368  34.1342  34.1342  35.0399  35.0400  35.4939  35.9347  35.9347
    36.5327  38.3288  39.9689  40.3679  41.0112  41.0113  41.0556  42.2278
    42.4967  42.4968  43.7147  44.5293  44.9890  45.0323  45.0324  45.5146
    46.9208  46.9210  47.3111

          k = 0.0000 0.0000 0.6119 (  2076 PWs)   bands (ev):

   -11.3531 -11.3530 -11.0722 -10.7482 -10.4651 -10.4651 -10.4131 -10.3902
   -10.3867 -10.3642  -8.3347  -7.0461  -6.2207  -6.2206   1.7290   3.1962
     5.3580   5.4354   5.4356   6.1567   6.6335   6.6336   7.3776   8.3546
     8.3665   8.3666  14.8583  16.2404  18.5356  19.7573  19.7573  19.9619
    20.9258  20.9259  22.1121  22.4979  22.7379  23.8249  24.2222  24.2223
    29.3645  30.0983  30.0999  30.1363  30.1364  31.8862  31.9464  34.0662
    34.1803  34.3802  34.3803  34.3934  36.1575  36.1577  38.6238  38.6238
    38.6696  39.6227  39.6228  39.9208  40.4307  40.4545  41.4288  41.8716
    42.4646  42.7142  42.7142  43.5873  44.1074  44.1074  46.6513  47.6050
    47.7858  47.7862  48.3384

          k = 0.0000 0.2014 0.0000 (  2044 PWs)   bands (ev):

   -11.5901 -10.9719 -10.6152 -10.5760 -10.5758 -10.5419 -10.4533 -10.3836
   -10.3569 -10.3568  -9.3274  -7.8877  -7.4075  -5.9147   1.5250   4.6639
     5.5449   5.8549   6.5919   7.3310   7.7739   8.0107   8.3204   8.3405
     8.7324   9.3042  11.6320  15.4420  16.1500  16.3738  20.1711  20.5928
    21.1908  21.5355  22.0188  22.1121  24.2360  26.5179  26.8448  27.7379
    28.8437  29.4917  29.7728  29.8547  30.0955  30.1135  30.2411  30.5551
    31.6548  32.9460  33.6952  34.4525  34.6958  35.2632  36.8126  36.8216
    37.1004  38.4849  39.7509  39.9496  40.5998  41.7024  41.8713  41.9259
    43.3430  43.6392  43.6503  43.6780  43.8732  44.6915  45.0025  45.7166
    47.1447  47.2582  48.0133

          k = 0.0000 0.2014 0.3060 (  2075 PWs)   bands (ev):

   -11.4315 -11.0249 -10.9025 -10.7051 -10.5372 -10.5012 -10.4400 -10.4002
   -10.3989 -10.3812  -9.0874  -7.4094  -6.8972  -6.0502   1.5719   4.8178
     4.9051   5.4532   6.4326   6.6069   6.9184   7.3808   7.6909   8.5838
     8.6777   9.1288  13.0411  16.1852  17.5737  17.6266  18.7268  20.7904
    21.4076  21.5963  21.6378  22.0326  23.6054  24.6825  25.0386  26.9933
    28.5952  29.4935  30.0953  30.0981  30.2212  30.7602  30.9140  32.9442
    33.3756  33.4361  34.3392  34.5068  35.8065  36.1349  36.2513  37.3341
    37.4300  38.5595  38.6692  40.5883  40.9371  41.1377  41.8059  41.8747
    42.1515  42.8481  42.9481  44.5965  44.6088  45.0105  46.0109  46.1755
    47.5180  47.5704  48.1482

          k = 0.0000 0.2014 0.6119 (  2084 PWs)   bands (ev):

   -11.4474 -11.4249 -10.9226 -10.6693 -10.4711 -10.4672 -10.4083 -10.3872
   -10.3834 -10.3628  -8.3253  -7.3375  -6.1382  -6.0651   1.9163   3.1285
     4.6231   5.0805   5.4770   5.5411   7.3193   7.4017   7.6137   8.3255
     8.4419   8.4833  14.9980  16.2021  18.1810  18.8132  19.8918  20.3336
    21.1155  21.2464  22.0852  22.2618  22.8164  22.9158  24.2292  25.3001
    28.9901  29.8198  30.0984  30.0989  30.8541  31.7521  32.6753  32.8979
    33.5483  33.5487  34.8660  35.2413  36.0299  36.3139  36.7459  38.0912
    38.8573  39.1313  40.1544  40.2527  40.9278  41.1782  42.0194  42.1928
    42.7404  42.9974  43.3990  44.0232  44.5107  45.4585  46.7075  47.0032
    47.7013  48.1443  48.1496

          k = 0.0000 0.4029 0.0000 (  2080 PWs)   bands (ev):

   -11.4213 -11.1816 -10.6097 -10.5931 -10.5714 -10.5712 -10.4301 -10.4034
   -10.3623 -10.3621  -8.9642  -8.4277  -6.8638  -6.2875   2.2939   3.4385
     6.1339   6.2572   6.8098   6.9844   7.1618   7.7351   8.3430   8.3587
     8.8047   8.9596  13.1628  14.5496  16.6204  16.7730  20.3932  20.5442
    21.5855  21.7442  21.9745  22.6760  22.9343  24.1977  27.3797  27.5128
    28.0793  29.0071  29.6206  29.8782  30.1034  30.1092  30.3998  30.8913
    31.0120  32.8213  34.9006  35.1408  35.5052  36.7367  37.1946  37.5645
    38.0640  38.0872  38.5249  39.6715  40.6831  41.5887  42.2776  42.4770
    42.7875  42.8806  43.2269  44.2292  44.2698  44.7603  45.2390  45.3317
    46.5395  47.6519  47.9084

          k = 0.0000 0.4029 0.3060 (  2078 PWs)   bands (ev):

   -11.3363 -11.1913 -10.8368 -10.7563 -10.5229 -10.5050 -10.4234 -10.4055
   -10.3958 -10.3882  -8.6845  -8.0684  -6.5239  -6.1720   2.3616   3.5261
     4.7562   5.0065   6.5863   6.7691   7.4585   7.8759   7.9691   8.2452
     8.6594   8.8763  14.0921  15.3217  17.9575  17.9783  18.9682  19.6748
    21.7749  21.8488  21.9599  22.1828  22.7697  23.4193  25.6026  27.1414
    28.4539  29.0353  30.0980  30.1004  30.7607  30.8240  31.0092  31.9006
    32.5626  33.1239  33.9446  35.1174  35.6492  36.1747  36.8427  37.4795
    38.3360  38.8301  40.1538  40.5709  41.2142  41.6477  41.9900  42.1023
    42.5653  43.3150  43.4686  43.6724  43.8875  45.3611  46.6181  46.9539
    47.0701  47.3138  48.1027

          k = 0.0000 0.4029 0.6119 (  2085 PWs)   bands (ev):

   -11.5305 -11.5183 -10.7087 -10.6093 -10.4753 -10.4679 -10.3989 -10.3908
   -10.3719 -10.3646  -8.1920  -7.8268  -5.9854  -5.9327   2.4203   2.9270
     4.0287   4.1446   5.4411   5.4579   7.7365   7.8396   8.1703   8.4804
     8.4969   8.7424  15.4350  15.9804  17.6928  17.8376  20.1430  20.3929
    21.5062  21.5822  21.9068  22.0656  22.1550  22.6671  24.8572  25.6922
    29.5808  30.0242  30.0972  30.1001  31.3609  31.5145  31.6525  32.0875
    32.6267  33.4162  34.0788  34.6462  36.0341  37.1599  37.3955  37.6022
    39.2973  39.4367  39.8347  40.5111  41.4079  41.4400  41.6500  42.2972
    42.9602  43.3291  45.1438  45.5470  45.7411  46.1801  46.6140  47.0996
    48.4312  48.5399  48.7855

          k = 0.2014 0.2014 0.0000 (  2061 PWs)   bands (ev):

   -11.5494 -11.0486 -10.6124 -10.5794 -10.5711 -10.5650 -10.4455 -10.3890
   -10.3623 -10.3533  -9.1887  -7.6801  -7.6404  -6.0579   1.8110   4.6116
     5.3580   5.9816   6.7539   7.1777   7.5865   7.8574   8.2850   8.3618
     8.6612   9.1545  12.2595  15.2013  16.4770  16.5044  20.1450  20.9055
    21.1041  21.4978  22.0299  22.3258  23.8242  26.1466  27.0181  27.2456
    27.7230  28.5131  28.6414  30.0568  30.0970  30.1015  31.5514  31.7124
    32.4311  32.8041  33.8953  34.8685  35.4398  35.9461  36.0132  36.1180
    36.8955  38.2356  39.9695  40.2087  40.4313  40.8476  42.3425  42.3433
    43.3174  43.5174  44.0053  44.0660  44.6667  44.8627  45.5557  45.5764
    46.0332  47.3342  48.2145

          k = 0.2014 0.2014 0.3060 (  2068 PWs)   bands (ev):

   -11.4015 -11.0546 -10.9301 -10.7242 -10.5383 -10.4946 -10.4343 -10.4021
   -10.3981 -10.3848  -8.9371  -7.3468  -7.0933  -6.0782   1.8333   4.0757
     5.3075   5.7527   6.0586   6.4433   6.9471   7.5016   8.0146   8.4584
     8.6703   9.1063  13.3634  15.8828  17.7421  17.7861  18.7231  20.9364
    21.0030  21.6740  21.9697  22.0226  23.0260  24.7714  25.4425  26.5711
    28.3214  29.4699  29.6827  30.0970  30.0983  30.4849  30.9855  32.3815
    32.9970  34.2389  34.7143  34.8975  35.2872  36.6287  36.7366  37.4276
    37.7883  38.2197  39.2090  40.4369  40.7591  41.0253  41.6154  41.9359
    42.6353  42.9001  43.3390  44.3250  44.4130  45.0754  46.2884  46.6223
    47.7914  47.8694  48.3689

          k = 0.2014 0.2014 0.6119 (  2073 PWs)   bands (ev):

   -11.5246 -11.3574 -10.9617 -10.6081 -10.4734 -10.4690 -10.4047 -10.3878
   -10.3804 -10.3633  -8.2825  -7.3922  -6.2481  -5.9423   1.9226   3.0099
     4.2123   5.1091   5.1465   6.4188   6.6211   7.8011   7.9993   8.4489
     8.4490   8.5210  14.9346  15.9855  17.6590  19.5393  19.5738  20.3914
    20.6696  21.6065  22.2109  22.2285  22.7909  23.1399  23.7693  26.2012
    28.6722  29.1263  30.0957  30.0992  30.4239  31.3858  32.6601  33.1826
    33.4920  33.8133  34.8050  35.4967  36.3320  36.4398  36.6241  37.1800
    38.6328  38.7861  40.3151  40.8132  41.4924  41.7455  41.9488  42.8718
    43.0893  43.3557  43.4173  43.8146  43.9424  46.3559  46.3920  47.4250
    47.9526  48.0978  48.8125

          k = 0.2014 0.4029 0.0000 (  2073 PWs)   bands (ev):

   -11.4264 -11.2366 -10.6043 -10.5910 -10.5770 -10.5717 -10.4262 -10.4045
   -10.3620 -10.3564  -8.7920  -8.2217  -7.1119  -6.4983   2.6092   3.7024
     5.8613   6.3271   6.7149   6.7838   7.2098   7.7112   8.2940   8.3379
     8.6893   8.8534  13.4786  14.5765  16.8074  16.8884  20.2271  20.5864
    21.6588  21.7393  21.9202  22.8363  23.0511  24.2659  27.4694  27.4814
    27.5685  27.9472  28.0834  29.4167  30.1006  30.1025  31.1312  32.1143
    32.6505  32.9162  34.3002  35.4724  35.7563  36.4044  36.4421  37.1524
    37.6380  38.2998  38.4155  39.3896  40.8767  41.5878  42.1428  42.9513
    43.6106  43.7103  44.1979  44.4509  44.5958  44.8756  44.9698  45.8367
    46.6243  47.0395  47.4187

          k = 0.2014 0.4029 0.3060 (  2079 PWs)   bands (ev):

   -11.3146 -11.1836 -10.8839 -10.7950 -10.5281 -10.5084 -10.4203 -10.4061
   -10.3978 -10.3919  -8.5027  -7.8857  -6.7602  -6.3238   2.5229   3.3590
     5.1245   5.2416   6.3901   6.5529   7.1897   7.9209   8.0183   8.2308
     8.6766   8.9196  14.1912  15.1453  18.0149  18.0708  18.9919  19.9160
    21.3905  21.8470  21.9593  22.1550  23.0110  24.2083  25.4932  26.7079
    27.9514  28.6890  29.7298  30.0911  30.1022  30.1298  31.1495  31.7077
    33.3175  34.2270  34.6184  35.0535  35.3407  35.7371  37.2868  37.9988
    38.5860  38.8188  39.3529  39.9989  41.4226  41.9086  42.0670  42.6146
    42.9489  43.2207  43.5104  43.9676  44.7136  45.1044  45.9631  46.7528
    46.8659  47.2012  48.0839

          k = 0.2014 0.4029 0.6119 (  2085 PWs)   bands (ev):

   -11.5262 -11.4397 -10.8296 -10.6521 -10.4747 -10.4703 -10.3977 -10.3911
   -10.3728 -10.3670  -8.0623  -7.6837  -6.1397  -5.9646   2.0655   2.4761
     4.4281   4.7766   5.1537   5.7325   7.6284   8.0622   8.2405   8.4089
     8.5464   8.6607  14.9513  15.3465  17.8319  18.5996  20.0747  20.3948
    20.9395  21.4452  22.0189  22.2614  22.8087  23.1915  24.6280  26.2659
    28.6933  28.9915  29.5621  30.0983  30.1020  30.9229  31.9212  32.7999
    33.4209  33.6117  34.8712  35.2579  36.5011  36.8155  37.2015  37.7784
    38.6523  39.4372  39.7528  41.0433  41.2974  41.7393  41.9917  42.6226
    42.9982  43.2751  44.5682  45.5128  45.5937  46.0879  46.5527  46.6986
    48.2951  48.3666  48.8701

          k = 0.4029 0.4029 0.0000 (  2077 PWs)   bands (ev):

   -11.4117 -11.3414 -10.5949 -10.5901 -10.5807 -10.5777 -10.4172 -10.4089
   -10.3560 -10.3527  -8.3254  -7.7452  -7.6415  -7.0397   3.3847   4.0131
     5.4902   6.0256   6.5004   6.6813   7.3860   7.6037   8.2450   8.2737
     8.5708   8.6423  14.0950  14.5119  17.0719  17.0734  20.2820  20.5182
    21.7440  21.9863  22.1205  22.5433  23.0828  23.5716  26.8391  27.0367
    27.7161  27.9647  28.1145  29.7443  30.0908  30.0996  30.9139  31.8594
    32.1228  32.9453  34.6288  35.4418  35.5758  35.8776  37.3360  37.3610
    37.5911  38.2001  38.8873  39.0923  41.6961  42.1117  42.7356  43.6063
    43.8682  44.1813  44.6459  44.7219  44.8278  45.2787  45.3947  45.7765
    46.4429  46.5033  46.9211

          k = 0.4029 0.4029 0.3060 (  2070 PWs)   bands (ev):

   -11.2551 -11.1921 -10.9348 -10.8835 -10.5284 -10.5201 -10.4121 -10.4046
   -10.4020 -10.3978  -8.0351  -7.5810  -7.1496  -6.7505   2.8597   3.1360
     5.5096   5.8472   6.1967   6.2804   6.7880   7.3889   8.2575   8.5239
     8.5978   8.8309  14.4621  14.8056  18.0920  18.1114  19.5040  20.3274
    20.6447  21.3173  22.1080  22.1093  24.2969  25.2066  25.5142  25.7960
    26.8417  27.2219  29.7900  30.0790  30.0962  30.1025  31.3495  31.6739
    33.2834  33.6396  34.2847  34.5783  36.2087  36.7186  37.5475  38.3682
    38.7495  38.8066  39.4584  39.8486  42.1836  42.2985  42.8066  42.9476
    43.4161  43.5896  44.2115  44.3868  44.6648  44.9922  45.6763  45.8717
    46.5580  47.0047  47.1050

          k = 0.4029 0.4029 0.6119 (  2082 PWs)   bands (ev):

   -11.4428 -11.3644 -10.9465 -10.8236 -10.4702 -10.4683 -10.3953 -10.3927
   -10.3746 -10.3718  -7.7406  -7.5316  -6.2922  -6.1548   1.7905   1.9312
     4.7701   4.7720   5.6666   6.6974   6.9532   7.8925   8.4201   8.4908
     8.6021   8.6760  14.4525  14.5712  18.3139  18.7189  20.1671  20.5224
    20.5497  20.9321  22.2828  22.4966  24.0515  24.4620  24.4889  26.4055
    27.3668  27.6067  28.6196  29.6361  30.0989  30.0993  32.2265  32.8173
    34.0210  34.1182  35.1925  35.8316  36.4072  37.1235  37.4192  38.0284
    38.2101  39.5161  40.0517  40.2605  41.9490  42.1312  42.8149  43.2345
    43.3715  43.9929  44.2460  44.7348  45.1520  45.8463  46.3104  46.9770
    47.7526  47.9994  48.7188

          k =-0.2014 0.2014 0.0000 (  2061 PWs)   bands (ev):

   -11.5494 -11.0486 -10.6124 -10.5795 -10.5710 -10.5649 -10.4455 -10.3890
   -10.3623 -10.3533  -9.1887  -7.6803  -7.6402  -6.0579   1.8110   4.6116
     5.3580   5.9816   6.7539   7.1777   7.5864   7.8573   8.2848   8.3620
     8.6613   9.1545  12.2595  15.2013  16.4770  16.5044  20.1450  20.9055
    21.1043  21.4978  22.0298  22.3257  23.8242  26.1466  27.0182  27.2457
    27.7229  28.5130  28.6413  30.0569  30.0970  30.1014  31.5515  31.7123
    32.4311  32.8041  33.8953  34.8685  35.4399  35.9462  36.0131  36.1179
    36.8955  38.2355  39.9695  40.2085  40.4315  40.8474  42.3425  42.3431
    43.3175  43.5173  44.0052  44.0660  44.6668  44.8627  45.5559  45.5764
    46.0333  47.3340  48.2145

          k =-0.2014 0.2014-0.3060 (  2068 PWs)   bands (ev):

   -11.4015 -11.0545 -10.9302 -10.7242 -10.5383 -10.4946 -10.4343 -10.4021
   -10.3981 -10.3848  -8.9370  -7.3466  -7.0935  -6.0782   1.8333   4.0757
     5.3076   5.7526   6.0587   6.4432   6.9472   7.5015   8.0146   8.4584
     8.6704   9.1063  13.3635  15.8828  17.7422  17.7860  18.7231  20.9363
    21.0031  21.6740  21.9697  22.0226  23.0260  24.7714  25.4427  26.5710
    28.3213  29.4699  29.6827  30.0970  30.0983  30.4849  30.9853  32.3816
    32.9971  34.2390  34.7143  34.8975  35.2870  36.6287  36.7366  37.4276
    37.7883  38.2197  39.2091  40.4370  40.7589  41.0252  41.6153  41.9361
    42.6352  42.9001  43.3392  44.3249  44.4130  45.0754  46.2884  46.6224
    47.7913  47.8694  48.3689

          k =-0.2014 0.2014-0.6119 (  2073 PWs)   bands (ev):

   -11.5245 -11.3575 -10.9617 -10.6081 -10.4734 -10.4690 -10.4047 -10.3878
   -10.3804 -10.3633  -8.2824  -7.3922  -6.2483  -5.9422   1.9226   3.0098
     4.2125   5.1093   5.1464   6.4188   6.6210   7.8010   7.9992   8.4490
     8.4490   8.5210  14.9347  15.9855  17.6589  19.5393  19.5738  20.3914
    20.6696  21.6064  22.2109  22.2285  22.7909  23.1400  23.7694  26.2012
    28.6722  29.1264  30.0958  30.0992  30.4239  31.3859  32.6600  33.1826
    33.4919  33.8132  34.8049  35.4969  36.3321  36.4398  36.6242  37.1800
    38.6329  38.7861  40.3151  40.8131  41.4926  41.7456  41.9489  42.8716
    43.0894  43.3556  43.4173  43.8146  43.9424  46.3558  46.3919  47.4251
    47.9525  48.0980  48.8124

[...]
    37.9081  38.3534  38.3705  39.8477  41.1353  41.7554  42.2760  42.8152
    42.9849  43.0307  43.4786  43.5844  43.8016  45.2015  45.4751  45.5057
    47.2845  47.4236  47.9710

          k = 0.0000 0.4072 0.2995 (  2071 PWs)   bands (ev):

   -11.3075 -11.1574 -10.7854 -10.7040 -10.5130 -10.5004 -10.4118 -10.3907
   -10.3649 -10.3607  -8.6506  -8.0384  -6.4715  -6.1110   2.4480   3.6248
     4.7114   4.9504   6.5856   6.7776   7.5260   7.9121   7.9928   8.3137
     8.6820   8.8915  14.0766  15.2568  17.6926  17.7109  19.0568  19.7935
    21.8239  21.9941  22.0188  22.2219  22.6343  23.4601  25.5594  27.0566
    28.4947  28.9314  30.1019  30.1044  30.7066  31.1854  31.2635  31.9051
    32.6030  32.8503  33.6850  34.9855  35.7708  36.2947  36.7820  37.2922
    38.3363  38.7107  40.1132  40.5285  41.3085  41.6674  41.8001  41.8587
    42.5928  43.3764  43.5887  43.8513  44.1759  45.3317  46.6186  47.0054
    47.3706  47.6880  48.1619

          k = 0.0000 0.4072 0.5989 (  2077 PWs)   bands (ev):

   -11.4712 -11.4558 -10.6800 -10.5873 -10.4401 -10.4302 -10.3903 -10.3813
   -10.3659 -10.3598  -8.1734  -7.8144  -6.0034  -5.9467   2.4368   2.9238
     4.0675   4.1949   5.5115   5.5221   7.7632   7.8619   8.2370   8.5195
     8.5478   8.8092  15.4592  15.9840  17.8698  17.9975  19.8607  20.1489
    21.5545  21.6726  21.9989  22.0508  22.2058  22.6822  25.0479  25.8839
    29.5323  30.1009  30.1016  30.2730  31.2468  31.6084  31.8062  31.8112
    32.7966  33.5968  33.8586  34.5755  35.8092  36.9410  37.3677  37.5040
    38.8549  38.8852  39.6122  40.3020  41.4621  41.6438  41.8116  42.4203
    43.0372  43.4913  45.0038  45.4949  45.6672  46.1335  46.1378  47.0659
    48.3589  48.6566  48.9447

          k = 0.2036 0.2036 0.0000 (  2067 PWs)   bands (ev):

   -11.5071 -10.9785 -10.5977 -10.5722 -10.5678 -10.5586 -10.4346 -10.3770
   -10.3356 -10.3258  -9.1353  -7.5990  -7.5591  -5.9636   1.9272   4.7278
     5.5079   5.8055   6.8036   7.0892   7.5936   7.9151   8.2198   8.3103
     8.7200   9.1662  12.2507  15.0478  16.2325  16.2936  20.2280  20.6024
    21.3161  21.7153  22.0529  22.4903  23.5876  26.2852  26.5125  27.3261
    27.8350  28.1709  28.6079  29.7078  30.1015  30.1061  31.9337  32.0366
    32.7552  32.9912  33.4751  34.6017  35.5482  35.8254  36.2938  36.3590
    36.8947  38.0467  39.6283  40.3784  40.5674  41.5741  42.1044  42.4761
    43.3890  43.7599  43.7634  43.9242  44.4642  44.9178  45.8407  45.9873
    46.0200  47.7446  48.7391

          k = 0.2036 0.2036 0.2995 (  2071 PWs)   bands (ev):

   -11.3757 -11.0192 -10.8786 -10.6712 -10.5283 -10.4953 -10.4238 -10.3792
   -10.3661 -10.3639  -8.8957  -7.2995  -7.0655  -6.0157   1.9085   4.0939
     5.2515   5.8807   6.0656   6.4423   6.9671   7.5351   8.0442   8.5117
     8.7159   9.1135  13.3335  15.7445  17.4792  17.5715  18.7234  20.9769
    21.0870  21.8107  22.0258  22.2133  22.9293  24.6474  25.5325  26.5169
    28.3111  29.5990  29.6176  30.1016  30.1031  30.4337  31.0929  32.5853
    33.0907  33.9657  34.6264  34.7823  35.3014  36.7475  36.9449  37.4681
    37.7088  38.0146  39.0560  40.4292  40.6606  41.1165  41.3805  42.0717
    42.5572  42.9425  43.5774  44.1035  44.4524  45.0695  46.2427  46.9594
    47.6533  48.0167  48.4882

          k = 0.2036 0.2036 0.5989 (  2080 PWs)   bands (ev):

   -11.4642 -11.2676 -10.9643 -10.5897 -10.4366 -10.4289 -10.3946 -10.3784
   -10.3777 -10.3600  -8.2561  -7.3624  -6.2873  -5.9569   1.9317   3.0072
     4.2525   5.1799   5.2028   6.5216   6.6909   7.8331   8.0449   8.4727
     8.5110   8.5363  14.9542  15.9967  17.7694  19.4073  19.4890  20.4468
    20.4774  21.7061  22.2423  22.2892  22.9085  23.1486  24.0131  26.4303
    28.4853  29.3731  30.1010  30.1025  30.4205  31.2702  32.9056  33.1013
    33.1808  33.9566  34.4336  35.6991  36.2861  36.6094  36.7039  36.9901
    38.3446  38.6348  39.8624  40.7835  41.5649  41.8717  41.9735  42.7333
    42.9881  43.1010  43.3881  43.6391  44.0384  46.3280  46.4307  47.5606
    47.5907  47.8726  48.4704

          k = 0.2036 0.4072 0.0000 (  2066 PWs)   bands (ev):

   -11.3803 -11.1814 -10.5918 -10.5829 -10.5651 -10.5594 -10.4147 -10.3926
   -10.3353 -10.3291  -8.7352  -8.1544  -7.0224  -6.4031   2.7292   3.8215
     5.9550   6.1749   6.6654   6.7486   7.2602   7.7601   8.2307   8.2821
     8.7439   8.8851  13.4538  14.4943  16.5948  16.6628  20.3265  20.7768
    21.4591  21.8257  21.9913  22.5807  23.1940  24.3504  26.9821  27.5718
    27.5934  27.6832  28.0613  29.6511  30.1053  30.1089  30.8072  32.4240
    32.6179  32.9312  34.5217  35.3768  35.6222  36.1728  36.5232  36.9805
    37.9115  38.1229  38.6061  39.7208  41.2406  41.8337  42.3676  42.6122
    43.3467  43.8059  43.8292  44.0939  44.7255  45.2436  45.4053  46.1297
    47.0014  47.2498  47.8994

          k = 0.2036 0.4072 0.2995 (  2078 PWs)   bands (ev):

   -11.2868 -11.1529 -10.8336 -10.7441 -10.5176 -10.5009 -10.4081 -10.3907
   -10.3665 -10.3640  -8.4667  -7.8470  -6.7139  -6.2654   2.5872   3.3929
     5.0987   5.2696   6.3686   6.5568   7.2519   7.9645   8.0823   8.2634
     8.7152   8.9379  14.1565  15.0782  17.7913  17.8154  19.0439  19.9951
    21.3783  22.0119  22.0570  22.1023  23.0666  24.2398  25.4630  26.6611
    27.9925  28.7422  29.6002  30.0711  30.1062  30.1078  31.1810  31.8187
    33.2728  34.0820  34.4184  34.9852  35.4041  35.8839  37.3682  37.9595
    38.5599  38.7207  39.2478  40.0949  41.4405  41.6222  42.1665  42.5755
    42.8279  42.9435  43.6220  44.1212  44.8768  45.0913  45.9998  46.7010
    47.1752  47.7054  48.1797

          k = 0.2036 0.4072 0.5989 (  2077 PWs)   bands (ev):

   -11.4654 -11.3691 -10.8162 -10.6292 -10.4377 -10.4312 -10.3884 -10.3814
   -10.3692 -10.3628  -8.0405  -7.6558  -6.1680  -5.9802   2.0609   2.4726
     4.4731   4.8279   5.2002   5.8027   7.7124   8.0981   8.2915   8.4563
     8.5941   8.7095  14.9975  15.4121  17.9030  18.6591  19.8252  20.1840
    21.0211  21.5734  21.9933  22.3859  22.8355  23.2749  24.7887  26.4531
    28.7359  29.2505  29.5871  30.1026  30.1061  30.9024  31.6901  32.4579
    33.4921  33.7068  34.6890  35.1883  36.2458  36.7256  36.8215  37.6786
    38.7390  39.3113  39.6558  40.9154  41.4938  41.8467  42.1121  42.4465
    42.9770  43.4638  44.5306  45.2034  45.4159  45.9173  46.5826  46.7109
    48.1612  48.3184  48.7137

          k = 0.4072 0.4072 0.0000 (  2078 PWs)   bands (ev):

   -11.3677 -11.2946 -10.5788 -10.5744 -10.5693 -10.5659 -10.4053 -10.3968
   -10.3287 -10.3251  -8.2611  -7.6697  -7.5637  -6.9521   3.4872   4.0902
     5.6303   6.1122   6.3631   6.5583   7.4102   7.6248   8.1735   8.2070
     8.6447   8.7021  14.0119  14.4011  16.8846  16.9111  20.4037  20.7078
    21.8527  21.8661  22.0344  22.2852  23.2284  23.6462  26.9368  27.1366
    27.2143  27.4648  28.2629  29.9081  30.0979  30.1042  31.3372  31.5734
    32.4786  32.6892  34.3650  35.2348  35.4421  35.6288  36.9776  37.7816
    37.8499  38.0541  39.3011  39.4168  41.9193  42.2369  43.1493  43.2269
    43.7818  44.0513  44.1339  44.3760  45.0146  45.7032  45.8696  46.3216
    46.3260  46.8015  47.3601

          k = 0.4072 0.4072 0.2995 (  2073 PWs)   bands (ev):

   -11.2297 -11.1675 -10.8835 -10.8337 -10.5164 -10.5092 -10.3994 -10.3923
   -10.3687 -10.3674  -7.9900  -7.5140  -7.1271  -6.7028   2.8761   3.1313
     5.5535   5.9073   6.1696   6.3182   6.8009   7.4599   8.3040   8.5369
     8.6644   8.8615  14.3963  14.7313  17.9107  17.9125  19.5147  20.3506
    20.6499  21.3205  22.2186  22.2215  24.3743  25.2387  25.4611  25.8662
    26.7956  27.3427  29.5668  29.9028  30.1007  30.1048  31.5365  31.8292
    33.1879  33.5223  34.0804  34.3314  36.1931  36.5707  37.8604  38.4483
    38.6872  38.7681  39.4732  39.8803  42.0838  42.3086  42.5765  42.9630
    43.1058  43.2791  44.2830  44.4842  44.6092  45.1861  45.8704  46.1037
    46.9236  47.3881  47.5491

          k = 0.4072 0.4072 0.5989 (  2080 PWs)   bands (ev):

   -11.3724 -11.2751 -10.9555 -10.8129 -10.4294 -10.4261 -10.3862 -10.3829
   -10.3746 -10.3699  -7.7031  -7.4807  -6.3362  -6.1835   1.7722   1.9146
     4.7933   4.7956   5.7406   6.7754   7.0625   7.9947   8.4634   8.5159
     8.6551   8.7149  14.5160  14.6482  18.3103  18.6983  19.9693  20.2934
    20.6208  20.9656  22.4093  22.6953  24.1821  24.5491  24.6323  26.6000
    27.5111  27.7677  28.5299  29.6140  30.1029  30.1034  31.8396  32.3925
    34.1081  34.2483  34.9311  35.8017  35.8481  36.4878  37.3914  38.0307
    38.1823  39.7537  40.1443  40.4423  42.0489  42.3936  42.8836  43.2940
    43.4208  43.8637  44.3197  44.9775  45.1547  46.0057  46.0692  46.5806
    47.3088  47.8403  48.4634

          k =-0.2036 0.2036 0.0000 (  2067 PWs)   bands (ev):

   -11.5071 -10.9785 -10.5977 -10.5722 -10.5678 -10.5586 -10.4346 -10.3770
   -10.3356 -10.3258  -9.1353  -7.5990  -7.5591  -5.9636   1.9272   4.7278
     5.5079   5.8055   6.8036   7.0892   7.5936   7.9151   8.2198   8.3103
     8.7200   9.1662  12.2507  15.0478  16.2325  16.2936  20.2280  20.6024
    21.3161  21.7153  22.0529  22.4903  23.5876  26.2852  26.5125  27.3261
    27.8350  28.1709  28.6080  29.7078  30.1015  30.1061  31.9337  32.0366
    32.7552  32.9912  33.4751  34.6017  35.5482  35.8254  36.2938  36.3591
    36.8948  38.0467  39.6283  40.3784  40.5674  41.5741  42.1044  42.4761
    43.3890  43.7599  43.7634  43.9242  44.4642  44.9178  45.8407  45.9873
    46.0200  47.7446  48.7392

          k =-0.2036 0.2036-0.2995 (  2071 PWs)   bands (ev):

   -11.3757 -11.0192 -10.8786 -10.6712 -10.5282 -10.4953 -10.4238 -10.3792
   -10.3661 -10.3639  -8.8957  -7.2995  -7.0655  -6.0157   1.9085   4.0939
     5.2515   5.8807   6.0656   6.4423   6.9671   7.5351   8.0442   8.5117
     8.7159   9.1135  13.3335  15.7445  17.4792  17.5715  18.7234  20.9768
    21.0870  21.8107  22.0258  22.2133  22.9293  24.6474  25.5325  26.5169
    28.3111  29.5990  29.6176  30.1017  30.1031  30.4337  31.0929  32.5853
    33.0907  33.9657  34.6264  34.7823  35.3014  36.7475  36.9449  37.4682
    37.7088  38.0146  39.0560  40.4292  40.6606  41.1165  41.3805  42.0717
    42.5572  42.9425  43.5774  44.1035  44.4524  45.0695  46.2427  46.9594
    47.6533  48.0168  48.4882

          k =-0.2036 0.2036-0.5989 (  2080 PWs)   bands (ev):

   -11.4642 -11.2676 -10.9643 -10.5897 -10.4366 -10.4289 -10.3946 -10.3784
   -10.3777 -10.3600  -8.2561  -7.3624  -6.2873  -5.9569   1.9317   3.0072
     4.2525   5.1799   5.2028   6.5216   6.6909   7.8331   8.0449   8.4727
     8.5110   8.5363  14.9543  15.9967  17.7694  19.4073  19.4891  20.4468
    20.4774  21.7061  22.2423  22.2892  22.9085  23.1486  24.0131  26.4303
    28.4853  29.3731  30.1010  30.1025  30.4205  31.2702  32.9056  33.1013
    33.1808  33.9566  34.4336  35.6991  36.2861  36.6094  36.7039  36.9901
    38.3446  38.6348  39.8623  40.7835  41.5649  41.8717  41.9735  42.7333
    42.9881  43.1010  43.3881  43.6391  44.0385  46.3280  46.4307  47.5606
    47.5907  47.8726  48.4704

          k =-0.2036 0.4072 0.0000 (  2066 PWs)   bands (ev):

   -11.3803 -11.1814 -10.5918 -10.5828 -10.5651 -10.5594 -10.4147 -10.3926
   -10.3353 -10.3291  -8.7352  -8.1544  -7.0224  -6.4031   2.7292   3.8215
     5.9550   6.1749   6.6654   6.7486   7.2602   7.7601   8.2307   8.2821
     8.7439   8.8851  13.4538  14.4943  16.5948  16.6628  20.3265  20.7768
    21.4591  21.8257  21.9913  22.5807  23.1940  24.3504  26.9821  27.5718
    27.5934  27.6832  28.0613  29.6511  30.1053  30.1089  30.8072  32.4240
    32.6179  32.9311  34.5217  35.3768  35.6222  36.1728  36.5232  36.9805
    37.9115  38.1229  38.6061  39.7208  41.2406  41.8337  42.3676  42.6122
    43.3467  43.8059  43.8292  44.0939  44.7255  45.2436  45.4053  46.1297
    47.0014  47.2498  47.8994

          k =-0.2036 0.4072-0.2995 (  2078 PWs)   bands (ev):

   -11.2868 -11.1529 -10.8336 -10.7441 -10.5176 -10.5009 -10.4081 -10.3907
   -10.3665 -10.3640  -8.4667  -7.8470  -6.7139  -6.2654   2.5872   3.3929
     5.0987   5.2696   6.3686   6.5568   7.2519   7.9645   8.0823   8.2634
     8.7152   8.9379  14.1565  15.0782  17.7913  17.8154  19.0439  19.9951
    21.3783  22.0118  22.0570  22.1023  23.0666  24.2398  25.4630  26.6611
    27.9925  28.7422  29.6002  30.0711  30.1062  30.1078  31.1810  31.8187
    33.2728  34.0820  34.4184  34.9852  35.4041  35.8839  37.3682  37.9595
    38.5600  38.7207  39.2478  40.0949  41.4405  41.6222  42.1665  42.5755
    42.8279  42.9435  43.6220  44.1212  44.8768  45.0913  45.9998  46.7010
    47.1752  47.7053  48.1797

          k =-0.2036 0.4072-0.5989 (  2077 PWs)   bands (ev):

   -11.4654 -11.3691 -10.8162 -10.6292 -10.4377 -10.4312 -10.3884 -10.3814
   -10.3692 -10.3628  -8.0405  -7.6558  -6.1680  -5.9802   2.0609   2.4726
     4.4731   4.8279   5.2002   5.8027   7.7124   8.0981   8.2915   8.4563
     8.5941   8.7095  14.9975  15.4121  17.9030  18.6591  19.8252  20.1840
    21.0210  21.5734  21.9932  22.3860  22.8355  23.2749  24.7887  26.4530
    28.7359  29.2505  29.5871  30.1026  30.1061  30.9024  31.6901  32.4579
    33.4921  33.7068  34.6890  35.1883  36.2458  36.7256  36.8215  37.6786
    38.7390  39.3113  39.6558  40.9154  41.4938  41.8467  42.1121  42.4465
    42.9770  43.4638  44.5306  45.2034  45.4159  45.9173  46.5826  46.7109
    48.1612  48.3184  48.7137

          k =-0.4072 0.4072 0.0000 (  2078 PWs)   bands (ev):

   -11.3677 -11.2946 -10.5788 -10.5744 -10.5693 -10.5659 -10.4053 -10.3968
   -10.3287 -10.3251  -8.2611  -7.6697  -7.5637  -6.9521   3.4872   4.0902
     5.6303   6.1122   6.3631   6.5583   7.4102   7.6248   8.1735   8.2070
     8.6447   8.7021  14.0119  14.4011  16.8846  16.9111  20.4037  20.7078
    21.8527  21.8661  22.0344  22.2852  23.2284  23.6462  26.9368  27.1366
    27.2143  27.4648  28.2629  29.9081  30.0979  30.1042  31.3372  31.5734
    32.4786  32.6892  34.3650  35.2348  35.4421  35.6288  36.9776  37.7816
    37.8499  38.0541  39.3011  39.4168  41.9193  42.2369  43.1493  43.2270
    43.7818  44.0514  44.1339  44.3760  45.0146  45.7032  45.8696  46.3216
    46.3260  46.8015  47.3601

          k =-0.4072 0.4072-0.2995 (  2073 PWs)   bands (ev):

   -11.2297 -11.1675 -10.8835 -10.8337 -10.5164 -10.5092 -10.3994 -10.3923
   -10.3687 -10.3674  -7.9900  -7.5140  -7.1272  -6.7028   2.8761   3.1313
     5.5535   5.9073   6.1696   6.3182   6.8009   7.4599   8.3040   8.5369
     8.6644   8.8615  14.3963  14.7312  17.9107  17.9125  19.5147  20.3507
    20.6499  21.3205  22.2186  22.2215  24.3743  25.2388  25.4611  25.8662
    26.7956  27.3427  29.5668  29.9028  30.1007  30.1048  31.5365  31.8292
    33.1879  33.5223  34.0804  34.3314  36.1931  36.5707  37.8604  38.4483
    38.6872  38.7681  39.4732  39.8803  42.0838  42.3086  42.5765  42.9630
    43.1058  43.2791  44.2830  44.4843  44.6092  45.1861  45.8704  46.1037
    46.9236  47.3881  47.5491

          k =-0.4072 0.4072-0.5989 (  2080 PWs)   bands (ev):

   -11.3724 -11.2751 -10.9555 -10.8129 -10.4294 -10.4261 -10.3861 -10.3829
   -10.3746 -10.3699  -7.7031  -7.4807  -6.3362  -6.1835   1.7722   1.9146
     4.7933   4.7956   5.7406   6.7754   7.0625   7.9947   8.4634   8.5159
     8.6551   8.7149  14.5160  14.6482  18.3103  18.6983  19.9693  20.2934
    20.6208  20.9656  22.4093  22.6953  24.1821  24.5491  24.6323  26.6000
    27.5111  27.7677  28.5299  29.6140  30.1029  30.1034  31.8396  32.3925
    34.1081  34.2483  34.9311  35.8017  35.8481  36.4878  37.3914  38.0307
    38.1823  39.7537  40.1443  40.4423  42.0488  42.3936  42.8836  43.2940
    43.4208  43.8637  44.3197  44.9775  45.1547  46.0057  46.0692  46.5806
    47.3088  47.8403  48.4634

     the Fermi energy is     9.6095 ev

!    total energy              =    -455.50334060 Ry
     Harris-Foulkes estimate   =    -455.50333885 Ry
     estimated scf accuracy    <          2.5E-10 Ry

     The total energy is the sum of the following terms:

     one-electron contribution =    -129.52800143 Ry
     hartree contribution      =     106.09531314 Ry
     xc contribution           =    -124.72443003 Ry
     ewald contribution        =    -307.34623131 Ry
     smearing contrib. (-TS)   =       0.00000903 Ry

     total magnetization       =     0.00 Bohr mag/cell
     absolute magnetization    =     0.00 Bohr mag/cell

     convergence has been achieved in  10 iterations

     Forces acting on atoms (Ry/au):

     atom    1 type  1   force =     0.00000000    0.00000000    0.00000000
     atom    2 type  1   force =     0.00000000    0.00000000    0.00000000
     atom    3 type  2   force =     0.00005937    0.00005937   -0.00000000
     atom    4 type  2   force =    -0.00005937   -0.00005937   -0.00000000
     atom    5 type  2   force =     0.00005836   -0.00005836    0.00000000
     atom    6 type  2   force =    -0.00005836    0.00005836    0.00000000

     Total force =     0.000166     Total SCF correction =     0.000030
     SCF correction compared to forces is large: reduce conv_thr to get better values


     entering subroutine stress ...

          total   stress  (Ry/bohr**3)                   (kbar)     P=   91.54
   0.00062317   0.00000001   0.00000000         91.67      0.00      0.00
   0.00000001   0.00062317   0.00000000          0.00     91.67      0.00
   0.00000000   0.00000000   0.00062058          0.00      0.00     91.29


     init_run     :     27.75s CPU     28.20s WALL (       2 calls)
     electrons    :   2313.28s CPU   2414.75s WALL (       8 calls)
     update_pot   :     28.84s CPU     29.15s WALL (       6 calls)
     forces       :     73.52s CPU     73.80s WALL (       8 calls)
     stress       :    186.80s CPU    187.72s WALL (       8 calls)

     Called by init_run:
     wfcinit      :     29.04s CPU     29.43s WALL (       3 calls)
     potinit      :      3.38s CPU      3.42s WALL (       3 calls)

     Called by electrons:
     c_bands      :   1808.63s CPU   1866.35s WALL (      53 calls)
     sum_band     :    413.23s CPU    417.47s WALL (      53 calls)
     v_of_rho     :     17.69s CPU     17.79s WALL (      59 calls)
     newd         :     86.29s CPU     86.47s WALL (      59 calls)
     mix_rho      :      1.87s CPU      1.87s WALL (      53 calls)

     Called by c_bands:
     init_us_2    :      8.43s CPU      8.53s WALL (    6750 calls)
     cegterg      :   1782.50s CPU   1840.03s WALL (    2862 calls)

     Called by *egterg:
     h_psi        :   1066.20s CPU   1085.71s WALL (    9341 calls)
     s_psi        :     51.30s CPU     51.47s WALL (    9341 calls)
     g_psi        :      4.20s CPU      4.31s WALL (    6317 calls)
     cdiaghg      :    363.28s CPU    364.71s WALL (    8747 calls)

     Called by h_psi:
     add_vuspsi   :     52.05s CPU     52.38s WALL (    9341 calls)

     General routines
     calbec       :     86.63s CPU     93.20s WALL (   13067 calls)
     fft          :     18.06s CPU     18.21s WALL (    2117 calls)
     ffts         :      0.19s CPU      0.20s WALL (     224 calls)
     fftw         :    788.78s CPU    793.70s WALL ( 1256422 calls)
     interpolate  :      2.11s CPU      2.18s WALL (     224 calls)

     Parallel routines
     fft_scatter  :    357.09s CPU    349.83s WALL ( 1258763 calls)

     PWSCF        : 44m14.50s CPU    45m58.17s WALL


   This run was terminated on:  14:58:20  24Jan2014            

=------------------------------------------------------------------------------=
   JOB DONE.
=------------------------------------------------------------------------------=
---------------------------------------
Running PBS batch system epilogue script
Job id: 251975.audhumbla.fysik.dtu.dk
Username: zhonxu
Groupname: campgst
Jobname: SnO2/fine-EOS/non-mag/SnO2-v-0.95
Sessionid: 23997
Resources limits: neednodes=1:ppn=4:opteron4,nodes=1:ppn=4:opteron4,walltime=18:00:00
Resources used: cput=03:02:56,mem=399752kb,vmem=1280872kb,walltime=00:45:59
Queuename: verylong
Accounting:
This job has allocated the following 4 nodes:
q021 q021 q021 q021
Finished epilogue job 251975.audhumbla.fysik.dtu.dk for zhonxu
