ScientificPython/2.8-dl160g6-numpy-1.7.1-1(15):ERROR:151: Module 'ScientificPython/2.8-dl160g6-numpy-1.7.1-1' depends on one of the module(s) 'numpy/1.7.1-dl160g6-gfortran-internal-1'
ScientificPython/2.8-dl160g6-numpy-1.7.1-1(15):ERROR:102: Tcl command execution failed: prereq numpy/1.7.1-dl160g6-gfortran-internal-1


     Program PWSCF v.5.0.2 (svn rev. 9656) starts on  1Jun2014 at 11:57:51 

     This program is part of the open-source Quantum ESPRESSO suite
     for quantum simulation of materials; please cite
         "P. Giannozzi et al., J. Phys.:Condens. Matter 21 395502 (2009);
          URL http://www.quantum-espresso.org", 
     in publications or presentations arising from this work. More details at
     http://www.quantum-espresso.org/quote.php

     Parallel version (MPI), running on    16 processors
     K-points division:     npool     =       4
     R & G space division:  proc/nbgrp/npool/nimage =       4

     Current dimensions of program PWSCF are:
     Max number of different atomic species (ntypx) = 10
     Max number of k-points (npk) =  40000
     Max angular momentum in pseudopotentials (lmaxx) =  3
     Reading input from pwscf.in
Warning: card &CELL ignored
Warning: card / ignored

     Subspace diagonalization in iterative solution of the eigenvalue problem:
     a serial algorithm will be used


     Parallelization info
     --------------------
     sticks:   dense  smooth     PW     G-vecs:    dense   smooth      PW
     Min        1333     428    119               322637    58444    8739
     Max        1334     429    120               322642    58462    8748
     Sum        5335    1713    477              1290557   233813   34969



     bravais-lattice index     =            0
     lattice parameter (alat)  =      10.1289  a.u.
     unit-cell volume          =    6836.7721 (a.u.)^3
     number of atoms/cell      =           33
     number of atomic types    =            3
     number of electrons       =       245.00
     number of Kohn-Sham states=          367
     kinetic-energy cutoff     =      40.0000  Ry
     charge density cutoff     =     500.0000  Ry
     convergence threshold     =      1.0E-06
     mixing beta               =       0.7000
     number of iterations used =            8  plain     mixing
     Exchange-correlation      = SLA  PW   PBE  PBE ( 1 4 3 4 0)
     EXX-fraction              =        0.00
     nstep                     =           50


     celldm(1)=  10.128932  celldm(2)=   0.000000  celldm(3)=   0.000000
     celldm(4)=   0.000000  celldm(5)=   0.000000  celldm(6)=   0.000000

     crystal axes: (cart. coord. in units of alat)
               a(1) = (   1.000000   0.000000   0.000000 )  
               a(2) = (   0.000000   1.306037   0.000000 )  
               a(3) = (   0.000000   0.000000   5.037380 )  

     reciprocal axes: (cart. coord. in units 2 pi/alat)
               b(1) = (  1.000000  0.000000  0.000000 )  
               b(2) = (  0.000000  0.765675  0.000000 )  
               b(3) = (  0.000000  0.000000  0.198516 )  


     PseudoPot. # 1 for O  read from file:
     /home/camp/zhonxu/pseudo/o_pbe_v1.01.uspp.F.UPF
     MD5 check sum: 2bcb18d16ea4b960afae9ec6d52f22d2
     Pseudo is Ultrasoft + core correction, Zval =  6.0
     Generated by new atomic code, or converted to UPF format
     Using radial grid of  737 points,  5 beta functions with: 
                l(1) =   0
                l(2) =   0
                l(3) =   1
                l(4) =   1
                l(5) =   2
     Q(r) pseudized with  8 coefficients,  rinner =    0.900   0.900   0.900
                                                       0.900   0.900

     PseudoPot. # 2 for Re read from file:
     /home/camp/zhonxu/pseudo/re_pbe_v1.uspp.F.UPF
     MD5 check sum: 6f5a5dcaf9c96c20d0ffdde0de57afc6
     Pseudo is Ultrasoft + core correction, Zval = 15.0
     Generated by new atomic code, or converted to UPF format
     Using radial grid of  981 points,  8 beta functions with: 
                l(1) =   0
                l(2) =   0
                l(3) =   1
                l(4) =   1
                l(5) =   2
                l(6) =   2
                l(7) =   3
                l(8) =   3
     Q(r) pseudized with  8 coefficients,  rinner =    1.000   1.000   1.000
                                                       1.000   1.000   1.000
                                                       1.000

     PseudoPot. # 3 for H  read from file:
     /home/camp/zhonxu/pseudo/h_pbe_v1.uspp.F.UPF
     MD5 check sum: 3408e3ff4ec8b0a4e358431e7e038a48
     Pseudo is Ultrasoft, Zval =  1.0
     Generated by new atomic code, or converted to UPF format
     Using radial grid of  615 points,  2 beta functions with: 
                l(1) =   0
                l(2) =   0
     Q(r) pseudized with  8 coefficients,  rinner =    0.700

     atomic species   valence    mass     pseudopotential
        O0             6.00    15.99940     O ( 1.00)
        Re1           15.00   186.20700     Re( 1.00)
        H2             1.00     1.00794     H ( 1.00)


     Simplified LDA+U calculation (l_max = 2) with parameters (eV):
     atomic species    L          U    alpha       J0     beta
        Re1            2     3.5000   0.0000   0.0000   0.0000



     No symmetry found



   Cartesian axes

     site n.     atom                  positions (alat units)
         1           O0  tau(   1) = (   0.0000000   0.0000000   1.8623194  )
         2           O0  tau(   2) = (   0.0000000   0.6530184   1.9253370  )
         3           Re1 tau(   3) = (   0.2500000   0.6530184   2.2271768  )
         4           Re1 tau(   4) = (   0.0000000   0.0000000   2.2287384  )
         5           O0  tau(   5) = (   0.2500000   1.0187087   2.2217869  )
         6           O0  tau(   6) = (   0.2500000   0.2873281   2.2210816  )
         7           O0  tau(   7) = (   0.0000000   0.6530184   2.5071544  )
         8           O0  tau(   8) = (   0.0000000   0.0000000   2.5894652  )
         9           Re1 tau(   9) = (   0.2500000   0.0000000   2.8894412  )
        10           Re1 tau(  10) = (   0.0000000   0.6530184   2.8583102  )
        11           O0  tau(  11) = (   0.2500000   0.9403465   2.8756892  )
        12           O0  tau(  12) = (   0.2500000   0.3656903   2.8872751  )
        13           O0  tau(  13) = (   0.0000000   0.0000000   3.1516368  )
        14           O0  tau(  14) = (   0.5000000   0.0000000   1.8624705  )
        15           O0  tau(  15) = (   0.5000000   0.6530184   1.9269994  )
        16           Re1 tau(  16) = (   0.7500000   0.6530184   2.2271768  )
        17           Re1 tau(  17) = (   0.5000000   0.0000000   2.2274287  )
        18           O0  tau(  18) = (   0.7500000   1.0187087   2.2214342  )
        19           O0  tau(  19) = (   0.7500000   0.2873281   2.2214846  )
        20           O0  tau(  20) = (   0.5000000   0.6530184   2.5086153  )
        21           O0  tau(  21) = (   0.5000000   0.0000000   2.5899690  )
        22           Re1 tau(  22) = (   0.7500000   0.0000000   2.8888367  )
        23           Re1 tau(  23) = (   0.5000000   0.6530184   2.9018835  )
        24           O0  tau(  24) = (   0.7500000   0.9403465   2.8756892  )
        25           O0  tau(  25) = (   0.7500000   0.3656903   2.8872248  )
        26           O0  tau(  26) = (   0.5000000   0.0000000   3.1466498  )
        27           H2  tau(  27) = (  -0.0002100   0.8169913   1.8417165  )
        28           H2  tau(  28) = (   0.4996400   0.8147057   1.8388956  )
        29           H2  tau(  29) = (   0.1678400   0.0328729   1.7887233  )
        30           H2  tau(  30) = (   0.6697500   0.0291246   1.7904864  )
        31           O0  tau(  31) = (   0.4996300   0.6876806   3.2307741  )
        32           O0  tau(  32) = (   0.5002900   0.4188329   3.4291461  )
        33           H2  tau(  33) = (   0.4999500   0.5176477   3.5843478  )

     number of k points=    10  Methfessel-Paxton smearing, width (Ry)=  0.0100
                       cart. coord. in units 2pi/alat
        k(    1) = (   0.0000000   0.0000000   0.0000000), wk =   0.1250000
        k(    2) = (   0.0000000   0.1914188   0.0000000), wk =   0.2500000
        k(    3) = (   0.0000000  -0.3828376   0.0000000), wk =   0.1250000
        k(    4) = (   0.2500000   0.0000000   0.0000000), wk =   0.2500000
        k(    5) = (   0.2500000   0.1914188   0.0000000), wk =   0.2500000
        k(    6) = (   0.2500000  -0.3828376   0.0000000), wk =   0.2500000
        k(    7) = (  -0.5000000   0.0000000   0.0000000), wk =   0.1250000
        k(    8) = (  -0.5000000   0.1914188   0.0000000), wk =   0.2500000
        k(    9) = (  -0.5000000  -0.3828376   0.0000000), wk =   0.1250000
        k(   10) = (  -0.2500000   0.1914188   0.0000000), wk =   0.2500000

     Dense  grid:  1290557 G-vectors     FFT dimensions: (  75,  96, 375)

     Smooth grid:   233813 G-vectors     FFT dimensions: (  45,  54, 216)

     Largest allocated arrays     est. size (Mb)     dimensions
        Kohn-Sham Wavefunctions        41.24 Mb     (   7365,  367)
        Atomic wavefunctions           21.24 Mb     (   7365,  189)
        NL pseudopotentials            59.11 Mb     (   7365,  526)
        Each V/rho on FFT grid         10.33 Mb     ( 676800)
        Each G-vector array             2.46 Mb     ( 322642)
        G-vector shells                 1.07 Mb     ( 139625)
     Largest temporary arrays     est. size (Mb)     dimensions
        Auxiliary wavefunctions       164.98 Mb     (   7365, 1468)
        Each subspace H/S matrix       32.88 Mb     (1468,1468)
        Each <psi_i|beta_j> matrix      2.95 Mb     (    526,  367)
        Arrays for rho mixing          82.62 Mb     ( 676800,   8)

     Check: negative/imaginary core charge=   -0.000003    0.000000

     Initial potential from superposition of free atoms
     Check: negative starting charge=   -0.236968

     starting charge  240.99957, renormalised to  245.00000

     negative rho (up, down):  0.241E+00 0.000E+00
     Number of +U iterations with fixed ns =  0
     Starting occupations:
 --- enter write_ns ---
 LDA+U parameters:
U( 2)     =  3.50000000
alpha( 2) =  0.00000000
atom    3   Tr[ns(na)] =   5.00000
    eigenvalues: 
  0.500  0.500  0.500  0.500  0.500
    eigenvectors:
  1.000  0.000  0.000  0.000  0.000
  0.000  1.000  0.000  0.000  0.000
  0.000  0.000  1.000  0.000  0.000
  0.000  0.000  0.000  1.000  0.000
  0.000  0.000  0.000  0.000  1.000
    occupations:
  0.500  0.000  0.000  0.000  0.000
  0.000  0.500  0.000  0.000  0.000
  0.000  0.000  0.500  0.000  0.000
  0.000  0.000  0.000  0.500  0.000
  0.000  0.000  0.000  0.000  0.500
atom    4   Tr[ns(na)] =   5.00000
    eigenvalues: 
  0.500  0.500  0.500  0.500  0.500
    eigenvectors:
  1.000  0.000  0.000  0.000  0.000
  0.000  1.000  0.000  0.000  0.000
  0.000  0.000  1.000  0.000  0.000
  0.000  0.000  0.000  1.000  0.000
  0.000  0.000  0.000  0.000  1.000
    occupations:
  0.500  0.000  0.000  0.000  0.000
  0.000  0.500  0.000  0.000  0.000
  0.000  0.000  0.500  0.000  0.000
  0.000  0.000  0.000  0.500  0.000
  0.000  0.000  0.000  0.000  0.500
atom    9   Tr[ns(na)] =   5.00000
    eigenvalues: 
  0.500  0.500  0.500  0.500  0.500
    eigenvectors:
  1.000  0.000  0.000  0.000  0.000
  0.000  1.000  0.000  0.000  0.000
  0.000  0.000  1.000  0.000  0.000
  0.000  0.000  0.000  1.000  0.000
  0.000  0.000  0.000  0.000  1.000
    occupations:
  0.500  0.000  0.000  0.000  0.000
  0.000  0.500  0.000  0.000  0.000
  0.000  0.000  0.500  0.000  0.000
  0.000  0.000  0.000  0.500  0.000
  0.000  0.000  0.000  0.000  0.500
atom   10   Tr[ns(na)] =   5.00000
    eigenvalues: 
  0.500  0.500  0.500  0.500  0.500
    eigenvectors:
  1.000  0.000  0.000  0.000  0.000
  0.000  1.000  0.000  0.000  0.000
  0.000  0.000  1.000  0.000  0.000
  0.000  0.000  0.000  1.000  0.000
  0.000  0.000  0.000  0.000  1.000
    occupations:
  0.500  0.000  0.000  0.000  0.000
  0.000  0.500  0.000  0.000  0.000
  0.000  0.000  0.500  0.000  0.000
  0.000  0.000  0.000  0.500  0.000
  0.000  0.000  0.000  0.000  0.500
atom   16   Tr[ns(na)] =   5.00000
    eigenvalues: 
  0.500  0.500  0.500  0.500  0.500
    eigenvectors:
  1.000  0.000  0.000  0.000  0.000
  0.000  1.000  0.000  0.000  0.000
  0.000  0.000  1.000  0.000  0.000
  0.000  0.000  0.000  1.000  0.000
  0.000  0.000  0.000  0.000  1.000
    occupations:
  0.500  0.000  0.000  0.000  0.000
  0.000  0.500  0.000  0.000  0.000
  0.000  0.000  0.500  0.000  0.000
  0.000  0.000  0.000  0.500  0.000
  0.000  0.000  0.000  0.000  0.500
atom   17   Tr[ns(na)] =   5.00000
    eigenvalues: 
  0.500  0.500  0.500  0.500  0.500
    eigenvectors:
  1.000  0.000  0.000  0.000  0.000
  0.000  1.000  0.000  0.000  0.000
  0.000  0.000  1.000  0.000  0.000
  0.000  0.000  0.000  1.000  0.000
  0.000  0.000  0.000  0.000  1.000
    occupations:
  0.500  0.000  0.000  0.000  0.000
  0.000  0.500  0.000  0.000  0.000
  0.000  0.000  0.500  0.000  0.000
  0.000  0.000  0.000  0.500  0.000
  0.000  0.000  0.000  0.000  0.500
atom   22   Tr[ns(na)] =   5.00000
    eigenvalues: 
  0.500  0.500  0.500  0.500  0.500
    eigenvectors:
  1.000  0.000  0.000  0.000  0.000
  0.000  1.000  0.000  0.000  0.000
  0.000  0.000  1.000  0.000  0.000
  0.000  0.000  0.000  1.000  0.000
  0.000  0.000  0.000  0.000  1.000
    occupations:
  0.500  0.000  0.000  0.000  0.000
  0.000  0.500  0.000  0.000  0.000
  0.000  0.000  0.500  0.000  0.000
  0.000  0.000  0.000  0.500  0.000
  0.000  0.000  0.000  0.000  0.500
atom   23   Tr[ns(na)] =   5.00000
    eigenvalues: 
  0.500  0.500  0.500  0.500  0.500
    eigenvectors:
  1.000  0.000  0.000  0.000  0.000
  0.000  1.000  0.000  0.000  0.000
  0.000  0.000  1.000  0.000  0.000
  0.000  0.000  0.000  1.000  0.000
  0.000  0.000  0.000  0.000  1.000
    occupations:
  0.500  0.000  0.000  0.000  0.000
  0.000  0.500  0.000  0.000  0.000
  0.000  0.000  0.500  0.000  0.000
  0.000  0.000  0.000  0.500  0.000
  0.000  0.000  0.000  0.000  0.500
N of occupied +U levels =  40.0000000
 --- exit write_ns ---
 Atomic wfc used for LDA+U Projector are NOT orthogonalized
     Starting wfc are  189 randomized atomic wfcs

     total cpu time spent up to now is      155.7 secs

     per-process dynamical memory:   427.2 Mb

     Self-consistent Calculation

     iteration #  1     ecut=    40.00 Ry     beta=0.70
     Davidson diagonalization with overlap
     ethr =  1.00E-02,  avg # of iterations =  6.0
 --- enter write_ns ---
 LDA+U parameters:
U( 2)     =  3.50000000
alpha( 2) =  0.00000000
atom    3   Tr[ns(na)] =   5.55175
    eigenvalues: 
  0.426  0.465  0.498  0.661  0.725
    eigenvectors:
  0.003  0.001  0.455  0.000  0.542
  0.000  0.999  0.000  0.000  0.000
  0.995  0.000  0.002  0.002  0.001
  0.000  0.000  0.544  0.000  0.456
  0.002  0.000  0.000  0.997  0.000
    occupations:
  0.621 -0.004  0.010 -0.113 -0.001
 -0.004  0.465  0.000  0.003 -0.003
  0.010  0.000  0.427 -0.005 -0.011
 -0.113  0.003 -0.005  0.602  0.000
 -0.001 -0.003 -0.011  0.000  0.661
atom    4   Tr[ns(na)] =   5.40655
    eigenvalues: 
  0.391  0.463  0.514  0.609  0.727
    eigenvectors:
  0.000  0.000  0.953  0.001  0.046
  0.001  0.000  0.001  0.999  0.000
  0.999  0.000  0.000  0.001  0.000
  0.000  0.000  0.046  0.000  0.954
  0.000  1.000  0.000  0.000  0.000
    occupations:
  0.524  0.003  0.001 -0.045  0.000
  0.003  0.609  0.005  0.000 -0.000
  0.001  0.005  0.391  0.000  0.000
 -0.045  0.000  0.000  0.717  0.000
  0.000 -0.000  0.000  0.000  0.463
atom    9   Tr[ns(na)] =   5.83868
    eigenvalues: 
  0.487  0.511  0.519  0.675  0.727
    eigenvectors:
  0.000  0.348  0.016  0.000  0.635
  0.000  0.050  0.950  0.000  0.000
  0.998  0.000  0.000  0.001  0.000
  0.000  0.602  0.034  0.000  0.364
  0.001  0.000  0.000  0.999  0.000
    occupations:
  0.648 -0.003  0.001 -0.104  0.000
 -0.003  0.519 -0.001 -0.000 -0.000
  0.001 -0.001  0.488 -0.001 -0.006
 -0.104 -0.000 -0.001  0.590 -0.000
  0.000 -0.000 -0.006 -0.000  0.675
atom   10   Tr[ns(na)] =   6.12437
    eigenvalues: 
  0.413  0.465  0.674  0.723  0.787
    eigenvectors:
  0.986  0.000  0.000  0.014  0.000
  0.000  0.000  0.000  0.000  1.000
  0.000  0.000  0.992  0.008  0.000
  0.014  0.000  0.008  0.978  0.000
  0.000  1.000  0.000  0.000  0.000
    occupations:
  0.418  0.000  0.000 -0.037 -0.000
  0.000  0.786  0.000  0.000 -0.006
  0.000  0.000  0.675  0.005 -0.000
 -0.037  0.000  0.005  0.718  0.000
 -0.000 -0.006 -0.000  0.000  0.465
atom   16   Tr[ns(na)] =   5.55273
    eigenvalues: 
  0.426  0.465  0.498  0.662  0.725
    eigenvectors:
  0.003  0.001  0.454  0.000  0.542
  0.000  0.999  0.000  0.000  0.000
  0.995  0.000  0.002  0.002  0.001
  0.000  0.000  0.544  0.000  0.456
  0.002  0.000  0.000  0.997  0.000
    occupations:
  0.621  0.004  0.010 -0.113  0.001
  0.004  0.465 -0.001 -0.003 -0.003
  0.010 -0.001  0.427 -0.005  0.011
 -0.113 -0.003 -0.005  0.602 -0.000
  0.001 -0.003  0.011 -0.000  0.661
atom   17   Tr[ns(na)] =   5.32077
    eigenvalues: 
  0.382  0.462  0.514  0.582  0.720
    eigenvectors:
  0.000  0.000  0.953  0.002  0.045
  0.000  0.000  0.002  0.998  0.000
  1.000  0.000  0.000  0.000  0.000
  0.000  0.000  0.045  0.000  0.955
  0.000  1.000  0.000  0.000  0.000
    occupations:
  0.524  0.003  0.001 -0.043  0.000
  0.003  0.582  0.004  0.001 -0.000
  0.001  0.004  0.382 -0.000  0.000
 -0.043  0.001 -0.000  0.711  0.000
  0.000 -0.000  0.000  0.000  0.462
atom   22   Tr[ns(na)] =   5.84432
    eigenvalues: 
  0.488  0.510  0.519  0.677  0.728
    eigenvectors:
  0.000  0.342  0.022  0.000  0.636
  0.000  0.067  0.933  0.000  0.000
  0.998  0.000  0.000  0.001  0.000
  0.000  0.591  0.045  0.000  0.364
  0.001  0.000  0.000  0.998  0.000
    occupations:
  0.649  0.003  0.001 -0.104  0.001
  0.003  0.518  0.001  0.001 -0.000
  0.001  0.001  0.489 -0.001  0.007
 -0.104  0.001 -0.001  0.590 -0.000
  0.001 -0.000  0.007 -0.000  0.676
atom   23   Tr[ns(na)] =   5.65723
    eigenvalues: 
  0.463  0.517  0.532  0.592  0.726
    eigenvectors:
  0.000  0.000  0.775  0.168  0.056
  0.016  0.984  0.000  0.000  0.000
  0.000  0.000  0.187  0.810  0.002
  0.000  0.000  0.037  0.021  0.941
  0.984  0.016  0.000  0.000  0.000
    occupations:
  0.553  0.000 -0.024 -0.041 -0.000
  0.000  0.516 -0.000 -0.000 -0.007
 -0.024 -0.000  0.581  0.001  0.000
 -0.041 -0.000  0.001  0.715  0.000
 -0.000 -0.007  0.000  0.000  0.464
N of occupied +U levels =  45.2964031
 --- exit write_ns ---

     negative rho (up, down):  0.294E+00 0.000E+00

     total cpu time spent up to now is      609.2 secs

     total energy              =   -2200.81245833 Ry
     Harris-Foulkes estimate   =   -2207.61901899 Ry
     estimated scf accuracy    <       8.63866258 Ry

     iteration #  2     ecut=    40.00 Ry     beta=0.70
     Davidson diagonalization with overlap
     ethr =  3.53E-03,  avg # of iterations =  5.0

     negative rho (up, down):  0.286E+00 0.000E+00

     total cpu time spent up to now is      953.0 secs

     total energy              =   -2168.16774088 Ry
     Harris-Foulkes estimate   =   -2244.60141459 Ry
     estimated scf accuracy    <     944.04623144 Ry

     iteration #  3     ecut=    40.00 Ry     beta=0.70
     Davidson diagonalization with overlap
     ethr =  3.53E-03,  avg # of iterations =  4.9

     negative rho (up, down):  0.242E+00 0.000E+00

     total cpu time spent up to now is     1320.3 secs

     total energy              =   -2193.98221641 Ry
     Harris-Foulkes estimate   =   -2217.10442679 Ry
     estimated scf accuracy    <     274.12489593 Ry

     iteration #  4     ecut=    40.00 Ry     beta=0.70
     Davidson diagonalization with overlap
     ethr =  3.53E-03,  avg # of iterations =  4.0

     negative rho (up, down):  0.236E+00 0.000E+00

     total cpu time spent up to now is     1592.7 secs

     total energy              =   -2205.05520000 Ry
     Harris-Foulkes estimate   =   -2207.76951584 Ry
     estimated scf accuracy    <      12.48879913 Ry

     iteration #  5     ecut=    40.00 Ry     beta=0.70
     Davidson diagonalization with overlap
     ethr =  3.53E-03,  avg # of iterations =  2.7

     negative rho (up, down):  0.236E+00 0.000E+00

     total cpu time spent up to now is     1847.0 secs

     total energy              =   -2206.20496492 Ry
     Harris-Foulkes estimate   =   -2206.47837099 Ry
     estimated scf accuracy    <       1.19458790 Ry

     iteration #  6     ecut=    40.00 Ry     beta=0.70
     Davidson diagonalization with overlap
     ethr =  4.88E-04,  avg # of iterations =  4.0

     negative rho (up, down):  0.237E+00 0.000E+00

     total cpu time spent up to now is     2114.4 secs

     total energy              =   -2206.24567560 Ry
     Harris-Foulkes estimate   =   -2206.40837601 Ry
     estimated scf accuracy    <       0.94709802 Ry

     iteration #  7     ecut=    40.00 Ry     beta=0.70
     Davidson diagonalization with overlap
     ethr =  3.87E-04,  avg # of iterations =  1.1

     negative rho (up, down):  0.239E+00 0.000E+00

     total cpu time spent up to now is     2356.3 secs

     total energy              =   -2206.29150879 Ry
     Harris-Foulkes estimate   =   -2206.36394515 Ry
     estimated scf accuracy    <       0.56754888 Ry

     iteration #  8     ecut=    40.00 Ry     beta=0.70
     Davidson diagonalization with overlap
     ethr =  2.32E-04,  avg # of iterations =  3.7

     negative rho (up, down):  0.241E+00 0.000E+00

     total cpu time spent up to now is     2612.3 secs

     total energy              =   -2206.29694713 Ry
     Harris-Foulkes estimate   =   -2206.34859172 Ry
     estimated scf accuracy    <       0.27248181 Ry

     iteration #  9     ecut=    40.00 Ry     beta=0.70
     Davidson diagonalization with overlap
     ethr =  1.11E-04,  avg # of iterations =  3.0

     negative rho (up, down):  0.242E+00 0.000E+00

     total cpu time spent up to now is     2856.7 secs

     total energy              =   -2206.30517686 Ry
     Harris-Foulkes estimate   =   -2206.34792735 Ry
     estimated scf accuracy    <       0.21781583 Ry

     iteration # 10     ecut=    40.00 Ry     beta=0.70
     Davidson diagonalization with overlap
     ethr =  8.89E-05,  avg # of iterations =  1.7

     negative rho (up, down):  0.242E+00 0.000E+00

     total cpu time spent up to now is     3094.5 secs

     total energy              =   -2206.31649620 Ry
     Harris-Foulkes estimate   =   -2206.33637510 Ry
     estimated scf accuracy    <       0.13446762 Ry

     iteration # 11     ecut=    40.00 Ry     beta=0.70
     Davidson diagonalization with overlap
     ethr =  5.49E-05,  avg # of iterations =  1.2

     negative rho (up, down):  0.241E+00 0.000E+00

     total cpu time spent up to now is     3336.9 secs

     total energy              =   -2206.32191370 Ry
     Harris-Foulkes estimate   =   -2206.33477482 Ry
     estimated scf accuracy    <       0.08005014 Ry

     iteration # 12     ecut=    40.00 Ry     beta=0.70
     Davidson diagonalization with overlap
     ethr =  3.27E-05,  avg # of iterations =  5.5

     negative rho (up, down):  0.243E+00 0.000E+00

     total cpu time spent up to now is     3609.7 secs

     total energy              =   -2206.32648867 Ry
     Harris-Foulkes estimate   =   -2206.33144955 Ry
     estimated scf accuracy    <       0.05909068 Ry

     iteration # 13     ecut=    40.00 Ry     beta=0.70
     Davidson diagonalization with overlap
     ethr =  2.41E-05,  avg # of iterations =  1.3

     negative rho (up, down):  0.242E+00 0.000E+00

     total cpu time spent up to now is     3851.2 secs

     total energy              =   -2206.32855555 Ry
     Harris-Foulkes estimate   =   -2206.33027631 Ry
     estimated scf accuracy    <       0.01118066 Ry

     iteration # 14     ecut=    40.00 Ry     beta=0.70
     Davidson diagonalization with overlap
     ethr =  4.56E-06,  avg # of iterations =  7.2

     negative rho (up, down):  0.242E+00 0.000E+00

     total cpu time spent up to now is     4115.5 secs

     total energy              =   -2206.32897033 Ry
     Harris-Foulkes estimate   =   -2206.32973715 Ry
     estimated scf accuracy    <       0.00464738 Ry

     iteration # 15     ecut=    40.00 Ry     beta=0.70
     Davidson diagonalization with overlap
     ethr =  1.90E-06,  avg # of iterations =  4.0

     negative rho (up, down):  0.243E+00 0.000E+00

     total cpu time spent up to now is     4373.2 secs

     total energy              =   -2206.32933352 Ry
     Harris-Foulkes estimate   =   -2206.32959149 Ry
     estimated scf accuracy    <       0.00193516 Ry

     iteration # 16     ecut=    40.00 Ry     beta=0.70
     Davidson diagonalization with overlap
     ethr =  7.90E-07,  avg # of iterations =  1.2

     negative rho (up, down):  0.243E+00 0.000E+00

     total cpu time spent up to now is     4609.7 secs

     total energy              =   -2206.32938506 Ry
     Harris-Foulkes estimate   =   -2206.32964812 Ry
     estimated scf accuracy    <       0.00168856 Ry

     iteration # 17     ecut=    40.00 Ry     beta=0.70
     Davidson diagonalization with overlap
     ethr =  6.89E-07,  avg # of iterations =  1.0

     negative rho (up, down):  0.243E+00 0.000E+00

     total cpu time spent up to now is     4844.7 secs

     total energy              =   -2206.32948748 Ry
     Harris-Foulkes estimate   =   -2206.32956102 Ry
     estimated scf accuracy    <       0.00037667 Ry

     iteration # 18     ecut=    40.00 Ry     beta=0.70
     Davidson diagonalization with overlap
     ethr =  1.54E-07,  avg # of iterations =  1.0

     negative rho (up, down):  0.243E+00 0.000E+00

     total cpu time spent up to now is     5081.2 secs

     total energy              =   -2206.32951062 Ry
     Harris-Foulkes estimate   =   -2206.32957655 Ry
     estimated scf accuracy    <       0.00033196 Ry

     iteration # 19     ecut=    40.00 Ry     beta=0.70
     Davidson diagonalization with overlap
     ethr =  1.35E-07,  avg # of iterations =  1.0

     negative rho (up, down):  0.243E+00 0.000E+00

     total cpu time spent up to now is     5316.7 secs

     total energy              =   -2206.32945475 Ry
     Harris-Foulkes estimate   =   -2206.32963047 Ry
     estimated scf accuracy    <       0.00131472 Ry

     iteration # 20     ecut=    40.00 Ry     beta=0.70
     Davidson diagonalization with overlap
     ethr =  1.35E-07,  avg # of iterations =  1.0

     negative rho (up, down):  0.243E+00 0.000E+00

     total cpu time spent up to now is     5559.3 secs

     total energy              =   -2206.32954048 Ry
     Harris-Foulkes estimate   =   -2206.32955600 Ry
     estimated scf accuracy    <       0.00009373 Ry

     iteration # 21     ecut=    40.00 Ry     beta=0.70
     Davidson diagonalization with overlap
     ethr =  3.83E-08,  avg # of iterations =  1.0

     negative rho (up, down):  0.243E+00 0.000E+00

     total cpu time spent up to now is     5798.5 secs

     total energy              =   -2206.32953369 Ry
     Harris-Foulkes estimate   =   -2206.32956998 Ry
     estimated scf accuracy    <       0.00027277 Ry

     iteration # 22     ecut=    40.00 Ry     beta=0.70
     Davidson diagonalization with overlap
     ethr =  3.83E-08,  avg # of iterations =  1.7

     negative rho (up, down):  0.243E+00 0.000E+00

     total cpu time spent up to now is     6038.4 secs

     total energy              =   -2206.32953141 Ry
     Harris-Foulkes estimate   =   -2206.32956594 Ry
     estimated scf accuracy    <       0.00035090 Ry

     iteration # 23     ecut=    40.00 Ry     beta=0.70
     Davidson diagonalization with overlap
     ethr =  3.83E-08,  avg # of iterations =  1.0

     negative rho (up, down):  0.243E+00 0.000E+00

     total cpu time spent up to now is     6275.0 secs

     total energy              =   -2206.32953797 Ry
     Harris-Foulkes estimate   =   -2206.32956824 Ry
     estimated scf accuracy    <       0.00036012 Ry

     iteration # 24     ecut=    40.00 Ry     beta=0.70
     Davidson diagonalization with overlap
     ethr =  3.83E-08,  avg # of iterations =  1.0

     negative rho (up, down):  0.243E+00 0.000E+00

     total cpu time spent up to now is     6511.8 secs

     total energy              =   -2206.32955087 Ry
     Harris-Foulkes estimate   =   -2206.32955534 Ry
     estimated scf accuracy    <       0.00003074 Ry

     iteration # 25     ecut=    40.00 Ry     beta=0.70
     Davidson diagonalization with overlap
     ethr =  1.25E-08,  avg # of iterations =  1.0

     negative rho (up, down):  0.243E+00 0.000E+00

     total cpu time spent up to now is     6753.4 secs

     total energy              =   -2206.32955180 Ry
     Harris-Foulkes estimate   =   -2206.32955528 Ry
     estimated scf accuracy    <       0.00002212 Ry

     iteration # 26     ecut=    40.00 Ry     beta=0.70
     Davidson diagonalization with overlap
     ethr =  9.03E-09,  avg # of iterations =  1.0

     negative rho (up, down):  0.243E+00 0.000E+00

     total cpu time spent up to now is     6988.4 secs

     total energy              =   -2206.32955005 Ry
     Harris-Foulkes estimate   =   -2206.32955756 Ry
     estimated scf accuracy    <       0.00004194 Ry

     iteration # 27     ecut=    40.00 Ry     beta=0.70
     Davidson diagonalization with overlap
     ethr =  9.03E-09,  avg # of iterations =  1.0

     negative rho (up, down):  0.243E+00 0.000E+00

     total cpu time spent up to now is     7222.7 secs

     total energy              =   -2206.32955346 Ry
     Harris-Foulkes estimate   =   -2206.32955446 Ry
     estimated scf accuracy    <       0.00000592 Ry

     iteration # 28     ecut=    40.00 Ry     beta=0.70
     Davidson diagonalization with overlap
     ethr =  2.42E-09,  avg # of iterations =  1.0

     negative rho (up, down):  0.243E+00 0.000E+00

     total cpu time spent up to now is     7458.5 secs

     total energy              =   -2206.32955326 Ry
     Harris-Foulkes estimate   =   -2206.32955534 Ry
     estimated scf accuracy    <       0.00001218 Ry

     iteration # 29     ecut=    40.00 Ry     beta=0.70
     Davidson diagonalization with overlap
     ethr =  2.42E-09,  avg # of iterations =  1.0

     negative rho (up, down):  0.243E+00 0.000E+00

     total cpu time spent up to now is     7703.1 secs

     total energy              =   -2206.32955369 Ry
     Harris-Foulkes estimate   =   -2206.32955455 Ry
     estimated scf accuracy    <       0.00000217 Ry

     iteration # 30     ecut=    40.00 Ry     beta=0.70
     Davidson diagonalization with overlap
     ethr =  8.84E-10,  avg # of iterations =  2.0

     negative rho (up, down):  0.243E+00 0.000E+00

     total cpu time spent up to now is     7962.1 secs

     total energy              =   -2206.32955280 Ry
     Harris-Foulkes estimate   =   -2206.32955583 Ry
     estimated scf accuracy    <       0.00002415 Ry

     iteration # 31     ecut=    40.00 Ry     beta=0.70
     Davidson diagonalization with overlap
     ethr =  8.84E-10,  avg # of iterations =  1.0

     negative rho (up, down):  0.243E+00 0.000E+00

     total cpu time spent up to now is     8212.1 secs

     total energy              =   -2206.32955426 Ry
     Harris-Foulkes estimate   =   -2206.32955455 Ry
     estimated scf accuracy    <       0.00000154 Ry

     iteration # 32     ecut=    40.00 Ry     beta=0.70
     Davidson diagonalization with overlap
     ethr =  6.27E-10,  avg # of iterations =  1.0

     negative rho (up, down):  0.243E+00 0.000E+00

     total cpu time spent up to now is     8460.4 secs

     total energy              =   -2206.32955433 Ry
     Harris-Foulkes estimate   =   -2206.32955448 Ry
     estimated scf accuracy    <       0.00000120 Ry

     iteration # 33     ecut=    40.00 Ry     beta=0.70
     Davidson diagonalization with overlap
     ethr =  4.89E-10,  avg # of iterations =  1.0

     negative rho (up, down):  0.243E+00 0.000E+00

     total cpu time spent up to now is     8714.2 secs

     total energy              =   -2206.32955432 Ry
     Harris-Foulkes estimate   =   -2206.32955453 Ry
     estimated scf accuracy    <       0.00000275 Ry

     iteration # 34     ecut=    40.00 Ry     beta=0.70
     Davidson diagonalization with overlap
     ethr =  4.89E-10,  avg # of iterations =  1.0

     negative rho (up, down):  0.243E+00 0.000E+00

     total cpu time spent up to now is     8961.6 secs

     total energy              =   -2206.32955430 Ry
     Harris-Foulkes estimate   =   -2206.32955455 Ry
     estimated scf accuracy    <       0.00000111 Ry

     iteration # 35     ecut=    40.00 Ry     beta=0.70
     Davidson diagonalization with overlap
     ethr =  4.55E-10,  avg # of iterations =  1.0

     negative rho (up, down):  0.243E+00 0.000E+00

     total cpu time spent up to now is     9220.9 secs

     End of self-consistent calculation
 --- enter write_ns ---
 LDA+U parameters:
U( 2)     =  3.50000000
alpha( 2) =  0.00000000
atom    3   Tr[ns(na)] =   6.56609
    eigenvalues: 
  0.544  0.572  0.578  0.773  0.816
    eigenvectors:
  0.007  0.312  0.015  0.664  0.001
  0.985  0.013  0.000  0.001  0.001
  0.001  0.094  0.885  0.004  0.016
  0.005  0.579  0.086  0.328  0.001
  0.001  0.001  0.013  0.002  0.982
    occupations:
  0.705 -0.007  0.012 -0.094 -0.001
 -0.007  0.545 -0.000  0.001 -0.007
  0.012 -0.000  0.582 -0.006  0.029
 -0.094  0.001 -0.006  0.638 -0.001
 -0.001 -0.007  0.029 -0.001  0.812
atom    4   Tr[ns(na)] =   6.55557
    eigenvalues: 
  0.568  0.603  0.625  0.701  0.781
    eigenvectors:
  0.000  0.985  0.000  0.001  0.013
  0.000  0.001  0.017  0.981  0.000
  0.000  0.000  0.983  0.017  0.000
  0.000  0.013  0.000  0.000  0.987
  0.999  0.000  0.000  0.000  0.000
    occupations:
  0.605  0.004  0.000 -0.020  0.001
  0.004  0.699  0.010 -0.000 -0.002
  0.000  0.010  0.626  0.000 -0.000
 -0.020 -0.000  0.000  0.779 -0.000
  0.001 -0.002 -0.000 -0.000  0.569
atom    9   Tr[ns(na)] =   6.55932
    eigenvalues: 
  0.597  0.606  0.611  0.722  0.744
    eigenvectors:
  0.240  0.004  0.000  0.023  0.733
  0.000  0.015  0.985  0.000  0.000
  0.014  0.925  0.013  0.046  0.001
  0.745  0.011  0.001  0.006  0.237
  0.001  0.045  0.001  0.925  0.028
    occupations:
  0.707  0.002 -0.001 -0.062  0.003
  0.002  0.611 -0.001 -0.001  0.000
 -0.001 -0.001  0.611 -0.000 -0.025
 -0.062 -0.001 -0.000  0.633 -0.003
  0.003  0.000 -0.025 -0.003  0.717
atom   10   Tr[ns(na)] =   6.53541
    eigenvalues: 
  0.476  0.540  0.641  0.746  0.865
    eigenvectors:
  1.000  0.000  0.000  0.000  0.000
  0.000  0.000  0.000  0.000  1.000
  0.000  0.000  0.995  0.005  0.000
  0.000  0.000  0.005  0.995  0.000
  0.000  1.000  0.000  0.000  0.000
    occupations:
  0.476  0.000 -0.002 -0.005  0.000
  0.000  0.865  0.001  0.000 -0.004
 -0.002  0.001  0.642  0.007 -0.000
 -0.005  0.000  0.007  0.745 -0.000
  0.000 -0.004 -0.000 -0.000  0.540
atom   16   Tr[ns(na)] =   6.56613
    eigenvalues: 
  0.544  0.572  0.579  0.773  0.815
    eigenvectors:
  0.007  0.315  0.012  0.664  0.001
  0.985  0.013  0.000  0.001  0.001
  0.001  0.081  0.899  0.004  0.015
  0.005  0.590  0.076  0.328  0.001
  0.001  0.001  0.013  0.002  0.983
    occupations:
  0.705  0.007  0.013 -0.094  0.001
  0.007  0.545  0.000 -0.001 -0.007
  0.013  0.000  0.583 -0.006 -0.028
 -0.094 -0.001 -0.006  0.638  0.001
  0.001 -0.007 -0.028  0.001  0.811
atom   17   Tr[ns(na)] =   6.55414
    eigenvalues: 
  0.569  0.603  0.609  0.717  0.780
    eigenvectors:
  0.000  0.988  0.001  0.001  0.010
  0.000  0.000  0.006  0.993  0.000
  0.000  0.001  0.993  0.006  0.000
  0.000  0.010  0.000  0.000  0.990
  1.000  0.000  0.000  0.000  0.000
    occupations:
  0.604  0.003  0.000 -0.018  0.001
  0.003  0.716  0.008 -0.000 -0.002
  0.000  0.008  0.610  0.001 -0.000
 -0.018 -0.000  0.001  0.778 -0.000
  0.001 -0.002 -0.000 -0.000  0.569
atom   22   Tr[ns(na)] =   6.56119
    eigenvalues: 
  0.597  0.605  0.610  0.722  0.747
    eigenvectors:
  0.240  0.006  0.000  0.016  0.737
  0.001  0.058  0.941  0.000  0.000
  0.020  0.875  0.056  0.048  0.001
  0.737  0.017  0.000  0.005  0.241
  0.001  0.044  0.003  0.931  0.021
    occupations:
  0.710 -0.001  0.000 -0.064  0.003
 -0.001  0.610  0.001  0.001  0.000
  0.000  0.001  0.610 -0.001  0.025
 -0.064  0.001 -0.001  0.634 -0.001
  0.003  0.000  0.025 -0.001  0.717
atom   23   Tr[ns(na)] =   6.59769
    eigenvalues: 
  0.553  0.575  0.609  0.770  0.792
    eigenvectors:
  0.000  0.000  0.964  0.001  0.035
  0.060  0.940  0.000  0.000  0.000
  0.000  0.000  0.008  0.906  0.086
  0.000  0.000  0.029  0.093  0.878
  0.940  0.060  0.000  0.000  0.000
    occupations:
  0.615  0.000 -0.015 -0.031 -0.000
  0.000  0.574 -0.001 -0.000 -0.005
 -0.015 -0.001  0.771  0.003  0.000
 -0.031 -0.000  0.003  0.784  0.000
 -0.000 -0.005  0.000  0.000  0.554
N of occupied +U levels =  52.4955134
 --- exit write_ns ---

          k = 0.0000 0.0000 0.0000 ( 29221 PWs)   bands (ev):

   -81.2591 -81.1965 -81.1074 -81.0474 -80.9546 -80.7631 -80.7079 -80.6035
   -43.4681 -43.3952 -43.2405 -43.1883 -43.1766 -43.0958 -43.0946 -43.0226
   -43.0022 -42.9802 -42.9643 -42.8886 -42.8264 -42.8204 -42.7183 -42.6969
   -42.6822 -42.6133 -42.5906 -42.5657 -42.5288 -42.4786 -42.1576 -41.9783
   -20.9850 -20.5784 -20.5283 -20.3149 -20.1169 -19.9181 -19.7506 -19.6929
   -19.6820 -19.5629 -19.4918 -19.3825 -19.2815 -19.2586 -19.1361 -18.9790
   -18.9524 -18.4516 -18.1222 -17.0346  -9.7775  -9.6194  -9.2091  -9.0354
    -8.5876  -8.5713  -8.2997  -8.1063  -8.0521  -8.0315  -7.8395  -7.8309
    -7.6193  -7.3827  -7.3382  -7.1961  -7.0595  -6.9371  -6.8733  -6.7900
    -6.6753  -6.4367  -6.3923  -5.7594  -5.7030  -5.6710  -5.5979  -5.5286
    -5.4470  -5.3611  -5.2415  -5.1941  -5.1206  -4.9180  -4.8634  -4.7974
    -4.5666  -4.5073  -4.4551  -4.4064  -4.3433  -4.1639  -4.1102  -4.0150
    -3.8983  -3.8394  -3.7371  -3.7060  -3.4327  -3.3716  -3.3404  -3.3167
    -3.2462  -3.2028  -3.0727  -3.0079  -2.9316  -2.8507  -2.7462  -2.6599
    -2.4509  -1.3050  -1.0596  -0.9179  -0.6826  -0.2818  -0.2628  -0.2262
     0.0391   0.2277   0.2305   0.3384   0.4704   0.8559   0.9194   0.9757
     1.2950   1.8045   1.8478   2.0616   2.6932   2.7096   2.9138   3.1141
     3.1901   3.1988   3.4939   3.7751   4.1706   4.3098   4.4751   4.5636
     4.6610   4.7224   4.8101   4.9138   4.9386   5.0334   5.1109   5.1787
     5.3408   5.4701   5.5676   6.1786   6.2441   6.3795   6.6624   6.9581
     7.4081   7.6723   7.7555   7.8772   7.9682   8.0971   8.1730   8.2517
     8.2871   8.5236   8.6608   8.7905   8.8983   9.0192   9.0606   9.1933
     9.2005   9.3473   9.3857   9.4728   9.5547   9.7721   9.8134   9.8848
     9.9180  10.0858  10.1087  10.2128  10.2746  10.3507  10.5397  10.6760
    10.6953  10.7460  10.8704  11.0021  11.0960  11.2844  11.3405  11.3976
    11.5216  11.6614  11.8106  11.8609  11.8903  11.9923  12.0844  12.1584
    12.1682  12.3695  12.5783  12.6464  12.7184  12.7446  12.8915  12.9017
    13.0008  13.0829  13.1262  13.1707  13.2471  13.2690  13.3327  13.3405
    13.4270  13.4561  13.4960  13.6172  13.6309  13.7266  13.7676  13.8678
    13.9223  14.0455  14.0544  14.0743  14.1349  14.1637  14.2031  14.3063
    14.3774  14.4451  14.5479  14.6597  14.8179  14.8575  14.9528  15.0627
    15.0758  15.1308  15.2155  15.2632  15.3783  15.4690  15.5447  15.5886
    15.7406  15.7877  15.8468  16.0273  16.0581  16.0922  16.1465  16.2420
    16.3825  16.5060  16.5719  16.6259  16.6279  16.8100  16.8993  16.9644
    17.0296  17.1228  17.1989  17.2543  17.3220  17.3329  17.4414  17.5311
    17.5819  17.6439  17.7359  17.9018  17.9347  17.9850  18.0857  18.2043
    18.3427  18.3948  18.4508  18.5802  18.6229  18.6645  18.8735  18.9017
    18.9372  18.9869  19.0367  19.2222  19.2843  19.3465  19.3818  19.4310
    19.5036  19.6372  19.7909  19.8467  19.9817  20.0016  20.0233  20.1005
    20.1558  20.1780  20.2187  20.2943  20.4259  20.4495  20.6227  20.6915
    20.7773  20.8379  20.9275  20.9543  21.0196  21.0732  21.2046  21.2808
    21.4461  21.4701  21.4898  21.5851  21.6560  21.7083  21.7664  21.7944
    21.9887  22.0653  22.1174  22.1642  22.1964  22.2440  22.2524  22.3667
    22.3990  22.4561  22.4705  22.4941  22.5523  22.5680  22.6203  22.7273
    22.7953  22.8361  22.8963  22.9207  23.0132  23.0488  23.0823  23.1133
    23.1492  23.1903  23.2266  23.2377  23.3075  23.4198  23.4800

          k = 0.0000 0.1914 0.0000 ( 29141 PWs)   bands (ev):

   -81.2590 -81.1967 -81.1071 -81.0474 -80.9546 -80.7628 -80.7080 -80.6035
   -43.4682 -43.3951 -43.2412 -43.1883 -43.1753 -43.0957 -43.0931 -43.0223
   -43.0012 -42.9801 -42.9644 -42.8883 -42.8262 -42.8204 -42.7183 -42.6993
   -42.6845 -42.6128 -42.5906 -42.5657 -42.5284 -42.4786 -42.1575 -41.9783
   -20.9112 -20.5244 -20.4094 -20.3038 -20.0968 -19.9641 -19.9058 -19.8011
   -19.7536 -19.7045 -19.5636 -19.4498 -19.3268 -19.0568 -18.9718 -18.9486
   -18.9261 -18.4508 -18.1220 -17.0332  -9.4106  -9.2260  -9.1195  -9.0504
    -8.9435  -8.5866  -8.5691  -8.3516  -8.3000  -8.1767  -8.1735  -7.9384
    -7.8304  -7.3918  -7.3480  -7.0798  -6.7903  -6.6265  -6.5292  -6.4480
    -6.4258  -6.2863  -6.0907  -5.9812  -5.8272  -5.7568  -5.6731  -5.5954
    -5.5889  -5.4533  -5.4031  -5.3597  -5.2711  -5.1230  -4.8808  -4.6658
    -4.5824  -4.5056  -4.4713  -4.3930  -4.1681  -4.1389  -3.9957  -3.8490
    -3.8125  -3.7171  -3.6133  -3.5830  -3.4977  -3.4443  -3.3574  -3.2990
    -3.2672  -3.2171  -3.0871  -2.9504  -2.8968  -2.8842  -2.7799  -2.6580
    -2.5340  -1.4091  -1.3806  -1.2776  -1.0764  -0.5897  -0.3065  -0.1391
     0.1725   0.5399   0.7095   0.7942   0.8145   0.8873   0.9214   0.9939
     1.3991   1.4606   1.8212   2.0672   2.5210   2.8705   3.0550   3.0947
     3.1833   3.4408   3.5227   3.7806   3.8098   4.1800   4.2309   4.2784
     4.3297   4.4373   4.4573   4.7238   4.9416   5.1114   5.1240   5.4152
     5.6187   5.8386   6.3421   6.3703   6.4928   6.5641   6.7113   6.7131
     6.8990   7.1176   7.2851   7.6332   7.7490   7.9581   7.9804   8.3237
     8.3384   8.3815   8.7139   8.8276   9.0366   9.2357   9.2827   9.4240
     9.5321   9.6224   9.7038   9.7136   9.7740   9.9805  10.0317  10.0830
    10.2028  10.2523  10.2925  10.3686  10.5053  10.5526  10.6945  10.7895
    10.8828  10.8939  10.9818  11.1063  11.2137  11.3196  11.4169  11.4922
    11.5392  11.5927  11.6522  11.8078  11.8663  11.9250  11.9507  11.9647
    12.0878  12.2386  12.3155  12.3399  12.3983  12.4841  12.4931  12.5396
    12.6273  12.7608  12.8539  12.9611  13.0218  13.1029  13.2225  13.2764
    13.3185  13.5083  13.6217  13.6267  13.7263  13.8000  13.8321  13.9291
    13.9606  14.0105  14.0562  14.1653  14.1993  14.2928  14.4150  14.4579
    14.5432  14.6098  14.6815  14.7254  14.7622  14.8718  14.9329  14.9441
    15.0081  15.1269  15.1514  15.2315  15.2785  15.3665  15.4662  15.5368
    15.6150  15.7031  15.7280  15.8275  15.8515  15.9451  16.0005  16.0558
    16.1807  16.2988  16.3937  16.5652  16.5789  16.7058  16.7874  16.8640
    17.0038  17.1437  17.2817  17.3132  17.3620  17.3706  17.4297  17.5598
    17.6497  17.8093  17.8374  17.9279  18.0321  18.0952  18.1841  18.3112
    18.4071  18.4402  18.6162  18.6507  18.7779  18.8600  18.9253  18.9503
    19.0547  19.0775  19.0910  19.1917  19.2619  19.2995  19.3703  19.4666
    19.4832  19.6020  19.6279  19.6696  19.6898  19.7435  19.8511  19.9651
    20.0613  20.1410  20.1805  20.2342  20.3342  20.3497  20.3965  20.4471
    20.5935  20.6396  20.6901  20.8542  20.8713  20.9159  21.0068  21.0264
    21.0820  21.1479  21.3361  21.4616  21.5060  21.5479  21.6031  21.6649
    21.6996  21.7593  21.7831  21.8694  21.9456  22.0590  22.1392  22.1976
    22.2243  22.3773  22.4109  22.4445  22.5448  22.5759  22.6041  22.6294
    22.6474  22.8131  22.8634  22.9667  23.0253  23.0820  23.2114  23.2896
    23.3301  23.3642  23.4549  23.5169  23.5832  23.6525  23.7914

          k = 0.0000-0.3828 0.0000 ( 29262 PWs)   bands (ev):

   -81.2589 -81.1969 -81.1068 -81.0475 -80.9545 -80.7625 -80.7080 -80.6035
   -43.4684 -43.3950 -43.2420 -43.1884 -43.1739 -43.0958 -43.0916 -43.0222
   -43.0003 -42.9801 -42.9646 -42.8880 -42.8260 -42.8205 -42.7183 -42.7018
   -42.6868 -42.6123 -42.5906 -42.5658 -42.5281 -42.4786 -42.1575 -41.9783
   -20.8399 -20.4712 -20.3301 -20.1169 -20.1142 -20.0399 -19.9519 -19.8555
   -19.8021 -19.7463 -19.7405 -19.5673 -19.5416 -18.9899 -18.9473 -18.8379
   -18.7254 -18.4510 -18.1218 -17.0317  -9.2827  -9.1916  -9.0197  -8.8536
    -8.7885  -8.6744  -8.6635  -8.5688  -8.4250  -8.2826  -8.1618  -7.9740
    -7.5981  -7.3820  -7.2266  -7.2147  -7.1126  -6.9432  -6.8654  -6.7168
    -6.4709  -6.0582  -5.9213  -5.8821  -5.7585  -5.6804  -5.4814  -5.4669
    -5.4477  -5.4336  -5.2570  -5.2341  -5.1458  -5.0955  -4.9318  -4.7407
    -4.7364  -4.6479  -4.5364  -4.1706  -4.1132  -4.0196  -3.9170  -3.8870
    -3.8373  -3.8341  -3.7819  -3.6606  -3.5378  -3.5150  -3.3691  -3.3264
    -3.1509  -3.0031  -2.9291  -2.9216  -2.8764  -2.8657  -2.7982  -2.6352
    -2.5586  -1.7397  -1.6742  -1.5536  -1.2899  -0.6359  -0.3501  -0.1173
     0.5788   0.7342   0.7695   0.9290   0.9293   1.1219   1.1389   1.2037
     1.2718   1.5490   1.6056   2.1994   2.3003   2.7675   2.8177   2.9920
     3.2016   3.2393   3.3396   3.7211   3.8307   4.0060   4.0754   4.3237
     4.3401   4.5562   4.8058   4.8993   5.1124   5.1195   5.2026   5.4934
     5.6144   5.7651   6.0599   6.2396   6.5072   6.5727   6.6412   6.8126
     7.0355   7.0806   7.2373   7.3351   7.3991   7.7638   7.8046   8.0895
     8.5277   8.6119   8.7302   8.7618   8.8722   9.1577   9.1709   9.4211
     9.6685   9.7713  10.0014  10.0687  10.1611  10.3124  10.3442  10.5243
    10.5567  10.5963  10.6311  10.6464  10.7638  10.8178  10.9979  11.0577
    11.0951  11.1038  11.2471  11.2628  11.4086  11.4264  11.4902  11.5562
    11.5920  11.6051  11.6424  11.6635  11.7136  11.7619  11.8060  11.9677
    12.0279  12.1191  12.1245  12.1493  12.2054  12.2476  12.3126  12.3674
    12.4630  12.5047  12.5693  12.6699  12.6856  12.8486  12.9461  13.0002
    13.0736  13.2301  13.2609  13.4309  13.5103  13.6015  13.6713  13.7163
    13.7962  13.8003  13.9047  13.9580  14.0431  14.0760  14.1587  14.2745
    14.4139  14.4523  14.5199  14.5876  14.6804  14.7987  14.8228  14.8439
    14.9646  15.1399  15.2966  15.4623  15.6003  15.6596  15.7351  15.7541
    15.9511  15.9844  16.0026  16.2020  16.2795  16.3705  16.5416  16.6071
    16.6240  16.7304  16.7824  16.7938  16.8445  16.8809  16.9605  17.0887
    17.1086  17.1343  17.1799  17.2133  17.3883  17.4131  17.4428  17.4855
    17.5396  17.5794  17.6596  17.7345  17.7649  17.8014  17.8848  17.9976
    18.0445  18.1330  18.2356  18.2812  18.3455  18.3565  18.5045  18.5189
    18.6406  18.6970  18.7232  18.7270  18.8430  19.0072  19.0667  19.1133
    19.1493  19.2463  19.3621  19.4621  19.5511  19.7679  19.8076  19.9214
    19.9721  20.0440  20.0765  20.1352  20.1925  20.2672  20.3517  20.5016
    20.5337  20.5948  20.7268  20.8443  20.8579  20.9383  20.9468  21.0531
    21.2218  21.3167  21.3623  21.4094  21.4669  21.5351  21.6224  21.7801
    21.8085  21.8388  21.9918  22.1766  22.1885  22.2216  22.2722  22.3528
    22.4041  22.4812  22.5637  22.6275  22.7274  22.8128  22.8859  22.9021
    22.9850  23.1238  23.2143  23.2219  23.2583  23.3410  23.3705  23.4629
    23.4733  23.5670  23.6116  23.6626  23.8221  23.9235  23.9518

          k = 0.2500 0.0000 0.0000 ( 29190 PWs)   bands (ev):

   -81.2463 -81.1980 -81.0946 -81.0509 -80.9498 -80.7496 -80.7108 -80.5989
   -43.3547 -43.2779 -43.1772 -43.1624 -43.1582 -43.1093 -43.0827 -43.0432
   -43.0168 -42.9801 -42.9428 -42.8475 -42.8465 -42.7443 -42.7347 -42.7297
   -42.6863 -42.6649 -42.6273 -42.6225 -42.5705 -42.5434 -42.2618 -42.1218
   -20.8193 -20.4379 -20.3757 -20.2993 -20.0560 -19.9524 -19.7893 -19.6281
   -19.6049 -19.5738 -19.5200 -19.4499 -19.4235 -19.3154 -19.1838 -19.0778
   -18.9968 -18.4934 -18.2462 -17.0350  -9.3411  -9.2302  -8.8908  -8.6834
    -8.5902  -8.3625  -8.0224  -7.9444  -7.8315  -7.8150  -7.7608  -7.6165
    -7.5708  -7.5284  -7.3283  -7.1442  -6.9811  -6.8571  -6.7392  -6.6806
    -6.6112  -6.4791  -6.3432  -6.3099  -6.0599  -6.0279  -5.8016  -5.6288
    -5.5499  -5.4648  -5.1859  -5.0821  -5.0217  -4.8940  -4.8239  -4.7401
    -4.6352  -4.5935  -4.5331  -4.5097  -4.4089  -4.3610  -4.2652  -4.1946
    -3.9162  -3.8804  -3.8256  -3.7277  -3.6450  -3.5093  -3.4627  -3.4143
    -3.2213  -3.1682  -3.0427  -2.8895  -2.8446  -2.8146  -2.6063  -2.5256
    -2.0277  -1.1111  -1.0222  -0.8996  -0.6821  -0.5941  -0.3788  -0.3303
    -0.1308  -0.0216   0.2258   0.4952   0.6043   0.7098   0.8016   1.0365
     1.1262   1.1891   1.5629   1.6395   1.7342   1.7831   2.0309   2.1807
     2.6305   3.4916   3.8137   4.1771   4.2672   4.2964   4.4552   4.5527
     4.6218   4.7560   4.8494   4.9994   5.0031   5.1347   5.2217   5.2615
     5.3682   5.7789   5.9124   6.2586   6.4157   6.5339   6.7247   7.0285
     7.2450   7.6242   7.6850   7.6944   8.0226   8.1448   8.2619   8.3159
     8.3315   8.4541   8.5288   8.6233   8.7062   8.8732   8.9874   9.0179
     9.1837   9.2304   9.3893   9.5000   9.5646   9.6431   9.7539   9.8064
     9.9131   9.9645  10.0546  10.1497  10.2693  10.3402  10.4388  10.5596
    10.6835  10.7623  10.8621  10.9788  11.0197  11.0496  11.1311  11.2659
    11.2835  11.3961  11.4582  11.5870  11.6983  11.9120  12.0305  12.0848
    12.2542  12.3755  12.4263  12.5284  12.5730  12.6103  12.7481  12.8025
    12.9732  13.0403  13.1910  13.2542  13.3204  13.3797  13.4405  13.6045
    13.6967  13.7331  13.8048  13.8282  13.8643  14.0326  14.0976  14.2509
    14.3357  14.4184  14.5026  14.5267  14.6455  14.7091  14.8399  14.8944
    14.9385  14.9785  14.9938  15.2053  15.2629  15.3472  15.4095  15.5184
    15.5802  15.7108  15.7538  15.8366  15.8742  15.9700  16.0581  16.1194
    16.1823  16.2372  16.3317  16.3666  16.4490  16.5349  16.6494  16.6964
    16.7746  16.8854  16.9682  16.9910  17.0950  17.2043  17.2155  17.2439
    17.3002  17.4129  17.4411  17.5160  17.5320  17.6049  17.6464  17.8142
    17.8350  17.9158  17.9904  18.0549  18.1165  18.1477  18.1893  18.2784
    18.3584  18.4172  18.4803  18.5684  18.7054  18.7414  18.8187  18.8899
    18.9461  19.0598  19.1763  19.2868  19.3201  19.3428  19.3866  19.4610
    19.5541  19.5785  19.6471  19.6747  19.7757  19.8489  19.9034  20.0134
    20.0281  20.1060  20.1569  20.1951  20.2408  20.3224  20.3986  20.4388
    20.5007  20.5648  20.5837  20.6599  20.7091  20.7764  20.8236  20.9236
    20.9314  21.0193  21.0718  21.1190  21.1821  21.2854  21.3897  21.4619
    21.4818  21.5925  21.6735  21.7998  21.8283  21.8849  22.0145  22.0432
    22.1496  22.2092  22.2700  22.2987  22.3300  22.3808  22.4078  22.4188
    22.5365  22.5971  22.7260  22.7830  22.8397  22.8793  22.9644  23.0173
    23.0886  23.1410  23.1602  23.2290  23.3058  23.4078  23.4839

          k = 0.2500 0.1914 0.0000 ( 29229 PWs)   bands (ev):

   -81.2462 -81.1982 -81.0944 -81.0509 -80.9498 -80.7493 -80.7109 -80.5989
   -43.3548 -43.2778 -43.1772 -43.1634 -43.1568 -43.1093 -43.0815 -43.0425
   -43.0155 -42.9801 -42.9429 -42.8475 -42.8466 -42.7443 -42.7350 -42.7295
   -42.6882 -42.6670 -42.6273 -42.6222 -42.5707 -42.5434 -42.2617 -42.1217
   -20.7606 -20.3874 -20.3249 -20.2336 -20.0634 -19.9576 -19.8782 -19.8159
   -19.7292 -19.6054 -19.5685 -19.4741 -19.3428 -19.2255 -19.0935 -19.0637
   -18.9892 -18.4938 -18.2470 -17.0335  -9.0170  -8.8739  -8.8038  -8.7447
    -8.6668  -8.4214  -8.3591  -8.3235  -8.0281  -7.9473  -7.8818  -7.7397
    -7.5246  -7.4015  -7.2263  -7.1576  -6.8993  -6.8417  -6.7172  -6.6515
    -6.5156  -6.3685  -6.2062  -6.1315  -5.9038  -5.8467  -5.6992  -5.6014
    -5.5147  -5.4474  -5.2986  -5.2352  -5.0670  -4.9873  -4.9503  -4.8648
    -4.7788  -4.7224  -4.6501  -4.5920  -4.5136  -4.3604  -4.2798  -4.0695
    -3.9801  -3.8538  -3.8397  -3.7237  -3.6486  -3.5457  -3.4812  -3.3834
    -3.3467  -3.1118  -3.0246  -2.8785  -2.8164  -2.6743  -2.3784  -2.1681
    -2.0027  -1.3754  -1.1985  -1.0555  -0.9943  -0.6794  -0.2844  -0.1448
     0.0163   0.2156   0.4235   0.5944   0.6961   0.7183   0.9391   1.0781
     1.2648   1.3407   1.5137   1.6126   1.6806   1.8384   1.9417   2.2629
     2.4924   3.6323   3.6659   3.7745   3.8528   4.0339   4.1725   4.4040
     4.5125   4.5560   4.7790   4.9026   5.0189   5.3641   5.4210   5.7042
     5.8600   5.9564   6.1345   6.2719   6.4284   6.5632   6.7439   6.9229
     7.0680   7.2163   7.4266   7.6001   7.7476   7.8576   8.0424   8.1643
     8.3027   8.3979   8.5541   8.6980   8.7166   8.7722   9.0002   9.0764
     9.1990   9.4519   9.5462   9.6420   9.6975   9.8434   9.9062   9.9585
    10.0156  10.0703  10.1632  10.2184  10.2918  10.4404  10.4864  10.5179
    10.5825  10.7204  10.9211  10.9750  11.0917  11.1670  11.3754  11.4472
    11.5154  11.6030  11.7346  11.8147  11.9507  12.0600  12.2455  12.3276
    12.4551  12.5547  12.6191  12.6675  12.7415  12.8117  12.8941  12.9484
    12.9698  13.0870  13.2024  13.2310  13.3892  13.4818  13.5591  13.6541
    13.7395  13.7964  13.8762  13.9178  13.9680  14.0687  14.1124  14.1722
    14.2374  14.2930  14.3963  14.4327  14.5277  14.6104  14.6321  14.6628
    14.7771  14.8117  14.8651  14.9377  14.9724  15.0351  15.1091  15.1950
    15.2370  15.3059  15.3701  15.4985  15.5468  15.6242  15.7148  15.8664
    15.9657  16.1156  16.1484  16.2061  16.2773  16.3544  16.4572  16.5049
    16.5545  16.6435  16.7543  16.7996  16.8625  16.9896  17.0402  17.1209
    17.1659  17.2757  17.3538  17.3899  17.4580  17.5422  17.5721  17.7408
    17.7989  17.8405  17.9035  17.9577  18.0488  18.1137  18.1957  18.2740
    18.3653  18.4087  18.4501  18.5171  18.5549  18.6455  18.7116  18.7831
    18.8500  18.9447  19.0314  19.0913  19.1273  19.2342  19.3316  19.4492
    19.5516  19.5784  19.6666  19.7536  19.8683  19.9124  20.0221  20.0978
    20.1416  20.2406  20.3313  20.4260  20.4702  20.5316  20.6198  20.6793
    20.7173  20.7981  20.8428  20.8812  20.9247  21.0249  21.0898  21.1604
    21.2028  21.2597  21.3268  21.4432  21.4793  21.5712  21.5981  21.6602
    21.7021  21.7951  21.8442  21.8893  21.9987  22.0300  22.1012  22.1739
    22.2430  22.2851  22.3547  22.3981  22.4381  22.5003  22.5459  22.5940
    22.6891  22.7147  22.7808  22.8145  22.8380  22.9174  22.9478  23.0273
    23.0935  23.1290  23.1412  23.1893  23.2574  23.3195  23.3780

          k = 0.2500-0.3828 0.0000 ( 29202 PWs)   bands (ev):

   -81.2462 -81.1983 -81.0942 -81.0509 -80.9498 -80.7491 -80.7109 -80.5989
   -43.3550 -43.2777 -43.1772 -43.1644 -43.1554 -43.1093 -43.0801 -43.0418
   -43.0141 -42.9801 -42.9429 -42.8475 -42.8466 -42.7442 -42.7358 -42.7292
   -42.6895 -42.6690 -42.6273 -42.6221 -42.5708 -42.5433 -42.2616 -42.1217
   -20.7056 -20.3290 -20.3117 -20.1359 -20.0274 -19.9269 -19.9052 -19.8108
   -19.7835 -19.7515 -19.7238 -19.5464 -19.5131 -19.1226 -19.0097 -19.0050
   -18.9116 -18.4950 -18.2482 -17.0321  -8.9248  -8.7934  -8.7254  -8.6656
    -8.6093  -8.3733  -8.3209  -8.2178  -8.1548  -7.9593  -7.8169  -7.7735
    -7.7117  -7.6653  -7.4527  -7.2229  -7.1636  -6.9526  -6.8630  -6.6476
    -6.2451  -6.1614  -5.9853  -5.9063  -5.8195  -5.7044  -5.6428  -5.5855
    -5.4884  -5.3791  -5.3417  -5.1986  -5.1718  -5.0699  -4.9997  -4.9637
    -4.9210  -4.7949  -4.7500  -4.6993  -4.5547  -4.3035  -4.1690  -4.1065
    -3.9719  -3.9167  -3.8465  -3.7770  -3.6855  -3.6575  -3.4611  -3.3449
    -3.1908  -3.0856  -2.9762  -2.9072  -2.7746  -2.6987  -2.3139  -2.0148
    -1.9173  -1.5231  -1.4509  -1.3966  -1.0499  -0.7073  -0.2362  -0.0656
     0.2975   0.4194   0.6733   0.7364   0.8264   0.8888   1.0444   1.1608
     1.3630   1.3865   1.6052   1.6325   1.7450   1.8257   2.0047   2.3042
     2.4308   2.8048   2.9497   3.3771   3.5848   3.8896   4.2344   4.3371
     4.6090   4.6584   4.9502   5.1339   5.3797   5.4560   5.5928   5.7144
     5.9478   6.0940   6.2110   6.3037   6.3935   6.6040   6.7802   6.8782
     6.9189   6.9602   7.2330   7.3108   7.7318   7.7518   7.8334   8.0952
     8.1526   8.4031   8.4953   8.6398   8.8085   8.8343   8.9943   9.0298
     9.1155   9.2183   9.2933   9.4204   9.5940   9.7474   9.9211   9.9900
    10.1606  10.3088  10.4632  10.5033  10.5637  10.6600  10.7418  10.7853
    10.8635  10.9813  11.2415  11.2982  11.3635  11.4409  11.5682  11.6845
    11.8611  11.9422  12.0062  12.0887  12.1151  12.1781  12.2402  12.3702
    12.4771  12.4955  12.5290  12.6009  12.7170  12.7785  12.8516  12.9125
    13.0157  13.1243  13.2024  13.3157  13.4334  13.5088  13.6247  13.6795
    13.7709  13.8096  13.8589  13.9758  14.0236  14.0649  14.0941  14.1346
    14.1900  14.2468  14.2723  14.4240  14.4711  14.4868  14.5405  14.5862
    14.6428  14.6748  14.7368  14.7515  14.7669  14.8541  14.9118  14.9819
    15.0853  15.2124  15.3381  15.3723  15.4699  15.4924  15.5254  15.6101
    15.6945  15.7348  15.8662  15.9295  16.0462  16.1166  16.1455  16.1994
    16.2850  16.3491  16.4857  16.5842  16.6398  16.6857  16.7281  16.8861
    16.9237  16.9485  17.0805  17.1561  17.3165  17.4617  17.5018  17.5940
    17.6632  17.7602  17.7939  17.8226  17.8751  17.9283  18.0888  18.1158
    18.2348  18.2623  18.4153  18.5398  18.6070  18.7596  18.8559  18.9203
    19.0078  19.0700  19.1442  19.3780  19.4293  19.4803  19.6145  19.6541
    19.7297  19.7978  19.8425  19.9179  19.9851  20.0103  20.0754  20.1219
    20.1478  20.2865  20.3320  20.3953  20.4274  20.4676  20.5545  20.6990
    20.7130  20.7988  20.8742  20.9821  21.0310  21.0704  21.1807  21.2489
    21.2788  21.3375  21.4063  21.4226  21.5371  21.5609  21.6567  21.6984
    21.7235  21.7947  21.8429  21.8826  21.9784  22.0184  22.0601  22.1117
    22.1667  22.2495  22.3319  22.3457  22.3951  22.5100  22.5246  22.6272
    22.6453  22.6980  22.7336  22.8173  22.8742  22.9645  22.9945  23.0975
    23.1466  23.2048  23.3231  23.3888  23.4495  23.5354  23.5918

          k =-0.5000 0.0000 0.0000 ( 29180 PWs)   bands (ev):

   -81.2304 -81.2026 -81.0761 -81.0601 -80.9450 -80.7251 -80.7247 -80.5942
   -43.1576 -43.1332 -43.1299 -43.0909 -43.0608 -43.0571 -43.0557 -43.0467
   -43.0457 -42.9998 -42.9823 -42.9731 -42.8904 -42.8542 -42.7930 -42.7917
   -42.6589 -42.6582 -42.6380 -42.5879 -42.5559 -42.4468 -42.4403 -42.3898
   -20.4693 -20.4244 -20.2638 -20.1260 -20.0290 -19.9595 -19.9036 -19.7655
   -19.7097 -19.5508 -19.4588 -19.4568 -19.3141 -19.3106 -19.2943 -19.2898
   -19.0457 -18.5532 -18.3742 -17.0353  -8.4967  -8.4536  -8.4402  -8.4350
    -8.3843  -8.3293  -8.2181  -8.2162  -8.0234  -7.6703  -7.6414  -7.4878
    -7.4107  -7.4028  -7.1884  -7.1614  -6.9865  -6.8245  -6.5874  -6.4094
    -6.3013  -6.1901  -6.1581  -6.1188  -6.0784  -6.0696  -6.0161  -5.7649
    -5.5123  -5.4037  -5.3968  -5.3745  -5.2739  -5.2648  -5.1552  -5.1376
    -5.0190  -4.9224  -4.8320  -4.8143  -4.6694  -4.6355  -4.4387  -4.3730
    -4.0029  -3.9783  -3.7410  -3.6467  -3.5450  -3.4865  -3.4016  -3.2802
    -3.2104  -3.0707  -3.0027  -2.8770  -2.8711  -2.6155  -1.3502  -1.3314
    -1.3207  -1.0847  -0.9792  -0.9433  -0.8279  -0.8137  -0.7644  -0.7299
    -0.6546  -0.4434  -0.3922  -0.0427   0.1790   0.1887   0.3846   0.4705
     0.6494   0.7064   1.1330   1.3760   1.4242   1.6162   2.0168   2.1424
     2.4351   3.8677   3.9982   4.0435   4.3338   4.4589   4.4664   4.5872
     4.7551   4.8435   4.8635   4.9089   4.9685   5.1443   5.2671   5.7671
     5.9092   6.0448   6.1562   6.1639   6.4420   6.6778   6.7929   6.8324
     6.9341   7.1671   7.3982   7.4150   7.8073   7.9495   7.9647   8.2319
     8.5278   8.5406   8.7315   8.9205   8.9914   9.1184   9.1862   9.2570
     9.2763   9.3234   9.3353   9.4062   9.4708   9.6470   9.6955   9.8176
     9.8338   9.8357   9.8676   9.9810   9.9916  10.0288  10.3741  10.4438
    10.5638  10.6383  10.6551  10.7508  10.7624  10.7820  10.8038  10.8824
    10.9561  11.2795  11.5191  11.5563  11.6527  11.7741  12.0226  12.0653
    12.0854  12.1744  12.2106  12.3461  12.4049  12.5537  12.8359  12.9954
    13.2070  13.2187  13.3293  13.4510  13.4977  13.5611  13.6324  13.7576
    13.8771  13.9076  13.9781  14.2183  14.4582  14.5204  14.5750  14.5945
    14.6816  14.7541  14.9869  15.0399  15.1509  15.2778  15.3199  15.3393
    15.4727  15.5688  15.6044  15.6398  15.6672  15.7008  15.7764  15.8626
    15.9365  16.0544  16.1111  16.2551  16.3474  16.4280  16.4459  16.5015
    16.5487  16.5749  16.6722  16.7051  16.8139  16.8817  16.9479  16.9922
    17.0481  17.1513  17.2195  17.2412  17.2829  17.4715  17.5069  17.5571
    17.6004  17.7045  17.7694  17.7971  18.0001  18.0864  18.1041  18.2526
    18.2939  18.3070  18.3129  18.3638  18.5301  18.5860  18.6352  18.6975
    18.7211  18.7365  18.8294  18.8782  18.9274  18.9696  19.0005  19.0687
    19.1062  19.1731  19.2182  19.3639  19.3794  19.4530  19.4620  19.4885
    19.5295  19.5546  19.6202  19.6332  19.6851  19.7321  19.7611  19.8029
    19.8204  19.8848  19.9011  19.9830  20.0248  20.0445  20.0667  20.1875
    20.1937  20.2971  20.3581  20.3804  20.4340  20.4845  20.6571  20.6963
    20.7290  20.8038  20.8928  20.9300  20.9623  20.9890  21.0609  21.1023
    21.1212  21.2051  21.2798  21.2954  21.3437  21.3709  21.4312  21.4662
    21.4833  21.4951  21.5948  21.7120  21.7631  21.9852  21.9917  22.0771
    22.1755  22.2683  22.3191  22.3979  22.4248  22.4711  22.5497  22.5913
    22.7553  22.7684  22.8705  22.9268  22.9617  23.0166  23.1219

          k =-0.5000 0.1914 0.0000 ( 29244 PWs)   bands (ev):

   -81.2305 -81.2027 -81.0760 -81.0600 -80.9450 -80.7250 -80.7246 -80.5943
   -43.1577 -43.1332 -43.1289 -43.0900 -43.0668 -43.0558 -43.0534 -43.0457
   -43.0425 -42.9999 -42.9823 -42.9731 -42.8905 -42.8543 -42.7931 -42.7917
   -42.6600 -42.6593 -42.6389 -42.5887 -42.5560 -42.4467 -42.4402 -42.3896
   -20.4542 -20.4117 -20.2443 -20.0864 -20.0167 -19.9138 -19.9007 -19.8113
   -19.7461 -19.5980 -19.4634 -19.4595 -19.3333 -19.3170 -19.3007 -19.2856
   -19.0415 -18.5560 -18.3744 -17.0339  -8.5191  -8.4949  -8.3846  -8.3783
    -8.3575  -8.3320  -8.2394  -8.2317  -8.0318  -7.6500  -7.4926  -7.3632
    -7.2721  -7.2483  -7.1431  -7.1127  -6.8457  -6.7917  -6.5756  -6.4901
    -6.4560  -6.3908  -6.3552  -6.3381  -6.1625  -6.0458  -5.9899  -5.7781
    -5.7075  -5.6079  -5.4964  -5.4220  -5.2891  -5.2746  -5.1478  -5.0997
    -4.9697  -4.9532  -4.8406  -4.7913  -4.6341  -4.5665  -4.4607  -4.3157
    -4.0447  -3.9626  -3.7484  -3.6630  -3.6075  -3.4737  -3.4379  -3.3079
    -3.2297  -3.1587  -2.8516  -2.8125  -2.7797  -2.7153  -1.4540  -1.3144
    -1.2373  -1.1006  -0.9156  -0.8533  -0.7686  -0.6634  -0.6565  -0.4864
    -0.4809  -0.2791  -0.2743  -0.0034   0.1698   0.1878   0.4142   0.4778
     0.7764   0.8254   1.0804   1.3628   1.3985   1.5692   1.8379   2.2361
     2.3592   3.6110   3.6262   3.7332   3.8307   3.9175   4.1530   4.3762
     4.4711   4.9825   5.1744   5.3837   5.3898   5.4706   5.6233   5.7636
     5.9083   6.1767   6.3333   6.3367   6.5554   6.6380   6.8154   6.8298
     7.0153   7.1198   7.2020   7.4321   7.7395   7.8154   7.9397   7.9586
     8.0252   8.2082   8.2888   8.3483   8.5077   8.7022   8.7492   8.9647
     9.0538   9.2097   9.2713   9.4493   9.5380   9.6542   9.7062   9.7787
     9.8820  10.0457  10.2326  10.4963  10.5293  10.6445  10.6639  10.7567
    10.8149  10.9241  10.9772  10.9967  11.0433  11.1095  11.1710  11.2160
    11.3749  11.5566  11.6219  11.7954  11.8676  11.9246  12.0655  12.1108
    12.3060  12.4216  12.4723  12.5361  12.7606  12.8116  12.8595  12.9221
    13.0806  13.1639  13.4557  13.4953  13.5594  13.6100  13.8371  13.8762
    13.9597  14.0262  14.2081  14.2603  14.4012  14.4420  14.5584  14.5643
    14.7459  14.7741  14.8183  14.8607  14.9021  14.9583  15.0263  15.1092
    15.1779  15.2981  15.4109  15.5063  15.5321  15.6248  15.6770  15.7491
    15.7821  15.8833  15.9954  16.0590  16.1018  16.1635  16.1869  16.2471
    16.2767  16.4196  16.4519  16.4924  16.5970  16.6342  16.7171  16.7363
    16.8357  16.8804  16.9879  17.0122  17.1185  17.1520  17.1887  17.2103
    17.2878  17.3319  17.3660  17.4624  17.5334  17.6562  17.6906  17.7519
    17.8080  17.8422  17.9717  17.9998  18.0553  18.1404  18.2451  18.2836
    18.3946  18.4076  18.4285  18.5064  18.5251  18.6560  18.7110  18.8252
    18.9296  18.9802  19.0368  19.1246  19.2282  19.2855  19.3358  19.3642
    19.4792  19.5784  19.6274  19.7612  19.7949  19.8693  19.8926  19.9843
    20.0354  20.0900  20.1642  20.2131  20.3062  20.3566  20.4599  20.4971
    20.5870  20.7399  20.7767  20.8190  20.8578  20.9749  21.0612  21.0695
    21.1686  21.2119  21.2394  21.3259  21.3988  21.4156  21.4365  21.5513
    21.5980  21.6582  21.7016  21.7834  21.8060  21.8561  21.9006  21.9498
    22.0067  22.0247  22.0684  22.1050  22.2440  22.2605  22.3643  22.3948
    22.4339  22.4896  22.5579  22.5867  22.6831  22.7453  22.7568  22.8097
    22.8246  22.9107  22.9523  23.0007  23.0643  23.1225  23.1393

          k =-0.5000-0.3828 0.0000 ( 29192 PWs)   bands (ev):

   -81.2306 -81.2028 -81.0759 -81.0599 -80.9450 -80.7249 -80.7245 -80.5943
   -43.1577 -43.1333 -43.1278 -43.0892 -43.0699 -43.0559 -43.0522 -43.0453
   -43.0390 -42.9999 -42.9822 -42.9731 -42.8906 -42.8543 -42.7931 -42.7917
   -42.6611 -42.6603 -42.6397 -42.5896 -42.5561 -42.4466 -42.4400 -42.3893
   -20.4398 -20.3997 -20.2183 -20.0148 -20.0081 -19.9308 -19.8761 -19.7995
   -19.7908 -19.6894 -19.4668 -19.4622 -19.3525 -19.3288 -19.2989 -19.2824
   -19.0381 -18.5589 -18.3746 -17.0324  -8.4682  -8.4405  -8.3841  -8.3647
    -8.3554  -8.3223  -8.2240  -8.2157  -8.0249  -7.6535  -7.4138  -7.3094
    -7.1683  -7.1446  -7.0814  -7.0291  -6.8018  -6.7823  -6.7440  -6.6798
    -6.6018  -6.4740  -6.4427  -6.3139  -6.1242  -6.0619  -5.8431  -5.8047
    -5.7743  -5.6869  -5.6040  -5.5131  -5.4510  -5.3193  -5.1194  -5.0642
    -5.0075  -4.9543  -4.8745  -4.8552  -4.5176  -4.4815  -4.4056  -4.2628
    -4.1933  -3.9416  -3.8699  -3.7450  -3.7222  -3.4668  -3.3858  -3.2752
    -3.1963  -3.1466  -2.9499  -2.7594  -2.7101  -2.6630  -1.4926  -1.4742
    -1.4209  -1.1472  -0.9840  -0.9099  -0.7840  -0.6265  -0.5537  -0.1842
    -0.1103   0.0073   0.1032   0.2617   0.2734   0.3812   0.4440   0.7605
     0.9105   0.9922   1.0053   1.3047   1.4273   1.5591   1.6417   2.2724
     2.2911   2.8825   2.8863   2.9910   3.1144   3.9303   4.2360   4.4890
     4.5220   5.1005   5.3467   5.4789   5.5205   5.8341   5.9403   6.1934
     6.2195   6.2975   6.3528   6.3843   6.4108   6.6238   6.8835   6.8897
     7.0360   7.0546   7.2633   7.3417   7.3877   7.5304   7.5653   7.8660
     7.8806   8.0081   8.0327   8.2469   8.2992   8.4883   8.6708   8.8102
     8.8164   8.8537   8.9994   9.3057   9.3383   9.7053   9.7481   9.9658
    10.0068  10.0649  10.2101  10.4201  10.5847  10.7010  10.8556  11.0745
    11.0976  11.1607  11.2466  11.3038  11.3446  11.4541  11.6528  11.6692
    11.7722  11.9652  12.1285  12.1404  12.4150  12.4337  12.5504  12.6874
    12.7405  12.8680  12.9129  13.0350  13.0633  13.1401  13.2046  13.2206
    13.3513  13.3604  13.3801  13.4407  13.4598  13.4894  13.6559  13.6958
    13.7586  13.8236  13.8424  13.9520  14.0612  14.1191  14.2242  14.2588
    14.3387  14.4489  14.5262  14.5983  14.6184  14.6960  14.7043  14.7399
    14.8079  15.0742  15.1631  15.2143  15.2712  15.3582  15.4135  15.4335
    15.5019  15.6262  15.7203  15.7878  15.7972  15.8686  16.0856  16.1184
    16.1581  16.2797  16.3141  16.3810  16.3997  16.5031  16.5695  16.7410
    16.7460  16.8057  16.8333  16.9390  17.0108  17.0710  17.1112  17.1828
    17.3125  17.3392  17.3559  17.4746  17.5601  17.6510  17.6889  17.7083
    17.7334  17.8030  17.8363  17.8479  18.0646  18.0709  18.1833  18.2074
    18.2331  18.2515  18.3044  18.3335  18.3525  18.3668  18.4145  18.5957
    18.6019  18.6158  18.6270  18.7658  18.8737  18.9467  18.9965  19.0231
    19.1579  19.3287  19.4107  19.5319  19.5604  19.7297  19.7373  19.7948
    20.0035  20.0752  20.1624  20.2497  20.2906  20.3019  20.5875  20.6360
    20.6522  20.7381  20.7944  20.8722  20.8811  20.9738  21.2436  21.2556
    21.2898  21.3370  21.3776  21.5254  21.5684  21.7187  21.7639  21.8450
    21.8517  22.0787  22.1073  22.1316  22.1654  22.2525  22.2876  22.3319
    22.3576  22.3936  22.4512  22.4910  22.5382  22.7382  22.7937  22.8712
    22.8930  22.9651  22.9833  22.9990  23.1751  23.2162  23.3105  23.3296
    23.3872  23.4391  23.4530  23.5383  23.6279  23.6756  23.7009

          k =-0.2500 0.1914 0.0000 ( 29229 PWs)   bands (ev):

   -81.2462 -81.1982 -81.0944 -81.0509 -80.9498 -80.7493 -80.7109 -80.5989
   -43.3549 -43.2778 -43.1772 -43.1634 -43.1568 -43.1093 -43.0815 -43.0424
   -43.0155 -42.9801 -42.9429 -42.8475 -42.8466 -42.7443 -42.7355 -42.7295
   -42.6877 -42.6669 -42.6273 -42.6223 -42.5707 -42.5434 -42.2617 -42.1217
   -20.7607 -20.3876 -20.3246 -20.2335 -20.0632 -19.9563 -19.8781 -19.8169
   -19.7302 -19.6057 -19.5679 -19.4752 -19.3430 -19.2252 -19.0934 -19.0637
   -18.9884 -18.4939 -18.2470 -17.0335  -9.0130  -8.8763  -8.8021  -8.7512
    -8.6641  -8.4245  -8.3620  -8.3219  -8.0245  -7.9544  -7.8787  -7.7368
    -7.5290  -7.4056  -7.2383  -7.1448  -6.8877  -6.8498  -6.7072  -6.6487
    -6.5050  -6.3597  -6.2079  -6.1185  -5.9043  -5.8781  -5.7030  -5.6271
    -5.5033  -5.4552  -5.2739  -5.2328  -5.0710  -4.9909  -4.9332  -4.8895
    -4.7719  -4.7136  -4.6508  -4.6033  -4.5223  -4.3402  -4.2871  -4.0736
    -3.9610  -3.8545  -3.8196  -3.7748  -3.7008  -3.5065  -3.4529  -3.3583
    -3.3337  -3.1273  -3.0565  -2.8694  -2.7978  -2.6947  -2.3848  -2.1710
    -2.0035  -1.3785  -1.1640  -1.0471  -0.9845  -0.6827  -0.3036  -0.1622
     0.0095   0.2141   0.4027   0.5976   0.6961   0.7300   0.9540   1.0912
     1.2683   1.3399   1.5057   1.6125   1.6805   1.8358   1.9404   2.2633
     2.4913   3.6306   3.6690   3.7755   3.8561   4.0323   4.1677   4.4022
     4.5162   4.5552   4.7789   4.9018   5.0212   5.3645   5.4202   5.7063
     5.8633   5.9627   6.1380   6.2673   6.4290   6.5573   6.7396   6.9216
     7.0697   7.2167   7.4175   7.6121   7.7272   7.8529   8.0512   8.1601
     8.3035   8.3960   8.5718   8.6882   8.7044   8.7890   9.0158   9.0691
     9.1897   9.4550   9.5223   9.6543   9.7051   9.8591   9.8994   9.9747
    10.0080  10.0720  10.1632  10.2001  10.3271  10.4228  10.4957  10.5257
    10.5711  10.6965  10.8998  10.9954  11.1183  11.1772  11.3610  11.4656
    11.5173  11.5908  11.7261  11.8234  11.9360  12.0579  12.2323  12.3378
    12.4539  12.5516  12.6312  12.6560  12.7420  12.8038  12.8841  12.9541
    12.9700  13.0943  13.2007  13.2328  13.3870  13.4760  13.5625  13.6500
    13.7540  13.7829  13.8711  13.9133  13.9570  14.0614  14.0998  14.1690
    14.2415  14.3082  14.4045  14.4325  14.5438  14.6054  14.6351  14.6684
    14.7413  14.8176  14.8651  14.9395  14.9856  15.0500  15.1024  15.1888
    15.2396  15.3105  15.4047  15.4929  15.5742  15.6521  15.6909  15.8576
    15.9583  16.1042  16.1333  16.2137  16.2940  16.3531  16.4442  16.4884
    16.5653  16.6517  16.7539  16.7979  16.8431  16.9832  17.0312  17.1279
    17.1851  17.2820  17.3357  17.3996  17.4631  17.5344  17.5872  17.7234
    17.7980  17.8480  17.9224  17.9677  18.0517  18.1013  18.1574  18.2764
    18.3592  18.3931  18.4633  18.5192  18.5611  18.6343  18.7091  18.7798
    18.8472  18.9412  19.0303  19.0976  19.1292  19.2224  19.3304  19.4488
    19.5403  19.5610  19.6727  19.7476  19.8497  19.9294  20.0158  20.0913
    20.1572  20.2507  20.3144  20.4150  20.4800  20.5457  20.5934  20.6879
    20.7177  20.8088  20.8530  20.8981  20.9248  21.0117  21.0862  21.1653
    21.2227  21.2662  21.3193  21.4220  21.4880  21.5742  21.5947  21.6715
    21.7257  21.7992  21.8545  21.9093  21.9966  22.0367  22.1203  22.1808
    22.2556  22.2870  22.3780  22.3935  22.4438  22.5018  22.5340  22.6002
    22.6774  22.7219  22.7802  22.8044  22.8415  22.9084  22.9533  23.0157
    23.1023  23.1320  23.1581  23.1863  23.2516  23.3234  23.3684

     the Fermi energy is     0.2770 ev

!    total energy              =   -2206.32955355 Ry
     Harris-Foulkes estimate   =   -2206.32955448 Ry
     estimated scf accuracy    <       0.00000100 Ry

     The total energy is the sum of the following terms:

     one-electron contribution =  -24599.96192651 Ry
     hartree contribution      =   12320.53136557 Ry
     xc contribution           =    -601.92868236 Ry
     ewald contribution        =   10672.80590672 Ry
     Hubbard energy            =       2.22382154 Ry
     smearing contrib. (-TS)   =      -0.00003851 Ry

     convergence has been achieved in  35 iterations

     Forces acting on atoms (Ry/au):


     negative rho (up, down):  0.243E+00 0.000E+00
     atom    1 type  1   force =    -0.00651817   -0.00698852    0.01105991
     atom    2 type  1   force =     0.00005771    0.00679175    0.00579759
     atom    3 type  2   force =     0.02017447   -0.00237825   -0.00110155
     atom    4 type  2   force =     0.00110588    0.00724713    0.00599156
     atom    5 type  1   force =     0.00270008    0.00209235    0.00097725
     atom    6 type  1   force =     0.00159574   -0.00291985    0.00034897
     atom    7 type  1   force =    -0.00025834   -0.00285078   -0.00185872
     atom    8 type  1   force =     0.00344909    0.00266993   -0.01508523
     atom    9 type  2   force =    -0.04222155   -0.00384709    0.00397600
     atom   10 type  2   force =     0.00001062    0.00185197    0.00227055
     atom   11 type  1   force =    -0.02044632   -0.00155308   -0.00086131
     atom   12 type  1   force =    -0.01185838    0.01363214   -0.00124563
     atom   13 type  1   force =     0.00000379   -0.00494061   -0.00198391
     atom   14 type  1   force =    -0.00377337   -0.00567511    0.00947073
     atom   15 type  1   force =    -0.00002052    0.00449329    0.00092035
     atom   16 type  2   force =    -0.02013194   -0.00231008   -0.00117569
     atom   17 type  2   force =     0.00215035    0.00692082   -0.00372159
     atom   18 type  1   force =     0.00015658    0.00207309    0.00093349
     atom   19 type  1   force =    -0.00091073   -0.00265085    0.00065982
     atom   20 type  1   force =    -0.00025257    0.00026992    0.00087055
     atom   21 type  1   force =     0.00250827    0.00228005   -0.00711845
     atom   22 type  2   force =     0.03861945   -0.00251771    0.00329591
     atom   23 type  2   force =     0.00031283   -0.00696457    0.00067466
     atom   24 type  1   force =     0.02041693   -0.00236587   -0.00091644
     atom   25 type  1   force =     0.01156194    0.01323145   -0.00132820
     atom   26 type  1   force =    -0.00094725   -0.01239212   -0.00262153
     atom   27 type  3   force =    -0.00002314   -0.00145008   -0.00088584
     atom   28 type  3   force =    -0.00001713   -0.00133003    0.00064944
     atom   29 type  3   force =     0.00183973    0.00031944    0.00003055
     atom   30 type  3   force =     0.00068344    0.00008727    0.00040249
     atom   31 type  1   force =    -0.00006041   -0.00859689   -0.00244980
     atom   32 type  1   force =     0.00011331    0.00748582   -0.00645522
     atom   33 type  3   force =    -0.00002040    0.00028507    0.00047930

     Total force =     0.028614     Total SCF correction =     0.005416
     SCF correction compared to forces is large: reduce conv_thr to get better values


     entering subroutine stress ...


     negative rho (up, down):  0.243E+00 0.000E+00
          total   stress  (Ry/bohr**3)                   (kbar)     P=  -13.01
  -0.00007317   0.00000059   0.00000218        -10.76      0.09      0.32
   0.00000059  -0.00010395  -0.00000663          0.09    -15.29     -0.98
   0.00000218  -0.00000663  -0.00008814          0.32     -0.98    -12.97


     BFGS Geometry Optimization

     number of scf cycles    =   1
     number of bfgs steps    =   0

     energy   new            =   -2206.3295535488 Ry

     new trust radius        =       0.0150852312 bohr
     new conv_thr            =       0.0000010000 Ry


ATOMIC_POSITIONS (crystal)
O0       0.000000000   0.000000000   0.369916762    0   0   1
O0       0.000000000   0.500000000   0.382323626    0   0   1
Re1      0.250000000   0.500000000   0.442108411    0   0   1
Re1      0.000000000   0.000000000   0.442557428    0   0   1
O0       0.250000000   0.780000000   0.441079153    0   0   1
O0       0.250000000   0.220000000   0.440926839    0   0   1
O0       0.000000000   0.500000000   0.497673571    0   0   1
O0       0.000000000   0.000000000   0.513754346    0   0   1
Re1      0.250000000   0.000000000   0.573677925    0   0   1
Re1      0.000000000   0.500000000   0.567464500    0   0   1
O0       0.250000000   0.720000000   0.570853119    0   0   1
O0       0.250000000   0.280000000   0.573145587    0   0   1
O0       0.000000000   0.000000000   0.625611118    0   0   1
O0       0.500000000   0.000000000   0.369915616    0   0   1
O0       0.500000000   0.500000000   0.382558038    0   0   1
Re1      0.750000000   0.500000000   0.442106958    0   0   1
Re1      0.500000000   0.000000000   0.442107061    0   0   1
O0       0.750000000   0.780000000   0.441008295    0   0   1
O0       0.750000000   0.220000000   0.441012932    0   0   1
O0       0.500000000   0.500000000   0.498017062    0   0   1
O0       0.500000000   0.000000000   0.514010486    0   0   1
Re1      0.750000000   0.000000000   0.573544596    0   0   1
Re1      0.500000000   0.500000000   0.576083223    0   0   1
O0       0.750000000   0.720000000   0.570852039    0   0   1
O0       0.750000000   0.280000000   0.573133969    0   0   1
O0       0.500000000   0.000000000   0.624608621    0   0   1
H2      -0.000212285   0.625440385   0.365592639
H2       0.499638308   0.623699459   0.365062728
H2       0.168021632   0.025194147   0.355090599
H2       0.669817474   0.022306597   0.355447888
O0       0.499624036   0.525890137   0.641311987
O0       0.500301187   0.321255875   0.680613485
H2       0.499947986   0.396371549   0.711559394


     Check: negative starting charge=   -0.236968
     NEW-OLD atomic charge density approx. for the potential

     Check: negative/imaginary core charge=   -0.000003    0.000000
     Check: negative starting charge=   -0.236672

     negative rho (up, down):  0.242E+00 0.000E+00
 Atomic wfc used for LDA+U Projector are NOT orthogonalized

     total cpu time spent up to now is    10681.4 secs

     per-process dynamical memory:   452.9 Mb

     Self-consistent Calculation

     iteration #  1     ecut=    40.00 Ry     beta=0.70
     Davidson diagonalization with overlap
     ethr =  1.00E-06,  avg # of iterations =  3.0
 --- enter write_ns ---
 LDA+U parameters:
U( 2)     =  3.50000000
alpha( 2) =  0.00000000
atom    3   Tr[ns(na)] =   6.57481
    eigenvalues: 
  0.545  0.572  0.578  0.773  0.820
    eigenvectors:
  0.008  0.312  0.015  0.665  0.001
  0.985  0.014  0.000  0.001  0.001
  0.001  0.093  0.886  0.004  0.016
  0.006  0.581  0.085  0.328  0.001
  0.001  0.001  0.014  0.002  0.982
    occupations:
  0.706 -0.007  0.012 -0.094 -0.001
 -0.007  0.545 -0.000  0.001 -0.007
  0.012 -0.000  0.583 -0.007  0.030
 -0.094  0.001 -0.007  0.638 -0.001
 -0.001 -0.007  0.030 -0.001  0.816
atom    4   Tr[ns(na)] =   6.55953
    eigenvalues: 
  0.569  0.605  0.624  0.700  0.782
    eigenvectors:
  0.000  0.985  0.000  0.001  0.013
  0.000  0.001  0.016  0.983  0.000
  0.000  0.000  0.984  0.016  0.000
  0.000  0.013  0.000  0.000  0.986
  0.999  0.000  0.000  0.000  0.000
    occupations:
  0.607  0.004  0.000 -0.020  0.001
  0.004  0.699  0.009 -0.000 -0.002
  0.000  0.009  0.625  0.000 -0.000
 -0.020 -0.000  0.000  0.779 -0.000
  0.001 -0.002 -0.000 -0.000  0.569
atom    9   Tr[ns(na)] =   6.55807
    eigenvalues: 
  0.597  0.606  0.611  0.722  0.744
    eigenvectors:
  0.241  0.004  0.000  0.022  0.734
  0.000  0.016  0.983  0.000  0.000
[...]
    21.4886  21.5740  21.6631  21.6952  21.7779  21.9656  22.0021  22.0884
    22.2203  22.3169  22.3243  22.3974  22.4389  22.4748  22.5351  22.6394
    22.7223  22.8257  22.8955  22.9236  22.9663  23.0782  23.1268

          k =-0.5000 0.1914 0.0000 ( 29244 PWs)   bands (ev):

   -80.9545 -80.9452 -80.7600 -80.7312 -80.5235 -80.4228 -80.4220 -80.2785
   -42.9153 -42.8903 -42.8486 -42.8367 -42.7901 -42.7647 -42.7443 -42.7247
   -42.7070 -42.6854 -42.6458 -42.5694 -42.5254 -42.5193 -42.5081 -42.4918
   -42.3507 -42.3499 -42.3084 -42.2407 -42.1483 -42.1406 -42.1359 -42.0967
   -20.8829 -20.2632 -20.1587 -19.9578 -19.8193 -19.7685 -19.6178 -19.6114
   -19.5270 -19.4791 -19.1819 -19.1755 -19.1107 -19.0519 -19.0469 -19.0341
   -18.9615 -18.2441 -18.1050 -16.8930  -8.2933  -8.2454  -8.1398  -8.1171
    -8.0632  -8.0571  -8.0014  -7.9868  -7.7234  -7.5385  -7.2343  -7.2184
    -7.0569  -6.9799  -6.9305  -6.9000  -6.8262  -6.5570  -6.5211  -6.2355
    -6.2320  -6.1193  -6.0963  -6.0535  -6.0105  -5.8704  -5.7701  -5.5856
    -5.4551  -5.3653  -5.3396  -5.2614  -5.1575  -5.0563  -5.0411  -4.8553
    -4.8294  -4.6788  -4.5777  -4.5487  -4.5070  -4.4061  -4.3127  -4.0888
    -3.8268  -3.7275  -3.5996  -3.3967  -3.3320  -3.2087  -3.1773  -3.0584
    -2.9792  -2.9187  -2.6892  -2.6210  -2.5511  -2.4977  -1.3191  -1.1428
    -1.0293  -0.9481  -0.8119  -0.5997  -0.4896  -0.4124  -0.3905  -0.2391
    -0.2152  -0.0187  -0.0021   0.2685   0.4506   0.5048   0.7239   0.7645
     1.0705   1.1145   1.3015   1.6480   1.6636   1.9770   2.1127   2.4944
     3.0747   3.8849   3.9123   4.0892   4.1343   4.1940   4.4237   4.6731
     4.7591   5.2213   5.4295   5.6077   5.6255   5.7697   5.8037   5.9171
     6.0383   6.1140   6.3319   6.3446   6.4875   6.7681   6.9042   6.9674
     7.0831   7.1721   7.2541   7.4691   7.7351   7.7546   7.8660   7.9350
     8.0293   8.1910   8.2459   8.3014   8.5436   8.6708   8.7694   8.9834
     9.0884   9.3442   9.4201   9.5166   9.5917   9.7154   9.7402   9.7939
     9.9932  10.1531  10.3740  10.4506  10.5808  10.7319  10.7721  10.8720
    10.8963  10.9300  10.9467  11.0368  11.1015  11.1371  11.2036  11.2551
    11.3679  11.5441  11.6996  11.8362  11.9072  12.0046  12.1332  12.1681
    12.3447  12.4085  12.4468  12.5036  12.7976  12.8392  12.9624  13.0137
    13.2096  13.2608  13.4837  13.5128  13.5785  13.6686  13.8664  13.9276
    14.0207  14.0820  14.3297  14.3860  14.4727  14.6419  14.7641  14.8195
    14.8276  14.8754  14.9552  14.9935  15.0297  15.0588  15.1185  15.1954
    15.2645  15.3491  15.4485  15.4873  15.5333  15.6357  15.7287  15.8163
    15.8670  15.9459  16.0533  16.0961  16.1149  16.2062  16.2504  16.3167
    16.3777  16.4295  16.5402  16.5621  16.6451  16.7009  16.7750  16.7996
    16.8246  16.9166  16.9669  17.0449  17.0881  17.1545  17.2160  17.2455
    17.3509  17.3922  17.4143  17.4835  17.6034  17.6776  17.7482  17.7870
    17.8265  17.9357  18.0160  18.0400  18.0929  18.1431  18.2466  18.2587
    18.3570  18.3812  18.4049  18.4680  18.4834  18.6442  18.6844  18.7718
    18.9035  18.9237  19.0750  19.1697  19.2679  19.2954  19.3414  19.3912
    19.4749  19.5368  19.6442  19.7616  19.7694  19.8431  19.9386  19.9695
    20.0546  20.1141  20.1832  20.2741  20.3401  20.3667  20.4657  20.5044
    20.6604  20.7630  20.8627  20.8943  20.8999  20.9774  21.0482  21.0755
    21.1715  21.2222  21.2348  21.2949  21.3219  21.4549  21.4665  21.5159
    21.5839  21.6407  21.7170  21.7315  21.7661  21.8233  21.8932  21.9171
    21.9730  22.0000  22.0546  22.1009  22.1900  22.2865  22.3261  22.3643
    22.4261  22.5507  22.5894  22.5975  22.7048  22.7614  22.7861  22.8184
    22.8325  22.9439  22.9654  23.0262  23.0600  23.1491  23.2071

          k =-0.5000-0.3828 0.0000 ( 29192 PWs)   bands (ev):

   -80.9545 -80.9453 -80.7599 -80.7311 -80.5235 -80.4227 -80.4219 -80.2785
   -42.9154 -42.8903 -42.8475 -42.8358 -42.7899 -42.7648 -42.7451 -42.7258
   -42.7034 -42.6855 -42.6458 -42.5694 -42.5254 -42.5194 -42.5081 -42.4918
   -42.3517 -42.3509 -42.3092 -42.2408 -42.1481 -42.1404 -42.1366 -42.0965
   -20.8815 -20.2544 -20.1478 -19.9136 -19.7893 -19.7581 -19.6458 -19.5873
   -19.5247 -19.5087 -19.1918 -19.1903 -19.1751 -19.0604 -19.0474 -19.0343
   -18.9516 -18.2459 -18.1052 -16.8913  -8.2545  -8.1898  -8.1189  -8.1069
    -8.0964  -8.0617  -7.9761  -7.9472  -7.7162  -7.5247  -7.1762  -7.1544
    -7.0065  -6.8756  -6.8453  -6.8147  -6.7385  -6.5553  -6.5074  -6.4820
    -6.4647  -6.3197  -6.1832  -6.0493  -5.9664  -5.8051  -5.6094  -5.5811
    -5.5358  -5.4412  -5.4221  -5.3392  -5.2695  -5.0873  -5.0507  -4.9176
    -4.7634  -4.7277  -4.6484  -4.5765  -4.4796  -4.4137  -4.2208  -4.0077
    -3.9312  -3.6927  -3.6912  -3.4851  -3.4320  -3.1930  -3.1353  -3.0214
    -2.9507  -2.8914  -2.7595  -2.6881  -2.4625  -2.4186  -1.3447  -1.1926
    -1.1704  -1.1276  -0.8576  -0.6912  -0.5474  -0.3926  -0.2830   0.0748
     0.1761   0.2777   0.3305   0.5394   0.5509   0.7020   0.7779   1.0444
     1.1502   1.3002   1.3093   1.6248   1.7170   1.8623   1.8794   2.5505
     3.0310   3.1601   3.1728   3.3480   3.4197   4.2083   4.5050   4.7835
     4.8126   5.3523   5.5726   5.7399   5.7901   5.9291   6.0917   6.1920
     6.4651   6.4729   6.5510   6.5656   6.6065   6.6679   6.8657   6.8700
     6.9581   6.9827   7.2012   7.2217   7.2671   7.4437   7.5320   7.7747
     7.7837   8.0005   8.0740   8.3454   8.3657   8.6391   8.7069   8.7952
     8.9080   8.9175   9.0944   9.3320   9.4493   9.7237   9.7919   9.9624
    10.1209  10.2141  10.2848  10.4319  10.6974  10.8239  10.9991  11.2093
    11.2415  11.3103  11.3587  11.4557  11.5129  11.5760  11.7047  11.7099
    11.7697  12.0418  12.2331  12.2848  12.3588  12.5282  12.5878  12.6789
    12.8078  12.9115  12.9257  13.0199  13.0308  13.1253  13.1495  13.1583
    13.2841  13.3665  13.3883  13.4345  13.4884  13.5551  13.6439  13.6671
    13.7977  13.8161  13.8650  13.9340  14.1673  14.1891  14.3103  14.3408
    14.3548  14.3859  14.5069  14.7196  14.7449  14.8182  14.8309  14.9016
    15.0228  15.1382  15.2104  15.2491  15.2964  15.4207  15.4698  15.5683
    15.5809  15.7004  15.7810  15.8178  15.8313  15.9837  16.1475  16.2276
    16.2328  16.3483  16.4165  16.4645  16.4856  16.5339  16.6390  16.7941
    16.8151  16.8930  16.9016  16.9272  17.0707  17.0958  17.1360  17.1823
    17.3086  17.3341  17.4107  17.4341  17.5332  17.6103  17.6363  17.6737
    17.7235  17.7771  17.8107  17.8750  18.0843  18.1311  18.1705  18.2447
    18.3139  18.3491  18.3543  18.3572  18.4184  18.4567  18.5268  18.5476
    18.6027  18.6265  18.6391  18.7091  18.8948  18.9702  18.9730  19.0881
    19.1744  19.3139  19.4836  19.5244  19.5465  19.7194  19.7444  19.8526
    20.0183  20.0460  20.1623  20.2165  20.2635  20.3134  20.5459  20.6616
    20.7158  20.7421  20.7942  20.9220  20.9465  20.9616  21.2473  21.2674
    21.3309  21.3553  21.4111  21.6169  21.7092  21.7339  21.8549  21.8994
    21.9929  22.0826  22.1431  22.2261  22.2667  22.2895  22.3509  22.3749
    22.4353  22.4969  22.5557  22.5989  22.6185  22.7916  22.8641  22.9580
    22.9906  23.0189  23.0359  23.1223  23.1971  23.2461  23.3153  23.3631
    23.4015  23.4745  23.4868  23.5816  23.6379  23.6620  23.6798

          k =-0.2500 0.1914 0.0000 ( 29229 PWs)   bands (ev):

   -80.9756 -80.9354 -80.7751 -80.7255 -80.5290 -80.4470 -80.4084 -80.2826
   -43.0797 -42.9550 -42.9348 -42.8873 -42.8664 -42.8252 -42.7821 -42.7637
   -42.6953 -42.6207 -42.5711 -42.5249 -42.4995 -42.4595 -42.4557 -42.4301
   -42.3788 -42.3197 -42.3177 -42.2973 -42.2394 -42.1208 -41.9574 -41.8229
   -20.8873 -20.5169 -20.1519 -20.0883 -19.9351 -19.7898 -19.6816 -19.5953
   -19.5510 -19.4650 -19.3292 -19.1933 -19.0673 -18.9801 -18.9316 -18.8142
   -18.7842 -18.2032 -17.9741 -16.8923  -8.7501  -8.5916  -8.5489  -8.5131
    -8.4628  -8.1313  -8.1188  -8.0654  -7.7557  -7.6688  -7.6081  -7.4925
    -7.4152  -7.3120  -7.0608  -6.9485  -6.7760  -6.6150  -6.4930  -6.3801
    -6.3528  -6.1902  -6.0276  -5.9230  -5.7586  -5.6217  -5.5581  -5.4635
    -5.3485  -5.2319  -5.1301  -5.0448  -4.8305  -4.7866  -4.7238  -4.6108
    -4.5552  -4.5115  -4.4687  -4.3667  -4.2914  -4.1769  -4.0576  -3.8697
    -3.7234  -3.6308  -3.5934  -3.5326  -3.4824  -3.3142  -3.2008  -3.1084
    -3.0834  -2.9329  -2.8322  -2.6398  -2.5774  -2.4555  -2.1141  -1.8825
    -1.7508  -1.4217  -1.0542  -0.8403  -0.8030  -0.5490  -0.0491   0.1199
     0.3210   0.4945   0.7078   0.9186   0.9882   1.0295   1.2955   1.3740
     1.5495   1.6182   1.7815   1.8846   1.9682   2.1153   2.3127   2.5995
     3.0967   3.9103   3.9231   4.1036   4.1375   4.3352   4.4696   4.6734
     4.8033   4.8304   5.0485   5.1055   5.1866   5.3244   5.4233   5.8611
     6.0142   6.0704   6.2762   6.4855   6.6500   6.6987   6.8164   6.8950
     7.0965   7.2670   7.4389   7.5546   7.7400   7.8387   8.0269   8.1568
     8.3487   8.5291   8.6614   8.6991   8.7972   8.8723   9.0839   9.1597
     9.2553   9.4368   9.5266   9.6498   9.7862   9.8370   9.9135  10.0032
    10.0667  10.0899  10.1877  10.3089  10.4113  10.5011  10.5943  10.6472
    10.6651  10.7570  10.9573  11.0447  11.1734  11.2244  11.4435  11.5174
    11.5603  11.6577  11.7824  11.8323  12.0529  12.0606  12.2727  12.3790
    12.5251  12.5871  12.6354  12.6814  12.7399  12.7919  12.9047  12.9602
    13.0781  13.1365  13.2304  13.2932  13.4135  13.5532  13.6206  13.7132
    13.7423  13.8583  13.9155  13.9671  14.0434  14.1033  14.1765  14.2555
    14.3471  14.3876  14.4494  14.4903  14.5240  14.6333  14.6621  14.7554
    14.8145  14.8349  14.9305  14.9761  15.0485  15.0761  15.1355  15.1865
    15.2730  15.4031  15.4360  15.4569  15.6277  15.6978  15.7835  15.9008
    16.0067  16.0980  16.1647  16.2419  16.3377  16.3742  16.4427  16.5008
    16.5823  16.7174  16.7789  16.8551  16.9197  17.0057  17.0590  17.1817
    17.2525  17.3204  17.3669  17.3839  17.4931  17.5487  17.6252  17.7004
    17.8004  17.8140  17.9009  18.0066  18.0548  18.1084  18.2549  18.3442
    18.3690  18.4458  18.5055  18.5398  18.6625  18.7053  18.7353  18.8271
    18.8528  18.9481  19.0961  19.1295  19.1859  19.2528  19.3713  19.4587
    19.5309  19.6143  19.6853  19.7821  19.8312  19.9397  20.0292  20.1262
    20.2164  20.3180  20.3980  20.4528  20.5046  20.5948  20.6082  20.6918
    20.7648  20.8519  20.8725  20.9155  20.9640  21.0030  21.1023  21.1715
    21.2243  21.2915  21.3244  21.4113  21.5185  21.5787  21.6372  21.7180
    21.7548  21.8327  21.8816  21.9501  22.0088  22.0621  22.1103  22.2001
    22.2624  22.3273  22.3528  22.4167  22.4515  22.5060  22.5645  22.6184
    22.6786  22.7130  22.7693  22.8310  22.8596  22.9016  23.0152  23.0375
    23.1076  23.1336  23.1979  23.2421  23.2974  23.3542  23.3950

     the Fermi energy is     0.5715 ev

!    total energy              =   -2206.33198017 Ry
     Harris-Foulkes estimate   =   -2206.33198017 Ry
     estimated scf accuracy    <          6.1E-09 Ry

     The total energy is the sum of the following terms:

     one-electron contribution =  -24703.52399922 Ry
     hartree contribution      =   12374.51630868 Ry
     xc contribution           =    -602.05396932 Ry
     ewald contribution        =   10722.51300722 Ry
     Hubbard energy            =       2.21692170 Ry
     smearing contrib. (-TS)   =      -0.00024923 Ry

     convergence has been achieved in  14 iterations

     Forces acting on atoms (Ry/au):


     negative rho (up, down):  0.242E+00 0.000E+00
     atom    1 type  1   force =    -0.00354687   -0.00618206    0.00021222
     atom    2 type  1   force =     0.00004308    0.00378916   -0.00049602
     atom    3 type  2   force =     0.02174135   -0.00230971   -0.00001186
     atom    4 type  2   force =     0.00045443    0.00680709   -0.00067559
     atom    5 type  1   force =     0.00283986    0.00340072    0.00031356
     atom    6 type  1   force =     0.00156936   -0.00441294    0.00029590
     atom    7 type  1   force =    -0.00042841   -0.00254950   -0.00023541
     atom    8 type  1   force =     0.00379795    0.00231714   -0.00069471
     atom    9 type  2   force =    -0.03742276   -0.00444558   -0.00006671
     atom   10 type  2   force =    -0.00019968    0.00170625   -0.00037448
     atom   11 type  1   force =    -0.01953120    0.00047583    0.00027550
     atom   12 type  1   force =    -0.01242272    0.01077623   -0.00044563
     atom   13 type  1   force =     0.00007484   -0.00382054    0.00039226
     atom   14 type  1   force =    -0.00293415   -0.00565512   -0.00011863
     atom   15 type  1   force =    -0.00000920    0.00420432   -0.00030613
     atom   16 type  2   force =    -0.02135681   -0.00274857   -0.00001582
     atom   17 type  2   force =     0.00198977    0.00694034   -0.00001268
     atom   18 type  1   force =     0.00018291    0.00346954    0.00029463
     atom   19 type  1   force =    -0.00095206   -0.00416893    0.00027607
     atom   20 type  1   force =    -0.00068793    0.00092855   -0.00006625
     atom   21 type  1   force =     0.00227584    0.00178042   -0.00045482
     atom   22 type  2   force =     0.03351210   -0.00170370    0.00021258
     atom   23 type  2   force =     0.00100832   -0.00843716    0.00032978
     atom   24 type  1   force =     0.01899129   -0.00138134    0.00034200
     atom   25 type  1   force =     0.01246753    0.00966776   -0.00024915
     atom   26 type  1   force =    -0.00078126   -0.01065681    0.00014182
     atom   27 type  3   force =     0.00000615    0.00034244    0.00017216
     atom   28 type  3   force =     0.00000318    0.00005815   -0.00036914
     atom   29 type  3   force =    -0.00058388   -0.00013298    0.00023480
     atom   30 type  3   force =    -0.00027842    0.00003406    0.00023797
     atom   31 type  1   force =    -0.00023363    0.00088164    0.00019039
     atom   32 type  1   force =     0.00039514    0.00055320    0.00021569
     atom   33 type  3   force =     0.00001590    0.00047207    0.00045569

     Total force =     0.002350     Total SCF correction =     0.000389
     SCF correction compared to forces is large: reduce conv_thr to get better values


     entering subroutine stress ...


     negative rho (up, down):  0.242E+00 0.000E+00
          total   stress  (Ry/bohr**3)                   (kbar)     P=  -10.43
  -0.00007373  -0.00000025   0.00000234        -10.85     -0.04      0.34
  -0.00000025  -0.00009499  -0.00000638         -0.04    -13.97     -0.94
   0.00000234  -0.00000638  -0.00004394          0.34     -0.94     -6.46


     bfgs converged in  17 scf cycles and  16 bfgs steps
     (criteria: energy < 0.10E-03, force < 0.10E-02)

     End of BFGS Geometry Optimization

     Final energy   =   -2206.3319801690 Ry
Begin final coordinates

ATOMIC_POSITIONS (crystal)
O0       0.000000000   0.000000000   0.370809585    0   0   1
O0       0.000000000   0.500000000   0.382885392    0   0   1
Re1      0.250000000   0.500000000   0.442239231    0   0   1
Re1      0.000000000   0.000000000   0.443167557    0   0   1
O0       0.250000000   0.780000000   0.441523920    0   0   1
O0       0.250000000   0.220000000   0.441309974    0   0   1
O0       0.000000000   0.500000000   0.497761468    0   0   1
O0       0.000000000   0.000000000   0.513913774    0   0   1
Re1      0.250000000   0.000000000   0.573969154    0   0   1
Re1      0.000000000   0.500000000   0.567576907    0   0   1
O0       0.250000000   0.720000000   0.571254052    0   0   1
O0       0.250000000   0.280000000   0.573201716    0   0   1
O0       0.000000000   0.000000000   0.625955668    0   0   1
O0       0.500000000   0.000000000   0.370582637    0   0   1
O0       0.500000000   0.500000000   0.382617418    0   0   1
Re1      0.750000000   0.500000000   0.442231929    0   0   1
Re1      0.500000000   0.000000000   0.442703524    0   0   1
O0       0.750000000   0.780000000   0.441473690    0   0   1
O0       0.750000000   0.220000000   0.441428140    0   0   1
O0       0.500000000   0.500000000   0.498001473    0   0   1
O0       0.500000000   0.000000000   0.514211692    0   0   1
Re1      0.750000000   0.000000000   0.573682504    0   0   1
Re1      0.500000000   0.500000000   0.574456226    0   0   1
O0       0.750000000   0.720000000   0.571150482    0   0   1
O0       0.750000000   0.280000000   0.573136657    0   0   1
O0       0.500000000   0.000000000   0.625091680    0   0   1
H2      -0.000257840   0.623206675   0.365218616
H2       0.499557550   0.624596022   0.365575924
H2       0.168429738   0.024390931   0.356211159
H2       0.669957108   0.021907642   0.356308477
O0       0.498879587   0.524622830   0.641800443
O0       0.502020966   0.337092460   0.675562354
H2       0.499856364   0.404045889   0.707716578
End final coordinates



     init_run     :    147.15s CPU    149.85s WALL (       1 calls)
     electrons    :  78868.76s CPU  81146.49s WALL (      17 calls)
     update_pot   :    339.07s CPU    347.54s WALL (      16 calls)
     forces       :   3368.00s CPU   3449.28s WALL (      17 calls)
     stress       :  17066.22s CPU  17468.73s WALL (      17 calls)

     Called by init_run:
     wfcinit      :     41.49s CPU     42.84s WALL (       1 calls)
     potinit      :      7.52s CPU      7.67s WALL (       1 calls)

     Called by electrons:
     c_bands      :  34084.52s CPU  35139.72s WALL (     315 calls)
     sum_band     :  16994.08s CPU  17526.87s WALL (     315 calls)
     v_of_rho     :    328.20s CPU    347.06s WALL (     330 calls)
     newd         :  28658.13s CPU  28955.55s WALL (     330 calls)
     mix_rho      :     58.66s CPU     60.35s WALL (     315 calls)

     Called by c_bands:
     init_us_2    :    107.00s CPU    108.70s WALL (    2556 calls)
     cegterg      :  33371.00s CPU  34255.56s WALL (     945 calls)

     Called by *egterg:
     h_psi        :  19121.38s CPU  19675.86s WALL (    2664 calls)
     s_psi        :   2953.53s CPU   2989.24s WALL (    3225 calls)
     g_psi        :     39.91s CPU     40.07s WALL (    1716 calls)
     cdiaghg      :   3150.34s CPU   3165.82s WALL (    2607 calls)

     Called by h_psi:
     add_vuspsi   :   2333.85s CPU   2365.53s WALL (    2664 calls)
     vhpsi        :   1811.82s CPU   1843.84s WALL (    2664 calls)

     General routines
     calbec       :   6392.05s CPU   6491.83s WALL (   23997 calls)
     fft          :    497.64s CPU    664.32s WALL (    5661 calls)
     ffts         :      5.63s CPU      5.78s WALL (     645 calls)
     fftw         :  10827.04s CPU  11403.79s WALL ( 1802747 calls)
     interpolate  :     47.72s CPU     48.43s WALL (     645 calls)
     davcio       :      0.30s CPU     45.14s WALL (    3015 calls)

     Parallel routines
     fft_scatter  :   4003.26s CPU   4702.11s WALL ( 1809053 calls)
     Hubbard U routines
     new_ns       :    434.49s CPU    454.75s WALL (     315 calls)
     vhpsi        :   1811.82s CPU   1843.84s WALL (    2664 calls)
     force_hub    :    763.22s CPU    776.30s WALL (      17 calls)
     stres_hub    :   8369.38s CPU   8501.89s WALL (      17 calls)

     PWSCF        :     1d    4h10m CPU        1d    4h57m WALL


   This run was terminated on:  16:54:54   2Jun2014            

=------------------------------------------------------------------------------=
   JOB DONE.
=------------------------------------------------------------------------------=
---------------------------------------
Running PBS batch system epilogue script
Job id: 373382.audhumbla.fysik.dtu.dk
Username: zhonxu
Groupname: campgst
Jobname: ReO2/Eads-2-layers/OOH-U-3.5
Sessionid: 11521
Resources limits: neednodes=2:ppn=8:xeon8,nodes=2:ppn=8:xeon8,walltime=48:00:00
Resources used: cput=461:46:35,mem=17699172kb,vmem=21421568kb,walltime=28:57:05
Queuename: verylong
Accounting:
This job has allocated the following 16 nodes:
d051 d051 d051 d051 d051 d051 d051 d051 d001 d001 d001 d001 d001 d001 d001 d001
Finished epilogue job 373382.audhumbla.fysik.dtu.dk for zhonxu
