
     Program PWSCF v.5.0.2 (svn rev. 9656) starts on 19Mar2014 at  9:30:46 

     This program is part of the open-source Quantum ESPRESSO suite
     for quantum simulation of materials; please cite
         "P. Giannozzi et al., J. Phys.:Condens. Matter 21 395502 (2009);
          URL http://www.quantum-espresso.org", 
     in publications or presentations arising from this work. More details at
     http://www.quantum-espresso.org/quote.php

     Parallel version (MPI), running on    16 processors
     R & G space division:  proc/nbgrp/npool/nimage =      16

     Current dimensions of program PWSCF are:
     Max number of different atomic species (ntypx) = 10
     Max number of k-points (npk) =  40000
     Max angular momentum in pseudopotentials (lmaxx) =  3
     Reading input from pwscf.in
Warning: card &CELL ignored
Warning: card / ignored

     Subspace diagonalization in iterative solution of the eigenvalue problem:
     a serial algorithm will be used


     Parallelization info
     --------------------
     sticks:   dense  smooth     PW     G-vecs:    dense   smooth      PW
     Min         346     110     31                82658    14945    2221
     Max         347     111     32                82677    14980    2230
     Sum        5547    1771    497              1322643   239441   35575



     bravais-lattice index     =            0
     lattice parameter (alat)  =      11.2250  a.u.
     unit-cell volume          =    7005.5484 (a.u.)^3
     number of atoms/cell      =           31
     number of atomic types    =            3
     number of electrons       =       214.00
     number of Kohn-Sham states=          309
     kinetic-energy cutoff     =      40.0000  Ry
     charge density cutoff     =     500.0000  Ry
     convergence threshold     =      1.0E-06
     mixing beta               =       0.7000
     number of iterations used =            8  plain     mixing
     Exchange-correlation      = SLA  PW   PBE  PBE ( 1 4 3 4 0)
     EXX-fraction              =        0.00
     nstep                     =           50


     celldm(1)=  11.224973  celldm(2)=   0.000000  celldm(3)=   0.000000
     celldm(4)=   0.000000  celldm(5)=   0.000000  celldm(6)=   0.000000

     crystal axes: (cart. coord. in units of alat)
               a(1) = (   1.000000   0.000000   0.000000 )  
               a(2) = (   0.000000   1.107086   0.000000 )  
               a(3) = (   0.000000   0.000000   4.474090 )  

     reciprocal axes: (cart. coord. in units 2 pi/alat)
               b(1) = (  1.000000  0.000000  0.000000 )  
               b(2) = (  0.000000  0.903272  0.000000 )  
               b(3) = (  0.000000  0.000000  0.223509 )  


     PseudoPot. # 1 for O  read from file:
     /home/camp/zhonxu/pseudo/o_pbe_v1.01.uspp.F.UPF
     MD5 check sum: 2bcb18d16ea4b960afae9ec6d52f22d2
     Pseudo is Ultrasoft + core correction, Zval =  6.0
     Generated by new atomic code, or converted to UPF format
     Using radial grid of  737 points,  5 beta functions with: 
                l(1) =   0
                l(2) =   0
                l(3) =   1
                l(4) =   1
                l(5) =   2
     Q(r) pseudized with  8 coefficients,  rinner =    0.900   0.900   0.900
                                                       0.900   0.900

     PseudoPot. # 2 for Ti read from file:
     /home/camp/zhonxu/pseudo/ti_pbe_v1.uspp.F.UPF
     MD5 check sum: bcc8f6961b3b91f0cac3ca967d22d0fb
     Pseudo is Ultrasoft + core correction, Zval = 12.0
     Generated by new atomic code, or converted to UPF format
     Using radial grid of  851 points,  6 beta functions with: 
                l(1) =   0
                l(2) =   0
                l(3) =   1
                l(4) =   1
                l(5) =   2
                l(6) =   2
     Q(r) pseudized with  6 coefficients,  rinner =    1.000   1.000   1.000
                                                       1.000   1.000

     PseudoPot. # 3 for H  read from file:
     /home/camp/zhonxu/pseudo/h_pbe_v1.uspp.F.UPF
     MD5 check sum: 3408e3ff4ec8b0a4e358431e7e038a48
     Pseudo is Ultrasoft, Zval =  1.0
     Generated by new atomic code, or converted to UPF format
     Using radial grid of  615 points,  2 beta functions with: 
                l(1) =   0
                l(2) =   0
     Q(r) pseudized with  8 coefficients,  rinner =    0.700

     atomic species   valence    mass     pseudopotential
        O0             6.00    15.99940     O ( 1.00)
        Ti1           12.00    47.88000     Ti( 1.00)
        H2             1.00     1.00794     H ( 1.00)

     Starting magnetic structure 
     atomic species   magnetization
        O0           0.000
        Ti1          0.000
        H2           0.000

     No symmetry found



   Cartesian axes

     site n.     atom                  positions (alat units)
         1           O0  tau(   1) = (   0.0000000   0.0000000   1.6989461  )
         2           O0  tau(   2) = (   0.0000000   0.5535432   1.7901728  )
         3           Ti1 tau(   3) = (   0.2500000   0.5535432   2.0162933  )
         4           Ti1 tau(   4) = (   0.0000000   0.0000000   2.0248388  )
         5           O0  tau(   5) = (   0.2500000   0.8967400   2.0178145  )
         6           O0  tau(   6) = (   0.2500000   0.2103464   2.0226912  )
         7           O0  tau(   7) = (   0.0000000   0.5535432   2.2326603  )
         8           O0  tau(   8) = (   0.0000000   0.0000000   2.3559662  )
         9           Ti1 tau(   9) = (   0.2500000   0.0000000   2.5995804  )
        10           Ti1 tau(  10) = (   0.0000000   0.5535432   2.5483968  )
        11           O0  tau(  11) = (   0.2500000   0.7638896   2.5964932  )
        12           O0  tau(  12) = (   0.2500000   0.3431968   2.5965380  )
        13           O0  tau(  13) = (   0.0000000   0.0000000   2.7842708  )
        14           O0  tau(  14) = (   0.5000000   0.0000000   1.6989461  )
        15           O0  tau(  15) = (   0.5000000   0.5535432   1.7901728  )
        16           Ti1 tau(  16) = (   0.7500000   0.5535432   2.0162933  )
        17           Ti1 tau(  17) = (   0.5000000   0.0000000   2.0248388  )
        18           O0  tau(  18) = (   0.7500000   0.8967400   2.0178145  )
        19           O0  tau(  19) = (   0.7500000   0.2103464   2.0226912  )
        20           O0  tau(  20) = (   0.5000000   0.5535432   2.2326603  )
        21           O0  tau(  21) = (   0.5000000   0.0000000   2.3559662  )
        22           Ti1 tau(  22) = (   0.7500000   0.0000000   2.5995804  )
        23           Ti1 tau(  23) = (   0.5000000   0.5535432   2.5483968  )
        24           O0  tau(  24) = (   0.7500000   0.7638896   2.5964932  )
        25           O0  tau(  25) = (   0.7500000   0.3431968   2.5965380  )
        26           O0  tau(  26) = (   0.5000000   0.0000000   2.7842708  )
        27           H2  tau(  27) = (  -0.0005400   0.6991915   1.7063283  )
        28           H2  tau(  28) = (   0.4994600   0.6991915   1.7063283  )
        29           H2  tau(  29) = (   0.1501800   0.0252084   1.6321479  )
        30           H2  tau(  30) = (   0.6501800   0.0252084   1.6321479  )
        31           O0  tau(  31) = (   0.5000000   0.5535432   2.7505809  )

     number of k points=    20  Methfessel-Paxton smearing, width (Ry)=  0.0100
                       cart. coord. in units 2pi/alat
        k(    1) = (   0.0000000   0.0000000   0.0000000), wk =   0.0625000
        k(    2) = (   0.0000000   0.2258180   0.0000000), wk =   0.1250000
        k(    3) = (   0.0000000  -0.4516359   0.0000000), wk =   0.0625000
        k(    4) = (   0.2500000   0.0000000   0.0000000), wk =   0.1250000
        k(    5) = (   0.2500000   0.2258180   0.0000000), wk =   0.1250000
        k(    6) = (   0.2500000  -0.4516359   0.0000000), wk =   0.1250000
        k(    7) = (  -0.5000000   0.0000000   0.0000000), wk =   0.0625000
        k(    8) = (  -0.5000000   0.2258180   0.0000000), wk =   0.1250000
        k(    9) = (  -0.5000000  -0.4516359   0.0000000), wk =   0.0625000
        k(   10) = (  -0.2500000   0.2258180   0.0000000), wk =   0.1250000
        k(   11) = (   0.0000000   0.0000000   0.0000000), wk =   0.0625000
        k(   12) = (   0.0000000   0.2258180   0.0000000), wk =   0.1250000
        k(   13) = (   0.0000000  -0.4516359   0.0000000), wk =   0.0625000
        k(   14) = (   0.2500000   0.0000000   0.0000000), wk =   0.1250000
        k(   15) = (   0.2500000   0.2258180   0.0000000), wk =   0.1250000
        k(   16) = (   0.2500000  -0.4516359   0.0000000), wk =   0.1250000
        k(   17) = (  -0.5000000   0.0000000   0.0000000), wk =   0.0625000
        k(   18) = (  -0.5000000   0.2258180   0.0000000), wk =   0.1250000
        k(   19) = (  -0.5000000  -0.4516359   0.0000000), wk =   0.0625000
        k(   20) = (  -0.2500000   0.2258180   0.0000000), wk =   0.1250000

     Dense  grid:  1322643 G-vectors     FFT dimensions: (  80,  90, 360)

     Smooth grid:   239441 G-vectors     FFT dimensions: (  45,  54, 216)

     Largest allocated arrays     est. size (Mb)     dimensions
        Kohn-Sham Wavefunctions         8.91 Mb     (   1890,  309)
        NL pseudopotentials            11.51 Mb     (   1890,  399)
        Each V/rho on FFT grid          5.05 Mb     ( 165600,   2)
        Each G-vector array             0.63 Mb     (  82677)
        G-vector shells                 0.31 Mb     (  40971)
     Largest temporary arrays     est. size (Mb)     dimensions
        Auxiliary wavefunctions        35.65 Mb     (   1890, 1236)
        Each subspace H/S matrix       23.31 Mb     (1236,1236)
        Each <psi_i|beta_j> matrix      1.88 Mb     (    399,  309)
        Arrays for rho mixing          20.21 Mb     ( 165600,   8)

     Check: negative/imaginary core charge=   -0.000006    0.000000

     Initial potential from superposition of free atoms
     Check: negative starting charge=(component1):   -0.051108
     Check: negative starting charge=(component2):   -0.051108

     starting charge  205.99958, renormalised to  214.00000

     negative rho (up, down):  0.531E-01 0.531E-01
     Starting wfc are  160 randomized atomic wfcs

     total cpu time spent up to now is      119.2 secs

     per-process dynamical memory:   257.9 Mb

     Self-consistent Calculation

     iteration #  1     ecut=    40.00 Ry     beta=0.70
     Davidson diagonalization with overlap
     ethr =  1.00E-02,  avg # of iterations =  6.0

     negative rho (up, down):  0.563E-01 0.563E-01

     total cpu time spent up to now is      972.8 secs

     total energy              =   -1558.15763506 Ry
     Harris-Foulkes estimate   =   -1567.87083296 Ry
     estimated scf accuracy    <      11.49620529 Ry

     total magnetization       =    -0.00 Bohr mag/cell
     absolute magnetization    =     0.01 Bohr mag/cell

     iteration #  2     ecut=    40.00 Ry     beta=0.70
     Davidson diagonalization with overlap
     ethr =  5.37E-03,  avg # of iterations =  5.7

     negative rho (up, down):  0.553E-01 0.553E-01

     total cpu time spent up to now is     1817.0 secs

     total energy              =   -1466.84057715 Ry
     Harris-Foulkes estimate   =   -1650.98517269 Ry
     estimated scf accuracy    <    2519.27033909 Ry

     total magnetization       =     0.00 Bohr mag/cell
     absolute magnetization    =     0.00 Bohr mag/cell

     iteration #  3     ecut=    40.00 Ry     beta=0.70
     Davidson diagonalization with overlap
     ethr =  5.37E-03,  avg # of iterations =  5.0

     negative rho (up, down):  0.505E-01 0.505E-01

     total cpu time spent up to now is     2574.5 secs

     total energy              =   -1551.63933535 Ry
     Harris-Foulkes estimate   =   -1577.80360305 Ry
     estimated scf accuracy    <     383.25233819 Ry

     total magnetization       =     0.00 Bohr mag/cell
     absolute magnetization    =     0.00 Bohr mag/cell

     iteration #  4     ecut=    40.00 Ry     beta=0.70
     Davidson diagonalization with overlap
     ethr =  5.37E-03,  avg # of iterations =  3.0

     negative rho (up, down):  0.480E-01 0.480E-01

     total cpu time spent up to now is     2924.1 secs

     total energy              =   -1566.03062608 Ry
     Harris-Foulkes estimate   =   -1566.89417758 Ry
     estimated scf accuracy    <       3.33855643 Ry

     total magnetization       =     0.00 Bohr mag/cell
     absolute magnetization    =     0.00 Bohr mag/cell

     iteration #  5     ecut=    40.00 Ry     beta=0.70
     Davidson diagonalization with overlap
     ethr =  1.56E-03,  avg # of iterations =  2.4

     negative rho (up, down):  0.468E-01 0.468E-01

     total cpu time spent up to now is     3246.9 secs

     total energy              =   -1566.13344668 Ry
     Harris-Foulkes estimate   =   -1566.64304340 Ry
     estimated scf accuracy    <       4.70911472 Ry

     total magnetization       =    -0.00 Bohr mag/cell
     absolute magnetization    =     0.00 Bohr mag/cell

     iteration #  6     ecut=    40.00 Ry     beta=0.70
     Davidson diagonalization with overlap
     ethr =  1.56E-03,  avg # of iterations =  3.2

     negative rho (up, down):  0.477E-01 0.477E-01

     total cpu time spent up to now is     3585.6 secs

     total energy              =   -1566.25186195 Ry
     Harris-Foulkes estimate   =   -1566.41340935 Ry
     estimated scf accuracy    <       1.68327508 Ry

     total magnetization       =    -0.00 Bohr mag/cell
     absolute magnetization    =     0.00 Bohr mag/cell

     iteration #  7     ecut=    40.00 Ry     beta=0.70
     Davidson diagonalization with overlap
     ethr =  7.87E-04,  avg # of iterations =  3.4

     negative rho (up, down):  0.475E-01 0.475E-01

     total cpu time spent up to now is     3931.6 secs

     total energy              =   -1566.20311925 Ry
     Harris-Foulkes estimate   =   -1566.34485605 Ry
     estimated scf accuracy    <       1.93567805 Ry

     total magnetization       =    -0.00 Bohr mag/cell
     absolute magnetization    =     0.00 Bohr mag/cell

     iteration #  8     ecut=    40.00 Ry     beta=0.70
     Davidson diagonalization with overlap
     ethr =  7.87E-04,  avg # of iterations =  1.1

     negative rho (up, down):  0.477E-01 0.477E-01

     total cpu time spent up to now is     4237.3 secs

     total energy              =   -1566.15167497 Ry
     Harris-Foulkes estimate   =   -1566.28570855 Ry
     estimated scf accuracy    <       1.36139159 Ry

     total magnetization       =    -0.00 Bohr mag/cell
     absolute magnetization    =     0.00 Bohr mag/cell

     iteration #  9     ecut=    40.00 Ry     beta=0.70
     Davidson diagonalization with overlap
     ethr =  6.36E-04,  avg # of iterations =  4.3

     negative rho (up, down):  0.485E-01 0.485E-01

     total cpu time spent up to now is     4607.0 secs

     total energy              =   -1566.13073694 Ry
     Harris-Foulkes estimate   =   -1566.21024450 Ry
     estimated scf accuracy    <       0.90265477 Ry

     total magnetization       =    -0.00 Bohr mag/cell
     absolute magnetization    =     0.00 Bohr mag/cell

     iteration # 10     ecut=    40.00 Ry     beta=0.70
     Davidson diagonalization with overlap
     ethr =  4.22E-04,  avg # of iterations =  3.9

     negative rho (up, down):  0.488E-01 0.488E-01

     total cpu time spent up to now is     4980.1 secs

     total energy              =   -1566.06869741 Ry
     Harris-Foulkes estimate   =   -1566.14138710 Ry
     estimated scf accuracy    <       0.53050412 Ry

     total magnetization       =    -0.00 Bohr mag/cell
     absolute magnetization    =     0.00 Bohr mag/cell

     iteration # 11     ecut=    40.00 Ry     beta=0.70
     Davidson diagonalization with overlap
     ethr =  2.48E-04,  avg # of iterations =  5.1

     negative rho (up, down):  0.505E-01 0.505E-01

     total cpu time spent up to now is     5395.8 secs

     total energy              =   -1565.95321856 Ry
     Harris-Foulkes estimate   =   -1566.07426088 Ry
     estimated scf accuracy    <       0.35675851 Ry

     total magnetization       =    -0.00 Bohr mag/cell
     absolute magnetization    =     0.00 Bohr mag/cell

     iteration # 12     ecut=    40.00 Ry     beta=0.70
     Davidson diagonalization with overlap
     ethr =  1.67E-04,  avg # of iterations =  5.8

     negative rho (up, down):  0.498E-01 0.498E-01

     total cpu time spent up to now is     5869.6 secs

     total energy              =   -1565.98228580 Ry
     Harris-Foulkes estimate   =   -1566.00582017 Ry
     estimated scf accuracy    <       0.11629204 Ry

     total magnetization       =    -0.00 Bohr mag/cell
     absolute magnetization    =     0.00 Bohr mag/cell

     iteration # 13     ecut=    40.00 Ry     beta=0.70
     Davidson diagonalization with overlap
     ethr =  5.43E-05,  avg # of iterations =  4.8

     negative rho (up, down):  0.500E-01 0.500E-01

     total cpu time spent up to now is     6257.2 secs

     total energy              =   -1565.96894681 Ry
     Harris-Foulkes estimate   =   -1566.01607995 Ry
     estimated scf accuracy    <       0.27293233 Ry

     total magnetization       =    -0.00 Bohr mag/cell
     absolute magnetization    =     0.00 Bohr mag/cell

     iteration # 14     ecut=    40.00 Ry     beta=0.70
     Davidson diagonalization with overlap
     ethr =  5.43E-05,  avg # of iterations =  4.6

     negative rho (up, down):  0.500E-01 0.500E-01

     total cpu time spent up to now is     6644.6 secs

     total energy              =   -1565.98625467 Ry
     Harris-Foulkes estimate   =   -1566.00287769 Ry
     estimated scf accuracy    <       0.13523413 Ry

     total magnetization       =    -0.00 Bohr mag/cell
     absolute magnetization    =     0.00 Bohr mag/cell

     iteration # 15     ecut=    40.00 Ry     beta=0.70
     Davidson diagonalization with overlap
     ethr =  5.43E-05,  avg # of iterations =  1.0

     negative rho (up, down):  0.498E-01 0.498E-01

     total cpu time spent up to now is     6954.4 secs

     total energy              =   -1565.98858244 Ry
     Harris-Foulkes estimate   =   -1565.99843256 Ry
     estimated scf accuracy    <       0.04869237 Ry

     total magnetization       =    -0.00 Bohr mag/cell
     absolute magnetization    =     0.00 Bohr mag/cell

     iteration # 16     ecut=    40.00 Ry     beta=0.70
     Davidson diagonalization with overlap
     ethr =  2.28E-05,  avg # of iterations =  3.4

     negative rho (up, down):  0.499E-01 0.499E-01

     total cpu time spent up to now is     7312.7 secs

     total energy              =   -1565.99303185 Ry
     Harris-Foulkes estimate   =   -1565.99604030 Ry
     estimated scf accuracy    <       0.01398204 Ry

     total magnetization       =     0.00 Bohr mag/cell
     absolute magnetization    =     0.00 Bohr mag/cell

     iteration # 17     ecut=    40.00 Ry     beta=0.70
     Davidson diagonalization with overlap
     ethr =  6.53E-06,  avg # of iterations =  4.7

     negative rho (up, down):  0.500E-01 0.500E-01

     total cpu time spent up to now is     7693.4 secs

     total energy              =   -1565.99238175 Ry
     Harris-Foulkes estimate   =   -1565.99559395 Ry
     estimated scf accuracy    <       0.02629303 Ry

     total magnetization       =     0.00 Bohr mag/cell
     absolute magnetization    =     0.00 Bohr mag/cell

     iteration # 18     ecut=    40.00 Ry     beta=0.70
     Davidson diagonalization with overlap
     ethr =  6.53E-06,  avg # of iterations =  3.4

     negative rho (up, down):  0.500E-01 0.500E-01

     total cpu time spent up to now is     8043.3 secs

     total energy              =   -1565.99329348 Ry
     Harris-Foulkes estimate   =   -1565.99655933 Ry
     estimated scf accuracy    <       0.02707201 Ry

     total magnetization       =     0.00 Bohr mag/cell
     absolute magnetization    =     0.00 Bohr mag/cell

     iteration # 19     ecut=    40.00 Ry     beta=0.70
     Davidson diagonalization with overlap
     ethr =  6.53E-06,  avg # of iterations =  1.4

     negative rho (up, down):  0.501E-01 0.501E-01

     total cpu time spent up to now is     8362.2 secs

     total energy              =   -1565.99447494 Ry
     Harris-Foulkes estimate   =   -1565.99466221 Ry
     estimated scf accuracy    <       0.00172874 Ry

     total magnetization       =     0.00 Bohr mag/cell
     absolute magnetization    =     0.00 Bohr mag/cell

     iteration # 20     ecut=    40.00 Ry     beta=0.70
     Davidson diagonalization with overlap
     ethr =  8.08E-07,  avg # of iterations =  4.8

     negative rho (up, down):  0.501E-01 0.501E-01

     total cpu time spent up to now is     8737.6 secs

     total energy              =   -1565.99451007 Ry
     Harris-Foulkes estimate   =   -1565.99461968 Ry
     estimated scf accuracy    <       0.00081981 Ry

     total magnetization       =     0.00 Bohr mag/cell
     absolute magnetization    =     0.00 Bohr mag/cell

     iteration # 21     ecut=    40.00 Ry     beta=0.70
     Davidson diagonalization with overlap
     ethr =  3.83E-07,  avg # of iterations =  1.0

     negative rho (up, down):  0.501E-01 0.501E-01

     total cpu time spent up to now is     9039.8 secs

     total energy              =   -1565.99452505 Ry
     Harris-Foulkes estimate   =   -1565.99456781 Ry
     estimated scf accuracy    <       0.00017123 Ry

     total magnetization       =     0.00 Bohr mag/cell
     absolute magnetization    =     0.00 Bohr mag/cell

     iteration # 22     ecut=    40.00 Ry     beta=0.70
     Davidson diagonalization with overlap
     ethr =  8.00E-08,  avg # of iterations =  1.3

     negative rho (up, down):  0.502E-01 0.502E-01

     total cpu time spent up to now is     9342.0 secs

     total energy              =   -1565.99448375 Ry
     Harris-Foulkes estimate   =   -1565.99463417 Ry
     estimated scf accuracy    <       0.00113493 Ry

     total magnetization       =     0.00 Bohr mag/cell
     absolute magnetization    =     0.00 Bohr mag/cell

     iteration # 23     ecut=    40.00 Ry     beta=0.70
     Davidson diagonalization with overlap
     ethr =  8.00E-08,  avg # of iterations =  1.0

     negative rho (up, down):  0.502E-01 0.502E-01

     total cpu time spent up to now is     9639.0 secs

     total energy              =   -1565.99455430 Ry
     Harris-Foulkes estimate   =   -1565.99455837 Ry
     estimated scf accuracy    <       0.00001987 Ry

     total magnetization       =     0.00 Bohr mag/cell
     absolute magnetization    =     0.00 Bohr mag/cell

     iteration # 24     ecut=    40.00 Ry     beta=0.70
     Davidson diagonalization with overlap
     ethr =  9.28E-09,  avg # of iterations =  1.0

     negative rho (up, down):  0.502E-01 0.502E-01

     total cpu time spent up to now is     9937.9 secs

     total energy              =   -1565.99455243 Ry
     Harris-Foulkes estimate   =   -1565.99456152 Ry
     estimated scf accuracy    <       0.00006718 Ry

     total magnetization       =     0.00 Bohr mag/cell
     absolute magnetization    =     0.00 Bohr mag/cell

     iteration # 25     ecut=    40.00 Ry     beta=0.70
     Davidson diagonalization with overlap
     ethr =  9.28E-09,  avg # of iterations =  1.0

     negative rho (up, down):  0.502E-01 0.502E-01

     total cpu time spent up to now is    10236.6 secs

     total energy              =   -1565.99455694 Ry
     Harris-Foulkes estimate   =   -1565.99455761 Ry
     estimated scf accuracy    <       0.00000604 Ry

     total magnetization       =     0.01 Bohr mag/cell
     absolute magnetization    =     0.01 Bohr mag/cell

     iteration # 26     ecut=    40.00 Ry     beta=0.70
     Davidson diagonalization with overlap
     ethr =  2.82E-09,  avg # of iterations =  1.0

     negative rho (up, down):  0.502E-01 0.502E-01

     total cpu time spent up to now is    10533.2 secs

     total energy              =   -1565.99455722 Ry
     Harris-Foulkes estimate   =   -1565.99455800 Ry
     estimated scf accuracy    <       0.00000490 Ry

     total magnetization       =     0.01 Bohr mag/cell
     absolute magnetization    =     0.01 Bohr mag/cell

     iteration # 27     ecut=    40.00 Ry     beta=0.70
     Davidson diagonalization with overlap
     ethr =  2.29E-09,  avg # of iterations =  1.0

     negative rho (up, down):  0.502E-01 0.502E-01

     total cpu time spent up to now is    10832.9 secs

     total energy              =   -1565.99455774 Ry
     Harris-Foulkes estimate   =   -1565.99455770 Ry
     estimated scf accuracy    <       0.00000107 Ry

     total magnetization       =     0.01 Bohr mag/cell
     absolute magnetization    =     0.01 Bohr mag/cell

     iteration # 28     ecut=    40.00 Ry     beta=0.70
     Davidson diagonalization with overlap
     ethr =  4.98E-10,  avg # of iterations =  1.0

     negative rho (up, down):  0.502E-01 0.502E-01

     total cpu time spent up to now is    11132.2 secs

     total energy              =   -1565.99455778 Ry
     Harris-Foulkes estimate   =   -1565.99455778 Ry
     estimated scf accuracy    <       0.00000126 Ry

     total magnetization       =     0.01 Bohr mag/cell
     absolute magnetization    =     0.01 Bohr mag/cell

     iteration # 29     ecut=    40.00 Ry     beta=0.70
     Davidson diagonalization with overlap
     ethr =  4.98E-10,  avg # of iterations =  1.0

     negative rho (up, down):  0.502E-01 0.502E-01

     total cpu time spent up to now is    11433.3 secs

     total energy              =   -1565.99455791 Ry
     Harris-Foulkes estimate   =   -1565.99455779 Ry
     estimated scf accuracy    <       0.00000131 Ry

     total magnetization       =     0.01 Bohr mag/cell
     absolute magnetization    =     0.01 Bohr mag/cell

     iteration # 30     ecut=    40.00 Ry     beta=0.70
     Davidson diagonalization with overlap
     ethr =  4.98E-10,  avg # of iterations =  1.0

     negative rho (up, down):  0.502E-01 0.502E-01

     total cpu time spent up to now is    11734.2 secs

     total energy              =   -1565.99455815 Ry
     Harris-Foulkes estimate   =   -1565.99455801 Ry
     estimated scf accuracy    <       0.00000442 Ry

     total magnetization       =     0.02 Bohr mag/cell
     absolute magnetization    =     0.02 Bohr mag/cell

     iteration # 31     ecut=    40.00 Ry     beta=0.70
     Davidson diagonalization with overlap
     ethr =  4.98E-10,  avg # of iterations =  1.0

     negative rho (up, down):  0.502E-01 0.502E-01

     total cpu time spent up to now is    12031.0 secs

     total energy              =   -1565.99455815 Ry
     Harris-Foulkes estimate   =   -1565.99455851 Ry
     estimated scf accuracy    <       0.00000933 Ry

     total magnetization       =     0.02 Bohr mag/cell
     absolute magnetization    =     0.02 Bohr mag/cell

     iteration # 32     ecut=    40.00 Ry     beta=0.70
     Davidson diagonalization with overlap
     ethr =  4.98E-10,  avg # of iterations =  1.0

     negative rho (up, down):  0.502E-01 0.502E-01

     total cpu time spent up to now is    12327.5 secs

     total energy              =   -1565.99455837 Ry
     Harris-Foulkes estimate   =   -1565.99455844 Ry
     estimated scf accuracy    <       0.00000672 Ry

     total magnetization       =     0.02 Bohr mag/cell
     absolute magnetization    =     0.02 Bohr mag/cell

     iteration # 33     ecut=    40.00 Ry     beta=0.70
     Davidson diagonalization with overlap
     ethr =  4.98E-10,  avg # of iterations =  1.0

     negative rho (up, down):  0.502E-01 0.502E-01

     total cpu time spent up to now is    12623.9 secs

     total energy              =   -1565.99455867 Ry
     Harris-Foulkes estimate   =   -1565.99455856 Ry
     estimated scf accuracy    <       0.00000348 Ry

     total magnetization       =     0.02 Bohr mag/cell
     absolute magnetization    =     0.02 Bohr mag/cell

     iteration # 34     ecut=    40.00 Ry     beta=0.70
     Davidson diagonalization with overlap
     ethr =  4.98E-10,  avg # of iterations =  1.0

     negative rho (up, down):  0.502E-01 0.502E-01

     total cpu time spent up to now is    12920.6 secs

     total energy              =   -1565.99455874 Ry
     Harris-Foulkes estimate   =   -1565.99455890 Ry
     estimated scf accuracy    <       0.00000658 Ry

     total magnetization       =     0.02 Bohr mag/cell
     absolute magnetization    =     0.02 Bohr mag/cell

     iteration # 35     ecut=    40.00 Ry     beta=0.70
     Davidson diagonalization with overlap
     ethr =  4.98E-10,  avg # of iterations =  1.8

     negative rho (up, down):  0.502E-01 0.502E-01

     total cpu time spent up to now is    13232.7 secs

     total energy              =   -1565.99455907 Ry
     Harris-Foulkes estimate   =   -1565.99455959 Ry
     estimated scf accuracy    <       0.00001109 Ry

     total magnetization       =     0.03 Bohr mag/cell
     absolute magnetization    =     0.03 Bohr mag/cell

     iteration # 36     ecut=    40.00 Ry     beta=0.70
     Davidson diagonalization with overlap
     ethr =  4.98E-10,  avg # of iterations =  1.1

     negative rho (up, down):  0.502E-01 0.502E-01

     total cpu time spent up to now is    13534.6 secs

     total energy              =   -1565.99455977 Ry
     Harris-Foulkes estimate   =   -1565.99455962 Ry
     estimated scf accuracy    <       0.00000660 Ry

     total magnetization       =     0.03 Bohr mag/cell
     absolute magnetization    =     0.03 Bohr mag/cell

     iteration # 37     ecut=    40.00 Ry     beta=0.70
     Davidson diagonalization with overlap
     ethr =  4.98E-10,  avg # of iterations =  1.0

     negative rho (up, down):  0.502E-01 0.502E-01

     total cpu time spent up to now is    13834.7 secs

     total energy              =   -1565.99455995 Ry
     Harris-Foulkes estimate   =   -1565.99455994 Ry
     estimated scf accuracy    <       0.00000706 Ry

     total magnetization       =     0.03 Bohr mag/cell
     absolute magnetization    =     0.03 Bohr mag/cell

     iteration # 38     ecut=    40.00 Ry     beta=0.70
     Davidson diagonalization with overlap
     ethr =  4.98E-10,  avg # of iterations =  1.0

     negative rho (up, down):  0.502E-01 0.502E-01

     total cpu time spent up to now is    14134.6 secs

     total energy              =   -1565.99455789 Ry
     Harris-Foulkes estimate   =   -1565.99455998 Ry
     estimated scf accuracy    <       0.00000678 Ry

     total magnetization       =     0.03 Bohr mag/cell
     absolute magnetization    =     0.03 Bohr mag/cell

     iteration # 39     ecut=    40.00 Ry     beta=0.70
     Davidson diagonalization with overlap
     ethr =  4.98E-10,  avg # of iterations =  2.0

     negative rho (up, down):  0.502E-01 0.502E-01

     total cpu time spent up to now is    14467.5 secs

     total energy              =   -1565.99455649 Ry
     Harris-Foulkes estimate   =   -1565.99456040 Ry
     estimated scf accuracy    <       0.00003572 Ry

     total magnetization       =     0.02 Bohr mag/cell
     absolute magnetization    =     0.02 Bohr mag/cell

     iteration # 40     ecut=    40.00 Ry     beta=0.70
     Davidson diagonalization with overlap
     ethr =  4.98E-10,  avg # of iterations =  2.0

     negative rho (up, down):  0.502E-01 0.502E-01

     total cpu time spent up to now is    14798.0 secs

     total energy              =   -1565.99455696 Ry
     Harris-Foulkes estimate   =   -1565.99455911 Ry
     estimated scf accuracy    <       0.00001028 Ry

     total magnetization       =     0.02 Bohr mag/cell
     absolute magnetization    =     0.02 Bohr mag/cell

     iteration # 41     ecut=    40.00 Ry     beta=0.70
     Davidson diagonalization with overlap
     ethr =  4.98E-10,  avg # of iterations =  2.0

     negative rho (up, down):  0.502E-01 0.502E-01

     total cpu time spent up to now is    15119.0 secs

     total energy              =   -1565.99455710 Ry
     Harris-Foulkes estimate   =   -1565.99455809 Ry
     estimated scf accuracy    <       0.00000660 Ry

     total magnetization       =     0.01 Bohr mag/cell
     absolute magnetization    =     0.01 Bohr mag/cell

     iteration # 42     ecut=    40.00 Ry     beta=0.70
     Davidson diagonalization with overlap
     ethr =  4.98E-10,  avg # of iterations =  2.0

     negative rho (up, down):  0.502E-01 0.502E-01

     total cpu time spent up to now is    15435.2 secs

     total energy              =   -1565.99455633 Ry
     Harris-Foulkes estimate   =   -1565.99455813 Ry
     estimated scf accuracy    <       0.00000942 Ry

     total magnetization       =     0.01 Bohr mag/cell
     absolute magnetization    =     0.01 Bohr mag/cell

     iteration # 43     ecut=    40.00 Ry     beta=0.70
     Davidson diagonalization with overlap
     ethr =  4.98E-10,  avg # of iterations =  2.0

     negative rho (up, down):  0.502E-01 0.502E-01

     total cpu time spent up to now is    15762.5 secs

     total energy              =   -1565.99455577 Ry
     Harris-Foulkes estimate   =   -1565.99455858 Ry
     estimated scf accuracy    <       0.00001962 Ry

     total magnetization       =     0.00 Bohr mag/cell
     absolute magnetization    =     0.00 Bohr mag/cell

     iteration # 44     ecut=    40.00 Ry     beta=0.70
     Davidson diagonalization with overlap
     ethr =  4.98E-10,  avg # of iterations =  2.0

     negative rho (up, down):  0.502E-01 0.502E-01

     total cpu time spent up to now is    16096.7 secs

     total energy              =   -1565.99455577 Ry
     Harris-Foulkes estimate   =   -1565.99455885 Ry
     estimated scf accuracy    <       0.00001886 Ry

     total magnetization       =     0.00 Bohr mag/cell
     absolute magnetization    =     0.00 Bohr mag/cell

     iteration # 45     ecut=    40.00 Ry     beta=0.70
     Davidson diagonalization with overlap
     ethr =  4.98E-10,  avg # of iterations =  2.0

     negative rho (up, down):  0.502E-01 0.502E-01

     total cpu time spent up to now is    16422.6 secs

     total energy              =   -1565.99455686 Ry
     Harris-Foulkes estimate   =   -1565.99455773 Ry
     estimated scf accuracy    <       0.00000840 Ry

     total magnetization       =     0.00 Bohr mag/cell
     absolute magnetization    =     0.00 Bohr mag/cell

     iteration # 46     ecut=    40.00 Ry     beta=0.70
     Davidson diagonalization with overlap
     ethr =  4.98E-10,  avg # of iterations =  2.0

     negative rho (up, down):  0.502E-01 0.502E-01

     total cpu time spent up to now is    16742.6 secs

     total energy              =   -1565.99455665 Ry
     Harris-Foulkes estimate   =   -1565.99455821 Ry
     estimated scf accuracy    <       0.00000692 Ry

     total magnetization       =     0.01 Bohr mag/cell
     absolute magnetization    =     0.01 Bohr mag/cell

     iteration # 47     ecut=    40.00 Ry     beta=0.70
     Davidson diagonalization with overlap
     ethr =  4.98E-10,  avg # of iterations =  1.7

     negative rho (up, down):  0.502E-01 0.502E-01

     total cpu time spent up to now is    17049.5 secs

     End of self-consistent calculation

 ------ SPIN UP ------------


          k = 0.0000 0.0000 0.0000 ( 29975 PWs)   bands (ev):

   -60.5042 -60.4664 -59.5716 -59.3319 -59.2866 -58.9858 -58.7699 -58.7286
   -38.4749 -37.0353 -36.7567 -36.6658 -36.6613 -36.6292 -36.6162 -35.9793
   -35.9715 -35.8645 -35.7435 -35.6733 -35.5659 -35.5177 -35.4645 -35.4272
   -35.3101 -35.0495 -35.0491 -35.0168 -34.9470 -34.8334 -33.9362 -33.8039
   -22.2091 -21.9279 -20.7994 -20.5443 -20.4485 -20.0683 -19.9516 -19.8358
   -19.6965 -19.5612 -19.3128 -19.2355 -19.1959 -19.0820 -18.7906 -18.7871
   -18.3334 -18.2482 -16.8573  -9.9441  -9.5283  -9.3782  -9.0922  -8.4895
    -8.4358  -8.1761  -7.8218  -7.8137  -7.5596  -7.2682  -7.2575  -7.0984
    -7.0614  -6.9240  -6.8854  -6.7970  -6.6918  -6.5044  -6.4555  -6.3253
    -6.1887  -6.0121  -5.9353  -5.9089  -5.7158  -5.6500  -5.5893  -5.5022
    -5.2264  -5.1705  -5.1043  -5.0971  -5.0300  -5.0203  -4.8173  -4.7525
    -4.5566  -4.5419  -4.4570  -4.3458  -4.1618  -4.1104  -4.0439  -3.9829
    -3.8342  -3.6946  -3.6114  -3.4887  -3.3888  -3.3212  -3.2008  -3.1454
    -3.1117  -3.0014  -2.9180  -2.7452  -1.3393  -1.0201  -0.8404  -0.7251
    -0.6797  -0.4062  -0.3646  -0.1395   0.2721   0.3095   0.5236   0.5431
     0.5492   0.5847   0.6050   0.8371   1.0596   1.1688   1.2190   1.2475
     1.7369   1.7729   1.7953   1.8155   1.9400   2.2161   2.2728   2.4711
     3.0130   3.3772   3.4124   3.4197   3.4928   3.6071   3.8332   3.9586
     3.9837   4.2808   4.3672   4.6772   4.7194   4.7454   4.7772   5.2055
     5.3349   5.5872   5.6669   5.7743   6.2912   6.4213   6.7033   7.0211
     7.1361   7.1621   7.2842   7.3980   7.5549   7.6546   7.6609   7.7824
     7.8791   7.9081   8.0456   8.0785   8.1578   8.2436   8.3742   8.4876
     8.5704   8.7422   8.7838   8.9111   8.9575   9.0653   9.1106   9.1556
     9.1846   9.2774   9.5420   9.6170   9.8283   9.8503   9.9100   9.9614
    10.0394  10.3676  10.4273  10.7200  10.7276  10.8402  10.9364  10.9654
    10.9999  11.1007  11.1463  11.2246  11.2683  11.2881  11.3684  11.3891
    11.4185  11.4416  11.4835  11.6254  11.6597  11.6644  11.7518  11.7710
    11.8760  12.0113  12.0815  12.2362  12.2550  12.2945  12.3216  12.3541
    12.3882  12.4510  12.5153  12.5682  12.7910  12.8537  12.9957  13.0125
    13.1813  13.2154  13.2726  13.3941  13.5195  13.5742  13.5948  13.6849
    13.7322  13.8093  13.9339  14.0179  14.1307  14.1374  14.3011  14.3862
    14.4706  14.5139  14.6492  14.7439  14.8396  14.8892  14.9915  15.0637
    15.1337  15.2136  15.2384  15.3189  15.4158  15.4976  15.5272  15.5534
    15.7871  15.9216  16.1940  16.2295  16.3401  16.3965  16.4650  16.4800
    16.5775  16.6190  16.7071  16.7257  16.8951  16.9357  17.0479  17.2192
    17.3080  17.3688  17.3945  17.5363  17.6071  17.6519  17.6726  17.7058
    17.7780  17.9222  18.0673  18.0876  18.1515  18.1652  18.2558  18.3424
    18.3527  18.4040  18.4329  18.6009  18.6435  18.7285  18.7738  18.8403
    18.9976  19.0123  19.1500  19.2306  19.2785

          k = 0.0000 0.2258 0.0000 ( 29933 PWs)   bands (ev):

   -60.5042 -60.4664 -59.5716 -59.3319 -59.2866 -58.9858 -58.7699 -58.7286
   -38.4748 -37.0354 -36.7566 -36.6634 -36.6613 -36.6312 -36.6162 -35.9768
   -35.9715 -35.8655 -35.7420 -35.6763 -35.5657 -35.5178 -35.4645 -35.4272
   -35.3100 -35.0504 -35.0491 -35.0162 -34.9470 -34.8334 -33.9354 -33.8053
   -22.2029 -21.9274 -20.7566 -20.5345 -20.4509 -19.9769 -19.9580 -19.9355
   -19.6895 -19.4439 -19.4017 -19.3599 -19.2931 -18.9525 -18.8197 -18.7866
   -18.3309 -18.2469 -16.8555  -9.9437  -9.5403  -9.3627  -9.0711  -8.4260
    -8.2902  -8.0563  -7.8125  -7.7271  -7.5718  -7.3815  -7.2559  -7.0956
    -6.9777  -6.9038  -6.7601  -6.7574  -6.6721  -6.4461  -6.4295  -6.3580
    -6.0687  -5.9855  -5.8910  -5.8754  -5.7329  -5.7138  -5.6748  -5.5346
    -5.3565  -5.2486  -5.2178  -5.1711  -5.0139  -4.9886  -4.8697  -4.7680
    -4.5455  -4.5394  -4.4728  -4.3843  -4.2777  -4.1848  -4.1423  -3.9236
    -3.8294  -3.6904  -3.6452  -3.5738  -3.4706  -3.3888  -3.3091  -3.2343
    -3.1631  -3.0850  -2.9702  -2.8628  -1.2998  -1.0877  -0.8162  -0.8012
    -0.4060  -0.3835  -0.2997  -0.0124   0.1161   0.3060   0.5205   0.5513
     0.5634   0.7239   0.9010   0.9900   1.0502   1.1037   1.1852   1.2636
     1.6275   1.7060   1.7370   1.8809   2.0177   2.2738   2.2813   2.7207
     2.8992   3.0423   3.3742   3.6333   3.8019   3.8401   3.9463   3.9710
     4.0720   4.4119   4.4193   4.6767   4.6950   4.7444   4.7749   4.9783
     5.2536   5.5514   5.6866   5.7327   5.8693   5.9293   6.2718   6.5412
     6.6408   7.0110   7.2053   7.3806   7.4223   7.6736   7.7840   7.8383
     8.0801   8.1132   8.2255   8.3158   8.4872   8.6578   8.6902   8.7663
     8.8870   8.9320   8.9715   9.0407   9.1523   9.2176   9.2605   9.3002
     9.3920   9.5237   9.6090   9.7244   9.7737   9.7904   9.9064   9.9723
     9.9862  10.0922  10.1420  10.2397  10.3874  10.4301  10.5197  10.5699
    10.7497  10.7788  10.8543  10.9214  11.0287  11.1119  11.1446  11.2376
    11.4732  11.5178  11.6467  11.7343  11.7844  11.8470  11.9199  12.0166
    12.1222  12.3128  12.4093  12.4590  12.5257  12.5604  12.6193  12.6398
    12.7422  12.8663  13.0664  13.0826  13.1536  13.1836  13.2830  13.3041
    13.4718  13.4866  13.5454  13.6646  13.6817  13.7022  13.7793  13.8944
    13.9116  13.9641  13.9863  14.0322  14.1268  14.2186  14.2479  14.3512
    14.4230  14.4958  14.5364  14.6403  14.7031  14.7936  14.8754  14.9038
    14.9800  15.1325  15.1434  15.1794  15.2419  15.3589  15.4480  15.4965
    15.5443  15.6330  15.7608  15.8280  15.9672  16.0933  16.1631  16.2424
    16.3152  16.4158  16.6036  16.6257  16.6771  16.7290  16.8020  16.8566
    16.9755  17.0782  17.1166  17.1738  17.2818  17.3177  17.5870  17.7211
    17.7718  17.8294  17.8985  17.9510  18.1091  18.1710  18.2426  18.2607
    18.3922  18.4381  18.4686  18.5365  18.5701  18.7109  18.7797  18.8081
    18.8770  18.9323  18.9896  19.0241  19.1916

          k = 0.0000-0.4516 0.0000 ( 29906 PWs)   bands (ev):

   -60.5042 -60.4664 -59.5716 -59.3319 -59.2866 -58.9858 -58.7699 -58.7286
   -38.4748 -37.0355 -36.7566 -36.6615 -36.6609 -36.6332 -36.6162 -35.9743
   -35.9716 -35.8664 -35.7405 -35.6793 -35.5656 -35.5178 -35.4645 -35.4272
   -35.3099 -35.0513 -35.0492 -35.0156 -34.9470 -34.8334 -33.9346 -33.8066
   -22.1967 -21.9270 -20.7106 -20.5177 -20.4609 -20.0361 -19.9244 -19.8158
   -19.6893 -19.5000 -19.4552 -19.4406 -19.3538 -18.8767 -18.8395 -18.7870
   -18.3289 -18.2457 -16.8538  -9.9416  -9.5526  -9.3469  -9.0465  -8.4163
    -8.2013  -7.8369  -7.8030  -7.7137  -7.5815  -7.2515  -7.1694  -7.0925
    -6.9989  -6.8107  -6.7216  -6.6859  -6.6260  -6.5881  -6.2557  -6.1457
    -6.1204  -5.9679  -5.9526  -5.9077  -5.7965  -5.7084  -5.6868  -5.6094
    -5.3986  -5.3125  -5.2826  -5.2428  -5.2374  -5.2000  -5.0182  -4.8334
    -4.6690  -4.4343  -4.4017  -4.3675  -4.2314  -4.2021  -4.1493  -3.8505
    -3.8404  -3.8249  -3.6586  -3.5281  -3.5245  -3.4564  -3.4444  -3.3387
    -3.2170  -3.1182  -3.0040  -2.9165  -1.3055  -1.2840  -0.8983  -0.6191
    -0.4061  -0.3211  -0.2016  -0.0260   0.2975   0.3543   0.5216   0.5312
     0.5634   0.8994   0.9414   1.0751   1.0896   1.1291   1.1387   1.2950
     1.4984   1.6625   1.6946   2.0162   2.0776   2.2797   2.3835   2.6623
     2.9602   3.0686   3.3761   3.7158   3.8246   3.8475   4.0680   4.2025
     4.4368   4.4592   4.5312   4.5655   4.6400   4.6865   4.7441   4.9140
     5.0557   5.3299   5.3362   5.5415   5.8044   5.8951   6.2434   6.3123
     6.6846   6.7625   6.9667   7.0915   7.2449   7.6115   7.7867   8.0734
     8.2406   8.4321   8.4617   8.5944   8.6002   8.6284   8.7284   8.8164
     8.8551   8.9345   8.9622   9.0567   9.1678   9.2432   9.2839   9.3062
     9.3512   9.3722   9.5751   9.6365   9.7541   9.7764   9.9737  10.0305
    10.0584  10.1860  10.2485  10.4416  10.5279  10.5745  10.6942  10.7489
    10.8190  11.0689  11.1356  11.1758  11.2216  11.2570  11.3392  11.4386
    11.4797  11.4896  11.5494  11.7204  11.7821  11.8280  11.9505  12.0297
    12.0702  12.1245  12.1941  12.2430  12.3716  12.4227  12.5792  12.6861
    12.7828  12.9174  12.9722  13.0312  13.1460  13.1683  13.2207  13.2266
    13.2943  13.3926  13.4225  13.7068  13.7773  13.7892  13.8062  13.8466
    13.9830  14.0442  14.1210  14.1226  14.2187  14.3045  14.5530  14.6959
    14.7185  14.7349  14.8305  14.8935  15.0239  15.1793  15.2563  15.2962
    15.3301  15.3494  15.3925  15.4465  15.4643  15.5204  15.6542  15.6882
    15.7014  15.7547  15.7661  15.9366  15.9535  15.9865  16.0467  16.0708
    16.1307  16.1597  16.2618  16.3014  16.3448  16.4969  16.5275  16.5292
    16.8579  16.9216  16.9487  16.9979  17.0595  17.0609  17.1316  17.2516
    17.4038  17.4390  17.5697  17.6346  17.7064  17.7515  17.8265  17.9063
    17.9445  17.9979  18.0179  18.0349  18.0702  18.0928  18.1445  18.2482
    18.2640  18.4941  18.6548  18.7684  18.8774

          k = 0.2500 0.0000 0.0000 ( 29937 PWs)   bands (ev):

   -60.4987 -60.4720 -59.5713 -59.3267 -59.2918 -58.9862 -58.7639 -58.7346
   -38.4749 -36.9768 -36.7421 -36.6931 -36.6622 -36.6602 -36.6342 -35.9714
   -35.9139 -35.8522 -35.7428 -35.6587 -35.5865 -35.5812 -35.4614 -35.4301
   -35.2458 -35.0450 -35.0388 -35.0215 -34.9602 -34.9017 -33.9534 -33.8049
   -22.1437 -21.9430 -20.7638 -20.5369 -20.4127 -19.9448 -19.9011 -19.8412
   -19.7512 -19.6088 -19.3876 -19.2394 -19.1694 -19.0779 -18.8522 -18.7543
   -18.4034 -18.3264 -16.8518  -9.8659  -9.5908  -9.3530  -9.0974  -8.3184
    -8.2191  -8.1514  -7.8101  -7.5914  -7.4925  -7.3633  -7.2669  -7.2231
    -7.1810  -7.1026  -6.7844  -6.6673  -6.5476  -6.4500  -6.4425  -6.3339
    -6.2465  -6.1803  -6.0352  -5.8805  -5.7103  -5.6908  -5.6277  -5.5552
    -5.4571  -5.1397  -5.0307  -4.9603  -4.9409  -4.8714  -4.7842  -4.6645
    -4.6308  -4.5298  -4.4137  -4.3835  -4.2955  -4.2507  -4.1378  -4.1011
    -3.8029  -3.7176  -3.6590  -3.6096  -3.5239  -3.3884  -3.2376  -3.1926
    -3.1663  -3.0861  -2.9726  -2.8240  -1.1290  -0.9562  -0.8176  -0.7425
    -0.5374  -0.4304  -0.4034  -0.0147   0.1786   0.3440   0.3793   0.4552
     0.4698   0.6607   0.7164   0.8804   1.1562   1.1722   1.2914   1.3461
     1.6237   1.7139   1.7593   1.8592   1.9600   2.0831   2.1763   2.8122
     3.1538   3.3253   3.4068   3.4514   3.5925   3.7028   3.8632   3.9848
     4.0369   4.2574   4.3453   4.6308   4.7265   4.7653   4.8063   5.0162
     5.0508   5.6097   5.8966   5.9993   6.0733   6.2152   6.4301   6.5537
     6.8515   6.9759   7.2805   7.3791   7.4070   7.5161   7.5478   7.6820
     7.7546   7.9410   8.0098   8.0653   8.1349   8.3291   8.4619   8.5039
     8.6759   8.7413   8.9599   9.0634   9.1142   9.2647   9.3365   9.3568
     9.5022   9.5137   9.5996   9.6713   9.7292   9.7814   9.9488   9.9827
    10.0736  10.1656  10.2100  10.3295  10.4500  10.5373  10.5972  10.6635
    10.7263  10.8477  10.9005  10.9325  11.0607  11.1658  11.1829  11.3656
    11.4596  11.5121  11.5881  11.6223  11.7574  11.8392  11.9504  11.9672
    12.1186  12.2211  12.3049  12.4646  12.5308  12.5918  12.6351  12.6495
    12.8609  12.9624  12.9758  13.0281  13.1789  13.3293  13.3768  13.4060
    13.5152  13.6236  13.7059  13.7642  13.8056  13.8936  13.9258  13.9981
    14.0892  14.1365  14.2447  14.3462  14.4131  14.5024  14.5731  14.6484
    14.6948  14.7579  14.8921  14.9019  14.9408  14.9927  15.1140  15.1506
    15.2620  15.3160  15.4016  15.5411  15.5964  15.6315  15.6789  15.7960
    15.8330  15.9564  16.0619  16.1271  16.1510  16.2435  16.2675  16.5228
    16.5554  16.6817  16.7344  16.8115  16.8857  16.9166  16.9525  16.9910
    17.1352  17.1847  17.2481  17.3577  17.3847  17.4785  17.5505  17.6410
    17.6645  17.7267  17.8436  17.9213  17.9649  18.0223  18.0529  18.1221
    18.2262  18.2592  18.3144  18.4495  18.5023  18.5409  18.6804  18.6974
    18.7440  18.8811  18.9530  19.0093  19.0292

          k = 0.2500 0.2258 0.0000 ( 29912 PWs)   bands (ev):

   -60.4987 -60.4720 -59.5713 -59.3267 -59.2918 -58.9861 -58.7639 -58.7347
   -38.4749 -36.9769 -36.7421 -36.6931 -36.6622 -36.6585 -36.6355 -35.9714
   -35.9119 -35.8531 -35.7413 -35.6613 -35.5861 -35.5815 -35.4614 -35.4301
   -35.2457 -35.0456 -35.0388 -35.0214 -34.9602 -34.9017 -33.9524 -33.8063
   -22.1391 -21.9424 -20.7380 -20.5257 -20.4023 -19.9107 -19.8898 -19.8390
   -19.7789 -19.5234 -19.4715 -19.3339 -19.1955 -19.0726 -18.8561 -18.7533
   -18.4031 -18.3252 -16.8492  -9.8622  -9.5881  -9.3411  -9.0765  -8.2165
    -8.1997  -7.9773  -7.7623  -7.5756  -7.4480  -7.3318  -7.2084  -7.1746
    -7.0683  -7.0410  -6.8421  -6.6153  -6.5397  -6.4567  -6.4127  -6.3405
    -6.2325  -6.1267  -5.9889  -5.8380  -5.7423  -5.6898  -5.5965  -5.5538
    -5.5161  -5.3914  -5.1013  -5.0410  -5.0188  -4.9773  -4.8936  -4.7870
    -4.7396  -4.6555  -4.5642  -4.4917  -4.3267  -4.2161  -4.1023  -3.9543
    -3.8802  -3.7876  -3.7406  -3.6076  -3.4925  -3.4180  -3.2876  -3.2165
    -3.1812  -3.0903  -2.9530  -2.9007  -1.0993  -1.0051  -0.8616  -0.8071
    -0.4483  -0.4251  -0.1150  -0.0444   0.2345   0.3991   0.4484   0.4763
     0.5245   0.7469   0.8661   0.9536   1.1029   1.1890   1.3261   1.3544
     1.5980   1.6451   1.7453   1.8887   1.9437   2.0899   2.2501   2.9083
     2.9667   3.1966   3.4551   3.5054   3.5930   3.7690   4.0165   4.0858
     4.2154   4.3432   4.4489   4.6348   4.7236   4.8049   4.8612   5.0095
     5.0824   5.3142   5.8180   5.9983   6.0557   6.1695   6.2424   6.3807
     6.5377   6.5803   6.8911   6.9451   7.2586   7.3020   7.5027   7.6723
     7.8398   7.9647   7.9820   8.0617   8.1436   8.2029   8.3091   8.5125
     8.6416   8.7519   8.9808   9.0931   9.2086   9.2433   9.3364   9.3898
     9.4823   9.6293   9.6629   9.7713   9.9228  10.0267  10.1395  10.2142
    10.2860  10.4361  10.4801  10.5807  10.7042  10.7971  10.8586  10.9564
    11.0463  11.1150  11.2383  11.2692  11.3534  11.4288  11.4624  11.5210
    11.5936  11.7336  11.8533  11.8888  11.9181  12.0160  12.0752  12.1187
    12.1677  12.2690  12.3702  12.4085  12.4756  12.6288  12.7090  12.7765
    12.8021  12.8495  12.9149  12.9936  13.0599  13.1320  13.3071  13.4680
    13.4952  13.5720  13.6015  13.7384  13.8085  13.8225  13.9341  13.9661
    14.0571  14.1133  14.1406  14.2130  14.3780  14.4127  14.4936  14.5376
    14.6454  14.6841  14.7527  14.8371  14.9404  14.9575  15.0587  15.1331
    15.1969  15.2813  15.3211  15.4166  15.5050  15.5470  15.6866  15.7309
    15.7911  15.8732  15.9504  16.0055  16.0623  16.1411  16.2283  16.2772
    16.3553  16.3909  16.4714  16.4965  16.5722  16.7123  16.8060  16.8450
    16.8735  16.9596  16.9738  17.0779  17.1244  17.1803  17.1921  17.2561
    17.3323  17.4096  17.4868  17.5167  17.5756  17.6044  17.6647  17.9084
    17.9490  18.0558  18.1375  18.1813  18.2595  18.3383  18.4483  18.4828
    18.5555  18.6108  18.6545  18.7005  18.7896

          k = 0.2500-0.4516 0.0000 ( 29882 PWs)   bands (ev):

   -60.4987 -60.4720 -59.5713 -59.3267 -59.2918 -58.9861 -58.7639 -58.7347
   -38.4749 -36.9770 -36.7420 -36.6931 -36.6622 -36.6567 -36.6367 -35.9715
   -35.9099 -35.8539 -35.7398 -35.6636 -35.5860 -35.5818 -35.4614 -35.4301
   -35.2456 -35.0464 -35.0388 -35.0210 -34.9602 -34.9017 -33.9515 -33.8077
   -22.1347 -21.9418 -20.7135 -20.5119 -20.3895 -19.9529 -19.8685 -19.7857
   -19.6905 -19.5714 -19.4689 -19.3831 -19.3706 -19.0217 -18.8575 -18.7528
   -18.4033 -18.3242 -16.8467  -9.8572  -9.5868  -9.3296  -9.0539  -8.2031
    -8.1721  -7.7931  -7.6269  -7.5560  -7.4560  -7.2489  -7.1450  -7.0011
    -6.9692  -6.9203  -6.8458  -6.6125  -6.5667  -6.5368  -6.3485  -6.2372
    -6.1112  -6.0636  -6.0308  -5.8515  -5.8071  -5.7537  -5.6630  -5.6038
    -5.5751  -5.4200  -5.3675  -5.2294  -5.1093  -5.1060  -4.9547  -4.9118
    -4.8474  -4.7989  -4.7819  -4.5493  -4.3683  -4.2221  -4.0707  -3.8284
    -3.8150  -3.7859  -3.7418  -3.5434  -3.5296  -3.4269  -3.2891  -3.2668
    -3.2115  -3.0934  -2.9767  -2.9318  -1.1810  -1.0853  -0.8915  -0.7153
    -0.4349  -0.4244  -0.2130   0.2312   0.3766   0.4785   0.4966   0.5657
     0.6055   0.7140   0.9896   0.9997   1.1325   1.2047   1.3397   1.3694
     1.5093   1.5826   1.6088   1.9407   2.0550   2.1759   2.3460   2.5926
     3.0947   3.2238   3.3453   3.6230   3.6541   3.7663   4.0415   4.2686
     4.3717   4.4859   4.5152   4.6942   4.7113   4.8432   4.9552   5.0433
     5.0933   5.1856   5.3385   5.6077   5.8441   6.0802   6.1815   6.5053
     6.6819   6.7383   6.9102   6.9554   7.0098   7.1554   7.2463   7.3245
     7.5191   7.6019   7.7016   8.0328   8.0975   8.1535   8.2617   8.4195
     8.5657   8.6210   8.7415   8.8728   9.0382   9.2874   9.4529   9.5335
     9.5885   9.7882   9.9670  10.0025  10.1461  10.4239  10.4680  10.7099
    10.8048  10.8782  10.9448  11.0387  11.0889  11.1749  11.2173  11.2837
    11.3443  11.4077  11.4953  11.5143  11.5811  11.6481  11.7002  11.7448
    11.7701  11.7883  11.9006  11.9239  11.9956  12.0407  12.1032  12.2023
    12.2237  12.3207  12.4231  12.4527  12.5942  12.7142  12.7404  12.8324
    12.8843  12.9449  13.0161  13.0939  13.1574  13.1874  13.3037  13.3560
    13.4212  13.4726  13.4886  13.6156  13.6465  13.7506  13.8014  13.8402
    13.8751  13.9519  14.0124  14.0605  14.1370  14.1693  14.2049  14.3537
    14.4309  14.5548  14.6232  14.6326  14.7295  14.7471  14.7927  14.8966
    14.9651  15.0506  15.1468  15.1921  15.2194  15.2552  15.3105  15.4119
    15.5284  15.6101  15.6574  15.7724  15.7974  15.8935  16.0503  16.1047
    16.1782  16.2641  16.4765  16.5708  16.6057  16.6495  16.7057  16.7355
    16.8445  16.9279  17.0292  17.0975  17.1996  17.2324  17.3355  17.3919
    17.4218  17.5049  17.5502  17.5809  17.6301  17.6942  17.7229  17.7869
    17.9355  17.9651  18.0416  18.0677  18.1607  18.1946  18.2469  18.2900
    18.3394  18.4084  18.5390  18.6056  18.6971

          k =-0.5000 0.0000 0.0000 ( 29982 PWs)   bands (ev):

   -60.4859 -60.4849 -59.5710 -59.3189 -59.2996 -58.9865 -58.7495 -58.7491
   -38.4749 -36.8366 -36.8305 -36.7067 -36.7044 -36.6479 -36.6468 -35.9713
   -35.8397 -35.7612 -35.7443 -35.7420 -35.6283 -35.6113 -35.4558 -35.4353
   -35.0918 -35.0888 -35.0365 -35.0303 -34.9867 -34.9853 -33.9709 -33.8059
   -22.0199 -22.0148 -20.7319 -20.5848 -20.1595 -20.1455 -19.7860 -19.7347
   -19.6459 -19.5680 -19.5656 -19.5522 -19.0178 -19.0031 -18.8419 -18.8064
   -18.4887 -18.4209 -16.8464  -9.7212  -9.7069  -9.3411  -9.1032  -8.1875
    -7.9226  -7.8722  -7.8341  -7.5851  -7.5542  -7.4442  -7.4099  -7.2173
    -7.1037  -6.8843  -6.8750  -6.7698  -6.4997  -6.4830  -6.4335  -6.4217
    -6.3767  -6.1271  -6.0931  -5.7921  -5.7771  -5.6603  -5.6072  -5.5391
    -5.3549  -5.2808  -5.2249  -4.9296  -4.9078  -4.8302  -4.7586  -4.6718
    -4.6220  -4.5644  -4.5292  -4.4579  -4.4117  -4.3034  -4.0210  -3.9344
    -3.8998  -3.8492  -3.7685  -3.7438  -3.5905  -3.3620  -3.3315  -3.2034
    -3.1715  -3.1619  -2.9647  -2.9242  -0.9879  -0.8813  -0.7920  -0.6517
    -0.5686  -0.4933  -0.1496  -0.0982   0.1345   0.1730   0.3909   0.5029
     0.5087   0.5903   0.6057   1.1513   1.1640   1.1948   1.4115   1.4213
     1.4578   1.5601   1.6544   1.8974   1.9071   2.1284   2.2074   3.3234
     3.3482   3.3545   3.3773   3.3869   3.5232   3.7407   3.7482   3.7733
     4.1437   4.3484   4.5985   4.6560   4.6566   4.8436   4.8916   4.9413
     5.0501   5.3127   5.3357   5.7394   5.7624   6.2998   6.3691   6.8015
     6.8684   6.8969   6.9700   7.2973   7.3036   7.5794   7.7146   7.9594
     8.0320   8.1190   8.1863   8.1983   8.2225   8.3121   8.4357   8.4441
     8.4644   8.6860   8.7349   8.8534   8.8659   8.8840   8.9720   9.0358
     9.2266   9.4416   9.4517   9.6711   9.6983   9.7368   9.8545   9.9748
    10.0792  10.1157  10.2223  10.2338  10.3325  10.5482  10.5685  10.6425
    10.7177  10.8208  11.0405  11.0944  11.2063  11.2791  11.5382  11.6008
    11.7162  11.7593  11.9478  11.9836  12.0338  12.0622  12.1772  12.3071
    12.4155  12.4748  12.5485  12.6154  12.7799  12.8369  12.8723  12.9982
    13.0255  13.0653  13.1202  13.2156  13.3691  13.3818  13.4499  13.5735
    13.7565  13.8295  13.9175  13.9898  14.0093  14.1358  14.2257  14.2428
    14.3252  14.3356  14.4394  14.4880  14.4978  14.5591  14.6938  14.7688
    14.9494  15.0589  15.1019  15.1705  15.1800  15.2865  15.3468  15.3848
    15.4461  15.5551  15.6810  15.7947  15.8875  15.9547  16.0391  16.1361
    16.1709  16.2293  16.2850  16.3244  16.4032  16.4249  16.4702  16.5501
    16.5856  16.6192  16.6716  16.7655  16.7952  16.8437  16.8599  16.9167
    16.9336  16.9782  16.9986  17.1845  17.2533  17.2797  17.3169  17.3804
    17.5186  17.6210  17.7216  17.7919  17.8386  17.9124  17.9349  18.0388
    18.0681  18.0845  18.2185  18.2808  18.3018  18.3145  18.3829  18.4022
    18.4510  18.4989  18.5082  18.5383  18.5795

          k =-0.5000 0.2258 0.0000 ( 29954 PWs)   bands (ev):

   -60.4859 -60.4849 -59.5710 -59.3190 -59.2996 -58.9865 -58.7495 -58.7491
   -38.4749 -36.8367 -36.8305 -36.7067 -36.7044 -36.6475 -36.6464 -35.9713
   -35.8405 -35.7602 -35.7433 -35.7406 -35.6297 -35.6127 -35.4558 -35.4353
   -35.0919 -35.0887 -35.0343 -35.0330 -34.9867 -34.9853 -33.9697 -33.8073
   -22.0181 -22.0131 -20.7243 -20.5731 -20.1342 -20.1121 -19.7819 -19.7437
   -19.6216 -19.6117 -19.5678 -19.4841 -19.1164 -19.1139 -18.8260 -18.7857
   -18.4866 -18.4187 -16.8431  -9.7113  -9.6965  -9.3321  -9.0829  -8.1703
    -7.8877  -7.7716  -7.7249  -7.4728  -7.4558  -7.3660  -7.3457  -7.0969
    -6.9455  -6.8244  -6.7638  -6.7506  -6.5404  -6.4788  -6.4133  -6.3876
    -6.3210  -6.1715  -6.1174  -6.0571  -5.8875  -5.6813  -5.6050  -5.5177
    -5.4305  -5.2710  -5.2362  -5.0761  -5.0388  -4.9915  -4.9766  -4.9537
    -4.8077  -4.7782  -4.5943  -4.4736  -4.4157  -4.3664  -4.1218  -3.9295
    -3.8895  -3.7457  -3.7016  -3.6677  -3.5910  -3.2941  -3.2760  -3.2318
    -3.1564  -3.0925  -3.0315  -2.9243  -0.9825  -0.9121  -0.8117  -0.7086
    -0.6239  -0.4968  -0.0643   0.2109   0.2374   0.3266   0.4009   0.5239
     0.5740   0.6638   0.7123   1.0879   1.1758   1.2237   1.4147   1.4568
     1.4605   1.4977   1.8539   1.8954   1.9386   2.0423   2.1389   2.9733
     3.2147   3.2204   3.4655   3.5194   3.5371   3.8482   3.8651   3.9068
     4.2069   4.3804   4.5291   4.7949   4.8524   4.8549   4.8900   5.1428
     5.2097   5.4266   5.4438   5.7445   5.7565   6.1191   6.1438   6.5431
     6.6191   6.7298   6.8262   6.8962   6.9751   7.1176   7.1562   7.2837
     7.3572   7.5839   7.6727   7.9832   8.0722   8.1890   8.3711   8.5058
     8.6170   8.6318   8.7593   8.8193   8.9543   9.2850   9.5288   9.6992
     9.7675   9.8184   9.8742   9.9204  10.0481  10.0805  10.1266  10.2724
    10.3088  10.3362  10.4066  10.6402  10.7163  10.8121  10.8895  11.0485
    11.1255  11.1886  11.2240  11.4396  11.5314  11.6559  11.6668  11.8130
    11.8822  11.9729  12.0275  12.1221  12.2199  12.2486  12.2904  12.4745
    12.5126  12.6522  12.6871  12.7511  12.8276  12.9721  12.9931  13.0999
    13.1744  13.2654  13.3752  13.4404  13.4752  13.5072  13.5360  13.5681
    13.6171  13.7481  13.8173  13.9680  14.0090  14.0941  14.1081  14.1908
    14.2071  14.3315  14.3545  14.4171  14.4463  14.4997  14.5390  14.6907
    14.7000  14.9662  14.9924  15.0295  15.0668  15.1480  15.1684  15.2205
    15.2330  15.2921  15.3415  15.3796  15.4535  15.5113  15.5299  15.5675
    15.6106  15.6522  15.6773  15.7739  15.7951  15.8437  15.9305  15.9617
    16.0849  16.1113  16.1755  16.3180  16.3456  16.4149  16.4506  16.4921
    16.5889  16.6886  16.7585  16.8201  16.8409  16.9458  16.9738  17.0770
    17.1678  17.2168  17.2517  17.3240  17.3456  17.4663  17.5704  17.5905
    17.6259  17.8086  17.8590  18.0300  18.0593  18.1863  18.2833  18.3597
    18.3775  18.4518  18.4919  18.5543  18.6037

          k =-0.5000-0.4516 0.0000 ( 29868 PWs)   bands (ev):

   -60.4859 -60.4849 -59.5710 -59.3190 -59.2996 -58.9864 -58.7495 -58.7491
   -38.4749 -36.8367 -36.8306 -36.7066 -36.7044 -36.6471 -36.6460 -35.9714
   -35.8413 -35.7591 -35.7423 -35.7392 -35.6311 -35.6140 -35.4558 -35.4353
   -35.0920 -35.0885 -35.0357 -35.0321 -34.9866 -34.9853 -33.9686 -33.8088
   -22.0164 -22.0114 -20.7168 -20.5616 -20.1032 -20.0684 -19.7698 -19.7643
   -19.6866 -19.6549 -19.4192 -19.3126 -19.3074 -19.2943 -18.8164 -18.7736
   -18.4848 -18.4168 -16.8399  -9.7011  -9.6859  -9.3245  -9.0618  -8.1569
    -7.8786  -7.7457  -7.6714  -7.3401  -7.2786  -7.1176  -7.0928  -6.9503
    -6.8238  -6.7429  -6.7161  -6.6698  -6.5950  -6.4989  -6.4797  -6.4103
    -6.3458  -6.1973  -6.0974  -6.0476  -5.9207  -5.8515  -5.7461  -5.5470
    -5.4915  -5.3775  -5.3268  -5.2874  -5.2288  -5.1960  -5.1448  -5.1163
    -4.9413  -4.8886  -4.7913  -4.4782  -4.4355  -4.4006  -4.1302  -4.0284
    -3.8917  -3.7302  -3.6153  -3.4715  -3.4556  -3.3702  -3.2251  -3.1780
    -3.1491  -3.1069  -3.0177  -2.9282  -0.9823  -0.9419  -0.8360  -0.7346
    -0.6511  -0.5000  -0.1727   0.3451   0.4988   0.5392   0.5473   0.5999
     0.6637   0.7552   0.7620   1.0123   1.1997   1.2392   1.4457   1.4625
     1.4757   1.4834   1.7353   1.7655   1.9099   2.1362   2.3042   2.5682
     3.2851   3.2880   3.3748   3.4340   3.4686   3.9401   4.0769   4.1314
     4.2624   4.4089   4.4944   4.7678   4.8768   4.9591   4.9810   5.4875
     5.4913   5.6247   5.6287   5.7330   5.7510   5.9116   5.9432   6.0605
     6.1266   6.3417   6.3953   6.5798   6.6395   6.9367   7.0158   7.2348
     7.3799   7.5747   7.6006   7.7381   7.8142   7.9366   8.1244   8.1806
     8.2774   8.7470   8.8539   8.9128   9.0796   9.2104   9.2450   9.3658
     9.6355   9.9801  10.0469  10.1225  10.2061  10.4435  10.5541  10.6928
    10.7849  10.9408  11.0160  11.0744  11.1209  11.5486  11.6192  11.7383
    11.8313  11.9741  12.0479  12.1045  12.1778  12.2203  12.2500  12.2602
    12.3141  12.4071  12.4295  12.5326  12.5771  12.5831  12.6735  12.6888
    12.7470  12.7765  12.7915  12.8181  12.8548  12.9050  12.9448  13.0587
    13.0853  13.1462  13.1664  13.1820  13.2694  13.3586  13.4041  13.4097
    13.5000  13.5694  13.5914  13.6377  13.7717  13.8936  13.9363  13.9565
    13.9864  13.9987  14.0704  14.0874  14.2095  14.2479  14.2543  14.4149
    14.4234  14.4336  14.4878  14.5302  14.5565  14.5783  14.6077  14.7805
    14.8393  14.8798  14.9184  14.9766  15.0726  15.0820  15.1164  15.1842
    15.1931  15.2022  15.3335  15.4295  15.5355  15.6851  15.7102  15.7685
    15.8573  15.9032  15.9241  15.9622  16.0144  16.1098  16.1447  16.2191
    16.2878  16.3321  16.4195  16.5534  16.5673  16.7814  16.8349  16.8601
    17.1730  17.1865  17.2300  17.3091  17.3157  17.3375  17.3513  17.3907
    17.4339  17.4416  17.6725  17.8187  17.8404  17.8915  18.0005  18.0149
    18.2242  18.3234  18.3489  18.4071  18.4854

          k =-0.2500 0.2258 0.0000 ( 29912 PWs)   bands (ev):

   -60.4987 -60.4720 -59.5713 -59.3267 -59.2918 -58.9861 -58.7639 -58.7347
   -38.4749 -36.9769 -36.7421 -36.6931 -36.6621 -36.6585 -36.6355 -35.9714
   -35.9119 -35.8531 -35.7413 -35.6610 -35.5863 -35.5815 -35.4614 -35.4301
   -35.2457 -35.0456 -35.0388 -35.0214 -34.9602 -34.9017 -33.9524 -33.8063
   -22.1392 -21.9424 -20.7379 -20.5256 -20.4026 -19.9087 -19.8892 -19.8391
   -19.7824 -19.5220 -19.4718 -19.3339 -19.1955 -19.0726 -18.8560 -18.7533
   -18.4032 -18.3252 -16.8492  -9.8619  -9.5896  -9.3407  -9.0765  -8.2160
    -8.1945  -7.9797  -7.7627  -7.5780  -7.4507  -7.3434  -7.2197  -7.1717
    -7.0707  -7.0124  -6.8281  -6.6425  -6.5289  -6.4454  -6.4115  -6.3460
    -6.2142  -6.1142  -5.9916  -5.8696  -5.7511  -5.6958  -5.5949  -5.5547
    -5.5207  -5.3952  -5.1136  -5.0567  -5.0306  -4.9435  -4.9000  -4.7643
    -4.7346  -4.6558  -4.5751  -4.4843  -4.3322  -4.2149  -4.0828  -3.9453
    -3.8801  -3.7562  -3.7258  -3.6241  -3.5252  -3.4281  -3.3006  -3.2193
    -3.1826  -3.0900  -2.9487  -2.8969  -1.0993  -0.9899  -0.8621  -0.8082
    -0.4566  -0.4269  -0.1179  -0.0466   0.2343   0.3964   0.4514   0.4836
     0.5258   0.7400   0.8637   0.9608   1.1030   1.1902   1.3225   1.3546
     1.5974   1.6448   1.7452   1.8887   1.9427   2.0901   2.2505   2.9084
     2.9672   3.1960   3.4559   3.5061   3.5944   3.7705   4.0191   4.0844
     4.2159   4.3456   4.4496   4.6352   4.7242   4.8071   4.8656   5.0124
     5.0831   5.3065   5.8208   5.9951   6.0358   6.1674   6.2428   6.3691
     6.5357   6.5754   6.8937   6.9507   7.2839   7.3058   7.4979   7.6802
     7.8426   7.9633   7.9709   8.0630   8.1382   8.1958   8.3202   8.4950
     8.6542   8.7596   8.9746   9.0943   9.2107   9.2505   9.3464   9.4070
     9.4814   9.6081   9.6554   9.7549   9.9142   9.9891  10.1461  10.2325
    10.3096  10.4362  10.4628  10.5852  10.7035  10.8053  10.8620  10.9662
    11.0482  11.1218  11.2441  11.2733  11.3295  11.4289  11.4657  11.5462
    11.5989  11.7353  11.8533  11.8841  11.9178  12.0261  12.0852  12.1318
    12.1651  12.2691  12.3528  12.4665  12.4858  12.6189  12.7085  12.7535
    12.7921  12.8887  12.9090  12.9482  13.0523  13.1522  13.2927  13.4247
    13.4946  13.5458  13.5756  13.6788  13.7879  13.8343  13.9450  13.9697
    14.0875  14.1259  14.1388  14.2159  14.3817  14.4174  14.4816  14.5402
    14.6474  14.7076  14.7627  14.8502  14.9240  14.9645  15.0651  15.1558
    15.2054  15.2857  15.3315  15.4242  15.5160  15.5461  15.6909  15.7334
    15.8064  15.8492  15.9332  15.9970  16.0556  16.1436  16.2227  16.2535
    16.2944  16.3819  16.4622  16.4937  16.5711  16.6870  16.8001  16.8532
    16.8824  16.9394  16.9686  17.0826  17.1115  17.1758  17.2190  17.2663
    17.3290  17.4318  17.4776  17.5394  17.5906  17.6103  17.6986  17.9284
    17.9572  18.0631  18.1387  18.1784  18.2527  18.3541  18.4338  18.4582
    18.5594  18.6179  18.6472  18.6938  18.7997

 ------ SPIN DOWN ----------


          k = 0.0000 0.0000 0.0000 ( 29975 PWs)   bands (ev):

   -60.5042 -60.4664 -59.5716 -59.3319 -59.2865 -58.9855 -58.7699 -58.7286
   -38.4743 -37.0352 -36.7566 -36.6657 -36.6613 -36.6292 -36.6162 -35.9793
   -35.9715 -35.8645 -35.7435 -35.6733 -35.5659 -35.5177 -35.4645 -35.4272
   -35.3101 -35.0495 -35.0491 -35.0168 -34.9470 -34.8334 -33.9360 -33.8036
   -22.2091 -21.9279 -20.7993 -20.5443 -20.4483 -20.0682 -19.9516 -19.8358
   -19.6965 -19.5612 -19.3128 -19.2354 -19.1959 -19.0819 -18.7906 -18.7870
   -18.3333 -18.2481 -16.8566  -9.9440  -9.5283  -9.3779  -9.0919  -8.4894
    -8.4358  -8.1757  -7.8217  -7.8137  -7.5595  -7.2681  -7.2574  -7.0984
    -7.0614  -6.9239  -6.8853  -6.7970  -6.6917  -6.5043  -6.4555  -6.3253
    -6.1886  -6.0120  -5.9353  -5.9088  -5.7158  -5.6500  -5.5893  -5.5021
    -5.2264  -5.1705  -5.1042  -5.0971  -5.0300  -5.0202  -4.8173  -4.7524
    -4.5565  -4.5419  -4.4569  -4.3458  -4.1618  -4.1104  -4.0438  -3.9829
    -3.8342  -3.6945  -3.6114  -3.4886  -3.3888  -3.3212  -3.2006  -3.1447
    -3.1116  -3.0013  -2.9179  -2.7451  -1.3391  -1.0200  -0.8403  -0.7251
    -0.6797  -0.4061  -0.3646  -0.1394   0.2721   0.3095   0.5236   0.5431
     0.5492   0.5847   0.6050   0.8371   1.0596   1.1688   1.2190   1.2475
     1.7370   1.7730   1.7954   1.8156   1.9401   2.2161   2.2729   2.4711
     3.0130   3.3772   3.4124   3.4197   3.4928   3.6071   3.8333   3.9586
     3.9837   4.2809   4.3672   4.6772   4.7195   4.7454   4.7774   5.2057
     5.3350   5.5872   5.6669   5.7743   6.2912   6.4213   6.7033   7.0211
     7.1361   7.1621   7.2842   7.3980   7.5549   7.6546   7.6609   7.7824
     7.8791   7.9081   8.0457   8.0785   8.1578   8.2436   8.3742   8.4876
     8.5704   8.7422   8.7838   8.9111   8.9575   9.0653   9.1106   9.1557
     9.1846   9.2774   9.5421   9.6170   9.8284   9.8504   9.9101   9.9614
    10.0394  10.3676  10.4274  10.7200  10.7276  10.8402  10.9364  10.9655
    11.0000  11.1007  11.1463  11.2247  11.2683  11.2881  11.3684  11.3892
    11.4185  11.4416  11.4835  11.6254  11.6597  11.6644  11.7519  11.7710
    11.8760  12.0114  12.0816  12.2362  12.2550  12.2946  12.3216  12.3542
    12.3882  12.4510  12.5153  12.5682  12.7910  12.8537  12.9958  13.0125
    13.1814  13.2155  13.2726  13.3941  13.5196  13.5742  13.5948  13.6849
    13.7322  13.8093  13.9339  14.0180  14.1307  14.1374  14.3011  14.3862
    14.4706  14.5139  14.6492  14.7439  14.8396  14.8892  14.9915  15.0637
    15.1338  15.2136  15.2385  15.3189  15.4158  15.4977  15.5272  15.5535
    15.7871  15.9217  16.1940  16.2296  16.3401  16.3965  16.4650  16.4800
    16.5775  16.6190  16.7072  16.7257  16.8952  16.9358  17.0480  17.2192
    17.3081  17.3688  17.3946  17.5363  17.6071  17.6520  17.6727  17.7059
    17.7780  17.9222  18.0674  18.0876  18.1516  18.1652  18.2558  18.3424
    18.3527  18.4040  18.4330  18.6009  18.6436  18.7286  18.7739  18.8403
    18.9976  19.0123  19.1500  19.2306  19.2785

          k = 0.0000 0.2258 0.0000 ( 29933 PWs)   bands (ev):

   -60.5042 -60.4664 -59.5716 -59.3319 -59.2866 -58.9854 -58.7699 -58.7286
   -38.4743 -37.0353 -36.7566 -36.6634 -36.6613 -36.6312 -36.6162 -35.9767
   -35.9715 -35.8654 -35.7420 -35.6763 -35.5657 -35.5178 -35.4645 -35.4272
   -35.3100 -35.0504 -35.0491 -35.0162 -34.9470 -34.8334 -33.9352 -33.8050
   -22.2028 -21.9274 -20.7565 -20.5345 -20.4506 -19.9769 -19.9580 -19.9355
   -19.6896 -19.4439 -19.4017 -19.3598 -19.2930 -18.9524 -18.8196 -18.7866
   -18.3309 -18.2468 -16.8548  -9.9436  -9.5403  -9.3624  -9.0708  -8.4261
    -8.2900  -8.0560  -7.8125  -7.7270  -7.5718  -7.3814  -7.2558  -7.0956
    -6.9777  -6.9037  -6.7601  -6.7573  -6.6721  -6.4461  -6.4295  -6.3579
    -6.0687  -5.9854  -5.8910  -5.8753  -5.7329  -5.7138  -5.6748  -5.5345
    -5.3564  -5.2486  -5.2178  -5.1711  -5.0138  -4.9885  -4.8697  -4.7680
    -4.5455  -4.5394  -4.4727  -4.3842  -4.2776  -4.1847  -4.1422  -3.9236
    -3.8294  -3.6903  -3.6452  -3.5738  -3.4703  -3.3888  -3.3091  -3.2342
    -3.1630  -3.0849  -2.9696  -2.8627  -1.2997  -1.0877  -0.8162  -0.8012
    -0.4059  -0.3835  -0.2997  -0.0124   0.1162   0.3060   0.5205   0.5513
     0.5634   0.7239   0.9010   0.9900   1.0502   1.1037   1.1852   1.2636
     1.6276   1.7061   1.7370   1.8811   2.0178   2.2738   2.2813   2.7207
     2.8992   3.0423   3.3742   3.6333   3.8019   3.8401   3.9463   3.9710
     4.0721   4.4119   4.4194   4.6768   4.6952   4.7444   4.7750   4.9783
     5.2538   5.5514   5.6866   5.7327   5.8693   5.9294   6.2718   6.5412
     6.6408   7.0110   7.2053   7.3806   7.4223   7.6737   7.7840   7.8383
     8.0802   8.1133   8.2255   8.3158   8.4872   8.6578   8.6903   8.7663
     8.8870   8.9320   8.9715   9.0408   9.1523   9.2176   9.2606   9.3002
     9.3920   9.5237   9.6090   9.7244   9.7737   9.7905   9.9064   9.9724
     9.9862  10.0922  10.1421  10.2397  10.3874  10.4301  10.5197  10.5699
    10.7498  10.7789  10.8543  10.9215  11.0287  11.1119  11.1446  11.2376
    11.4733  11.5178  11.6467  11.7343  11.7844  11.8470  11.9199  12.0167
    12.1223  12.3128  12.4094  12.4591  12.5257  12.5605  12.6194  12.6398
    12.7423  12.8663  13.0665  13.0827  13.1537  13.1836  13.2830  13.3041
    13.4718  13.4866  13.5455  13.6647  13.6818  13.7023  13.7794  13.8944
    13.9116  13.9641  13.9863  14.0323  14.1269  14.2186  14.2479  14.3512
    14.4231  14.4959  14.5364  14.6403  14.7031  14.7936  14.8754  14.9038
    14.9800  15.1325  15.1435  15.1794  15.2419  15.3589  15.4481  15.4965
    15.5444  15.6330  15.7608  15.8280  15.9672  16.0934  16.1631  16.2424
    16.3152  16.4158  16.6036  16.6258  16.6772  16.7290  16.8020  16.8566
    16.9755  17.0782  17.1166  17.1738  17.2819  17.3177  17.5871  17.7211
    17.7719  17.8294  17.8986  17.9511  18.1091  18.1710  18.2427  18.2607
    18.3922  18.4382  18.4686  18.5366  18.5702  18.7109  18.7797  18.8081
    18.8770  18.9324  18.9896  19.0241  19.1917

          k = 0.0000-0.4516 0.0000 ( 29906 PWs)   bands (ev):

   -60.5042 -60.4664 -59.5716 -59.3319 -59.2866 -58.9855 -58.7699 -58.7286
   -38.4743 -37.0354 -36.7566 -36.6614 -36.6609 -36.6332 -36.6162 -35.9743
   -35.9716 -35.8664 -35.7405 -35.6793 -35.5656 -35.5178 -35.4645 -35.4272
   -35.3099 -35.0513 -35.0492 -35.0156 -34.9470 -34.8334 -33.9343 -33.8064
   -22.1967 -21.9269 -20.7105 -20.5177 -20.4607 -20.0361 -19.9244 -19.8157
   -19.6894 -19.5001 -19.4551 -19.4405 -19.3538 -18.8766 -18.8395 -18.7870
   -18.3289 -18.2457 -16.8531  -9.9415  -9.5526  -9.3467  -9.0463  -8.4163
    -8.2009  -7.8367  -7.8030  -7.7137  -7.5815  -7.2515  -7.1693  -7.0925
    -6.9987  -6.8107  -6.7216  -6.6858  -6.6260  -6.5881  -6.2557  -6.1457
    -6.1203  -5.9679  -5.9526  -5.9077  -5.7963  -5.7083  -5.6868  -5.6094
    -5.3985  -5.3124  -5.2825  -5.2427  -5.2373  -5.2000  -5.0182  -4.8333
    -4.6690  -4.4343  -4.4016  -4.3675  -4.2313  -4.2021  -4.1494  -3.8504
    -3.8404  -3.8249  -3.6585  -3.5281  -3.5243  -3.4563  -3.4443  -3.3387
    -3.2171  -3.1182  -3.0038  -2.9161  -1.3055  -1.2838  -0.8982  -0.6190
    -0.4060  -0.3210  -0.2016  -0.0260   0.2976   0.3543   0.5216   0.5312
     0.5634   0.8994   0.9414   1.0751   1.0896   1.1292   1.1387   1.2950
     1.4984   1.6625   1.6946   2.0164   2.0777   2.2797   2.3835   2.6623
     2.9602   3.0686   3.3761   3.7158   3.8246   3.8475   4.0680   4.2025
     4.4369   4.4592   4.5313   4.5655   4.6401   4.6866   4.7441   4.9140
     5.0558   5.3300   5.3364   5.5415   5.8044   5.8952   6.2434   6.3123
     6.6846   6.7625   6.9667   7.0915   7.2449   7.6116   7.7867   8.0734
     8.2406   8.4321   8.4617   8.5945   8.6002   8.6284   8.7284   8.8164
     8.8551   8.9345   8.9623   9.0567   9.1678   9.2432   9.2840   9.3062
     9.3513   9.3722   9.5752   9.6365   9.7541   9.7764   9.9738  10.0305
    10.0585  10.1860  10.2486  10.4417  10.5279  10.5746  10.6943  10.7489
    10.8190  11.0689  11.1356  11.1758  11.2216  11.2571  11.3392  11.4386
    11.4797  11.4896  11.5494  11.7204  11.7822  11.8280  11.9506  12.0297
    12.0702  12.1245  12.1941  12.2430  12.3716  12.4227  12.5793  12.6861
    12.7828  12.9174  12.9722  13.0312  13.1460  13.1683  13.2207  13.2267
    13.2943  13.3927  13.4225  13.7068  13.7774  13.7893  13.8062  13.8466
    13.9830  14.0442  14.1211  14.1226  14.2188  14.3045  14.5530  14.6959
    14.7185  14.7349  14.8305  14.8935  15.0239  15.1793  15.2564  15.2962
    15.3301  15.3494  15.3925  15.4465  15.4643  15.5205  15.6542  15.6882
    15.7014  15.7547  15.7661  15.9366  15.9535  15.9865  16.0467  16.0708
    16.1307  16.1597  16.2618  16.3014  16.3448  16.4969  16.5275  16.5292
    16.8580  16.9216  16.9487  16.9980  17.0595  17.0609  17.1317  17.2517
    17.4038  17.4390  17.5698  17.6346  17.7065  17.7515  17.8265  17.9063
    17.9446  17.9979  18.0179  18.0349  18.0703  18.0928  18.1445  18.2482
    18.2640  18.4942  18.6548  18.7684  18.8775

          k = 0.2500 0.0000 0.0000 ( 29937 PWs)   bands (ev):

   -60.4987 -60.4719 -59.5713 -59.3267 -59.2918 -58.9858 -58.7639 -58.7346
   -38.4743 -36.9767 -36.7420 -36.6930 -36.6621 -36.6602 -36.6342 -35.9714
   -35.9139 -35.8522 -35.7427 -35.6586 -35.5865 -35.5812 -35.4614 -35.4301
   -35.2458 -35.0450 -35.0388 -35.0215 -34.9602 -34.9017 -33.9532 -33.8046
   -22.1437 -21.9430 -20.7638 -20.5368 -20.4127 -19.9447 -19.9011 -19.8412
   -19.7513 -19.6089 -19.3876 -19.2393 -19.1693 -19.0779 -18.8521 -18.7544
   -18.4034 -18.3263 -16.8511  -9.8658  -9.5908  -9.3527  -9.0971  -8.3183
    -8.2191  -8.1510  -7.8101  -7.5913  -7.4924  -7.3633  -7.2668  -7.2231
    -7.1810  -7.1026  -6.7843  -6.6673  -6.5475  -6.4500  -6.4425  -6.3339
    -6.2464  -6.1802  -6.0351  -5.8805  -5.7103  -5.6907  -5.6276  -5.5551
    -5.4571  -5.1397  -5.0307  -4.9603  -4.9409  -4.8714  -4.7841  -4.6645
    -4.6307  -4.5297  -4.4137  -4.3835  -4.2955  -4.2506  -4.1377  -4.1011
    -3.8028  -3.7176  -3.6590  -3.6095  -3.5239  -3.3883  -3.2376  -3.1926
    -3.1662  -3.0860  -2.9720  -2.8240  -1.1289  -0.9561  -0.8176  -0.7425
    -0.5374  -0.4304  -0.4033  -0.0146   0.1787   0.3440   0.3793   0.4552
     0.4698   0.6607   0.7164   0.8804   1.1562   1.1722   1.2914   1.3461
     1.6237   1.7139   1.7594   1.8592   1.9600   2.0831   2.1763   2.8122
     3.1538   3.3253   3.4069   3.4515   3.5925   3.7028   3.8632   3.9849
     4.0369   4.2574   4.3453   4.6308   4.7266   4.7653   4.8065   5.0163
     5.0510   5.6097   5.8966   5.9993   6.0733   6.2152   6.4301   6.5537
     6.8515   6.9759   7.2805   7.3791   7.4070   7.5162   7.5478   7.6821
     7.7546   7.9410   8.0098   8.0653   8.1349   8.3291   8.4619   8.5039
     8.6759   8.7413   8.9599   9.0634   9.1142   9.2647   9.3366   9.3568
     9.5023   9.5138   9.5996   9.6714   9.7292   9.7814   9.9488   9.9828
    10.0736  10.1656  10.2100  10.3295  10.4500  10.5374  10.5972  10.6635
    10.7263  10.8477  10.9005  10.9325  11.0607  11.1659  11.1829  11.3656
    11.4597  11.5121  11.5881  11.6223  11.7574  11.8392  11.9504  11.9672
    12.1186  12.2211  12.3050  12.4646  12.5308  12.5918  12.6352  12.6496
    12.8609  12.9624  12.9759  13.0281  13.1789  13.3293  13.3768  13.4060
    13.5153  13.6237  13.7059  13.7642  13.8056  13.8936  13.9258  13.9981
    14.0892  14.1366  14.2447  14.3462  14.4131  14.5024  14.5731  14.6484
    14.6949  14.7579  14.8921  14.9019  14.9408  14.9928  15.1140  15.1506
    15.2620  15.3161  15.4017  15.5412  15.5964  15.6315  15.6789  15.7961
    15.8330  15.9564  16.0619  16.1271  16.1510  16.2436  16.2675  16.5228
    16.5554  16.6817  16.7344  16.8115  16.8858  16.9166  16.9525  16.9911
    17.1353  17.1847  17.2481  17.3577  17.3848  17.4785  17.5505  17.6411
    17.6645  17.7267  17.8436  17.9213  17.9649  18.0223  18.0530  18.1222
    18.2262  18.2592  18.3145  18.4495  18.5023  18.5409  18.6804  18.6975
    18.7441  18.8811  18.9531  19.0093  19.0292

          k = 0.2500 0.2258 0.0000 ( 29912 PWs)   bands (ev):

   -60.4987 -60.4719 -59.5713 -59.3267 -59.2918 -58.9858 -58.7639 -58.7346
   -38.4743 -36.9768 -36.7420 -36.6930 -36.6621 -36.6585 -36.6355 -35.9714
   -35.9119 -35.8531 -35.7413 -35.6613 -35.5861 -35.5815 -35.4614 -35.4301
   -35.2457 -35.0456 -35.0388 -35.0214 -34.9602 -34.9017 -33.9522 -33.8060
   -22.1391 -21.9424 -20.7379 -20.5255 -20.4023 -19.9107 -19.8898 -19.8389
   -19.7789 -19.5235 -19.4715 -19.3338 -19.1955 -19.0725 -18.8560 -18.7533
   -18.4031 -18.3251 -16.8485  -9.8621  -9.5881  -9.3409  -9.0763  -8.2165
    -8.1994  -7.9772  -7.7622  -7.5755  -7.4480  -7.3317  -7.2084  -7.1745
    -7.0683  -7.0410  -6.8420  -6.6152  -6.5397  -6.4567  -6.4127  -6.3404
    -6.2324  -6.1266  -5.9888  -5.8379  -5.7423  -5.6898  -5.5964  -5.5537
    -5.5161  -5.3914  -5.1012  -5.0410  -5.0188  -4.9773  -4.8936  -4.7869
    -4.7396  -4.6554  -4.5641  -4.4917  -4.3266  -4.2160  -4.1023  -3.9542
    -3.8802  -3.7876  -3.7406  -3.6076  -3.4925  -3.4179  -3.2875  -3.2165
    -3.1811  -3.0903  -2.9524  -2.9006  -1.0991  -1.0051  -0.8616  -0.8071
    -0.4483  -0.4251  -0.1149  -0.0444   0.2346   0.3991   0.4484   0.4763
     0.5245   0.7469   0.8661   0.9536   1.1029   1.1891   1.3262   1.3544
     1.5980   1.6451   1.7453   1.8888   1.9437   2.0900   2.2501   2.9083
     2.9667   3.1966   3.4551   3.5055   3.5930   3.7690   4.0165   4.0858
     4.2154   4.3432   4.4489   4.6349   4.7237   4.8050   4.8612   5.0095
     5.0825   5.3142   5.8180   5.9983   6.0557   6.1695   6.2424   6.3808
     6.5378   6.5804   6.8911   6.9451   7.2586   7.3020   7.5027   7.6723
     7.8398   7.9647   7.9821   8.0617   8.1437   8.2029   8.3091   8.5125
     8.6416   8.7519   8.9809   9.0932   9.2086   9.2434   9.3365   9.3898
     9.4824   9.6293   9.6629   9.7714   9.9229  10.0267  10.1395  10.2142
    10.2860  10.4361  10.4802  10.5807  10.7042  10.7972  10.8586  10.9564
    11.0464  11.1151  11.2383  11.2692  11.3534  11.4288  11.4625  11.5210
    11.5937  11.7337  11.8534  11.8889  11.9182  12.0161  12.0752  12.1187
    12.1678  12.2690  12.3703  12.4085  12.4756  12.6288  12.7091  12.7765
    12.8022  12.8496  12.9149  12.9937  13.0600  13.1320  13.3071  13.4680
    13.4952  13.5720  13.6015  13.7384  13.8085  13.8226  13.9342  13.9661
    14.0571  14.1133  14.1407  14.2131  14.3780  14.4127  14.4936  14.5377
    14.6454  14.6841  14.7528  14.8372  14.9405  14.9575  15.0588  15.1331
    15.1969  15.2813  15.3212  15.4166  15.5050  15.5470  15.6867  15.7309
    15.7912  15.8733  15.9504  16.0056  16.0623  16.1412  16.2283  16.2773
    16.3553  16.3909  16.4715  16.4965  16.5723  16.7123  16.8060  16.8451
    16.8735  16.9596  16.9738  17.0779  17.1244  17.1804  17.1921  17.2561
    17.3324  17.4096  17.4868  17.5167  17.5756  17.6044  17.6647  17.9084
    17.9491  18.0558  18.1375  18.1813  18.2595  18.3383  18.4483  18.4829
    18.5555  18.6108  18.6545  18.7005  18.7896

          k = 0.2500-0.4516 0.0000 ( 29882 PWs)   bands (ev):

   -60.4987 -60.4719 -59.5713 -59.3267 -59.2918 -58.9857 -58.7639 -58.7346
   -38.4743 -36.9769 -36.7420 -36.6930 -36.6621 -36.6567 -36.6367 -35.9715
   -35.9099 -35.8539 -35.7398 -35.6636 -35.5860 -35.5818 -35.4614 -35.4301
   -35.2456 -35.0464 -35.0388 -35.0210 -34.9602 -34.9017 -33.9512 -33.8074
[...]
    14.9246  14.9884  15.0468  15.1048  15.1598  15.2235  15.2799  15.3639
    15.4422  15.4832  15.6096  15.6751  15.7324  15.8126  15.8806  15.9591
    16.0102  16.1851  16.2684  16.4333  16.5578  16.5990  16.6032  16.6869
    16.7491  16.7976  16.9003  16.9344  17.0271  17.1421  17.2435  17.2669
    17.3089  17.4101  17.4646  17.4875  17.5850  17.6258  17.6753  17.7476
    17.7869  17.9617  17.9808  18.0606  18.1277  18.1683  18.2097  18.2726
    18.3738  18.4564  18.4907  18.5319  18.5616

          k =-0.5000 0.0000 0.0000 ( 29982 PWs)   bands (ev):

   -60.8965 -60.8958 -60.2784 -59.7702 -59.4768 -59.4613 -58.9115 -58.9112
   -37.2765 -37.2721 -37.1298 -37.1285 -37.0036 -37.0029 -36.6411 -36.5438
   -36.4651 -36.1394 -36.0714 -36.0290 -35.9238 -35.9119 -35.7926 -35.7779
   -35.6050 -35.5842 -35.2468 -35.2454 -35.2250 -35.2225 -35.1331 -35.1295
   -22.3300 -22.3184 -21.1310 -20.9442 -20.2979 -20.2907 -20.2401 -20.1930
   -19.8463 -19.8334 -19.7307 -19.7305 -19.6352 -19.6330 -19.2538 -18.9062
   -18.7928 -18.4295 -18.4067 -10.0234 -10.0065  -8.3405  -8.2299  -8.0602
    -8.0566  -7.7892  -7.7685  -7.7608  -7.6923  -7.6564  -7.6391  -7.4351
    -7.3872  -7.2546  -7.1309  -7.1043  -7.0983  -6.6501  -6.6205  -6.5077
    -6.4569  -6.2814  -6.0887  -5.9728  -5.9663  -5.7894  -5.7697  -5.6834
    -5.5830  -5.5460  -5.3772  -5.2463  -5.0943  -5.0469  -5.0287  -5.0007
    -4.9573  -4.7733  -4.7653  -4.7206  -4.6126  -4.5165  -4.4816  -4.3441
    -4.2300  -4.0211  -4.0015  -3.9099  -3.8991  -3.4387  -3.4262  -3.3750
    -3.3449  -3.2541  -3.2175  -2.9681  -1.3938  -1.3181  -1.2297  -1.1031
    -1.0128  -0.9717  -0.7654  -0.7476  -0.3339  -0.3044  -0.1586   0.0571
     0.0601   0.3260   0.3599   0.3887   0.3991   0.4472   0.9743   1.0164
     1.0524   1.2791   1.2820   1.3317   1.3458   1.4206   1.6352   1.8075
     1.9125   2.7061   2.9040   2.9188   3.1869   3.1882   3.2166   3.2387
     3.2729   3.5669   3.6151   3.7279   4.1664   4.2580   4.6729   4.6744
     5.0097   5.1315   5.2608   5.4886   5.6975   5.8467   6.2315   6.3265
     6.5954   6.7042   6.7838   6.9881   7.1895   7.1933   7.5242   7.7951
     7.9598   8.0040   8.1843   8.2139   8.2741   8.2844   8.4562   8.4853
     8.5870   8.6877   8.7126   8.7485   8.7777   8.8618   8.9631   9.0395
     9.0671   9.3170   9.4535   9.6342   9.6578   9.7110   9.7262   9.7584
     9.7706   9.9810   9.9861  10.0965  10.1243  10.2088  10.4149  10.4897
    10.5496  10.6178  10.8232  11.0541  11.1058  11.2300  11.3528  11.3997
    11.5591  11.6487  11.7456  11.7457  11.7852  11.8718  11.9655  12.1935
    12.2351  12.3816  12.4077  12.4315  12.6039  12.7648  12.8745  12.9378
    12.9879  13.0140  13.1408  13.1719  13.3482  13.4486  13.4604  13.5453
    13.7289  13.8095  13.8326  13.9140  14.0164  14.0415  14.1862  14.1962
    14.2071  14.2821  14.3157  14.3287  14.3503  14.4991  14.5363  14.6397
    14.7029  14.9044  14.9249  15.0651  15.0838  15.2308  15.3012  15.3312
    15.4011  15.4306  15.4867  15.6406  15.7512  15.8112  15.8613  15.9250
    15.9778  16.0265  16.1433  16.1929  16.2740  16.3018  16.3965  16.4001
    16.5415  16.5871  16.5951  16.6751  16.7833  16.7845  16.8676  16.9235
    16.9543  16.9659  17.0039  17.0305  17.0888  17.2488  17.2843  17.3941
    17.4597  17.5543  17.5766  17.6789  17.8378  17.8869  17.9293  17.9673
    18.0086  18.0194  18.0510  18.1177  18.1476  18.3205  18.3562  18.3597
    18.4191  18.4695  18.4835  18.5257  18.5422

          k =-0.5000 0.2258 0.0000 ( 29954 PWs)   bands (ev):

   -60.8965 -60.8958 -60.2784 -59.7702 -59.4768 -59.4613 -58.9115 -58.9112
   -37.2765 -37.2722 -37.1298 -37.1285 -37.0033 -37.0026 -36.6411 -36.5443
   -36.4643 -36.1401 -36.0714 -36.0276 -35.9230 -35.9111 -35.7938 -35.7790
   -35.6050 -35.5842 -35.2470 -35.2464 -35.2249 -35.2224 -35.1330 -35.1294
   -22.3285 -22.3169 -21.1257 -20.9345 -20.2561 -20.2508 -20.1794 -20.1272
   -19.8726 -19.8660 -19.7654 -19.7597 -19.7265 -19.7110 -19.2381 -18.9016
   -18.7897 -18.4286 -18.4068 -10.0141  -9.9970  -8.3415  -8.2309  -7.9223
    -7.8938  -7.7156  -7.6903  -7.6241  -7.5959  -7.5410  -7.4678  -7.3822
    -7.3214  -7.1845  -7.1124  -7.0804  -7.0651  -6.6897  -6.6305  -6.4902
    -6.4150  -6.3778  -6.2934  -6.1382  -6.0762  -5.8761  -5.7790  -5.7175
    -5.6056  -5.5199  -5.4740  -5.2937  -5.2009  -5.1749  -5.1509  -5.1277
    -5.1002  -5.0900  -5.0016  -4.7649  -4.6623  -4.5167  -4.4855  -4.4003
    -4.3015  -3.9241  -3.9114  -3.8340  -3.7697  -3.5063  -3.4014  -3.3445
    -3.3161  -3.2417  -3.1959  -2.9380  -1.3872  -1.3238  -1.2308  -1.1180
    -1.0919  -1.0429  -0.7525  -0.6495  -0.1441  -0.0210   0.0125   0.1166
     0.1438   0.2673   0.3251   0.4411   0.5123   0.5425   0.8487   1.0221
     1.1376   1.2586   1.2984   1.3510   1.3609   1.4163   1.6654   1.7075
     1.8046   2.3589   2.5353   2.9310   3.0422   3.2662   3.3456   3.3661
     3.5893   3.6814   3.7283   3.7718   4.1953   4.2617   4.8508   4.8560
     5.1641   5.2774   5.3460   5.5629   5.7038   5.8636   6.0459   6.1686
     6.5495   6.6607   6.7639   6.8240   6.8820   6.9727   6.9908   7.2038
     7.3477   7.4960   7.6002   7.7999   7.9185   8.0518   8.1645   8.3481
     8.3957   8.4700   8.4996   8.7000   8.8063   8.9678   9.2322   9.4729
     9.5390   9.6699   9.7759   9.8625   9.9202   9.9673  10.0814  10.2147
    10.2865  10.3451  10.3761  10.5380  10.6834  10.7588  10.7947  10.8209
    10.9180  10.9825  11.1037  11.2844  11.3758  11.4568  11.4997  11.6737
    11.7652  11.8406  11.8525  11.8780  12.0500  12.0688  12.1565  12.2454
    12.2906  12.3787  12.6062  12.6291  12.7598  12.8693  12.9302  13.0241
    13.1840  13.2086  13.2604  13.2922  13.3490  13.4782  13.5497  13.5749
    13.5995  13.7491  13.7911  13.8926  13.9014  14.0339  14.0691  14.1342
    14.1465  14.2132  14.2325  14.3272  14.3585  14.4943  14.5056  14.6187
    14.7839  14.8904  14.9189  14.9443  14.9939  15.0522  15.0801  15.1544
    15.2253  15.2591  15.3182  15.3364  15.4473  15.4645  15.4934  15.5466
    15.5686  15.6225  15.6864  15.7417  15.8051  15.8318  15.8932  15.9336
    16.0273  16.0638  16.1604  16.3420  16.3600  16.3835  16.4235  16.4499
    16.4923  16.5749  16.6565  16.6736  16.8219  16.8894  16.8967  16.9643
    17.0132  17.0558  17.2214  17.2438  17.2617  17.3484  17.3867  17.4879
    17.5740  17.6044  17.6859  17.7577  17.9400  18.0394  18.2036  18.2780
    18.3254  18.3294  18.3506  18.4596  18.5022

          k =-0.5000-0.4516 0.0000 ( 29868 PWs)   bands (ev):

   -60.8965 -60.8958 -60.2784 -59.7701 -59.4768 -59.4613 -58.9115 -58.9112
   -37.2766 -37.2722 -37.1297 -37.1285 -37.0030 -37.0023 -36.6411 -36.5448
   -36.4635 -36.1409 -36.0714 -36.0262 -35.9222 -35.9102 -35.7950 -35.7802
   -35.6050 -35.5842 -35.2476 -35.2470 -35.2248 -35.2224 -35.1330 -35.1294
   -22.3270 -22.3154 -21.1204 -20.9250 -20.1992 -20.1962 -20.0759 -20.0150
   -19.9273 -19.9238 -19.8609 -19.8447 -19.7802 -19.7705 -19.2259 -18.8976
   -18.7869 -18.4278 -18.4068 -10.0047  -9.9873  -8.3427  -8.2324  -7.8625
    -7.8389  -7.6534  -7.6328  -7.3441  -7.3318  -7.3115  -7.2709  -7.2135
    -7.1456  -7.0774  -7.0444  -7.0028  -6.9832  -6.8901  -6.8714  -6.5718
    -6.5290  -6.4170  -6.3830  -6.1979  -6.1588  -6.0606  -5.8470  -5.7449
    -5.6047  -5.5715  -5.5189  -5.4806  -5.4467  -5.4187  -5.3989  -5.3635
    -5.3441  -5.1665  -5.1416  -4.7050  -4.5249  -4.4824  -4.4479  -4.3773
    -4.3703  -3.9203  -3.8931  -3.7367  -3.6813  -3.5371  -3.4275  -3.2812
    -3.2547  -3.2145  -3.1992  -2.9061  -1.3800  -1.3299  -1.2280  -1.1487
    -1.1325  -1.0746  -0.7801  -0.5825  -0.1195   0.0062   0.1544   0.3459
     0.3671   0.3767   0.4168   0.5142   0.5925   0.5973   0.7720   1.0167
     1.2045   1.2843   1.2933   1.3573   1.3640   1.3659   1.5694   1.6629
     1.7099   2.0181   2.2135   2.9535   3.0842   3.2933   3.3032   3.4961
     3.7273   3.7527   3.9600   3.9613   4.2360   4.2465   4.8685   4.8695
     5.4666   5.5052   5.5068   5.7250   5.7265   5.9906   6.0180   6.1424
     6.1546   6.3216   6.4150   6.5437   6.5828   6.7187   6.9243   7.0320
     7.2030   7.2811   7.3084   7.5396   7.6980   7.7395   7.7888   7.9511
     8.1376   8.4257   8.7271   8.8942   8.9500   9.0225   9.0423   9.2059
     9.2500   9.3893   9.8825  10.0313  10.0654  10.3176  10.3283  10.5671
    10.6893  10.8667  10.8827  10.9120  10.9483  11.0829  11.3920  11.5845
    11.6080  11.6241  11.7594  11.8696  11.9223  12.0394  12.0936  12.1302
    12.2345  12.2611  12.3250  12.3460  12.4185  12.4682  12.5815  12.5845
    12.6432  12.6829  12.7111  12.7722  12.8472  12.8758  12.9462  13.0068
    13.0337  13.0734  13.0822  13.1445  13.2276  13.2374  13.3594  13.3748
    13.5430  13.6056  13.6486  13.6823  13.8338  13.8602  13.8856  13.9472
    13.9572  14.0737  14.1206  14.1372  14.2047  14.2855  14.3267  14.4891
    14.5131  14.5236  14.5499  14.5763  14.5813  14.6392  14.6679  14.7353
    14.7788  14.8025  14.8111  14.9076  15.0615  15.0751  15.1338  15.1559
    15.1784  15.2204  15.2480  15.3668  15.4972  15.5971  15.6715  15.7263
    15.8232  15.8507  15.9085  15.9128  15.9532  16.0577  16.1523  16.2348
    16.2506  16.2791  16.3147  16.4811  16.5023  16.5850  16.6279  16.6455
    16.8991  16.9515  17.0985  17.1164  17.1676  17.2134  17.3441  17.3782
    17.4255  17.4511  17.5630  17.6542  17.6909  17.7955  17.9208  17.9269
    18.0754  18.1022  18.1367  18.2142  18.3148

          k =-0.2500 0.2258 0.0000 ( 29912 PWs)   bands (ev):

   -60.9095 -60.8828 -60.2787 -59.7698 -59.4855 -59.4526 -58.9258 -58.8968
   -37.4176 -37.1662 -37.1279 -37.0909 -37.0145 -36.9916 -36.6416 -36.5931
   -36.4670 -36.0880 -36.0774 -36.0709 -36.0240 -35.8263 -35.7513 -35.7469
   -35.6106 -35.5790 -35.3768 -35.2584 -35.2351 -35.1842 -35.1074 -35.0356
   -22.4486 -22.2505 -21.1289 -20.8905 -20.5592 -20.4211 -20.0617 -19.9661
   -19.9591 -19.8705 -19.7624 -19.6504 -19.6413 -19.5929 -19.2552 -19.0768
   -18.7596 -18.3369 -18.3246 -10.1709  -9.8835  -8.3939  -8.3063  -8.2070
    -8.1559  -7.9451  -7.9177  -7.7298  -7.6380  -7.4629  -7.2992  -7.2717
    -7.2482  -7.2093  -7.0162  -6.9585  -6.8153  -6.7071  -6.6138  -6.5164
    -6.4575  -6.3880  -6.1290  -6.0486  -5.9369  -5.8937  -5.8518  -5.6794
    -5.6520  -5.5504  -5.3729  -5.3241  -5.2865  -5.2427  -5.2204  -5.0375
    -5.0173  -4.9607  -4.8722  -4.8190  -4.7342  -4.4726  -4.3121  -4.1877
    -4.1225  -3.9532  -3.8484  -3.7935  -3.7654  -3.6146  -3.4907  -3.4341
    -3.3043  -3.2119  -3.1030  -2.8723  -1.6441  -1.3220  -1.3098  -1.2173
    -0.9075  -0.8785  -0.7993  -0.5344  -0.3204  -0.1431  -0.0511   0.0743
     0.2458   0.2915   0.3477   0.4409   0.5249   0.6696   0.7246   0.9221
     0.9863   1.2197   1.2346   1.4117   1.4551   1.5036   1.5851   1.7536
     1.8483   2.2277   2.7973   2.8273   3.0380   3.1182   3.3146   3.3653
     3.4517   3.6909   3.9411   4.1074   4.2284   4.3297   4.5022   4.6968
     4.7413   4.9791   5.2385   5.8330   5.9609   6.0417   6.1144   6.3085
     6.4547   6.6095   6.7270   6.9047   7.0504   7.2280   7.2996   7.4897
     7.6490   7.6931   7.7738   7.8870   7.9569   8.0904   8.2125   8.3667
     8.5347   8.6676   8.7281   8.8015   9.0546   9.1958   9.2622   9.3320
     9.4251   9.4802   9.6174   9.6525   9.7225   9.8962   9.9640  10.0821
    10.1541  10.2707  10.3755  10.5118  10.5625  10.7015  10.8506  10.9262
    10.9652  11.0219  11.0890  11.1576  11.2692  11.3759  11.4275  11.4838
    11.5250  11.6371  11.7261  11.7778  11.8178  11.9128  11.9895  12.0582
    12.0961  12.1337  12.2040  12.3832  12.4394  12.5896  12.6280  12.6669
    12.7332  12.7531  12.9119  12.9363  13.0106  13.0963  13.2009  13.3370
    13.3975  13.4778  13.5153  13.6289  13.7003  13.7205  13.7972  13.8755
    13.9368  14.0348  14.1312  14.1894  14.2552  14.3076  14.4002  14.4740
    14.5484  14.5938  14.6364  14.7551  14.8373  14.8917  14.9974  15.0338
    15.0931  15.1923  15.2746  15.3570  15.4732  15.5297  15.5470  15.6626
    15.7181  15.7818  15.8648  15.8775  16.0036  16.0689  16.1348  16.1652
    16.2407  16.3016  16.3269  16.3957  16.4561  16.6466  16.7171  16.7453
    16.8359  16.9038  16.9348  16.9681  17.0336  17.0693  17.1578  17.1963
    17.3381  17.3946  17.4562  17.5339  17.5958  17.6270  17.6629  17.8111
    17.8572  17.9300  17.9904  18.0400  18.1172  18.2430  18.3008  18.3295
    18.4078  18.4949  18.5877  18.6471  18.6864

     the Fermi energy is    -3.0435 ev

!    total energy              =   -1566.88143773 Ry
     Harris-Foulkes estimate   =   -1566.88143772 Ry
     estimated scf accuracy    <          6.9E-09 Ry

     The total energy is the sum of the following terms:

     one-electron contribution =  -19039.89426143 Ry
     hartree contribution      =    9535.60324353 Ry
     xc contribution           =    -276.85746805 Ry
     ewald contribution        =    8214.26544111 Ry
     smearing contrib. (-TS)   =       0.00160711 Ry

     total magnetization       =     0.07 Bohr mag/cell
     absolute magnetization    =     1.77 Bohr mag/cell

     convergence has been achieved in  16 iterations

     Forces acting on atoms (Ry/au):


     negative rho (up, down):  0.514E-01 0.512E-01
     atom    1 type  1   force =     0.00018971   -0.01551156   -0.00192551
     atom    2 type  1   force =     0.00000051    0.02571045   -0.00392053
     atom    3 type  2   force =     0.01506257   -0.01572072    0.01312165
     atom    4 type  2   force =    -0.00570355    0.00830534   -0.00434275
     atom    5 type  1   force =     0.00212063   -0.10179028   -0.00043702
     atom    6 type  1   force =    -0.00330195    0.10126561   -0.00066203
     atom    7 type  1   force =     0.00006818    0.00097979   -0.00852651
     atom    8 type  1   force =     0.00290013   -0.00147487   -0.00600389
     atom    9 type  2   force =     0.00400231    0.00129411    0.02438147
     atom   10 type  2   force =    -0.00012942   -0.00011961    0.01753371
     atom   11 type  1   force =    -0.02357419   -0.02222774   -0.01490628
     atom   12 type  1   force =    -0.03003064    0.01452181   -0.02092576
     atom   13 type  1   force =     0.00041765   -0.00003498   -0.00711227
     atom   14 type  1   force =     0.00011411   -0.01517098   -0.00276441
     atom   15 type  1   force =     0.00009378    0.02582643   -0.00482062
     atom   16 type  2   force =    -0.01474902   -0.01684366    0.01316650
     atom   17 type  2   force =    -0.00582067    0.00832844    0.00676174
     atom   18 type  1   force =     0.00547357   -0.10129277   -0.00041146
     atom   19 type  1   force =     0.00036501    0.10178207   -0.00079164
     atom   20 type  1   force =    -0.00014674    0.00079057   -0.07836189
     atom   21 type  1   force =     0.00295434   -0.00163566   -0.00733341
     atom   22 type  2   force =    -0.00497733   -0.00117297    0.02436189
     atom   23 type  2   force =     0.00010080   -0.00009580    0.11369022
     atom   24 type  1   force =     0.02991633   -0.01437839   -0.02073203
     atom   25 type  1   force =     0.02373475    0.02238311   -0.01504916
     atom   26 type  1   force =     0.00034936   -0.00006706   -0.00978082
     atom   27 type  3   force =     0.00003440   -0.00233684   -0.00083718
     atom   28 type  3   force =    -0.00001220   -0.00290464   -0.00098906
     atom   29 type  3   force =     0.00004948    0.00080114   -0.00112590
     atom   30 type  3   force =     0.00051402    0.00073769   -0.00124483
     atom   31 type  1   force =    -0.00001593    0.00005197   -0.00001222

     Total force =     0.000056     Total SCF correction =     0.000014
     SCF correction compared to forces is large: reduce conv_thr to get better values

     bfgs converged in   9 scf cycles and   8 bfgs steps
     (criteria: energy < 0.10E-03, force < 0.10E-02)

     End of BFGS Geometry Optimization

     Final energy   =   -1566.8814377273 Ry
Begin final coordinates

ATOMIC_POSITIONS (crystal)
O0       0.000000000   0.000000000   0.379730000    0   0   0
O0       0.000000000   0.500000000   0.400120000    0   0   0
Ti1      0.250000000   0.500000000   0.450660000    0   0   0
Ti1      0.000000000   0.000000000   0.452570000    0   0   0
O0       0.250000000   0.810000000   0.451000000    0   0   0
O0       0.250000000   0.190000000   0.452090000    0   0   0
O0       0.000000000   0.500000000   0.499020000    0   0   0
O0       0.000000000   0.000000000   0.526580000    0   0   0
Ti1      0.250000000   0.000000000   0.581030000    0   0   0
Ti1      0.000000000   0.500000000   0.569590000    0   0   0
O0       0.250000000   0.690000000   0.580340000    0   0   0
O0       0.250000000   0.310000000   0.580350000    0   0   0
O0       0.000000000   0.000000000   0.622310000    0   0   0
O0       0.500000000   0.000000000   0.379730000    0   0   0
O0       0.500000000   0.500000000   0.400120000    0   0   0
Ti1      0.750000000   0.500000000   0.450660000    0   0   0
Ti1      0.500000000   0.000000000   0.452570000    0   0   0
O0       0.750000000   0.810000000   0.451000000    0   0   0
O0       0.750000000   0.190000000   0.452090000    0   0   0
O0       0.500000000   0.500000000   0.499020000    0   0   0
O0       0.500000000   0.000000000   0.526580000    0   0   0
Ti1      0.750000000   0.000000000   0.581030000    0   0   0
Ti1      0.500000000   0.500000000   0.569590000    0   0   0
O0       0.750000000   0.690000000   0.580340000    0   0   0
O0       0.750000000   0.310000000   0.580350000    0   0   0
O0       0.500000000   0.000000000   0.622310000    0   0   0
H2      -0.000540000   0.631560000   0.381380000    0   0   0
H2       0.499460000   0.631560000   0.381380000    0   0   0
H2       0.150180000   0.022770000   0.364800000    0   0   0
H2       0.650180000   0.022770000   0.364800000    0   0   0
O0       0.499816866   0.499929293   0.642901804
End final coordinates



     init_run     :     90.44s CPU    118.75s WALL (       1 calls)
     electrons    :  94047.98s CPU 124112.26s WALL (       9 calls)
     update_pot   :     49.89s CPU     58.89s WALL (       8 calls)
     forces       :    479.84s CPU    521.94s WALL (       9 calls)

     Called by init_run:
     wfcinit      :     70.46s CPU     97.33s WALL (       1 calls)
     potinit      :      2.81s CPU      3.73s WALL (       1 calls)

     Called by electrons:
     c_bands      :  73377.05s CPU  96805.99s WALL (     357 calls)
     sum_band     :  14637.67s CPU  20157.02s WALL (     357 calls)
     v_of_rho     :    381.86s CPU    616.39s WALL (     365 calls)
     newd         :   5567.42s CPU   6171.68s WALL (     365 calls)
     mix_rho      :     77.37s CPU    132.38s WALL (     357 calls)

     Called by c_bands:
     init_us_2    :    126.24s CPU    127.53s WALL (   14480 calls)
     cegterg      :  72908.62s CPU  96331.70s WALL (    7140 calls)

     Called by *egterg:
     h_psi        :  39953.43s CPU  60859.61s WALL (   22912 calls)
     s_psi        :   2774.38s CPU   2776.45s WALL (   22912 calls)
     g_psi        :     60.60s CPU     60.63s WALL (   15752 calls)
     cdiaghg      :  16632.87s CPU  17188.45s WALL (   22712 calls)

     Called by h_psi:
     add_vuspsi   :   2805.84s CPU   2817.06s WALL (   22912 calls)

     General routines
     calbec       :   4436.95s CPU   4881.95s WALL (   30232 calls)
     fft          :    856.93s CPU   1637.39s WALL (   11404 calls)
     ffts         :     12.03s CPU     23.11s WALL (    1444 calls)
     fftw         :  35979.27s CPU  61400.20s WALL (11560796 calls)
     interpolate  :     83.18s CPU    152.01s WALL (    1444 calls)

     Parallel routines
     fft_scatter  :  26336.60s CPU  52319.16s WALL (11573644 calls)

     PWSCF        :     1d    2h19m CPU        1d   10h42m WALL


   This run was terminated on:  20:13: 0  20Mar2014            

=------------------------------------------------------------------------------=
   JOB DONE.
=------------------------------------------------------------------------------=
