
     Program PWSCF v.5.0.2 (svn rev. 9656) starts on  5Jun2014 at 21:42: 7 

     This program is part of the open-source Quantum ESPRESSO suite
     for quantum simulation of materials; please cite
         "P. Giannozzi et al., J. Phys.:Condens. Matter 21 395502 (2009);
          URL http://www.quantum-espresso.org", 
     in publications or presentations arising from this work. More details at
     http://www.quantum-espresso.org/quote.php

     Parallel version (MPI), running on    16 processors
     K-points division:     npool     =       4
     R & G space division:  proc/nbgrp/npool/nimage =       4

     Current dimensions of program PWSCF are:
     Max number of different atomic species (ntypx) = 10
     Max number of k-points (npk) =  40000
     Max angular momentum in pseudopotentials (lmaxx) =  3
     Reading input from pwscf.in
Warning: card &CELL ignored
Warning: card / ignored

     Subspace diagonalization in iterative solution of the eigenvalue problem:
     a serial algorithm will be used


     Parallelization info
     --------------------
     sticks:   dense  smooth     PW     G-vecs:    dense   smooth      PW
     Min        1424     456    126               337026    61014    9038
     Max        1425     457    127               337029    61047    9044
     Sum        5697    1827    505              1348107   244131   36167



     bravais-lattice index     =            0
     lattice parameter (alat)  =      11.7541  a.u.
     unit-cell volume          =    7139.8207 (a.u.)^3
     number of atoms/cell      =           33
     number of atomic types    =            3
     number of electrons       =       245.00
     number of Kohn-Sham states=          367
     kinetic-energy cutoff     =      40.0000  Ry
     charge density cutoff     =     500.0000  Ry
     convergence threshold     =      1.0E-06
     mixing beta               =       0.3000
     number of iterations used =            8  plain     mixing
     Exchange-correlation      = SLA  PW   PBE  PBE ( 1 4 3 4 0)
     EXX-fraction              =        0.00
     nstep                     =           50


     celldm(1)=  11.754097  celldm(2)=   0.000000  celldm(3)=   0.000000
     celldm(4)=   0.000000  celldm(5)=   0.000000  celldm(6)=   0.000000

     crystal axes: (cart. coord. in units of alat)
               a(1) = (   1.000000   0.000000   0.000000 )  
               a(2) = (   0.000000   1.034513   0.000000 )  
               a(3) = (   0.000000   0.000000   4.249947 )  

     reciprocal axes: (cart. coord. in units 2 pi/alat)
               b(1) = (  1.000000  0.000000  0.000000 )  
               b(2) = (  0.000000  0.966638  0.000000 )  
               b(3) = (  0.000000  0.000000  0.235297 )  


     PseudoPot. # 1 for O  read from file:
     /home/camp/zhonxu/pseudo/o_pbe_v1.01.uspp.F.UPF
     MD5 check sum: 2bcb18d16ea4b960afae9ec6d52f22d2
     Pseudo is Ultrasoft + core correction, Zval =  6.0
     Generated by new atomic code, or converted to UPF format
     Using radial grid of  737 points,  5 beta functions with: 
                l(1) =   0
                l(2) =   0
                l(3) =   1
                l(4) =   1
                l(5) =   2
     Q(r) pseudized with  8 coefficients,  rinner =    0.900   0.900   0.900
                                                       0.900   0.900

     PseudoPot. # 2 for Rh read from file:
     /home/camp/zhonxu/pseudo/rh_pbe_v1.uspp.F.UPF
     MD5 check sum: 37b626987ad0dd8ec6bf4cc9ef289918
     Pseudo is Ultrasoft + core correction, Zval = 15.0
     Generated by new atomic code, or converted to UPF format
     Using radial grid of  969 points,  7 beta functions with: 
                l(1) =   0
                l(2) =   0
                l(3) =   1
                l(4) =   1
                l(5) =   2
                l(6) =   2
                l(7) =   2
     Q(r) pseudized with  6 coefficients,  rinner =    1.050   1.050   1.050
                                                       1.050   1.050

     PseudoPot. # 3 for H  read from file:
     /home/camp/zhonxu/pseudo/h_pbe_v1.uspp.F.UPF
     MD5 check sum: 3408e3ff4ec8b0a4e358431e7e038a48
     Pseudo is Ultrasoft, Zval =  1.0
     Generated by new atomic code, or converted to UPF format
     Using radial grid of  615 points,  2 beta functions with: 
                l(1) =   0
                l(2) =   0
     Q(r) pseudized with  8 coefficients,  rinner =    0.700

     atomic species   valence    mass     pseudopotential
        O0             6.00    15.99940     O ( 1.00)
        Rh1           15.00   102.90550     Rh( 1.00)
        H2             1.00     1.00794     H ( 1.00)


     Simplified LDA+U calculation (l_max = 2) with parameters (eV):
     atomic species    L          U    alpha       J0     beta
        Rh1            2     8.0000   0.0000   0.0000   0.0000



     No symmetry found



   Cartesian axes

     site n.     atom                  positions (alat units)
         1           O0  tau(   1) = (   0.0000000   0.0000000   1.6055876  )
         2           O0  tau(   2) = (   0.0000000   0.5172566   1.7058013  )
         3           Rh1 tau(   3) = (   0.2500000   0.5172566   1.9245886  )
         4           Rh1 tau(   4) = (   0.0000000   0.0000000   1.9225486  )
         5           O0  tau(   5) = (   0.2500000   0.8379556   1.9216561  )
         6           O0  tau(   6) = (   0.2500000   0.1965575   1.9210611  )
         7           O0  tau(   7) = (   0.0000000   0.5172566   2.1183012  )
         8           O0  tau(   8) = (   0.0000000   0.0000000   2.2433346  )
         9           Rh1 tau(   9) = (   0.2500000   0.0000000   2.4442296  )
        10           Rh1 tau(  10) = (   0.0000000   0.5172566   2.4248924  )
        11           O0  tau(  11) = (   0.2500000   0.7138141   2.4423597  )
        12           O0  tau(  12) = (   0.2500000   0.3206991   2.4526445  )
        13           O0  tau(  13) = (   0.0000000   0.0000000   2.6373472  )
        14           O0  tau(  14) = (   0.5000000   0.0000000   1.6058426  )
        15           O0  tau(  15) = (   0.5000000   0.5172566   1.7065663  )
        16           Rh1 tau(  16) = (   0.7500000   0.5172566   1.9245461  )
        17           Rh1 tau(  17) = (   0.5000000   0.0000000   1.9225486  )
        18           O0  tau(  18) = (   0.7500000   0.8379556   1.9215286  )
        19           O0  tau(  19) = (   0.7500000   0.1965575   1.9212311  )
        20           O0  tau(  20) = (   0.5000000   0.5172566   2.1254411  )
        21           O0  tau(  21) = (   0.5000000   0.0000000   2.2428246  )
        22           Rh1 tau(  22) = (   0.7500000   0.0000000   2.4442296  )
        23           Rh1 tau(  23) = (   0.5000000   0.5172566   2.4566820  )
        24           O0  tau(  24) = (   0.7500000   0.7138141   2.4423172  )
        25           O0  tau(  25) = (   0.7500000   0.3206991   2.4526445  )
        26           O0  tau(  26) = (   0.5000000   0.0000000   2.6350523  )
        27           H2  tau(  27) = (   0.0000500   0.6607849   1.6355072  )
        28           H2  tau(  28) = (   0.4999200   0.6608884   1.6361872  )
        29           H2  tau(  29) = (   0.1477700   0.0372011   1.5603681  )
        30           H2  tau(  30) = (   0.6484400   0.0346148   1.5604531  )
        31           O0  tau(  31) = (   0.4997300   0.5556577   2.7651007  )
        32           O0  tau(  32) = (   0.5003300   0.3573415   2.8834192  )
        33           H2  tau(  33) = (   0.4999300   0.4160398   3.0312324  )

     number of k points=    10  Methfessel-Paxton smearing, width (Ry)=  0.0100
                       cart. coord. in units 2pi/alat
        k(    1) = (   0.0000000   0.0000000   0.0000000), wk =   0.1250000
        k(    2) = (   0.0000000   0.2416596   0.0000000), wk =   0.2500000
        k(    3) = (   0.0000000  -0.4833191   0.0000000), wk =   0.1250000
        k(    4) = (   0.2500000   0.0000000   0.0000000), wk =   0.2500000
        k(    5) = (   0.2500000   0.2416596   0.0000000), wk =   0.2500000
        k(    6) = (   0.2500000  -0.4833191   0.0000000), wk =   0.2500000
        k(    7) = (  -0.5000000   0.0000000   0.0000000), wk =   0.1250000
        k(    8) = (  -0.5000000   0.2416596   0.0000000), wk =   0.2500000
        k(    9) = (  -0.5000000  -0.4833191   0.0000000), wk =   0.1250000
        k(   10) = (  -0.2500000   0.2416596   0.0000000), wk =   0.2500000

     Dense  grid:  1348107 G-vectors     FFT dimensions: (  90,  90, 360)

     Smooth grid:   244131 G-vectors     FFT dimensions: (  48,  50, 216)

     Largest allocated arrays     est. size (Mb)     dimensions
        Kohn-Sham Wavefunctions        42.99 Mb     (   7677,  367)
        Atomic wavefunctions           21.20 Mb     (   7677,  181)
        NL pseudopotentials            53.18 Mb     (   7677,  454)
        Each V/rho on FFT grid         11.12 Mb     ( 729000)
        Each G-vector array             2.57 Mb     ( 337026)
        G-vector shells                 1.12 Mb     ( 146445)
     Largest temporary arrays     est. size (Mb)     dimensions
        Auxiliary wavefunctions       171.96 Mb     (   7677, 1468)
        Each subspace H/S matrix       32.88 Mb     (1468,1468)
        Each <psi_i|beta_j> matrix      2.54 Mb     (    454,  367)
        Arrays for rho mixing          88.99 Mb     ( 729000,   8)

     Check: negative/imaginary core charge=   -0.000003    0.000000

     Initial potential from superposition of free atoms
     Check: negative starting charge=   -0.646062

     starting charge  240.99914, renormalised to  245.00000

     negative rho (up, down):  0.657E+00 0.000E+00
     Number of +U iterations with fixed ns =  0
     Starting occupations:
 --- enter write_ns ---
 LDA+U parameters:
U( 2)     =  8.00000000
alpha( 2) =  0.00000000
atom    3   Tr[ns(na)] =   7.00000
    eigenvalues: 
  0.700  0.700  0.700  0.700  0.700
    eigenvectors:
  1.000  0.000  0.000  0.000  0.000
  0.000  1.000  0.000  0.000  0.000
  0.000  0.000  1.000  0.000  0.000
  0.000  0.000  0.000  1.000  0.000
  0.000  0.000  0.000  0.000  1.000
    occupations:
  0.700  0.000  0.000  0.000  0.000
  0.000  0.700  0.000  0.000  0.000
  0.000  0.000  0.700  0.000  0.000
  0.000  0.000  0.000  0.700  0.000
  0.000  0.000  0.000  0.000  0.700
atom    4   Tr[ns(na)] =   7.00000
    eigenvalues: 
  0.700  0.700  0.700  0.700  0.700
    eigenvectors:
  1.000  0.000  0.000  0.000  0.000
  0.000  1.000  0.000  0.000  0.000
  0.000  0.000  1.000  0.000  0.000
  0.000  0.000  0.000  1.000  0.000
  0.000  0.000  0.000  0.000  1.000
    occupations:
  0.700  0.000  0.000  0.000  0.000
  0.000  0.700  0.000  0.000  0.000
  0.000  0.000  0.700  0.000  0.000
  0.000  0.000  0.000  0.700  0.000
  0.000  0.000  0.000  0.000  0.700
atom    9   Tr[ns(na)] =   7.00000
    eigenvalues: 
  0.700  0.700  0.700  0.700  0.700
    eigenvectors:
  1.000  0.000  0.000  0.000  0.000
  0.000  1.000  0.000  0.000  0.000
  0.000  0.000  1.000  0.000  0.000
  0.000  0.000  0.000  1.000  0.000
  0.000  0.000  0.000  0.000  1.000
    occupations:
  0.700  0.000  0.000  0.000  0.000
  0.000  0.700  0.000  0.000  0.000
  0.000  0.000  0.700  0.000  0.000
  0.000  0.000  0.000  0.700  0.000
  0.000  0.000  0.000  0.000  0.700
atom   10   Tr[ns(na)] =   7.00000
    eigenvalues: 
  0.700  0.700  0.700  0.700  0.700
    eigenvectors:
  1.000  0.000  0.000  0.000  0.000
  0.000  1.000  0.000  0.000  0.000
  0.000  0.000  1.000  0.000  0.000
  0.000  0.000  0.000  1.000  0.000
  0.000  0.000  0.000  0.000  1.000
    occupations:
  0.700  0.000  0.000  0.000  0.000
  0.000  0.700  0.000  0.000  0.000
  0.000  0.000  0.700  0.000  0.000
  0.000  0.000  0.000  0.700  0.000
  0.000  0.000  0.000  0.000  0.700
atom   16   Tr[ns(na)] =   7.00000
    eigenvalues: 
  0.700  0.700  0.700  0.700  0.700
    eigenvectors:
  1.000  0.000  0.000  0.000  0.000
  0.000  1.000  0.000  0.000  0.000
  0.000  0.000  1.000  0.000  0.000
  0.000  0.000  0.000  1.000  0.000
  0.000  0.000  0.000  0.000  1.000
    occupations:
  0.700  0.000  0.000  0.000  0.000
  0.000  0.700  0.000  0.000  0.000
  0.000  0.000  0.700  0.000  0.000
  0.000  0.000  0.000  0.700  0.000
  0.000  0.000  0.000  0.000  0.700
atom   17   Tr[ns(na)] =   7.00000
    eigenvalues: 
  0.700  0.700  0.700  0.700  0.700
    eigenvectors:
  1.000  0.000  0.000  0.000  0.000
  0.000  1.000  0.000  0.000  0.000
  0.000  0.000  1.000  0.000  0.000
  0.000  0.000  0.000  1.000  0.000
  0.000  0.000  0.000  0.000  1.000
    occupations:
  0.700  0.000  0.000  0.000  0.000
  0.000  0.700  0.000  0.000  0.000
  0.000  0.000  0.700  0.000  0.000
  0.000  0.000  0.000  0.700  0.000
  0.000  0.000  0.000  0.000  0.700
atom   22   Tr[ns(na)] =   7.00000
    eigenvalues: 
  0.700  0.700  0.700  0.700  0.700
    eigenvectors:
  1.000  0.000  0.000  0.000  0.000
  0.000  1.000  0.000  0.000  0.000
  0.000  0.000  1.000  0.000  0.000
  0.000  0.000  0.000  1.000  0.000
  0.000  0.000  0.000  0.000  1.000
    occupations:
  0.700  0.000  0.000  0.000  0.000
  0.000  0.700  0.000  0.000  0.000
  0.000  0.000  0.700  0.000  0.000
  0.000  0.000  0.000  0.700  0.000
  0.000  0.000  0.000  0.000  0.700
atom   23   Tr[ns(na)] =   7.00000
    eigenvalues: 
  0.700  0.700  0.700  0.700  0.700
    eigenvectors:
  1.000  0.000  0.000  0.000  0.000
  0.000  1.000  0.000  0.000  0.000
  0.000  0.000  1.000  0.000  0.000
  0.000  0.000  0.000  1.000  0.000
  0.000  0.000  0.000  0.000  1.000
    occupations:
  0.700  0.000  0.000  0.000  0.000
  0.000  0.700  0.000  0.000  0.000
  0.000  0.000  0.700  0.000  0.000
  0.000  0.000  0.000  0.700  0.000
  0.000  0.000  0.000  0.000  0.700
N of occupied +U levels =  56.0000000
 --- exit write_ns ---
 Atomic wfc used for LDA+U Projector are NOT orthogonalized
     Starting wfc are  181 randomized atomic wfcs

     total cpu time spent up to now is      158.9 secs

     per-process dynamical memory:   432.8 Mb

     Self-consistent Calculation

     iteration #  1     ecut=    40.00 Ry     beta=0.30
     Davidson diagonalization with overlap
     ethr =  1.00E-02,  avg # of iterations =  5.9
 --- enter write_ns ---
 LDA+U parameters:
U( 2)     =  8.00000000
alpha( 2) =  0.00000000
atom    3   Tr[ns(na)] =   7.34327
    eigenvalues: 
  0.467  0.499  0.794  0.953  0.959
    eigenvectors:
  0.000  0.202  0.002  0.786  0.010
  0.998  0.002  0.000  0.000  0.000
  0.000  0.000  0.997  0.002  0.001
  0.001  0.797  0.000  0.199  0.003
  0.000  0.000  0.001  0.013  0.986
    occupations:
  0.861 -0.001  0.007 -0.182 -0.000
 -0.001  0.467  0.000  0.002 -0.007
  0.007  0.000  0.795 -0.004 -0.005
 -0.182  0.002 -0.004  0.591  0.000
 -0.000 -0.007 -0.005  0.000  0.958
atom    4   Tr[ns(na)] =   6.93629
    eigenvalues: 
  0.488  0.515  0.697  0.808  0.960
    eigenvectors:
  0.000  0.992  0.000  0.000  0.008
  0.000  0.000  0.037  0.963  0.000
  0.000  0.000  0.963  0.037  0.000
  0.000  0.008  0.000  0.000  0.992
  1.000  0.000  0.000  0.000  0.000
    occupations:
  0.519 -0.002 -0.001  0.040  0.000
 -0.002  0.804  0.021  0.000 -0.000
 -0.001  0.021  0.702 -0.002  0.000
  0.040  0.000 -0.002  0.957 -0.000
  0.000 -0.000  0.000 -0.000  0.488
atom    9   Tr[ns(na)] =   7.28875
    eigenvalues: 
  0.508  0.519  0.817  0.831  0.968
    eigenvectors:
  0.003  0.151  0.000  0.000  0.846
  0.983  0.017  0.000  0.000  0.000
  0.000  0.000  0.219  0.781  0.000
  0.014  0.832  0.000  0.000  0.154
  0.000  0.000  0.781  0.219  0.000
    occupations:
  0.899 -0.003 -0.001 -0.162 -0.000
 -0.003  0.509  0.000 -0.000 -0.000
 -0.001  0.000  0.828 -0.007 -0.006
 -0.162 -0.000 -0.007  0.588  0.000
 -0.000 -0.000 -0.006  0.000  0.820
atom   10   Tr[ns(na)] =   7.53524
    eigenvalues: 
  0.483  0.491  0.893  0.932  0.968
    eigenvectors:
  0.989  0.000  0.000  0.000  0.011
  0.000  0.001  0.000  0.999  0.000
  0.000  0.000  1.000  0.000  0.000
  0.011  0.000  0.000  0.000  0.989
  0.000  0.999  0.000  0.001  0.000
    occupations:
  0.489  0.000  0.007  0.051 -0.000
  0.000  0.932 -0.001 -0.000 -0.012
  0.007 -0.001  0.893 -0.000  0.000
  0.051 -0.000 -0.000  0.962 -0.000
 -0.000 -0.012  0.000 -0.000  0.492
atom   16   Tr[ns(na)] =   7.34295
    eigenvalues: 
  0.467  0.499  0.794  0.953  0.959
    eigenvectors:
  0.000  0.202  0.002  0.768  0.028
  0.998  0.002  0.000  0.000  0.000
  0.000  0.000  0.995  0.002  0.003
  0.001  0.797  0.000  0.194  0.007
  0.000  0.000  0.002  0.036  0.962
    occupations:
  0.861  0.001  0.007 -0.182  0.001
  0.001  0.467 -0.001 -0.002 -0.007
  0.007 -0.001  0.795 -0.004  0.007
 -0.182 -0.002 -0.004  0.591 -0.001
  0.001 -0.007  0.007 -0.001  0.958
atom   17   Tr[ns(na)] =   6.94580
    eigenvalues: 
  0.487  0.515  0.699  0.810  0.961
    eigenvectors:
  0.000  0.992  0.000  0.000  0.008
  0.000  0.000  0.031  0.969  0.000
  0.000  0.000  0.969  0.031  0.000
  0.000  0.008  0.000  0.000  0.992
  1.000  0.000  0.000  0.000  0.000
    occupations:
  0.519 -0.002 -0.001  0.040  0.000
 -0.002  0.807  0.019  0.000 -0.000
 -0.001  0.019  0.703 -0.002  0.000
  0.040  0.000 -0.002  0.957  0.000
  0.000 -0.000  0.000  0.000  0.487
atom   22   Tr[ns(na)] =   7.28920
    eigenvalues: 
  0.508  0.519  0.818  0.831  0.968
    eigenvectors:
  0.006  0.148  0.000  0.000  0.846
  0.969  0.031  0.000  0.000  0.000
  0.000  0.000  0.216  0.784  0.000
  0.025  0.820  0.000  0.000  0.154
  0.000  0.000  0.784  0.216  0.000
    occupations:
  0.899  0.003 -0.001 -0.162  0.000
  0.003  0.509  0.000  0.001  0.000
 -0.001  0.000  0.828 -0.007  0.006
 -0.162  0.001 -0.007  0.588  0.000
  0.000  0.000  0.006  0.000  0.821
atom   23   Tr[ns(na)] =   7.05532
    eigenvalues: 
  0.481  0.539  0.666  0.888  0.955
    eigenvectors:
  0.000  0.989  0.000  0.004  0.006
  0.004  0.000  0.996  0.000  0.000
  0.000  0.004  0.000  0.996  0.000
  0.000  0.006  0.000  0.000  0.994
  0.996  0.000  0.004  0.000  0.000
    occupations:
  0.543 -0.000  0.022  0.033  0.000
 -0.000  0.665 -0.001 -0.000 -0.012
  0.022 -0.001  0.886 -0.003  0.000
  0.033 -0.000 -0.003  0.952 -0.000
  0.000 -0.012  0.000 -0.000  0.482
N of occupied +U levels =  57.7368214
 --- exit write_ns ---

     negative rho (up, down):  0.663E+00 0.000E+00

     total cpu time spent up to now is      634.0 secs

     total energy              =   -2007.97483953 Ry
     Harris-Foulkes estimate   =   -2011.85438343 Ry
     estimated scf accuracy    <      10.57350101 Ry

     iteration #  2     ecut=    40.00 Ry     beta=0.30
     Davidson diagonalization with overlap
     ethr =  4.32E-03,  avg # of iterations =  1.2

     negative rho (up, down):  0.669E+00 0.000E+00

     total cpu time spent up to now is      891.6 secs

     total energy              =   -2007.47545082 Ry
     Harris-Foulkes estimate   =   -2011.15871190 Ry
     estimated scf accuracy    <      17.89454300 Ry

     iteration #  3     ecut=    40.00 Ry     beta=0.30
     Davidson diagonalization with overlap
     ethr =  4.32E-03,  avg # of iterations =  3.0

     negative rho (up, down):  0.673E+00 0.000E+00

     total cpu time spent up to now is     1160.8 secs

     total energy              =   -2006.83518940 Ry
     Harris-Foulkes estimate   =   -2013.44588556 Ry
     estimated scf accuracy    <      93.55156622 Ry

     iteration #  4     ecut=    40.00 Ry     beta=0.30
     Davidson diagonalization with overlap
     ethr =  4.32E-03,  avg # of iterations =  3.0

     negative rho (up, down):  0.676E+00 0.000E+00

     total cpu time spent up to now is     1412.4 secs

     total energy              =   -2010.23799679 Ry
     Harris-Foulkes estimate   =   -2011.02090383 Ry
     estimated scf accuracy    <       6.05627717 Ry

     iteration #  5     ecut=    40.00 Ry     beta=0.30
     Davidson diagonalization with overlap
     ethr =  2.47E-03,  avg # of iterations =  1.0

     negative rho (up, down):  0.679E+00 0.000E+00

     total cpu time spent up to now is     1648.2 secs

     total energy              =   -2010.41366226 Ry
     Harris-Foulkes estimate   =   -2010.60788867 Ry
     estimated scf accuracy    <       1.80948366 Ry

     iteration #  6     ecut=    40.00 Ry     beta=0.30
     Davidson diagonalization with overlap
     ethr =  7.39E-04,  avg # of iterations =  1.0

     negative rho (up, down):  0.681E+00 0.000E+00

     total cpu time spent up to now is     1887.2 secs

     total energy              =   -2010.44600460 Ry
     Harris-Foulkes estimate   =   -2010.54833095 Ry
     estimated scf accuracy    <       1.15602777 Ry

     iteration #  7     ecut=    40.00 Ry     beta=0.30
     Davidson diagonalization with overlap
     ethr =  4.72E-04,  avg # of iterations =  1.0

     negative rho (up, down):  0.684E+00 0.000E+00

     total cpu time spent up to now is     2128.1 secs

     total energy              =   -2010.48668546 Ry
     Harris-Foulkes estimate   =   -2010.50747679 Ry
     estimated scf accuracy    <       0.34616977 Ry

     iteration #  8     ecut=    40.00 Ry     beta=0.30
     Davidson diagonalization with overlap
     ethr =  1.41E-04,  avg # of iterations =  3.9

     negative rho (up, down):  0.685E+00 0.000E+00

     total cpu time spent up to now is     2384.6 secs

     total energy              =   -2010.51391759 Ry
     Harris-Foulkes estimate   =   -2010.57884377 Ry
     estimated scf accuracy    <       1.55104714 Ry

     iteration #  9     ecut=    40.00 Ry     beta=0.30
     Davidson diagonalization with overlap
     ethr =  1.41E-04,  avg # of iterations =  1.0

     negative rho (up, down):  0.686E+00 0.000E+00

     total cpu time spent up to now is     2624.9 secs

     total energy              =   -2010.50480232 Ry
     Harris-Foulkes estimate   =   -2010.57027941 Ry
     estimated scf accuracy    <       0.91320779 Ry

     iteration # 10     ecut=    40.00 Ry     beta=0.30
     Davidson diagonalization with overlap
     ethr =  1.41E-04,  avg # of iterations =  1.0

     negative rho (up, down):  0.687E+00 0.000E+00

     total cpu time spent up to now is     2863.2 secs

     total energy              =   -2010.53227572 Ry
     Harris-Foulkes estimate   =   -2010.54600070 Ry
     estimated scf accuracy    <       0.11955607 Ry

     iteration # 11     ecut=    40.00 Ry     beta=0.30
     Davidson diagonalization with overlap
     ethr =  4.88E-05,  avg # of iterations =  2.7

     negative rho (up, down):  0.688E+00 0.000E+00

     total cpu time spent up to now is     3112.4 secs

     total energy              =   -2010.53188618 Ry
     Harris-Foulkes estimate   =   -2010.54955979 Ry
     estimated scf accuracy    <       0.19294371 Ry

     iteration # 12     ecut=    40.00 Ry     beta=0.30
     Davidson diagonalization with overlap
     ethr =  4.88E-05,  avg # of iterations =  1.0

     negative rho (up, down):  0.688E+00 0.000E+00

     total cpu time spent up to now is     3349.0 secs

     total energy              =   -2010.53932312 Ry
     Harris-Foulkes estimate   =   -2010.54795233 Ry
     estimated scf accuracy    <       0.06812992 Ry

     iteration # 13     ecut=    40.00 Ry     beta=0.30
     Davidson diagonalization with overlap
     ethr =  2.78E-05,  avg # of iterations =  5.1

     negative rho (up, down):  0.688E+00 0.000E+00

     total cpu time spent up to now is     3605.5 secs

     total energy              =   -2010.54239832 Ry
     Harris-Foulkes estimate   =   -2010.54783292 Ry
     estimated scf accuracy    <       0.07330482 Ry

     iteration # 14     ecut=    40.00 Ry     beta=0.30
     Davidson diagonalization with overlap
     ethr =  2.78E-05,  avg # of iterations =  1.0

     negative rho (up, down):  0.688E+00 0.000E+00

     total cpu time spent up to now is     3839.7 secs

     total energy              =   -2010.54472064 Ry
     Harris-Foulkes estimate   =   -2010.54544597 Ry
     estimated scf accuracy    <       0.00793550 Ry

     iteration # 15     ecut=    40.00 Ry     beta=0.30
     Davidson diagonalization with overlap
     ethr =  3.24E-06,  avg # of iterations =  7.0

     negative rho (up, down):  0.688E+00 0.000E+00

     total cpu time spent up to now is     4107.1 secs

     total energy              =   -2010.54463692 Ry
     Harris-Foulkes estimate   =   -2010.54568490 Ry
     estimated scf accuracy    <       0.01133552 Ry

     iteration # 16     ecut=    40.00 Ry     beta=0.30
     Davidson diagonalization with overlap
     ethr =  3.24E-06,  avg # of iterations =  1.0

     negative rho (up, down):  0.688E+00 0.000E+00

     total cpu time spent up to now is     4343.9 secs

     total energy              =   -2010.54518519 Ry
     Harris-Foulkes estimate   =   -2010.54539851 Ry
     estimated scf accuracy    <       0.00972662 Ry

     iteration # 17     ecut=    40.00 Ry     beta=0.30
     Davidson diagonalization with overlap
     ethr =  3.24E-06,  avg # of iterations =  1.0

     negative rho (up, down):  0.688E+00 0.000E+00

     total cpu time spent up to now is     4578.6 secs

     total energy              =   -2010.54532661 Ry
     Harris-Foulkes estimate   =   -2010.54549490 Ry
     estimated scf accuracy    <       0.00161622 Ry

     iteration # 18     ecut=    40.00 Ry     beta=0.30
     Davidson diagonalization with overlap
     ethr =  6.60E-07,  avg # of iterations =  1.0

     negative rho (up, down):  0.688E+00 0.000E+00

     total cpu time spent up to now is     4817.1 secs

     total energy              =   -2010.54523010 Ry
     Harris-Foulkes estimate   =   -2010.54578344 Ry
     estimated scf accuracy    <       0.00598384 Ry

     iteration # 19     ecut=    40.00 Ry     beta=0.30
     Davidson diagonalization with overlap
     ethr =  6.60E-07,  avg # of iterations =  1.0

     negative rho (up, down):  0.688E+00 0.000E+00

     total cpu time spent up to now is     5052.3 secs

     total energy              =   -2010.54550561 Ry
     Harris-Foulkes estimate   =   -2010.54552875 Ry
     estimated scf accuracy    <       0.00026934 Ry

     iteration # 20     ecut=    40.00 Ry     beta=0.30
     Davidson diagonalization with overlap
     ethr =  1.10E-07,  avg # of iterations =  1.0

     negative rho (up, down):  0.688E+00 0.000E+00

     total cpu time spent up to now is     5287.7 secs

     total energy              =   -2010.54551534 Ry
     Harris-Foulkes estimate   =   -2010.54553369 Ry
     estimated scf accuracy    <       0.00025105 Ry

     iteration # 21     ecut=    40.00 Ry     beta=0.30
     Davidson diagonalization with overlap
     ethr =  1.02E-07,  avg # of iterations =  1.0

     negative rho (up, down):  0.688E+00 0.000E+00

     total cpu time spent up to now is     5523.8 secs

     total energy              =   -2010.54553368 Ry
     Harris-Foulkes estimate   =   -2010.54553933 Ry
     estimated scf accuracy    <       0.00009548 Ry

     iteration # 22     ecut=    40.00 Ry     beta=0.30
     Davidson diagonalization with overlap
     ethr =  3.90E-08,  avg # of iterations =  1.0

     negative rho (up, down):  0.687E+00 0.000E+00

     total cpu time spent up to now is     5760.0 secs

     total energy              =   -2010.54553337 Ry
     Harris-Foulkes estimate   =   -2010.54554469 Ry
     estimated scf accuracy    <       0.00009630 Ry

     iteration # 23     ecut=    40.00 Ry     beta=0.30
     Davidson diagonalization with overlap
     ethr =  3.90E-08,  avg # of iterations =  1.0

     negative rho (up, down):  0.687E+00 0.000E+00

     total cpu time spent up to now is     6002.8 secs

     total energy              =   -2010.54553874 Ry
     Harris-Foulkes estimate   =   -2010.54554421 Ry
     estimated scf accuracy    <       0.00009839 Ry

     iteration # 24     ecut=    40.00 Ry     beta=0.30
     Davidson diagonalization with overlap
     ethr =  3.90E-08,  avg # of iterations =  1.0

     negative rho (up, down):  0.687E+00 0.000E+00

     total cpu time spent up to now is     6242.3 secs

     total energy              =   -2010.54553885 Ry
     Harris-Foulkes estimate   =   -2010.54554791 Ry
     estimated scf accuracy    <       0.00011733 Ry

     iteration # 25     ecut=    40.00 Ry     beta=0.30
     Davidson diagonalization with overlap
     ethr =  3.90E-08,  avg # of iterations =  1.0

     negative rho (up, down):  0.687E+00 0.000E+00

     total cpu time spent up to now is     6482.5 secs

     total energy              =   -2010.54553743 Ry
     Harris-Foulkes estimate   =   -2010.54554604 Ry
     estimated scf accuracy    <       0.00004546 Ry

     iteration # 26     ecut=    40.00 Ry     beta=0.30
     Davidson diagonalization with overlap
     ethr =  1.86E-08,  avg # of iterations =  1.0

     negative rho (up, down):  0.687E+00 0.000E+00

     total cpu time spent up to now is     6718.1 secs

     total energy              =   -2010.54553661 Ry
     Harris-Foulkes estimate   =   -2010.54555001 Ry
     estimated scf accuracy    <       0.00038089 Ry

     iteration # 27     ecut=    40.00 Ry     beta=0.30
     Davidson diagonalization with overlap
     ethr =  1.86E-08,  avg # of iterations =  1.0

     negative rho (up, down):  0.687E+00 0.000E+00

     total cpu time spent up to now is     6956.6 secs

     total energy              =   -2010.54554395 Ry
     Harris-Foulkes estimate   =   -2010.54554467 Ry
     estimated scf accuracy    <       0.00001178 Ry

     iteration # 28     ecut=    40.00 Ry     beta=0.30
     Davidson diagonalization with overlap
     ethr =  4.81E-09,  avg # of iterations =  1.0

     negative rho (up, down):  0.687E+00 0.000E+00

     total cpu time spent up to now is     7193.1 secs

     total energy              =   -2010.54554442 Ry
     Harris-Foulkes estimate   =   -2010.54554494 Ry
     estimated scf accuracy    <       0.00000708 Ry

     iteration # 29     ecut=    40.00 Ry     beta=0.30
     Davidson diagonalization with overlap
     ethr =  2.89E-09,  avg # of iterations =  1.0

     negative rho (up, down):  0.687E+00 0.000E+00

     total cpu time spent up to now is     7429.5 secs

     total energy              =   -2010.54554487 Ry
     Harris-Foulkes estimate   =   -2010.54554490 Ry
     estimated scf accuracy    <       0.00000161 Ry

     iteration # 30     ecut=    40.00 Ry     beta=0.30
     Davidson diagonalization with overlap
     ethr =  6.59E-10,  avg # of iterations =  1.0

     negative rho (up, down):  0.687E+00 0.000E+00

     total cpu time spent up to now is     7673.3 secs

     total energy              =   -2010.54554497 Ry
     Harris-Foulkes estimate   =   -2010.54554514 Ry
     estimated scf accuracy    <       0.00000208 Ry

     iteration # 31     ecut=    40.00 Ry     beta=0.30
     Davidson diagonalization with overlap
     ethr =  6.59E-10,  avg # of iterations =  1.0

     negative rho (up, down):  0.687E+00 0.000E+00

     total cpu time spent up to now is     7918.2 secs

     End of self-consistent calculation
 --- enter write_ns ---
 LDA+U parameters:
U( 2)     =  8.00000000
alpha( 2) =  0.00000000
atom    3   Tr[ns(na)] =   8.11630
    eigenvalues: 
  0.580  0.600  0.929  0.968  0.981
    eigenvectors:
  0.020  0.180  0.002  0.000  0.798
  0.903  0.097  0.000  0.000  0.000
  0.000  0.000  0.981  0.017  0.002
  0.077  0.723  0.000  0.000  0.200
  0.000  0.000  0.017  0.983  0.000
    occupations:
  0.904 -0.004  0.001 -0.153 -0.001
 -0.004  0.582 -0.001 -0.005 -0.005
  0.001 -0.001  0.930 -0.004  0.005
 -0.153 -0.005 -0.004  0.675 -0.000
 -0.001 -0.005  0.005 -0.000  0.967
atom    4   Tr[ns(na)] =   8.13854
    eigenvalues: 
  0.593  0.648  0.905  0.941  0.982
    eigenvectors:
  0.001  0.991  0.000  0.000  0.008
  0.000  0.000  0.103  0.896  0.000
  0.000  0.000  0.897  0.103  0.000
  0.000  0.008  0.000  0.000  0.992
  0.999  0.001  0.000  0.000  0.000
    occupations:
  0.651 -0.004 -0.002  0.029  0.001
 -0.004  0.937  0.011  0.001 -0.000
 -0.002  0.011  0.909 -0.000  0.001
  0.029  0.001 -0.000  0.980  0.000
  0.001 -0.000  0.001  0.000  0.593
atom    9   Tr[ns(na)] =   8.14557
    eigenvalues: 
  0.634  0.642  0.891  0.922  0.983
    eigenvectors:
  0.003  0.148  0.000  0.000  0.848
  0.977  0.023  0.000  0.000  0.000
  0.000  0.000  0.976  0.024  0.000
  0.020  0.828  0.000  0.000  0.151
  0.000  0.000  0.024  0.976  0.000
    occupations:
  0.932 -0.001 -0.001 -0.122 -0.001
 -0.001  0.634  0.000  0.002 -0.000
 -0.001  0.000  0.892 -0.005 -0.005
 -0.122  0.002 -0.005  0.694  0.001
 -0.001 -0.000 -0.005  0.001  0.922
atom   10   Tr[ns(na)] =   8.10408
    eigenvalues: 
  0.581  0.592  0.948  0.949  0.982
    eigenvectors:
  0.990  0.000  0.000  0.000  0.009
  0.000  0.001  0.005  0.994  0.000
  0.000  0.000  0.994  0.005  0.000
  0.009  0.000  0.000  0.000  0.991
  0.000  0.999  0.000  0.001  0.000
    occupations:
  0.584  0.000  0.008  0.038 -0.000
  0.000  0.949 -0.000 -0.000 -0.010
  0.008 -0.000  0.948 -0.000 -0.000
  0.038 -0.000 -0.000  0.979  0.000
 -0.000 -0.010 -0.000  0.000  0.592
atom   16   Tr[ns(na)] =   8.11628
    eigenvalues: 
  0.580  0.600  0.929  0.968  0.981
    eigenvectors:
  0.019  0.181  0.002  0.000  0.798
  0.908  0.092  0.000  0.000  0.000
  0.000  0.000  0.988  0.010  0.002
  0.073  0.727  0.000  0.000  0.200
  0.000  0.000  0.010  0.989  0.000
    occupations:
  0.904  0.004  0.001 -0.153  0.000
  0.004  0.582 -0.000  0.005 -0.005
  0.001 -0.000  0.930 -0.004 -0.004
 -0.153  0.005 -0.004  0.675 -0.000
  0.000 -0.005 -0.004 -0.000  0.967
atom   17   Tr[ns(na)] =   8.13804
    eigenvalues: 
  0.594  0.649  0.902  0.941  0.982
    eigenvectors:
  0.001  0.991  0.000  0.000  0.008
  0.000  0.000  0.065  0.935  0.000
  0.000  0.000  0.935  0.065  0.000
  0.000  0.008  0.000  0.000  0.992
  0.999  0.001  0.000  0.000  0.000
    occupations:
  0.651 -0.004 -0.001  0.030  0.002
 -0.004  0.939  0.010  0.001 -0.001
 -0.001  0.010  0.905 -0.000  0.001
  0.030  0.001 -0.000  0.980 -0.000
  0.002 -0.001  0.001 -0.000  0.594
atom   22   Tr[ns(na)] =   8.14560
    eigenvalues: 
  0.634  0.642  0.891  0.923  0.983
    eigenvectors:
  0.000  0.151  0.001  0.000  0.848
  0.999  0.001  0.000  0.000  0.000
  0.000  0.000  0.977  0.022  0.000
  0.001  0.847  0.000  0.000  0.151
  0.000  0.000  0.022  0.978  0.000
    occupations:
  0.932  0.002 -0.000 -0.122  0.000
  0.002  0.634  0.001 -0.001 -0.000
 -0.000  0.001  0.892 -0.005  0.005
 -0.122 -0.001 -0.005  0.694  0.001
  0.000 -0.000  0.005  0.001  0.922
atom   23   Tr[ns(na)] =   8.14107
    eigenvalues: 
  0.596  0.630  0.898  0.965  0.981
    eigenvectors:
  0.000  0.993  0.000  0.004  0.004
  0.001  0.000  0.999  0.000  0.000
  0.000  0.003  0.000  0.995  0.002
  0.000  0.004  0.000  0.002  0.995
  0.999  0.000  0.001  0.000  0.000
    occupations:
  0.633 -0.000  0.019  0.022 -0.000
 -0.000  0.898 -0.001 -0.000 -0.011
  0.019 -0.001  0.964 -0.002  0.000
  0.022 -0.000 -0.002  0.980  0.000
 -0.000 -0.011  0.000  0.000  0.596
N of occupied +U levels =  65.0454822
 --- exit write_ns ---

          k = 0.0000 0.0000 0.0000 ( 30479 PWs)   bands (ev):

   -47.8705 -47.7340 -47.7323 -47.7113 -47.6901 -47.6465 -47.6366 -47.6200
   -47.6090 -47.5989 -47.5736 -47.5104 -47.4840 -47.4778 -47.4201 -47.4076
   -47.3957 -47.3744 -47.3703 -47.2971 -47.2720 -47.2596 -47.2527 -47.2395
   -24.3436 -20.8052 -20.5645 -20.4183 -20.2841 -19.9595 -19.8480 -19.7053
   -19.6968 -19.6830 -19.6234 -19.6059 -19.6023 -19.2816 -19.1069 -19.0479
   -18.9863 -18.5644 -18.3602 -17.8149 -10.6807 -10.5624 -10.0204  -9.7939
    -9.7310  -9.5561  -9.4919  -9.3591  -9.2618  -9.0370  -8.3287  -8.3069
    -8.2549  -8.1030  -8.0588  -8.0102  -7.8609  -7.8212  -7.7019  -7.5547
    -7.3804  -7.3342  -7.1106  -7.0065  -6.9288  -6.8808  -6.8352  -6.7125
    -6.5073  -6.4401  -6.4100  -6.2986  -6.1515  -6.0240  -5.9972  -5.8008
    -5.7842  -5.7761  -5.2691  -5.2590  -5.2336  -5.1551  -4.9944  -4.9622
    -4.8613  -4.7970  -4.7091  -4.6705  -4.6005  -4.5469  -4.5119  -4.3798
    -4.2755  -4.2253  -4.1908  -4.1303  -4.0723  -4.0408  -3.9625  -3.9339
    -3.7432  -3.6455  -3.4864  -3.4217  -3.3131  -3.1755  -2.9630  -2.9115
    -2.8668  -2.5620  -2.4735  -2.4567  -2.2350  -2.1908  -2.1022  -2.0306
    -1.7419  -1.6471  -1.6038  -1.4213  -1.2734  -1.0569  -0.9127  -0.4687
     0.3349   0.8749   0.9458   1.2050   1.2651   1.4321   1.5233   1.6787
     2.0144   2.2684   2.5271   2.7517   2.7989   2.8800   2.9563   3.0469
     3.5202   3.6206   3.9587   4.5214   4.9415   5.4751   5.9919   6.3177
     6.5830   6.8988   6.9912   7.0288   7.1074   7.3343   7.3649   7.4744
     7.5342   7.6241   7.6956   7.8625   7.8756   8.1050   8.2098   8.2748
     8.4202   8.4851   8.6247   8.7077   8.7642   8.9383   8.9650   9.0885
     9.1236   9.3445   9.3728   9.4937   9.6678   9.6846   9.7220   9.8449
     9.9317   9.9411  10.1787  10.2093  10.3660  10.4602  10.5096  10.5710
    10.8606  10.8967  10.9494  11.0433  11.0794  11.1074  11.1925  11.2850
    11.3244  11.3879  11.4217  11.5178  11.5386  11.6125  11.6343  11.7778
    11.8794  11.9267  11.9552  12.0807  12.0987  12.1994  12.2440  12.3596
    12.3951  12.4835  12.4927  12.5347  12.6619  12.7042  12.7328  12.8407
    12.9171  12.9877  13.0433  13.0978  13.1146  13.1783  13.2694  13.3776
    13.6240  13.7199  13.7808  13.7883  13.8744  13.8965  13.9151  14.0165
    14.2027  14.2652  14.4582  14.5313  14.6411  14.7133  14.7557  14.8105
    14.9471  15.1691  15.2041  15.2973  15.3322  15.5040  15.6178  15.6953
    15.7302  15.7521  15.9660  16.0040  16.1048  16.2011  16.3157  16.5453
    16.6375  16.6659  16.7324  16.7802  16.9268  17.0176  17.0822  17.1504
    17.1612  17.2050  17.3480  17.3708  17.4387  17.5964  17.6489  17.7313
    17.8512  17.8904  18.0547  18.1804  18.3286  18.3667  18.4076  18.4262
    18.4385  18.5315  18.6241  18.6331  18.6432  18.7454  18.8653  18.9281
    18.9668  19.0231  19.0752  19.1250  19.1580  19.1668  19.2253  19.2421
    19.3076  19.3132  19.3867  19.5398  19.5784  19.6357  19.7356  19.7664
    19.7783  19.8506  19.9133  19.9789  20.0009  20.0528  20.0639  20.2070
    20.3086  20.3192  20.3876  20.4218  20.5221  20.6138  20.6555  20.7374
    20.7940  20.8476  20.9628  21.0120  21.1294  21.1859  21.2081  21.2257
    21.3813  21.4154  21.5032  21.6157  21.6404  21.7343  21.8042  21.8128
    21.8596  21.9072  22.0190  22.0695  22.0981  22.1324  22.1499  22.2067
    22.2387  22.2766  22.3350  22.4027  22.4428  22.4514  22.4887  22.4975
    22.5405  22.5832  22.5955  22.6472  22.6896  22.7539  22.7677

          k = 0.0000 0.2417 0.0000 ( 30538 PWs)   bands (ev):

   -47.8708 -47.7343 -47.7324 -47.7115 -47.6902 -47.6460 -47.6361 -47.6200
   -47.6089 -47.5989 -47.5737 -47.5092 -47.4841 -47.4771 -47.4211 -47.4069
   -47.3952 -47.3767 -47.3700 -47.2972 -47.2721 -47.2598 -47.2528 -47.2396
   -24.3437 -20.7275 -20.4415 -20.4040 -20.2832 -19.9664 -19.8924 -19.8885
   -19.8410 -19.6857 -19.6153 -19.4323 -19.4096 -19.2771 -19.2107 -19.1587
   -19.0747 -18.5639 -18.3621 -17.8100 -10.3910 -10.2737  -9.9666  -9.8868
    -9.7668  -9.7373  -9.5476  -9.4974  -9.4403  -9.0172  -8.1573  -8.1217
    -8.0971  -8.0666  -7.9428  -7.8538  -7.8060  -7.6719  -7.5477  -7.5327
    -7.3862  -7.2140  -7.1015  -7.0303  -6.9951  -6.9067  -6.8012  -6.6544
    -6.4797  -6.3948  -6.3583  -6.2201  -6.2018  -6.1284  -6.0186  -5.9651
    -5.9340  -5.8762  -5.8489  -5.7890  -5.6843  -5.6352  -5.1756  -4.9968
    -4.9137  -4.8664  -4.6744  -4.6390  -4.5584  -4.5174  -4.2841  -4.2207
    -4.1843  -4.1731  -4.0354  -3.9767  -3.9217  -3.7887  -3.7652  -3.7082
    -3.6153  -3.4897  -3.4657  -3.3797  -3.3289  -3.1519  -3.1110  -3.0680
    -2.9787  -2.8939  -2.8594  -2.5605  -2.2865  -2.1896  -2.0741  -1.8707
    -1.7266  -1.6666  -1.5047  -1.3600  -1.1883  -1.1121  -1.0722  -0.2369
     0.2414   0.3331   0.5916   0.9034   1.2859   1.6780   1.9361   2.2622
     2.4693   2.5644   2.5723   2.5981   2.6354   2.8188   2.9593   3.0504
     3.5581   3.8894   4.1775   4.7240   5.1706   5.3223   5.6842   5.8522
     6.0432   6.3304   6.5927   6.7709   7.0635   7.1846   7.3020   7.5062
     7.5402   7.6375   7.9321   7.9910   8.0757   8.1371   8.3768   8.4128
     8.5225   8.6167   8.7418   8.8420   8.9996   9.0594   9.0861   9.2441
     9.2651   9.3396   9.5801   9.6290   9.6575   9.7486   9.8159   9.8446
     9.9107   9.9162   9.9885  10.0716  10.1336  10.2625  10.3127  10.3525
    10.3901  10.5616  10.7328  10.8755  10.9787  11.0242  11.1219  11.1665
    11.2567  11.3064  11.3475  11.4238  11.4374  11.5426  11.6676  11.9282
    11.9931  12.1151  12.2540  12.3062  12.3344  12.4315  12.5403  12.6295
    12.6972  12.7984  12.8572  12.9199  12.9470  13.0800  13.1057  13.3049
    13.3309  13.3932  13.4237  13.5104  13.5875  13.6236  13.6944  13.7030
    13.7382  13.9251  13.9666  14.0601  14.1390  14.2099  14.2827  14.3418
    14.3884  14.4503  14.5123  14.5404  14.5927  14.7356  14.8847  14.8991
    14.9472  14.9787  15.0586  15.1635  15.2609  15.3538  15.4334  15.5556
    15.6342  15.6798  15.7679  15.8446  15.8854  15.9425  16.1157  16.2086
    16.2672  16.3583  16.3854  16.5225  16.6367  16.6489  16.7309  16.8149
    16.9096  16.9820  17.0429  17.2207  17.3071  17.3384  17.3652  17.4328
    17.5642  17.6647  17.8331  17.8896  17.9391  17.9709  17.9915  18.1163
    18.1776  18.3768  18.4772  18.5040  18.5993  18.6829  18.7011  18.7388
    18.8033  18.8615  18.8660  18.9599  18.9973  19.0436  19.0762  19.1358
    19.1591  19.2436  19.2808  19.2935  19.4141  19.4676  19.5397  19.5672
    19.5925  19.7132  19.7334  19.7765  19.8608  19.9316  19.9973  20.0769
    20.0839  20.1983  20.2739  20.3063  20.3274  20.3743  20.3946  20.4692
    20.5699  20.5952  20.6662  20.7506  20.8221  20.8589  20.9329  21.0341
    21.0655  21.1009  21.1396  21.1913  21.1968  21.2484  21.3009  21.3823
    21.4300  21.4751  21.5592  21.6226  21.6838  21.7379  21.7786  21.8547
    21.9379  21.9819  22.0673  22.1336  22.1926  22.2430  22.2896  22.3358
    22.4067  22.4617  22.4996  22.6378  22.6780  22.7215  22.7592

          k = 0.0000-0.4833 0.0000 ( 30492 PWs)   bands (ev):

   -47.8710 -47.7344 -47.7324 -47.7116 -47.6902 -47.6452 -47.6353 -47.6199
   -47.6086 -47.5989 -47.5737 -47.5079 -47.4841 -47.4762 -47.4221 -47.4060
   -47.3945 -47.3789 -47.3695 -47.2972 -47.2722 -47.2599 -47.2527 -47.2395
   -24.3438 -20.6423 -20.3888 -20.2845 -20.2471 -20.0036 -19.9835 -19.9811
   -19.8335 -19.6908 -19.6313 -19.3635 -19.3525 -19.3372 -19.3107 -19.2595
   -19.0840 -18.5635 -18.3648 -17.8050 -10.1225 -10.1073  -9.9425  -9.8541
    -9.8411  -9.8013  -9.6370  -9.5146  -9.5029  -8.5268  -8.3705  -8.0506
    -7.9811  -7.9015  -7.8813  -7.8449  -7.7075  -7.6820  -7.5571  -7.5186
    -7.3729  -7.3022  -7.0619  -7.0276  -6.9822  -6.8150  -6.6738  -6.6286
    -6.5758  -6.5637  -6.4753  -6.4268  -6.4014  -6.3313  -6.0648  -6.0332
    -5.9661  -5.8717  -5.7552  -5.7202  -5.7147  -5.5893  -5.2435  -5.1345
    -5.1014  -4.9414  -4.8162  -4.7513  -4.6166  -4.6141  -4.5766  -4.4314
    -4.2441  -4.0179  -3.8687  -3.8379  -3.7768  -3.7418  -3.7134  -3.5751
    -3.4367  -3.3974  -3.3623  -3.2863  -3.2740  -3.2503  -3.1852  -3.0243
    -2.9704  -2.9622  -2.8689  -2.5007  -2.3650  -2.1206  -2.0305  -1.9870
    -1.8385  -1.7864  -1.6937  -1.2859  -1.1122  -1.0843  -1.0381  -0.2020
    -0.1356  -0.0832   0.8860   0.9279   1.4431   1.8073   2.2526   2.2560
     2.4140   2.4486   2.4708   2.6139   2.9539   2.9740   3.0297   3.0671
     3.6928   4.4368   4.5815   4.7751   4.9032   5.0772   5.3783   5.6049
     5.6831   6.1482   6.2758   6.8513   6.9947   7.1693   7.2618   7.2712
     7.6844   7.8339   7.9453   8.0269   8.0726   8.1374   8.2653   8.3757
     8.5475   8.6688   8.6999   8.7868   8.8406   9.0070   9.1481   9.1510
     9.2093   9.2909   9.4370   9.4709   9.5214   9.5929   9.6955   9.7679
     9.9590  10.0327  10.0790  10.1132  10.1514  10.2729  10.3597  10.5733
    10.7577  10.7942  10.8343  10.8849  11.0294  11.1186  11.2738  11.5071
    11.5431  11.5830  11.6029  11.6620  11.7014  11.8091  11.8319  11.8934
    12.0680  12.0754  12.1655  12.2660  12.3775  12.5858  12.6251  12.6505
    12.7154  12.7620  12.8899  13.0007  13.0993  13.1520  13.1891  13.3629
    13.3839  13.4437  13.4995  13.5204  13.5257  13.7519  13.7722  13.8076
    13.9342  13.9559  14.1728  14.2449  14.3232  14.3805  14.4521  14.4782
    14.5482  14.6713  14.8404  14.9210  14.9803  14.9976  15.1064  15.1798
    15.3281  15.3466  15.3900  15.5288  15.5531  15.5943  15.6365  15.6786
    15.7171  15.7953  15.8323  15.8872  15.9347  16.0078  16.0285  16.1021
    16.1199  16.2069  16.2365  16.2506  16.2892  16.3601  16.4850  16.6193
    16.6241  16.6391  16.7215  16.7346  16.8664  16.9272  17.0399  17.1245
    17.2704  17.3174  17.4108  17.5537  17.6952  17.7012  17.7830  17.8675
    17.9165  17.9268  18.0282  18.0690  18.1214  18.2049  18.2506  18.2533
    18.3222  18.3682  18.4527  18.5049  18.6451  18.6701  18.7451  18.8504
    18.9198  18.9496  18.9744  19.1108  19.1912  19.2129  19.2491  19.3352
    19.4351  19.5533  19.6150  19.6961  19.7378  19.7680  19.8348  20.0181
    20.1152  20.2083  20.2450  20.2592  20.3010  20.3206  20.3499  20.3579
    20.4195  20.4386  20.4916  20.5120  20.5440  20.5994  20.6912  20.6962
    20.7701  20.8279  20.9432  20.9654  20.9804  21.0347  21.0905  21.1089
    21.2107  21.2355  21.3899  21.4322  21.4975  21.5345  21.6214  21.6694
    21.6754  21.7688  21.8151  21.9104  21.9672  22.0182  22.1228  22.2079
    22.3264  22.3539  22.4095  22.4888  22.5291  22.6465  22.7529

          k = 0.2500 0.0000 0.0000 ( 30502 PWs)   bands (ev):

   -47.8609 -47.7324 -47.7259 -47.7193 -47.6903 -47.6454 -47.6384 -47.6366
   -47.6046 -47.5906 -47.5739 -47.5102 -47.5043 -47.4798 -47.4188 -47.3971
   -47.3939 -47.3738 -47.3711 -47.3151 -47.2692 -47.2570 -47.2557 -47.2432
   -24.3437 -20.6840 -20.4367 -20.3276 -20.2850 -19.9437 -19.8626 -19.7999
   -19.7795 -19.6439 -19.5956 -19.5499 -19.5341 -19.3005 -19.1479 -19.1350
   -19.0801 -18.6297 -18.4485 -17.8155 -10.3729 -10.2577  -9.8396  -9.6661
    -9.4782  -9.4096  -9.2697  -9.1260  -9.1170  -8.9411  -8.5812  -8.5134
    -8.3566  -8.3214  -8.1744  -8.0556  -7.9715  -7.8704  -7.8029  -7.6727
    -7.5512  -7.4533  -7.2303  -7.1302  -7.0439  -6.8693  -6.7934  -6.7291
    -6.5739  -6.4942  -6.3841  -6.2986  -6.2851  -6.1519  -6.0375  -5.8523
    -5.8220  -5.8004  -5.6370  -5.5663  -5.5425  -5.4860  -5.4330  -5.2913
    -5.0794  -5.0076  -4.9095  -4.5747  -4.4620  -4.3859  -4.3810  -4.3318
    -4.2740  -4.1462  -4.0634  -4.0085  -3.9462  -3.7795  -3.6960  -3.5969
    -3.5188  -3.4478  -3.3264  -3.1819  -3.0590  -3.0158  -2.8525  -2.8115
    -2.7346  -2.4148  -2.3615  -2.2987  -2.2228  -2.1843  -2.0339  -1.9387
    -1.8623  -1.7315  -1.6470  -1.5725  -1.4114  -1.2325  -1.0478  -0.3233
     0.4554   0.9944   1.0657   1.3463   1.3974   1.4079   1.5270   1.7060
     1.8563   2.1421   2.4213   2.4706   2.4796   2.5078   2.9273   3.0726
     3.6106   3.9403   4.2086   4.7743   5.0639   5.3495   5.8262   5.9787
     6.1784   6.3491   6.6700   6.8484   6.9173   7.2244   7.2549   7.4979
     7.5920   7.7368   7.8281   7.8780   7.9308   8.2649   8.3274   8.4296
     8.5365   8.6161   8.7014   8.9466   8.9772   9.0632   9.1346   9.1709
     9.3455   9.3810   9.4691   9.6107   9.6645   9.7010   9.7715   9.7743
     9.8112   9.9286   9.9944  10.1320  10.2157  10.2392  10.2832  10.3981
    10.4388  10.6943  10.7876  10.8796  10.9504  11.1114  11.1645  11.2237
    11.2616  11.3498  11.4421  11.4657  11.5703  11.6020  11.7466  11.8274
    11.9083  12.0818  12.1655  12.2223  12.2746  12.3865  12.4868  12.5973
    12.6620  12.7330  12.8258  12.8731  12.9482  13.0317  13.1315  13.1671
    13.2747  13.3935  13.4267  13.5098  13.6016  13.7062  13.7562  13.8526
    13.8962  13.9683  14.0589  14.0662  14.1362  14.2328  14.2632  14.3621
    14.3872  14.4553  14.5086  14.5748  14.6272  14.7421  14.8146  15.0458
    15.0918  15.2885  15.3422  15.4052  15.4574  15.5402  15.6542  15.6891
    15.7429  15.8264  15.8623  15.9459  15.9789  16.0922  16.1283  16.1822
    16.3003  16.3710  16.4312  16.4921  16.6120  16.6387  16.6626  16.8212
    16.8689  16.8941  17.0471  17.1106  17.2005  17.2803  17.3760  17.4329
    17.5110  17.5705  17.6303  17.7010  17.7737  17.8249  17.9082  18.0068
    18.1771  18.2648  18.3337  18.3729  18.5418  18.6014  18.6505  18.6921
    18.7361  18.8102  18.8510  18.9537  18.9849  19.1212  19.1747  19.1985
    19.2242  19.2482  19.3286  19.3594  19.4161  19.4457  19.4991  19.5216
    19.6018  19.6221  19.7060  19.7793  19.8220  19.8935  19.9809  20.0598
    20.0914  20.1379  20.1735  20.2183  20.2662  20.3521  20.4168  20.4594
    20.5297  20.5430  20.5592  20.6507  20.7410  20.7642  20.8100  20.8419
    20.8554  20.9686  21.0365  21.0816  21.1002  21.1583  21.2418  21.2985
    21.4073  21.4357  21.4858  21.5385  21.5796  21.6566  21.7059  21.7914
    21.8636  21.9495  21.9972  22.0051  22.0496  22.0987  22.1857  22.2340
    22.3361  22.3628  22.4434  22.5530  22.5826  22.6196  22.7027

          k = 0.2500 0.2417 0.0000 ( 30481 PWs)   bands (ev):

   -47.8611 -47.7325 -47.7261 -47.7194 -47.6903 -47.6447 -47.6376 -47.6366
   -47.6047 -47.5904 -47.5740 -47.5089 -47.5043 -47.4787 -47.4194 -47.3968
   -47.3931 -47.3758 -47.3710 -47.3151 -47.2693 -47.2571 -47.2557 -47.2432
   -24.3438 -20.6204 -20.3276 -20.3004 -20.2744 -19.9446 -19.8726 -19.8533
   -19.8173 -19.6907 -19.5633 -19.5097 -19.4803 -19.3006 -19.2900 -19.2427
   -19.1086 -18.6304 -18.4496 -17.8109 -10.0990  -9.9931  -9.7699  -9.6745
    -9.6122  -9.5254  -9.3191  -9.2827  -9.2111  -8.8995  -8.3885  -8.3159
    -8.2163  -8.1530  -8.1148  -7.9946  -7.9492  -7.8055  -7.7245  -7.5946
    -7.4280  -7.3561  -7.1812  -7.0640  -6.9924  -6.8412  -6.7774  -6.7313
    -6.6212  -6.5514  -6.5456  -6.4036  -6.3613  -6.3132  -6.2337  -6.2030
    -6.1061  -6.0292  -5.9335  -5.8338  -5.7713  -5.6310  -5.4645  -5.3742
    -5.0063  -4.9621  -4.7976  -4.5905  -4.5282  -4.4034  -4.3475  -4.2478
    -4.1600  -4.0610  -4.0186  -3.9414  -3.8796  -3.6459  -3.6015  -3.4806
    -3.3401  -3.2010  -3.1404  -3.0911  -3.0680  -3.0013  -2.9413  -2.8309
    -2.7885  -2.7156  -2.6081  -2.5454  -2.2792  -2.0736  -1.9510  -1.8883
    -1.7928  -1.7559  -1.6045  -1.5159  -1.3721  -1.2839  -1.2189  -0.1482
     0.4592   0.5346   0.7100   1.0288   1.3130   1.6151   1.7948   2.0439
     2.1510   2.2921   2.3728   2.4972   2.5251   2.6490   2.8890   3.1203
     3.6910   4.1917   4.4238   4.9687   5.1985   5.4982   5.8195   5.9634
     6.0104   6.2065   6.2902   6.4723   6.6164   6.8627   6.9114   7.2454
     7.4166   7.4962   7.6691   7.8164   7.8664   8.1429   8.1938   8.2893
     8.4042   8.4736   8.7079   8.8387   8.8615   9.0035   9.1495   9.1967
     9.3448   9.4097   9.4742   9.5989   9.7773   9.8316   9.9415   9.9881
    10.0860  10.1722  10.3060  10.3692  10.4690  10.5017  10.6006  10.6852
    10.8169  10.9178  11.0127  11.0877  11.2081  11.2958  11.3371  11.4433
    11.4836  11.6125  11.6723  11.7119  11.7685  11.8312  11.9113  11.9592
    12.0199  12.1246  12.2681  12.3326  12.4308  12.4913  12.5096  12.5841
    12.6463  12.7495  12.8389  12.9104  13.0022  13.0450  13.0820  13.1925
    13.2956  13.4257  13.4614  13.6009  13.6554  13.7151  13.7946  13.8841
    14.0245  14.0412  14.1303  14.2168  14.2920  14.3780  14.4221  14.4683
    14.5333  14.5521  14.6714  14.7542  14.8021  14.8691  15.0170  15.0524
    15.1194  15.2123  15.2723  15.3171  15.4723  15.5198  15.5792  15.6140
    15.6758  15.7550  15.8276  15.8551  15.9552  15.9653  16.0258  16.0859
    16.1787  16.2199  16.3300  16.3992  16.4820  16.5109  16.5429  16.6316
    16.6703  16.7497  16.8049  16.9095  16.9751  17.0612  17.1078  17.1520
    17.2061  17.2770  17.2980  17.4395  17.4618  17.5255  17.5756  17.6190
    17.6978  17.7873  17.8143  17.8732  17.9835  18.0106  18.0684  18.0923
    18.1981  18.2579  18.3413  18.3881  18.5074  18.5970  18.6559  18.7099
    18.8434  18.9191  18.9660  19.0160  19.0530  19.1399  19.2396  19.3097
    19.3733  19.4358  19.5028  19.6026  19.6642  19.6981  19.7956  19.9070
    19.9610  20.0705  20.1241  20.1671  20.2666  20.3577  20.3738  20.4688
    20.5898  20.6773  20.7004  20.7452  20.7994  20.9201  20.9693  21.0274
    21.1011  21.1206  21.1540  21.2505  21.3033  21.3554  21.4198  21.4574
    21.5372  21.5922  21.6855  21.7125  21.7556  21.8073  21.8503  21.9181
    22.0399  22.0795  22.1311  22.2013  22.2921  22.3745  22.4028  22.4402
    22.5644  22.6062  22.6546  22.7517  22.7915  22.8844  22.9248

          k = 0.2500-0.4833 0.0000 ( 30510 PWs)   bands (ev):

   -47.8613 -47.7325 -47.7263 -47.7196 -47.6903 -47.6440 -47.6370 -47.6365
   -47.6047 -47.5902 -47.5740 -47.5078 -47.5044 -47.4776 -47.4202 -47.3967
   -47.3926 -47.3777 -47.3713 -47.3150 -47.2694 -47.2572 -47.2556 -47.2431
   -24.3439 -20.5566 -20.2923 -20.2528 -20.1286 -19.9356 -19.9127 -19.8994
   -19.8406 -19.7102 -19.5996 -19.4606 -19.4510 -19.4389 -19.3999 -19.2951
   -19.1100 -18.6312 -18.4513 -17.8062  -9.8557  -9.8435  -9.7078  -9.6598
    -9.5837  -9.5568  -9.5004  -9.3016  -9.2794  -8.5355  -8.3543  -8.1009
    -8.0150  -7.9476  -7.9292  -7.8618  -7.7997  -7.7516  -7.7150  -7.6217
    -7.5032  -7.2978  -7.2579  -7.1752  -7.1289  -7.0748  -6.9752  -6.9437
    -6.8575  -6.7337  -6.6264  -6.5617  -6.4533  -6.3844  -6.2835  -6.1890
    -6.1358  -6.0882  -5.9934  -5.7533  -5.6923  -5.6742  -5.5015  -5.3818
    -5.1779  -4.9771  -4.9426  -4.8044  -4.7484  -4.3945  -4.3481  -4.2572
    -4.2102  -3.8897  -3.8429  -3.7988  -3.7546  -3.6307  -3.5624  -3.3481
    -3.3056  -3.2365  -3.1719  -3.1269  -2.9525  -2.8958  -2.8119  -2.8055
    -2.7624  -2.6928  -2.6301  -2.5071  -2.3029  -2.0499  -2.0225  -1.9201
    -1.8442  -1.8276  -1.7940  -1.4256  -1.3201  -1.2651  -1.2390  -0.0332
     0.0404   0.1049   0.9261   1.0532   1.4504   1.6684   1.8527   1.8779
     1.9988   2.4483   2.4809   2.5160   2.7278   2.8671   2.9406   3.1386
     3.8460   4.7079   4.8130   5.0207   5.1487   5.3219   5.4902   5.6688
     5.8718   6.2454   6.3620   6.4634   6.6608   6.7775   6.8967   7.0654
     7.1332   7.2134   7.3521   7.4990   7.5972   7.7641   8.0024   8.2147
     8.2891   8.4278   8.4904   8.5509   8.7523   8.8460   9.0893   9.1844
     9.3544   9.4362   9.4575   9.7588   9.8749  10.0250  10.1216  10.2367
    10.3023  10.3741  10.4926  10.5353  10.7291  10.8207  10.9656  11.0505
    11.1187  11.2502  11.3834  11.4000  11.4524  11.5001  11.5553  11.7390
    11.7790  11.8431  11.8647  11.9392  12.0036  12.0505  12.1226  12.1805
    12.2976  12.3434  12.3926  12.4967  12.5537  12.6296  12.7443  12.7819
    12.8598  12.9505  12.9931  13.0499  13.1322  13.1699  13.2770  13.3796
    13.4358  13.4689  13.4854  13.5860  13.6854  13.7297  13.7692  13.9325
    13.9698  14.0027  14.1297  14.1899  14.2115  14.2515  14.2928  14.3293
    14.3618  14.4774  14.5586  14.5823  14.6773  14.6979  14.7728  14.8757
    14.9072  15.0675  15.1129  15.1412  15.1752  15.2220  15.2517  15.4108
    15.5083  15.6168  15.7303  15.7714  15.8091  15.9335  15.9528  15.9957
    16.1220  16.1723  16.2907  16.3362  16.3650  16.4055  16.4395  16.4806
    16.5444  16.5975  16.7161  16.7550  16.7647  16.8696  16.9494  17.0183
    17.1315  17.1723  17.2354  17.2867  17.3199  17.3631  17.4411  17.4692
    17.5204  17.5633  17.7289  17.8351  17.8901  17.9951  18.0438  18.1237
    18.1416  18.1658  18.2163  18.2999  18.3601  18.3905  18.5038  18.5715
    18.6355  18.6782  18.7115  18.7271  18.7918  18.8315  18.9405  18.9822
    19.0938  19.2614  19.3082  19.3547  19.4612  19.5198  19.5507  19.5787
    19.6524  19.7435  19.8036  19.8305  19.8763  19.9713  20.0402  20.1486
    20.2765  20.3306  20.4184  20.4816  20.5283  20.6007  20.7189  20.7751
    20.8646  20.9231  20.9927  21.0765  21.1271  21.2541  21.3195  21.3535
    21.5069  21.5424  21.6992  21.7620  21.8200  21.9020  21.9842  22.0551
    22.0842  22.1675  22.2383  22.2567  22.3330  22.4315  22.5054  22.5832
    22.6443  22.7919  22.9118  22.9657  23.0151  23.0639  23.1070

          k =-0.5000 0.0000 0.0000 ( 30524 PWs)   bands (ev):

   -47.8486 -47.7434 -47.7321 -47.6906 -47.6851 -47.6743 -47.6429 -47.6413
   -47.6044 -47.5765 -47.5504 -47.5489 -47.5097 -47.4818 -47.4173 -47.3987
   -47.3730 -47.3726 -47.3587 -47.3542 -47.2632 -47.2619 -47.2512 -47.2498
   -24.3438 -20.4290 -20.4273 -20.1626 -20.1503 -20.0759 -20.0611 -19.9148
   -19.7222 -19.6912 -19.4186 -19.3921 -19.3768 -19.3684 -19.3284 -19.3146
   -19.1483 -18.6748 -18.5679 -17.8161  -9.7455  -9.5705  -9.5587  -9.4275
    -9.4082  -9.2146  -9.1558  -9.0427  -8.9731  -8.9215  -8.8235  -8.7302
    -8.7017  -8.5433  -8.3784  -8.3007  -8.2678  -8.1268  -8.1058  -7.8622
    -7.5085  -7.2431  -7.1694  -7.0556  -7.0459  -6.8692  -6.6152  -6.5703
    -6.5292  -6.4996  -6.4727  -6.3859  -6.3455  -6.2764  -6.2615  -6.1708
    -6.0613  -5.9333  -5.8566  -5.8052  -5.7472  -5.7031  -5.5549  -5.5506
    -5.5306  -5.2272  -4.9999  -4.4529  -4.4494  -4.3294  -4.1847  -4.0840
    -4.0590  -3.9628  -3.9532  -3.8899  -3.8412  -3.8384  -3.6620  -3.4967
    -3.3423  -3.2699  -3.0661  -2.9812  -2.9399  -2.7958  -2.7789  -2.6849
    -2.4911  -2.3773  -2.1918  -2.1861  -2.1341  -2.1297  -1.9975  -1.9371
    -1.9033  -1.7131  -1.7090  -1.6560  -1.5898  -1.4337  -1.3511  -0.1831
     0.6748   1.1266   1.2195   1.4344   1.4378   1.7088   1.7271   1.7844
     1.7989   1.8173   1.8447   1.8567   2.2081   2.6379   2.6687   3.1472
     3.8965   4.4463   4.7152   4.7244   4.9333   4.9863   5.4735   5.5089
     5.9762   6.1597   6.5997   6.8771   7.0727   7.0932   7.4117   7.5425
     7.5925   7.8788   7.9074   7.9796   8.1617   8.3127   8.3439   8.4506
     8.4594   8.5378   8.5450   8.6341   8.6580   8.7339   8.9932   9.0690
     9.1717   9.2088   9.3343   9.5669   9.6278   9.7154   9.7590   9.8315
    10.0404  10.0660  10.0965  10.2567  10.2881  10.3075  10.4875  10.5719
    10.6491  10.7056  10.7929  10.8329  10.8581  11.0102  11.1002  11.1361
    11.4311  11.5171  11.6799  11.7820  11.9291  11.9672  12.0296  12.1315
    12.1787  12.2978  12.4047  12.4282  12.5084  12.5366  12.6070  12.6731
    12.7799  12.9200  12.9791  12.9941  13.0508  13.0634  13.2277  13.2659
    13.4121  13.4402  13.5170  13.5894  13.6773  13.7593  13.9600  13.9646
    14.1404  14.2211  14.3171  14.3245  14.4291  14.5049  14.5539  14.5881
    14.6648  14.7224  14.8016  14.8398  14.8934  14.9320  15.1242  15.1943
    15.2162  15.3210  15.3498  15.4368  15.4956  15.5137  15.6208  15.7811
    15.7952  15.8568  15.9138  15.9863  16.1626  16.1794  16.2603  16.2998
    16.3363  16.3381  16.3730  16.4109  16.4473  16.5090  16.5219  16.6376
    16.7100  16.7346  16.7488  16.7591  16.7976  16.9026  16.9282  16.9888
    17.1828  17.3076  17.3466  17.3589  17.4832  17.4982  17.5787  17.6937
    17.7260  17.8009  17.8886  17.9433  18.0598  18.1098  18.1580  18.3727
    18.4371  18.4717  18.5420  18.5854  18.6653  18.7233  18.7963  18.8135
    18.9869  19.0531  19.0998  19.1356  19.1968  19.2101  19.2499  19.2616
    19.3407  19.3953  19.4011  19.4276  19.5523  19.6191  19.7317  19.7393
    19.7850  19.9583  20.0013  20.0181  20.0349  20.0615  20.1023  20.1554
    20.2227  20.3083  20.3292  20.3366  20.4662  20.5358  20.5755  20.6193
    20.6826  20.7347  20.9111  20.9398  20.9583  21.0452  21.0980  21.1965
    21.2369  21.2688  21.3070  21.3463  21.4120  21.4428  21.4948  21.5337
    21.5738  21.6874  21.7057  21.8848  21.9392  22.0588  22.0758  22.0939
    22.1324  22.2138  22.2758  22.3336  22.4133  22.5051  22.6063

          k =-0.5000 0.2417 0.0000 ( 30500 PWs)   bands (ev):

   -47.8488 -47.7438 -47.7321 -47.6906 -47.6852 -47.6744 -47.6422 -47.6405
   -47.6045 -47.5766 -47.5503 -47.5488 -47.5084 -47.4804 -47.4175 -47.3989
   -47.3741 -47.3736 -47.3584 -47.3539 -47.2632 -47.2620 -47.2512 -47.2499
   -24.3439 -20.4066 -20.4015 -20.0940 -20.0806 -19.9993 -19.9882 -19.9074
   -19.7255 -19.6884 -19.4942 -19.4760 -19.4655 -19.4545 -19.3854 -19.3648
   -19.1409 -18.6779 -18.5669 -17.8118  -9.7064  -9.4610  -9.4068  -9.3543
    -9.3238  -9.1136  -9.0181  -8.9726  -8.9449  -8.8125  -8.7599  -8.6836
    -8.6575  -8.4826  -8.3871  -8.3524  -8.2758  -8.0707  -7.9667  -7.8017
    -7.4260  -7.1582  -7.1446  -7.0828  -7.0331  -6.9603  -6.8817  -6.8211
    -6.7621  -6.7339  -6.6688  -6.5053  -6.4404  -6.3652  -6.2821  -6.2292
    -6.1089  -6.0443  -5.9828  -5.9059  -5.8310  -5.7338  -5.5901  -5.3928
    -5.3530  -5.2027  -5.0039  -4.7450  -4.7024  -4.5061  -4.4361  -4.2212
    -4.2046  -4.1587  -3.8955  -3.5151  -3.4361  -3.3585  -3.2661  -3.2474
    -3.2194  -3.1998  -3.0891  -2.9370  -2.8733  -2.8288  -2.8137  -2.7217
    -2.5249  -2.4532  -2.2858  -2.1739  -2.1536  -2.0744  -2.0173  -1.9418
    -1.8458  -1.7506  -1.7272  -1.7066  -1.6343  -1.5057  -1.4806  -0.0610
     0.7828   1.0477   1.0666   1.1056   1.2195   1.4221   1.4422   1.5945
     1.7998   2.0785   2.1666   2.3549   2.3661   2.7466   2.7814   3.1721
     3.9845   4.6490   4.9320   4.9460   5.1385   5.1940   5.6673   5.6856
     6.1443   6.1842   6.4367   6.5119   6.5986   6.7086   6.8947   7.0040
     7.0630   7.2880   7.3724   7.5241   7.5849   7.6492   8.0425   8.1510
     8.2963   8.4930   8.5423   8.6840   8.8885   8.9127   9.0914   9.1442
     9.4231   9.4854   9.5958   9.7764   9.9898  10.0204  10.1514  10.1921
    10.2392  10.2926  10.4859  10.5148  10.5809  10.6028  10.7746  10.8632
    10.9571  11.1280  11.1574  11.2063  11.3330  11.3486  11.4342  11.5412
    11.7283  11.8631  11.9624  11.9844  12.1104  12.1542  12.2919  12.3246
    12.4331  12.4740  12.5640  12.6162  12.6706  12.6843  12.8423  12.8824
    12.9452  13.0062  13.0408  13.1209  13.2242  13.2838  13.3132  13.3529
    13.5251  13.5674  13.6339  13.7665  13.8068  13.8624  13.9481  13.9928
    14.0991  14.1403  14.2172  14.2759  14.3642  14.4180  14.4775  14.4870
    14.5981  14.6371  14.6777  14.7307  14.7722  14.8067  14.8712  14.8989
    14.9929  15.0418  15.1211  15.1518  15.2570  15.2872  15.3422  15.4040
    15.4541  15.5147  15.5716  15.6072  15.6409  15.6825  15.8104  15.8205
    15.8912  15.9529  16.0359  16.1567  16.2014  16.2681  16.3239  16.3947
    16.4768  16.5181  16.5502  16.6235  16.6469  16.7124  16.8310  16.8667
    17.0488  17.0697  17.1395  17.1569  17.2255  17.2918  17.3815  17.4226
    17.5321  17.5910  17.7656  17.8243  17.8497  17.8761  17.9619  17.9945
    18.0567  18.1446  18.2887  18.3597  18.4153  18.5085  18.5777  18.5960
    18.6480  18.7074  18.7721  18.8075  18.8349  18.9102  18.9843  19.0325
    19.2070  19.2467  19.2965  19.3249  19.5095  19.5512  19.5935  19.6321
    19.7047  19.7499  19.8333  19.8641  19.9136  19.9843  20.1315  20.2224
    20.2808  20.3225  20.4529  20.5011  20.5939  20.7812  20.8048  20.9149
    20.9942  21.0254  21.0958  21.1370  21.2129  21.2761  21.3477  21.3666
    21.5721  21.5955  21.7039  21.7375  21.8153  21.9023  21.9692  22.0518
    22.1123  22.1855  22.2811  22.3488  22.4040  22.4775  22.5197  22.5674
    22.6177  22.7179  22.7391  22.7895  22.9296  22.9508  22.9986

          k =-0.5000-0.4833 0.0000 ( 30496 PWs)   bands (ev):

   -47.8489 -47.7441 -47.7322 -47.6907 -47.6853 -47.6745 -47.6415 -47.6398
   -47.6045 -47.5767 -47.5501 -47.5487 -47.5073 -47.4790 -47.4177 -47.3991
   -47.3752 -47.3747 -47.3580 -47.3535 -47.2633 -47.2620 -47.2513 -47.2499
   -24.3440 -20.3881 -20.3757 -20.0137 -19.9568 -19.9399 -19.8327 -19.7725
   -19.7344 -19.7030 -19.6799 -19.6486 -19.6131 -19.6003 -19.3950 -19.3707
   -19.1379 -18.6811 -18.5661 -17.8074  -9.6617  -9.4649  -9.4144  -9.2391
    -9.2259  -9.1390  -9.0567  -8.9454  -8.9409  -8.5982  -8.5621  -8.3750
    -8.3165  -8.1047  -7.9986  -7.9706  -7.9305  -7.8871  -7.8671  -7.8527
    -7.8016  -7.7596  -7.7367  -7.4492  -7.4423  -7.3126  -7.2350  -6.9839
    -6.8957  -6.7129  -6.6663  -6.5722  -6.4776  -6.3867  -6.3762  -6.3166
    -6.1821  -6.0132  -5.8312  -5.7910  -5.6823  -5.5757  -5.5569  -5.2858
    -5.2506  -5.1867  -5.1687  -5.0128  -4.9551  -4.8112  -4.7136  -4.2272
    -4.1678  -4.1299  -3.8625  -3.4382  -3.3441  -3.3279  -3.0952  -3.0389
    -2.9867  -2.9568  -2.9025  -2.8630  -2.8404  -2.7693  -2.7608  -2.7145
    -2.6387  -2.6239  -2.2728  -2.1827  -2.1522  -1.9919  -1.9510  -1.9408
    -1.8550  -1.7948  -1.7411  -1.6883  -1.6545  -1.6009  -1.5858   0.0349
     0.7264   0.7323   0.7428   0.7982   1.0998   1.4697   1.4852   1.5698
     1.8972   2.2120   2.2278   2.6259   2.6722   2.7739   2.8056   3.1832
     4.1005   5.0689   5.3844   5.4011   5.4885   5.5276   5.7347   5.7468
     5.8344   5.8534   6.0285   6.0452   6.2427   6.3854   6.5502   6.6271
     6.7487   7.0360   7.1384   7.3278   7.4401   7.8134   7.8506   8.0322
     8.0775   8.1687   8.2877   8.3954   8.8473   8.9109   8.9210   9.1078
     9.1978   9.2537   9.5582   9.5993   9.8830   9.9813  10.2432  10.5289
    10.6423  10.6853  10.8282  10.9435  10.9702  11.0062  11.1457  11.4585
    11.7074  11.8285  11.8764  11.9047  11.9209  12.1513  12.1605  12.2024
    12.2206  12.3368  12.4319  12.4837  12.5083  12.5828  12.6464  12.6912
    12.8039  12.9169  12.9434  13.0067  13.0182  13.0664  13.0935  13.1225
    13.1973  13.2266  13.3330  13.3645  13.3766  13.4269  13.4471  13.4676
    13.4733  13.4793  13.5145  13.5465  13.5773  13.6200  13.6332  13.7628
    13.8428  13.8553  13.9601  13.9813  14.0570  14.0689  14.1312  14.1439
    14.1837  14.2053  14.2413  14.2684  14.3109  14.4024  14.4375  14.4862
    14.5283  14.6478  14.7642  14.8601  14.9457  15.0185  15.0282  15.0426
    15.0991  15.1856  15.2124  15.2535  15.3159  15.3388  15.4239  15.4634
    15.4802  15.5727  15.8147  15.8860  15.8917  16.0562  16.0675  16.0791
    16.1942  16.2116  16.3338  16.4481  16.5685  16.5966  16.6866  16.7124
    16.7386  16.8633  16.8886  16.9566  17.0502  17.1215  17.1667  17.1909
    17.2127  17.3260  17.4853  17.5238  17.5686  17.5879  17.6994  17.8206
    18.0099  18.1570  18.2726  18.2943  18.3614  18.4697  18.5612  18.6179
    18.6634  18.6847  18.7115  18.8719  18.9525  19.0388  19.1534  19.1835
    19.2496  19.3038  19.3378  19.4293  19.5910  19.7790  19.8743  19.9225
    19.9531  20.0768  20.2198  20.3059  20.3332  20.5207  20.5651  20.6524
    20.7492  20.7767  20.8010  20.8268  20.8816  20.9242  20.9652  21.0207
    21.0476  21.0901  21.1358  21.1737  21.1973  21.2755  21.2910  21.3424
    21.4445  21.4920  21.5495  21.6336  21.6842  21.7044  21.7672  21.8370
    21.8945  21.9826  22.0333  22.0797  22.0917  22.1658  22.1835  22.3032
    22.3278  22.3936  22.5323  22.5928  22.6630  22.7074  22.7941

          k =-0.2500 0.2417 0.0000 ( 30481 PWs)   bands (ev):

   -47.8611 -47.7325 -47.7261 -47.7195 -47.6903 -47.6447 -47.6376 -47.6365
   -47.6047 -47.5904 -47.5740 -47.5090 -47.5043 -47.4786 -47.4194 -47.3968
   -47.3932 -47.3756 -47.3712 -47.3151 -47.2693 -47.2571 -47.2557 -47.2432
   -24.3438 -20.6206 -20.3279 -20.3003 -20.2730 -19.9442 -19.8717 -19.8526
   -19.8184 -19.6970 -19.5634 -19.5036 -19.4810 -19.3019 -19.2885 -19.2435
   -19.1086 -18.6304 -18.4496 -17.8109 -10.0977  -9.9927  -9.7728  -9.6776
    -9.6126  -9.5114  -9.3283  -9.2852  -9.2054  -8.9176  -8.3885  -8.3011
    -8.2183  -8.1512  -8.1085  -8.0079  -7.9636  -7.7670  -7.7118  -7.6030
    -7.4514  -7.3173  -7.1824  -7.1048  -7.0287  -6.8460  -6.7655  -6.6978
    -6.6369  -6.5650  -6.4787  -6.4092  -6.3522  -6.3077  -6.2466  -6.1497
    -6.1321  -6.0539  -5.9721  -5.8516  -5.7398  -5.6487  -5.4825  -5.3649
    -5.0146  -4.9884  -4.7623  -4.5981  -4.5159  -4.4147  -4.3117  -4.2296
    -4.1695  -4.0518  -4.0303  -3.9612  -3.8826  -3.6355  -3.5752  -3.4896
    -3.3582  -3.1921  -3.1636  -3.0870  -3.0444  -3.0075  -2.9486  -2.8555
    -2.8175  -2.7017  -2.5859  -2.5287  -2.2811  -2.0757  -1.9344  -1.8888
    -1.8030  -1.7679  -1.6177  -1.5025  -1.3616  -1.2874  -1.2212  -0.1485
     0.4577   0.5328   0.7109   1.0294   1.3172   1.6158   1.7935   2.0448
     2.1410   2.3033   2.3727   2.4985   2.5247   2.6387   2.8931   3.1212
     3.6910   4.1877   4.4231   4.9683   5.1989   5.5011   5.8240   5.9811
     6.0297   6.2020   6.2954   6.4698   6.6130   6.8669   6.9068   7.2226
     7.3934   7.4855   7.6668   7.8114   7.8571   8.1442   8.2065   8.3034
     8.3971   8.4960   8.6858   8.8167   8.8626   9.0170   9.1477   9.1934
     9.3388   9.4067   9.4774   9.6259   9.7878   9.8286   9.9360   9.9804
    10.0787  10.1706  10.3029  10.3681  10.4741  10.5251  10.6256  10.7066
    10.7773  10.9060  10.9977  11.1206  11.1774  11.3000  11.3257  11.4215
    11.4999  11.6025  11.6682  11.7048  11.7861  11.8275  11.9257  11.9640
    12.0328  12.1335  12.2631  12.3442  12.4285  12.5054  12.5416  12.5861
    12.6431  12.7526  12.8284  12.9515  13.0071  13.0677  13.1014  13.1733
    13.2915  13.4206  13.4532  13.6059  13.6449  13.7264  13.8076  13.8798
    14.0000  14.0487  14.1411  14.1717  14.2730  14.3663  14.4441  14.4579
    14.5416  14.5673  14.6698  14.7368  14.8139  14.8567  15.0194  15.0291
    15.1009  15.2085  15.2691  15.3247  15.4580  15.5078  15.5804  15.6262
    15.6775  15.7686  15.8129  15.8566  15.9435  15.9756  16.0227  16.0925
    16.1362  16.1988  16.3224  16.3836  16.4585  16.5018  16.5351  16.6269
    16.6454  16.7362  16.7933  16.8938  16.9822  17.0667  17.1018  17.1686
    17.2313  17.2755  17.3133  17.4387  17.4621  17.5246  17.5734  17.6083
    17.7258  17.7358  17.7836  17.8591  17.9669  18.0002  18.0840  18.1296
    18.2022  18.2653  18.3644  18.4023  18.5311  18.6205  18.6490  18.6995
    18.8569  18.9282  18.9860  19.0124  19.0645  19.1873  19.2447  19.3360
    19.3975  19.4698  19.4970  19.5869  19.6477  19.7015  19.7864  19.9155
    19.9610  20.0578  20.1360  20.2247  20.3002  20.3408  20.3668  20.5025
    20.6160  20.6981  20.7274  20.7525  20.7920  20.8740  20.9683  20.9953
    21.0856  21.1241  21.1604  21.2063  21.2927  21.3716  21.4318  21.4536
    21.5265  21.5948  21.6783  21.7036  21.7703  21.8205  21.8498  21.9439
    22.0624  22.0905  22.1367  22.2158  22.2834  22.3523  22.4235  22.4583
    22.5466  22.6116  22.6650  22.7211  22.8074  22.8802  22.9280

     the Fermi energy is    -1.6725 ev

!    total energy              =   -2010.54554454 Ry
     Harris-Foulkes estimate   =   -2010.54554514 Ry
     estimated scf accuracy    <       0.00000095 Ry

     The total energy is the sum of the following terms:

     one-electron contribution =  -23703.48979084 Ry
     hartree contribution      =   11910.66023869 Ry
     xc contribution           =    -380.13749595 Ry
     ewald contribution        =   10159.50195509 Ry
     Hubbard energy            =       2.92025295 Ry
     smearing contrib. (-TS)   =      -0.00070448 Ry

     convergence has been achieved in  31 iterations

     Forces acting on atoms (Ry/au):


     negative rho (up, down):  0.687E+00 0.000E+00
     atom    1 type  1   force =    -0.00820432   -0.01183444    0.00400287
     atom    2 type  1   force =     0.00030771    0.00796854    0.00258875
     atom    3 type  2   force =     0.03302999    0.00555311   -0.01365108
     atom    4 type  2   force =     0.00775323    0.00785747   -0.00314537
     atom    5 type  1   force =    -0.00402093   -0.02893708    0.00191177
     atom    6 type  1   force =     0.00299523    0.02739819    0.00076041
     atom    7 type  1   force =    -0.00025728   -0.00505102    0.02474855
     atom    8 type  1   force =    -0.00265526    0.00092727    0.00158460
     atom    9 type  2   force =     0.00310163    0.00051942   -0.00828912
     atom   10 type  2   force =    -0.00022265    0.00104294   -0.00311770
     atom   11 type  1   force =    -0.01027886    0.02325390   -0.00372209
     atom   12 type  1   force =    -0.00360876   -0.01749533   -0.00370260
     atom   13 type  1   force =    -0.00060516   -0.00264766    0.00381258
     atom   14 type  1   force =    -0.00740154   -0.01150739    0.00406709
     atom   15 type  1   force =     0.00021769    0.00817781    0.00284575
     atom   16 type  2   force =    -0.03291026    0.00587970   -0.01358840
     atom   17 type  2   force =     0.00769206    0.00851803   -0.00659112
     atom   18 type  1   force =    -0.00154958   -0.02978813    0.00184973
     atom   19 type  1   force =     0.00542906    0.02672358    0.00076526
     atom   20 type  1   force =    -0.00020050   -0.00673456    0.01234336
     atom   21 type  1   force =    -0.00289837    0.00128491    0.00202050
     atom   22 type  2   force =    -0.00066204    0.00030181   -0.00836214
     atom   23 type  2   force =    -0.00027619    0.00304042   -0.00954802
     atom   24 type  1   force =     0.00986333    0.02312954   -0.00364768
     atom   25 type  1   force =     0.00462817   -0.01758470   -0.00379270
     atom   26 type  1   force =    -0.00082345   -0.01058855    0.00746250
     atom   27 type  3   force =    -0.00018514   -0.00467619    0.00221595
     atom   28 type  3   force =    -0.00016203   -0.00523526    0.00286963
     atom   29 type  3   force =     0.00100709    0.00043027    0.00033210
     atom   30 type  3   force =     0.00089716    0.00040851    0.00056206
     atom   31 type  1   force =    -0.00016582   -0.01743802    0.01585175
     atom   32 type  1   force =     0.00015172    0.01645496   -0.01294441
     atom   33 type  3   force =     0.00001408    0.00064793    0.00150722

     Total force =     0.051748     Total SCF correction =     0.001839


     entering subroutine stress ...


     negative rho (up, down):  0.687E+00 0.000E+00
          total   stress  (Ry/bohr**3)                   (kbar)     P=  -18.63
  -0.00012407   0.00000631   0.00000427        -18.25      0.93      0.63
   0.00000631  -0.00015122   0.00000856          0.93    -22.25      1.26
   0.00000427   0.00000856  -0.00010468          0.63      1.26    -15.40


     BFGS Geometry Optimization

     number of scf cycles    =   1
     number of bfgs steps    =   0

     energy   new            =   -2010.5455445437 Ry

     new trust radius        =       0.0247485468 bohr
     new conv_thr            =       0.0000010000 Ry


ATOMIC_POSITIONS (crystal)
O0       0.000000000   0.000000000   0.377870131    0   0   1
O0       0.000000000   0.500000000   0.401421822    0   0   1
Rh1      0.250000000   0.500000000   0.452576728    0   0   1
Rh1      0.000000000   0.000000000   0.452307035    0   0   1
O0       0.250000000   0.810000000   0.452198270    0   0   1
O0       0.250000000   0.190000000   0.452035222    0   0   1
O0       0.000000000   0.500000000   0.498925424    0   0   1
O0       0.000000000   0.000000000   0.527881721    0   0   1
Rh1      0.250000000   0.000000000   0.574954066    0   0   1
Rh1      0.000000000   0.500000000   0.570507589    0   0   1
O0       0.250000000   0.690000000   0.574605490    0   0   1
O0       0.250000000   0.310000000   0.577025880    0   0   1
O0       0.000000000   0.000000000   0.620636321    0   0   1
O0       0.500000000   0.000000000   0.377931416    0   0   1
O0       0.500000000   0.500000000   0.401606967    0   0   1
Rh1      0.750000000   0.500000000   0.452567983    0   0   1
Rh1      0.500000000   0.000000000   0.452238057    0   0   1
O0       0.750000000   0.810000000   0.452167028    0   0   1
O0       0.750000000   0.190000000   0.452075319    0   0   1
O0       0.500000000   0.500000000   0.500357093    0   0   1
O0       0.500000000   0.000000000   0.527770447    0   0   1
Rh1      0.750000000   0.000000000   0.574952604    0   0   1
Rh1      0.500000000   0.500000000   0.577858865    0   0   1
O0       0.750000000   0.690000000   0.574596980    0   0   1
O0       0.750000000   0.310000000   0.577024077    0   0   1
O0       0.500000000   0.000000000   0.620169387    0   0   1
H2       0.000034249   0.638355438   0.384874360
H2       0.499906215   0.638409460   0.385047445
H2       0.147855680   0.035995385   0.367156648
H2       0.648516327   0.033493595   0.367181252
O0       0.499715893   0.535685925   0.650937325
O0       0.500342908   0.346773230   0.678200875
H2       0.499931198   0.402213285   0.713270172


     Check: negative starting charge=   -0.646062
     NEW-OLD atomic charge density approx. for the potential

     Check: negative/imaginary core charge=   -0.000003    0.000000
     Check: negative starting charge=   -0.645970

     negative rho (up, down):  0.687E+00 0.000E+00
 Atomic wfc used for LDA+U Projector are NOT orthogonalized

     total cpu time spent up to now is     9052.6 secs

     per-process dynamical memory:   457.6 Mb

     Self-consistent Calculation

     iteration #  1     ecut=    40.00 Ry     beta=0.30
     Davidson diagonalization with overlap
     ethr =  1.00E-06,  avg # of iterations =  4.3
 --- enter write_ns ---
 LDA+U parameters:
U( 2)     =  8.00000000
alpha( 2) =  0.00000000
atom    3   Tr[ns(na)] =   8.13049
    eigenvalues: 
  0.579  0.600  0.933  0.972  0.982
    eigenvectors:
  0.019  0.183  0.002  0.000  0.796
  0.910  0.090  0.000  0.000  0.000
  0.000  0.000  0.986  0.012  0.002
  0.071  0.728  0.000  0.000  0.201
  0.000  0.000  0.012  0.988  0.000
    occupations:
  0.904 -0.004  0.001 -0.154 -0.001
 -0.004  0.581 -0.001 -0.005 -0.005
  0.001 -0.001  0.934 -0.004  0.004
 -0.154 -0.005 -0.004  0.675 -0.000
 -0.001 -0.005  0.004 -0.000  0.971
atom    4   Tr[ns(na)] =   8.14856
    eigenvalues: 
  0.593  0.648  0.908  0.943  0.982
    eigenvectors:
  0.001  0.991  0.000  0.000  0.008
  0.000  0.000  0.109  0.891  0.000
  0.000  0.000  0.891  0.109  0.000
  0.000  0.008  0.000  0.000  0.992
  0.999  0.001  0.000  0.000  0.000
    occupations:
  0.651 -0.004 -0.002  0.029  0.001
 -0.004  0.939  0.011  0.001 -0.001
 -0.002  0.011  0.912 -0.000  0.001
  0.029  0.001 -0.000  0.980  0.000
  0.001 -0.001  0.001  0.000  0.593
atom    9   Tr[ns(na)] =   8.14448
    eigenvalues: 
  0.634  0.642  0.891  0.922  0.983
    eigenvectors:
  0.004  0.149  0.000  0.000  0.847
  0.973  0.027  0.000  0.000  0.000
  0.000  0.000  0.979  0.020  0.000
  0.023  0.824  0.000  0.000  0.152
  0.000  0.000  0.020  0.979  0.000
    occupations:
  0.931 -0.001 -0.001 -0.123 -0.001
 -0.001  0.634  0.000  0.002 -0.000
 -0.001  0.000  0.892 -0.005 -0.004
 -0.123  0.002 -0.005  0.694  0.001
 -0.001 -0.000 -0.004  0.001  0.921
atom   10   Tr[ns(na)] =   8.09883
    eigenvalues: 
  0.579  0.592  0.946  0.950  0.982
    eigenvectors:
  0.991  0.000  0.000  0.000  0.009
  0.000  0.001  0.001  0.999  0.000
  0.000  0.000  0.999  0.001  0.000
  0.009  0.000  0.000  0.000  0.991
  0.000  0.999  0.000  0.001  0.000
    occupations:
  0.583  0.000  0.008  0.038 -0.000
  0.000  0.950 -0.000 -0.000 -0.010
  0.008 -0.000  0.946 -0.000 -0.000
  0.038 -0.000 -0.000  0.979  0.000
 -0.000 -0.010 -0.000  0.000  0.592
atom   16   Tr[ns(na)] =   8.13024
    eigenvalues: 
  0.579  0.600  0.933  0.972  0.982
    eigenvectors:
  0.018  0.183  0.002  0.000  0.796
  0.915  0.085  0.000  0.000  0.000
  0.000  0.000  0.991  0.007  0.002
  0.067  0.732  0.000  0.000  0.201
  0.000  0.000  0.007  0.993  0.000
    occupations:
  0.904  0.004  0.001 -0.154  0.000
  0.004  0.581 -0.000  0.005 -0.005
  0.001 -0.000  0.934 -0.004 -0.003
 -0.154  0.005 -0.004  0.675 -0.000
  0.000 -0.005 -0.003 -0.000  0.971
atom   17   Tr[ns(na)] =   8.14651
    eigenvalues: 
  0.594  0.649  0.905  0.943  0.982
    eigenvectors:
  0.001  0.991  0.000  0.000  0.008
  0.000  0.000  0.066  0.934  0.000
  0.000  0.000  0.934  0.066  0.000
  0.000  0.008  0.000  0.000  0.992
  0.999  0.001  0.000  0.000  0.000
    occupations:
  0.652 -0.005 -0.001  0.030  0.002
 -0.005  0.941  0.009  0.001 -0.001
 -0.001  0.009  0.907 -0.000  0.001
  0.030  0.001 -0.000  0.980 -0.000
  0.002 -0.001  0.001 -0.000  0.594
atom   22   Tr[ns(na)] =   8.14430
    eigenvalues: 
  0.634  0.642  0.891  0.922  0.984
    eigenvectors:
  0.000  0.152  0.000  0.000  0.847
  0.998  0.002  0.000  0.000  0.000
  0.000  0.000  0.981  0.019  0.000
  0.001  0.846  0.000  0.000  0.152
  0.000  0.000  0.019  0.981  0.000
    occupations:
  0.931  0.002 -0.001 -0.123  0.000
  0.002  0.634  0.001 -0.001 -0.000
 -0.001  0.001  0.891 -0.005  0.004
[...]
    16.7165  16.7350  16.7536  16.7593  16.7943  16.9072  16.9318  16.9959
    17.1722  17.2987  17.3457  17.3579  17.4968  17.5217  17.5785  17.6904
    17.7360  17.7924  17.8792  17.9355  18.0577  18.1005  18.1489  18.3662
    18.4380  18.4653  18.5394  18.5754  18.6689  18.7279  18.7778  18.8048
    18.9826  19.0502  19.0997  19.1358  19.1880  19.2007  19.2411  19.2514
    19.3375  19.3846  19.3890  19.4253  19.5480  19.6176  19.7297  19.7374
    19.7902  19.9691  19.9956  20.0182  20.0317  20.0601  20.0986  20.1504
    20.2200  20.2980  20.3168  20.3248  20.4753  20.5375  20.5673  20.6355
    20.6892  20.7430  20.9053  20.9362  20.9571  21.0543  21.1032  21.1951
    21.2412  21.2691  21.3052  21.3499  21.4221  21.4481  21.4992  21.5360
    21.5667  21.6821  21.7222  21.8900  21.9387  22.0619  22.0803  22.1194
    22.1467  22.2083  22.2859  22.3452  22.4180  22.5111  22.6121

          k =-0.5000 0.2417 0.0000 ( 30500 PWs)   bands (ev):

   -47.8103 -47.7286 -47.7176 -47.6529 -47.6480 -47.6394 -47.5993 -47.5981
   -47.5734 -47.5500 -47.5008 -47.4995 -47.4746 -47.4491 -47.3990 -47.3645
   -47.3299 -47.3296 -47.3111 -47.3079 -47.2201 -47.2193 -47.2166 -47.2155
   -24.6572 -20.4320 -20.4111 -20.0699 -20.0498 -19.9612 -19.9514 -19.8454
   -19.7040 -19.6729 -19.4630 -19.4409 -19.4297 -19.4168 -19.3604 -19.3456
   -19.1293 -18.5982 -18.5019 -17.7108  -9.7817  -9.4380  -9.3898  -9.3058
    -9.2955  -9.0910  -9.0008  -8.9618  -8.9306  -8.7866  -8.7523  -8.6605
    -8.6294  -8.4521  -8.3861  -8.3433  -8.2552  -8.0562  -7.9600  -7.7939
    -7.4171  -7.1462  -7.1201  -7.0574  -7.0130  -6.9418  -6.8417  -6.7877
    -6.7337  -6.7070  -6.6420  -6.4742  -6.4104  -6.3502  -6.2923  -6.2105
    -6.1083  -6.0156  -5.9515  -5.8820  -5.8264  -5.6983  -5.6175  -5.3590
    -5.3219  -5.1262  -4.9741  -4.7148  -4.6608  -4.4682  -4.4094  -4.1786
    -4.1623  -4.1009  -3.8988  -3.4862  -3.3932  -3.3165  -3.2248  -3.2042
    -3.1793  -3.1617  -3.0452  -2.8991  -2.8415  -2.8018  -2.7880  -2.6945
    -2.4822  -2.4178  -2.2371  -2.1374  -2.1066  -2.0344  -1.9862  -1.9159
    -1.8110  -1.7130  -1.6844  -1.6677  -1.5906  -1.4619  -1.4376   0.0134
     0.8294   1.0856   1.1106   1.1487   1.2393   1.4747   1.4930   1.6450
     1.8463   2.1254   2.2245   2.3926   2.4112   2.7902   2.8435   3.3923
     4.0859   4.6308   4.9332   4.9440   5.1257   5.1824   5.6538   5.6746
     6.1370   6.1809   6.4384   6.5012   6.5909   6.7055   6.8852   6.9944
     7.0531   7.2841   7.3871   7.5377   7.5822   7.6573   8.0540   8.1483
     8.3089   8.5163   8.5567   8.6827   8.8810   8.9071   9.1225   9.1679
     9.4425   9.4915   9.6025   9.7724   9.9913  10.0153  10.1531  10.1994
    10.2583  10.2998  10.4971  10.5202  10.5821  10.5991  10.7853  10.8733
    10.9667  11.1279  11.1575  11.2238  11.3583  11.3677  11.4417  11.5394
    11.7258  11.8660  11.9635  11.9982  12.1463  12.1909  12.3023  12.3567
    12.4385  12.4777  12.6002  12.6337  12.6859  12.7030  12.8381  12.8744
    12.9462  13.0066  13.0452  13.1334  13.2292  13.2923  13.3317  13.3798
    13.5241  13.5615  13.6347  13.7671  13.8188  13.8643  13.9606  14.0064
    14.1103  14.1403  14.2243  14.2828  14.3675  14.4237  14.4969  14.5059
    14.6055  14.6617  14.6833  14.7358  14.7664  14.8181  14.9271  14.9494
    15.0024  15.0457  15.1282  15.1643  15.2619  15.2940  15.3543  15.4219
    15.4685  15.5325  15.5750  15.6017  15.6532  15.6902  15.8102  15.8261
    15.8846  15.9478  16.0421  16.1566  16.2076  16.2595  16.3265  16.3916
    16.4751  16.5167  16.5535  16.6161  16.6470  16.7141  16.8310  16.8678
    17.0469  17.0670  17.1398  17.1622  17.2238  17.2978  17.3832  17.4236
    17.5319  17.5910  17.7664  17.8267  17.8489  17.8736  17.9539  17.9886
    18.0529  18.1362  18.2834  18.3480  18.4180  18.5126  18.5841  18.6049
    18.6571  18.7123  18.7737  18.8112  18.8419  18.9029  18.9836  19.0257
    19.2035  19.2385  19.2937  19.3176  19.5161  19.5444  19.5962  19.6329
    19.7009  19.7465  19.8207  19.8602  19.9166  19.9739  20.1327  20.2232
    20.2745  20.3306  20.4537  20.5029  20.5999  20.7766  20.8007  20.9247
    20.9929  21.0285  21.0934  21.1462  21.2141  21.2853  21.3518  21.3675
    21.5577  21.5922  21.6951  21.7292  21.8285  21.8974  21.9656  22.0587
    22.1360  22.1993  22.2779  22.3480  22.4047  22.4888  22.5267  22.5942
    22.6386  22.7151  22.7631  22.8165  22.9485  22.9675  22.9996

          k =-0.5000-0.4833 0.0000 ( 30496 PWs)   bands (ev):

   -47.8104 -47.7286 -47.7179 -47.6529 -47.6481 -47.6395 -47.5986 -47.5973
   -47.5734 -47.5501 -47.5007 -47.4994 -47.4735 -47.4479 -47.3993 -47.3647
   -47.3310 -47.3306 -47.3108 -47.3076 -47.2202 -47.2194 -47.2167 -47.2156
   -24.6574 -20.4172 -20.3915 -19.9596 -19.9303 -19.9183 -19.7962 -19.7322
   -19.6975 -19.6656 -19.6416 -19.6047 -19.5854 -19.5761 -19.3740 -19.3565
   -19.1262 -18.6012 -18.5010 -17.7066  -9.7425  -9.4445  -9.4079  -9.1964
    -9.1822  -9.1129  -9.0419  -8.9524  -8.9118  -8.5821  -8.5684  -8.3679
    -8.2994  -8.1004  -7.9645  -7.9372  -7.9069  -7.8516  -7.8354  -7.8217
    -7.7825  -7.7394  -7.7173  -7.4337  -7.4106  -7.3046  -7.2213  -6.9580
    -6.8659  -6.6646  -6.6381  -6.5582  -6.4654  -6.3756  -6.3453  -6.3255
    -6.1948  -5.9985  -5.7984  -5.7860  -5.6957  -5.5408  -5.5204  -5.2347
    -5.2248  -5.1561  -5.1502  -4.9583  -4.9210  -4.7612  -4.6777  -4.1753
    -4.1280  -4.0703  -3.8717  -3.4191  -3.3061  -3.2897  -3.0561  -3.0003
    -2.9347  -2.9233  -2.8731  -2.8327  -2.8100  -2.7360  -2.7254  -2.6784
    -2.5992  -2.5862  -2.2076  -2.1358  -2.1155  -1.9601  -1.9160  -1.9047
    -1.8157  -1.7534  -1.6989  -1.6537  -1.6180  -1.5620  -1.5416   0.1078
     0.7720   0.7751   0.7826   0.8380   1.1215   1.5218   1.5351   1.6237
     1.9478   2.2653   2.2791   2.6630   2.7246   2.8217   2.8427   3.4445
     4.1478   5.0457   5.3893   5.3998   5.4887   5.5145   5.7222   5.7372
     5.8261   5.8461   6.0207   6.0433   6.2279   6.3759   6.5433   6.6229
     6.7395   7.0327   7.1357   7.3242   7.4296   7.8115   7.8570   8.0526
     8.0890   8.1685   8.3276   8.4340   8.8773   8.8976   8.9671   9.1466
     9.2143   9.2693   9.5565   9.5997   9.8685   9.9797  10.2585  10.5514
    10.6464  10.7081  10.8544  10.9434  10.9907  11.0122  11.1526  11.4633
    11.7105  11.8286  11.8714  11.9235  11.9322  12.1563  12.1720  12.2051
    12.2355  12.3368  12.4653  12.5021  12.5267  12.5912  12.6666  12.6988
    12.8196  12.9263  12.9499  13.0000  13.0150  13.0611  13.0943  13.1303
    13.2058  13.2338  13.3449  13.3699  13.3845  13.4326  13.4530  13.4686
    13.4804  13.4904  13.5177  13.5418  13.5842  13.6169  13.6366  13.7860
    13.8463  13.8693  13.9698  13.9964  14.0626  14.0759  14.1337  14.1465
    14.1994  14.2119  14.2609  14.2816  14.3250  14.4076  14.4400  14.4962
    14.5394  14.6469  14.7841  14.8621  14.9508  15.0088  15.0296  15.0395
    15.0978  15.1751  15.2105  15.2535  15.3181  15.3533  15.4233  15.4686
    15.4770  15.5753  15.8112  15.8951  15.9047  16.0631  16.0701  16.0835
    16.2000  16.2309  16.3444  16.4506  16.5879  16.6060  16.6970  16.7185
    16.7446  16.8731  16.8862  16.9633  17.0578  17.1374  17.1883  17.1929
    17.2316  17.3156  17.4856  17.5227  17.5708  17.5904  17.6998  17.8203
    18.0145  18.1756  18.2679  18.3069  18.3646  18.4721  18.5760  18.6190
    18.6647  18.6917  18.7073  18.8729  18.9560  19.0386  19.1504  19.1741
    19.2459  19.3052  19.3430  19.4212  19.5746  19.7697  19.8713  19.9138
    19.9430  20.0701  20.2188  20.2955  20.3361  20.5246  20.5644  20.6431
    20.7436  20.7745  20.7945  20.8309  20.8729  20.9255  20.9628  21.0148
    21.0511  21.0866  21.1319  21.1655  21.1921  21.2636  21.2858  21.3367
    21.4410  21.4880  21.5361  21.6200  21.6901  21.7037  21.7731  21.8489
    21.9051  21.9845  22.0276  22.0804  22.0957  22.1634  22.1790  22.3165
    22.3346  22.3838  22.5254  22.5990  22.6658  22.7233  22.7839

          k =-0.2500 0.2417 0.0000 ( 30481 PWs)   bands (ev):

   -47.8242 -47.7287 -47.6984 -47.6831 -47.6526 -47.6020 -47.6011 -47.5949
   -47.5728 -47.5510 -47.5380 -47.4750 -47.4549 -47.4472 -47.4001 -47.3633
   -47.3463 -47.3318 -47.3271 -47.2685 -47.2264 -47.2225 -47.2129 -47.2090
   -24.6571 -20.6152 -20.3314 -20.2987 -20.2497 -19.8968 -19.8476 -19.8142
   -19.7691 -19.6841 -19.5458 -19.4662 -19.4431 -19.2849 -19.2538 -19.2035
   -19.0961 -18.5544 -18.3872 -17.7100 -10.0693  -9.9616  -9.8258  -9.6577
    -9.6081  -9.5019  -9.2910  -9.2618  -9.2106  -8.9119  -8.3602  -8.2652
    -8.2323  -8.1382  -8.0816  -7.9895  -7.9481  -7.7464  -7.6966  -7.5790
    -7.4467  -7.2960  -7.1724  -7.0792  -6.9983  -6.8436  -6.7361  -6.6664
    -6.6095  -6.5359  -6.4564  -6.3748  -6.3338  -6.2799  -6.2242  -6.1241
    -6.0927  -6.0256  -5.9516  -5.8412  -5.7144  -5.6425  -5.5344  -5.3414
    -5.0088  -4.9132  -4.7233  -4.5544  -4.4809  -4.3645  -4.2744  -4.2082
    -4.1289  -4.0010  -3.9857  -3.9248  -3.8448  -3.6039  -3.5495  -3.4534
    -3.3147  -3.1527  -3.1280  -3.0536  -3.0083  -2.9703  -2.9165  -2.8272
    -2.7845  -2.6564  -2.5458  -2.4953  -2.2406  -2.0412  -1.9135  -1.8345
    -1.7546  -1.7268  -1.5799  -1.4657  -1.3184  -1.2469  -1.1795  -0.0787
     0.4976   0.5735   0.7465   1.0882   1.3689   1.6638   1.8557   2.0710
     2.1876   2.3545   2.4157   2.5390   2.5663   2.6816   2.9661   3.2463
     3.8692   4.1898   4.4127   4.9567   5.1865   5.4959   5.8200   5.9779
     6.0315   6.1901   6.2860   6.4605   6.6237   6.8615   6.9070   7.2252
     7.3924   7.4806   7.6644   7.8193   7.8620   8.1336   8.1992   8.3003
     8.4070   8.5142   8.6981   8.8319   8.8686   9.0403   9.1557   9.1904
     9.3403   9.4141   9.4924   9.6285   9.7858   9.8258   9.9487   9.9872
    10.0859  10.1740  10.2995  10.3793  10.4789  10.5325  10.6312  10.7092
    10.7823  10.9108  10.9949  11.1343  11.1803  11.3097  11.3363  11.4349
    11.5171  11.6187  11.6697  11.7013  11.7921  11.8472  11.9380  11.9749
    12.0368  12.1374  12.2657  12.3496  12.4495  12.5095  12.5391  12.5931
    12.6450  12.7584  12.8475  12.9704  13.0497  13.0953  13.1085  13.1863
    13.3106  13.4311  13.4675  13.6122  13.6562  13.7462  13.8022  13.8883
    14.0045  14.0723  14.1494  14.1858  14.2837  14.3734  14.4474  14.4779
    14.5525  14.5724  14.7103  14.7383  14.8226  14.8911  15.0203  15.0404
    15.1115  15.2159  15.2756  15.3531  15.4697  15.5064  15.5927  15.6276
    15.6770  15.7765  15.8185  15.8613  15.9479  15.9753  16.0229  16.1016
    16.1366  16.1954  16.3204  16.3806  16.4533  16.5061  16.5349  16.6298
    16.6464  16.7394  16.7958  16.8955  16.9876  17.0645  17.1177  17.1670
    17.2367  17.2741  17.3163  17.4426  17.4796  17.5340  17.5716  17.6030
    17.7263  17.7410  17.7858  17.8571  17.9601  18.0106  18.0782  18.1284
    18.1945  18.2656  18.3629  18.4134  18.5348  18.6194  18.6490  18.6931
    18.8498  18.9250  18.9791  19.0091  19.0600  19.1814  19.2379  19.3379
    19.4065  19.4747  19.5034  19.5897  19.6464  19.7021  19.7872  19.9142
    19.9605  20.0726  20.1422  20.2297  20.3220  20.3394  20.3648  20.5012
    20.6104  20.6930  20.7257  20.7616  20.8012  20.8790  20.9719  20.9901
    21.0826  21.1241  21.1603  21.2039  21.2940  21.3722  21.4323  21.4540
    21.5183  21.5970  21.6865  21.7070  21.7708  21.8227  21.8541  21.9503
    22.0712  22.0902  22.1383  22.2253  22.2789  22.3533  22.4277  22.4636
    22.5577  22.6224  22.6670  22.7251  22.8091  22.8945  22.9314

     the Fermi energy is    -1.6315 ev

!    total energy              =   -2010.54750123 Ry
     Harris-Foulkes estimate   =   -2010.54750123 Ry
     estimated scf accuracy    <          4.0E-09 Ry

     The total energy is the sum of the following terms:

     one-electron contribution =  -23748.91433978 Ry
     hartree contribution      =   11933.65152031 Ry
     xc contribution           =    -380.18584315 Ry
     ewald contribution        =   10181.98451630 Ry
     Hubbard energy            =       2.91752773 Ry
     smearing contrib. (-TS)   =      -0.00088264 Ry

     convergence has been achieved in  17 iterations

     Forces acting on atoms (Ry/au):


     negative rho (up, down):  0.687E+00 0.000E+00
     atom    1 type  1   force =    -0.00698330   -0.01148254    0.00015951
     atom    2 type  1   force =     0.00013695    0.00289318   -0.00034636
     atom    3 type  2   force =     0.02989324    0.00586523   -0.00015348
     atom    4 type  2   force =     0.00773079    0.00769593    0.00013472
     atom    5 type  1   force =    -0.00428734   -0.02829851    0.00011172
     atom    6 type  1   force =     0.00323360    0.02667918    0.00027920
     atom    7 type  1   force =    -0.00027261   -0.00518924   -0.00037984
     atom    8 type  1   force =    -0.00274308    0.00112633   -0.00053117
     atom    9 type  2   force =     0.00374784    0.00025142   -0.00010026
     atom   10 type  2   force =    -0.00019441    0.00145744   -0.00027076
     atom   11 type  1   force =    -0.00964164    0.02413446    0.00023450
     atom   12 type  1   force =    -0.00297436   -0.01852493    0.00034987
     atom   13 type  1   force =    -0.00059936   -0.00245003   -0.00010271
     atom   14 type  1   force =    -0.00571714   -0.01115557    0.00043136
     atom   15 type  1   force =     0.00007474    0.00262419   -0.00016765
     atom   16 type  2   force =    -0.02985547    0.00595980   -0.00014740
     atom   17 type  2   force =     0.00739356    0.00835972    0.00003287
     atom   18 type  1   force =    -0.00188826   -0.02906856    0.00010873
     atom   19 type  1   force =     0.00554826    0.02605754    0.00028439
     atom   20 type  1   force =    -0.00011426   -0.00688164    0.00083158
     atom   21 type  1   force =    -0.00290159    0.00138535   -0.00072111
     atom   22 type  2   force =    -0.00131352    0.00013879   -0.00010477
     atom   23 type  2   force =    -0.00055812    0.00321012   -0.00075726
     atom   24 type  1   force =     0.00905268    0.02387906    0.00023130
     atom   25 type  1   force =     0.00420873   -0.01867767    0.00041963
     atom   26 type  1   force =    -0.00084775   -0.01027467    0.00038675
     atom   27 type  3   force =    -0.00000240    0.00027444    0.00025828
     atom   28 type  3   force =    -0.00000011    0.00022800    0.00040279
     atom   29 type  3   force =    -0.00002224    0.00010599    0.00020427
     atom   30 type  3   force =    -0.00023160    0.00008143    0.00006962
     atom   31 type  1   force =    -0.00025551   -0.00004378    0.00040564
     atom   32 type  1   force =     0.00041310   -0.00038207   -0.00066056
     atom   33 type  3   force =    -0.00002941    0.00002162   -0.00089342

     Total force =     0.002396     Total SCF correction =     0.000093


     entering subroutine stress ...


     negative rho (up, down):  0.687E+00 0.000E+00
          total   stress  (Ry/bohr**3)                   (kbar)     P=  -17.52
  -0.00012465   0.00000646   0.00000404        -18.34      0.95      0.59
   0.00000646  -0.00014073   0.00000403          0.95    -20.70      0.59
   0.00000404   0.00000403  -0.00009185          0.59      0.59    -13.51


     bfgs converged in   9 scf cycles and   8 bfgs steps
     (criteria: energy < 0.10E-03, force < 0.10E-02)

     End of BFGS Geometry Optimization

     Final energy   =   -2010.5475012294 Ry
Begin final coordinates

ATOMIC_POSITIONS (crystal)
O0       0.000000000   0.000000000   0.378058513    0   0   1
O0       0.000000000   0.500000000   0.401974448    0   0   1
Rh1      0.250000000   0.500000000   0.452975634    0   0   1
Rh1      0.000000000   0.000000000   0.452416286    0   0   1
O0       0.250000000   0.810000000   0.452415460    0   0   1
O0       0.250000000   0.190000000   0.452053367    0   0   1
O0       0.000000000   0.500000000   0.499469655    0   0   1
O0       0.000000000   0.000000000   0.527722342    0   0   1
Rh1      0.250000000   0.000000000   0.574748533    0   0   1
Rh1      0.000000000   0.500000000   0.570922707    0   0   1
O0       0.250000000   0.690000000   0.574105796    0   0   1
O0       0.250000000   0.310000000   0.576431474    0   0   1
O0       0.000000000   0.000000000   0.620435801    0   0   1
O0       0.500000000   0.000000000   0.377948803    0   0   1
O0       0.500000000   0.500000000   0.402030760    0   0   1
Rh1      0.750000000   0.500000000   0.452966029    0   0   1
Rh1      0.500000000   0.000000000   0.452208819    0   0   1
O0       0.750000000   0.810000000   0.452381152    0   0   1
O0       0.750000000   0.190000000   0.452089015    0   0   1
O0       0.500000000   0.500000000   0.500544437    0   0   1
O0       0.500000000   0.000000000   0.527590341    0   0   1
Rh1      0.750000000   0.000000000   0.574746487    0   0   1
Rh1      0.500000000   0.500000000   0.577410244    0   0   1
O0       0.750000000   0.690000000   0.574110209    0   0   1
O0       0.750000000   0.310000000   0.576422468    0   0   1
O0       0.500000000   0.000000000   0.620044537    0   0   1
H2      -0.000177425   0.637273663   0.384995047
H2       0.499714384   0.637729157   0.385232540
H2       0.147806442   0.036256013   0.367440961
H2       0.648633814   0.033852889   0.367418812
O0       0.499279001   0.535753784   0.650666900
O0       0.500829634   0.347085654   0.677938219
H2       0.499934864   0.401353218   0.713014205
End final coordinates



     init_run     :    152.51s CPU    156.71s WALL (       1 calls)
     electrons    :  40877.41s CPU  42237.32s WALL (       9 calls)
     update_pot   :    161.52s CPU    165.64s WALL (       8 calls)
     forces       :   1564.44s CPU   1609.89s WALL (       9 calls)
     stress       :   7607.66s CPU   7810.19s WALL (       9 calls)

     Called by init_run:
     wfcinit      :     47.20s CPU     50.90s WALL (       1 calls)
     potinit      :      7.57s CPU      7.69s WALL (       1 calls)

     Called by electrons:
     c_bands      :  18778.69s CPU  19451.64s WALL (     174 calls)
     sum_band     :   8699.42s CPU   9018.48s WALL (     174 calls)
     v_of_rho     :    229.15s CPU    250.74s WALL (     179 calls)
     newd         :  13801.68s CPU  14029.89s WALL (     179 calls)
     mix_rho      :     43.21s CPU     44.68s WALL (     174 calls)

     Called by c_bands:
     init_us_2    :     68.19s CPU     68.77s WALL (    1398 calls)
     cegterg      :  18500.31s CPU  19119.31s WALL (     522 calls)

     Called by *egterg:
     h_psi        :  11590.90s CPU  11980.44s WALL (    1281 calls)
     s_psi        :   1306.40s CPU   1322.28s WALL (    1578 calls)
     g_psi        :     20.61s CPU     20.65s WALL (     756 calls)
     cdiaghg      :   1278.59s CPU   1282.95s WALL (    1242 calls)

     Called by h_psi:
     add_vuspsi   :   1046.48s CPU   1061.32s WALL (    1281 calls)
     vhpsi        :   1087.66s CPU   1102.98s WALL (    1281 calls)

     General routines
     calbec       :   3002.22s CPU   3054.10s WALL (   12489 calls)
     fft          :    347.36s CPU    451.66s WALL (    3077 calls)
     ffts         :      3.61s CPU      3.79s WALL (     353 calls)
     fftw         :   6458.68s CPU   6968.56s WALL (  982778 calls)
     interpolate  :     36.07s CPU     36.81s WALL (     353 calls)
     davcio       :      0.15s CPU     32.72s WALL (    1641 calls)

     Parallel routines
     fft_scatter  :   2939.82s CPU   3539.07s WALL (  986208 calls)
     Hubbard U routines
     new_ns       :    230.10s CPU    243.88s WALL (     174 calls)
     vhpsi        :   1087.66s CPU   1102.98s WALL (    1281 calls)
     force_hub    :    375.82s CPU    386.27s WALL (       9 calls)
     stres_hub    :   3672.58s CPU   3760.70s WALL (       9 calls)

     PWSCF        :    14h11m CPU       14h38m WALL


   This run was terminated on:  12:20:34   6Jun2014            

=------------------------------------------------------------------------------=
   JOB DONE.
=------------------------------------------------------------------------------=
