
     Program PWSCF v.5.0.2 (svn rev. 9656) starts on 20Mar2014 at 17:54:17 

     This program is part of the open-source Quantum ESPRESSO suite
     for quantum simulation of materials; please cite
         "P. Giannozzi et al., J. Phys.:Condens. Matter 21 395502 (2009);
          URL http://www.quantum-espresso.org", 
     in publications or presentations arising from this work. More details at
     http://www.quantum-espresso.org/quote.php

     Parallel version (MPI), running on    16 processors
     R & G space division:  proc/nbgrp/npool/nimage =      16

     Current dimensions of program PWSCF are:
     Max number of different atomic species (ntypx) = 10
     Max number of k-points (npk) =  40000
     Max angular momentum in pseudopotentials (lmaxx) =  3
     Reading input from pwscf.in
Warning: card &CELL ignored
Warning: card / ignored

     Subspace diagonalization in iterative solution of the eigenvalue problem:
     a serial algorithm will be used


     Parallelization info
     --------------------
     sticks:   dense  smooth     PW     G-vecs:    dense   smooth      PW
     Min         311      99     28                72961    13185    1980
     Max         312     100     29                72973    13229    1986
     Sum        4979    1589    451              1167509   211387   31747



     bravais-lattice index     =            0
     lattice parameter (alat)  =      10.7336  a.u.
     unit-cell volume          =    6184.1966 (a.u.)^3
     number of atoms/cell      =           32
     number of atomic types    =            3
     number of electrons       =       239.00
     number of Kohn-Sham states=          346
     kinetic-energy cutoff     =      40.0000  Ry
     charge density cutoff     =     500.0000  Ry
     convergence threshold     =      1.0E-06
     mixing beta               =       0.7000
     number of iterations used =            8  plain     mixing
     Exchange-correlation      = SLA  PW   PBE  PBE ( 1 4 3 4 0)
     EXX-fraction              =        0.00
     nstep                     =           50


     celldm(1)=  10.733644  celldm(2)=   0.000000  celldm(3)=   0.000000
     celldm(4)=   0.000000  celldm(5)=   0.000000  celldm(6)=   0.000000

     crystal axes: (cart. coord. in units of alat)
               a(1) = (   1.000000   0.000000   0.000000 )  
               a(2) = (   0.000000   1.085558   0.000000 )  
               a(3) = (   0.000000   0.000000   4.606685 )  

     reciprocal axes: (cart. coord. in units 2 pi/alat)
               b(1) = (  1.000000  0.000000  0.000000 )  
               b(2) = (  0.000000  0.921185  0.000000 )  
               b(3) = (  0.000000  0.000000  0.217076 )  


     PseudoPot. # 1 for O  read from file:
     /home/camp/zhonxu/pseudo/o_pbe_v1.01.uspp.F.UPF
     MD5 check sum: 2bcb18d16ea4b960afae9ec6d52f22d2
     Pseudo is Ultrasoft + core correction, Zval =  6.0
     Generated by new atomic code, or converted to UPF format
     Using radial grid of  737 points,  5 beta functions with: 
                l(1) =   0
                l(2) =   0
                l(3) =   1
                l(4) =   1
                l(5) =   2
     Q(r) pseudized with  8 coefficients,  rinner =    0.900   0.900   0.900
                                                       0.900   0.900

     PseudoPot. # 2 for Mn read from file:
     /home/camp/zhonxu/pseudo/mn_pbe_v1.uspp.F.UPF
     MD5 check sum: 5fd7c7b5c956fd19902447332617373a
     Pseudo is Ultrasoft + core correction, Zval = 15.0
     Generated by new atomic code, or converted to UPF format
     Using radial grid of  859 points,  6 beta functions with: 
                l(1) =   0
                l(2) =   0
                l(3) =   1
                l(4) =   1
                l(5) =   2
                l(6) =   2
     Q(r) pseudized with  6 coefficients,  rinner =    1.150   1.150   1.150
                                                       1.150   1.150

     PseudoPot. # 3 for H  read from file:
     /home/camp/zhonxu/pseudo/h_pbe_v1.uspp.F.UPF
     MD5 check sum: 3408e3ff4ec8b0a4e358431e7e038a48
     Pseudo is Ultrasoft, Zval =  1.0
     Generated by new atomic code, or converted to UPF format
     Using radial grid of  615 points,  2 beta functions with: 
                l(1) =   0
                l(2) =   0
     Q(r) pseudized with  8 coefficients,  rinner =    0.700

     atomic species   valence    mass     pseudopotential
        O0             6.00    15.99940     O ( 1.00)
        Mn1           15.00    54.93800     Mn( 1.00)
        H2             1.00     1.00794     H ( 1.00)

     Starting magnetic structure 
     atomic species   magnetization
        O0           0.000
        Mn1          0.600
        H2           0.000

     No symmetry found



   Cartesian axes

     site n.     atom                  positions (alat units)
         1           O0  tau(   1) = (   0.0000000   0.0000000   1.7440910  )
         2           O0  tau(   2) = (   0.0000000   0.5427791   1.8348887  )
         3           Mn1 tau(   3) = (   0.2500000   0.5427791   2.0695072  )
         4           Mn1 tau(   4) = (   0.0000000   0.0000000   2.0719487  )
         5           O0  tau(   5) = (   0.2500000   0.8684466   2.0695533  )
         6           O0  tau(   6) = (   0.2500000   0.2171117   2.0770161  )
         7           O0  tau(   7) = (   0.0000000   0.5427791   2.2881405  )
         8           O0  tau(   8) = (   0.0000000   0.0000000   2.4167130  )
         9           Mn1 tau(   9) = (   0.2500000   0.0000000   2.6452046  )
        10           Mn1 tau(  10) = (   0.0000000   0.5427791   2.6189465  )
        11           O0  tau(  11) = (   0.2500000   0.7598908   2.6694358  )
        12           O0  tau(  12) = (   0.2500000   0.3256675   2.6696661  )
        13           O0  tau(  13) = (   0.0000000   0.0000000   2.8462864  )
        14           O0  tau(  14) = (   0.5000000   0.0000000   1.7440910  )
        15           O0  tau(  15) = (   0.5000000   0.5427791   1.8348887  )
        16           Mn1 tau(  16) = (   0.7500000   0.5427791   2.0695072  )
        17           Mn1 tau(  17) = (   0.5000000   0.0000000   2.0719487  )
        18           O0  tau(  18) = (   0.7500000   0.8684466   2.0695533  )
        19           O0  tau(  19) = (   0.7500000   0.2171117   2.0770161  )
        20           O0  tau(  20) = (   0.5000000   0.5427791   2.2881405  )
        21           O0  tau(  21) = (   0.5000000   0.0000000   2.4167130  )
        22           Mn1 tau(  22) = (   0.7500000   0.0000000   2.6452046  )
        23           Mn1 tau(  23) = (   0.5000000   0.5427791   2.6189465  )
        24           O0  tau(  24) = (   0.7500000   0.7598908   2.6694358  )
        25           O0  tau(  25) = (   0.7500000   0.3256675   2.6696661  )
        26           O0  tau(  26) = (   0.5000000   0.0000000   2.8462864  )
        27           H2  tau(  27) = (  -0.0000900   0.7018026   1.7591088  )
        28           H2  tau(  28) = (   0.4999100   0.7018026   1.7591088  )
        29           H2  tau(  29) = (   0.1616900   0.0388738   1.6898703  )
        30           H2  tau(  30) = (   0.6616900   0.0388738   1.6898703  )
        31           O0  tau(  31) = (   0.5000000   0.5427791   2.8533347  )
        32           H2  tau(  32) = (   0.3503500   0.5427791   2.9149260  )

     number of k points=    20  Methfessel-Paxton smearing, width (Ry)=  0.0100
                       cart. coord. in units 2pi/alat
        k(    1) = (   0.0000000   0.0000000   0.0000000), wk =   0.0625000
        k(    2) = (   0.0000000   0.2302962   0.0000000), wk =   0.1250000
        k(    3) = (   0.0000000  -0.4605925   0.0000000), wk =   0.0625000
        k(    4) = (   0.2500000   0.0000000   0.0000000), wk =   0.1250000
        k(    5) = (   0.2500000   0.2302962   0.0000000), wk =   0.1250000
        k(    6) = (   0.2500000  -0.4605925   0.0000000), wk =   0.1250000
        k(    7) = (  -0.5000000   0.0000000   0.0000000), wk =   0.0625000
        k(    8) = (  -0.5000000   0.2302962   0.0000000), wk =   0.1250000
        k(    9) = (  -0.5000000  -0.4605925   0.0000000), wk =   0.0625000
        k(   10) = (  -0.2500000   0.2302962   0.0000000), wk =   0.1250000
        k(   11) = (   0.0000000   0.0000000   0.0000000), wk =   0.0625000
        k(   12) = (   0.0000000   0.2302962   0.0000000), wk =   0.1250000
        k(   13) = (   0.0000000  -0.4605925   0.0000000), wk =   0.0625000
        k(   14) = (   0.2500000   0.0000000   0.0000000), wk =   0.1250000
        k(   15) = (   0.2500000   0.2302962   0.0000000), wk =   0.1250000
        k(   16) = (   0.2500000  -0.4605925   0.0000000), wk =   0.1250000
        k(   17) = (  -0.5000000   0.0000000   0.0000000), wk =   0.0625000
        k(   18) = (  -0.5000000   0.2302962   0.0000000), wk =   0.1250000
        k(   19) = (  -0.5000000  -0.4605925   0.0000000), wk =   0.0625000
        k(   20) = (  -0.2500000   0.2302962   0.0000000), wk =   0.1250000

     Dense  grid:  1167509 G-vectors     FFT dimensions: (  80,  90, 360)

     Smooth grid:   211387 G-vectors     FFT dimensions: (  45,  48, 200)

     Largest allocated arrays     est. size (Mb)     dimensions
        Kohn-Sham Wavefunctions         8.95 Mb     (   1696,  346)
        NL pseudopotentials            10.38 Mb     (   1696,  401)
        Each V/rho on FFT grid          5.05 Mb     ( 165600,   2)
        Each G-vector array             0.56 Mb     (  72972)
        G-vector shells                 0.27 Mb     (  35785)
     Largest temporary arrays     est. size (Mb)     dimensions
        Auxiliary wavefunctions        35.82 Mb     (   1696, 1384)
        Each subspace H/S matrix       29.23 Mb     (1384,1384)
        Each <psi_i|beta_j> matrix      2.12 Mb     (    401,  346)
        Arrays for rho mixing          20.21 Mb     ( 165600,   8)

     Check: negative/imaginary core charge=   -0.000022    0.000000

     Initial potential from superposition of free atoms
     Check: negative starting charge=(component1):   -0.000766
     Check: negative starting charge=(component2):   -0.000411

     starting charge  230.99986, renormalised to  239.00000

     negative rho (up, down):  0.793E-03 0.425E-03
     Starting wfc are  185 randomized atomic wfcs

     total cpu time spent up to now is      115.1 secs

     per-process dynamical memory:   255.0 Mb

     Self-consistent Calculation

     iteration #  1     ecut=    40.00 Ry     beta=0.70
     Davidson diagonalization with overlap
     ethr =  1.00E-02,  avg # of iterations =  5.4

     negative rho (up, down):  0.148E-02 0.105E-02

     total cpu time spent up to now is      979.4 secs

     total energy              =   -2303.62946722 Ry
     Harris-Foulkes estimate   =   -2319.30609238 Ry
     estimated scf accuracy    <      28.14041264 Ry

     total magnetization       =    26.88 Bohr mag/cell
     absolute magnetization    =    32.35 Bohr mag/cell

     iteration #  2     ecut=    40.00 Ry     beta=0.70
     Davidson diagonalization with overlap
     ethr =  1.00E-02,  avg # of iterations =  5.0

     negative rho (up, down):  0.121E-01 0.288E-02

     total cpu time spent up to now is     1834.5 secs

     total energy              =   -2169.93631494 Ry
     Harris-Foulkes estimate   =   -2540.69555670 Ry
     estimated scf accuracy    <    5049.98239016 Ry

     total magnetization       =     0.85 Bohr mag/cell
     absolute magnetization    =     2.65 Bohr mag/cell

     iteration #  3     ecut=    40.00 Ry     beta=0.70
     Davidson diagonalization with overlap
     ethr =  1.00E-02,  avg # of iterations =  5.5

     negative rho (up, down):  0.110E-01 0.582E-02

     total cpu time spent up to now is     2657.9 secs

     total energy              =   -2307.18282477 Ry
     Harris-Foulkes estimate   =   -2331.18461500 Ry
     estimated scf accuracy    <     136.78172696 Ry

     total magnetization       =    13.83 Bohr mag/cell
     absolute magnetization    =    18.58 Bohr mag/cell

     iteration #  4     ecut=    40.00 Ry     beta=0.70
     Davidson diagonalization with overlap
     ethr =  1.00E-02,  avg # of iterations =  2.0

     negative rho (up, down):  0.129E-01 0.524E-02

     total cpu time spent up to now is     2987.4 secs

     total energy              =   -2314.33266367 Ry
     Harris-Foulkes estimate   =   -2327.06548921 Ry
     estimated scf accuracy    <     154.81873754 Ry

     total magnetization       =    16.14 Bohr mag/cell
     absolute magnetization    =    18.17 Bohr mag/cell

     iteration #  5     ecut=    40.00 Ry     beta=0.70
     Davidson diagonalization with overlap
     ethr =  1.00E-02,  avg # of iterations =  2.9

     negative rho (up, down):  0.598E-02 0.265E-02

     total cpu time spent up to now is     3342.1 secs

     total energy              =   -2319.91775761 Ry
     Harris-Foulkes estimate   =   -2323.91599826 Ry
     estimated scf accuracy    <      20.24572776 Ry

     total magnetization       =    23.00 Bohr mag/cell
     absolute magnetization    =    24.81 Bohr mag/cell

     iteration #  6     ecut=    40.00 Ry     beta=0.70
     Davidson diagonalization with overlap
     ethr =  8.47E-03,  avg # of iterations =  1.0

     negative rho (up, down):  0.696E-02 0.902E-02

     total cpu time spent up to now is     3645.4 secs

     total energy              =   -2318.10606376 Ry
     Harris-Foulkes estimate   =   -2323.08963471 Ry
     estimated scf accuracy    <      34.90108072 Ry

     total magnetization       =    15.45 Bohr mag/cell
     absolute magnetization    =    19.26 Bohr mag/cell

     iteration #  7     ecut=    40.00 Ry     beta=0.70
     Davidson diagonalization with overlap
     ethr =  8.47E-03,  avg # of iterations =  1.1

     negative rho (up, down):  0.341E-02 0.657E-02

     total cpu time spent up to now is     3944.5 secs

     total energy              =   -2319.97585388 Ry
     Harris-Foulkes estimate   =   -2323.35249022 Ry
     estimated scf accuracy    <      44.98300036 Ry

     total magnetization       =    11.23 Bohr mag/cell
     absolute magnetization    =    16.43 Bohr mag/cell

     iteration #  8     ecut=    40.00 Ry     beta=0.70
     Davidson diagonalization with overlap
     ethr =  8.47E-03,  avg # of iterations =  1.0

     negative rho (up, down):  0.720E-02 0.485E-02

     total cpu time spent up to now is     4242.8 secs

     total energy              =   -2320.96347777 Ry
     Harris-Foulkes estimate   =   -2322.22621655 Ry
     estimated scf accuracy    <       7.11496918 Ry

     total magnetization       =    19.38 Bohr mag/cell
     absolute magnetization    =    20.49 Bohr mag/cell

     iteration #  9     ecut=    40.00 Ry     beta=0.70
     Davidson diagonalization with overlap
     ethr =  2.98E-03,  avg # of iterations =  2.4

     negative rho (up, down):  0.109E-01 0.300E-02

     total cpu time spent up to now is     4574.5 secs

     total energy              =   -2321.20258059 Ry
     Harris-Foulkes estimate   =   -2322.12326764 Ry
     estimated scf accuracy    <       9.34318759 Ry

     total magnetization       =    16.76 Bohr mag/cell
     absolute magnetization    =    17.96 Bohr mag/cell

     iteration # 10     ecut=    40.00 Ry     beta=0.70
     Davidson diagonalization with overlap
     ethr =  2.98E-03,  avg # of iterations =  1.1

     negative rho (up, down):  0.838E-02 0.563E-02

     total cpu time spent up to now is     4873.5 secs

     total energy              =   -2321.15424106 Ry
     Harris-Foulkes estimate   =   -2322.00128693 Ry
     estimated scf accuracy    <       8.11534256 Ry

     total magnetization       =    15.23 Bohr mag/cell
     absolute magnetization    =    16.60 Bohr mag/cell

     iteration # 11     ecut=    40.00 Ry     beta=0.70
     Davidson diagonalization with overlap
     ethr =  2.98E-03,  avg # of iterations =  1.0

     negative rho (up, down):  0.477E-02 0.516E-02

     total cpu time spent up to now is     5169.9 secs

     total energy              =   -2321.29679073 Ry
     Harris-Foulkes estimate   =   -2321.95026423 Ry
     estimated scf accuracy    <       5.74723346 Ry

     total magnetization       =    17.14 Bohr mag/cell
     absolute magnetization    =    18.36 Bohr mag/cell

     iteration # 12     ecut=    40.00 Ry     beta=0.70
     Davidson diagonalization with overlap
     ethr =  2.40E-03,  avg # of iterations =  3.4

     negative rho (up, down):  0.573E-02 0.709E-02

     total cpu time spent up to now is     5538.2 secs

     total energy              =   -2321.02012011 Ry
     Harris-Foulkes estimate   =   -2322.25280984 Ry
     estimated scf accuracy    <      15.11531421 Ry

     total magnetization       =    13.11 Bohr mag/cell
     absolute magnetization    =    14.64 Bohr mag/cell

     iteration # 13     ecut=    40.00 Ry     beta=0.70
     Davidson diagonalization with overlap
     ethr =  2.40E-03,  avg # of iterations =  1.0

     negative rho (up, down):  0.393E-02 0.244E-02

     total cpu time spent up to now is     5834.7 secs

     total energy              =   -2321.67623317 Ry
     Harris-Foulkes estimate   =   -2321.71541120 Ry
     estimated scf accuracy    <       0.38897958 Ry

     total magnetization       =    20.33 Bohr mag/cell
     absolute magnetization    =    20.97 Bohr mag/cell

     iteration # 14     ecut=    40.00 Ry     beta=0.70
     Davidson diagonalization with overlap
     ethr =  1.63E-04,  avg # of iterations =  6.7

     negative rho (up, down):  0.547E-02 0.462E-02

     total cpu time spent up to now is     6311.6 secs

     total energy              =   -2321.55836300 Ry
     Harris-Foulkes estimate   =   -2321.89294380 Ry
     estimated scf accuracy    <       3.19796902 Ry

     total magnetization       =    20.51 Bohr mag/cell
     absolute magnetization    =    21.28 Bohr mag/cell

     iteration # 15     ecut=    40.00 Ry     beta=0.70
     Davidson diagonalization with overlap
     ethr =  1.63E-04,  avg # of iterations =  3.8

     negative rho (up, down):  0.380E-02 0.297E-02

     total cpu time spent up to now is     6685.4 secs

     total energy              =   -2321.72194167 Ry
     Harris-Foulkes estimate   =   -2321.73075078 Ry
     estimated scf accuracy    <       0.14217569 Ry

     total magnetization       =    20.87 Bohr mag/cell
     absolute magnetization    =    21.52 Bohr mag/cell

     iteration # 16     ecut=    40.00 Ry     beta=0.70
     Davidson diagonalization with overlap
     ethr =  5.95E-05,  avg # of iterations =  4.5

     negative rho (up, down):  0.436E-02 0.316E-02

     total cpu time spent up to now is     7082.2 secs

     total energy              =   -2321.70846767 Ry
     Harris-Foulkes estimate   =   -2321.76667198 Ry
     estimated scf accuracy    <       0.55318729 Ry

     total magnetization       =    21.33 Bohr mag/cell
     absolute magnetization    =    21.99 Bohr mag/cell

     iteration # 17     ecut=    40.00 Ry     beta=0.70
     Davidson diagonalization with overlap
     ethr =  5.95E-05,  avg # of iterations =  2.6

     negative rho (up, down):  0.361E-02 0.466E-02

     total cpu time spent up to now is     7422.3 secs

     total energy              =   -2321.71894876 Ry
     Harris-Foulkes estimate   =   -2321.77364046 Ry
     estimated scf accuracy    <       0.77662287 Ry

     total magnetization       =    21.13 Bohr mag/cell
     absolute magnetization    =    21.81 Bohr mag/cell

     iteration # 18     ecut=    40.00 Ry     beta=0.70
     Davidson diagonalization with overlap
     ethr =  5.95E-05,  avg # of iterations =  2.3

     negative rho (up, down):  0.376E-02 0.338E-02

     total cpu time spent up to now is     7758.4 secs

     total energy              =   -2321.73339853 Ry
     Harris-Foulkes estimate   =   -2321.75934612 Ry
     estimated scf accuracy    <       0.33132634 Ry

     total magnetization       =    22.19 Bohr mag/cell
     absolute magnetization    =    22.80 Bohr mag/cell

     iteration # 19     ecut=    40.00 Ry     beta=0.70
     Davidson diagonalization with overlap
     ethr =  5.95E-05,  avg # of iterations =  4.0

     negative rho (up, down):  0.374E-02 0.198E-02

     total cpu time spent up to now is     8140.1 secs

     total energy              =   -2321.63937773 Ry
     Harris-Foulkes estimate   =   -2321.81572166 Ry
     estimated scf accuracy    <       1.60702433 Ry

     total magnetization       =    19.72 Bohr mag/cell
     absolute magnetization    =    20.62 Bohr mag/cell

     iteration # 20     ecut=    40.00 Ry     beta=0.70
     Davidson diagonalization with overlap
     ethr =  5.95E-05,  avg # of iterations =  4.1

     negative rho (up, down):  0.576E-02 0.314E-02

     total cpu time spent up to now is     8540.4 secs

     total energy              =   -2321.62437538 Ry
     Harris-Foulkes estimate   =   -2321.85495499 Ry
     estimated scf accuracy    <       2.24223534 Ry

     total magnetization       =    20.21 Bohr mag/cell
     absolute magnetization    =    21.09 Bohr mag/cell

     iteration # 21     ecut=    40.00 Ry     beta=0.70
     Davidson diagonalization with overlap
     ethr =  5.95E-05,  avg # of iterations =  2.4

     negative rho (up, down):  0.258E-02 0.169E-02

     total cpu time spent up to now is     8882.3 secs

     total energy              =   -2321.70812790 Ry
     Harris-Foulkes estimate   =   -2321.79707118 Ry
     estimated scf accuracy    <       0.53244750 Ry

     total magnetization       =    21.56 Bohr mag/cell
     absolute magnetization    =    22.28 Bohr mag/cell

     iteration # 22     ecut=    40.00 Ry     beta=0.70
     Davidson diagonalization with overlap
     ethr =  5.95E-05,  avg # of iterations =  2.0

     negative rho (up, down):  0.443E-02 0.446E-02

     total cpu time spent up to now is     9218.1 secs

     total energy              =   -2321.56905175 Ry
     Harris-Foulkes estimate   =   -2321.88221257 Ry
     estimated scf accuracy    <       2.72182060 Ry

     total magnetization       =    19.61 Bohr mag/cell
     absolute magnetization    =    20.57 Bohr mag/cell

     iteration # 23     ecut=    40.00 Ry     beta=0.70
     Davidson diagonalization with overlap
     ethr =  5.95E-05,  avg # of iterations =  4.3

     negative rho (up, down):  0.310E-02 0.219E-02

     total cpu time spent up to now is     9628.3 secs

     total energy              =   -2321.74261908 Ry
     Harris-Foulkes estimate   =   -2321.79204201 Ry
     estimated scf accuracy    <       0.40462989 Ry

     total magnetization       =    22.08 Bohr mag/cell
     absolute magnetization    =    22.73 Bohr mag/cell

     iteration # 24     ecut=    40.00 Ry     beta=0.70
     Davidson diagonalization with overlap
     ethr =  5.95E-05,  avg # of iterations =  2.6

     negative rho (up, down):  0.284E-02 0.238E-02

     total cpu time spent up to now is     9973.6 secs

     total energy              =   -2321.76742031 Ry
     Harris-Foulkes estimate   =   -2321.77917044 Ry
     estimated scf accuracy    <       0.23718856 Ry

     total magnetization       =    22.13 Bohr mag/cell
     absolute magnetization    =    22.88 Bohr mag/cell

     iteration # 25     ecut=    40.00 Ry     beta=0.70
     Davidson diagonalization with overlap
     ethr =  5.95E-05,  avg # of iterations =  1.0

     negative rho (up, down):  0.296E-02 0.232E-02

     total cpu time spent up to now is    10279.0 secs

     total energy              =   -2321.77119422 Ry
     Harris-Foulkes estimate   =   -2321.77627182 Ry
     estimated scf accuracy    <       0.10427901 Ry

     total magnetization       =    22.17 Bohr mag/cell
     absolute magnetization    =    22.89 Bohr mag/cell

     iteration # 26     ecut=    40.00 Ry     beta=0.70
     Davidson diagonalization with overlap
     ethr =  4.36E-05,  avg # of iterations =  1.0

     negative rho (up, down):  0.298E-02 0.253E-02

     total cpu time spent up to now is    10584.3 secs

     total energy              =   -2321.77150190 Ry
     Harris-Foulkes estimate   =   -2321.77659936 Ry
     estimated scf accuracy    <       0.06512750 Ry

     total magnetization       =    22.19 Bohr mag/cell
     absolute magnetization    =    22.97 Bohr mag/cell

     iteration # 27     ecut=    40.00 Ry     beta=0.70
     Davidson diagonalization with overlap
     ethr =  2.73E-05,  avg # of iterations =  1.4

     negative rho (up, down):  0.342E-02 0.274E-02

     total cpu time spent up to now is    10899.8 secs

     total energy              =   -2321.76219899 Ry
     Harris-Foulkes estimate   =   -2321.78040593 Ry
     estimated scf accuracy    <       0.18982000 Ry

     total magnetization       =    22.36 Bohr mag/cell
     absolute magnetization    =    23.11 Bohr mag/cell

     iteration # 28     ecut=    40.00 Ry     beta=0.70
     Davidson diagonalization with overlap
     ethr =  2.73E-05,  avg # of iterations =  1.3

     negative rho (up, down):  0.258E-02 0.161E-02

     total cpu time spent up to now is    11211.0 secs

     total energy              =   -2321.76337702 Ry
     Harris-Foulkes estimate   =   -2321.77391872 Ry
     estimated scf accuracy    <       0.09923748 Ry

     total magnetization       =    21.80 Bohr mag/cell
     absolute magnetization    =    22.58 Bohr mag/cell

     iteration # 29     ecut=    40.00 Ry     beta=0.70
     Davidson diagonalization with overlap
     ethr =  2.73E-05,  avg # of iterations =  4.7

     negative rho (up, down):  0.487E-02 0.246E-02

     total cpu time spent up to now is    11624.0 secs

     total energy              =   -2321.70739409 Ry
     Harris-Foulkes estimate   =   -2321.82836192 Ry
     estimated scf accuracy    <       1.14801710 Ry

     total magnetization       =    20.81 Bohr mag/cell
     absolute magnetization    =    21.87 Bohr mag/cell

     iteration # 30     ecut=    40.00 Ry     beta=0.70
     Davidson diagonalization with overlap
     ethr =  2.73E-05,  avg # of iterations =  2.5

     negative rho (up, down):  0.289E-02 0.216E-02

     total cpu time spent up to now is    11966.5 secs

     total energy              =   -2321.76634999 Ry
     Harris-Foulkes estimate   =   -2321.78330086 Ry
     estimated scf accuracy    <       0.15887716 Ry

     total magnetization       =    21.73 Bohr mag/cell
     absolute magnetization    =    22.58 Bohr mag/cell

     iteration # 31     ecut=    40.00 Ry     beta=0.70
     Davidson diagonalization with overlap
     ethr =  2.73E-05,  avg # of iterations =  2.4

     negative rho (up, down):  0.245E-02 0.150E-02

     total cpu time spent up to now is    12306.0 secs

     total energy              =   -2321.77139536 Ry
     Harris-Foulkes estimate   =   -2321.77646592 Ry
     estimated scf accuracy    <       0.02787893 Ry

     total magnetization       =    22.15 Bohr mag/cell
     absolute magnetization    =    22.97 Bohr mag/cell

     iteration # 32     ecut=    40.00 Ry     beta=0.70
     Davidson diagonalization with overlap
     ethr =  1.17E-05,  avg # of iterations =  3.5

     negative rho (up, down):  0.269E-02 0.144E-02

     total cpu time spent up to now is    12680.9 secs

     total energy              =   -2321.75923034 Ry
     Harris-Foulkes estimate   =   -2321.78986048 Ry
     estimated scf accuracy    <       0.17408784 Ry

     total magnetization       =    21.85 Bohr mag/cell
     absolute magnetization    =    22.70 Bohr mag/cell

     iteration # 33     ecut=    40.00 Ry     beta=0.70
     Davidson diagonalization with overlap
     ethr =  1.17E-05,  avg # of iterations =  2.5

     negative rho (up, down):  0.247E-02 0.174E-02

     total cpu time spent up to now is    13024.7 secs

     total energy              =   -2321.77160197 Ry
     Harris-Foulkes estimate   =   -2321.77841379 Ry
     estimated scf accuracy    <       0.05615251 Ry

     total magnetization       =    21.83 Bohr mag/cell
     absolute magnetization    =    22.74 Bohr mag/cell

     iteration # 34     ecut=    40.00 Ry     beta=0.70
     Davidson diagonalization with overlap
     ethr =  1.17E-05,  avg # of iterations =  3.6

     negative rho (up, down):  0.256E-02 0.143E-02

     total cpu time spent up to now is    13393.6 secs

     total energy              =   -2321.76968447 Ry
     Harris-Foulkes estimate   =   -2321.78079216 Ry
     estimated scf accuracy    <       0.08433990 Ry

     total magnetization       =    21.88 Bohr mag/cell
     absolute magnetization    =    22.77 Bohr mag/cell

     iteration # 35     ecut=    40.00 Ry     beta=0.70
     Davidson diagonalization with overlap
     ethr =  1.17E-05,  avg # of iterations =  2.5

     negative rho (up, down):  0.241E-02 0.153E-02

     total cpu time spent up to now is    13735.5 secs

     total energy              =   -2321.77375109 Ry
     Harris-Foulkes estimate   =   -2321.77783159 Ry
     estimated scf accuracy    <       0.02694372 Ry

     total magnetization       =    21.94 Bohr mag/cell
     absolute magnetization    =    22.84 Bohr mag/cell

     iteration # 36     ecut=    40.00 Ry     beta=0.70
     Davidson diagonalization with overlap
     ethr =  1.13E-05,  avg # of iterations =  1.0

     negative rho (up, down):  0.239E-02 0.140E-02

     total cpu time spent up to now is    14041.5 secs

     total energy              =   -2321.77540211 Ry
     Harris-Foulkes estimate   =   -2321.77625553 Ry
     estimated scf accuracy    <       0.00844467 Ry

     total magnetization       =    22.05 Bohr mag/cell
     absolute magnetization    =    22.92 Bohr mag/cell

     iteration # 37     ecut=    40.00 Ry     beta=0.70
     Davidson diagonalization with overlap
     ethr =  3.53E-06,  avg # of iterations =  1.4

     negative rho (up, down):  0.237E-02 0.138E-02

     total cpu time spent up to now is    14355.8 secs

     total energy              =   -2321.77482329 Ry
     Harris-Foulkes estimate   =   -2321.77653679 Ry
     estimated scf accuracy    <       0.00609397 Ry

     total magnetization       =    22.08 Bohr mag/cell
     absolute magnetization    =    22.98 Bohr mag/cell

     iteration # 38     ecut=    40.00 Ry     beta=0.70
     Davidson diagonalization with overlap
     ethr =  2.55E-06,  avg # of iterations =  4.8

     negative rho (up, down):  0.239E-02 0.149E-02

     total cpu time spent up to now is    14772.0 secs

     total energy              =   -2321.77375555 Ry
     Harris-Foulkes estimate   =   -2321.77792499 Ry
     estimated scf accuracy    <       0.02976288 Ry

     total magnetization       =    22.24 Bohr mag/cell
     absolute magnetization    =    23.10 Bohr mag/cell

     iteration # 39     ecut=    40.00 Ry     beta=0.70
     Davidson diagonalization with overlap
     ethr =  2.55E-06,  avg # of iterations =  3.4

     negative rho (up, down):  0.261E-02 0.149E-02

     total cpu time spent up to now is    15140.2 secs

     total energy              =   -2321.77356428 Ry
     Harris-Foulkes estimate   =   -2321.77858285 Ry
     estimated scf accuracy    <       0.06088597 Ry

     total magnetization       =    21.80 Bohr mag/cell
     absolute magnetization    =    22.72 Bohr mag/cell

     iteration # 40     ecut=    40.00 Ry     beta=0.70
     Davidson diagonalization with overlap
     ethr =  2.55E-06,  avg # of iterations =  1.4

     negative rho (up, down):  0.237E-02 0.136E-02

     total cpu time spent up to now is    15453.5 secs

     total energy              =   -2321.77574149 Ry
     Harris-Foulkes estimate   =   -2321.77621050 Ry
     estimated scf accuracy    <       0.00315583 Ry

     total magnetization       =    22.08 Bohr mag/cell
     absolute magnetization    =    22.98 Bohr mag/cell

     iteration # 41     ecut=    40.00 Ry     beta=0.70
     Davidson diagonalization with overlap
     ethr =  1.32E-06,  avg # of iterations =  1.0

     negative rho (up, down):  0.234E-02 0.136E-02

     total cpu time spent up to now is    15759.0 secs

     total energy              =   -2321.77600693 Ry
     Harris-Foulkes estimate   =   -2321.77606419 Ry
     estimated scf accuracy    <       0.00134587 Ry

     total magnetization       =    22.01 Bohr mag/cell
     absolute magnetization    =    22.91 Bohr mag/cell

     iteration # 42     ecut=    40.00 Ry     beta=0.70
     Davidson diagonalization with overlap
     ethr =  5.63E-07,  avg # of iterations =  1.0

     negative rho (up, down):  0.234E-02 0.135E-02

     total cpu time spent up to now is    16064.5 secs

     total energy              =   -2321.77600751 Ry
     Harris-Foulkes estimate   =   -2321.77610159 Ry
     estimated scf accuracy    <       0.00042897 Ry

     total magnetization       =    22.03 Bohr mag/cell
     absolute magnetization    =    22.95 Bohr mag/cell

     iteration # 43     ecut=    40.00 Ry     beta=0.70
     Davidson diagonalization with overlap
     ethr =  1.79E-07,  avg # of iterations =  1.1

     negative rho (up, down):  0.234E-02 0.134E-02

     total cpu time spent up to now is    16382.5 secs

     total energy              =   -2321.77597748 Ry
     Harris-Foulkes estimate   =   -2321.77613361 Ry
     estimated scf accuracy    <       0.00108875 Ry

     total magnetization       =    22.06 Bohr mag/cell
     absolute magnetization    =    22.97 Bohr mag/cell

     iteration # 44     ecut=    40.00 Ry     beta=0.70
     Davidson diagonalization with overlap
     ethr =  1.79E-07,  avg # of iterations =  1.0

     negative rho (up, down):  0.233E-02 0.134E-02

     total cpu time spent up to now is    16697.0 secs

     total energy              =   -2321.77605377 Ry
     Harris-Foulkes estimate   =   -2321.77607655 Ry
     estimated scf accuracy    <       0.00034914 Ry

     total magnetization       =    22.03 Bohr mag/cell
     absolute magnetization    =    22.95 Bohr mag/cell

     iteration # 45     ecut=    40.00 Ry     beta=0.70
     Davidson diagonalization with overlap
     ethr =  1.46E-07,  avg # of iterations =  1.0

     negative rho (up, down):  0.234E-02 0.134E-02

     total cpu time spent up to now is    17019.2 secs

     total energy              =   -2321.77604048 Ry
     Harris-Foulkes estimate   =   -2321.77608486 Ry
     estimated scf accuracy    <       0.00025956 Ry

     total magnetization       =    22.03 Bohr mag/cell
     absolute magnetization    =    22.95 Bohr mag/cell

     iteration # 46     ecut=    40.00 Ry     beta=0.70
     Davidson diagonalization with overlap
     ethr =  1.09E-07,  avg # of iterations =  1.0

     negative rho (up, down):  0.233E-02 0.135E-02

     total cpu time spent up to now is    17341.3 secs

     total energy              =   -2321.77599625 Ry
     Harris-Foulkes estimate   =   -2321.77615528 Ry
     estimated scf accuracy    <       0.00165168 Ry

     total magnetization       =    22.00 Bohr mag/cell
     absolute magnetization    =    22.92 Bohr mag/cell

     iteration # 47     ecut=    40.00 Ry     beta=0.70
     Davidson diagonalization with overlap
     ethr =  1.09E-07,  avg # of iterations =  1.0

     negative rho (up, down):  0.233E-02 0.134E-02

     total cpu time spent up to now is    17662.8 secs

     total energy              =   -2321.77607123 Ry
     Harris-Foulkes estimate   =   -2321.77607969 Ry
     estimated scf accuracy    <       0.00013105 Ry

     total magnetization       =    22.03 Bohr mag/cell
     absolute magnetization    =    22.95 Bohr mag/cell

     iteration # 48     ecut=    40.00 Ry     beta=0.70
     Davidson diagonalization with overlap
     ethr =  5.48E-08,  avg # of iterations =  1.0

     negative rho (up, down):  0.233E-02 0.134E-02

     total cpu time spent up to now is    17971.4 secs

     total energy              =   -2321.77605825 Ry
     Harris-Foulkes estimate   =   -2321.77607894 Ry
     estimated scf accuracy    <       0.00005870 Ry

     total magnetization       =    22.03 Bohr mag/cell
     absolute magnetization    =    22.95 Bohr mag/cell

     iteration # 49     ecut=    40.00 Ry     beta=0.70
     Davidson diagonalization with overlap
     ethr =  2.46E-08,  avg # of iterations =  2.0

     negative rho (up, down):  0.234E-02 0.134E-02

     total cpu time spent up to now is    18310.2 secs

     total energy              =   -2321.77598396 Ry
     Harris-Foulkes estimate   =   -2321.77616851 Ry
     estimated scf accuracy    <       0.00173886 Ry

     total magnetization       =    22.07 Bohr mag/cell
     absolute magnetization    =    22.99 Bohr mag/cell

     iteration # 50     ecut=    40.00 Ry     beta=0.70
     Davidson diagonalization with overlap
     ethr =  2.46E-08,  avg # of iterations =  2.0

     negative rho (up, down):  0.233E-02 0.134E-02

     total cpu time spent up to now is    18645.8 secs

     total energy              =   -2321.77606775 Ry
     Harris-Foulkes estimate   =   -2321.77607856 Ry
     estimated scf accuracy    <       0.00005159 Ry

     total magnetization       =    22.03 Bohr mag/cell
     absolute magnetization    =    22.95 Bohr mag/cell

     iteration # 51     ecut=    40.00 Ry     beta=0.70
     Davidson diagonalization with overlap
     ethr =  2.16E-08,  avg # of iterations =  2.0

     negative rho (up, down):  0.233E-02 0.134E-02

     total cpu time spent up to now is    18979.8 secs

     total energy              =   -2321.77603312 Ry
     Harris-Foulkes estimate   =   -2321.77612120 Ry
     estimated scf accuracy    <       0.00066005 Ry

     total magnetization       =    22.05 Bohr mag/cell
     absolute magnetization    =    22.97 Bohr mag/cell

     iteration # 52     ecut=    40.00 Ry     beta=0.70
     Davidson diagonalization with overlap
     ethr =  2.16E-08,  avg # of iterations =  2.0

     negative rho (up, down):  0.233E-02 0.134E-02

     total cpu time spent up to now is    19312.4 secs

     total energy              =   -2321.77607656 Ry
     Harris-Foulkes estimate   =   -2321.77607785 Ry
     estimated scf accuracy    <       0.00002334 Ry

     total magnetization       =    22.03 Bohr mag/cell
     absolute magnetization    =    22.95 Bohr mag/cell

     iteration # 53     ecut=    40.00 Ry     beta=0.70
     Davidson diagonalization with overlap
     ethr =  9.76E-09,  avg # of iterations =  1.0

     negative rho (up, down):  0.233E-02 0.134E-02

     total cpu time spent up to now is    19619.4 secs

     total energy              =   -2321.77607535 Ry
     Harris-Foulkes estimate   =   -2321.77607881 Ry
     estimated scf accuracy    <       0.00001688 Ry

     total magnetization       =    22.03 Bohr mag/cell
     absolute magnetization    =    22.95 Bohr mag/cell

     iteration # 54     ecut=    40.00 Ry     beta=0.70
     Davidson diagonalization with overlap
     ethr =  7.06E-09,  avg # of iterations =  1.7

     negative rho (up, down):  0.233E-02 0.134E-02

     total cpu time spent up to now is    19941.6 secs

     total energy              =   -2321.77606884 Ry
     Harris-Foulkes estimate   =   -2321.77608422 Ry
     estimated scf accuracy    <       0.00012851 Ry

     total magnetization       =    22.04 Bohr mag/cell
     absolute magnetization    =    22.96 Bohr mag/cell

     iteration # 55     ecut=    40.00 Ry     beta=0.70
     Davidson diagonalization with overlap
     ethr =  7.06E-09,  avg # of iterations =  1.6

     negative rho (up, down):  0.233E-02 0.134E-02

     total cpu time spent up to now is    20262.0 secs

     total energy              =   -2321.77607697 Ry
     Harris-Foulkes estimate   =   -2321.77607804 Ry
     estimated scf accuracy    <       0.00001827 Ry

     total magnetization       =    22.02 Bohr mag/cell
     absolute magnetization    =    22.95 Bohr mag/cell

     iteration # 56     ecut=    40.00 Ry     beta=0.70
     Davidson diagonalization with overlap
     ethr =  7.06E-09,  avg # of iterations =  1.1

     negative rho (up, down):  0.233E-02 0.134E-02

     total cpu time spent up to now is    20583.6 secs

     total energy              =   -2321.77607219 Ry
     Harris-Foulkes estimate   =   -2321.77608318 Ry
     estimated scf accuracy    <       0.00008119 Ry

     total magnetization       =    22.03 Bohr mag/cell
     absolute magnetization    =    22.95 Bohr mag/cell

     iteration # 57     ecut=    40.00 Ry     beta=0.70
     Davidson diagonalization with overlap
     ethr =  7.06E-09,  avg # of iterations =  1.0

     negative rho (up, down):  0.233E-02 0.134E-02

     total cpu time spent up to now is    20905.4 secs

     total energy              =   -2321.77607786 Ry
     Harris-Foulkes estimate   =   -2321.77607804 Ry
     estimated scf accuracy    <       0.00001136 Ry

     total magnetization       =    22.02 Bohr mag/cell
     absolute magnetization    =    22.95 Bohr mag/cell

     iteration # 58     ecut=    40.00 Ry     beta=0.70
     Davidson diagonalization with overlap
     ethr =  4.75E-09,  avg # of iterations =  1.0

     negative rho (up, down):  0.233E-02 0.134E-02

     total cpu time spent up to now is    21227.3 secs

     total energy              =   -2321.77607784 Ry
     Harris-Foulkes estimate   =   -2321.77607829 Ry
     estimated scf accuracy    <       0.00000789 Ry

     total magnetization       =    22.02 Bohr mag/cell
     absolute magnetization    =    22.95 Bohr mag/cell

     iteration # 59     ecut=    40.00 Ry     beta=0.70
     Davidson diagonalization with overlap
     ethr =  3.30E-09,  avg # of iterations =  1.0

     negative rho (up, down):  0.233E-02 0.134E-02

     total cpu time spent up to now is    21545.8 secs

     total energy              =   -2321.77607726 Ry
     Harris-Foulkes estimate   =   -2321.77607891 Ry
     estimated scf accuracy    <       0.00001285 Ry

     total magnetization       =    22.02 Bohr mag/cell
     absolute magnetization    =    22.95 Bohr mag/cell

     iteration # 60     ecut=    40.00 Ry     beta=0.70
     Davidson diagonalization with overlap
     ethr =  3.30E-09,  avg # of iterations =  1.0

     negative rho (up, down):  0.233E-02 0.134E-02

     total cpu time spent up to now is    21853.5 secs

     total energy              =   -2321.77607722 Ry
     Harris-Foulkes estimate   =   -2321.77607891 Ry
     estimated scf accuracy    <       0.00001209 Ry

     total magnetization       =    22.03 Bohr mag/cell
     absolute magnetization    =    22.95 Bohr mag/cell

     iteration # 61     ecut=    40.00 Ry     beta=0.70
     Davidson diagonalization with overlap
     ethr =  3.30E-09,  avg # of iterations =  1.0

     negative rho (up, down):  0.233E-02 0.134E-02

     total cpu time spent up to now is    22160.9 secs

     total energy              =   -2321.77607705 Ry
     Harris-Foulkes estimate   =   -2321.77607913 Ry
     estimated scf accuracy    <       0.00001670 Ry

     total magnetization       =    22.02 Bohr mag/cell
     absolute magnetization    =    22.95 Bohr mag/cell

     iteration # 62     ecut=    40.00 Ry     beta=0.70
     Davidson diagonalization with overlap
     ethr =  3.30E-09,  avg # of iterations =  1.0

     negative rho (up, down):  0.233E-02 0.134E-02

     total cpu time spent up to now is    22467.7 secs

     total energy              =   -2321.77607666 Ry
     Harris-Foulkes estimate   =   -2321.77607922 Ry
     estimated scf accuracy    <       0.00001604 Ry

     total magnetization       =    22.03 Bohr mag/cell
     absolute magnetization    =    22.95 Bohr mag/cell

     iteration # 63     ecut=    40.00 Ry     beta=0.70
     Davidson diagonalization with overlap
     ethr =  3.30E-09,  avg # of iterations =  1.0

     negative rho (up, down):  0.233E-02 0.134E-02

     total cpu time spent up to now is    22774.8 secs

     total energy              =   -2321.77607730 Ry
     Harris-Foulkes estimate   =   -2321.77607880 Ry
     estimated scf accuracy    <       0.00001453 Ry

     total magnetization       =    22.02 Bohr mag/cell
     absolute magnetization    =    22.94 Bohr mag/cell

     iteration # 64     ecut=    40.00 Ry     beta=0.70
     Davidson diagonalization with overlap
     ethr =  3.30E-09,  avg # of iterations =  1.1

     negative rho (up, down):  0.233E-02 0.134E-02

     total cpu time spent up to now is    23082.7 secs

     total energy              =   -2321.77607620 Ry
     Harris-Foulkes estimate   =   -2321.77608010 Ry
     estimated scf accuracy    <       0.00002501 Ry

     total magnetization       =    22.03 Bohr mag/cell
     absolute magnetization    =    22.95 Bohr mag/cell

     iteration # 65     ecut=    40.00 Ry     beta=0.70
     Davidson diagonalization with overlap
     ethr =  3.30E-09,  avg # of iterations =  1.5

     negative rho (up, down):  0.233E-02 0.134E-02

     total cpu time spent up to now is    23401.6 secs

     total energy              =   -2321.77607662 Ry
     Harris-Foulkes estimate   =   -2321.77607958 Ry
     estimated scf accuracy    <       0.00001828 Ry

     total magnetization       =    22.03 Bohr mag/cell
     absolute magnetization    =    22.95 Bohr mag/cell

     iteration # 66     ecut=    40.00 Ry     beta=0.70
     Davidson diagonalization with overlap
     ethr =  3.30E-09,  avg # of iterations =  1.0

     negative rho (up, down):  0.233E-02 0.134E-02

     total cpu time spent up to now is    23710.0 secs

     total energy              =   -2321.77607767 Ry
     Harris-Foulkes estimate   =   -2321.77607877 Ry
     estimated scf accuracy    <       0.00000933 Ry

     total magnetization       =    22.02 Bohr mag/cell
     absolute magnetization    =    22.95 Bohr mag/cell

     iteration # 67     ecut=    40.00 Ry     beta=0.70
     Davidson diagonalization with overlap
     ethr =  3.30E-09,  avg # of iterations =  1.0

     negative rho (up, down):  0.233E-02 0.134E-02

     total cpu time spent up to now is    24016.8 secs

     total energy              =   -2321.77607774 Ry
     Harris-Foulkes estimate   =   -2321.77607860 Ry
     estimated scf accuracy    <       0.00000525 Ry

     total magnetization       =    22.03 Bohr mag/cell
     absolute magnetization    =    22.95 Bohr mag/cell

     iteration # 68     ecut=    40.00 Ry     beta=0.70
     Davidson diagonalization with overlap
     ethr =  2.20E-09,  avg # of iterations =  1.0

     negative rho (up, down):  0.233E-02 0.134E-02

     total cpu time spent up to now is    24322.9 secs

     total energy              =   -2321.77607820 Ry
     Harris-Foulkes estimate   =   -2321.77607832 Ry
     estimated scf accuracy    <       0.00000358 Ry

     total magnetization       =    22.02 Bohr mag/cell
     absolute magnetization    =    22.94 Bohr mag/cell

     iteration # 69     ecut=    40.00 Ry     beta=0.70
     Davidson diagonalization with overlap
     ethr =  1.50E-09,  avg # of iterations =  1.0

     negative rho (up, down):  0.233E-02 0.134E-02

     total cpu time spent up to now is    24627.5 secs

     total energy              =   -2321.77607809 Ry
     Harris-Foulkes estimate   =   -2321.77607841 Ry
     estimated scf accuracy    <       0.00000273 Ry

     total magnetization       =    22.02 Bohr mag/cell
     absolute magnetization    =    22.95 Bohr mag/cell

     iteration # 70     ecut=    40.00 Ry     beta=0.70
     Davidson diagonalization with overlap
     ethr =  1.14E-09,  avg # of iterations =  1.0

     negative rho (up, down):  0.233E-02 0.134E-02

     total cpu time spent up to now is    24932.2 secs

     total energy              =   -2321.77607814 Ry
     Harris-Foulkes estimate   =   -2321.77607839 Ry
     estimated scf accuracy    <       0.00000240 Ry

     total magnetization       =    22.02 Bohr mag/cell
     absolute magnetization    =    22.94 Bohr mag/cell

     iteration # 71     ecut=    40.00 Ry     beta=0.70
     Davidson diagonalization with overlap
     ethr =  1.00E-09,  avg # of iterations =  1.0

     negative rho (up, down):  0.233E-02 0.134E-02

     total cpu time spent up to now is    25237.0 secs

     total energy              =   -2321.77607813 Ry
     Harris-Foulkes estimate   =   -2321.77607832 Ry
     estimated scf accuracy    <       0.00000207 Ry

     total magnetization       =    22.02 Bohr mag/cell
     absolute magnetization    =    22.94 Bohr mag/cell

     iteration # 72     ecut=    40.00 Ry     beta=0.70
     Davidson diagonalization with overlap
     ethr =  8.67E-10,  avg # of iterations =  1.0

     negative rho (up, down):  0.233E-02 0.134E-02

     total cpu time spent up to now is    25542.0 secs

     total energy              =   -2321.77607782 Ry
     Harris-Foulkes estimate   =   -2321.77607869 Ry
     estimated scf accuracy    <       0.00000539 Ry

     total magnetization       =    22.02 Bohr mag/cell
     absolute magnetization    =    22.95 Bohr mag/cell

     iteration # 73     ecut=    40.00 Ry     beta=0.70
     Davidson diagonalization with overlap
     ethr =  8.67E-10,  avg # of iterations =  1.0

     negative rho (up, down):  0.233E-02 0.134E-02

     total cpu time spent up to now is    25847.6 secs

     total energy              =   -2321.77607814 Ry
     Harris-Foulkes estimate   =   -2321.77607833 Ry
     estimated scf accuracy    <       0.00000138 Ry

     total magnetization       =    22.02 Bohr mag/cell
     absolute magnetization    =    22.94 Bohr mag/cell

     iteration # 74     ecut=    40.00 Ry     beta=0.70
     Davidson diagonalization with overlap
     ethr =  5.76E-10,  avg # of iterations =  1.4

     negative rho (up, down):  0.233E-02 0.134E-02

     total cpu time spent up to now is    26162.0 secs

     total energy              =   -2321.77607784 Ry
     Harris-Foulkes estimate   =   -2321.77607869 Ry
     estimated scf accuracy    <       0.00000638 Ry

     total magnetization       =    22.02 Bohr mag/cell
     absolute magnetization    =    22.94 Bohr mag/cell

     iteration # 75     ecut=    40.00 Ry     beta=0.70
     Davidson diagonalization with overlap
     ethr =  5.76E-10,  avg # of iterations =  1.6

     negative rho (up, down):  0.233E-02 0.134E-02

     total cpu time spent up to now is    26482.8 secs

     total energy              =   -2321.77607803 Ry
     Harris-Foulkes estimate   =   -2321.77607854 Ry
     estimated scf accuracy    <       0.00000327 Ry

     total magnetization       =    22.02 Bohr mag/cell
     absolute magnetization    =    22.94 Bohr mag/cell

     iteration # 76     ecut=    40.00 Ry     beta=0.70
     Davidson diagonalization with overlap
     ethr =  5.76E-10,  avg # of iterations =  1.0

     negative rho (up, down):  0.233E-02 0.134E-02

     total cpu time spent up to now is    26788.2 secs

     End of self-consistent calculation

 ------ SPIN UP ------------


          k = 0.0000 0.0000 0.0000 ( 26393 PWs)   bands (ev):

   -83.9111 -83.9007 -83.6023 -83.4949 -83.4763 -83.3317 -83.1311 -83.1201
   -53.7686 -52.7607 -52.6464 -52.5356 -52.5174 -52.5162 -52.5056 -52.3684
   -52.2478 -52.1932 -52.1696 -52.1004 -52.0148 -51.9916 -51.9698 -51.9631
   -51.8888 -51.8553 -51.8389 -51.8191 -51.7783 -51.7640 -51.7259 -51.7063
   -24.2195 -21.8534 -21.1979 -20.9328 -20.6585 -20.2633 -20.0822 -20.0529
   -19.9002 -19.8779 -19.7912 -19.6719 -19.5813 -19.5328 -19.4288 -19.3862
   -18.9346 -18.6971 -18.5371 -12.6319  -9.9546  -9.9336  -9.5821  -9.4419
    -9.1768  -9.0807  -8.8407  -8.2542  -8.2004  -8.1502  -8.0480  -7.8188
    -7.7073  -7.6069  -7.5838  -7.4653  -7.3979  -7.3021  -7.1648  -7.0970
    -7.0869  -6.8455  -6.7862  -6.7509  -6.6358  -6.4894  -6.4276  -6.3765
    -6.2352  -5.8277  -5.7642  -5.6690  -5.4828  -5.3632  -5.2838  -5.1882
    -5.1210  -4.9765  -4.9002  -4.8756  -4.7893  -4.6718  -4.5588  -4.4602
    -4.4278  -4.3597  -4.3292  -4.3248  -4.2070  -4.1705  -3.9828  -3.9337
    -3.8234  -3.7994  -3.7681  -3.5740  -3.5395  -3.5140  -3.4797  -3.2709
    -3.0690  -3.0630  -2.9761  -2.9004  -2.8159  -2.6736  -2.6648  -2.5487
    -2.4952  -2.4350  -2.3036  -2.2875  -2.1931  -2.1469  -1.9785  -1.8294
    -1.6617  -1.5972  -1.3899  -1.2438  -1.0614  -0.7095  -0.2290  -0.0441
    -0.0091   0.2215   0.2369   0.4341   0.5158   0.8954   1.0504   1.0730
     1.2267   1.4835   1.8285   3.0312   3.1919   3.5577   3.7400   4.2163
     4.7088   5.4574   6.0463   6.4045   6.7639   6.9053   7.1642   7.2962
     7.3178   7.3982   7.5561   7.5593   7.6728   7.8386   8.0628   8.1492
     8.2292   8.3025   8.3427   8.4680   8.4941   8.6721   8.7849   8.8891
     8.9605   9.2394   9.2836   9.4192   9.4740   9.5096   9.6527   9.7336
     9.7709   9.8402  10.0552  10.0998  10.3722  10.3977  10.5452  10.5746
    10.6697  10.8406  10.9477  11.1401  11.2066  11.2232  11.2899  11.3929
    11.4562  11.6399  11.6837  11.8013  11.8366  11.9993  12.1168  12.1753
    12.2088  12.2282  12.2471  12.3225  12.3601  12.5079  12.5309  12.6320
    12.6589  12.7534  12.7676  12.8236  12.9882  13.0154  13.0779  13.0984
    13.1585  13.2237  13.3011  13.3435  13.3892  13.4616  13.6203  13.7397
    13.8171  13.8197  13.9200  13.9555  14.0906  14.1433  14.2362  14.3014
    14.3407  14.4075  14.4829  14.6163  14.6962  14.7239  14.7750  14.9190
    15.0146  15.0867  15.1195  15.2300  15.3155  15.4334  15.4907  15.5510
    15.6716  15.7608  15.8922  16.0539  16.1544  16.3101  16.3364  16.4504
    16.5330  16.6424  16.7452  16.8627  16.9370  17.0449  17.2180  17.2628
    17.3168  17.4005  17.4650  17.6300  17.7344  17.7909  17.8855  17.9099
    18.0326  18.1010  18.1651  18.3800  18.4926  18.5375  18.5585  18.7134
    18.7580  18.9928  19.0194  19.0880  19.1996  19.3569  19.3612  19.4503
    19.4971  19.5191  19.6133  19.6454  19.6602  19.7316  19.7979  19.8259
    19.8682  20.0488  20.0743  20.1637  20.2944  20.3149  20.4147  20.5220
    20.6536  20.6806  20.7287  20.8892  20.9494  21.1340  21.2470  21.2961
    21.3769  21.4798  21.4895  21.5164  21.5588  21.6372  21.7299  21.7768
    21.8930  21.9635  22.1430  22.2035  22.2636  22.2796  22.3143  22.4083
    22.4331  22.4886  22.5357  22.5505  22.6104  22.6712  22.7148  22.7597
    22.8925  22.9661

          k = 0.0000 0.2303 0.0000 ( 26455 PWs)   bands (ev):

   -83.9111 -83.9007 -83.6023 -83.4949 -83.4762 -83.3317 -83.1311 -83.1201
   -53.7686 -52.7607 -52.6465 -52.5356 -52.5175 -52.5160 -52.5057 -52.3680
   -52.2479 -52.1936 -52.1695 -52.1006 -52.0148 -51.9916 -51.9698 -51.9626
   -51.8888 -51.8553 -51.8391 -51.8185 -51.7790 -51.7642 -51.7259 -51.7064
   -24.2162 -21.7991 -21.1954 -20.9200 -20.5768 -20.3223 -20.0804 -20.0547
   -19.9205 -19.8454 -19.8094 -19.7961 -19.6757 -19.5457 -19.5324 -19.2248
   -18.9369 -18.6972 -18.5213 -12.6058  -9.9380  -9.9058  -9.4951  -9.2981
    -9.1467  -8.7971  -8.7884  -8.2401  -8.2021  -8.1196  -8.0907  -8.0156
    -7.8141  -7.5213  -7.4980  -7.3899  -7.3389  -7.2982  -7.1331  -7.0281
    -6.8996  -6.8095  -6.7459  -6.7300  -6.6264  -6.4481  -6.3917  -6.3523
    -6.2132  -6.1669  -6.0178  -5.7702  -5.6827  -5.4268  -5.3087  -5.2963
    -5.2510  -5.0412  -4.9276  -4.8994  -4.8572  -4.7552  -4.6420  -4.5950
    -4.5447  -4.4742  -4.3725  -4.2355  -4.1766  -4.0536  -3.8602  -3.8452
    -3.7673  -3.7394  -3.6846  -3.5726  -3.4565  -3.3568  -3.2598  -3.2246
    -3.1240  -3.0843  -3.0374  -2.9730  -2.9593  -2.8869  -2.7835  -2.7177
    -2.6381  -2.4894  -2.4034  -2.2313  -2.1815  -1.9930  -1.8728  -1.8451
    -1.7240  -1.5021  -1.3232  -1.2447  -1.1215  -0.9729  -0.3826  -0.3555
    -0.1020   0.0213   0.2392   0.7083   0.9075   0.9346   1.1492   1.2437
     1.5162   1.6694   1.8332   3.0623   3.4576   3.7319   3.9820   4.4318
     4.9250   5.3631   5.6324   5.8559   6.0980   6.3255   6.5935   6.9521
     7.0656   7.2740   7.4500   7.5510   7.6891   7.9275   8.2441   8.3550
     8.4455   8.5215   8.5544   8.6727   8.7900   8.8953   9.0486   9.1040
     9.3634   9.4127   9.5752   9.6338   9.6768   9.8106   9.8918   9.9773
    10.0690  10.1217  10.1987  10.2712  10.2916  10.3815  10.4242  10.4546
    10.5262  10.6100  10.7579  10.7851  10.9145  10.9898  11.0189  11.2458
    11.2568  11.3608  11.4224  11.4920  11.5898  11.6219  11.6504  11.8187
    11.8928  12.0415  12.1863  12.3043  12.4425  12.6011  12.6719  12.6880
    12.7792  12.9022  12.9746  13.0818  13.2031  13.3150  13.4200  13.4536
    13.5122  13.6345  13.6800  13.7821  13.8586  13.8997  13.9384  14.0358
    14.1217  14.1560  14.2948  14.3701  14.4411  14.4627  14.5151  14.5573
    14.5840  14.6961  14.7530  14.7938  14.8782  14.9134  14.9613  15.0346
    15.0900  15.2002  15.2474  15.4066  15.4432  15.5284  15.5637  15.6465
    15.7067  15.7662  15.8192  15.9362  15.9631  16.0672  16.1099  16.1887
    16.3365  16.3717  16.5224  16.5990  16.6522  16.7413  16.8433  16.9819
    17.0349  17.1961  17.2807  17.3613  17.4007  17.5002  17.5517  17.7754
    17.8340  17.8777  17.9551  18.0644  18.1623  18.1999  18.2342  18.4296
    18.6026  18.7093  18.7797  18.8489  19.0072  19.1342  19.1405  19.2487
    19.2639  19.3855  19.4846  19.5641  19.6212  19.7417  19.8572  19.9222
    20.0213  20.0941  20.1450  20.1990  20.2670  20.3058  20.3684  20.3985
    20.4729  20.5480  20.5667  20.6979  20.7836  20.7915  20.8858  20.9528
    21.0048  21.1512  21.1889  21.2484  21.3329  21.4266  21.4953  21.5484
    21.6631  21.6864  21.7652  21.8932  21.9177  22.0448  22.0963  22.1281
    22.2346  22.3269  22.3615  22.4077  22.5207  22.5550  22.5856  22.6885
    22.8148  22.8522

          k = 0.0000-0.4606 0.0000 ( 26364 PWs)   bands (ev):

   -83.9111 -83.9006 -83.6022 -83.4949 -83.4762 -83.3317 -83.1311 -83.1201
   -53.7685 -52.7606 -52.6464 -52.5355 -52.5175 -52.5156 -52.5059 -52.3676
   -52.2478 -52.1939 -52.1694 -52.1006 -52.0148 -51.9915 -51.9697 -51.9620
   -51.8886 -51.8552 -51.8394 -51.8177 -51.7797 -51.7642 -51.7259 -51.7063
   -24.2129 -21.7380 -21.1928 -20.9133 -20.4868 -20.2660 -20.1915 -20.0788
   -20.0189 -19.9046 -19.8138 -19.7462 -19.6951 -19.6428 -19.5323 -19.1633
   -18.9391 -18.6974 -18.5066 -12.5797  -9.8932  -9.8888  -9.4466  -9.3929
    -8.7591  -8.7037  -8.4436  -8.4027  -8.1571  -8.1416  -7.9923  -7.9601
    -7.7892  -7.5709  -7.4423  -7.4386  -7.3666  -7.2521  -6.9838  -6.9745
    -6.9229  -6.8436  -6.8104  -6.7793  -6.7133  -6.4998  -6.3984  -6.3544
    -6.1994  -6.1304  -6.0733  -6.0585  -5.7212  -5.6042  -5.5116  -5.4962
    -5.1923  -5.1586  -5.0711  -4.8923  -4.8355  -4.7850  -4.6355  -4.6172
    -4.5767  -4.4186  -4.3231  -4.1466  -4.0631  -3.9688  -3.9312  -3.8629
    -3.7748  -3.6977  -3.6504  -3.4905  -3.4729  -3.4353  -3.4236  -3.2101
    -3.1925  -3.0701  -3.0113  -2.9866  -2.9540  -2.8984  -2.8178  -2.7525
    -2.6836  -2.5001  -2.2731  -2.2274  -2.2179  -2.2087  -2.0592  -1.6849
    -1.5755  -1.4751  -1.4097  -1.2304  -1.2257  -1.1998  -0.7893  -0.2404
     0.0480   0.2379   0.3912   0.4950   0.7558   0.7856   1.4239   1.5497
     1.5835   1.8374   2.0743   3.0515   4.0150   4.0873   4.3875   4.6110
     4.7039   4.9141   5.1325   5.4275   5.7092   6.0661   6.4149   6.8618
     7.0811   7.1697   7.5553   7.6261   7.8442   7.9114   7.9649   7.9939
     8.2845   8.7892   8.8254   9.0936   9.1108   9.1859   9.2447   9.2726
     9.3334   9.3629   9.4240   9.5638   9.5825   9.6623   9.7669   9.8364
     9.8670   9.9675  10.1232  10.1460  10.2574  10.2832  10.3569  10.5230
    10.6203  10.7852  10.8428  10.9804  11.0229  11.1448  11.2608  11.3583
    11.3782  11.5013  11.6627  11.8322  11.8838  11.9636  12.0362  12.0743
    12.2484  12.3656  12.4079  12.4770  12.5185  12.5851  12.6300  12.7310
    12.8179  12.9053  12.9902  13.0850  13.1140  13.2101  13.3167  13.3242
    13.5083  13.5475  13.5957  13.6342  13.6745  13.8406  13.9109  13.9860
    14.0742  14.1467  14.1605  14.3055  14.3221  14.4516  14.4915  14.5630
    14.5819  14.6266  14.7629  14.8189  14.8714  14.9127  14.9483  15.0600
    15.2421  15.2558  15.3370  15.4308  15.5038  15.5481  15.7322  15.7675
    15.9312  16.0073  16.1505  16.1933  16.2347  16.3991  16.4594  16.5478
    16.6286  16.7055  16.8554  16.9389  17.0269  17.1198  17.1538  17.1839
    17.2368  17.2810  17.3495  17.3705  17.5371  17.5952  17.6534  17.7213
    17.7635  17.8470  17.8794  17.9567  17.9853  18.0186  18.1133  18.1795
    18.3346  18.3996  18.4815  18.5884  18.6509  18.6919  18.7036  18.7188
    18.8015  18.8773  18.9315  19.0164  19.0655  19.1149  19.2024  19.2896
    19.3202  19.4803  19.6903  19.8475  19.9348  19.9550  20.0136  20.0676
    20.1724  20.2139  20.2767  20.2950  20.3343  20.4612  20.6209  20.6663
    20.7587  20.8315  20.8949  21.0433  21.0669  21.1601  21.2049  21.3309
    21.3902  21.4150  21.4666  21.5524  21.6228  21.6484  21.6975  21.9663
    22.1113  22.1991  22.3601  22.3786  22.4237  22.5119  22.5824  22.6872
    22.7705  22.8258

          k = 0.2500 0.0000 0.0000 ( 26392 PWs)   bands (ev):

   -83.9097 -83.9020 -83.6022 -83.4942 -83.4770 -83.3318 -83.1297 -83.1216
   -53.7684 -52.7440 -52.6633 -52.5329 -52.5199 -52.5148 -52.5071 -52.3507
   -52.2651 -52.1918 -52.1714 -52.0939 -52.0148 -51.9910 -51.9702 -51.9627
   -51.8706 -51.8548 -51.8396 -51.8259 -51.7826 -51.7784 -51.7230 -51.7091
   -24.2151 -21.7472 -21.2741 -20.8546 -20.5739 -20.3356 -20.2180 -20.0354
   -19.9626 -19.8344 -19.7750 -19.6868 -19.5816 -19.5761 -19.3847 -19.3527
   -18.9908 -18.6950 -18.5640 -12.6414  -9.9367  -9.8866  -9.4554  -9.3457
    -9.2114  -8.9214  -8.6762  -8.3203  -8.1774  -8.0580  -7.9661  -7.8915
    -7.7561  -7.7054  -7.6252  -7.4856  -7.4764  -7.2798  -7.2304  -7.1516
    -7.0009  -6.8677  -6.7275  -6.6774  -6.6042  -6.4312  -6.3069  -6.1115
    -6.0426  -5.9338  -5.7561  -5.6805  -5.5557  -5.4754  -5.4564  -5.2424
    -5.1713  -5.0533  -5.0385  -4.8947  -4.8623  -4.8360  -4.7842  -4.7214
    -4.6597  -4.5109  -4.4370  -4.2952  -4.2525  -4.1794  -4.0688  -3.9544
    -3.8643  -3.6831  -3.6782  -3.5440  -3.4592  -3.4437  -3.3407  -3.2639
    -3.1584  -2.9887  -2.9600  -2.8833  -2.7164  -2.6741  -2.5130  -2.4937
    -2.4691  -2.3969  -2.2830  -2.1407  -2.1135  -2.0798  -1.9019  -1.8638
    -1.7645  -1.4881  -1.4744  -1.3746  -1.1083  -0.5643  -0.2831  -0.0857
    -0.0232   0.1608   0.2217   0.4594   0.6358   0.8009   0.8810   0.8954
     1.0854   1.4273   1.5934   3.1174   3.5087   3.8005   4.0378   4.4941
     5.0001   5.6064   5.6404   6.1030   6.2991   6.4260   6.7520   6.7776
     7.1626   7.4222   7.4964   7.5679   7.6209   7.8127   7.8935   7.9562
     8.1349   8.3289   8.4304   8.5136   8.7144   8.7791   9.0259   9.0994
     9.1243   9.3148   9.5405   9.5955   9.6330   9.8297   9.8907   9.9317
     9.9695  10.1351  10.1707  10.1953  10.2436  10.4245  10.4768  10.5474
    10.6496  10.6646  10.7650  10.8320  10.9708  11.0346  11.0961  11.2639
    11.3540  11.3929  11.4459  11.4842  11.5558  11.6039  11.7164  11.8063
    11.8984  12.0105  12.2662  12.3364  12.4745  12.5282  12.5615  12.7964
    12.8912  12.9431  12.9868  13.1547  13.2067  13.2581  13.3128  13.3640
    13.4367  13.5220  13.6598  13.6962  13.8056  13.8487  14.0804  14.1006
    14.1915  14.2308  14.3221  14.3555  14.5006  14.5717  14.6200  14.6859
    14.7548  14.7674  14.8062  14.8501  14.9903  15.0259  15.1150  15.2011
    15.3076  15.4352  15.5204  15.5338  15.6167  15.7724  15.8483  15.9159
    15.9816  16.0386  16.1047  16.1630  16.2737  16.3076  16.4497  16.6218
    16.6890  16.7499  16.8205  16.9224  17.0180  17.0498  17.1564  17.2282
    17.3400  17.4596  17.4726  17.6032  17.7410  17.7904  17.8593  17.9003
    17.9816  18.0332  18.0965  18.1469  18.2023  18.2945  18.3533  18.5003
    18.5973  18.7295  18.7958  18.9302  18.9806  19.0310  19.0687  19.1920
    19.3308  19.3913  19.4915  19.5316  19.6561  19.7178  19.7465  19.7873
    19.8266  19.9249  19.9723  20.0042  20.0490  20.0891  20.2788  20.3977
    20.4442  20.5234  20.6034  20.6367  20.6855  20.7827  20.8306  20.9143
    20.9966  21.1377  21.1701  21.3306  21.3410  21.4016  21.4624  21.5068
    21.5489  21.6412  21.6745  21.7358  21.8223  21.8343  21.8962  21.9211
    21.9705  22.0175  22.0531  22.0668  22.1237  22.1369  22.2294  22.2398
    22.3190  22.3586

          k = 0.2500 0.2303 0.0000 ( 26396 PWs)   bands (ev):

   -83.9097 -83.9020 -83.6022 -83.4942 -83.4770 -83.3318 -83.1297 -83.1216
   -53.7686 -52.7440 -52.6632 -52.5330 -52.5200 -52.5146 -52.5071 -52.3505
   -52.2652 -52.1921 -52.1714 -52.0940 -52.0148 -51.9911 -51.9703 -51.9622
   -51.8706 -51.8548 -51.8401 -51.8247 -51.7829 -51.7788 -51.7230 -51.7092
   -24.2121 -21.7021 -21.2687 -20.8245 -20.4976 -20.3002 -20.2730 -20.0187
   -19.9414 -19.8506 -19.8391 -19.7665 -19.6966 -19.5622 -19.5530 -19.2021
   -18.9835 -18.6922 -18.5505 -12.6185  -9.9191  -9.8584  -9.4245  -9.2326
    -8.9948  -8.6314  -8.5920  -8.2902  -8.1254  -8.0449  -7.9422  -7.8962
    -7.8084  -7.7353  -7.5934  -7.4591  -7.3425  -7.2872  -7.2058  -7.0792
    -7.0171  -6.8829  -6.7233  -6.6897  -6.6095  -6.4763  -6.2694  -6.2277
    -5.9949  -5.9593  -5.9264  -5.8109  -5.7469  -5.6842  -5.6280  -5.5374
    -5.3492  -5.2144  -5.1113  -5.0443  -4.9903  -4.8814  -4.7935  -4.7176
    -4.5742  -4.5261  -4.4739  -4.2410  -4.1992  -4.0710  -3.9948  -3.9238
    -3.8026  -3.7014  -3.5499  -3.4806  -3.3435  -3.3041  -3.2509  -3.1579
    -3.1186  -3.0116  -2.9801  -2.9088  -2.8092  -2.7748  -2.6378  -2.5721
    -2.4709  -2.3910  -2.2926  -2.1910  -2.1050  -1.9869  -1.9314  -1.8575
    -1.8136  -1.5515  -1.3876  -1.2904  -1.1665  -0.8132  -0.3875  -0.2315
    -0.1064  -0.0160   0.0955   0.5507   0.6033   0.9282   1.0331   1.2025
     1.4064   1.5974   1.6514   3.1348   3.7635   3.9686   4.2689   4.6997
     5.1898   5.6136   5.8013   5.8820   6.1189   6.3169   6.4112   6.5596
     6.6868   6.9003   6.9647   7.2988   7.4463   7.6170   7.7537   7.9368
     8.1414   8.2945   8.4055   8.5294   8.6341   8.8282   8.9096   9.0603
     9.1535   9.2040   9.3365   9.4491   9.6208   9.7681   9.8747   9.9550
    10.0014  10.1338  10.2088  10.4243  10.4567  10.5507  10.6620  10.8017
    10.9640  11.0492  11.0771  11.1505  11.3224  11.3461  11.4567  11.5441
    11.5972  11.7028  11.7255  11.8311  11.9414  11.9897  12.1019  12.2673
    12.3270  12.4188  12.5192  12.5716  12.6315  12.7335  12.8349  12.8820
    12.9529  13.0288  13.0899  13.1803  13.2224  13.2964  13.4042  13.4443
    13.4922  13.5631  13.6657  13.7005  13.8119  13.8723  13.9692  14.0168
    14.0854  14.1236  14.2263  14.3101  14.3404  14.4197  14.4876  14.5597
    14.6458  14.7282  14.8087  14.8748  14.9723  15.0390  15.1417  15.2582
    15.3542  15.4103  15.4965  15.5936  15.7046  15.7745  15.8365  15.9113
    15.9957  16.0949  16.1911  16.2003  16.2807  16.3592  16.4102  16.5206
    16.5729  16.6872  16.7142  16.8550  16.9509  17.0160  17.0633  17.0909
    17.1483  17.2192  17.3084  17.3490  17.4108  17.5776  17.6322  17.6919
    17.7760  17.8547  17.9008  17.9970  18.0692  18.1615  18.2290  18.2842
    18.3017  18.3666  18.4909  18.5790  18.5918  18.6385  18.7234  18.8036
    18.8867  18.9738  19.0417  19.0888  19.1369  19.2701  19.3389  19.4071
    19.5024  19.5601  19.6575  19.7525  19.7774  19.9106  19.9769  20.0062
    20.0320  20.1015  20.1925  20.2225  20.2593  20.3048  20.4720  20.5007
    20.6217  20.7313  20.7833  20.8481  20.9095  21.0169  21.0909  21.1755
    21.2899  21.3596  21.4451  21.4736  21.5481  21.6257  21.6951  21.7708
    21.8273  21.8901  21.9830  22.0630  22.1965  22.2954  22.3535  22.4000
    22.4661  22.5637

          k = 0.2500-0.4606 0.0000 ( 26462 PWs)   bands (ev):

   -83.9097 -83.9020 -83.6022 -83.4942 -83.4770 -83.3318 -83.1297 -83.1216
   -53.7687 -52.7440 -52.6633 -52.5329 -52.5200 -52.5143 -52.5073 -52.3503
   -52.2651 -52.1924 -52.1715 -52.0942 -52.0148 -51.9911 -51.9703 -51.9617
   -51.8707 -51.8549 -51.8406 -51.8237 -51.7834 -51.7792 -51.7230 -51.7092
   -24.2091 -21.6532 -21.2630 -20.7845 -20.4587 -20.2501 -20.1815 -20.1026
   -20.0410 -19.9021 -19.8411 -19.7933 -19.7381 -19.6937 -19.5458 -19.1479
   -18.9775 -18.6898 -18.5380 -12.5964  -9.8872  -9.8322  -9.3914  -9.2612
    -8.5331  -8.5124  -8.2531  -8.1670  -8.0960  -8.0342  -7.9690  -7.8405
    -7.7889  -7.7405  -7.6127  -7.4131  -7.3618  -7.3067  -7.2914  -6.9750
    -6.9550  -6.7977  -6.7262  -6.6754  -6.6041  -6.5619  -6.4534  -6.3898
    -6.2971  -6.1259  -6.0434  -5.9750  -5.8611  -5.8100  -5.6420  -5.5395
    -5.4724  -5.4287  -5.3715  -5.1646  -5.1363  -5.0443  -4.7190  -4.5609
    -4.5051  -4.4545  -4.3623  -4.2270  -4.0811  -4.0467  -3.9672  -3.8439
    -3.7415  -3.6544  -3.4864  -3.4424  -3.4045  -3.3336  -3.2714  -3.2088
    -3.1116  -3.0610  -2.9168  -2.8504  -2.7836  -2.6813  -2.6455  -2.5848
    -2.4813  -2.3611  -2.2918  -2.2599  -2.2030  -2.1071  -1.8281  -1.8248
    -1.7063  -1.5606  -1.3948  -1.2662  -1.2300  -1.1720  -0.6651  -0.3222
    -0.0010   0.1188   0.1208   0.3869   0.4737   0.8727   1.3619   1.4116
     1.4663   1.6788   1.9969   3.1222   4.2513   4.2922   4.6812   4.9017
     4.9841   5.2065   5.3967   5.7201   5.9483   6.1334   6.3407   6.5460
     6.8412   6.9185   7.1749   7.2088   7.2783   7.4264   7.4626   7.6640
     7.9171   7.9821   8.1077   8.1917   8.3258   8.5707   8.6604   8.8234
     9.1520   9.2094   9.2251   9.4279   9.5222   9.7296   9.8105   9.9243
    10.0393  10.2421  10.4637  10.5087  10.5939  10.9408  11.1084  11.2028
    11.3638  11.5472  11.5776  11.6717  11.7253  11.7729  11.8544  11.9679
    11.9933  12.0439  12.1816  12.2082  12.2768  12.3742  12.4412  12.5661
    12.6372  12.6630  12.7078  12.7917  12.8160  12.8956  12.9524  12.9775
    13.0218  13.0953  13.1921  13.2325  13.2960  13.3844  13.4752  13.5115
    13.6458  13.6806  13.7492  13.7777  13.8309  13.8659  13.9322  14.0710
    14.1493  14.2512  14.3118  14.3692  14.4208  14.4558  14.5464  14.6772
    14.7360  14.7993  14.8268  14.8619  14.9542  14.9819  14.9962  15.0751
    15.1072  15.1628  15.2526  15.3063  15.3413  15.4314  15.4971  15.5654
    15.5837  15.7410  15.7631  15.9144  15.9601  16.0072  16.0886  16.1996
    16.3103  16.3750  16.4530  16.4989  16.5648  16.6667  16.7460  16.8002
    16.9272  17.0746  17.1243  17.1689  17.1975  17.3473  17.4561  17.6157
    17.6935  17.7755  17.8548  17.9259  17.9619  18.0750  18.0909  18.2279
    18.3502  18.4521  18.5258  18.6196  18.7086  18.7254  18.7888  18.8275
    18.8866  18.9742  19.0160  19.0850  19.1323  19.1810  19.2362  19.2709
    19.4462  19.5377  19.6058  19.6842  19.7032  19.7599  19.7797  19.8078
    19.9216  19.9819  19.9894  20.0679  20.0978  20.1361  20.1782  20.2769
    20.3062  20.4612  20.5280  20.6365  20.7519  20.8534  20.8896  20.9755
    21.0193  21.0445  21.0785  21.1750  21.1943  21.2840  21.3493  21.4146
    21.4761  21.5173  21.6837  21.7335  21.8710  22.0116  22.1686  22.2379
    22.3682  22.3847

          k =-0.5000 0.0000 0.0000 ( 26466 PWs)   bands (ev):

   -83.9075 -83.9042 -83.6022 -83.4934 -83.4778 -83.3318 -83.1273 -83.1239
   -53.7686 -52.7053 -52.7021 -52.5280 -52.5249 -52.5123 -52.5099 -52.3130
   -52.3028 -52.1901 -52.1736 -52.0871 -52.0148 -51.9905 -51.9707 -51.9625
   -51.8543 -51.8405 -51.8333 -51.8275 -51.8256 -51.7785 -51.7168 -51.7153
   -24.2107 -21.5055 -21.4870 -20.6662 -20.6287 -20.3966 -20.2137 -20.1102
   -20.0648 -19.7414 -19.7383 -19.6939 -19.6868 -19.5811 -19.3831 -19.1862
   -19.1476 -18.6644 -18.6094 -12.6509  -9.9268  -9.8373  -9.3324  -9.2512
    -8.9709  -8.9684  -8.5876  -8.3804  -8.1617  -8.0703  -7.9740  -7.9113
    -7.8732  -7.7506  -7.7336  -7.4815  -7.2609  -7.2376  -7.2255  -7.0942
    -6.8162  -6.7521  -6.6382  -6.4686  -6.4393  -6.3438  -6.2907  -6.2559
    -6.1160  -6.0635  -5.8707  -5.8036  -5.7178  -5.7060  -5.4350  -5.3783
    -5.2267  -5.2184  -5.1762  -5.1084  -4.9871  -4.9345  -4.8656  -4.7775
    -4.7552  -4.6176  -4.4858  -4.3680  -4.3153  -4.0919  -4.0765  -3.7701
    -3.6702  -3.6171  -3.5422  -3.5213  -3.4761  -3.3995  -3.3457  -3.2330
    -3.1734  -3.0821  -3.0566  -2.7489  -2.6976  -2.6530  -2.6076  -2.4188
    -2.3976  -2.3642  -2.1633  -2.0641  -2.0471  -1.8843  -1.8698  -1.7714
    -1.7167  -1.6951  -1.6225  -1.3964  -1.1402  -0.5046  -0.3149  -0.2331
    -0.0566   0.3701   0.3821   0.5319   0.5419   0.5523   0.6393   0.7687
     0.8893   1.4038   1.4567   3.2003   4.2658   4.3560   4.3586   4.7538
     4.8648   5.0307   5.2817   5.5175   5.8370   6.0960   6.4602   6.7866
     7.0828   7.3472   7.6349   7.6965   7.9677   8.2114   8.2962   8.3400
     8.4032   8.4360   8.4860   8.5182   8.7498   8.7762   8.7932   8.8126
     8.9609   9.0075   9.2299   9.2939   9.3018   9.3967   9.5741   9.6252
     9.8501   9.9224  10.1302  10.1945  10.2754  10.3381  10.4155  10.4488
    10.6246  10.7425  10.8172  10.8602  11.0136  11.0507  11.1905  11.2105
    11.2677  11.3032  11.4195  11.4750  11.8811  11.9554  12.0420  12.0962
    12.2353  12.2682  12.4960  12.6268  12.6796  12.7813  12.8691  12.9081
    13.1431  13.2406  13.2804  13.3507  13.4461  13.5129  13.6132  13.7875
    13.8273  13.8643  13.9378  13.9663  14.0724  14.0737  14.1265  14.1761
    14.2129  14.2493  14.3073  14.4048  14.5232  14.5454  14.7841  14.8331
    14.8928  14.9873  15.0518  15.0724  15.1121  15.2158  15.2531  15.3236
    15.4749  15.5906  15.7123  15.7373  15.8213  15.8318  15.9177  15.9556
    16.0969  16.3083  16.4920  16.5414  16.5852  16.6727  16.7568  16.8307
    16.9050  16.9625  16.9809  17.1778  17.2502  17.2749  17.3758  17.4134
    17.5384  17.6310  17.8296  17.8918  17.9195  17.9615  18.0180  18.0246
    18.0740  18.0889  18.1474  18.2128  18.2691  18.3047  18.4014  18.4856
    18.5819  18.6246  18.7002  18.7654  18.7803  18.8202  18.9656  19.0426
    19.0943  19.1091  19.1323  19.2206  19.2273  19.3118  19.3671  19.4324
    19.5241  19.6060  19.7169  19.8483  19.9310  20.0427  20.1020  20.1470
    20.2199  20.2638  20.3930  20.4625  20.4942  20.5188  20.5746  20.5886
    20.6042  20.6627  20.6805  20.7388  20.8129  20.8824  20.9216  20.9507
    21.0096  21.0218  21.0554  21.0858  21.1346  21.2225  21.2550  21.3298
    21.3482  21.4718  21.5272  21.5511  21.5687  21.6412  21.6603  21.7549
    21.7696  21.8582

          k =-0.5000 0.2303 0.0000 ( 26450 PWs)   bands (ev):

   -83.9075 -83.9042 -83.6022 -83.4934 -83.4778 -83.3318 -83.1273 -83.1239
   -53.7685 -52.7053 -52.7021 -52.5280 -52.5249 -52.5121 -52.5097 -52.3129
   -52.3027 -52.1902 -52.1738 -52.0872 -52.0148 -51.9905 -51.9708 -51.9620
   -51.8544 -51.8416 -51.8312 -51.8277 -51.8258 -51.7793 -51.7168 -51.7153
   -24.2080 -21.4836 -21.4644 -20.6001 -20.5725 -20.3302 -20.1994 -20.1580
   -20.1019 -19.7777 -19.7681 -19.7306 -19.6857 -19.6714 -19.5675 -19.1424
   -19.0804 -18.6554 -18.6013 -12.6310  -9.9072  -9.8048  -9.3116  -9.2272
    -8.6659  -8.6506  -8.3124  -8.2381  -8.0911  -8.0539  -7.9821  -7.8622
    -7.8035  -7.7520  -7.6421  -7.5106  -7.3387  -7.2936  -7.0698  -6.9701
    -6.9126  -6.8211  -6.7052  -6.5780  -6.5422  -6.4885  -6.3952  -6.3238
    -6.2001  -6.1630  -6.0508  -5.9811  -5.7637  -5.7176  -5.6691  -5.5935
    -5.5450  -5.3634  -5.3387  -5.2065  -5.1694  -5.0529  -4.9185  -4.7965
    -4.6368  -4.5268  -4.3673  -4.2606  -4.1430  -4.0723  -3.9984  -3.9140
    -3.6990  -3.6242  -3.5481  -3.3783  -3.3585  -3.2905  -3.1493  -3.1449
    -3.0756  -3.0348  -2.8361  -2.7863  -2.7295  -2.7001  -2.6721  -2.5147
    -2.4304  -2.2641  -2.1246  -2.0454  -2.0317  -1.8902  -1.8742  -1.8459
    -1.8143  -1.7571  -1.7066  -1.2579  -1.1853  -0.5332  -0.3759  -0.3589
    -0.2176   0.0898   0.1448   0.2864   0.3265   0.8335   0.8665   1.1847
     1.2233   1.5270   1.6190   3.2099   4.3667   4.5837   4.5904   4.9895
     5.0969   5.2579   5.4877   5.7306   5.9892   6.2177   6.3981   6.5837
     6.7387   6.8964   7.0110   7.1071   7.1964   7.2832   7.5075   7.6502
     7.7441   7.8146   8.1904   8.2913   8.3800   8.5607   8.5831   8.7818
     9.1044   9.2336   9.3957   9.4736   9.6457   9.7294   9.8953   9.9572
    10.3152  10.3322  10.4863  10.5410  10.6785  10.7816  10.8800  10.9004
    10.9780  11.0445  11.1711  11.2316  11.3195  11.4088  11.5862  11.6228
    11.6416  11.6759  11.8896  11.9638  12.2020  12.2498  12.3634  12.3845
    12.5343  12.5907  12.7322  12.8334  12.9520  13.0212  13.0733  13.0979
    13.1965  13.2484  13.3842  13.4420  13.5315  13.6200  13.6588  13.8575
    13.8892  13.9650  14.1055  14.1808  14.2523  14.2690  14.3439  14.3667
    14.3953  14.4558  14.5626  14.6027  14.6364  14.7084  14.7474  14.8673
    14.8878  14.9574  15.0429  15.0818  15.1921  15.2367  15.2842  15.3817
    15.4346  15.5118  15.5576  15.7766  15.8255  15.9020  15.9628  16.0077
    16.0543  16.1088  16.1661  16.2346  16.2742  16.3087  16.3457  16.4110
    16.4519  16.6612  16.6939  16.7558  16.7830  16.8252  16.8999  16.9255
    16.9776  17.0384  17.0677  17.1202  17.2015  17.2717  17.3260  17.4119
    17.5141  17.5342  17.5644  17.6081  17.7399  17.7886  17.8146  17.9089
    17.9501  17.9838  18.0358  18.1918  18.2267  18.3886  18.4266  18.4522
    18.5095  18.5913  18.7163  18.9437  19.0084  19.0797  19.1806  19.2558
    19.3217  19.3399  19.4817  19.5383  19.5856  19.6857  19.7802  19.8970
    19.9318  20.0173  20.0772  20.1100  20.1417  20.1816  20.2154  20.3040
    20.3612  20.3937  20.4647  20.5247  20.6247  20.7864  20.8674  20.9600
    21.0882  21.1643  21.1944  21.2262  21.2713  21.4160  21.4862  21.5297
    21.6479  21.7076  21.7622  21.8016  21.9403  21.9920  22.1465  22.1833
    22.3261  22.3880

          k =-0.5000-0.4606 0.0000 ( 26416 PWs)   bands (ev):

   -83.9075 -83.9042 -83.6021 -83.4934 -83.4778 -83.3318 -83.1273 -83.1239
   -53.7685 -52.7053 -52.7021 -52.5280 -52.5248 -52.5120 -52.5096 -52.3128
   -52.3026 -52.1903 -52.1739 -52.0873 -52.0148 -51.9905 -51.9707 -51.9614
   -51.8548 -51.8420 -51.8293 -51.8278 -51.8259 -51.7800 -51.7168 -51.7153
   -24.2053 -21.4613 -21.4414 -20.4502 -20.4447 -20.4010 -20.3490 -20.0405
   -20.0319 -19.8971 -19.8450 -19.7951 -19.7669 -19.6795 -19.6724 -19.1140
   -19.0447 -18.6471 -18.5940 -12.6119  -9.8812  -9.7777  -9.2883  -9.2004
    -8.3046  -8.1787  -8.1024  -8.0726  -7.9786  -7.8609  -7.8103  -7.7832
    -7.7563  -7.6133  -7.5834  -7.5171  -7.3978  -7.3758  -7.2704  -7.2614
    -6.9722  -6.8196  -6.7307  -6.7148  -6.6946  -6.5625  -6.4474  -6.4363
    -6.3268  -6.2846  -6.1354  -6.1147  -6.0563  -6.0289  -5.9643  -5.7696
    -5.6064  -5.5433  -5.4126  -5.2861  -5.2436  -4.9230  -4.8990  -4.8046
    -4.6638  -4.3306  -4.3207  -4.2118  -4.1061  -4.0843  -4.0026  -3.8533
    -3.7603  -3.6029  -3.5313  -3.3558  -3.2560  -3.1719  -3.1561  -3.0654
    -2.9663  -2.9519  -2.7769  -2.7666  -2.7434  -2.7042  -2.6838  -2.3965
    -2.3580  -2.2323  -2.0214  -2.0138  -1.9744  -1.9308  -1.8920  -1.8836
    -1.8687  -1.7885  -1.7679  -1.2313  -1.1800  -0.7441  -0.6956  -0.4256
    -0.2617  -0.2204  -0.1522   0.3644   0.3705   1.1484   1.1606   1.1840
     1.2017   1.7900   1.8459   3.1958   4.4923   5.0373   5.0381   5.5245
     5.5263   5.6154   5.7502   5.7804   5.8289   5.9172   6.0429   6.0991
     6.2261   6.3941   6.5578   6.6335   6.7987   6.9848   7.2050   7.3165
     7.5222   7.7351   7.9896   8.1287   8.2542   8.3324   8.7083   8.8101
     8.8513   9.0074   9.0637   9.2867   9.4670   9.4913   9.9410  10.0241
    10.0685  10.1886  10.6379  10.7164  10.8951  10.9620  11.0494  11.1159
    11.2868  11.4561  11.7362  11.8143  12.2125  12.3459  12.4085  12.4175
    12.4506  12.5959  12.6352  12.6472  12.8842  12.9758  13.0183  13.0798
    13.1190  13.1694  13.1751  13.2767  13.3040  13.3893  13.5043  13.5309
    13.6561  13.6722  13.7168  13.7552  13.7871  13.8228  13.8952  13.9111
    13.9362  14.0183  14.0236  14.0615  14.1566  14.1894  14.2186  14.2398
    14.2522  14.4533  14.4773  14.5988  14.6858  14.7124  14.7720  14.9077
    14.9452  14.9734  15.0276  15.0597  15.0700  15.0900  15.1114  15.1291
    15.2164  15.2765  15.3190  15.3662  15.4199  15.4741  15.4979  15.5383
    15.5732  15.6252  15.6597  15.6890  15.7687  15.8055  15.8387  15.8557
    15.9374  15.9792  16.0500  16.1391  16.1766  16.3338  16.4250  16.4621
    16.4738  16.4959  16.5808  16.5981  16.7923  16.8556  16.9106  16.9463
    16.9745  17.1048  17.1482  17.2506  17.3491  17.3953  17.4538  17.5751
    17.6968  17.7792  17.9417  17.9747  18.0270  18.1208  18.1912  18.2208
[...]
     4.9238   5.2458   5.4164   5.6800   5.9676   6.2044   6.5900   6.8455
     7.1660   7.3870   7.5680   7.6501   8.0226   8.1550   8.1852   8.3611
     8.3979   8.5256   8.6479   8.7835   8.8026   8.9003   8.9037   8.9878
     9.0719   9.1541   9.3370   9.4318   9.4720   9.4976   9.6620   9.7598
     9.9174  10.0380  10.1960  10.3105  10.3316  10.4124  10.4566  10.4779
    10.7147  10.9055  10.9240  10.9590  11.1315  11.2163  11.2967  11.3153
    11.3880  11.4346  11.5931  11.6284  11.9369  12.0743  12.2835  12.3548
    12.3709  12.3869  12.6249  12.7518  12.7977  12.9516  12.9970  13.0493
    13.2860  13.3042  13.3749  13.4600  13.6490  13.6775  13.7939  13.8227
    13.9167  14.0450  14.0937  14.1552  14.1885  14.2666  14.3259  14.3816
    14.4619  14.4930  14.5167  14.6815  14.7160  14.7539  15.0119  15.0179
    15.0379  15.1360  15.1595  15.1735  15.2673  15.3403  15.4144  15.5339
    15.6640  15.7881  15.8208  15.9149  15.9509  15.9684  16.0369  16.1081
    16.2346  16.5055  16.6886  16.7138  16.7480  16.8006  16.8772  16.9319
    16.9998  17.0514  17.0608  17.1404  17.2130  17.3929  17.4438  17.5022
    17.5983  17.7465  17.7746  17.8837  17.9155  17.9435  17.9745  18.0112
    18.1118  18.2312  18.2646  18.3693  18.3842  18.3888  18.4825  18.6575
    18.6693  18.7717  18.8252  18.8917  18.9045  18.9246  18.9885  19.0256
    19.1702  19.2574  19.2674  19.3178  19.3487  19.3905  19.4518  19.4890
    19.5108  19.5890  19.8166  19.9513  19.9907  20.0715  20.1540  20.2281
    20.3115  20.3510  20.4013  20.4825  20.5767  20.6085  20.6328  20.6589
    20.6985  20.7620  20.8623  20.9110  20.9470  21.0032  21.0373  21.0974
    21.1556  21.1814  21.2011  21.2725  21.3356  21.3867  21.4082  21.4617
    21.5189  21.5873  21.6610  21.6878  21.7717  21.8164  21.8536  21.8720
    21.9060  21.9897

          k =-0.5000 0.2303 0.0000 ( 26450 PWs)   bands (ev):

   -80.8573 -80.8500 -80.7229 -80.7058 -80.5511 -80.5305 -80.4610 -80.1290
   -49.7259 -49.7193 -49.6308 -49.6236 -49.6123 -49.5965 -49.5755 -49.5681
   -49.5604 -49.5511 -49.4597 -49.4453 -49.3792 -49.3704 -49.3499 -49.2914
   -49.2704 -49.1759 -49.1642 -49.1633 -49.1398 -49.0626 -48.9704 -48.7573
   -21.7834 -21.7784 -20.8449 -20.8065 -20.6279 -20.5098 -20.3638 -20.3109
   -20.0308 -19.9676 -19.9391 -19.9086 -19.8819 -19.8598 -19.6475 -19.4411
   -19.3946 -19.1071 -18.8920  -9.3863  -9.3734  -8.4683  -8.4450  -8.2641
    -8.1626  -8.0496  -7.9672  -7.8643  -7.8000  -7.6583  -7.5982  -7.4837
    -7.4342  -7.3390  -7.1728  -7.1623  -6.9085  -6.8279  -6.7744  -6.6833
    -6.5500  -6.4649  -6.3295  -6.3142  -6.2700  -6.2544  -5.9719  -5.9372
    -5.8144  -5.7707  -5.6013  -5.5686  -5.5423  -5.4228  -5.3495  -5.2445
    -5.1496  -5.0251  -4.9622  -4.7557  -4.6297  -4.6059  -4.4793  -4.3543
    -3.9713  -3.8780  -3.7567  -3.6683  -3.6018  -3.5468  -3.4555  -3.2541
    -3.1363  -3.0231  -2.9239  -2.5668  -1.2228  -1.1945  -1.1854  -1.1345
    -1.0559  -0.9222  -0.8828  -0.8609  -0.7375  -0.7217  -0.5936  -0.5802
    -0.4332  -0.3572  -0.3060  -0.2599  -0.2141  -0.1169  -0.0954  -0.0753
     0.0301   0.0492   0.2009   0.2481   0.5628   0.8001   1.0958   1.1187
     1.1573   1.3510   1.4108   1.4441   1.4735   1.7800   1.9618   2.0792
     2.2962   2.3062   2.5572   2.6742   4.3655   4.3702   4.7919   5.1415
     5.1570   5.4773   5.6181   5.8614   6.0466   6.2085   6.3958   6.6098
     6.8532   7.0708   7.1275   7.2732   7.3226   7.4589   7.6217   7.7494
     7.8235   7.9159   8.2001   8.3433   8.4751   8.6421   8.6703   8.8771
     9.1832   9.3645   9.4487   9.5820   9.6346   9.6933   9.9456  10.0278
    10.3626  10.4501  10.5922  10.6305  10.7557  10.9099  10.9453  10.9862
    10.9998  11.1631  11.2320  11.3280  11.5464  11.6206  11.6840  11.7230
    11.7455  11.8580  12.0107  12.0836  12.3444  12.3806  12.4726  12.5672
    12.6575  12.7434  12.8249  12.9334  13.0093  13.1184  13.1706  13.2488
    13.4011  13.4278  13.5083  13.5567  13.6980  13.7460  13.8816  13.9023
    14.1142  14.2077  14.3199  14.3665  14.4256  14.4632  14.5009  14.5342
    14.5553  14.6323  14.6930  14.7542  14.8402  14.9033  14.9439  15.0114
    15.0498  15.1158  15.1803  15.2743  15.3655  15.4063  15.4674  15.5514
    15.6482  15.6904  15.7661  15.8540  15.9357  15.9965  16.0932  16.1483
    16.1789  16.2177  16.2439  16.3183  16.3438  16.4409  16.5108  16.5725
    16.6456  16.7309  16.7928  16.8125  16.8734  16.9177  16.9638  16.9908
    17.0591  17.1688  17.1987  17.2336  17.3011  17.4082  17.4436  17.5113
    17.5965  17.6396  17.7180  17.7541  17.7923  17.8286  17.9381  18.0067
    18.0679  18.1591  18.1812  18.2081  18.3277  18.4926  18.5152  18.5541
    18.6353  18.6899  18.8299  18.9011  19.0536  19.1868  19.2843  19.3606
    19.4964  19.5327  19.6012  19.6655  19.7360  19.7893  19.9078  19.9524
    20.0227  20.0721  20.1094  20.2264  20.2642  20.2893  20.3107  20.4183
    20.4815  20.5149  20.6064  20.6752  20.7263  20.8901  20.9837  21.0264
    21.1556  21.1980  21.3061  21.3345  21.5164  21.6008  21.6943  21.7092
    21.7767  21.8529  21.9209  21.9474  22.0294  22.1362  22.2019  22.2722
    22.3694  22.4778

          k =-0.5000-0.4606 0.0000 ( 26416 PWs)   bands (ev):

   -80.8573 -80.8500 -80.7229 -80.7058 -80.5511 -80.5305 -80.4610 -80.1290
   -49.7259 -49.7193 -49.6306 -49.6235 -49.6121 -49.5963 -49.5754 -49.5680
   -49.5603 -49.5511 -49.4593 -49.4450 -49.3790 -49.3708 -49.3503 -49.2914
   -49.2704 -49.1761 -49.1642 -49.1633 -49.1398 -49.0625 -48.9705 -48.7573
   -21.7660 -21.7611 -20.6701 -20.6382 -20.6308 -20.6182 -20.3450 -20.2640
   -20.1957 -20.1810 -19.9646 -19.9434 -19.9088 -19.8961 -19.6306 -19.4107
   -19.3615 -19.1032 -18.8839  -9.3614  -9.3508  -8.1675  -8.1318  -8.0058
    -7.9875  -7.8754  -7.6971  -7.6731  -7.5925  -7.5872  -7.5412  -7.3777
    -7.3658  -7.2810  -7.1821  -7.1339  -7.0231  -6.9882  -6.8089  -6.7979
    -6.7179  -6.5744  -6.5413  -6.4940  -6.3671  -6.3217  -6.2097  -6.1940
    -6.0177  -5.9053  -5.8962  -5.7922  -5.7206  -5.5781  -5.3916  -5.3231
    -5.2287  -5.0286  -4.9752  -4.9385  -4.7821  -4.7219  -4.2883  -4.2353
    -4.0457  -3.7434  -3.6885  -3.6243  -3.5381  -3.4982  -3.4427  -3.2067
    -3.0601  -2.8948  -2.8489  -2.5307  -1.2949  -1.2752  -1.1241  -1.0866
    -1.0745  -1.0701  -1.0293  -0.9029  -0.6682  -0.6253  -0.4262  -0.4219
    -0.3097  -0.2279  -0.1944  -0.1923  -0.0996  -0.0758  -0.0703  -0.0524
     0.0372   0.1414   0.1562   0.1671   0.5669   0.6503   0.8164   0.9440
     0.9757   1.0998   1.2169   1.5026   1.5136   1.8759   2.1261   2.1528
     2.3527   2.4408   2.6754   2.7338   4.8077   4.8083   4.9946   5.3257
     5.3261   5.8407   5.8452   5.9540   5.9578   6.1639   6.2001   6.3002
     6.3700   6.5759   6.6611   6.7932   6.9319   7.1293   7.2955   7.4487
     7.6507   7.8563   8.0865   8.2361   8.3033   8.4054   8.7184   8.8167
     8.9010   8.9727   9.2244   9.3978   9.4911   9.5497  10.0277  10.1301
    10.2485  10.3266  10.7099  10.7218  10.9643  11.0055  11.1756  11.3268
    11.4057  11.6121  11.8025  11.8684  12.1509  12.3392  12.3910  12.4814
    12.5635  12.5872  12.6971  12.7757  13.0459  13.0771  13.1546  13.1833
    13.2263  13.2285  13.3805  13.3880  13.4996  13.5965  13.6399  13.6883
    13.7309  13.8062  13.8191  13.8350  13.9597  13.9957  14.0417  14.0728
    14.1093  14.1255  14.2015  14.2244  14.2901  14.3042  14.3510  14.3962
    14.4982  14.6242  14.7384  14.7694  14.8825  14.9330  14.9551  14.9697
    15.0075  15.0450  15.0756  15.1858  15.1929  15.2548  15.3672  15.3864
    15.4287  15.4529  15.5262  15.5737  15.6011  15.6166  15.6658  15.6727
    15.6824  15.7334  15.7785  15.8311  15.8694  15.9510  16.0271  16.0883
    16.1516  16.1819  16.2485  16.2604  16.3873  16.4551  16.5634  16.6464
    16.6762  16.7394  16.7646  16.8087  16.8705  17.0581  17.0922  17.1005
    17.1247  17.2013  17.2739  17.3013  17.3413  17.3926  17.5189  17.6077
    17.6623  17.8620  17.9002  18.0799  18.1392  18.1956  18.2542  18.2912
    18.3610  18.3805  18.4036  18.4751  18.6394  18.6597  18.8087  18.8532
    18.9497  19.0172  19.1341  19.3360  19.4317  19.4444  19.5223  19.7026
    19.8654  20.1457  20.1765  20.1861  20.3172  20.4112  20.4867  20.6727
    20.7031  20.7411  20.8226  20.8684  20.9775  21.0458  21.2298  21.3236
    21.5971  21.7217  21.7996  21.8585  21.8883  21.9181  21.9553  21.9589
    22.1733  22.2418  22.4156  22.4684  22.5148  22.5853  22.7196  22.7742
    22.8284  22.9361

          k =-0.2500 0.2303 0.0000 ( 26396 PWs)   bands (ev):

   -80.8591 -80.8482 -80.7239 -80.7048 -80.5520 -80.5297 -80.4610 -80.1289
   -49.7709 -49.6741 -49.6342 -49.6204 -49.6132 -49.6060 -49.5956 -49.5794
   -49.5641 -49.5056 -49.5036 -49.4007 -49.3866 -49.3734 -49.3466 -49.2955
   -49.2658 -49.1762 -49.1647 -49.1633 -49.1393 -49.0548 -48.9700 -48.7572
   -21.9915 -21.5929 -21.0916 -20.8717 -20.5269 -20.4424 -20.2446 -20.1612
   -20.1387 -20.0332 -19.9980 -19.8514 -19.8283 -19.7994 -19.6705 -19.4860
   -19.3073 -19.1318 -18.8644  -9.5732  -9.2953  -8.7474  -8.5903  -8.4694
    -8.1843  -8.1066  -7.9509  -7.8735  -7.7943  -7.7631  -7.5837  -7.4472
    -7.4032  -7.2185  -7.1619  -7.1104  -7.0244  -6.9962  -6.8627  -6.7522
    -6.6022  -6.5433  -6.4768  -6.4292  -6.1380  -5.9509  -5.9120  -5.8504
    -5.6871  -5.6133  -5.5893  -5.5374  -5.4165  -5.3708  -5.2220  -5.1212
    -5.0141  -4.8762  -4.7689  -4.6670  -4.5299  -4.3722  -4.2541  -4.2250
    -4.1501  -4.0167  -3.8921  -3.7951  -3.6489  -3.5448  -3.3906  -3.2721
    -3.1805  -2.9922  -2.8830  -2.4892  -1.4156  -1.2187  -1.1798  -1.1369
    -1.1003  -1.0132  -0.9742  -0.9323  -0.8292  -0.8006  -0.6122  -0.5842
    -0.5647  -0.4426  -0.3679  -0.2663  -0.2411  -0.1439  -0.0412   0.0227
     0.0911   0.1451   0.2473   0.3788   0.5014   0.7812   0.8937   1.1339
     1.1895   1.2473   1.3345   1.6971   1.7809   1.8911   2.0989   2.2081
     2.2514   2.4534   2.5878   2.7126   3.5574   4.2448   4.3524   4.8343
     5.2978   5.5547   5.5731   6.0511   6.2785   6.5126   6.5323   6.7351
     6.8101   6.9513   7.0298   7.3320   7.4810   7.7282   7.8485   7.9655
     8.2736   8.3972   8.5364   8.6190   8.7387   8.8970   8.9752   9.0779
     9.1583   9.2139   9.4244   9.5461   9.6949   9.8578  10.0134  10.0649
    10.1150  10.2107  10.3170  10.4523  10.6042  10.7222  10.7839  10.8792
    11.0525  11.1255  11.1758  11.2813  11.3957  11.4380  11.5705  11.7000
    11.7231  11.8249  11.8843  12.0537  12.0942  12.1646  12.1945  12.3973
    12.4239  12.4678  12.6305  12.7163  12.8724  12.9211  12.9562  13.0059
    13.0923  13.1393  13.2535  13.2705  13.3961  13.4319  13.4907  13.6219
    13.6921  13.7737  13.8151  13.8630  14.0152  14.0334  14.1014  14.2258
    14.2685  14.3299  14.3750  14.4411  14.5269  14.5880  14.6416  14.7777
    14.8239  14.9056  14.9614  15.0727  15.1324  15.1748  15.2446  15.4039
    15.4992  15.5460  15.5950  15.7147  15.8055  15.8688  15.9578  16.0469
    16.0986  16.2356  16.2963  16.3470  16.4599  16.5146  16.5838  16.6284
    16.6852  16.8171  16.8467  16.9378  17.0647  17.1134  17.1833  17.2148
    17.2648  17.3464  17.4444  17.4844  17.5152  17.6384  17.7234  17.7936
    17.8677  17.9096  17.9652  18.1015  18.1572  18.2320  18.3168  18.3549
    18.3962  18.4923  18.5803  18.6364  18.6949  18.7684  18.8445  18.9375
    19.0264  19.0719  19.1819  19.2325  19.2767  19.3491  19.4444  19.4884
    19.5518  19.6379  19.7643  19.8527  19.8744  19.9751  20.0594  20.1310
    20.1714  20.2920  20.3277  20.3576  20.3738  20.5464  20.6261  20.6815
    20.7606  20.8641  20.9908  21.0051  21.0810  21.1160  21.2011  21.2713
    21.4066  21.4601  21.4983  21.5598  21.6537  21.7293  21.7871  21.8229
    21.8827  21.9979  22.0664  22.1405  22.2565  22.3405  22.4260  22.5207
    22.5915  22.6230

     the Fermi energy is    -1.8389 ev

!    total energy              =   -2322.24876411 Ry
     Harris-Foulkes estimate   =   -2322.24876413 Ry
     estimated scf accuracy    <       0.00000003 Ry

     The total energy is the sum of the following terms:

     one-electron contribution =  -26848.92083369 Ry
     hartree contribution      =   13442.43900312 Ry
     xc contribution           =    -348.84240358 Ry
     ewald contribution        =   11433.07537807 Ry
     smearing contrib. (-TS)   =       0.00009197 Ry

     total magnetization       =    23.00 Bohr mag/cell
     absolute magnetization    =    24.49 Bohr mag/cell

     convergence has been achieved in  21 iterations

     Forces acting on atoms (Ry/au):


     negative rho (up, down):  0.231E-02 0.128E-02
     atom    1 type  1   force =    -0.00421049   -0.01601057   -0.00005575
     atom    2 type  1   force =     0.00049651    0.01312619    0.00228785
     atom    3 type  2   force =     0.00632341   -0.00429466    0.00737435
     atom    4 type  2   force =     0.00402286    0.01056189    0.00072675
     atom    5 type  1   force =     0.00348912    0.00498717   -0.00029025
     atom    6 type  1   force =    -0.00279893   -0.00746922   -0.00093961
     atom    7 type  1   force =     0.00075031    0.00112148   -0.00030933
     atom    8 type  1   force =     0.00001566   -0.00196031   -0.00030646
     atom    9 type  2   force =     0.00262372    0.00009282    0.00589762
     atom   10 type  2   force =    -0.00949451   -0.00078021   -0.00429724
     atom   11 type  1   force =    -0.02476455   -0.05164872   -0.02750194
     atom   12 type  1   force =    -0.02474162    0.05183799   -0.02734915
     atom   13 type  1   force =     0.00091755   -0.00012424   -0.00134999
     atom   14 type  1   force =    -0.00433460   -0.01588134    0.00048279
     atom   15 type  1   force =     0.00014763    0.01340825   -0.00017760
     atom   16 type  2   force =    -0.00764657   -0.00431373    0.00747088
     atom   17 type  2   force =     0.00433049    0.01059654    0.00076004
     atom   18 type  1   force =     0.00360072    0.00503455   -0.00028025
     atom   19 type  1   force =    -0.00276002   -0.00759103   -0.00092446
     atom   20 type  1   force =    -0.00018525    0.00075526   -0.02393543
     atom   21 type  1   force =    -0.00044369   -0.00192172   -0.00074976
     atom   22 type  2   force =    -0.00313088    0.00025759    0.00842220
     atom   23 type  2   force =     0.00346879   -0.00069001    0.12718896
     atom   24 type  1   force =     0.02811419   -0.04690399   -0.03620777
     atom   25 type  1   force =     0.02810172    0.04706818   -0.03606372
     atom   26 type  1   force =    -0.00066949   -0.00012035   -0.00134102
     atom   27 type  3   force =     0.00010958    0.00037874    0.00064543
     atom   28 type  3   force =     0.00006490    0.00028617    0.00028379
     atom   29 type  3   force =    -0.00054829    0.00009117   -0.00049021
     atom   30 type  3   force =    -0.00027640    0.00009335   -0.00048734
     atom   31 type  1   force =    -0.00033909   -0.00000793    0.00099274
     atom   32 type  3   force =    -0.00023279    0.00002069    0.00052387

     Total force =     0.001196     Total SCF correction =     0.000049

     bfgs converged in  17 scf cycles and  16 bfgs steps
     (criteria: energy < 0.10E-03, force < 0.10E-02)

     End of BFGS Geometry Optimization

     Final energy   =   -2322.2487641116 Ry
Begin final coordinates

ATOMIC_POSITIONS (crystal)
O0       0.000000000   0.000000000   0.378600000    0   0   0
O0       0.000000000   0.500000000   0.398310000    0   0   0
Mn1      0.250000000   0.500000000   0.449240000    0   0   0
Mn1      0.000000000   0.000000000   0.449770000    0   0   0
O0       0.250000000   0.800000000   0.449250000    0   0   0
O0       0.250000000   0.200000000   0.450870000    0   0   0
O0       0.000000000   0.500000000   0.496700000    0   0   0
O0       0.000000000   0.000000000   0.524610000    0   0   0
Mn1      0.250000000   0.000000000   0.574210000    0   0   0
Mn1      0.000000000   0.500000000   0.568510000    0   0   0
O0       0.250000000   0.700000000   0.579470000    0   0   0
O0       0.250000000   0.300000000   0.579520000    0   0   0
O0       0.000000000   0.000000000   0.617860000    0   0   0
O0       0.500000000   0.000000000   0.378600000    0   0   0
O0       0.500000000   0.500000000   0.398310000    0   0   0
Mn1      0.750000000   0.500000000   0.449240000    0   0   0
Mn1      0.500000000   0.000000000   0.449770000    0   0   0
O0       0.750000000   0.800000000   0.449250000    0   0   0
O0       0.750000000   0.200000000   0.450870000    0   0   0
O0       0.500000000   0.500000000   0.496700000    0   0   0
O0       0.500000000   0.000000000   0.524610000    0   0   0
Mn1      0.750000000   0.000000000   0.574210000    0   0   0
Mn1      0.500000000   0.500000000   0.568510000    0   0   0
O0       0.750000000   0.700000000   0.579470000    0   0   0
O0       0.750000000   0.300000000   0.579520000    0   0   0
O0       0.500000000   0.000000000   0.617860000    0   0   0
H2      -0.000090000   0.646490000   0.381860000    0   0   0
H2       0.499910000   0.646490000   0.381860000    0   0   0
H2       0.161690000   0.035810000   0.366830000    0   0   0
H2       0.661690000   0.035810000   0.366830000    0   0   0
O0       0.514589144   0.500316163   0.641255540
H2       0.354147938   0.500129347   0.655410758
End final coordinates



     init_run     :     84.77s CPU    114.67s WALL (       1 calls)
     electrons    : 112781.62s CPU 149201.66s WALL (      17 calls)
     update_pot   :     90.17s CPU    107.07s WALL (      16 calls)
     forces       :    893.99s CPU    955.77s WALL (      17 calls)

     Called by init_run:
     wfcinit      :     68.43s CPU     96.85s WALL (       1 calls)
     potinit      :      2.69s CPU      3.49s WALL (       1 calls)

     Called by electrons:
     c_bands      :  88371.20s CPU 117087.02s WALL (     440 calls)
     sum_band     :  17242.16s CPU  23986.32s WALL (     440 calls)
     v_of_rho     :    451.43s CPU    710.66s WALL (     452 calls)
     newd         :   6724.60s CPU   7096.91s WALL (     452 calls)
     mix_rho      :     84.40s CPU    142.89s WALL (     440 calls)

     Called by c_bands:
     init_us_2    :    100.37s CPU    101.20s WALL (   17960 calls)
     cegterg      :  87879.07s CPU 116592.17s WALL (    8800 calls)

     Called by *egterg:
     h_psi        :  45510.36s CPU  70580.30s WALL (   23573 calls)
     s_psi        :   3318.79s CPU   3321.27s WALL (   23573 calls)
     g_psi        :     70.97s CPU     71.09s WALL (   14753 calls)
     cdiaghg      :  21269.85s CPU  21963.94s WALL (   23133 calls)

     Called by h_psi:
     add_vuspsi   :   3341.34s CPU   3359.12s WALL (   23573 calls)

     General routines
     calbec       :   5438.21s CPU   6033.58s WALL (   32713 calls)
     fft          :    910.09s CPU   1664.04s WALL (   14205 calls)
     ffts         :     12.26s CPU     23.50s WALL (    1784 calls)
     fftw         :  42287.05s CPU  72957.60s WALL (15689232 calls)
     interpolate  :     95.10s CPU    170.39s WALL (    1784 calls)

     Parallel routines
     fft_scatter  :  31541.21s CPU  62616.29s WALL (15705221 calls)

     PWSCF        :     1d    7h41m CPU        1d   17h50m WALL


   This run was terminated on:  11:44:41  22Mar2014            

=------------------------------------------------------------------------------=
   JOB DONE.
=------------------------------------------------------------------------------=
---------------------------------------
Running PBS batch system epilogue script
Job id: 306648.audhumbla.fysik.dtu.dk
Username: zhonxu
Groupname: campgst
Jobname: MnO2/Eads-2-layers/OH
Sessionid: 27679
Resources limits: neednodes=2:ppn=8:xeon8,nodes=2:ppn=8:xeon8,walltime=48:00:00
Resources used: cput=669:00:55,mem=8794168kb,vmem=12194744kb,walltime=41:50:27
Queuename: verylong
Accounting:
This job has allocated the following 16 nodes:
a080 a080 a080 a080 a080 a080 a080 a080 a010 a010 a010 a010 a010 a010 a010 a010
Finished epilogue job 306648.audhumbla.fysik.dtu.dk for zhonxu
