
     Program PWSCF v.5.0.2 (svn rev. 9656) starts on 27Feb2014 at 18:21:37 

     This program is part of the open-source Quantum ESPRESSO suite
     for quantum simulation of materials; please cite
         "P. Giannozzi et al., J. Phys.:Condens. Matter 21 395502 (2009);
          URL http://www.quantum-espresso.org", 
     in publications or presentations arising from this work. More details at
     http://www.quantum-espresso.org/quote.php

     Parallel version (MPI), running on    16 processors
     R & G space division:  proc/nbgrp/npool/nimage =      16

     Current dimensions of program PWSCF are:
     Max number of different atomic species (ntypx) = 10
     Max number of k-points (npk) =  40000
     Max angular momentum in pseudopotentials (lmaxx) =  3
     Reading input from bare.in
Warning: card &CELL ignored
Warning: card / ignored

     Subspace diagonalization in iterative solution of the eigenvalue problem:
     a serial algorithm will be used

     Found symmetry operation: I + ( -0.5000  0.0000  0.0000)
     This is a supercell, fractional translations are disabled

     Parallelization info
     --------------------
     sticks:   dense  smooth     PW     G-vecs:    dense   smooth      PW
     Min         346     110     31                82658    14945    2221
     Max         347     111     32                82677    14980    2230
     Sum        5547    1771    497              1322643   239441   35575



     bravais-lattice index     =            0
     lattice parameter (alat)  =      11.2250  a.u.
     unit-cell volume          =    7005.5484 (a.u.)^3
     number of atoms/cell      =           30
     number of atomic types    =            3
     number of electrons       =       208.00
     number of Kohn-Sham states=          300
     kinetic-energy cutoff     =      40.0000  Ry
     charge density cutoff     =     500.0000  Ry
     convergence threshold     =      1.0E-06
     mixing beta               =       0.3000
     number of iterations used =            8  plain     mixing
     Exchange-correlation      = SLA  PW   PBE  PBE ( 1 4 3 4 0)
     EXX-fraction              =        0.00
     nstep                     =           50


     celldm(1)=  11.224973  celldm(2)=   0.000000  celldm(3)=   0.000000
     celldm(4)=   0.000000  celldm(5)=   0.000000  celldm(6)=   0.000000

     crystal axes: (cart. coord. in units of alat)
               a(1) = (   1.000000   0.000000   0.000000 )  
               a(2) = (   0.000000   1.107086   0.000000 )  
               a(3) = (   0.000000   0.000000   4.474090 )  

     reciprocal axes: (cart. coord. in units 2 pi/alat)
               b(1) = (  1.000000  0.000000  0.000000 )  
               b(2) = (  0.000000  0.903272  0.000000 )  
               b(3) = (  0.000000  0.000000  0.223509 )  


     PseudoPot. # 1 for O  read from file:
     /home/camp/zhonxu/pseudo/o_pbe_v1.01.uspp.F.UPF
     MD5 check sum: 2bcb18d16ea4b960afae9ec6d52f22d2
     Pseudo is Ultrasoft + core correction, Zval =  6.0
     Generated by new atomic code, or converted to UPF format
     Using radial grid of  737 points,  5 beta functions with: 
                l(1) =   0
                l(2) =   0
                l(3) =   1
                l(4) =   1
                l(5) =   2
     Q(r) pseudized with  8 coefficients,  rinner =    0.900   0.900   0.900
                                                       0.900   0.900

     PseudoPot. # 2 for Ti read from file:
     /home/camp/zhonxu/pseudo/ti_pbe_v1.uspp.F.UPF
     MD5 check sum: bcc8f6961b3b91f0cac3ca967d22d0fb
     Pseudo is Ultrasoft + core correction, Zval = 12.0
     Generated by new atomic code, or converted to UPF format
     Using radial grid of  851 points,  6 beta functions with: 
                l(1) =   0
                l(2) =   0
                l(3) =   1
                l(4) =   1
                l(5) =   2
                l(6) =   2
     Q(r) pseudized with  6 coefficients,  rinner =    1.000   1.000   1.000
                                                       1.000   1.000

     PseudoPot. # 3 for H  read from file:
     /home/camp/zhonxu/pseudo/h_pbe_v1.uspp.F.UPF
     MD5 check sum: 3408e3ff4ec8b0a4e358431e7e038a48
     Pseudo is Ultrasoft, Zval =  1.0
     Generated by new atomic code, or converted to UPF format
     Using radial grid of  615 points,  2 beta functions with: 
                l(1) =   0
                l(2) =   0
     Q(r) pseudized with  8 coefficients,  rinner =    0.700

     atomic species   valence    mass     pseudopotential
        O0             6.00    15.99940     O ( 1.00)
        Ti1           12.00    47.88000     Ti( 1.00)
        H2             1.00     1.00794     H ( 1.00)

     No symmetry found



   Cartesian axes

     site n.     atom                  positions (alat units)
         1           O0  tau(   1) = (   0.0000000   0.0000000   1.6989461  )
         2           O0  tau(   2) = (   0.0000000   0.5535432   1.7901728  )
         3           Ti1 tau(   3) = (   0.2500000   0.5535432   2.0162933  )
         4           Ti1 tau(   4) = (   0.0000000   0.0000000   2.0248388  )
         5           O0  tau(   5) = (   0.2500000   0.8967400   2.0178145  )
         6           O0  tau(   6) = (   0.2500000   0.2103464   2.0226912  )
         7           O0  tau(   7) = (   0.0000000   0.5535432   2.2326603  )
         8           O0  tau(   8) = (   0.0000000   0.0000000   2.3559662  )
         9           Ti1 tau(   9) = (   0.2500000   0.0000000   2.5995804  )
        10           Ti1 tau(  10) = (   0.0000000   0.5535432   2.5483968  )
        11           O0  tau(  11) = (   0.2500000   0.7638896   2.5964932  )
        12           O0  tau(  12) = (   0.2500000   0.3431968   2.5965380  )
        13           O0  tau(  13) = (   0.0000000   0.0000000   2.7842708  )
        14           O0  tau(  14) = (   0.5000000   0.0000000   1.6989461  )
        15           O0  tau(  15) = (   0.5000000   0.5535432   1.7901728  )
        16           Ti1 tau(  16) = (   0.7500000   0.5535432   2.0162933  )
        17           Ti1 tau(  17) = (   0.5000000   0.0000000   2.0248388  )
        18           O0  tau(  18) = (   0.7500000   0.8967400   2.0178145  )
        19           O0  tau(  19) = (   0.7500000   0.2103464   2.0226912  )
        20           O0  tau(  20) = (   0.5000000   0.5535432   2.2326603  )
        21           O0  tau(  21) = (   0.5000000   0.0000000   2.3559662  )
        22           Ti1 tau(  22) = (   0.7500000   0.0000000   2.5995804  )
        23           Ti1 tau(  23) = (   0.5000000   0.5535432   2.5483968  )
        24           O0  tau(  24) = (   0.7500000   0.7638896   2.5964932  )
        25           O0  tau(  25) = (   0.7500000   0.3431968   2.5965380  )
        26           O0  tau(  26) = (   0.5000000   0.0000000   2.7842708  )
        27           H2  tau(  27) = (  -0.0005400   0.6991915   1.7063283  )
        28           H2  tau(  28) = (   0.4994600   0.6991915   1.7063283  )
        29           H2  tau(  29) = (   0.1501800   0.0252084   1.6321479  )
        30           H2  tau(  30) = (   0.6501800   0.0252084   1.6321479  )

     number of k points=    10  Methfessel-Paxton smearing, width (Ry)=  0.0100
                       cart. coord. in units 2pi/alat
        k(    1) = (   0.0000000   0.0000000   0.0000000), wk =   0.1250000
        k(    2) = (   0.0000000   0.2258180   0.0000000), wk =   0.2500000
        k(    3) = (   0.0000000  -0.4516359   0.0000000), wk =   0.1250000
        k(    4) = (   0.2500000   0.0000000   0.0000000), wk =   0.2500000
        k(    5) = (   0.2500000   0.2258180   0.0000000), wk =   0.2500000
        k(    6) = (   0.2500000  -0.4516359   0.0000000), wk =   0.2500000
        k(    7) = (  -0.5000000   0.0000000   0.0000000), wk =   0.1250000
        k(    8) = (  -0.5000000   0.2258180   0.0000000), wk =   0.2500000
        k(    9) = (  -0.5000000  -0.4516359   0.0000000), wk =   0.1250000
        k(   10) = (  -0.2500000   0.2258180   0.0000000), wk =   0.2500000

     Dense  grid:  1322643 G-vectors     FFT dimensions: (  80,  90, 360)

     Smooth grid:   239441 G-vectors     FFT dimensions: (  45,  54, 216)

     Largest allocated arrays     est. size (Mb)     dimensions
        Kohn-Sham Wavefunctions         8.65 Mb     (   1890,  300)
        NL pseudopotentials            11.13 Mb     (   1890,  386)
        Each V/rho on FFT grid          2.53 Mb     ( 165600)
        Each G-vector array             0.63 Mb     (  82677)
        G-vector shells                 0.31 Mb     (  40971)
     Largest temporary arrays     est. size (Mb)     dimensions
        Auxiliary wavefunctions        34.61 Mb     (   1890, 1200)
        Each subspace H/S matrix       21.97 Mb     (1200,1200)
        Each <psi_i|beta_j> matrix      1.77 Mb     (    386,  300)
        Arrays for rho mixing          20.21 Mb     ( 165600,   8)

     Check: negative/imaginary core charge=   -0.000005    0.000000

     Initial potential from superposition of free atoms
     Check: negative starting charge=   -0.102816

     starting charge  199.99958, renormalised to  208.00000

     negative rho (up, down):  0.107E+00 0.000E+00
     Starting wfc are  156 randomized atomic wfcs

     total cpu time spent up to now is       63.5 secs

     per-process dynamical memory:   154.1 Mb

     Self-consistent Calculation

     iteration #  1     ecut=    40.00 Ry     beta=0.30
     Davidson diagonalization with overlap
     ethr =  1.00E-02,  avg # of iterations =  6.0

     negative rho (up, down):  0.104E+00 0.000E+00

     total cpu time spent up to now is      474.2 secs

     total energy              =   -1515.81830461 Ry
     Harris-Foulkes estimate   =   -1536.80516567 Ry
     estimated scf accuracy    <      42.40071833 Ry

     iteration #  2     ecut=    40.00 Ry     beta=0.30
     Davidson diagonalization with overlap
     ethr =  1.00E-02,  avg # of iterations =  4.6

     negative rho (up, down):  0.101E+00 0.000E+00

     total cpu time spent up to now is      789.4 secs

     total energy              =   -1484.18345960 Ry
     Harris-Foulkes estimate   =   -1596.24849154 Ry
     estimated scf accuracy    <    1361.32748423 Ry

     iteration #  3     ecut=    40.00 Ry     beta=0.30
     Davidson diagonalization with overlap
     ethr =  1.00E-02,  avg # of iterations =  5.0

     negative rho (up, down):  0.105E+00 0.000E+00

     total cpu time spent up to now is     1095.9 secs

     total energy              =   -1535.83201249 Ry
     Harris-Foulkes estimate   =   -1537.59617111 Ry
     estimated scf accuracy    <       8.49105141 Ry

     iteration #  4     ecut=    40.00 Ry     beta=0.30
     Davidson diagonalization with overlap
     ethr =  4.08E-03,  avg # of iterations =  1.1

     negative rho (up, down):  0.106E+00 0.000E+00

     total cpu time spent up to now is     1239.9 secs

     total energy              =   -1534.90126272 Ry
     Harris-Foulkes estimate   =   -1536.04266736 Ry
     estimated scf accuracy    <       3.74420496 Ry

     iteration #  5     ecut=    40.00 Ry     beta=0.30
     Davidson diagonalization with overlap
     ethr =  1.80E-03,  avg # of iterations =  1.8

     negative rho (up, down):  0.105E+00 0.000E+00

     total cpu time spent up to now is     1392.9 secs

     total energy              =   -1535.02706831 Ry
     Harris-Foulkes estimate   =   -1535.15811274 Ry
     estimated scf accuracy    <       0.71277304 Ry

     iteration #  6     ecut=    40.00 Ry     beta=0.30
     Davidson diagonalization with overlap
     ethr =  3.43E-04,  avg # of iterations =  5.1

     negative rho (up, down):  0.103E+00 0.000E+00

     total cpu time spent up to now is     1580.8 secs

     total energy              =   -1534.98650859 Ry
     Harris-Foulkes estimate   =   -1535.05418214 Ry
     estimated scf accuracy    <       0.30497778 Ry

     iteration #  7     ecut=    40.00 Ry     beta=0.30
     Davidson diagonalization with overlap
     ethr =  1.47E-04,  avg # of iterations =  4.8

     negative rho (up, down):  0.102E+00 0.000E+00

     total cpu time spent up to now is     1769.6 secs

     total energy              =   -1534.98829803 Ry
     Harris-Foulkes estimate   =   -1535.00335238 Ry
     estimated scf accuracy    <       0.10923345 Ry

     iteration #  8     ecut=    40.00 Ry     beta=0.30
     Davidson diagonalization with overlap
     ethr =  5.25E-05,  avg # of iterations =  5.1

     negative rho (up, down):  0.102E+00 0.000E+00

     total cpu time spent up to now is     1965.7 secs

     total energy              =   -1534.98669819 Ry
     Harris-Foulkes estimate   =   -1534.99143402 Ry
     estimated scf accuracy    <       0.04785178 Ry

     iteration #  9     ecut=    40.00 Ry     beta=0.30
     Davidson diagonalization with overlap
     ethr =  2.30E-05,  avg # of iterations =  5.0

     negative rho (up, down):  0.102E+00 0.000E+00

     total cpu time spent up to now is     2153.2 secs

     total energy              =   -1534.98317562 Ry
     Harris-Foulkes estimate   =   -1534.98804165 Ry
     estimated scf accuracy    <       0.02802553 Ry

     iteration # 10     ecut=    40.00 Ry     beta=0.30
     Davidson diagonalization with overlap
     ethr =  1.35E-05,  avg # of iterations =  5.2

     negative rho (up, down):  0.102E+00 0.000E+00

     total cpu time spent up to now is     2350.9 secs

     total energy              =   -1534.98353919 Ry
     Harris-Foulkes estimate   =   -1534.98438686 Ry
     estimated scf accuracy    <       0.00941021 Ry

     iteration # 11     ecut=    40.00 Ry     beta=0.30
     Davidson diagonalization with overlap
     ethr =  4.52E-06,  avg # of iterations =  4.0

     negative rho (up, down):  0.102E+00 0.000E+00

     total cpu time spent up to now is     2529.8 secs

     total energy              =   -1534.98192125 Ry
     Harris-Foulkes estimate   =   -1534.98365537 Ry
     estimated scf accuracy    <       0.00549774 Ry

     iteration # 12     ecut=    40.00 Ry     beta=0.30
     Davidson diagonalization with overlap
     ethr =  2.64E-06,  avg # of iterations =  5.5

     negative rho (up, down):  0.102E+00 0.000E+00

     total cpu time spent up to now is     2762.0 secs

     total energy              =   -1534.98268796 Ry
     Harris-Foulkes estimate   =   -1534.98271369 Ry
     estimated scf accuracy    <       0.00022032 Ry

     iteration # 13     ecut=    40.00 Ry     beta=0.30
     Davidson diagonalization with overlap
     ethr =  1.06E-07,  avg # of iterations =  1.0

     negative rho (up, down):  0.102E+00 0.000E+00

     total cpu time spent up to now is     2912.4 secs

     total energy              =   -1534.98270997 Ry
     Harris-Foulkes estimate   =   -1534.98271066 Ry
     estimated scf accuracy    <       0.00003687 Ry

     iteration # 14     ecut=    40.00 Ry     beta=0.30
     Davidson diagonalization with overlap
     ethr =  1.77E-08,  avg # of iterations =  1.0

     negative rho (up, down):  0.102E+00 0.000E+00

     total cpu time spent up to now is     3062.7 secs

     total energy              =   -1534.98271345 Ry
     Harris-Foulkes estimate   =   -1534.98271348 Ry
     estimated scf accuracy    <       0.00001015 Ry

     iteration # 15     ecut=    40.00 Ry     beta=0.30
     Davidson diagonalization with overlap
     ethr =  4.88E-09,  avg # of iterations =  1.0

     negative rho (up, down):  0.102E+00 0.000E+00

     total cpu time spent up to now is     3212.8 secs

     total energy              =   -1534.98271498 Ry
     Harris-Foulkes estimate   =   -1534.98271469 Ry
     estimated scf accuracy    <       0.00000198 Ry

     iteration # 16     ecut=    40.00 Ry     beta=0.30
     Davidson diagonalization with overlap
     ethr =  9.51E-10,  avg # of iterations =  1.0

     negative rho (up, down):  0.102E+00 0.000E+00

     total cpu time spent up to now is     3361.6 secs

     End of self-consistent calculation

          k = 0.0000 0.0000 0.0000 ( 29975 PWs)   bands (ev):

   -60.6735 -60.6356 -60.2389 -60.2006 -59.1155 -59.0744 -58.7500 -58.7090
   -37.2598 -36.9498 -36.8460 -36.8423 -36.7510 -36.7156 -36.6984 -36.5914
   -36.5626 -36.4469 -36.3476 -36.2747 -35.7778 -35.4691 -35.3612 -35.3151
   -35.2613 -35.2273 -35.1855 -35.0933 -35.0631 -35.0008 -34.9020 -34.7805
   -22.2770 -21.9904 -20.9825 -20.7472 -20.5022 -20.3898 -19.7974 -19.6733
   -19.6607 -19.6303 -19.4257 -19.3583 -19.3091 -19.1413 -18.9559 -18.4679
   -18.0497 -18.0481 -10.0239  -9.5678  -8.3725  -8.3223  -8.3035  -8.1273
    -8.0542  -7.6957  -7.5120  -7.2995  -7.2859  -7.1126  -7.0785  -6.8926
    -6.7978  -6.7849  -6.7708  -6.7461  -6.6617  -6.6333  -6.2566  -6.0944
    -5.9861  -5.7163  -5.6933  -5.5553  -5.5296  -5.5045  -5.4944  -5.4571
    -5.3509  -5.2085  -5.1531  -4.9088  -4.8809  -4.7819  -4.7354  -4.7231
    -4.6003  -4.3723  -4.1803  -4.0878  -3.8815  -3.7864  -3.7446  -3.4807
    -3.4480  -3.3490  -3.3284  -3.0707  -3.0494  -3.0143  -2.8382  -2.7373
    -1.7042  -1.1384  -1.0830  -1.0563  -0.9029  -0.6544  -0.6149  -0.5610
    -0.5013  -0.1620  -0.1445  -0.0329   0.2355   0.4166   0.4997   0.5060
     0.6449   0.7464   0.7508   0.8980   1.0242   1.2172   1.3317   1.3464
     1.7926   1.7990   1.8738   1.9354   2.0085   2.1782   2.5892   2.6351
     3.0854   3.1702   3.2155   3.3124   3.4674   3.5693   3.6312   3.9047
     4.1323   4.2800   4.5312   4.5562   4.8656   5.2499   5.5901   5.6867
     5.7748   6.4188   6.5765   6.5862   6.7915   6.9200   7.0874   7.1169
     7.1293   7.3195   7.4514   7.5692   7.6755   7.7101   7.7268   7.8855
     7.9290   8.0456   8.1389   8.2386   8.3140   8.4757   8.5138   8.5924
     8.6119   8.7761   8.8620   8.8840   9.1085   9.1312   9.2099   9.3272
     9.3498   9.6124   9.7279   9.8333   9.8957   9.9014  10.1318  10.5531
    10.6239  10.6643  10.6773  10.7125  10.7614  10.8194  10.8761  10.9397
    11.0365  11.0984  11.1542  11.2698  11.3189  11.3352  11.3743  11.3836
    11.4072  11.4973  11.5884  11.6346  11.7681  11.7919  11.8294  11.9383
    12.0355  12.1506  12.1997  12.2334  12.2522  12.3013  12.3165  12.3917
    12.5578  12.7129  12.7621  12.9111  12.9262  12.9820  13.0433  13.1601
    13.3688  13.4588  13.4760  13.4944  13.5982  13.7236  13.7740  13.9650
    13.9974  14.0540  14.0879  14.2227  14.3055  14.3856  14.4536  14.5136
    14.6632  14.7775  14.7932  14.9094  15.0330  15.0696  15.1467  15.1791
    15.2148  15.4040  15.4349  15.4790  15.4907  15.7333  15.7589  16.1290
    16.1310  16.2840  16.3435  16.3856  16.5019  16.5162  16.5703  16.6087
    16.6110  16.8683  16.9061  16.9433  17.0784  17.3127  17.3473  17.3748
    17.4434  17.5646  17.5683  17.5875  17.6422  17.7246  17.7721  17.9898
    18.0209  18.0287  18.0596  18.1153  18.1815  18.1925  18.3006  18.3420
    18.5070  18.5077  18.5633  18.6316

          k = 0.0000 0.2258 0.0000 ( 29933 PWs)   bands (ev):

   -60.6735 -60.6356 -60.2389 -60.2006 -59.1155 -59.0744 -58.7500 -58.7090
   -37.2599 -36.9498 -36.8460 -36.8423 -36.7493 -36.7169 -36.6991 -36.5915
   -36.5625 -36.4454 -36.3478 -36.2747 -35.7760 -35.4714 -35.3610 -35.3151
   -35.2611 -35.2273 -35.1855 -35.0954 -35.0620 -35.0008 -34.9020 -34.7805
   -22.2719 -21.9900 -20.9614 -20.7467 -20.4186 -20.3505 -19.9219 -19.7879
   -19.6226 -19.5427 -19.5170 -19.3542 -19.2522 -19.2323 -18.9085 -18.4683
   -18.0495 -18.0475 -10.0230  -9.5775  -8.2992  -8.2236  -8.1183  -8.0756
    -7.9284  -7.6993  -7.5192  -7.5120  -7.4007  -7.1194  -7.0369  -6.7859
    -6.7831  -6.7749  -6.7146  -6.5965  -6.3492  -6.2609  -6.2565  -6.2012
    -5.9857  -5.9290  -5.8609  -5.6654  -5.5878  -5.5492  -5.4774  -5.4235
    -5.2943  -5.2619  -5.1674  -5.0709  -5.0503  -4.9205  -4.7123  -4.6657
    -4.4791  -4.4657  -4.3333  -4.3272  -3.9258  -3.8987  -3.6950  -3.5311
    -3.4690  -3.4068  -3.3882  -3.3653  -3.0609  -2.9641  -2.8440  -2.7192
    -1.6886  -1.2061  -1.1363  -0.9270  -0.8148  -0.6143  -0.5610  -0.5469
    -0.3554  -0.1965  -0.1520  -0.1359   0.2327   0.5214   0.6113   0.6575
     0.7516   0.7542   0.7857   0.9002   1.1377   1.1654   1.2919   1.3570
     1.6491   1.7571   1.8033   2.0231   2.0689   2.1802   2.2045   2.8399
     3.0452   3.1978   3.3236   3.5726   3.7956   3.8068   3.8599   3.9875
     4.0186   4.3378   4.6081   4.6888   4.8673   4.9391   5.4115   5.5612
     5.6816   5.7820   5.8163   6.1471   6.5249   6.6926   6.8535   7.1031
     7.2503   7.4167   7.4831   7.5163   7.5589   7.7645   7.8938   8.0738
     8.2231   8.2368   8.4448   8.4562   8.6508   8.6712   8.7900   8.8329
     8.9448   8.9552   9.1018   9.1347   9.2151   9.3507   9.3641   9.4019
     9.6001   9.6427   9.6824   9.7246   9.8350   9.8792   9.9272   9.9846
    10.1564  10.1821  10.2875  10.4352  10.4819  10.6171  10.6409  10.8161
    10.8303  10.9344  11.0381  11.0647  11.1479  11.1753  11.1874  11.5089
    11.7048  11.7063  11.7895  11.7901  11.8643  12.0136  12.1889  12.2121
    12.2477  12.3912  12.4361  12.5760  12.6440  12.7337  12.7509  12.8935
    12.9291  13.0801  13.0807  13.2366  13.2686  13.3972  13.4116  13.4766
    13.4951  13.6088  13.6323  13.7028  13.7530  13.8819  13.9145  13.9307
    13.9346  14.0968  14.1375  14.1570  14.2685  14.3115  14.3971  14.5382
    14.5770  14.6315  14.6324  14.7717  14.8847  14.9489  15.0720  15.1158
    15.1176  15.2007  15.2796  15.3728  15.3924  15.5038  15.6002  15.6133
    15.8012  15.8531  16.0260  16.1463  16.1875  16.2092  16.2855  16.4746
    16.5585  16.6131  16.7284  16.7794  16.8154  16.9005  16.9086  17.0124
    17.0813  17.1513  17.2521  17.4933  17.6515  17.6809  17.7416  17.8443
    17.9862  18.0294  18.0865  18.0981  18.1918  18.2023  18.3279  18.3499
    18.4511  18.6109  18.6445  18.6786

          k = 0.0000-0.4516 0.0000 ( 29906 PWs)   bands (ev):

   -60.6735 -60.6356 -60.2389 -60.2006 -59.1155 -59.0744 -58.7501 -58.7090
   -37.2600 -36.9498 -36.8460 -36.8423 -36.7476 -36.7182 -36.6998 -36.5915
   -36.5625 -36.4439 -36.3480 -36.2747 -35.7743 -35.4738 -35.3609 -35.3152
   -35.2609 -35.2273 -35.1855 -35.0976 -35.0608 -35.0008 -34.9020 -34.7805
   -22.2669 -21.9896 -20.9416 -20.7461 -20.3068 -20.2984 -19.9916 -19.8667
   -19.6923 -19.6054 -19.4709 -19.3443 -19.3390 -19.1782 -18.8776 -18.4688
   -18.0493 -18.0470 -10.0208  -9.5874  -8.2949  -8.1545  -8.1085  -7.7608
    -7.7071  -7.6945  -7.6345  -7.5796  -7.5122  -6.9826  -6.8107  -6.7007
    -6.6899  -6.6813  -6.6087  -6.5580  -6.4241  -6.3293  -6.1623  -6.0899
    -5.9950  -5.8684  -5.8658  -5.7344  -5.6603  -5.6395  -5.5519  -5.5438
    -5.5049  -5.3739  -5.3003  -5.2526  -5.1349  -5.0662  -4.8228  -4.7289
    -4.5353  -4.4817  -4.2919  -4.0880  -3.9921  -3.9459  -3.6559  -3.6360
    -3.6061  -3.5130  -3.4498  -3.4497  -3.0729  -2.8946  -2.8448  -2.6941
    -1.6810  -1.3497  -1.3375  -0.7248  -0.6296  -0.6146  -0.5796  -0.5713
    -0.5162  -0.1334  -0.1277   0.1555   0.2487   0.5275   0.5866   0.7498
     0.7563   0.8235   0.9218   0.9527   1.1889   1.1994   1.2121   1.4014
     1.5407   1.7195   1.7673   1.9601   2.0363   2.1846   2.1944   2.8421
     3.1074   3.2230   3.4661   3.8828   3.8997   3.9710   4.0152   4.2133
     4.3083   4.4290   4.5389   4.6603   4.7105   4.8697   4.8889   5.1614
     5.3545   5.7018   5.8862   6.0507   6.1808   6.5307   6.7535   6.8924
     7.1068   7.2912   7.4007   7.5161   7.6095   7.7758   8.0575   8.3457
     8.3532   8.5151   8.6209   8.6314   8.7086   8.7369   8.8470   8.8748
     8.9046   8.9467   9.0531   9.0736   9.1961   9.2657   9.2916   9.3604
     9.4244   9.5265   9.6269   9.8553   9.8715   9.8967   9.9764  10.2869
    10.3205  10.3993  10.5161  10.6460  10.6668  10.6936  10.9312  10.9704
    11.1008  11.1809  11.2171  11.2545  11.2619  11.4071  11.4096  11.4266
    11.5264  11.6659  11.7432  11.7703  11.8967  11.9015  12.0304  12.0924
    12.1028  12.1654  12.3266  12.6577  12.7054  12.7388  12.7914  12.8425
    12.9155  12.9392  12.9736  13.1320  13.1466  13.2038  13.2688  13.4139
    13.5706  13.6066  13.6770  13.7196  13.7704  13.8768  13.9212  14.0731
    14.1361  14.1909  14.2248  14.5232  14.6484  14.6899  14.6945  14.7894
    14.8451  14.9361  15.0806  15.1389  15.1894  15.2468  15.3296  15.3370
    15.3410  15.4483  15.4668  15.4746  15.6072  15.6388  15.6503  15.7308
    15.8233  15.8637  15.9077  15.9391  15.9987  16.0028  16.1202  16.2290
    16.2724  16.3349  16.3611  16.3955  16.4358  16.8040  16.8824  16.8894
    16.9559  17.0018  17.0119  17.0196  17.1637  17.3492  17.3684  17.4802
    17.6091  17.6373  17.6540  17.7174  17.8180  17.8745  17.8871  17.8964
    17.9085  17.9262  18.0001  18.0008

          k = 0.2500 0.0000 0.0000 ( 29937 PWs)   bands (ev):

   -60.6680 -60.6412 -60.2333 -60.2062 -59.1095 -59.0804 -58.7441 -58.7150
   -37.2013 -36.9354 -36.9079 -36.8579 -36.7458 -36.7207 -36.6400 -36.5868
   -36.5651 -36.4326 -36.3624 -36.3386 -35.7123 -35.4539 -35.3843 -35.3771
   -35.2225 -35.2104 -35.1767 -35.0889 -35.0675 -34.9909 -34.9146 -34.8483
   -22.2074 -22.0019 -20.9642 -20.8077 -20.3944 -20.2656 -19.8047 -19.7331
   -19.6312 -19.5772 -19.5551 -19.4225 -19.3301 -19.2160 -18.8267 -18.4123
   -18.1780 -18.1068  -9.9344  -9.6282  -8.2451  -8.1394  -8.0752  -8.0634
    -7.9041  -7.7995  -7.4513  -7.3816  -7.3548  -7.1687  -7.0908  -6.9436
    -6.9373  -6.8923  -6.8683  -6.7405  -6.5360  -6.4719  -6.2365  -6.1087
    -6.0412  -5.9061  -5.7623  -5.6089  -5.5830  -5.4517  -5.2787  -5.2496
    -5.2248  -5.1636  -5.0074  -4.9479  -4.8414  -4.8324  -4.7298  -4.7289
    -4.6039  -4.5593  -4.5335  -4.1731  -4.0415  -3.8852  -3.7686  -3.5076
    -3.4397  -3.3764  -3.3760  -3.2315  -3.2204  -2.9870  -2.8648  -2.7952
    -1.5146  -1.1132  -1.0975  -1.0358  -0.8552  -0.7470  -0.6808  -0.4696
    -0.4209  -0.2963  -0.1341   0.0118   0.1445   0.4717   0.4826   0.5673
     0.6670   0.7165   0.9152   0.9494   1.0051   1.2816   1.4092   1.4434
     1.6523   1.7486   1.9012   1.9040   2.0078   2.0680   2.6404   2.9158
     3.0353   3.2376   3.2589   3.3945   3.5106   3.6914   3.8724   3.8783
     4.0542   4.3140   4.4268   4.6811   4.7993   4.8904   5.4888   5.7340
     5.9099   5.9334   6.0583   6.2735   6.6801   6.7083   6.8408   7.0498
     7.1553   7.2466   7.3598   7.3811   7.5958   7.7080   7.8093   7.8330
     7.9582   8.0188   8.1926   8.4135   8.4683   8.6277   8.6289   8.8027
     8.8187   8.9280   9.0800   9.1250   9.2698   9.2899   9.3948   9.4400
     9.5256   9.5958   9.6065   9.6745   9.8257   9.9869   9.9963  10.1321
    10.1431  10.2539  10.3977  10.5213  10.5761  10.7153  10.7706  10.7916
    10.8682  10.9537  11.0679  11.0938  11.2174  11.2943  11.4214  11.4907
    11.5231  11.5816  11.6913  11.6941  11.7800  12.0011  12.0485  12.1227
    12.3515  12.4372  12.5070  12.5175  12.5655  12.6613  12.8216  12.9081
    13.0381  13.0825  13.1905  13.3496  13.4345  13.4471  13.6085  13.6527
    13.7063  13.7137  13.8090  13.8571  13.9376  14.0414  14.0922  14.2278
    14.3109  14.3594  14.3945  14.4370  14.5424  14.6125  14.6409  14.7522
    14.7994  14.8741  14.9149  14.9627  15.1352  15.1658  15.1720  15.4376
    15.4660  15.5142  15.5708  15.6048  15.6675  15.6995  15.8432  15.9619
    16.0217  16.1267  16.2011  16.2615  16.4059  16.4215  16.5957  16.6389
    16.6756  16.7701  16.8183  16.8347  16.9010  16.9357  17.0931  17.1363
    17.1559  17.2877  17.4326  17.4415  17.4950  17.5712  17.6681  17.7524
    17.8302  17.8478  17.9091  17.9798  18.0330  18.1232  18.1539  18.1893
    18.2022  18.3441  18.4402  18.5082

          k = 0.2500 0.2258 0.0000 ( 29912 PWs)   bands (ev):

   -60.6680 -60.6411 -60.2333 -60.2062 -59.1095 -59.0804 -58.7441 -58.7150
   -37.2013 -36.9354 -36.9079 -36.8579 -36.7445 -36.7216 -36.6406 -36.5868
   -36.5651 -36.4313 -36.3623 -36.3387 -35.7108 -35.4560 -35.3840 -35.3774
   -35.2225 -35.2103 -35.1766 -35.0905 -35.0668 -34.9909 -34.9146 -34.8483
   -22.2037 -22.0015 -20.9500 -20.8069 -20.3116 -20.2207 -19.8904 -19.7329
   -19.6443 -19.5716 -19.5517 -19.5007 -19.3024 -19.2876 -18.8013 -18.4123
   -18.1786 -18.1063  -9.9311  -9.6255  -8.2018  -8.0649  -7.9072  -7.8968
    -7.8469  -7.7969  -7.4628  -7.4269  -7.2037  -7.2031  -7.0094  -6.9487
    -6.9281  -6.8685  -6.7933  -6.5528  -6.5446  -6.3440  -6.2333  -6.1692
    -6.1081  -5.8146  -5.7936  -5.6854  -5.6550  -5.4648  -5.4492  -5.3503
    -5.2729  -5.1708  -5.1640  -5.0888  -4.9441  -4.8942  -4.8377  -4.8062
    -4.6937  -4.5866  -4.5084  -4.4885  -3.9913  -3.8695  -3.7883  -3.5731
    -3.5119  -3.4072  -3.3106  -3.3097  -3.2032  -2.9708  -2.8356  -2.7877
    -1.5072  -1.1811  -1.0548  -0.9851  -0.9142  -0.7453  -0.6438  -0.5500
    -0.2280  -0.1187   0.0087   0.0193   0.1416   0.3852   0.6001   0.6134
     0.7246   0.7720   1.0084   1.0218   1.0963   1.2277   1.4342   1.4556
     1.6087   1.7074   1.7985   1.9301   1.9304   2.1234   2.2281   2.7893
     3.0835   3.3412   3.4443   3.6567   3.7521   3.7861   3.8250   4.0373
     4.1065   4.4673   4.5064   4.6800   4.9369   4.9789   5.2177   5.6580
     5.8369   5.8589   5.9866   6.1056   6.1193   6.4216   6.4281   6.7927
     6.8037   7.1392   7.2022   7.3856   7.4760   7.7366   7.8199   7.8375
     7.8976   7.9615   8.0567   8.1912   8.4502   8.5242   8.5763   8.8343
     8.8471   8.9647   9.2125   9.2666   9.3554   9.3830   9.3953   9.5358
     9.6259   9.6538   9.9389   9.9708  10.0470  10.1774  10.2290  10.3733
    10.4606  10.6346  10.6582  10.6864  10.8453  10.8738  11.0072  11.0608
    11.1449  11.2646  11.3211  11.3863  11.4080  11.4459  11.5901  11.6535
    11.8172  11.8430  11.9166  11.9632  11.9721  12.0869  12.1041  12.2993
    12.3306  12.3721  12.4751  12.5714  12.6627  12.7508  12.8011  12.8526
    12.9470  13.0081  13.1520  13.1926  13.3341  13.4068  13.5021  13.5987
    13.6160  13.7050  13.8278  13.8284  13.8959  13.9455  14.0049  14.1165
    14.1555  14.2711  14.3374  14.3497  14.5027  14.5897  14.6259  14.6296
    14.7714  14.7895  14.9372  14.9601  15.0579  15.0928  15.1689  15.2285
    15.3720  15.3923  15.4696  15.5413  15.6381  15.7208  15.7487  15.8363
    15.8697  15.9315  15.9627  16.1129  16.1576  16.2789  16.3059  16.3919
    16.4259  16.5150  16.7021  16.7354  16.7764  16.8389  16.8454  16.8788
    17.0035  17.0485  17.0661  17.0922  17.2320  17.2627  17.3193  17.3829
    17.4363  17.4444  17.5432  17.5518  17.7256  17.8341  17.9161  18.0192
    18.0727  18.1800  18.1887  18.3133

          k = 0.2500-0.4516 0.0000 ( 29882 PWs)   bands (ev):

   -60.6680 -60.6411 -60.2333 -60.2062 -59.1095 -59.0804 -58.7441 -58.7150
   -37.2014 -36.9354 -36.9079 -36.8579 -36.7432 -36.7224 -36.6412 -36.5869
   -36.5651 -36.4300 -36.3622 -36.3388 -35.7094 -35.4579 -35.3840 -35.3776
   -35.2225 -35.2102 -35.1765 -35.0921 -35.0661 -34.9909 -34.9146 -34.8483
   -22.2000 -22.0010 -20.9365 -20.8062 -20.1877 -20.1707 -19.9375 -19.7881
   -19.7139 -19.5995 -19.5491 -19.4867 -19.4117 -19.2460 -18.7816 -18.4124
   -18.1792 -18.1058  -9.9267  -9.6238  -8.1876  -8.0497  -7.9094  -7.7938
    -7.6407  -7.5485  -7.5008  -7.3754  -7.3115  -6.9318  -6.8706  -6.8494
    -6.8437  -6.8129  -6.7732  -6.6317  -6.3869  -6.3213  -6.3084  -6.1220
    -6.1144  -5.8576  -5.8207  -5.7210  -5.7040  -5.4865  -5.4744  -5.4731
    -5.4398  -5.3652  -5.3449  -5.2904  -5.2893  -5.1781  -4.9518  -4.8614
    -4.7272  -4.5842  -4.4914  -4.3830  -3.9078  -3.8352  -3.7967  -3.5821
    -3.5133  -3.4547  -3.3930  -3.2475  -3.2174  -2.9791  -2.8486  -2.7324
    -1.5027  -1.2781  -1.2120  -0.8627  -0.8212  -0.7437  -0.6605  -0.6271
    -0.1533  -0.1002   0.0327   0.1491   0.3746   0.4157   0.6372   0.7373
     0.7456   0.7973   1.0761   1.1428   1.1680   1.2230   1.4307   1.4731
     1.5882   1.6128   1.6744   1.9122   1.9464   1.9627   2.1691   2.5304
     3.2395   3.3747   3.4864   3.7726   3.7939   4.0277   4.0771   4.2168
     4.3932   4.5833   4.5868   4.7012   4.7949   5.0047   5.1177   5.1698
     5.4533   5.6537   6.0064   6.0279   6.2372   6.3419   6.5380   6.7575
     6.8482   6.8608   7.0265   7.0882   7.1523   7.3811   7.4461   7.6022
     7.9019   7.9717   8.0764   8.0862   8.2120   8.4238   8.4907   8.6294
     8.7339   8.8807   9.1683   9.1952   9.4119   9.5114   9.7429   9.7834
     9.8845   9.8859   9.9376  10.3082  10.5634  10.7508  10.7957  10.8904
    10.9300  10.9307  11.0751  11.1209  11.2163  11.2524  11.3037  11.4086
    11.4670  11.4858  11.5020  11.5481  11.6768  11.7010  11.7238  11.7490
    11.7584  11.9214  11.9393  12.0522  12.1387  12.1560  12.2499  12.2724
    12.3304  12.4020  12.5327  12.5515  12.7297  12.7914  12.8526  12.9226
    12.9754  13.0692  13.0715  13.2388  13.2862  13.3461  13.4375  13.4714
    13.5537  13.5895  13.6884  13.7537  13.7919  13.7996  13.9066  13.9208
    13.9640  13.9734  14.0595  14.2136  14.3482  14.4110  14.4927  14.5279
    14.6171  14.6243  14.6950  14.7551  14.8356  14.8678  14.9861  15.0299
    15.0836  15.1267  15.1683  15.1999  15.2247  15.2804  15.4539  15.5245
    15.6482  15.7337  15.7764  15.7993  15.8642  16.1592  16.1893  16.3569
    16.4995  16.5148  16.5483  16.6380  16.6548  16.7531  16.8794  16.9481
    17.0528  17.1598  17.1907  17.2380  17.2665  17.3209  17.4398  17.4467
    17.5116  17.5470  17.6458  17.6467  17.6984  17.8480  17.8481  17.9536
    17.9962  18.0625  18.1113  18.1618

          k =-0.5000 0.0000 0.0000 ( 29982 PWs)   bands (ev):

   -60.6546 -60.6546 -60.2198 -60.2198 -59.0950 -59.0950 -58.7296 -58.7296
   -37.0575 -37.0575 -36.8961 -36.8961 -36.7333 -36.7333 -36.5777 -36.5777
   -36.4890 -36.4890 -36.3977 -36.3977 -35.5511 -35.5511 -35.4152 -35.4152
   -35.2101 -35.2101 -35.0782 -35.0782 -35.0362 -35.0362 -34.9382 -34.9382
   -22.0744 -22.0744 -20.9102 -20.9102 -20.1104 -20.1104 -19.9513 -19.9513
   -19.5778 -19.5778 -19.4525 -19.4525 -19.3921 -19.3921 -18.5173 -18.5173
   -18.2455 -18.2455  -9.7628  -9.7628  -8.1522  -8.1522  -7.7393  -7.7393
    -7.6508  -7.6508  -7.5042  -7.5042  -7.2860  -7.2860  -7.2187  -7.2187
    -7.0843  -7.0843  -6.8627  -6.8627  -6.3413  -6.3413  -6.2364  -6.2364
    -5.9401  -5.9401  -5.6541  -5.6541  -5.5219  -5.5219  -5.3021  -5.3021
    -5.1600  -5.1600  -4.9377  -4.9377  -4.8335  -4.8335  -4.7387  -4.7387
    -4.5342  -4.5342  -4.4389  -4.4389  -4.1445  -4.1445  -3.8819  -3.8819
    -3.6141  -3.6141  -3.0877  -3.0877  -3.0642  -3.0642  -2.9337  -2.9337
    -1.1920  -1.1920  -1.0553  -1.0553  -0.8427  -0.8427  -0.7402  -0.7402
    -0.0868  -0.0868  -0.0289  -0.0289   0.0387   0.0387   0.6253   0.6253
     0.7085   0.7085   0.9645   0.9645   1.3207   1.3207   1.4135   1.4135
     1.5550   1.5550   1.7886   1.7886   2.1764   2.1764   2.7573   2.7573
     3.3666   3.3666   3.5072   3.5072   3.5500   3.5500   3.8622   3.8622
     4.2844   4.2844   4.6298   4.6298   4.7434   4.7434   5.1140   5.1140
     5.5521   5.5521   6.1641   6.1641   6.6795   6.6795   6.8268   6.8268
     7.4234   7.4234   7.5008   7.5008   7.7738   7.7738   7.8579   7.8579
     8.1464   8.1464   8.1652   8.1652   8.3627   8.3627   8.5993   8.5993
     8.7978   8.7978   8.8254   8.8254   8.9884   8.9884   9.3811   9.3811
     9.6186   9.6186   9.6965   9.6965   9.7581   9.7581  10.0344  10.0344
    10.2476  10.2476  10.4170  10.4170  10.5957  10.5957  10.7415  10.7415
    10.9745  10.9745  11.3503  11.3503  11.5929  11.5929  11.6749  11.6749
    11.8928  11.8928  11.9436  11.9436  12.1664  12.1664  12.3121  12.3121
    12.6295  12.6295  12.7890  12.7890  12.9326  12.9326  13.1062  13.1062
    13.2695  13.2695  13.3261  13.3261  13.6606  13.6606  13.7545  13.7545
    13.9532  13.9532  14.1275  14.1275  14.2456  14.2456  14.2942  14.2942
    14.3373  14.3373  14.4169  14.4169  14.6566  14.6566  14.8968  14.8968
    15.0679  15.0679  15.2878  15.2878  15.3376  15.3376  15.4639  15.4639
    15.7782  15.7782  15.8788  15.8788  15.9846  15.9846  16.1806  16.1806
    16.2650  16.2650  16.4636  16.4636  16.5115  16.5115  16.5559  16.5559
    16.6610  16.6610  16.7649  16.7649  16.8479  16.8479  16.9286  16.9286
    17.0308  17.0308  17.1797  17.1797  17.2200  17.2200  17.5606  17.5606
    17.6450  17.6450  17.8617  17.8617  17.9660  17.9660  18.0272  18.0272
    18.1244  18.1244  18.2635  18.2635

          k =-0.5000 0.2258 0.0000 ( 29954 PWs)   bands (ev):

   -60.6546 -60.6546 -60.2198 -60.2198 -59.0950 -59.0950 -58.7296 -58.7296
   -37.0575 -37.0575 -36.8961 -36.8961 -36.7330 -36.7330 -36.5778 -36.5778
   -36.4895 -36.4894 -36.3970 -36.3970 -35.5504 -35.5502 -35.4164 -35.4162
   -35.2101 -35.2101 -35.0786 -35.0786 -35.0361 -35.0361 -34.9382 -34.9382
   -22.0730 -22.0730 -20.9052 -20.9052 -20.0430 -20.0429 -19.9048 -19.9042
   -19.6601 -19.6601 -19.5124 -19.5091 -19.3984 -19.3957 -18.5137 -18.5137
   -18.2452 -18.2452  -9.7542  -9.7536  -8.1535  -8.1529  -7.6082  -7.5878
    -7.4563  -7.4519  -7.3981  -7.3945  -7.2810  -7.2774  -7.1327  -7.1193
    -7.0227  -7.0215  -6.8707  -6.8262  -6.4129  -6.3585  -6.2538  -6.2072
    -6.0728  -6.0377  -5.8630  -5.8459  -5.5608  -5.5343  -5.3322  -5.3177
    -5.2631  -5.2078  -5.0183  -5.0169  -4.9072  -4.9034  -4.8917  -4.8648
    -4.7842  -4.7789  -4.5039  -4.5032  -4.1469  -4.1442  -3.6891  -3.6873
    -3.6251  -3.6010  -3.1769  -3.1689  -3.0348  -2.9910  -2.9361  -2.8656
    -1.1864  -1.1861  -1.0482  -1.0481  -0.8830  -0.8657  -0.7448  -0.7418
    -0.0360  -0.0350   0.0511   0.0515   0.3448   0.3452   0.4655   0.4719
     0.8210   0.8295   1.0290   1.0330   1.3008   1.3017   1.4309   1.4330
     1.5722   1.5753   1.8177   1.8191   2.0481   2.0483   2.4209   2.4210
     3.3691   3.3713   3.6106   3.6115   3.7256   3.7285   3.9803   3.9812
     4.3706   4.3738   4.7705   4.7720   4.8684   4.8687   5.2564   5.2620
     5.6321   5.6437   6.0016   6.0045   6.3875   6.3935   6.6235   6.6289
     6.7773   6.7862   6.9016   6.9041   7.2027   7.2069   7.5102   7.5158
     7.8693   7.8767   8.0919   8.1105   8.4674   8.4966   8.5494   8.5925
     8.7704   8.8175   9.2179   9.2250   9.6118   9.6272   9.7385   9.7480
     9.8726   9.8822  10.0045  10.0154  10.1600  10.1682  10.2616  10.2935
    10.6536  10.6609  10.7764  10.7913  10.9346  10.9584  11.0091  11.0112
    11.3386  11.3447  11.4952  11.4959  11.7995  11.8046  11.8873  11.8916
    11.9539  11.9838  12.1561  12.1607  12.3541  12.3571  12.4936  12.5000
    12.7010  12.7081  12.8399  12.8869  13.0233  13.0522  13.2550  13.2909
    13.4110  13.4344  13.4650  13.4657  13.5038  13.5044  13.6761  13.6782
    13.8777  13.8994  14.0345  14.0528  14.1239  14.1334  14.2007  14.2219
    14.3034  14.3154  14.4046  14.4242  14.5095  14.5270  14.8965  14.9228
    14.9954  15.0005  15.0344  15.0499  15.1939  15.2113  15.2846  15.2927
    15.3518  15.3701  15.4142  15.4287  15.4694  15.4754  15.5373  15.5532
    15.7465  15.7577  15.8099  15.8196  15.8716  15.8851  16.0516  16.0719
    16.2293  16.2470  16.3011  16.3105  16.4799  16.4817  16.5609  16.5687
    16.7395  16.7414  16.8663  16.8765  16.9224  16.9713  17.1325  17.1489
    17.2374  17.2443  17.2701  17.2922  17.5378  17.5410  17.6739  17.6842
    17.9155  17.9245  18.0331  18.0383

          k =-0.5000-0.4516 0.0000 ( 29868 PWs)   bands (ev):

   -60.6546 -60.6546 -60.2198 -60.2198 -59.0950 -59.0950 -58.7296 -58.7296
   -37.0576 -37.0576 -36.8961 -36.8961 -36.7327 -36.7327 -36.5778 -36.5778
   -36.4898 -36.4898 -36.3962 -36.3962 -35.5496 -35.5496 -35.4174 -35.4174
   -35.2101 -35.2101 -35.0790 -35.0790 -35.0361 -35.0361 -34.9382 -34.9382
   -22.0716 -22.0716 -20.9003 -20.9003 -19.9014 -19.9014 -19.8610 -19.8610
   -19.7892 -19.7892 -19.5951 -19.5951 -19.3993 -19.3993 -18.5103 -18.5103
   -18.2450 -18.2450  -9.7449  -9.7449  -8.1545  -8.1545  -7.5331  -7.5331
    -7.4022  -7.4022  -7.1017  -7.1017  -7.0393  -7.0393  -6.9909  -6.9909
    -6.9563  -6.9563  -6.7484  -6.7484  -6.5807  -6.5807  -6.3932  -6.3932
    -6.1791  -6.1791  -5.9015  -5.9015  -5.6569  -5.6569  -5.3745  -5.3745
    -5.2923  -5.2923  -5.2174  -5.2174  -5.1213  -5.1213  -5.0705  -5.0705
    -4.9535  -4.9535  -4.3039  -4.3039  -4.1408  -4.1408  -3.6085  -3.6085
    -3.5235  -3.5235  -3.2906  -3.2906  -2.9791  -2.9791  -2.8511  -2.8511
    -1.1795  -1.1795  -1.0140  -1.0140  -0.9338  -0.9338  -0.7451  -0.7451
    -0.0126  -0.0126   0.0834   0.0834   0.4265   0.4265   0.7300   0.7300
     0.9189   0.9189   1.0346   1.0346   1.3542   1.3542   1.4488   1.4488
     1.5825   1.5825   1.8172   1.8172   1.8851   1.8851   2.0732   2.0732
     3.4044   3.4044   3.6048   3.6048   3.8700   3.8700   4.2248   4.2248
     4.4880   4.4880   4.9189   4.9189   5.0994   5.0994   5.4824   5.4824
     5.5686   5.5686   5.7728   5.7728   5.9362   5.9362   6.2296   6.2296
     6.4304   6.4304   6.8149   6.8149   7.1206   7.1206   7.3437   7.3437
     7.6571   7.6571   7.8486   7.8486   8.0900   8.0900   8.6360   8.6360
     8.8593   8.8593   9.1952   9.1952   9.3228   9.3228   9.8761   9.8761
    10.1176  10.1176  10.3995  10.3995  10.6080  10.6080  10.9962  10.9962
    11.1642  11.1642  11.4067  11.4067  11.6835  11.6835  11.8706  11.8706
    11.9244  11.9244  11.9565  11.9565  12.1372  12.1372  12.3494  12.3494
    12.4330  12.4330  12.5184  12.5184  12.5753  12.5753  12.6382  12.6382
    12.7449  12.7449  12.8184  12.8184  12.9062  12.9062  13.0068  13.0068
    13.1441  13.1441  13.3263  13.3263  13.3677  13.3677  13.5602  13.5602
    13.6359  13.6359  13.7962  13.7962  13.9044  13.9044  13.9984  13.9984
    14.1107  14.1107  14.2019  14.2019  14.3319  14.3319  14.3708  14.3708
    14.4354  14.4354  14.5361  14.5361  14.6997  14.6997  14.7374  14.7374
    14.9676  14.9676  15.0157  15.0157  15.0957  15.0957  15.1207  15.1207
    15.4712  15.4712  15.6568  15.6568  15.7777  15.7777  15.8120  15.8120
    15.8820  15.8820  16.0708  16.0708  16.1452  16.1452  16.2474  16.2474
    16.4805  16.4805  16.7121  16.7121  16.8710  16.8710  17.0835  17.0835
    17.1596  17.1596  17.2932  17.2932  17.3717  17.3717  17.4807  17.4807
    17.7382  17.7382  17.8539  17.8539

          k =-0.2500 0.2258 0.0000 ( 29912 PWs)   bands (ev):

   -60.6680 -60.6411 -60.2333 -60.2062 -59.1095 -59.0804 -58.7441 -58.7150
   -37.2013 -36.9354 -36.9079 -36.8579 -36.7445 -36.7216 -36.6406 -36.5868
   -36.5651 -36.4313 -36.3623 -36.3387 -35.7108 -35.4558 -35.3843 -35.3773
   -35.2225 -35.2103 -35.1766 -35.0905 -35.0668 -34.9909 -34.9146 -34.8483
   -22.2037 -22.0015 -20.9500 -20.8069 -20.3116 -20.2208 -19.8904 -19.7318
   -19.6443 -19.5710 -19.5518 -19.5035 -19.3028 -19.2860 -18.8013 -18.4124
   -18.1786 -18.1062  -9.9308  -9.6266  -8.2028  -8.0592  -7.9044  -7.8968
    -7.8493  -7.7970  -7.4644  -7.4358  -7.2101  -7.2020  -7.0107  -6.9472
    -6.9191  -6.8511  -6.8018  -6.5500  -6.5428  -6.3391  -6.2318  -6.1836
    -6.1067  -5.8171  -5.8150  -5.6696  -5.6366  -5.4662  -5.4361  -5.3805
    -5.2854  -5.1855  -5.1453  -5.0830  -4.9634  -4.9056  -4.8391  -4.7856
    -4.6836  -4.5847  -4.5132  -4.4851  -3.9826  -3.8617  -3.7873  -3.5385
    -3.4896  -3.4345  -3.3432  -3.3020  -3.2147  -2.9821  -2.8819  -2.7370
    -1.5071  -1.1827  -1.0383  -0.9849  -0.9139  -0.7449  -0.6563  -0.5507
    -0.2282  -0.1183   0.0087   0.0181   0.1394   0.3826   0.6113   0.6146
     0.7236   0.7644   1.0080   1.0137   1.1082   1.2328   1.4263   1.4573
     1.6072   1.7070   1.7980   1.9300   1.9302   2.1236   2.2283   2.7894
     3.0850   3.3406   3.4444   3.6572   3.7521   3.7863   3.8267   4.0404
     4.1062   4.4680   4.5094   4.6799   4.9408   4.9818   5.2168   5.6556
     5.8379   5.8589   5.9862   6.0939   6.1170   6.4045   6.4292   6.7887
     6.7988   7.1411   7.2139   7.3769   7.4975   7.7309   7.8177   7.8658
     7.8964   7.9678   8.0253   8.1967   8.4404   8.5239   8.5979   8.8253
     8.8370   8.9664   9.2143   9.2972   9.3670   9.3685   9.3983   9.5318
     9.6264   9.6338   9.9317   9.9401  10.0510  10.1775  10.2583  10.3568
    10.4662  10.6342  10.6367  10.6944  10.8674  10.8690  11.0036  11.0590
    11.1455  11.2712  11.3195  11.3945  11.4148  11.4469  11.5956  11.6530
    11.8251  11.8542  11.9120  11.9643  11.9706  12.0910  12.1096  12.2862
    12.3529  12.3743  12.4923  12.6089  12.6824  12.7202  12.7906  12.8730
    12.9070  13.0092  13.1460  13.2084  13.3277  13.3939  13.4720  13.5624
    13.6237  13.7040  13.7901  13.7956  13.8899  13.9412  14.0255  14.1216
    14.1633  14.2668  14.3245  14.3500  14.5115  14.5846  14.6321  14.6356
    14.7910  14.8094  14.9128  14.9520  15.0671  15.1198  15.1857  15.2481
    15.3671  15.4005  15.4693  15.5554  15.6279  15.7559  15.7641  15.8398
    15.8408  15.9334  15.9417  16.1148  16.1726  16.2390  16.2542  16.3729
    16.4046  16.5174  16.6839  16.7218  16.7716  16.8331  16.8426  16.8814
    17.0026  17.0186  17.0485  17.1063  17.2540  17.2625  17.3092  17.3873
    17.4466  17.4742  17.5454  17.5982  17.7683  17.8391  17.9219  18.0088
    18.0636  18.1765  18.2327  18.3167

     the Fermi energy is    -2.6400 ev

!    total energy              =   -1534.98271528 Ry
     Harris-Foulkes estimate   =   -1534.98271514 Ry
     estimated scf accuracy    <       0.00000056 Ry

     The total energy is the sum of the following terms:

     one-electron contribution =  -18418.67891779 Ry
     hartree contribution      =    9224.33956622 Ry
     xc contribution           =    -269.92308549 Ry
     ewald contribution        =    7929.27853540 Ry
     smearing contrib. (-TS)   =       0.00118638 Ry

     convergence has been achieved in  16 iterations

     Forces acting on atoms (Ry/au):


     negative rho (up, down):  0.102E+00 0.000E+00
     atom    1 type  1   force =     0.00046090   -0.01557726   -0.00074293
     atom    2 type  1   force =     0.00002220    0.02402855    0.00010165
     atom    3 type  2   force =     0.00019006   -0.01620285   -0.00018746
     atom    4 type  2   force =    -0.00646634    0.00821371   -0.00014163
     atom    5 type  1   force =     0.00400167   -0.10941456    0.00012240
     atom    6 type  1   force =    -0.00143179    0.10934101   -0.00000558
     atom    7 type  1   force =    -0.00006238    0.00110136   -0.00055555
     atom    8 type  1   force =     0.00337239   -0.00154369    0.00062611
     atom    9 type  2   force =    -0.00088158    0.00009820    0.00089131
     atom   10 type  2   force =    -0.00005668   -0.00025278   -0.00027548
     atom   11 type  1   force =     0.00008044   -0.04288134    0.00032413
     atom   12 type  1   force =    -0.00000642    0.04293141    0.00033705
     atom   13 type  1   force =     0.00063258   -0.00005155    0.00049164
     atom   14 type  1   force =     0.00046096   -0.01557735   -0.00074329
     atom   15 type  1   force =     0.00002229    0.02402851    0.00010166
     atom   16 type  2   force =     0.00018999   -0.01620284   -0.00018742
     atom   17 type  2   force =    -0.00646630    0.00821363   -0.00014167
     atom   18 type  1   force =     0.00400161   -0.10941451    0.00012245
     atom   19 type  1   force =    -0.00143193    0.10934087   -0.00000545
     atom   20 type  1   force =    -0.00006238    0.00110113   -0.00055565
     atom   21 type  1   force =     0.00337244   -0.00154363    0.00062616
     atom   22 type  2   force =    -0.00088162    0.00009817    0.00089126
     atom   23 type  2   force =    -0.00005675   -0.00025274   -0.00027554
     atom   24 type  1   force =     0.00008036   -0.04288143    0.00032414
     atom   25 type  1   force =    -0.00000655    0.04293153    0.00033709
     atom   26 type  1   force =     0.00063265   -0.00005154    0.00049185
     atom   27 type  3   force =     0.00004333   -0.00007947   -0.00048277
     atom   28 type  3   force =     0.00004335   -0.00007947   -0.00048278
     atom   29 type  3   force =     0.00010177    0.00028945   -0.00050286
     atom   30 type  3   force =     0.00010174    0.00028946   -0.00050285

     Total force =     0.002551     Total SCF correction =     0.001873
     SCF correction compared to forces is large: reduce conv_thr to get better values

     BFGS Geometry Optimization

     bfgs converged in   1 scf cycles and   0 bfgs steps
     (criteria: energy < 0.10E-03, force < 0.10E-02)

     End of BFGS Geometry Optimization

     Final energy   =   -1534.9827152834 Ry
Begin final coordinates

ATOMIC_POSITIONS (crystal)
O0       0.000000000   0.000000000   0.379730000    0   0   1
O0       0.000000000   0.500000000   0.400120000    0   0   1
Ti1      0.250000000   0.500000000   0.450660000    0   0   1
Ti1      0.000000000   0.000000000   0.452570000    0   0   1
O0       0.250000000   0.810000000   0.451000000    0   0   1
O0       0.250000000   0.190000000   0.452090000    0   0   1
O0       0.000000000   0.500000000   0.499020000    0   0   1
O0       0.000000000   0.000000000   0.526580000    0   0   1
Ti1      0.250000000   0.000000000   0.581030000    0   0   1
Ti1      0.000000000   0.500000000   0.569590000    0   0   1
O0       0.250000000   0.690000000   0.580340000    0   0   1
O0       0.250000000   0.310000000   0.580350000    0   0   1
O0       0.000000000   0.000000000   0.622310000    0   0   1
O0       0.500000000   0.000000000   0.379730000    0   0   1
O0       0.500000000   0.500000000   0.400120000    0   0   1
Ti1      0.750000000   0.500000000   0.450660000    0   0   1
Ti1      0.500000000   0.000000000   0.452570000    0   0   1
O0       0.750000000   0.810000000   0.451000000    0   0   1
O0       0.750000000   0.190000000   0.452090000    0   0   1
O0       0.500000000   0.500000000   0.499020000    0   0   1
O0       0.500000000   0.000000000   0.526580000    0   0   1
Ti1      0.750000000   0.000000000   0.581030000    0   0   1
Ti1      0.500000000   0.500000000   0.569590000    0   0   1
O0       0.750000000   0.690000000   0.580340000    0   0   1
O0       0.750000000   0.310000000   0.580350000    0   0   1
O0       0.500000000   0.000000000   0.622310000    0   0   1
H2      -0.000540000   0.631560000   0.381380000
H2       0.499460000   0.631560000   0.381380000
H2       0.150180000   0.022770000   0.364800000
H2       0.650180000   0.022770000   0.364800000
End final coordinates



     init_run     :     49.75s CPU     63.25s WALL (       1 calls)
     electrons    :   2587.30s CPU   3298.05s WALL (       1 calls)
     forces       :     29.14s CPU     32.41s WALL (       1 calls)

     Called by init_run:
     wfcinit      :     33.45s CPU     46.13s WALL (       1 calls)
     potinit      :      2.30s CPU      2.76s WALL (       1 calls)

     Called by electrons:
     c_bands      :   2087.76s CPU   2647.23s WALL (      16 calls)
     sum_band     :    301.69s CPU    418.04s WALL (      16 calls)
     v_of_rho     :      8.77s CPU     14.27s WALL (      17 calls)
     newd         :    194.95s CPU    218.25s WALL (      17 calls)
     mix_rho      :      1.64s CPU      2.82s WALL (      16 calls)

     Called by c_bands:
     init_us_2    :      1.93s CPU      1.95s WALL (     340 calls)
     cegterg      :   2078.48s CPU   2637.91s WALL (     160 calls)

     Called by *egterg:
     h_psi        :    970.48s CPU   1473.64s WALL (     742 calls)
     s_psi        :     68.65s CPU     68.71s WALL (     742 calls)
     g_psi        :      1.64s CPU      1.63s WALL (     572 calls)
     cdiaghg      :    699.25s CPU    717.61s WALL (     732 calls)

     Called by h_psi:
     add_vuspsi   :     69.33s CPU     69.63s WALL (     742 calls)

     General routines
     calbec       :    104.53s CPU    115.12s WALL (     912 calls)
     fft          :     21.19s CPU     38.76s WALL (     279 calls)
     ffts         :      0.28s CPU      0.51s WALL (      33 calls)
     fftw         :    898.51s CPU   1496.03s WALL (  282266 calls)
     interpolate  :      1.82s CPU      3.34s WALL (      33 calls)

     Parallel routines
     fft_scatter  :    668.31s CPU   1280.82s WALL (  282578 calls)

     PWSCF        : 44m26.37s CPU    56m34.06s WALL


   This run was terminated on:  19:18:11  27Feb2014            

=------------------------------------------------------------------------------=
   JOB DONE.
=------------------------------------------------------------------------------=
---------------------------------------
Running PBS batch system epilogue script
Job id: 278709.audhumbla.fysik.dtu.dk
Username: zhonxu
Groupname: campgst
Jobname: TiO2/bare
Sessionid: 16878
Resources limits: neednodes=2:ppn=8:xeon8,nodes=2:ppn=8:xeon8,walltime=48:00:00
Resources used: cput=15:04:27,mem=6139424kb,vmem=9537160kb,walltime=00:56:35
Queuename: verylong
Accounting:
This job has allocated the following 16 nodes:
a131 a131 a131 a131 a131 a131 a131 a131 a111 a111 a111 a111 a111 a111 a111 a111
Finished epilogue job 278709.audhumbla.fysik.dtu.dk for zhonxu
