
     Program PWSCF v.5.0.2 (svn rev. 9656) starts on 22Jun2014 at 16:24:42 

     This program is part of the open-source Quantum ESPRESSO suite
     for quantum simulation of materials; please cite
         "P. Giannozzi et al., J. Phys.:Condens. Matter 21 395502 (2009);
          URL http://www.quantum-espresso.org", 
     in publications or presentations arising from this work. More details at
     http://www.quantum-espresso.org/quote.php

     Parallel version (MPI), running on    32 processors
     K-points division:     npool     =       4
     R & G space division:  proc/nbgrp/npool/nimage =       8

     Current dimensions of program PWSCF are:
     Max number of different atomic species (ntypx) = 10
     Max number of k-points (npk) =  40000
     Max angular momentum in pseudopotentials (lmaxx) =  3
     Reading input from pwscf.in
Warning: card &CELL ignored
Warning: card / ignored

     Subspace diagonalization in iterative solution of the eigenvalue problem:
     a serial algorithm will be used


     Parallelization info
     --------------------
     sticks:   dense  smooth     PW     G-vecs:    dense   smooth      PW
     Min         666     214     59               224514    40628    6069
     Max         667     215     60               224521    40715    6080
     Sum        5335    1713    477              1796147   325373   48603



     bravais-lattice index     =            0
     lattice parameter (alat)  =      10.1289  a.u.
     unit-cell volume          =    9515.8234 (a.u.)^3
     number of atoms/cell      =           51
     number of atomic types    =            3
     number of electrons       =       445.00
     number of Kohn-Sham states=          667
     kinetic-energy cutoff     =      40.0000  Ry
     charge density cutoff     =     500.0000  Ry
     convergence threshold     =      1.0E-06
     mixing beta               =       0.3000
     number of iterations used =            8  plain     mixing
     Exchange-correlation      = SLA  PW   PBE  PBE ( 1 4 3 4 0)
     EXX-fraction              =        0.00
     nstep                     =           50


     celldm(1)=  10.128932  celldm(2)=   0.000000  celldm(3)=   0.000000
     celldm(4)=   0.000000  celldm(5)=   0.000000  celldm(6)=   0.000000

     crystal axes: (cart. coord. in units of alat)
               a(1) = (   1.000000   0.000000   0.000000 )  
               a(2) = (   0.000000   1.306037   0.000000 )  
               a(3) = (   0.000000   0.000000   7.011323 )  

     reciprocal axes: (cart. coord. in units 2 pi/alat)
               b(1) = (  1.000000  0.000000  0.000000 )  
               b(2) = (  0.000000  0.765675  0.000000 )  
               b(3) = (  0.000000  0.000000  0.142626 )  


     PseudoPot. # 1 for O  read from file:
     /home/camp/zhonxu/pseudo/o_pbe_v1.01.uspp.F.UPF
     MD5 check sum: 2bcb18d16ea4b960afae9ec6d52f22d2
     Pseudo is Ultrasoft + core correction, Zval =  6.0
     Generated by new atomic code, or converted to UPF format
     Using radial grid of  737 points,  5 beta functions with: 
                l(1) =   0
                l(2) =   0
                l(3) =   1
                l(4) =   1
                l(5) =   2
     Q(r) pseudized with  8 coefficients,  rinner =    0.900   0.900   0.900
                                                       0.900   0.900

     PseudoPot. # 2 for Re read from file:
     /home/camp/zhonxu/pseudo/re_pbe_v1.uspp.F.UPF
     MD5 check sum: 6f5a5dcaf9c96c20d0ffdde0de57afc6
     Pseudo is Ultrasoft + core correction, Zval = 15.0
     Generated by new atomic code, or converted to UPF format
     Using radial grid of  981 points,  8 beta functions with: 
                l(1) =   0
                l(2) =   0
                l(3) =   1
                l(4) =   1
                l(5) =   2
                l(6) =   2
                l(7) =   3
                l(8) =   3
     Q(r) pseudized with  8 coefficients,  rinner =    1.000   1.000   1.000
                                                       1.000   1.000   1.000
                                                       1.000

     PseudoPot. # 3 for H  read from file:
     /home/camp/zhonxu/pseudo/h_pbe_v1.uspp.F.UPF
     MD5 check sum: 3408e3ff4ec8b0a4e358431e7e038a48
     Pseudo is Ultrasoft, Zval =  1.0
     Generated by new atomic code, or converted to UPF format
     Using radial grid of  615 points,  2 beta functions with: 
                l(1) =   0
                l(2) =   0
     Q(r) pseudized with  8 coefficients,  rinner =    0.700

     atomic species   valence    mass     pseudopotential
        O0             6.00    15.99940     O ( 1.00)
        Re1           15.00   186.20700     Re( 1.00)
        H2             1.00     1.00794     H ( 1.00)

      2 Sym. Ops. (no inversion) found



   Cartesian axes

     site n.     atom                  positions (alat units)
         1           O0  tau(   1) = (   0.0000000   0.6530184   2.2387856  )
         2           Re1 tau(   2) = (   0.2500000   0.6530184   2.5261097  )
         3           Re1 tau(   3) = (   0.0000000   0.0000000   2.5261097  )
         4           O0  tau(   4) = (   0.2500000   1.0187087   2.5261097  )
         5           O0  tau(   5) = (   0.2500000   0.2873281   2.5261097  )
         6           O0  tau(   6) = (   0.0000000   0.6530184   2.8134337  )
         7           O0  tau(   7) = (   0.0000000   0.0000000   2.8918203  )
         8           Re1 tau(   8) = (   0.2500000   0.0000000   3.1791443  )
         9           Re1 tau(   9) = (   0.0000000   0.6530184   3.1791443  )
        10           O0  tau(  10) = (   0.2500000   0.9403465   3.1791443  )
        11           O0  tau(  11) = (   0.2500000   0.3656903   3.1791443  )
        12           O0  tau(  12) = (   0.0000000   0.0000000   3.4664683  )
        13           O0  tau(  13) = (   0.0000000   0.6540502   3.5386149  )
        14           Re1 tau(  14) = (   0.2308700   0.6529792   3.8314077  )
        15           Re1 tau(  15) = (   0.0000000   0.0004049   3.8388397  )
        16           O0  tau(  16) = (   0.2455800   1.0208767   3.8357547  )
        17           O0  tau(  17) = (   0.2460300   0.2857217   3.8303560  )
        18           O0  tau(  18) = (   0.0000000   0.6413816   4.1234293  )
        19           O0  tau(  19) = (   0.0000000   0.0041140   4.2158386  )
        20           Re1 tau(  20) = (   0.2742800  -0.0018676   4.4929261  )
        21           Re1 tau(  21) = (   0.0000000   0.6515034   4.4716818  )
        22           O0  tau(  22) = (   0.2468700   0.9361149   4.4732944  )
        23           O0  tau(  23) = (   0.2505400   0.3687725   4.4974834  )
        24           O0  tau(  24) = (   0.0000000  -0.0086982   4.7277353  )
        25           O0  tau(  25) = (   0.5000000   0.6530184   2.2387856  )
        26           Re1 tau(  26) = (   0.7500000   0.6530184   2.5261097  )
        27           Re1 tau(  27) = (   0.5000000   0.0000000   2.5261097  )
        28           O0  tau(  28) = (   0.7500000   1.0187087   2.5261097  )
        29           O0  tau(  29) = (   0.7500000   0.2873281   2.5261097  )
        30           O0  tau(  30) = (   0.5000000   0.6530184   2.8134337  )
        31           O0  tau(  31) = (   0.5000000   0.0000000   2.8918203  )
        32           Re1 tau(  32) = (   0.7500000   0.0000000   3.1791443  )
        33           Re1 tau(  33) = (   0.5000000   0.6530184   3.1791443  )
        34           O0  tau(  34) = (   0.7500000   0.9403465   3.1791443  )
        35           O0  tau(  35) = (   0.7500000   0.3656903   3.1791443  )
        36           O0  tau(  36) = (   0.5000000   0.0000000   3.4664683  )
        37           O0  tau(  37) = (   0.5000000   0.6546640   3.5663096  )
        38           Re1 tau(  38) = (   0.7691300   0.6529792   3.8314077  )
        39           Re1 tau(  39) = (   0.5000000   0.0011101   3.8316181  )
        40           O0  tau(  40) = (   0.7544200   1.0208767   3.8357547  )
        41           O0  tau(  41) = (   0.7539700   0.2857217   3.8303560  )
        42           O0  tau(  42) = (   0.5000000   0.6504847   4.0924393  )
        43           O0  tau(  43) = (   0.5000000   0.0065694   4.1919300  )
        44           Re1 tau(  44) = (   0.7257200  -0.0018676   4.4929261  )
        45           Re1 tau(  45) = (   0.5000000   0.6532535   4.4944686  )
        46           O0  tau(  46) = (   0.7531300   0.9361149   4.4732944  )
        47           O0  tau(  47) = (   0.7494600   0.3687725   4.4974834  )
        48           O0  tau(  48) = (   0.5000000  -0.0226859   4.7749916  )
        49           O0  tau(  49) = (   0.5000000   0.6869231   4.8277168  )
        50           O0  tau(  50) = (   0.5000000   0.4226204   4.9953575  )
        51           H2  tau(  51) = (   0.5000000   0.5089103   5.1574593  )

     number of k points=     9  Methfessel-Paxton smearing, width (Ry)=  0.0100
                       cart. coord. in units 2pi/alat
        k(    1) = (   0.0000000   0.0000000   0.0000000), wk =   0.1250000
        k(    2) = (   0.0000000   0.1914188   0.0000000), wk =   0.2500000
        k(    3) = (   0.0000000  -0.3828376   0.0000000), wk =   0.1250000
        k(    4) = (   0.2500000   0.0000000   0.0000000), wk =   0.2500000
        k(    5) = (   0.2500000   0.1914188   0.0000000), wk =   0.5000000
        k(    6) = (   0.2500000  -0.3828376   0.0000000), wk =   0.2500000
        k(    7) = (  -0.5000000   0.0000000   0.0000000), wk =   0.1250000
        k(    8) = (  -0.5000000   0.1914188   0.0000000), wk =   0.2500000
        k(    9) = (  -0.5000000  -0.3828376   0.0000000), wk =   0.1250000

     Dense  grid:  1796147 G-vectors     FFT dimensions: (  75,  96, 512)

     Smooth grid:   325373 G-vectors     FFT dimensions: (  45,  54, 288)

     Largest allocated arrays     est. size (Mb)     dimensions
        Kohn-Sham Wavefunctions        52.26 Mb     (   5135,  667)
        NL pseudopotentials            74.91 Mb     (   5135,  956)
        Each V/rho on FFT grid          7.03 Mb     ( 460800)
        Each G-vector array             1.71 Mb     ( 224519)
        G-vector shells                 0.80 Mb     ( 104926)
     Largest temporary arrays     est. size (Mb)     dimensions
        Auxiliary wavefunctions       209.05 Mb     (   5135, 2668)
        Each subspace H/S matrix      108.62 Mb     (2668,2668)
        Each <psi_i|beta_j> matrix      9.73 Mb     (    956,  667)
        Arrays for rho mixing          56.25 Mb     ( 460800,   8)

     Check: negative/imaginary core charge=   -0.000003    0.000000

     Initial potential from superposition of free atoms
     Check: negative starting charge=   -0.473107

     starting charge  436.99922, renormalised to  445.00000

     negative rho (up, down):  0.482E+00 0.000E+00
     Starting wfc are  345 randomized atomic wfcs

     total cpu time spent up to now is      191.1 secs

     Self-consistent Calculation

     iteration #  1     ecut=    40.00 Ry     beta=0.30
     Davidson diagonalization with overlap
     ethr =  1.00E-02,  avg # of iterations =  5.7

     negative rho (up, down):  0.516E+00 0.000E+00

     total cpu time spent up to now is     1200.6 secs

     total energy              =   -4143.39700505 Ry
     Harris-Foulkes estimate   =   -4217.53815857 Ry
     estimated scf accuracy    <     147.39311468 Ry

     iteration #  2     ecut=    40.00 Ry     beta=0.30
     Davidson diagonalization with overlap
     ethr =  1.00E-02,  avg # of iterations =  8.0

     negative rho (up, down):  0.512E+00 0.000E+00

     total cpu time spent up to now is     2140.7 secs

     total energy              =   -3728.48704271 Ry
     Harris-Foulkes estimate   =   -4997.34420238 Ry
     estimated scf accuracy    <   39701.29231133 Ry

     iteration #  3     ecut=    40.00 Ry     beta=0.30
     Davidson diagonalization with overlap
     ethr =  1.00E-02,  avg # of iterations =  6.0

     negative rho (up, down):  0.507E+00 0.000E+00

     total cpu time spent up to now is     3134.4 secs

     total energy              =   -4186.83950061 Ry
     Harris-Foulkes estimate   =   -4242.83804355 Ry
     estimated scf accuracy    <    1527.43888641 Ry

     iteration #  4     ecut=    40.00 Ry     beta=0.30
     Davidson diagonalization with overlap
     ethr =  1.00E-02,  avg # of iterations =  4.0

     negative rho (up, down):  0.504E+00 0.000E+00

     total cpu time spent up to now is     3618.8 secs

     total energy              =   -4210.57053481 Ry
     Harris-Foulkes estimate   =   -4215.51043416 Ry
     estimated scf accuracy    <      57.99933457 Ry

     iteration #  5     ecut=    40.00 Ry     beta=0.30
     Davidson diagonalization with overlap
     ethr =  1.00E-02,  avg # of iterations =  2.0

     negative rho (up, down):  0.503E+00 0.000E+00

     total cpu time spent up to now is     3997.6 secs

     total energy              =   -4212.52623699 Ry
     Harris-Foulkes estimate   =   -4214.14031776 Ry
     estimated scf accuracy    <      12.63736657 Ry

     iteration #  6     ecut=    40.00 Ry     beta=0.30
     Davidson diagonalization with overlap
     ethr =  2.84E-03,  avg # of iterations =  3.9

     negative rho (up, down):  0.502E+00 0.000E+00

     total cpu time spent up to now is     4428.7 secs

     total energy              =   -4212.83897832 Ry
     Harris-Foulkes estimate   =   -4213.75582468 Ry
     estimated scf accuracy    <      13.04135764 Ry

     iteration #  7     ecut=    40.00 Ry     beta=0.30
     Davidson diagonalization with overlap
     ethr =  2.84E-03,  avg # of iterations =  1.0

     negative rho (up, down):  0.498E+00 0.000E+00

     total cpu time spent up to now is     4784.4 secs

     total energy              =   -4213.20534675 Ry
     Harris-Foulkes estimate   =   -4213.42823423 Ry
     estimated scf accuracy    <       2.98404082 Ry

     iteration #  8     ecut=    40.00 Ry     beta=0.30
     Davidson diagonalization with overlap
     ethr =  6.71E-04,  avg # of iterations =  3.4

     negative rho (up, down):  0.496E+00 0.000E+00

     total cpu time spent up to now is     5209.2 secs

     total energy              =   -4213.25062646 Ry
     Harris-Foulkes estimate   =   -4213.39110014 Ry
     estimated scf accuracy    <       1.64191508 Ry

     iteration #  9     ecut=    40.00 Ry     beta=0.30
     Davidson diagonalization with overlap
     ethr =  3.69E-04,  avg # of iterations =  4.9

     negative rho (up, down):  0.494E+00 0.000E+00

     total cpu time spent up to now is     5689.4 secs

     total energy              =   -4213.25386185 Ry
     Harris-Foulkes estimate   =   -4213.32972656 Ry
     estimated scf accuracy    <       1.22404712 Ry

     iteration # 10     ecut=    40.00 Ry     beta=0.30
     Davidson diagonalization with overlap
     ethr =  2.75E-04,  avg # of iterations =  4.6

     negative rho (up, down):  0.492E+00 0.000E+00

     total cpu time spent up to now is     6121.0 secs

     total energy              =   -4213.27269798 Ry
     Harris-Foulkes estimate   =   -4213.30537158 Ry
     estimated scf accuracy    <       0.47255251 Ry

     iteration # 11     ecut=    40.00 Ry     beta=0.30
     Davidson diagonalization with overlap
     ethr =  1.06E-04,  avg # of iterations =  5.4

     negative rho (up, down):  0.491E+00 0.000E+00

     total cpu time spent up to now is     6611.2 secs

     total energy              =   -4213.27802798 Ry
     Harris-Foulkes estimate   =   -4213.29382762 Ry
     estimated scf accuracy    <       0.10207979 Ry

     iteration # 12     ecut=    40.00 Ry     beta=0.30
     Davidson diagonalization with overlap
     ethr =  2.29E-05,  avg # of iterations =  6.2

     negative rho (up, down):  0.490E+00 0.000E+00

     total cpu time spent up to now is     7113.6 secs

     total energy              =   -4213.28081280 Ry
     Harris-Foulkes estimate   =   -4213.29208866 Ry
     estimated scf accuracy    <       0.08355280 Ry

     iteration # 13     ecut=    40.00 Ry     beta=0.30
     Davidson diagonalization with overlap
     ethr =  1.88E-05,  avg # of iterations =  1.9

     negative rho (up, down):  0.490E+00 0.000E+00

     total cpu time spent up to now is     7480.2 secs

     total energy              =   -4213.28520604 Ry
     Harris-Foulkes estimate   =   -4213.28808832 Ry
     estimated scf accuracy    <       0.02119575 Ry

     iteration # 14     ecut=    40.00 Ry     beta=0.30
     Davidson diagonalization with overlap
     ethr =  4.76E-06,  avg # of iterations =  4.4

     negative rho (up, down):  0.490E+00 0.000E+00

     total cpu time spent up to now is     7908.1 secs

     total energy              =   -4213.28609711 Ry
     Harris-Foulkes estimate   =   -4213.28786951 Ry
     estimated scf accuracy    <       0.02077701 Ry

     iteration # 15     ecut=    40.00 Ry     beta=0.30
     Davidson diagonalization with overlap
     ethr =  4.67E-06,  avg # of iterations =  1.0

     negative rho (up, down):  0.490E+00 0.000E+00

     total cpu time spent up to now is     8265.7 secs

     total energy              =   -4213.28610380 Ry
     Harris-Foulkes estimate   =   -4213.28769325 Ry
     estimated scf accuracy    <       0.02198566 Ry

     iteration # 16     ecut=    40.00 Ry     beta=0.30
     Davidson diagonalization with overlap
     ethr =  4.67E-06,  avg # of iterations =  5.6

     negative rho (up, down):  0.490E+00 0.000E+00

     total cpu time spent up to now is     8721.9 secs

     total energy              =   -4213.28645144 Ry
     Harris-Foulkes estimate   =   -4213.28784920 Ry
     estimated scf accuracy    <       0.03298639 Ry

     iteration # 17     ecut=    40.00 Ry     beta=0.30
     Davidson diagonalization with overlap
     ethr =  4.67E-06,  avg # of iterations =  3.4

     negative rho (up, down):  0.490E+00 0.000E+00

     total cpu time spent up to now is     9115.6 secs

     total energy              =   -4213.28697062 Ry
     Harris-Foulkes estimate   =   -4213.28743935 Ry
     estimated scf accuracy    <       0.01267068 Ry

     iteration # 18     ecut=    40.00 Ry     beta=0.30
     Davidson diagonalization with overlap
     ethr =  2.85E-06,  avg # of iterations =  1.2

     negative rho (up, down):  0.490E+00 0.000E+00

     total cpu time spent up to now is     9486.8 secs

     total energy              =   -4213.28701569 Ry
     Harris-Foulkes estimate   =   -4213.28755685 Ry
     estimated scf accuracy    <       0.01453033 Ry

     iteration # 19     ecut=    40.00 Ry     beta=0.30
     Davidson diagonalization with overlap
     ethr =  2.85E-06,  avg # of iterations =  2.6

     negative rho (up, down):  0.490E+00 0.000E+00

     total cpu time spent up to now is     9893.5 secs

     total energy              =   -4213.28726931 Ry
     Harris-Foulkes estimate   =   -4213.28736999 Ry
     estimated scf accuracy    <       0.00108424 Ry

     iteration # 20     ecut=    40.00 Ry     beta=0.30
     Davidson diagonalization with overlap
     ethr =  2.44E-07,  avg # of iterations =  1.0

     negative rho (up, down):  0.490E+00 0.000E+00

     total cpu time spent up to now is    10250.2 secs

     total energy              =   -4213.28730449 Ry
     Harris-Foulkes estimate   =   -4213.28736065 Ry
     estimated scf accuracy    <       0.00061880 Ry

     iteration # 21     ecut=    40.00 Ry     beta=0.30
     Davidson diagonalization with overlap
     ethr =  1.39E-07,  avg # of iterations =  1.0

     negative rho (up, down):  0.490E+00 0.000E+00

     total cpu time spent up to now is    10609.5 secs

     total energy              =   -4213.28731549 Ry
     Harris-Foulkes estimate   =   -4213.28735869 Ry
     estimated scf accuracy    <       0.00111699 Ry

     iteration # 22     ecut=    40.00 Ry     beta=0.30
     Davidson diagonalization with overlap
     ethr =  1.39E-07,  avg # of iterations =  1.0

     negative rho (up, down):  0.490E+00 0.000E+00

     total cpu time spent up to now is    10969.0 secs

     total energy              =   -4213.28733348 Ry
     Harris-Foulkes estimate   =   -4213.28734969 Ry
     estimated scf accuracy    <       0.00021287 Ry

     iteration # 23     ecut=    40.00 Ry     beta=0.30
     Davidson diagonalization with overlap
     ethr =  4.78E-08,  avg # of iterations =  1.0

     negative rho (up, down):  0.490E+00 0.000E+00

     total cpu time spent up to now is    11327.5 secs

     total energy              =   -4213.28733991 Ry
     Harris-Foulkes estimate   =   -4213.28734698 Ry
     estimated scf accuracy    <       0.00005753 Ry

     iteration # 24     ecut=    40.00 Ry     beta=0.30
     Davidson diagonalization with overlap
     ethr =  1.29E-08,  avg # of iterations =  1.0

     negative rho (up, down):  0.491E+00 0.000E+00

     total cpu time spent up to now is    11687.2 secs

     total energy              =   -4213.28734257 Ry
     Harris-Foulkes estimate   =   -4213.28734625 Ry
     estimated scf accuracy    <       0.00004662 Ry

     iteration # 25     ecut=    40.00 Ry     beta=0.30
     Davidson diagonalization with overlap
     ethr =  1.05E-08,  avg # of iterations =  1.0

     negative rho (up, down):  0.491E+00 0.000E+00

     total cpu time spent up to now is    12047.0 secs

     total energy              =   -4213.28734340 Ry
     Harris-Foulkes estimate   =   -4213.28734526 Ry
     estimated scf accuracy    <       0.00001602 Ry

     iteration # 26     ecut=    40.00 Ry     beta=0.30
     Davidson diagonalization with overlap
     ethr =  3.60E-09,  avg # of iterations =  1.0

     negative rho (up, down):  0.491E+00 0.000E+00

     total cpu time spent up to now is    12406.6 secs

     total energy              =   -4213.28734380 Ry
     Harris-Foulkes estimate   =   -4213.28734483 Ry
     estimated scf accuracy    <       0.00001251 Ry

     iteration # 27     ecut=    40.00 Ry     beta=0.30
     Davidson diagonalization with overlap
     ethr =  2.81E-09,  avg # of iterations =  1.0

     negative rho (up, down):  0.491E+00 0.000E+00

     total cpu time spent up to now is    12763.6 secs

     total energy              =   -4213.28734378 Ry
     Harris-Foulkes estimate   =   -4213.28734456 Ry
     estimated scf accuracy    <       0.00001529 Ry

     iteration # 28     ecut=    40.00 Ry     beta=0.30
     Davidson diagonalization with overlap
     ethr =  2.81E-09,  avg # of iterations =  1.0

     negative rho (up, down):  0.491E+00 0.000E+00

     total cpu time spent up to now is    13120.6 secs

     total energy              =   -4213.28734369 Ry
     Harris-Foulkes estimate   =   -4213.28734467 Ry
     estimated scf accuracy    <       0.00002627 Ry

     iteration # 29     ecut=    40.00 Ry     beta=0.30
     Davidson diagonalization with overlap
     ethr =  2.81E-09,  avg # of iterations =  1.0

     negative rho (up, down):  0.491E+00 0.000E+00

     total cpu time spent up to now is    13475.7 secs

     total energy              =   -4213.28734404 Ry
     Harris-Foulkes estimate   =   -4213.28734432 Ry
     estimated scf accuracy    <       0.00000239 Ry

     iteration # 30     ecut=    40.00 Ry     beta=0.30
     Davidson diagonalization with overlap
     ethr =  5.37E-10,  avg # of iterations =  1.0

     negative rho (up, down):  0.491E+00 0.000E+00

     total cpu time spent up to now is    13832.0 secs

     total energy              =   -4213.28734399 Ry
     Harris-Foulkes estimate   =   -4213.28734430 Ry
     estimated scf accuracy    <       0.00000389 Ry

     iteration # 31     ecut=    40.00 Ry     beta=0.30
     Davidson diagonalization with overlap
     ethr =  5.37E-10,  avg # of iterations =  1.0

     negative rho (up, down):  0.491E+00 0.000E+00

     total cpu time spent up to now is    14188.2 secs

     total energy              =   -4213.28734399 Ry
     Harris-Foulkes estimate   =   -4213.28734429 Ry
     estimated scf accuracy    <       0.00000599 Ry

     iteration # 32     ecut=    40.00 Ry     beta=0.30
     Davidson diagonalization with overlap
     ethr =  5.37E-10,  avg # of iterations =  1.0

     negative rho (up, down):  0.491E+00 0.000E+00

     total cpu time spent up to now is    14547.2 secs

     total energy              =   -4213.28734408 Ry
     Harris-Foulkes estimate   =   -4213.28734423 Ry
     estimated scf accuracy    <       0.00000444 Ry

     iteration # 33     ecut=    40.00 Ry     beta=0.30
     Davidson diagonalization with overlap
     ethr =  5.37E-10,  avg # of iterations =  1.0

     negative rho (up, down):  0.491E+00 0.000E+00

     total cpu time spent up to now is    14908.6 secs

     End of self-consistent calculation

          k = 0.0000 0.0000 0.0000 ( 40685 PWs)   bands (ev):

   -79.9507 -79.8664 -79.8076 -79.7459 -79.7441 -79.7332 -79.7045 -79.6904
   -79.6862 -79.6596 -79.6315 -79.6287 -79.6273 -79.5465 -79.3348 -79.2786
   -42.3984 -42.2767 -41.9930 -41.9762 -41.9413 -41.9412 -41.9024 -41.8592
   -41.8189 -41.7734 -41.7259 -41.7128 -41.7127 -41.6900 -41.6815 -41.6719
   -41.6688 -41.6641 -41.6350 -41.6243 -41.6221 -41.6210 -41.6176 -41.5912
   -41.5774 -41.5436 -41.5348 -41.5336 -41.5054 -41.4987 -41.4881 -41.4704
   -41.4353 -41.4213 -41.3008 -41.2935 -41.2479 -41.2430 -41.2384 -41.1521
   -41.1066 -41.1021 -41.0649 -41.0642 -41.0530 -41.0327 -40.9981 -40.7404
   -19.4580 -19.1722 -18.9325 -18.9233 -18.8536 -18.7371 -18.6040 -18.4585
   -18.3523 -18.1894 -18.1560 -18.0070 -17.9299 -17.8871 -17.8831 -17.8714
   -17.8480 -17.7277 -17.6937 -17.6913 -17.6709 -17.6433 -17.6259 -17.6113
   -17.5405 -17.5301 -17.5086 -17.4235 -17.3844 -16.5361 -16.2690 -15.7878
   -15.4747 -15.3770  -7.9658  -7.8658  -7.8037  -7.7525  -7.6133  -7.3919
    -7.0616  -6.9210  -6.7355  -6.7098  -6.4047  -6.3728  -6.3368  -6.2953
    -6.2372  -6.2291  -6.1355  -6.0714  -6.0614  -6.0109  -5.8840  -5.8600
    -5.7141  -5.6932  -5.6453  -5.6317  -5.5063  -5.5045  -5.4519  -5.4187
    -5.4069  -5.3726  -5.3485  -5.2831  -5.2648  -5.0044  -4.8963  -4.8546
    -4.7666  -4.5789  -4.4150  -4.3574  -4.2495  -4.2211  -4.0864  -4.0535
    -4.0361  -3.9882  -3.9615  -3.9502  -3.9371  -3.9061  -3.8156  -3.7514
    -3.7504  -3.5534  -3.4347  -3.4177  -3.2987  -3.2846  -3.1849  -3.1198
    -3.0484  -2.9874  -2.9806  -2.9692  -2.9614  -2.9308  -2.7843  -2.7313
    -2.7230  -2.6655  -2.6450  -2.5588  -2.4455  -2.3944  -2.3098  -2.2979
    -2.2109  -2.2083  -2.1025  -2.0137  -1.9939  -1.8870  -1.8777  -1.7503
    -1.7330  -1.6786  -1.6471  -1.5838  -1.5797  -1.5260  -1.5221  -1.5199
    -1.5137  -1.4641  -1.4303  -1.3225  -1.2490  -1.1083  -1.0638  -1.0124
    -0.8593  -0.7520  -0.5739  -0.2823   0.2634   0.3895   0.4024   0.7663
     0.8157   0.9686   1.0232   1.1175   1.2291   1.4200   1.6416   1.6742
     1.7354   1.7826   1.8298   1.8871   1.9845   2.0615   2.1286   2.1339
     2.2164   2.2533   2.3173   2.4205   2.4885   2.5076   2.5741   2.5908
     2.7320   2.8922   2.9680   3.0061   3.0600   3.2781   3.3927   3.7054
     3.9848   4.2985   4.4449   4.5262   4.7470   4.7714   4.7846   4.7961
     4.8504   4.9539   5.0133   5.1141   5.2652   5.2888   5.2931   5.3883
     5.3936   5.8186   5.8200   6.0587   6.0842   6.1216   6.1575   6.2400
     6.3746   6.3810   6.4331   6.4583   6.5295   6.5348   6.6304   6.7825
     6.7846   6.8573   6.8613   6.9005   6.9459   6.9588   6.9704   7.1397
     7.2155   7.3378   7.6455   7.7591   7.9330   8.0646   8.3613   8.6726
     8.7096   9.2552   9.4920   9.5136   9.5498   9.7940   9.8351   9.8352
    10.1300  10.1548  10.1965  10.3106  10.3277  10.3787  10.4260  10.4551
    10.5380  10.5542  10.5938  10.6348  10.7291  10.7393  10.8007  10.9129
    10.9297  10.9969  11.0866  11.1450  11.2628  11.3951  11.4386  11.4637
    11.5637  11.5854  11.6759  11.7005  11.7247  11.8372  11.9573  12.0541
    12.2153  12.2412  12.2560  12.3190  12.3808  12.3924  12.4361  12.5657
    12.6128  12.6961  12.7523  12.9425  12.9945  13.1549  13.1666  13.1885
    13.1964  13.2626  13.2986  13.4042  13.4607  13.5567  13.5741  13.6483
    13.7183  13.7731  13.7740  13.8659  14.0641  14.0961  14.1052  14.1558
    14.1688  14.2636  14.4568  14.4684  14.5690  14.6011  14.7283  14.7401
    14.8864  14.9224  14.9328  14.9674  15.0257  15.0552  15.1117  15.1275
    15.1701  15.2633  15.2816  15.3078  15.3464  15.3853  15.3951  15.4076
    15.4590  15.4968  15.4987  15.5266  15.5957  15.6433  15.6733  15.7278
    15.7716  15.7805  15.8346  15.8717  15.8728  16.0324  16.0416  16.1083
    16.1472  16.1872  16.2489  16.3112  16.3254  16.4562  16.5552  16.6652
    16.6671  16.7105  16.7405  16.7844  16.8710  16.8873  16.9537  16.9764
    17.0061  17.0928  17.1058  17.1607  17.2115  17.3030  17.3365  17.3772
    17.4445  17.4742  17.5250  17.6285  17.6584  17.7204  17.7264  17.8102
    17.8795  17.9005  17.9210  17.9948  18.0242  18.1520  18.2402  18.4341
    18.5404  18.6271  18.6458  18.6571  18.7122  18.7532  18.7941  18.8819
    18.9382  18.9786  19.0011  19.1498  19.2287  19.3428  19.4100  19.5372
    19.5599  19.5875  19.6157  19.6881  19.7164  19.7268  19.8278  19.8297
    19.8605  19.9393  19.9426  19.9673  19.9705  20.0496  20.0602  20.1565
    20.1686  20.1725  20.2411  20.3180  20.3740  20.4387  20.5046  20.5424
    20.6513  20.6736  20.7127  20.7413  20.7669  20.7991  20.8386  20.8852
    21.0446  21.0691  21.1168  21.1350  21.1573  21.1762  21.2073  21.3069
    21.3181  21.3848  21.4069  21.4294  21.4340  21.5095  21.5530  21.5743
    21.6134  21.7942  21.8068  21.9126  22.0566  22.0999  22.1917  22.1954
    22.2909  22.2977  22.3039  22.3639  22.4768  22.4903  22.4964  22.5662
    22.6627  22.7526  22.7669  22.8287  22.9601  23.0349  23.0920  23.1190
    23.1746  23.2883  23.2979  23.3021  23.3474  23.3723  23.3838  23.5021
    23.5177  23.6009  23.6574  23.7225  23.7888  23.8445  23.8504  23.9316
    23.9635  23.9847  24.0199  24.0713  24.1872  24.2738  24.3142  24.3414
    24.3508  24.4029  24.4201  24.4328  24.4842  24.4842  24.5375  24.5435
    24.5488  24.5883  24.5982  24.6174  24.6380  24.7130  24.7466  24.7565
    24.7635  24.7885  24.7973  24.8294  24.8733  24.9188  24.9854  25.0176
    25.0315  25.0807  25.0932  25.1385  25.2493  25.2945  25.3374  25.3937
    25.4160  25.5002  25.5173  25.5799  25.5901  25.6188  25.6869  25.7351
    25.7510  25.7804  25.8440  25.8460  25.8707  25.9229  26.0818  26.1389
    26.1729  26.1890  26.2360  26.2721  26.3449  26.3745  26.4464  26.4804
    26.5894  26.6044  26.6541  26.7254  26.7963  26.8197  26.8251  26.8491
    26.9803  26.9853  27.0037  27.1621  27.1862  27.2151  27.2378  27.2808
    27.3775  27.4322  27.4536  27.4705  27.5016  27.5462  27.5560  27.6259
    27.6545  27.7259  27.7674  27.8930  27.9566  27.9733  28.0066  28.0241
    28.0426  28.0891  28.1022  28.1554  28.2223  28.2348  28.2640  28.3015
    28.3205  28.3610  28.4026  28.4455  28.4686  28.4931  28.5188  28.5522
    28.5922  28.6461  28.7182  28.7312  28.7628  28.7969  28.8256  28.8618
    28.9112  28.9603  29.0077

          k = 0.0000 0.1914 0.0000 ( 40591 PWs)   bands (ev):

   -79.9507 -79.8664 -79.8076 -79.7459 -79.7441 -79.7332 -79.7045 -79.6904
   -79.6862 -79.6596 -79.6315 -79.6287 -79.6273 -79.5465 -79.3348 -79.2786
   -42.3985 -42.2767 -41.9936 -41.9763 -41.9421 -41.9416 -41.9024 -41.8593
   -41.8132 -41.7711 -41.7258 -41.7128 -41.7111 -41.6891 -41.6872 -41.6710
   -41.6641 -41.6590 -41.6376 -41.6344 -41.6216 -41.6181 -41.6076 -41.6017
   -41.5773 -41.5437 -41.5351 -41.5329 -41.5054 -41.5002 -41.4880 -41.4707
   -41.4354 -41.4213 -41.3008 -41.2935 -41.2498 -41.2434 -41.2384 -41.1520
   -41.1064 -41.1019 -41.0650 -41.0643 -41.0528 -41.0329 -40.9981 -40.7404
   -19.3781 -19.0828 -18.8959 -18.8149 -18.7637 -18.6873 -18.5816 -18.4467
   -18.3508 -18.2546 -18.2035 -18.1952 -18.1605 -18.1263 -18.1116 -17.9288
   -17.8682 -17.8160 -17.7824 -17.7469 -17.7051 -17.6701 -17.5868 -17.4228
   -17.4180 -17.3801 -17.3783 -17.3076 -17.2768 -16.5325 -16.2713 -15.7849
   -15.4712 -15.3768  -7.7218  -7.5439  -7.4362  -7.3730  -7.3236  -7.2424
    -7.0604  -6.9326  -6.8358  -6.7491  -6.7234  -6.6749  -6.6672  -6.6351
    -6.5735  -6.5402  -6.4969  -6.4924  -6.3640  -6.3265  -6.1709  -6.1636
    -5.9812  -5.8927  -5.7174  -5.6848  -5.2773  -5.2026  -5.1768  -5.1512
    -5.0919  -4.9231  -4.8453  -4.7989  -4.7417  -4.6979  -4.6722  -4.6549
    -4.4806  -4.3914  -4.3594  -4.3467  -4.3414  -4.3354  -4.1741  -4.1730
    -4.0962  -4.0730  -4.0398  -3.9530  -3.9519  -3.9340  -3.8925  -3.8594
    -3.8145  -3.7530  -3.7224  -3.6846  -3.5176  -3.4063  -3.2957  -3.2471
    -3.1261  -3.0613  -3.0463  -2.9396  -2.8644  -2.8247  -2.7591  -2.7472
    -2.6333  -2.5839  -2.5047  -2.4894  -2.4515  -2.3831  -2.2583  -2.2544
    -2.2054  -2.1304  -2.1222  -2.0932  -2.0296  -1.9226  -1.8571  -1.8148
    -1.7846  -1.7813  -1.7387  -1.6923  -1.6779  -1.6189  -1.4720  -1.4065
    -1.3683  -1.2799  -1.1464  -1.1183  -1.0863  -1.0397  -1.0033  -0.9066
    -0.8232  -0.7621  -0.6066  -0.2974   0.1928   0.2140   0.2655   0.3236
     0.4430   0.5324   0.7687   0.7866   1.1511   1.1782   1.3893   1.5217
     1.7230   1.9312   2.1053   2.3294   2.4131   2.4329   2.4396   2.4883
     2.5161   2.5195   2.5680   2.6038   2.6235   2.6457   2.6586   2.6631
     2.7247   2.8952   2.9589   3.0215   3.0832   3.1697   3.3170   3.4626
     3.8421   4.0870   4.3506   4.7345   4.7721   4.8352   4.8868   4.9625
     4.9908   4.9922   5.0483   5.1051   5.1226   5.2138   5.2210   5.3081
     5.4553   5.4781   5.5232   5.6565   5.7708   5.8196   5.8764   5.9182
     6.0161   6.1133   6.1388   6.1649   6.3148   6.4802   6.5021   6.5045
     6.8317   6.8808   6.9777   7.1126   7.3076   7.4988   7.7213   7.8009
     7.9013   8.0222   8.0654   8.1223   8.2668   8.3157   8.3660   8.4787
     8.6134   8.6879   8.8358   8.9686   9.1835   9.2687   9.3914   9.5746
     9.6840   9.7301   9.7583   9.9898  10.0778  10.0827  10.4081  10.5288
    10.5803  10.6524  10.7092  10.7910  10.9573  10.9876  11.0713  11.1750
    11.2454  11.3356  11.3510  11.4583  11.4867  11.5512  11.7414  11.7814
    11.8216  11.8633  11.9301  11.9638  12.0501  12.1400  12.2322  12.2694
    12.4006  12.4813  12.5252  12.5536  12.5850  12.6704  12.6948  12.7746
    12.8348  12.8964  12.9218  13.0748  13.1244  13.2205  13.2478  13.3082
    13.3375  13.4117  13.4298  13.4443  13.5099  13.5141  13.5594  13.6569
    13.7359  13.7709  13.8243  13.8605  13.8672  13.9154  14.0174  14.0368
    14.0616  14.1010  14.1063  14.2098  14.2794  14.2951  14.3464  14.3879
    14.4380  14.4777  14.5782  14.6581  14.7344  14.7598  14.8109  14.8390
    14.9183  14.9725  15.1182  15.2318  15.2476  15.2577  15.2764  15.2901
    15.3186  15.3941  15.4357  15.4605  15.4939  15.5544  15.5806  15.7255
    15.7520  15.8647  15.9134  15.9900  16.0402  16.1015  16.1107  16.1528
    16.2563  16.3525  16.3837  16.3886  16.4151  16.5423  16.5694  16.6519
    16.6909  16.7160  16.7787  16.7841  16.8063  16.9420  16.9463  17.0305
    17.0729  17.0955  17.1343  17.1397  17.1519  17.2611  17.2936  17.3454
    17.4007  17.4542  17.4796  17.4988  17.5646  17.5796  17.6592  17.7488
    17.8757  17.9482  17.9730  18.0172  18.0939  18.1326  18.1932  18.1978
    18.2224  18.3639  18.4096  18.5232  18.5915  18.7056  18.7062  18.7719
    18.8048  18.9300  19.0046  19.0635  19.0757  19.1332  19.1618  19.2063
    19.2433  19.3351  19.4250  19.4424  19.4799  19.6011  19.6797  19.7364
    19.8155  19.8496  19.8530  19.9347  19.9527  19.9960  20.1707  20.1741
    20.2990  20.3091  20.3444  20.4178  20.4864  20.5180  20.5572  20.6124
    20.6523  20.7182  20.7967  20.8255  20.8383  20.8724  20.9412  21.0202
    21.0382  21.0584  21.1255  21.1734  21.2178  21.2800  21.3641  21.3689
    21.4854  21.5510  21.6923  21.7142  21.7333  21.7812  21.8200  21.8342
    21.8713  21.9449  21.9689  22.0415  22.0699  22.1134  22.1710  22.2292
    22.2525  22.3178  22.3557  22.3825  22.4350  22.4666  22.4872  22.5357
    22.5710  22.6645  22.6973  22.7276  22.7470  22.7482  22.8104  22.8190
    22.8689  22.9697  23.0543  23.0983  23.1469  23.2119  23.2965  23.3091
    23.3511  23.3854  23.4305  23.4538  23.5091  23.5322  23.6217  23.6345
    23.6892  23.7929  23.7981  23.8362  23.9191  23.9466  23.9735  24.0327
    24.1153  24.1217  24.1800  24.2437  24.2766  24.3917  24.3961  24.4558
    24.5406  24.5520  24.5948  24.6303  24.6313  24.6973  24.7060  24.7787
    24.8025  24.8595  24.8794  24.9044  24.9292  25.0052  25.0277  25.1294
    25.1853  25.1904  25.2144  25.2342  25.3357  25.3728  25.4028  25.4707
    25.5686  25.5907  25.5960  25.6420  25.6891  25.7880  25.8853  25.9730
    25.9756  26.0617  26.1405  26.1684  26.2085  26.2497  26.2535  26.3281
    26.3611  26.4664  26.5543  26.5628  26.6692  26.6855  26.7072  26.7870
    26.8392  26.9241  26.9714  27.0707  27.0809  27.1869  27.3031  27.3122
    27.3869  27.4315  27.4808  27.4877  27.5374  27.6101  27.6138  27.6643
    27.7119  27.7931  27.8305  27.8367  27.8733  27.8979  27.9440  27.9782
    28.0355  28.0585  28.1433  28.1547  28.1891  28.2139  28.2565  28.3089
    28.3364  28.3542  28.3862  28.4251  28.4284  28.4480  28.5081  28.5453
    28.5801  28.5956  28.6125  28.6650  28.6655  28.7292  28.7376  28.7988
    28.8265  28.8335  28.8899  28.9335  29.0116  29.0255  29.0687  29.0992
    29.1274  29.1664  29.3096

          k = 0.0000-0.3828 0.0000 ( 40666 PWs)   bands (ev):

   -79.9507 -79.8664 -79.8076 -79.7459 -79.7441 -79.7332 -79.7045 -79.6904
   -79.6862 -79.6596 -79.6315 -79.6287 -79.6273 -79.5465 -79.3348 -79.2786
   -42.3986 -42.2768 -41.9941 -41.9764 -41.9429 -41.9422 -41.9024 -41.8594
   -41.8069 -41.7688 -41.7258 -41.7127 -41.7095 -41.6936 -41.6882 -41.6709
   -41.6641 -41.6437 -41.6400 -41.6338 -41.6210 -41.6207 -41.6188 -41.6014
   -41.5772 -41.5439 -41.5356 -41.5324 -41.5053 -41.5017 -41.4880 -41.4711
   -41.4354 -41.4213 -41.3008 -41.2935 -41.2517 -41.2440 -41.2385 -41.1520
   -41.1064 -41.1018 -41.0652 -41.0644 -41.0525 -41.0332 -40.9981 -40.7405
   -19.2858 -19.0027 -18.8435 -18.7426 -18.6903 -18.5068 -18.3985 -18.3893
   -18.3597 -18.3423 -18.3406 -18.2963 -18.2652 -18.2398 -18.2253 -18.1099
   -18.0153 -17.9526 -17.9419 -17.8344 -17.8330 -17.6813 -17.6021 -17.4158
   -17.3766 -17.2422 -17.1952 -17.1228 -17.1061 -16.5300 -16.2735 -15.7823
   -15.4677 -15.3766  -7.6752  -7.4768  -7.1341  -7.1113  -7.0809  -7.0349
    -7.0188  -6.9559  -6.8916  -6.8890  -6.8437  -6.7543  -6.6945  -6.6875
    -6.6669  -6.6028  -6.5831  -6.4564  -6.3660  -6.3284  -6.1269  -6.0646
    -5.8879  -5.7188  -5.7083  -5.6742  -5.6081  -5.5751  -5.4946  -5.4876
    -5.2855  -5.2571  -5.1890  -5.0455  -4.9655  -4.7986  -4.7274  -4.6264
    -4.5899  -4.3847  -4.3588  -4.2188  -4.1715  -4.0667  -3.9884  -3.9826
    -3.9718  -3.9236  -3.8645  -3.8243  -3.7824  -3.7670  -3.7510  -3.6568
    -3.6116  -3.5840  -3.5284  -3.5168  -3.4181  -3.4067  -3.3954  -3.3607
    -3.2899  -3.2592  -3.1560  -3.0192  -3.0021  -2.9747  -2.8029  -2.6655
    -2.5694  -2.5598  -2.5377  -2.4406  -2.3641  -2.2858  -2.2295  -2.1746
    -2.1586  -2.0906  -2.0857  -2.0687  -2.0003  -1.9326  -1.8933  -1.8886
    -1.8850  -1.8732  -1.8127  -1.7854  -1.7592  -1.6340  -1.5358  -1.3955
    -1.3572  -1.2704  -1.1724  -1.1309  -1.1047  -0.8310  -0.8032  -0.7811
    -0.7698  -0.5418  -0.4658  -0.3065  -0.1605  -0.0611   0.1523   0.1544
     0.1757   0.1779   0.2673   0.7905   0.9324   1.2988   1.3484   1.7256
     1.8918   2.0414   2.2072   2.2761   2.4140   2.5204   2.5305   2.5436
     2.5843   2.7029   2.7051   2.7602   2.8296   2.8889   2.9324   2.9538
     2.9927   3.0205   3.0662   3.1136   3.1619   3.2258   3.2897   3.3434
     3.7088   3.7835   4.2241   4.3042   4.3877   4.4828   4.5390   4.8769
     4.8825   4.9545   4.9612   5.1053   5.2879   5.3025   5.3591   5.3613
     5.3812   5.4001   5.4537   5.5159   5.6427   5.7422   5.8180   5.8316
     6.1293   6.1425   6.1901   6.4927   6.5042   6.5097   6.6015   6.6188
     6.7502   6.9022   7.0839   7.1175   7.6953   7.8001   7.8750   7.9086
     8.0045   8.0214   8.1057   8.1496   8.3073   8.3111   8.4645   8.5051
     8.5359   8.5927   8.6069   8.6538   8.8789   8.9333   9.1129   9.1749
     9.3496   9.4332   9.6243   9.9697   9.9997  10.1658  10.2745  10.3341
    10.6975  10.7072  10.7224  10.8050  10.9379  10.9982  11.0467  11.1322
    11.1807  11.3304  11.3809  11.5734  11.8825  11.9023  11.9873  12.0187
    12.1166  12.1258  12.4423  12.4912  12.5124  12.6803  12.7293  12.7433
    12.7447  12.7937  12.8297  12.9771  12.9941  13.0037  13.0262  13.0691
    13.1197  13.1237  13.1626  13.1698  13.2641  13.2810  13.2917  13.3196
    13.3284  13.3719  13.3817  13.4260  13.4874  13.5006  13.5088  13.5530
    13.5939  13.6651  13.7126  13.7699  13.7980  13.9007  13.9091  13.9460
    13.9966  14.0186  14.0247  14.0567  14.2052  14.2276  14.2889  14.2920
    14.3426  14.3431  14.4038  14.4347  14.4652  14.5006  14.5737  14.6122
    14.6211  14.8514  14.8936  14.9854  15.0346  15.0406  15.0811  15.0915
    15.1623  15.1748  15.2002  15.2973  15.3981  15.4498  15.4818  15.5663
    15.6275  15.6437  15.6544  15.7151  15.7152  15.7927  15.8640  15.8734
    15.8989  15.9962  16.0818  16.1940  16.2823  16.3568  16.3683  16.3707
    16.4334  16.4392  16.5903  16.6338  16.6773  16.6936  16.7807  16.8422
    17.0138  17.0623  17.1045  17.1551  17.2053  17.2648  17.2808  17.4292
    17.4346  17.4870  17.4942  17.7963  17.8383  17.8590  17.9809  18.0548
    18.1808  18.1914  18.3636  18.3939  18.4103  18.4195  18.5621  18.6689
    18.7730  18.7967  18.8132  18.9006  18.9341  18.9840  19.0202  19.0398
    19.0480  19.0609  19.1259  19.1329  19.2119  19.2168  19.2310  19.2423
    19.2846  19.3492  19.3839  19.4031  19.4408  19.4985  19.6041  19.6287
    19.6445  19.6771  19.7054  19.7977  19.8055  19.9259  19.9423  19.9836
    19.9879  20.0175  20.0365  20.1023  20.1382  20.2256  20.2697  20.3735
    20.4325  20.4569  20.5290  20.5535  20.5850  20.5914  20.6255  20.6494
    20.6519  20.7756  20.8003  20.8333  20.8903  20.9209  21.0182  21.0708
    21.1988  21.2691  21.3194  21.3697  21.4837  21.5675  21.6609  21.7069
    21.7939  21.8183  21.8352  21.8604  22.0732  22.0788  22.1146  22.1416
    22.1785  22.2095  22.2591  22.3441  22.4380  22.4399  22.5119  22.5260
    22.5358  22.5642  22.6228  22.6288  22.7263  22.8137  22.8376  22.8594
    22.9356  22.9528  23.0086  23.1446  23.2102  23.2167  23.2226  23.2476
    23.3682  23.3794  23.5371  23.5374  23.5791  23.6500  23.6846  23.7155
    23.7200  23.8558  23.9027  23.9348  24.0292  24.0599  24.1500  24.2160
    24.2670  24.3234  24.3451  24.3626  24.4604  24.5114  24.5505  24.5649
    24.5758  24.6749  24.6763  24.7222  24.7872  24.8299  24.8805  24.9046
    24.9373  25.0114  25.0479  25.1441  25.1808  25.2179  25.3068  25.3747
    25.4513  25.5415  25.5899  25.6611  25.6757  25.7713  25.8056  25.8627
    25.9266  25.9511  26.0299  26.0368  26.0730  26.0830  26.2012  26.2081
    26.2687  26.2744  26.3117  26.3867  26.4148  26.4448  26.4704  26.5352
    26.6240  26.6462  26.6938  26.7158  26.7650  26.8135  26.8274  26.9495
    26.9629  26.9906  27.0341  27.1102  27.1664  27.1719  27.1732  27.2026
    27.2956  27.3485  27.4188  27.4247  27.5482  27.5720  27.5901  27.6303
    27.6343  27.7007  27.7842  27.8352  27.8564  27.8952  27.9876  28.0315
    28.0602  28.1245  28.1448  28.2274  28.2289  28.2476  28.2703  28.3840
    28.4976  28.4986  28.5629  28.5789  28.6136  28.6350  28.6455  28.7269
    28.7333  28.7612  28.7906  28.8017  28.8040  28.8168  28.9148  28.9161
    28.9417  28.9938  29.0096  29.0397  29.0658  29.0925  29.1294  29.1426
    29.1719  29.1724  29.2234

          k = 0.2500 0.0000 0.0000 ( 40634 PWs)   bands (ev):

   -79.9456 -79.8716 -79.8035 -79.7394 -79.7377 -79.7295 -79.7087 -79.6985
   -79.6782 -79.6645 -79.6396 -79.6311 -79.6237 -79.5515 -79.3267 -79.2867
   -42.3024 -42.1913 -41.8848 -41.8838 -41.8542 -41.8199 -41.8194 -41.8069
   -41.7645 -41.7393 -41.7311 -41.7055 -41.7035 -41.6998 -41.6654 -41.6623
   -41.6556 -41.6514 -41.6445 -41.6372 -41.6096 -41.6059 -41.5992 -41.5822
   -41.5622 -41.5487 -41.5439 -41.5121 -41.4972 -41.4930 -41.4908 -41.4833
   -41.4367 -41.4164 -41.4027 -41.3210 -41.2533 -41.2380 -41.2277 -41.2242
   -41.1987 -41.1984 -41.1742 -41.1647 -41.1325 -41.1301 -41.1275 -40.8757
   -19.2803 -19.0179 -18.8089 -18.7932 -18.7049 -18.6598 -18.5443 -18.3533
   -18.3067 -18.1548 -18.0993 -18.0272 -17.9507 -17.9105 -17.8788 -17.8761
   -17.8473 -17.8246 -17.8114 -17.7948 -17.7512 -17.7125 -17.6878 -17.6534
   -17.6513 -17.5699 -17.5588 -17.5090 -17.3919 -16.5497 -16.3890 -15.7588
   -15.4749 -15.4738  -7.6024  -7.5261  -7.4514  -7.4117  -7.3599  -7.1934
    -7.1487  -6.7464  -6.4972  -6.3391  -6.3040  -6.2710  -6.2356  -6.1645
    -6.1183  -6.1041  -6.0721  -6.0615  -6.0027  -5.9511  -5.8963  -5.8525
    -5.8402  -5.7369  -5.6607  -5.5994  -5.5457  -5.4313  -5.3581  -5.3089
    -5.2592  -5.2394  -5.1730  -5.1150  -4.9867  -4.8879  -4.8274  -4.7899
    -4.7540  -4.7237  -4.6970  -4.6378  -4.5505  -4.5220  -4.4757  -4.4087
    -4.2912  -4.1754  -3.9899  -3.9082  -3.8740  -3.8606  -3.7056  -3.6773
    -3.5871  -3.4959  -3.4208  -3.2731  -3.2580  -3.2321  -3.1387  -3.0680
    -3.0000  -2.9667  -2.9477  -2.9098  -2.8499  -2.8440  -2.8242  -2.8082
    -2.7925  -2.7862  -2.7382  -2.6980  -2.6758  -2.6347  -2.6052  -2.4735
    -2.4652  -2.4335  -2.3915  -2.3142  -2.3097  -2.2326  -2.1497  -2.0021
    -1.9671  -1.9091  -1.8025  -1.6799  -1.6502  -1.6339  -1.3126  -1.3088
    -1.2412  -1.1359  -1.0341  -0.8663  -0.8184  -0.8144  -0.7893  -0.6615
    -0.6429  -0.5797  -0.5670  -0.4724   0.3595   0.4680   0.5722   0.6292
     0.7223   0.7991   0.9892   1.0344   1.1765   1.2723   1.4165   1.5013
     1.6230   1.7042   1.7524   1.9669   1.9820   2.0564   2.1132   2.1445
     2.1772   2.2019   2.2516   2.2680   2.4466   2.5514   2.6733   2.7516
     2.7950   2.8668   2.9111   2.9522   3.0210   3.1555   3.1862   3.2180
     3.2586   3.3882   3.4349   3.5483   3.6052   3.6433   3.8916   4.0036
     4.1994   4.3540   4.4339   4.8573   5.2241   5.3535   5.5409   5.6285
     5.7417   5.8193   5.8246   5.9810   6.1268   6.1324   6.2673   6.3128
     6.3264   6.3841   6.4444   6.4919   6.6083   6.6693   6.6837   6.6975
     6.7516   6.8017   6.8425   6.8529   6.9543   7.0243   7.1018   7.4097
     7.5233   7.6176   7.7034   8.0386   8.0734   8.1816   8.5496   8.7998
     8.8405   9.0153   9.2111   9.6887   9.8092   9.8118   9.9330   9.9847
    10.0329  10.1472  10.2121  10.3040  10.3902  10.4873  10.5189  10.6017
    10.6300  10.6692  10.6853  10.7544  10.7768  10.9211  10.9606  11.0052
    11.0640  11.0793  11.1436  11.1604  11.1882  11.2461  11.3205  11.4029
    11.5012  11.6175  11.7007  11.7182  11.7474  11.7910  11.8745  11.8962
    12.0176  12.1286  12.2110  12.3092  12.3452  12.4145  12.4707  12.5818
    12.6238  12.6613  12.7482  12.8592  12.8713  12.9207  13.0851  13.1242
    13.2234  13.2801  13.3675  13.4159  13.4515  13.4888  13.5943  13.6322
    13.6793  13.6899  13.9085  13.9570  14.0028  14.1262  14.1545  14.1850
    14.2306  14.2640  14.3032  14.3137  14.3839  14.4991  14.6758  14.7055
    14.7745  14.8396  14.8695  14.8934  15.1209  15.1519  15.2258  15.2375
    15.2683  15.3190  15.3482  15.4025  15.4099  15.4739  15.4970  15.5568
    15.6744  15.7456  15.7922  15.8090  15.8802  15.9547  15.9994  16.0150
    16.0318  16.1934  16.2215  16.2456  16.2577  16.3305  16.3413  16.4296
    16.5315  16.5605  16.6898  16.7651  16.7845  16.8097  16.8551  16.9387
    16.9574  17.0169  17.0996  17.1388  17.1865  17.2510  17.3116  17.3500
    17.3792  17.4752  17.5034  17.6447  17.6548  17.7414  17.8202  17.9414
    17.9551  18.0529  18.1194  18.1466  18.2224  18.2929  18.3255  18.3554
    18.3690  18.4098  18.4974  18.5079  18.5994  18.6353  18.7268  18.7379
    18.8575  18.8898  18.9643  18.9956  19.0105  19.0906  19.1425  19.1544
    19.1740  19.2287  19.3182  19.3380  19.3558  19.3844  19.4467  19.4695
    19.6036  19.6363  19.6798  19.6978  19.7312  19.7880  19.8414  19.8613
    19.9022  19.9524  19.9843  20.0253  20.0439  20.0796  20.1694  20.1928
    20.2592  20.2744  20.3470  20.3550  20.4630  20.4972  20.5267  20.5957
    20.6080  20.6743  20.7232  20.7690  20.8085  20.9068  20.9408  20.9760
    21.0047  21.0520  21.1240  21.1650  21.2453  21.2587  21.3144  21.3388
    21.4001  21.4490  21.4859  21.5223  21.5426  21.5993  21.6515  21.6781
    21.7639  21.8349  21.9221  21.9740  22.0173  22.0508  22.1513  22.1800
    22.2397  22.2835  22.3065  22.3165  22.3481  22.4058  22.4397  22.4787
    22.5665  22.6092  22.6766  22.7034  22.7482  22.7808  22.8154  22.8784
    22.9069  22.9667  23.0193  23.0536  23.0952  23.1418  23.1870  23.2090
    23.2518  23.3292  23.3804  23.4516  23.4550  23.5052  23.5354  23.5979
    23.6412  23.6808  23.7514  23.7887  23.8558  23.8827  23.9371  23.9840
    24.0066  24.0584  24.0959  24.1497  24.1969  24.2147  24.2366  24.2764
    24.3398  24.4009  24.4264  24.4842  24.5177  24.5629  24.6170  24.6272
    24.6737  24.7083  24.7877  24.8021  24.8137  24.8497  24.8838  24.9220
    25.0188  25.0225  25.0575  25.1334  25.1802  25.1995  25.2323  25.3123
    25.3506  25.3926  25.4614  25.5106  25.5850  25.6274  25.6423  25.6680
    25.7580  25.7987  25.8018  25.8842  25.9444  25.9898  26.0657  26.0889
    26.1391  26.1669  26.1869  26.2186  26.2685  26.3177  26.3403  26.3740
    26.3836  26.4828  26.4874  26.5190  26.5549  26.5828  26.6283  26.7167
    26.7621  26.7811  26.8060  26.8245  26.8769  26.8994  26.9793  27.0528
    27.0645  27.0897  27.1743  27.1779  27.2435  27.2765  27.3014  27.3404
    27.4165  27.4688  27.4882  27.5293  27.5582  27.5861  27.6077  27.6548
    27.6933  27.7252  27.7396  27.7940  27.8225  27.8558  27.8712  27.9029
    27.9315  27.9605  27.9947  28.0147  28.0571  28.0679  28.0874  28.1200
    28.1774  28.2012  28.2497  28.3216  28.3448  28.3947  28.4484  28.5119
    28.5560  28.6317  28.6388

          k = 0.2500 0.1914 0.0000 ( 40623 PWs)   bands (ev):

   -79.9456 -79.8716 -79.8035 -79.7394 -79.7377 -79.7295 -79.7087 -79.6985
   -79.6782 -79.6645 -79.6396 -79.6311 -79.6237 -79.5515 -79.3267 -79.2867
   -42.3024 -42.1914 -41.8848 -41.8845 -41.8543 -41.8215 -41.8206 -41.8019
   -41.7628 -41.7393 -41.7311 -41.7055 -41.7003 -41.6985 -41.6677 -41.6653
   -41.6556 -41.6430 -41.6416 -41.6384 -41.6091 -41.6064 -41.5992 -41.5910
   -41.5631 -41.5470 -41.5441 -41.5121 -41.4957 -41.4930 -41.4925 -41.4855
   -41.4367 -41.4164 -41.4026 -41.3210 -41.2540 -41.2378 -41.2294 -41.2242
   -41.1986 -41.1984 -41.1741 -41.1647 -41.1326 -41.1300 -41.1276 -40.8757
   -19.2163 -18.9443 -18.7706 -18.7263 -18.6838 -18.5437 -18.4892 -18.3465
   -18.3065 -18.2418 -18.2154 -18.1478 -18.1100 -18.0885 -18.0656 -17.9578
   -17.8852 -17.8383 -17.7968 -17.7817 -17.7200 -17.7058 -17.6749 -17.5908
   -17.5326 -17.5103 -17.4580 -17.4368 -17.3755 -16.5475 -16.3926 -15.7570
   -15.4749 -15.4712  -7.4393  -7.2667  -7.2033  -7.1383  -7.0698  -7.0393
    -6.9883  -6.8432  -6.7826  -6.7402  -6.6657  -6.6464  -6.4780  -6.3336
    -6.2891  -6.2422  -6.1662  -6.1221  -6.0488  -6.0077  -5.9924  -5.8796
    -5.7744  -5.7293  -5.6140  -5.5684  -5.3951  -5.3506  -5.3177  -5.2441
    -5.2283  -5.1954  -5.1072  -5.0555  -4.9725  -4.9319  -4.9087  -4.7955
    -4.7008  -4.6263  -4.5809  -4.5190  -4.4643  -4.2518  -4.1959  -4.0702
    -4.0253  -3.9669  -3.9177  -3.8704  -3.8109  -3.8016  -3.7490  -3.6849
    -3.6390  -3.5091  -3.4769  -3.4170  -3.3913  -3.3197  -3.2669  -3.2488
    -3.2235  -3.1985  -3.1773  -3.1297  -3.0343  -3.0165  -2.9284  -2.9187
    -2.8950  -2.8323  -2.8062  -2.7488  -2.7149  -2.6759  -2.6409  -2.5099
    -2.3852  -2.3704  -2.3407  -2.2822  -2.2234  -2.1836  -2.1090  -2.0020
    -1.9405  -1.8935  -1.8479  -1.7492  -1.6786  -1.6328  -1.3499  -1.3214
    -1.2966  -1.2231  -1.0622  -0.8481  -0.7996  -0.7826  -0.5877  -0.5589
    -0.3655  -0.3335  -0.1503  -0.0886   0.1914   0.3529   0.4130   0.5669
     0.6134   0.6525   0.7096   0.8037   1.0763   1.2087   1.4449   1.6114
     1.6804   1.8142   1.9386   2.0109   2.1073   2.1463   2.2049   2.2693
     2.3264   2.3644   2.4473   2.4605   2.5340   2.6329   2.6651   2.7831
     2.8499   2.8725   2.9156   3.0118   3.0356   3.1174   3.2233   3.3358
     3.4027   3.4287   3.5153   3.5548   3.6363   3.7261   3.7759   3.9768
     4.0397   4.3304   4.3660   5.0623   5.1495   5.2580   5.3036   5.3232
     5.4785   5.5062   5.5815   5.6163   5.6543   5.7494   5.7835   5.9532
     6.0660   6.2305   6.3159   6.3696   6.3870   6.5810   6.6771   6.8998
     6.9209   7.0098   7.0895   7.2595   7.4106   7.5644   7.6122   7.6948
     7.8125   7.8306   7.9122   8.2362   8.2610   8.4362   8.5400   8.7109
     8.8560   8.9390   9.0096   9.1490   9.2591   9.4563   9.5433   9.6642
     9.7651   9.9873  10.0340  10.0980  10.1294  10.2415  10.3289  10.4313
    10.4671  10.5721  10.6328  10.7478  10.8274  10.9039  11.0653  11.1072
    11.2179  11.2899  11.3088  11.3965  11.5307  11.5628  11.6166  11.6713
    11.6919  11.8093  11.8294  11.8901  11.9432  11.9751  12.0156  12.1135
    12.1761  12.1985  12.2509  12.3213  12.3844  12.4502  12.4807  12.5376
    12.6461  12.7192  12.7591  12.8837  12.9330  13.0063  13.0458  13.1696
    13.2102  13.3305  13.3749  13.5074  13.6144  13.6482  13.7338  13.7644
    13.8416  13.8843  14.0015  14.1216  14.1978  14.2034  14.2687  14.3318
    14.3748  14.4281  14.5234  14.5910  14.6308  14.7051  14.7504  14.7789
    14.8202  14.8874  14.9830  15.0411  15.0852  15.1279  15.2363  15.2698
    15.3078  15.4020  15.4486  15.5255  15.5419  15.5668  15.6261  15.6897
    15.7066  15.7641  15.7905  15.8264  15.8790  15.9138  15.9816  16.0402
    16.0879  16.1261  16.1725  16.2395  16.3064  16.3411  16.3683  16.4702
    16.5024  16.5362  16.6002  16.6092  16.6364  16.6914  16.7210  16.7631
    16.8487  16.8781  16.9142  16.9570  17.0349  17.0629  17.1260  17.1839
    17.2954  17.3562  17.4011  17.4343  17.5003  17.5454  17.5927  17.6239
    17.6502  17.6774  17.7651  17.8619  17.8997  17.9648  18.0493  18.0908
    18.1291  18.1780  18.2336  18.3021  18.3344  18.4124  18.4517  18.4903
    18.5306  18.5765  18.6537  18.6750  18.7237  18.7917  18.8472  18.9194
    19.0193  19.0462  19.0882  19.1598  19.1833  19.2712  19.3282  19.3867
    19.4198  19.4565  19.5028  19.5494  19.5945  19.6340  19.6748  19.7236
    19.7680  19.8411  19.8997  19.9756  20.0308  20.0472  20.1161  20.1386
    20.1760  20.1919  20.2251  20.2948  20.3293  20.3918  20.4445  20.4798
    20.5559  20.6224  20.6963  20.7091  20.7691  20.8228  20.8408  20.9669
    20.9907  21.0881  21.1230  21.1847  21.2599  21.3041  21.3477  21.4034
    21.4424  21.4670  21.5165  21.5845  21.6083  21.6806  21.7355  21.7953
    21.8826  21.9454  22.0192  22.0732  22.1447  22.1905  22.2250  22.2590
    22.3281  22.3766  22.3997  22.4282  22.5111  22.5305  22.5938  22.7140
    22.7518  22.7750  22.8362  22.8854  22.9348  22.9535  22.9678  23.0220
    23.0717  23.1148  23.1930  23.2307  23.2519  23.2915  23.3626  23.4379
    23.4683  23.4850  23.5649  23.5690  23.6103  23.6800  23.7207  23.7775
    23.8211  23.8652  23.9156  23.9349  23.9966  24.0266  24.1115  24.1485
    24.1848  24.2082  24.2524  24.3361  24.3799  24.3964  24.4563  24.4745
    24.5212  24.5673  24.6221  24.6627  24.6879  24.7445  24.7829  24.7932
    24.8366  24.8650  24.8977  24.9164  24.9420  24.9691  24.9841  25.0363
    25.0752  25.0991  25.1241  25.1801  25.2116  25.2590  25.2737  25.3099
    25.3439  25.3710  25.4184  25.4675  25.4853  25.5161  25.5565  25.5824
    25.6382  25.6549  25.7266  25.7555  25.8061  25.8477  25.8749  25.9381
    25.9505  26.0032  26.0680  26.0986  26.1657  26.1806  26.2428  26.2769
    26.3123  26.3436  26.3836  26.4455  26.5297  26.5454  26.6043  26.6398
    26.6925  26.7234  26.7656  26.8114  26.8855  26.9266  26.9772  26.9922
    27.0761  27.1126  27.1480  27.1772  27.2347  27.2511  27.2962  27.3196
    27.3850  27.4779  27.5032  27.5193  27.5737  27.6187  27.6592  27.6793
    27.7527  27.7787  27.8360  27.8707  27.9055  27.9510  27.9877  28.0171
    28.0958  28.1268  28.1533  28.2006  28.2319  28.2829  28.3139  28.3621
    28.4189  28.4514  28.4926  28.5468  28.5559  28.6018  28.6413  28.6527
    28.6986  28.7812  28.8055

          k = 0.2500-0.3828 0.0000 ( 40642 PWs)   bands (ev):

   -79.9456 -79.8716 -79.8035 -79.7394 -79.7377 -79.7295 -79.7087 -79.6985
   -79.6782 -79.6645 -79.6396 -79.6311 -79.6237 -79.5515 -79.3267 -79.2867
   -42.3025 -42.1914 -41.8853 -41.8848 -41.8545 -41.8233 -41.8213 -41.7968
   -41.7611 -41.7394 -41.7310 -41.7054 -41.6971 -41.6965 -41.6740 -41.6653
   -41.6557 -41.6414 -41.6395 -41.6237 -41.6082 -41.6081 -41.6074 -41.5992
   -41.5641 -41.5449 -41.5444 -41.5121 -41.4943 -41.4942 -41.4931 -41.4878
   -41.4367 -41.4164 -41.4025 -41.3210 -41.2548 -41.2377 -41.2311 -41.2242
   -41.1985 -41.1985 -41.1739 -41.1647 -41.1326 -41.1300 -41.1277 -40.8756
   -19.1492 -18.8390 -18.7721 -18.7234 -18.5564 -18.4147 -18.3645 -18.3261
   -18.2910 -18.2434 -18.2213 -18.2016 -18.1973 -18.1834 -18.1730 -18.1478
   -18.0156 -17.9761 -17.9579 -17.8488 -17.8435 -17.7145 -17.6938 -17.5354
   -17.4306 -17.3787 -17.3779 -17.3092 -17.2993 -16.5460 -16.3965 -15.7553
   -15.4756 -15.4680  -7.4163  -7.2185  -7.1932  -7.0867  -7.0567  -6.9603
    -6.9292  -6.7466  -6.5524  -6.4990  -6.3936  -6.3635  -6.3403  -6.3074
    -6.2425  -6.2164  -6.2008  -6.1674  -6.1407  -6.1268  -6.0839  -6.0360
    -6.0076  -5.9818  -5.9724  -5.8154  -5.7490  -5.6857  -5.5574  -5.5104
    -5.2606  -5.1707  -5.1159  -4.9872  -4.9195  -4.9068  -4.8148  -4.7062
    -4.6768  -4.3484  -4.3239  -4.2767  -4.1077  -4.0651  -4.0560  -4.0201
    -3.9845  -3.9468  -3.8531  -3.7902  -3.7822  -3.7459  -3.7098  -3.6862
    -3.5825  -3.5484  -3.5442  -3.4819  -3.4370  -3.3961  -3.3823  -3.3618
    -3.3257  -3.2845  -3.2610  -3.2196  -3.1932  -3.1533  -3.0996  -3.0317
    -2.9784  -2.9014  -2.8776  -2.8578  -2.7915  -2.5791  -2.5355  -2.4744
    -2.4462  -2.3858  -2.3709  -2.2356  -2.1627  -2.1222  -2.0313  -2.0261
    -1.8191  -1.8120  -1.7647  -1.7418  -1.6647  -1.6312  -1.5619  -1.3366
    -1.2779  -1.2509  -1.1010  -1.0169  -0.7864  -0.7806  -0.5717  -0.5487
    -0.1274  -0.1181   0.0820   0.1253   0.1413   0.1610   0.2842   0.3065
     0.4788   0.5134   0.5804   0.7071   0.8735   1.5127   1.5530   1.6814
     1.7746   1.8322   1.9492   1.9886   2.2242   2.3234   2.3633   2.4658
     2.4876   2.5009   2.5942   2.7201   2.7280   2.7799   2.8056   2.8270
     2.8363   2.9272   2.9591   3.0700   3.1010   3.1626   3.1905   3.3592
     3.5498   3.5921   3.6483   3.7110   3.7678   3.7751   3.9596   4.0149
     4.0325   4.2611   4.2864   4.3307   4.4046   4.5503   4.6129   5.0106
     5.1220   5.2306   5.2791   5.3476   5.4711   5.5855   5.6848   6.0044
     6.0329   6.3261   6.5988   6.6314   6.6455   6.6680   6.9498   6.9954
     7.0103   7.1226   7.1517   7.2025   7.6434   7.6517   8.0314   8.1364
     8.1635   8.2229   8.2588   8.3543   8.4397   8.4756   8.5021   8.5199
     8.6117   8.6877   8.7502   8.8161   8.9330   9.0744   9.1211   9.3952
     9.5343   9.7245   9.8325   9.8549  10.1129  10.3078  10.3267  10.4580
    10.5527  10.5987  10.6629  10.7073  10.8002  10.8529  10.9219  10.9466
    11.1923  11.2196  11.3077  11.3455  11.4104  11.4776  11.5625  11.6298
    11.7490  11.7849  11.9280  11.9698  12.1279  12.1683  12.2428  12.2846
    12.3526  12.3740  12.4664  12.5184  12.5739  12.6456  12.6977  12.7691
    12.7908  12.8584  13.0027  13.0985  13.2279  13.2597  13.3868  13.4220
    13.4579  13.5230  13.6204  13.7006  13.7368  13.8227  13.8460  13.9153
    14.0265  14.0462  14.0873  14.1736  14.2641  14.3015  14.3133  14.3716
    14.4249  14.4725  14.5421  14.6347  14.6459  14.6911  14.7566  14.7766
    14.8379  14.8767  14.9298  14.9868  15.0730  15.2592  15.2856  15.3118
    15.3430  15.4721  15.4938  15.5681  15.6072  15.6288  15.6805  15.7873
    15.7957  15.8318  15.8694  15.9463  15.9551  15.9838  15.9958  16.0249
    16.0655  16.0915  16.1242  16.1629  16.1948  16.2496  16.3197  16.3378
    16.4263  16.4948  16.5285  16.5449  16.6022  16.6546  16.6864  16.7161
    16.7519  16.8057  16.8951  16.9166  16.9492  16.9958  17.0313  17.0934
    17.1637  17.1955  17.2835  17.3403  17.3670  17.3845  17.4106  17.4428
    17.4785  17.5020  17.5320  17.6281  17.6810  17.7009  17.7916  17.8279
    17.8685  17.9106  17.9710  17.9898  18.0797  18.1123  18.1620  18.2393
    18.2503  18.2943  18.3675  18.4253  18.4797  18.5140  18.5479  18.7384
    18.7470  18.7786  18.8143  18.8347  18.8593  18.9543  19.0384  19.0525
    19.1187  19.1289  19.2279  19.2467  19.2812  19.4909  19.5540  19.5995
    19.6167  19.6830  19.7025  19.7634  19.8511  19.8944  19.9726  20.0106
    20.0384  20.1273  20.1842  20.2829  20.3555  20.4458  20.5404  20.5794
    20.5801  20.7115  20.7189  20.7651  20.8168  20.9581  20.9989  21.0368
    21.2071  21.2226  21.2469  21.2798  21.3480  21.5414  21.5945  21.6356
    21.6624  21.7101  21.7417  21.7714  21.8171  21.8557  21.8942  21.9957
    22.0803  22.1216  22.1429  22.1674  22.1946  22.2364  22.3194  22.3394
    22.4100  22.4832  22.4983  22.5688  22.6323  22.6986  22.7199  22.7629
    22.7929  22.8624  22.9027  22.9351  22.9752  23.0262  23.0766  23.0964
    23.1208  23.1636  23.1779  23.2094  23.2311  23.2959  23.3252  23.4075
    23.4307  23.5025  23.5274  23.5596  23.6399  23.6707  23.7379  23.7534
    23.7785  23.8165  23.8310  23.8596  23.8998  23.9448  23.9853  24.0587
    24.0979  24.1477  24.1781  24.2215  24.2541  24.2905  24.3422  24.3765
    24.3924  24.4483  24.4631  24.5520  24.6004  24.6157  24.6496  24.7218
    24.7408  24.7599  24.8821  24.9158  24.9447  25.0101  25.0361  25.0905
    25.1817  25.2388  25.2609  25.2839  25.3005  25.3314  25.4139  25.5259
    25.5437  25.5913  25.6088  25.6734  25.7172  25.7453  25.7686  25.7856
    25.8470  25.9178  25.9638  26.0559  26.0950  26.1119  26.1855  26.2396
    26.3030  26.3246  26.3800  26.4457  26.4541  26.5044  26.5371  26.5710
    26.6130  26.6361  26.6513  26.7085  26.7112  26.7585  26.7742  26.8217
    26.8373  26.8793  26.9205  26.9575  26.9787  26.9984  27.0438  27.1293
    27.1704  27.2047  27.2580  27.2668  27.2900  27.3714  27.3883  27.4603
    27.5120  27.5358  27.5639  27.6299  27.6977  27.7104  27.7626  27.8182
    27.8811  27.9053  27.9211  28.0407  28.0552  28.0847  28.1503  28.1771
    28.2412  28.2629  28.3278  28.3962  28.4505  28.4832  28.5524  28.5898
    28.6741  28.7039  28.7791  28.8355  28.8796  28.9428  28.9848  29.0369
    29.0842  29.1276  29.1414

          k =-0.5000 0.0000 0.0000 ( 40708 PWs)   bands (ev):

   -79.9397 -79.8775 -79.7989 -79.7339 -79.7254 -79.7182 -79.7181 -79.7133
   -79.6700 -79.6590 -79.6589 -79.6352 -79.6179 -79.5574 -79.3100 -79.3034
   -42.1748 -42.0866 -41.8613 -41.7915 -41.7561 -41.7541 -41.7186 -41.7108
   -41.6686 -41.6685 -41.6649 -41.6604 -41.6555 -41.6511 -41.6381 -41.6325
   -41.6203 -41.5937 -41.5931 -41.5891 -41.5877 -41.5585 -41.5571 -41.5527
   -41.5523 -41.5486 -41.5441 -41.5384 -41.5167 -41.5007 -41.4981 -41.4933
   -41.4810 -41.4802 -41.4552 -41.4406 -41.4394 -41.3695 -41.3677 -41.3599
   -41.2645 -41.2518 -41.1983 -41.1940 -41.1919 -41.1917 -41.1834 -41.1724
   -19.0049 -18.7583 -18.7438 -18.6621 -18.4995 -18.4389 -18.3797 -18.2865
   -18.2702 -18.2583 -18.2137 -18.1640 -18.1027 -18.0301 -17.9410 -17.9050
   -17.8579 -17.8274 -17.8201 -17.7939 -17.7583 -17.7571 -17.7566 -17.6860
   -17.6855 -17.6756 -17.6755 -17.6247 -17.3409 -16.5612 -16.5344 -15.6750
   -15.6262 -15.4745  -7.3142  -7.0765  -6.9882  -6.8242  -6.7688  -6.7146
    -6.6994  -6.6493  -6.6454  -6.6246  -6.6175  -6.4380  -6.3537  -6.2265
    -6.2158  -6.0223  -5.9807  -5.9721  -5.8783  -5.8665  -5.8145  -5.7436
    -5.7282  -5.6945  -5.6722  -5.6258  -5.6179  -5.4745  -5.4286  -5.3937
    -5.2335  -5.1150  -4.9286  -4.8635  -4.8534  -4.7820  -4.6810  -4.5185
    -4.4355  -4.3729  -4.3600  -4.2795  -4.2580  -4.2338  -4.2313  -4.1898
    -4.1129  -4.0937  -4.0933  -4.0685  -4.0316  -3.9707  -3.8650  -3.8605
    -3.7287  -3.6694  -3.6627  -3.6468  -3.5545  -3.4916  -3.4334  -3.4176
    -3.3219  -3.3127  -3.2868  -3.2726  -3.2557  -3.2148  -3.1798  -3.1021
    -3.0890  -2.9555  -2.9353  -2.8512  -2.8384  -2.7853  -2.7300  -2.6651
    -2.6462  -2.6147  -2.4107  -2.3774  -2.3439  -2.3084  -2.0567  -1.9340
    -1.9278  -1.8780  -1.7621  -1.6874  -1.5521  -1.3880  -1.2469  -1.1728
    -1.0666  -1.0122  -0.9962  -0.9684  -0.6869  -0.6664  -0.5580   0.2322
     0.3303   0.4664   0.5213   0.5956   0.6880   0.7545   0.7587   0.7613
     0.7772   0.7837   0.8069   0.8323   0.9832   0.9993   1.0015   1.0083
     1.2475   1.2528   1.2773   1.4505   1.5602   1.6171   1.6271   1.6681
     1.8135   1.8604   1.9939   2.0204   2.0309   2.1262   2.1886   2.2731
     2.3315   2.4254   2.5139   2.5395   2.5766   2.8596   2.9558   3.0014
     3.0586   3.1596   3.1845   3.3463   3.4199   3.4653   3.5999   3.7114
     3.7835   3.8736   4.3310   5.0473   5.2668   5.2828   5.5167   5.7963
     5.8665   6.0141   6.1073   6.1123   6.1630   6.1652   6.2504   6.3415
     6.3525   6.3561   6.3619   6.4174   6.4529   6.4919   6.4930   6.5230
     6.5335   6.6332   6.7616   7.1003   7.1402   7.4736   7.6319   7.7820
     8.0806   8.1201   8.2806   8.3707   8.4495   8.4662   8.5051   8.5172
     8.6887   8.6903   9.0061   9.1073   9.1492   9.2003   9.6496   9.6502
     9.7451  10.0715  10.3613  10.3776  10.5384  10.6290  10.6319  10.6656
    10.6743  10.7909  11.0052  11.0465  11.1044  11.1135  11.1710  11.1854
    11.1878  11.2363  11.4290  11.4340  11.4448  11.4693  11.5008  11.5420
    11.6106  11.6293  11.6997  11.7119  11.7893  11.8065  11.9539  11.9599
    11.9921  11.9941  12.0578  12.0690  12.0901  12.2584  12.3751  12.4304
    12.5210  12.5338  12.6535  12.6951  12.7215  12.7375  12.7603  12.8208
    12.8454  12.9897  13.1127  13.1223  13.2930  13.4191  13.5247  13.5419
    13.6172  13.6464  13.6926  13.7037  13.7527  13.8762  14.0536  14.1502
    14.3081  14.3109  14.5196  14.5735  14.6141  14.6547  14.7450  14.7854
    14.9913  15.1034  15.1342  15.1417  15.3291  15.4473  15.5280  15.6444
    15.6951  15.7549  15.7557  15.7617  15.8256  15.8410  15.8531  15.9780
    16.0872  16.1030  16.1205  16.1605  16.2300  16.2317  16.2866  16.3308
    16.3312  16.3587  16.4642  16.5223  16.5592  16.6400  16.6509  16.6759
    16.6846  16.7643  16.8473  16.9106  16.9876  17.1400  17.1960  17.2238
    17.2355  17.2985  17.3850  17.4147  17.4414  17.4902  17.5014  17.5611
    17.5942  17.6293  17.6816  17.7687  17.8132  17.9021  17.9479  17.9776
    18.1088  18.1121  18.1877  18.2880  18.3633  18.3784  18.4373  18.4643
    18.5885  18.6181  18.6731  18.6890  18.7716  18.8641  18.8745  18.8817
    18.9707  19.0152  19.0342  19.0766  19.1065  19.1526  19.2275  19.3241
    19.4194  19.4398  19.5018  19.5231  19.5975  19.6603  19.7029  19.7259
    19.8498  19.9283  20.0524  20.0672  20.0977  20.1286  20.2735  20.2892
    20.3519  20.4187  20.4576  20.5517  20.5841  20.5944  20.6142  20.6522
    20.6906  20.6961  20.7121  20.7904  20.8213  20.8379  20.9106  20.9147
    20.9554  21.0309  21.0451  21.1019  21.1342  21.1785  21.2139  21.2638
    21.2715  21.3426  21.3778  21.4063  21.4723  21.5328  21.5797  21.5828
    21.6673  21.6786  21.6887  21.7658  21.8437  21.8509  21.8901  21.8950
    21.9156  21.9483  21.9613  21.9673  21.9788  22.0131  22.0422  22.0761
    22.1212  22.1633  22.1717  22.2434  22.2624  22.2691  22.2747  22.3937
    22.4051  22.4379  22.4718  22.4860  22.5857  22.6232  22.6854  22.7330
    22.7358  22.8166  22.8203  22.8376  22.9179  22.9283  23.0074  23.0304
    23.0960  23.1355  23.1391  23.1455  23.1786  23.2419  23.3359  23.3784
    23.3821  23.3993  23.4134  23.5824  23.5863  23.6036  23.6269  23.6777
    23.6999  23.7454  23.7827  23.8041  23.8150  23.8555  23.9080  23.9626
    23.9777  24.2128  24.2239  24.2782  24.2934  24.4287  24.4400  24.5014
    24.5276  24.5366  24.5605  24.6258  24.6724  24.6749  24.7055  24.7187
    24.7686  24.8433  24.8616  24.8830  24.8963  24.9404  24.9777  25.0106
    25.0540  25.0889  25.0919  25.1591  25.1959  25.2112  25.2562  25.2740
    25.3324  25.3667  25.3950  25.3972  25.4812  25.4988  25.5265  25.5872
    25.7105  25.7623  25.7630  25.7798  25.8470  25.8854  25.9348  25.9733
    26.0462  26.0505  26.0619  26.1291  26.1350  26.1782  26.2334  26.2802
    26.2954  26.3348  26.3779  26.4052  26.4138  26.4352  26.4572  26.5173
    26.5379  26.5975  26.6798  26.7262  26.8058  26.8288  26.8549  26.9039
    26.9620  26.9698  26.9900  27.0881  27.0945  27.1060  27.1562  27.1744
    27.2194  27.2599  27.3148  27.3486  27.3787  27.4166  27.5429  27.5814
    27.7121  27.7328  27.7698  27.8023  27.8317  27.8869  27.9638  27.9852
    28.0404  28.0826  28.1882  28.2446  28.2522  28.2799  28.4000  28.4222
    28.4623  28.5558  28.5658

          k =-0.5000 0.1914 0.0000 ( 40684 PWs)   bands (ev):

   -79.9397 -79.8775 -79.7989 -79.7339 -79.7254 -79.7182 -79.7181 -79.7133
   -79.6700 -79.6590 -79.6589 -79.6352 -79.6179 -79.5574 -79.3100 -79.3034
   -42.1749 -42.0866 -41.8613 -41.7895 -41.7561 -41.7534 -41.7156 -41.7129
   -41.6681 -41.6680 -41.6649 -41.6603 -41.6516 -41.6512 -41.6381 -41.6365
   -41.6135 -41.5958 -41.5934 -41.5895 -41.5861 -41.5675 -41.5573 -41.5515
   -41.5513 -41.5476 -41.5436 -41.5380 -41.5166 -41.5045 -41.4985 -41.4927
   -41.4827 -41.4789 -41.4552 -41.4407 -41.4395 -41.3695 -41.3677 -41.3597
   -41.2655 -41.2516 -41.1983 -41.1938 -41.1919 -41.1915 -41.1841 -41.1732
   -18.9914 -18.7389 -18.7089 -18.6213 -18.4534 -18.4024 -18.3608 -18.3141
   -18.2471 -18.2408 -18.1845 -18.1585 -18.1287 -18.0630 -17.9796 -17.9747
   -17.8614 -17.8409 -17.8073 -17.8059 -17.7640 -17.7565 -17.7437 -17.7388
   -17.7308 -17.7007 -17.7000 -17.5969 -17.3375 -16.5640 -16.5347 -15.6754
   -15.6266 -15.4714  -7.3098  -7.0755  -6.9980  -6.8419  -6.7753  -6.7497
    -6.7486  -6.7211  -6.6660  -6.6630  -6.5737  -6.4574  -6.3726  -6.2449
    -6.2171  -6.0025  -5.7649  -5.7402  -5.7283  -5.6823  -5.6657  -5.6462
    -5.5880  -5.5632  -5.5338  -5.4643  -5.4126  -5.3853  -5.2770  -5.1614
    -5.1579  -5.0407  -4.9906  -4.9154  -4.8890  -4.8233  -4.8038  -4.6878
    -4.6702  -4.6575  -4.5961  -4.5658  -4.5467  -4.4938  -4.4474  -4.3695
    -4.3418  -4.2191  -4.1895  -4.0827  -4.0594  -3.9899  -3.9367  -3.8758
    -3.8720  -3.6565  -3.5575  -3.5276  -3.4911  -3.4827  -3.4441  -3.4198
    -3.3518  -3.3511  -3.3215  -3.3113  -3.2565  -3.2370  -3.2011  -3.1796
    -3.0893  -3.0075  -2.9728  -2.9439  -2.8293  -2.7642  -2.7616  -2.6225
    -2.5646  -2.4261  -2.3236  -2.2490  -2.1361  -2.1317  -2.0362  -2.0334
    -1.9522  -1.8949  -1.8122  -1.7176  -1.6449  -1.4516  -1.3533  -1.1679
    -1.1015  -1.0401  -0.9879  -0.9727  -0.7742  -0.7528  -0.5473   0.2072
     0.3176   0.4002   0.4819   0.5701   0.6435   0.7399   0.7690   0.8446
     0.8899   1.0564   1.1067   1.1137   1.1407   1.1655   1.2480   1.3002
     1.3584   1.4145   1.4156   1.4829   1.5088   1.5555   1.6890   1.6972
     1.8441   1.9156   1.9623   2.0336   2.1471   2.2081   2.3072   2.3461
     2.4312   2.4671   2.6541   2.6564   2.7523   2.8100   2.9393   2.9589
     3.0560   3.1524   3.1892   3.2816   3.3455   3.4112   3.5757   3.6000
     3.6775   3.8900   4.2881   4.9477   5.0770   5.1361   5.2319   5.2324
     5.3778   5.4225   5.4666   5.4988   5.5346   5.5630   5.6964   6.0207
     6.3109   6.4263   6.4537   6.5895   6.6817   6.8577   6.9181   7.1014
     7.1487   7.1544   7.1548   7.2144   7.2245   7.6313   7.6817   7.7942
     8.1124   8.1739   8.2582   8.3985   8.5857   8.5871   8.7704   8.7797
     8.8300   8.8498   9.0919   9.2268   9.3312   9.3574   9.6156   9.6664
     9.8019   9.8629   9.9069   9.9925  10.0936  10.1696  10.2291  10.3506
    10.3695  10.4120  10.4615  10.4713  10.5673  10.7750  10.8457  10.8962
    10.9250  11.0014  11.0090  11.1128  11.3951  11.4522  11.5539  11.6279
    11.6450  11.7428  11.8065  11.8654  11.9194  11.9638  12.1314  12.2272
    12.2579  12.2739  12.3398  12.4254  12.4339  12.5844  12.6590  12.6709
    12.6786  12.7775  12.8687  12.9652  13.0403  13.0944  13.1586  13.1885
    13.2512  13.2713  13.3210  13.4109  13.5338  13.5524  13.6599  13.6607
    13.7753  13.7800  14.0367  14.0401  14.2193  14.2456  14.2867  14.3473
    14.4596  14.5172  14.6192  14.6283  14.8013  14.8735  14.9781  15.0032
    15.1429  15.2354  15.3414  15.3808  15.4807  15.4836  15.5914  15.6548
    15.6846  15.7523  15.8055  15.8133  15.8507  15.8926  15.9092  15.9454
    16.0209  16.0459  16.0934  16.1446  16.1551  16.1765  16.2623  16.2743
    16.3212  16.3256  16.3919  16.4231  16.4488  16.4878  16.5587  16.5874
    16.5937  16.6604  16.7393  16.7906  16.8944  16.9472  16.9652  17.1003
    17.2814  17.3455  17.3765  17.4422  17.4560  17.5679  17.6159  17.6986
    17.7093  17.7172  17.7524  17.7852  17.8019  17.8061  17.8281  17.8928
    17.9367  17.9872  18.0296  18.0532  18.1056  18.1096  18.2102  18.2645
    18.2957  18.3232  18.4908  18.4983  18.5620  18.6224  18.6641  18.6769
    18.7200  18.7624  18.8070  18.9221  18.9843  19.0049  19.0291  19.0338
    19.1007  19.1037  19.1314  19.2053  19.2416  19.2813  19.3159  19.3261
    19.3729  19.4319  19.5421  19.5640  19.6762  19.6764  19.7682  19.7879
    19.8069  19.8787  19.9587  19.9854  20.0183  20.1056  20.1980  20.3863
    20.3876  20.4435  20.4836  20.5232  20.5507  20.6067  20.6695  20.6793
    20.7225  20.7480  20.8419  20.9003  20.9336  20.9536  21.0028  21.0133
    21.0561  21.1558  21.1856  21.2188  21.2595  21.3801  21.3902  21.4093
    21.4100  21.5171  21.5281  21.5873  21.6569  21.6779  21.7207  21.7442
    21.8048  21.8270  21.8730  21.9929  22.0104  22.1076  22.1801  22.2862
    22.3019  22.3535  22.4427  22.4630  22.5481  22.5575  22.5874  22.6132
    22.6804  22.7489  22.7658  22.8043  22.9104  22.9569  23.0130  23.0193
    23.0641  23.1228  23.1567  23.2805  23.2875  23.3527  23.3908  23.5113
    23.5800  23.5883  23.6253  23.6306  23.6963  23.7217  23.8140  23.8256
    23.8646  23.8714  23.9155  23.9472  23.9630  23.9949  24.0282  24.0624
    24.0656  24.1276  24.1713  24.1804  24.2091  24.2352  24.2427  24.2851
    24.3204  24.3877  24.4196  24.4941  24.4959  24.5134  24.5575  24.5741
    24.6039  24.6629  24.6695  24.6996  24.7429  24.7717  24.7966  24.8388
    24.8887  24.9166  24.9279  24.9800  24.9872  25.0372  25.0846  25.1046
    25.1175  25.1636  25.2388  25.2444  25.2696  25.3580  25.3611  25.4673
    25.4845  25.5338  25.5909  25.6264  25.6473  25.7099  25.7421  25.8045
    25.8085  25.8581  25.8830  25.9538  26.0167  26.0581  26.0864  26.1330
    26.1680  26.2000  26.2167  26.3101  26.3154  26.3593  26.3834  26.3932
    26.4518  26.4612  26.5133  26.6043  26.6118  26.6507  26.6709  26.7467
    26.7824  26.8386  26.8482  26.9538  26.9664  26.9989  27.0322  27.0512
    27.0882  27.1284  27.1750  27.2246  27.2562  27.3129  27.3163  27.3334
    27.3484  27.4378  27.5058  27.5163  27.5667  27.6344  27.6561  27.7514
    27.7794  27.7945  27.8561  27.9161  27.9536  27.9940  28.0143  28.0957
    28.1368  28.1557  28.1795  28.2122  28.2370  28.2658  28.3164  28.3344
    28.3503  28.4278  28.4441

          k =-0.5000-0.3828 0.0000 ( 40640 PWs)   bands (ev):

   -79.9397 -79.8775 -79.7989 -79.7339 -79.7254 -79.7182 -79.7182 -79.7133
   -79.6700 -79.6590 -79.6589 -79.6352 -79.6179 -79.5574 -79.3100 -79.3034
   -42.1750 -42.0866 -41.8613 -41.7873 -41.7561 -41.7527 -41.7149 -41.7122
   -41.6676 -41.6675 -41.6648 -41.6601 -41.6513 -41.6478 -41.6409 -41.6380
   -41.6029 -41.5984 -41.5929 -41.5899 -41.5845 -41.5797 -41.5575 -41.5521
   -41.5511 -41.5444 -41.5423 -41.5376 -41.5166 -41.5094 -41.4985 -41.4921
   -41.4844 -41.4777 -41.4553 -41.4408 -41.4396 -41.3695 -41.3677 -41.3594
   -41.2665 -41.2515 -41.1983 -41.1936 -41.1918 -41.1912 -41.1849 -41.1739
   -18.9784 -18.7214 -18.6645 -18.5518 -18.4147 -18.4064 -18.3573 -18.2786
   -18.2450 -18.2029 -18.1814 -18.1310 -18.1122 -18.0833 -18.0741 -18.0503
   -17.8776 -17.8602 -17.8090 -17.7993 -17.7878 -17.7860 -17.7647 -17.7480
   -17.7315 -17.7259 -17.7248 -17.5840 -17.3345 -16.5669 -16.5351 -15.6758
   -15.6271 -15.4684  -7.3058  -7.0775  -7.0160  -6.8056  -6.7715  -6.7694
    -6.7559  -6.7490  -6.6643  -6.6413  -6.5231  -6.4427  -6.3670  -6.2516
    -6.1903  -6.0046  -5.7481  -5.7318  -5.6713  -5.6169  -5.5913  -5.3950
    -5.3706  -5.3286  -5.2818  -5.2585  -5.2170  -5.1830  -5.1472  -5.1098
    -5.0890  -5.0425  -5.0335  -5.0086  -4.9842  -4.9556  -4.8968  -4.8950
    -4.8219  -4.8190  -4.8074  -4.7920  -4.7005  -4.6636  -4.5966  -4.4205
    -4.3155  -4.2116  -4.2079  -4.1836  -4.1332  -4.0937  -3.9705  -3.8477
    -3.7942  -3.6894  -3.6566  -3.6484  -3.6057  -3.5174  -3.4516  -3.4449
    -3.4181  -3.3901  -3.3283  -3.2965  -3.2803  -3.2407  -3.2403  -3.2214
    -3.1144  -3.1134  -3.0753  -3.0623  -2.8429  -2.7150  -2.6911  -2.6288
    -2.5474  -2.4052  -2.2712  -2.1421  -2.0959  -2.0486  -2.0317  -1.9727
    -1.8619  -1.8231  -1.7434  -1.7324  -1.6448  -1.6057  -1.4909  -1.3650
    -1.1643  -1.0120  -0.9479  -0.9372  -0.8673  -0.8433  -0.5406   0.1977
     0.2986   0.3728   0.5049   0.6521   0.7333   0.7838   0.7937   0.8006
     0.8085   0.8396   0.8626   1.0723   1.0837   1.2759   1.3459   1.5042
     1.5372   1.5526   1.6541   1.8023   1.8449   1.8835   1.9471   1.9702
     2.0538   2.1346   2.1736   2.1781   2.3297   2.3479   2.3904   2.5540
     2.6807   2.6851   2.6931   2.8203   2.8726   2.9654   2.9723   3.0097
     3.0824   3.1018   3.1077   3.1924   3.3871   3.4045   3.4342   3.4907
     3.6979   3.8732   4.1580   4.2296   4.3077   4.4732   4.5139   4.6946
     4.6989   4.8006   4.9661   5.1603   5.4485   5.5243   5.5490   6.0559
     6.3372   6.4600   6.5741   6.7368   6.8443   7.0429   7.1289   7.2264
     7.4593   7.5122   7.6057   7.7494   7.7902   7.8108   7.8439   7.8913
     7.9042   7.9088   8.0879   8.2082   8.8711   8.9956   9.0000   9.1507
     9.1884   9.2192   9.2321   9.2708   9.3649   9.4210   9.4479   9.4764
     9.5392   9.5704   9.5915   9.6429   9.8140   9.8612   9.8974   9.9699
    10.0691  10.1344  10.1423  10.1660  10.5080  10.5174  10.5789  10.6893
    10.7454  10.7949  10.9103  10.9720  11.3212  11.3402  11.4101  11.4884
    11.5324  11.5774  11.6388  11.7373  12.1769  12.1859  12.1901  12.3496
    12.3512  12.4176  12.4937  12.4957  12.6375  12.6844  12.6873  12.6991
    12.8339  12.8395  12.9896  13.0094  13.0492  13.1178  13.2477  13.2877
    13.5789  13.6485  13.7135  13.8711  14.0942  14.1299  14.3299  14.3594
    14.3903  14.4668  14.5849  14.6079  14.7167  14.8189  14.9479  14.9609
    15.0045  15.0456  15.0667  15.1022  15.1369  15.2126  15.2820  15.2891
    15.3169  15.3304  15.3363  15.3691  15.4022  15.4308  15.4834  15.5101
    15.6394  15.7259  15.7429  15.7779  15.7803  15.8025  15.8628  15.9110
    15.9768  15.9800  16.0048  16.0289  16.0427  16.0793  16.1019  16.1366
    16.1479  16.1956  16.2376  16.2895  16.3079  16.3753  16.4080  16.4421
    16.4442  16.4586  16.5519  16.5830  16.6835  16.7125  16.7690  16.7761
    16.8321  16.9081  16.9711  16.9742  17.0050  17.1278  17.1314  17.3414
    17.3896  17.4374  17.4582  17.4987  17.5299  17.5410  17.5769  17.5953
    17.6527  17.7545  17.8099  17.8491  17.8809  17.9734  18.0692  18.1643
    18.1649  18.2929  18.3071  18.3830  18.4263  18.5000  18.5355  18.5485
    18.6021  18.6382  18.7018  18.7243  18.8591  19.0448  19.0894  19.1599
    19.2416  19.3219  19.3719  19.4022  19.4307  19.4402  19.5238  19.5401
    19.5752  19.5754  19.5906  19.6168  19.6270  19.6754  19.6792  19.8107
    19.8254  19.8417  19.8757  19.9072  19.9309  19.9313  19.9351  19.9854
    20.0103  20.0657  20.1066  20.1177  20.1369  20.1821  20.2792  20.2833
    20.3540  20.3654  20.4372  20.4680  20.6316  20.6462  20.6534  20.6990
    20.8016  20.8170  20.9096  20.9580  20.9587  21.0287  21.0840  21.1413
[...]
     5.2455   5.2870   5.3287   5.3657   5.4040   5.4209   5.5431   5.8984
     6.1875   6.2881   6.3156   6.4521   6.5611   6.7239   6.7873   6.9671
     7.0189   7.0202   7.0426   7.0797   7.0912   7.5311   7.6729   7.8818
     7.9894   8.0809   8.2728   8.3118   8.6120   8.6236   8.7156   8.7317
     8.7969   8.8841   9.0751   9.2639   9.2907   9.3505   9.6016   9.7216
     9.8557   9.8726   9.9182  10.0194  10.0690  10.2026  10.2054  10.2840
    10.3448  10.4064  10.4693  10.4732  10.5663  10.7306  10.8155  10.8422
    10.8875  11.0045  11.0224  11.0923  11.3636  11.4409  11.5452  11.6115
    11.6380  11.6825  11.6878  11.8193  11.8548  11.8900  12.0829  12.1394
    12.2365  12.2836  12.3052  12.3762  12.4389  12.5287  12.5908  12.6398
    12.6648  12.7307  12.7851  12.8739  13.0548  13.0864  13.1748  13.1833
    13.2832  13.3061  13.3276  13.4289  13.5458  13.5560  13.6366  13.6491
    13.7743  13.7888  14.0139  14.0140  14.2280  14.2665  14.2762  14.3502
    14.4385  14.4974  14.5704  14.5973  14.8241  14.8651  14.9340  15.0011
    15.1278  15.2015  15.3098  15.3577  15.4308  15.4411  15.5486  15.5508
    15.6179  15.6441  15.7087  15.7419  15.7724  15.8310  15.8570  15.8613
    15.9484  15.9557  16.0003  16.0427  16.0641  16.0700  16.1573  16.1644
    16.2215  16.2557  16.3058  16.3225  16.3548  16.3854  16.4859  16.5140
    16.5460  16.6441  16.7080  16.7769  16.8895  16.9035  16.9342  17.0394
    17.3011  17.3121  17.3408  17.3820  17.4033  17.4913  17.5274  17.6238
    17.6700  17.6776  17.7057  17.7086  17.8059  17.8089  17.8617  17.8987
    17.9223  17.9331  17.9827  18.0188  18.0670  18.0726  18.1455  18.2652
    18.3080  18.3630  18.4273  18.4842  18.5366  18.5828  18.6259  18.6434
    18.7038  18.7337  18.8070  18.8995  18.9477  18.9734  19.0138  19.0552
    19.1061  19.1245  19.1573  19.1993  19.2169  19.2602  19.2735  19.3181
    19.3672  19.3893  19.5382  19.5694  19.6822  19.6940  19.7673  19.7869
    19.8032  19.8952  19.9676  20.0103  20.0715  20.1236  20.2385  20.3585
    20.3835  20.4840  20.4878  20.5446  20.6364  20.6394  20.6849  20.7010
    20.7476  20.7484  20.8594  20.9053  20.9305  20.9539  20.9689  20.9802
    21.0538  21.1333  21.1729  21.1736  21.2330  21.3137  21.3437  21.4058
    21.4112  21.4913  21.4953  21.5892  21.5924  21.6629  21.7397  21.7664
    21.8002  21.8466  21.8917  21.9887  22.0052  22.1100  22.1731  22.2415
    22.2564  22.3037  22.4241  22.4270  22.5321  22.5498  22.5607  22.6410
    22.7396  22.7554  22.7584  22.8161  22.9097  22.9645  22.9782  22.9956
    23.0879  23.1064  23.1148  23.2656  23.2877  23.3521  23.3735  23.5116
    23.5864  23.6171  23.6957  23.7088  23.7342  23.7600  23.7660  23.8384
    23.8559  23.8910  23.9301  23.9542  23.9948  24.0135  24.0356  24.0551
    24.0763  24.1273  24.1410  24.1726  24.1793  24.2286  24.2335  24.2515
    24.2729  24.3495  24.3913  24.4390  24.4618  24.4820  24.5008  24.5372
    24.5571  24.6465  24.6546  24.6769  24.7088  24.7567  24.8004  24.8224
    24.8266  24.8605  24.9025  24.9524  24.9958  25.0207  25.0437  25.0873
    25.0901  25.1523  25.2113  25.2394  25.2618  25.3125  25.3539  25.4211
    25.4601  25.5221  25.5612  25.5979  25.6358  25.7081  25.7402  25.7853
    25.8052  25.8489  25.8886  25.9321  25.9812  25.9935  26.0489  26.0937
    26.1161  26.1652  26.1761  26.2569  26.2665  26.3195  26.3522  26.3652
    26.4063  26.4589  26.4892  26.5588  26.5770  26.6408  26.6442  26.6980
    26.7284  26.7776  26.8314  26.9279  26.9399  26.9733  27.0042  27.0119
    27.0504  27.1040  27.1457  27.1619  27.1999  27.2673  27.2874  27.3365
    27.3373  27.3888  27.4871  27.4917  27.5431  27.6274  27.6851  27.7208
    27.7329  27.7988  27.8427  27.8794  27.9313  27.9936  27.9973  28.0874
    28.1303  28.1756  28.1828  28.2402  28.2930  28.3145  28.3325  28.3588
    28.3758  28.4510  28.4757

          k =-0.5000-0.3828 0.0000 ( 40640 PWs)   bands (ev):

   -80.0747 -80.0147 -79.9356 -79.8787 -79.8678 -79.8554 -79.8554 -79.8534
   -79.8490 -79.8021 -79.7969 -79.7969 -79.7874 -79.6810 -79.4486 -79.4399
   -42.2958 -42.2287 -41.9915 -41.9252 -41.9092 -41.8927 -41.8903 -41.8654
   -41.8524 -41.8067 -41.8047 -41.8046 -41.8025 -41.7890 -41.7872 -41.7868
   -41.7783 -41.7435 -41.7296 -41.7291 -41.7230 -41.7174 -41.6899 -41.6882
   -41.6863 -41.6845 -41.6832 -41.6786 -41.6587 -41.6527 -41.6509 -41.6295
   -41.6247 -41.6151 -41.5921 -41.5790 -41.5781 -41.5172 -41.5080 -41.5064
   -41.4739 -41.3856 -41.3373 -41.3309 -41.3287 -41.3278 -41.3238 -41.3101
   -19.1073 -18.7959 -18.7013 -18.5550 -18.5498 -18.4989 -18.4203 -18.3830
   -18.3397 -18.3182 -18.2669 -18.2465 -18.2237 -18.2106 -18.1859 -18.1352
   -18.0139 -18.0062 -17.9409 -17.9340 -17.9076 -17.8997 -17.8764 -17.8695
   -17.8628 -17.8621 -17.7586 -17.6088 -17.4733 -16.7064 -16.6853 -15.8128
   -15.7657 -15.4457  -7.4182  -7.2342  -7.1464  -6.9471  -6.9021  -6.8963
    -6.8955  -6.8812  -6.8021  -6.7780  -6.6701  -6.5915  -6.5114  -6.3900
    -6.3322  -6.1008  -5.8788  -5.8722  -5.8100  -5.7508  -5.7241  -5.5117
    -5.4954  -5.4666  -5.4234  -5.3831  -5.3517  -5.2896  -5.2832  -5.2463
    -5.2109  -5.1709  -5.1454  -5.1215  -5.1048  -5.0539  -4.9958  -4.9787
    -4.9542  -4.9434  -4.9199  -4.8325  -4.8306  -4.7710  -4.6081  -4.5168
    -4.4537  -4.3460  -4.3212  -4.2859  -4.2293  -4.2223  -4.0855  -3.9291
    -3.8873  -3.8135  -3.7582  -3.7518  -3.7235  -3.6353  -3.5766  -3.5752
    -3.5385  -3.5199  -3.4731  -3.4493  -3.3939  -3.3919  -3.3737  -3.3316
    -3.2524  -3.2381  -3.2059  -3.0060  -2.8765  -2.8080  -2.7918  -2.7601
    -2.6531  -2.5356  -2.4134  -2.2709  -2.2216  -2.1831  -2.1693  -2.1122
    -1.9879  -1.9697  -1.8745  -1.8677  -1.7835  -1.7058  -1.6241  -1.4080
    -1.2882  -1.0846  -1.0734  -1.0453  -1.0037  -0.9811  -0.6350   0.0674
     0.2148   0.3397   0.5118   0.6010   0.6435   0.6524   0.6532   0.6602
     0.6718   0.7158   0.7409   0.9446   0.9453   1.1500   1.2227   1.3801
     1.4005   1.4153   1.5334   1.6556   1.7085   1.7765   1.7826   1.8220
     1.9135   2.0176   2.0333   2.0429   2.1914   2.2098   2.2662   2.4111
     2.5476   2.5530   2.5598   2.6699   2.7229   2.8247   2.8417   2.9067
     2.9447   2.9659   2.9790   3.0494   3.2348   3.2692   3.2981   3.3601
     3.5719   3.7667   3.8994   4.0305   4.1632   4.3335   4.3701   4.5569
     4.5621   4.6508   4.8100   5.0376   5.3196   5.3952   5.4217   5.9365
     6.2175   6.3220   6.4579   6.6019   6.7160   6.8940   7.0155   7.0920
     7.3272   7.3921   7.4787   7.6512   7.6609   7.7108   7.7543   7.7555
     7.7739   7.9484   8.0728   8.1549   9.0050   9.1398   9.1480   9.1606
     9.1694   9.2113   9.2280   9.2531   9.3843   9.4258   9.4443   9.4707
     9.5007   9.5043   9.5536   9.5986   9.8125   9.8725   9.8842   9.9622
    10.0622  10.0975  10.1220  10.1667  10.4919  10.5252  10.5316  10.6809
    10.7436  10.7918  10.8874  10.9548  11.2909  11.2949  11.3857  11.4667
    11.4939  11.5276  11.6343  11.7203  12.1312  12.1488  12.1660  12.2918
    12.3066  12.4188  12.4433  12.4469  12.5193  12.5545  12.5601  12.5651
    12.7104  12.7906  12.9098  12.9777  13.0286  13.0493  13.2027  13.3263
    13.6022  13.6696  13.7213  13.8653  14.1148  14.1878  14.2399  14.2436
    14.3896  14.4286  14.5492  14.5876  14.6906  14.8495  14.8619  14.8974
    14.9511  14.9892  15.0749  15.0947  15.1342  15.1779  15.2531  15.2914
    15.2960  15.3405  15.3632  15.3990  15.4277  15.4384  15.4634  15.5448
    15.6531  15.6669  15.6997  15.7246  15.7739  15.8420  15.8502  15.8824
    15.9069  15.9100  15.9185  15.9556  16.0050  16.0372  16.0484  16.0531
    16.0890  16.1243  16.1335  16.1779  16.1891  16.2542  16.3329  16.4386
    16.4446  16.4634  16.5400  16.5716  16.6504  16.7144  16.7510  16.7568
    16.8089  16.8137  16.9238  16.9433  17.0158  17.0342  17.0400  17.2415
    17.3508  17.4036  17.4085  17.4365  17.4714  17.5018  17.5580  17.6138
    17.6427  17.7267  17.7524  17.7936  17.8376  17.9476  18.0271  18.0929
    18.1202  18.2736  18.2768  18.3329  18.3950  18.4723  18.5086  18.5624
    18.6058  18.6071  18.6951  18.7049  18.9622  19.0750  19.0894  19.1275
    19.2091  19.2864  19.3380  19.3446  19.3625  19.3788  19.4569  19.4810
    19.5374  19.6104  19.6181  19.6517  19.6854  19.6948  19.7201  19.7681
    19.7910  19.8069  19.8375  19.9090  19.9159  19.9185  19.9388  19.9714
    20.0128  20.0752  20.0817  20.1248  20.1331  20.1649  20.2892  20.2939
    20.3254  20.3510  20.4799  20.4921  20.6011  20.6351  20.6398  20.6992
    20.8064  20.8421  20.9094  20.9378  20.9698  21.0433  21.0469  21.1825
    21.2564  21.2975  21.3559  21.4407  21.5043  21.5611  21.5773  21.7164
    21.7936  21.7988  21.9145  21.9500  22.0096  22.0161  22.0725  22.0908
    22.1349  22.2085  22.2441  22.2571  22.3213  22.3719  22.4520  22.6294
    22.7352  22.8367  22.8581  22.8778  22.9765  22.9969  23.0712  23.0964
    23.1125  23.1437  23.1746  23.2479  23.2858  23.3479  23.3723  23.4646
    23.5526  23.6108  23.6506  23.6510  23.6700  23.7580  23.8260  23.8653
    23.8910  23.9219  23.9882  24.0073  24.0100  24.1079  24.1195  24.1806
    24.1965  24.2091  24.2180  24.2377  24.3117  24.3427  24.4240  24.4732
    24.4953  24.5242  24.6047  24.6718  24.7193  24.8508  24.8690  24.9159
    25.0343  25.0658  25.0687  25.0953  25.1925  25.2768  25.3193  25.3535
    25.3673  25.4273  25.4577  25.5122  25.5665  25.6013  25.6279  25.6305
    25.6836  25.6892  25.7687  25.7923  25.8249  25.8498  25.8628  25.8831
    25.9299  25.9604  25.9740  26.0008  26.0214  26.0673  26.0857  26.2050
    26.2055  26.2338  26.3284  26.3549  26.3631  26.4448  26.4536  26.5066
    26.5371  26.5473  26.5767  26.5972  26.6131  26.6632  26.6951  26.6959
    26.7421  26.8426  26.8462  26.8805  26.9001  26.9004  26.9052  27.0442
    27.0572  27.0903  27.1001  27.1904  27.2349  27.2715  27.3168  27.3732
    27.3852  27.3920  27.4058  27.4478  27.4955  27.6090  27.6186  27.6347
    27.6473  27.6534  27.6721  27.7154  27.7248  27.7440  27.7782  27.8479
    27.8991  27.9018  27.9354  27.9627  28.0046  28.0113  28.0305  28.0936
    28.1338  28.1856  28.2072  28.2094  28.2347  28.3079  28.3327  28.3806
    28.3887  28.4189  28.4435

     the Fermi energy is     1.9845 ev

!    total energy              =   -4213.28921048 Ry
     Harris-Foulkes estimate   =   -4213.28921049 Ry
     estimated scf accuracy    <          7.4E-09 Ry

     The total energy is the sum of the following terms:

     one-electron contribution =  -85105.64916259 Ry
     hartree contribution      =   42599.04641408 Ry
     xc contribution           =   -1154.57114036 Ry
     ewald contribution        =   39447.88477970 Ry
     smearing contrib. (-TS)   =      -0.00010130 Ry

     convergence has been achieved in  20 iterations

     Forces acting on atoms (Ry/au):


     negative rho (up, down):  0.491E+00 0.000E+00
     atom    1 type  1   force =     0.00000000    0.00029448    0.10809224
     atom    2 type  2   force =     0.01344188   -0.00037902   -0.14581779
     atom    3 type  2   force =     0.00000000    0.00018557    0.06016881
     atom    4 type  1   force =    -0.00008624    0.00463341   -0.01420143
     atom    5 type  1   force =    -0.00022228   -0.00441678   -0.01408571
     atom    6 type  1   force =     0.00000000   -0.00006205    0.04276769
     atom    7 type  1   force =     0.00000000    0.00019058   -0.01210326
     atom    8 type  2   force =    -0.00152355   -0.00078822    0.00257841
     atom    9 type  2   force =     0.00000000    0.00045840   -0.04605072
     atom   10 type  1   force =     0.00222780   -0.00655244    0.00386275
     atom   11 type  1   force =     0.00204137    0.00745049    0.00496718
     atom   12 type  1   force =     0.00000000   -0.00175476   -0.00075259
     atom   13 type  1   force =     0.00000000    0.00035078    0.00026774
     atom   14 type  2   force =     0.00014786    0.00010229    0.00013820
     atom   15 type  2   force =     0.00000000    0.00009355    0.00036086
     atom   16 type  1   force =    -0.00016299    0.00003328    0.00038485
     atom   17 type  1   force =    -0.00004279    0.00015262    0.00026735
     atom   18 type  1   force =     0.00000000    0.00018772   -0.00041084
     atom   19 type  1   force =     0.00000000   -0.00020540    0.00032600
     atom   20 type  2   force =    -0.00030998    0.00020540    0.00027195
     atom   21 type  2   force =     0.00000000   -0.00050760   -0.00064796
     atom   22 type  1   force =    -0.00071475   -0.00019953    0.00044156
     atom   23 type  1   force =    -0.00064517    0.00015856    0.00028934
     atom   24 type  1   force =     0.00000000   -0.00004745    0.00060068
     atom   25 type  1   force =     0.00000000    0.00002475    0.10153954
     atom   26 type  2   force =    -0.01344188   -0.00037902   -0.14581779
     atom   27 type  2   force =     0.00000000   -0.00051867    0.06069928
     atom   28 type  1   force =     0.00008624    0.00463341   -0.01420143
     atom   29 type  1   force =     0.00022228   -0.00441678   -0.01408571
     atom   30 type  1   force =     0.00000000   -0.00013672    0.05161919
     atom   31 type  1   force =     0.00000000    0.00019566   -0.01095930
     atom   32 type  2   force =     0.00152355   -0.00078822    0.00257841
     atom   33 type  2   force =     0.00000000    0.00120572   -0.01857390
     atom   34 type  1   force =    -0.00222780   -0.00655244    0.00386275
     atom   35 type  1   force =    -0.00204137    0.00745049    0.00496718
     atom   36 type  1   force =     0.00000000   -0.00182571   -0.01798505
     atom   37 type  1   force =     0.00000000    0.00018423    0.00049957
     atom   38 type  2   force =    -0.00014786    0.00010229    0.00013820
     atom   39 type  2   force =     0.00000000    0.00002404    0.00012502
     atom   40 type  1   force =     0.00016299    0.00003328    0.00038485
     atom   41 type  1   force =     0.00004279    0.00015262    0.00026735
     atom   42 type  1   force =     0.00000000    0.00015481    0.00095921
     atom   43 type  1   force =     0.00000000    0.00007585    0.00002775
     atom   44 type  2   force =     0.00030998    0.00020540    0.00027195
     atom   45 type  2   force =     0.00000000    0.00049844    0.00034577
     atom   46 type  1   force =     0.00071475   -0.00019953    0.00044156
     atom   47 type  1   force =     0.00064517    0.00015856    0.00028934
     atom   48 type  1   force =     0.00000000    0.00010568   -0.00018307
     atom   49 type  1   force =     0.00000000   -0.00029164    0.00057541
     atom   50 type  1   force =     0.00000000    0.00043171    0.00011389
     atom   51 type  3   force =     0.00000000   -0.00011208    0.00038471

     Total force =     0.002789     Total SCF correction =     0.000253

     bfgs converged in  15 scf cycles and  14 bfgs steps
     (criteria: energy < 0.10E-03, force < 0.10E-02)

     End of BFGS Geometry Optimization

     Final energy   =   -4213.2892104787 Ry
Begin final coordinates

ATOMIC_POSITIONS (crystal)
O0       0.000000000   0.500000000   0.319310000    0   0   0
Re1      0.250000000   0.500000000   0.360290000    0   0   0
Re1      0.000000000   0.000000000   0.360290000    0   0   0
O0       0.250000000   0.780000000   0.360290000    0   0   0
O0       0.250000000   0.220000000   0.360290000    0   0   0
O0       0.000000000   0.500000000   0.401270000    0   0   0
O0       0.000000000   0.000000000   0.412450000    0   0   0
Re1      0.250000000   0.000000000   0.453430000    0   0   0
Re1      0.000000000   0.500000000   0.453430000    0   0   0
O0       0.250000000   0.720000000   0.453430000    0   0   0
O0       0.250000000   0.280000000   0.453430000    0   0   0
O0       0.000000000   0.000000000   0.494410000    0   0   0
O0       0.000000000   0.501647701   0.504687318
Re1      0.231394941   0.500342837   0.546434717
Re1      0.000000000   0.000718655   0.547428090
O0       0.246243134   0.782066978   0.547178439
O0       0.246657744   0.219194147   0.546110938
O0       0.000000000   0.490337957   0.588086191
O0       0.000000000   0.005642087   0.601173799
Re1      0.274451902  -0.000523051   0.640635480
Re1      0.000000000   0.501393216   0.637727171
O0       0.248106727   0.717760410   0.637201892
O0       0.251395811   0.283764962   0.641637074
O0       0.000000000  -0.007317972   0.673933851
O0       0.500000000   0.500000000   0.319310000    0   0   0
Re1      0.750000000   0.500000000   0.360290000    0   0   0
Re1      0.500000000   0.000000000   0.360290000    0   0   0
O0       0.750000000   0.780000000   0.360290000    0   0   0
O0       0.750000000   0.220000000   0.360290000    0   0   0
O0       0.500000000   0.500000000   0.401270000    0   0   0
O0       0.500000000   0.000000000   0.412450000    0   0   0
Re1      0.750000000   0.000000000   0.453430000    0   0   0
Re1      0.500000000   0.500000000   0.453430000    0   0   0
O0       0.750000000   0.720000000   0.453430000    0   0   0
O0       0.750000000   0.280000000   0.453430000    0   0   0
O0       0.500000000   0.000000000   0.494410000    0   0   0
O0       0.500000000   0.502090102   0.508283778
Re1      0.768605059   0.500342837   0.546434717
Re1      0.500000000   0.001442959   0.546476454
O0       0.753756866   0.782066978   0.547178439
O0       0.753342256   0.219194147   0.546110938
O0       0.500000000   0.498205969   0.583551031
O0       0.500000000   0.007730991   0.597827578
Re1      0.725548098  -0.000523051   0.640635480
Re1      0.500000000   0.500155659   0.641904721
O0       0.751893273   0.717760410   0.637201892
O0       0.748604189   0.283764962   0.641637074
O0       0.500000000  -0.019991146   0.680756062
O0       0.500000000   0.529055624   0.688540473
O0       0.500000000   0.317118833   0.715691680
H2       0.500000000   0.387209710   0.738462269
End final coordinates



     init_run     :    149.37s CPU    190.46s WALL (       1 calls)
     electrons    : 123611.93s CPU 140800.28s WALL (      15 calls)
     update_pot   :    178.72s CPU    185.17s WALL (      14 calls)
     forces       :   2666.72s CPU   2678.12s WALL (      15 calls)

     Called by init_run:
     wfcinit      :     68.01s CPU     71.16s WALL (       1 calls)
     potinit      :      4.49s CPU      4.55s WALL (       1 calls)

     Called by electrons:
     c_bands      :  76364.66s CPU  79024.14s WALL (     372 calls)
     sum_band     :  20865.86s CPU  21586.40s WALL (     372 calls)
     v_of_rho     :    238.71s CPU    255.96s WALL (     381 calls)
     newd         :  26463.68s CPU  40684.26s WALL (     381 calls)
     mix_rho      :     39.33s CPU     42.23s WALL (     372 calls)

     Called by c_bands:
     init_us_2    :     75.59s CPU     81.16s WALL (    2280 calls)
     cegterg      :  75823.28s CPU  78471.59s WALL (    1116 calls)

     Called by *egterg:
     h_psi        :  26284.78s CPU  28333.87s WALL (    2876 calls)
     s_psi        :   7171.69s CPU   7219.15s WALL (    2876 calls)
     g_psi        :     44.01s CPU     44.11s WALL (    1757 calls)
     cdiaghg      :  15626.82s CPU  15793.42s WALL (    2813 calls)

     Called by h_psi:
     add_vuspsi   :   7172.33s CPU   7221.08s WALL (    2876 calls)

     General routines
     calbec       :  11002.06s CPU  11066.10s WALL (    4037 calls)
     fft          :    396.82s CPU    414.75s WALL (    6239 calls)
     ffts         :      5.90s CPU      6.59s WALL (     753 calls)
     fftw         :  10726.73s CPU  13289.98s WALL ( 3812724 calls)
     interpolate  :     38.14s CPU     43.34s WALL (     753 calls)

     Parallel routines
     fft_scatter  :   3432.38s CPU   5186.56s WALL ( 3819716 calls)

     PWSCF        :     1d   11h26m CPU        1d   16h22m WALL


   This run was terminated on:   8:47:21  24Jun2014            

=------------------------------------------------------------------------------=
   JOB DONE.
=------------------------------------------------------------------------------=
