ScientificPython/2.8-dl160g6-numpy-1.7.1-1(15):ERROR:151: Module 'ScientificPython/2.8-dl160g6-numpy-1.7.1-1' depends on one of the module(s) 'numpy/1.7.1-dl160g6-gfortran-internal-1'
ScientificPython/2.8-dl160g6-numpy-1.7.1-1(15):ERROR:102: Tcl command execution failed: prereq numpy/1.7.1-dl160g6-gfortran-internal-1


     Program PWSCF v.5.0.2 (svn rev. 9656) starts on  8May2014 at 23:37:39 

     This program is part of the open-source Quantum ESPRESSO suite
     for quantum simulation of materials; please cite
         "P. Giannozzi et al., J. Phys.:Condens. Matter 21 395502 (2009);
          URL http://www.quantum-espresso.org", 
     in publications or presentations arising from this work. More details at
     http://www.quantum-espresso.org/quote.php

     Parallel version (MPI), running on    16 processors
     K-points division:     npool     =       4
     R & G space division:  proc/nbgrp/npool/nimage =       4

     Current dimensions of program PWSCF are:
     Max number of different atomic species (ntypx) = 10
     Max number of k-points (npk) =  40000
     Max angular momentum in pseudopotentials (lmaxx) =  3
     Reading input from pwscf.in
Warning: card &CELL ignored
Warning: card / ignored

     Subspace diagonalization in iterative solution of the eigenvalue problem:
     a serial algorithm will be used


     Parallelization info
     --------------------
     sticks:   dense  smooth     PW     G-vecs:    dense   smooth      PW
     Min        1424     456    126               337026    61014    9038
     Max        1425     457    127               337029    61047    9044
     Sum        5697    1827    505              1348107   244131   36167



     bravais-lattice index     =            0
     lattice parameter (alat)  =      11.7541  a.u.
     unit-cell volume          =    7139.8207 (a.u.)^3
     number of atoms/cell      =           30
     number of atomic types    =            3
     number of electrons       =       232.00
     number of Kohn-Sham states=          348
     kinetic-energy cutoff     =      40.0000  Ry
     charge density cutoff     =     500.0000  Ry
     convergence threshold     =      1.0E-06
     mixing beta               =       0.7000
     number of iterations used =            8  plain     mixing
     Exchange-correlation      = SLA  PW   PBE  PBE ( 1 4 3 4 0)
     EXX-fraction              =        0.00
     nstep                     =           50


     celldm(1)=  11.754097  celldm(2)=   0.000000  celldm(3)=   0.000000
     celldm(4)=   0.000000  celldm(5)=   0.000000  celldm(6)=   0.000000

     crystal axes: (cart. coord. in units of alat)
               a(1) = (   1.000000   0.000000   0.000000 )  
               a(2) = (   0.000000   1.034513   0.000000 )  
               a(3) = (   0.000000   0.000000   4.249947 )  

     reciprocal axes: (cart. coord. in units 2 pi/alat)
               b(1) = (  1.000000  0.000000  0.000000 )  
               b(2) = (  0.000000  0.966638  0.000000 )  
               b(3) = (  0.000000  0.000000  0.235297 )  


     PseudoPot. # 1 for O  read from file:
     /home/camp/zhonxu/pseudo/o_pbe_v1.01.uspp.F.UPF
     MD5 check sum: 2bcb18d16ea4b960afae9ec6d52f22d2
     Pseudo is Ultrasoft + core correction, Zval =  6.0
     Generated by new atomic code, or converted to UPF format
     Using radial grid of  737 points,  5 beta functions with: 
                l(1) =   0
                l(2) =   0
                l(3) =   1
                l(4) =   1
                l(5) =   2
     Q(r) pseudized with  8 coefficients,  rinner =    0.900   0.900   0.900
                                                       0.900   0.900

     PseudoPot. # 2 for Rh read from file:
     /home/camp/zhonxu/pseudo/rh_pbe_v1.uspp.F.UPF
     MD5 check sum: 37b626987ad0dd8ec6bf4cc9ef289918
     Pseudo is Ultrasoft + core correction, Zval = 15.0
     Generated by new atomic code, or converted to UPF format
     Using radial grid of  969 points,  7 beta functions with: 
                l(1) =   0
                l(2) =   0
                l(3) =   1
                l(4) =   1
                l(5) =   2
                l(6) =   2
                l(7) =   2
     Q(r) pseudized with  6 coefficients,  rinner =    1.050   1.050   1.050
                                                       1.050   1.050

     PseudoPot. # 3 for H  read from file:
     /home/camp/zhonxu/pseudo/h_pbe_v1.uspp.F.UPF
     MD5 check sum: 3408e3ff4ec8b0a4e358431e7e038a48
     Pseudo is Ultrasoft, Zval =  1.0
     Generated by new atomic code, or converted to UPF format
     Using radial grid of  615 points,  2 beta functions with: 
                l(1) =   0
                l(2) =   0
     Q(r) pseudized with  8 coefficients,  rinner =    0.700

     atomic species   valence    mass     pseudopotential
        O0             6.00    15.99940     O ( 1.00)
        Rh1           15.00   102.90550     Rh( 1.00)
        H2             1.00     1.00794     H ( 1.00)


     Simplified LDA+U calculation (l_max = 2) with parameters (eV):
     atomic species    L          U    alpha       J0     beta
        Rh1            2     8.0000   0.0000   0.0000   0.0000



     No symmetry found



   Cartesian axes

     site n.     atom                  positions (alat units)
         1           O0  tau(   1) = (   0.0000000   0.0000000   1.6092425  )
         2           O0  tau(   2) = (   0.0000000   0.5172566   1.7020614  )
         3           Rh1 tau(   3) = (   0.2500000   0.5172566   1.9209336  )
         4           Rh1 tau(   4) = (   0.0000000   0.0000000   1.9260761  )
         5           O0  tau(   5) = (   0.2500000   0.8379556   1.9243336  )
         6           O0  tau(   6) = (   0.2500000   0.1965575   1.9234411  )
         7           O0  tau(   7) = (   0.0000000   0.5172566   2.1185137  )
         8           O0  tau(   8) = (   0.0000000   0.0000000   2.2473721  )
         9           Rh1 tau(   9) = (   0.2500000   0.0000000   2.4498821  )
        10           Rh1 tau(  10) = (   0.0000000   0.5172566   2.4276124  )
        11           O0  tau(  11) = (   0.2500000   0.7138141   2.4560020  )
        12           O0  tau(  12) = (   0.2500000   0.3206991   2.4560870  )
        13           O0  tau(  13) = (   0.0000000   0.0000000   2.6421072  )
        14           O0  tau(  14) = (   0.5000000   0.0000000   1.6092425  )
        15           O0  tau(  15) = (   0.5000000   0.5172566   1.7020614  )
        16           Rh1 tau(  16) = (   0.7500000   0.5172566   1.9209336  )
        17           Rh1 tau(  17) = (   0.5000000   0.0000000   1.9260761  )
        18           O0  tau(  18) = (   0.7500000   0.8379556   1.9243336  )
        19           O0  tau(  19) = (   0.7500000   0.1965575   1.9234411  )
        20           O0  tau(  20) = (   0.5000000   0.5172566   2.1185137  )
        21           O0  tau(  21) = (   0.5000000   0.0000000   2.2473721  )
        22           Rh1 tau(  22) = (   0.7500000   0.0000000   2.4498821  )
        23           Rh1 tau(  23) = (   0.5000000   0.5172566   2.4276124  )
        24           O0  tau(  24) = (   0.7500000   0.7138141   2.4560020  )
        25           O0  tau(  25) = (   0.7500000   0.3206991   2.4560870  )
        26           O0  tau(  26) = (   0.5000000   0.0000000   2.6421072  )
        27           H2  tau(  27) = (  -0.0000700   0.6610229   1.6318947  )
        28           H2  tau(  28) = (   0.4999300   0.6610125   1.6318947  )
        29           H2  tau(  29) = (   0.1484400   0.0336527   1.5632581  )
        30           H2  tau(  30) = (   0.6484400   0.0336527   1.5632581  )

     number of k points=    10  Methfessel-Paxton smearing, width (Ry)=  0.0100
                       cart. coord. in units 2pi/alat
        k(    1) = (   0.0000000   0.0000000   0.0000000), wk =   0.1250000
        k(    2) = (   0.0000000   0.2416596   0.0000000), wk =   0.2500000
        k(    3) = (   0.0000000  -0.4833191   0.0000000), wk =   0.1250000
        k(    4) = (   0.2500000   0.0000000   0.0000000), wk =   0.2500000
        k(    5) = (   0.2500000   0.2416596   0.0000000), wk =   0.2500000
        k(    6) = (   0.2500000  -0.4833191   0.0000000), wk =   0.2500000
        k(    7) = (  -0.5000000   0.0000000   0.0000000), wk =   0.1250000
        k(    8) = (  -0.5000000   0.2416596   0.0000000), wk =   0.2500000
        k(    9) = (  -0.5000000  -0.4833191   0.0000000), wk =   0.1250000
        k(   10) = (  -0.2500000   0.2416596   0.0000000), wk =   0.2500000

     Dense  grid:  1348107 G-vectors     FFT dimensions: (  90,  90, 360)

     Smooth grid:   244131 G-vectors     FFT dimensions: (  48,  50, 216)

     Largest allocated arrays     est. size (Mb)     dimensions
        Kohn-Sham Wavefunctions        40.77 Mb     (   7677,  348)
        Atomic wavefunctions           20.15 Mb     (   7677,  172)
        NL pseudopotentials            49.90 Mb     (   7677,  426)
        Each V/rho on FFT grid         11.12 Mb     ( 729000)
        Each G-vector array             2.57 Mb     ( 337026)
        G-vector shells                 1.12 Mb     ( 146445)
     Largest temporary arrays     est. size (Mb)     dimensions
        Auxiliary wavefunctions       163.06 Mb     (   7677, 1392)
        Each subspace H/S matrix       29.57 Mb     (1392,1392)
        Each <psi_i|beta_j> matrix      2.26 Mb     (    426,  348)
        Arrays for rho mixing          88.99 Mb     ( 729000,   8)

     Check: negative/imaginary core charge=   -0.000002    0.000000

     Initial potential from superposition of free atoms
     Check: negative starting charge=   -0.642992

     starting charge  227.99915, renormalised to  232.00000

     negative rho (up, down):  0.654E+00 0.000E+00
     Number of +U iterations with fixed ns =  0
     Starting occupations:
 --- enter write_ns ---
 LDA+U parameters:
U( 2)     =  8.00000000
alpha( 2) =  0.00000000
atom    3   Tr[ns(na)] =   7.00000
    eigenvalues: 
  0.700  0.700  0.700  0.700  0.700
    eigenvectors:
  1.000  0.000  0.000  0.000  0.000
  0.000  1.000  0.000  0.000  0.000
  0.000  0.000  1.000  0.000  0.000
  0.000  0.000  0.000  1.000  0.000
  0.000  0.000  0.000  0.000  1.000
    occupations:
  0.700  0.000  0.000  0.000  0.000
  0.000  0.700  0.000  0.000  0.000
  0.000  0.000  0.700  0.000  0.000
  0.000  0.000  0.000  0.700  0.000
  0.000  0.000  0.000  0.000  0.700
atom    4   Tr[ns(na)] =   7.00000
    eigenvalues: 
  0.700  0.700  0.700  0.700  0.700
    eigenvectors:
  1.000  0.000  0.000  0.000  0.000
  0.000  1.000  0.000  0.000  0.000
  0.000  0.000  1.000  0.000  0.000
  0.000  0.000  0.000  1.000  0.000
  0.000  0.000  0.000  0.000  1.000
    occupations:
  0.700  0.000  0.000  0.000  0.000
  0.000  0.700  0.000  0.000  0.000
  0.000  0.000  0.700  0.000  0.000
  0.000  0.000  0.000  0.700  0.000
  0.000  0.000  0.000  0.000  0.700
atom    9   Tr[ns(na)] =   7.00000
    eigenvalues: 
  0.700  0.700  0.700  0.700  0.700
    eigenvectors:
  1.000  0.000  0.000  0.000  0.000
  0.000  1.000  0.000  0.000  0.000
  0.000  0.000  1.000  0.000  0.000
  0.000  0.000  0.000  1.000  0.000
  0.000  0.000  0.000  0.000  1.000
    occupations:
  0.700  0.000  0.000  0.000  0.000
  0.000  0.700  0.000  0.000  0.000
  0.000  0.000  0.700  0.000  0.000
  0.000  0.000  0.000  0.700  0.000
  0.000  0.000  0.000  0.000  0.700
atom   10   Tr[ns(na)] =   7.00000
    eigenvalues: 
  0.700  0.700  0.700  0.700  0.700
    eigenvectors:
  1.000  0.000  0.000  0.000  0.000
  0.000  1.000  0.000  0.000  0.000
  0.000  0.000  1.000  0.000  0.000
  0.000  0.000  0.000  1.000  0.000
  0.000  0.000  0.000  0.000  1.000
    occupations:
  0.700  0.000  0.000  0.000  0.000
  0.000  0.700  0.000  0.000  0.000
  0.000  0.000  0.700  0.000  0.000
  0.000  0.000  0.000  0.700  0.000
  0.000  0.000  0.000  0.000  0.700
atom   16   Tr[ns(na)] =   7.00000
    eigenvalues: 
  0.700  0.700  0.700  0.700  0.700
    eigenvectors:
  1.000  0.000  0.000  0.000  0.000
  0.000  1.000  0.000  0.000  0.000
  0.000  0.000  1.000  0.000  0.000
  0.000  0.000  0.000  1.000  0.000
  0.000  0.000  0.000  0.000  1.000
    occupations:
  0.700  0.000  0.000  0.000  0.000
  0.000  0.700  0.000  0.000  0.000
  0.000  0.000  0.700  0.000  0.000
  0.000  0.000  0.000  0.700  0.000
  0.000  0.000  0.000  0.000  0.700
atom   17   Tr[ns(na)] =   7.00000
    eigenvalues: 
  0.700  0.700  0.700  0.700  0.700
    eigenvectors:
  1.000  0.000  0.000  0.000  0.000
  0.000  1.000  0.000  0.000  0.000
  0.000  0.000  1.000  0.000  0.000
  0.000  0.000  0.000  1.000  0.000
  0.000  0.000  0.000  0.000  1.000
    occupations:
  0.700  0.000  0.000  0.000  0.000
  0.000  0.700  0.000  0.000  0.000
  0.000  0.000  0.700  0.000  0.000
  0.000  0.000  0.000  0.700  0.000
  0.000  0.000  0.000  0.000  0.700
atom   22   Tr[ns(na)] =   7.00000
    eigenvalues: 
  0.700  0.700  0.700  0.700  0.700
    eigenvectors:
  1.000  0.000  0.000  0.000  0.000
  0.000  1.000  0.000  0.000  0.000
  0.000  0.000  1.000  0.000  0.000
  0.000  0.000  0.000  1.000  0.000
  0.000  0.000  0.000  0.000  1.000
    occupations:
  0.700  0.000  0.000  0.000  0.000
  0.000  0.700  0.000  0.000  0.000
  0.000  0.000  0.700  0.000  0.000
  0.000  0.000  0.000  0.700  0.000
  0.000  0.000  0.000  0.000  0.700
atom   23   Tr[ns(na)] =   7.00000
    eigenvalues: 
  0.700  0.700  0.700  0.700  0.700
    eigenvectors:
  1.000  0.000  0.000  0.000  0.000
  0.000  1.000  0.000  0.000  0.000
  0.000  0.000  1.000  0.000  0.000
  0.000  0.000  0.000  1.000  0.000
  0.000  0.000  0.000  0.000  1.000
    occupations:
  0.700  0.000  0.000  0.000  0.000
  0.000  0.700  0.000  0.000  0.000
  0.000  0.000  0.700  0.000  0.000
  0.000  0.000  0.000  0.700  0.000
  0.000  0.000  0.000  0.000  0.700
N of occupied +U levels =  56.0000000
 --- exit write_ns ---
 Atomic wfc used for LDA+U Projector are NOT orthogonalized
     Starting wfc are  172 randomized atomic wfcs

     total cpu time spent up to now is      121.6 secs

     per-process dynamical memory:   418.7 Mb

     Self-consistent Calculation

     iteration #  1     ecut=    40.00 Ry     beta=0.70
     Davidson diagonalization with overlap
     ethr =  1.00E-02,  avg # of iterations =  5.9
 --- enter write_ns ---
 LDA+U parameters:
U( 2)     =  8.00000000
alpha( 2) =  0.00000000
atom    3   Tr[ns(na)] =   6.72965
    eigenvalues: 
  0.463  0.494  0.690  0.856  0.862
    eigenvectors:
  0.000  0.231  0.005  0.762  0.002
  1.000  0.000  0.000  0.000  0.000
  0.000  0.000  0.992  0.008  0.000
  0.000  0.769  0.002  0.228  0.001
  0.000  0.000  0.000  0.003  0.997
    occupations:
  0.772 -0.000  0.014 -0.152  0.000
 -0.000  0.463 -0.000  0.000 -0.003
  0.014 -0.000  0.691 -0.005  0.001
 -0.152  0.000 -0.005  0.577 -0.000
  0.000 -0.003  0.001 -0.000  0.862
atom    4   Tr[ns(na)] =   6.21196
    eigenvalues: 
  0.485  0.495  0.508  0.694  0.925
    eigenvectors:
  0.000  0.010  0.983  0.000  0.007
  0.000  0.008  0.000  0.992  0.000
  0.001  0.981  0.010  0.008  0.000
  0.000  0.000  0.007  0.000  0.993
  0.999  0.001  0.000  0.000  0.000
    occupations:
  0.511  0.000  0.001  0.035  0.000
  0.000  0.692  0.018 -0.001 -0.001
  0.001  0.018  0.497  0.002  0.000
  0.035 -0.001  0.002  0.922 -0.000
  0.000 -0.001  0.000 -0.000  0.485
atom    9   Tr[ns(na)] =   7.78028
    eigenvalues: 
  0.504  0.516  0.933  0.966  0.972
    eigenvectors:
  0.000  0.158  0.000  0.000  0.842
  0.999  0.001  0.000  0.000  0.000
  0.000  0.000  0.000  1.000  0.000
  0.001  0.841  0.000  0.000  0.158
  0.000  0.000  1.000  0.000  0.000
    occupations:
  0.900  0.000 -0.000 -0.166  0.000
  0.000  0.504  0.001  0.000 -0.000
 -0.000  0.001  0.966 -0.000 -0.000
 -0.166  0.000 -0.000  0.588  0.000
  0.000 -0.000 -0.000  0.000  0.933
atom   10   Tr[ns(na)] =   7.92507
    eigenvalues: 
  0.493  0.570  0.964  0.965  0.970
    eigenvectors:
  0.000  0.992  0.001  0.007  0.000
  0.000  0.000  0.000  0.000  1.000
  0.000  0.000  0.933  0.067  0.000
  0.000  0.008  0.066  0.926  0.000
  1.000  0.000  0.000  0.000  0.000
    occupations:
  0.573  0.000  0.002  0.035 -0.000
  0.000  0.970 -0.000 -0.000  0.000
  0.002 -0.000  0.964 -0.000  0.000
  0.035 -0.000 -0.000  0.962 -0.000
 -0.000  0.000  0.000 -0.000  0.493
atom   16   Tr[ns(na)] =   6.72966
    eigenvalues: 
  0.463  0.494  0.690  0.856  0.862
    eigenvectors:
  0.000  0.231  0.005  0.762  0.002
  1.000  0.000  0.000  0.000  0.000
  0.000  0.000  0.992  0.008  0.000
  0.000  0.769  0.002  0.228  0.001
  0.000  0.000  0.000  0.003  0.997
    occupations:
  0.772 -0.000  0.014 -0.152  0.000
 -0.000  0.463 -0.000  0.000 -0.003
  0.014 -0.000  0.691 -0.005  0.001
 -0.152  0.000 -0.005  0.577 -0.000
  0.000 -0.003  0.001 -0.000  0.862
atom   17   Tr[ns(na)] =   6.21195
    eigenvalues: 
  0.485  0.495  0.508  0.694  0.925
    eigenvectors:
  0.000  0.010  0.983  0.000  0.007
  0.000  0.008  0.000  0.992  0.000
  0.001  0.981  0.010  0.008  0.000
  0.000  0.000  0.007  0.000  0.993
  0.999  0.001  0.000  0.000  0.000
    occupations:
  0.511  0.000  0.001  0.035  0.000
  0.000  0.692  0.018 -0.001 -0.001
  0.001  0.018  0.497  0.002  0.000
  0.035 -0.001  0.002  0.922 -0.000
  0.000 -0.001  0.000 -0.000  0.485
atom   22   Tr[ns(na)] =   7.78028
    eigenvalues: 
  0.504  0.516  0.933  0.966  0.972
    eigenvectors:
  0.000  0.158  0.000  0.000  0.842
  0.999  0.001  0.000  0.000  0.000
  0.000  0.000  0.000  1.000  0.000
  0.001  0.841  0.000  0.000  0.158
  0.000  0.000  1.000  0.000  0.000
    occupations:
  0.900  0.000 -0.000 -0.166  0.000
  0.000  0.504  0.001  0.000 -0.000
 -0.000  0.001  0.966 -0.000 -0.000
 -0.166  0.000 -0.000  0.588  0.000
  0.000 -0.000 -0.000  0.000  0.933
atom   23   Tr[ns(na)] =   7.92507
    eigenvalues: 
  0.493  0.570  0.964  0.965  0.970
    eigenvectors:
  0.000  0.992  0.001  0.007  0.000
  0.000  0.000  0.000  0.000  1.000
  0.000  0.000  0.933  0.067  0.000
  0.000  0.008  0.066  0.926  0.000
  1.000  0.000  0.000  0.000  0.000
    occupations:
  0.573  0.000  0.002  0.035 -0.000
  0.000  0.970 -0.000 -0.000  0.000
  0.002 -0.000  0.964 -0.000  0.000
  0.035 -0.000 -0.000  0.962 -0.000
 -0.000  0.000  0.000 -0.000  0.493
N of occupied +U levels =  57.2939133
 --- exit write_ns ---

     negative rho (up, down):  0.670E+00 0.000E+00

     total cpu time spent up to now is      497.5 secs

     total energy              =   -1931.08717028 Ry
     Harris-Foulkes estimate   =   -1946.61036001 Ry
     estimated scf accuracy    <      19.40831131 Ry

     iteration #  2     ecut=    40.00 Ry     beta=0.70
     Davidson diagonalization with overlap
     ethr =  8.37E-03,  avg # of iterations =  5.0

     negative rho (up, down):  0.585E+00 0.000E+00

     total cpu time spent up to now is      841.4 secs

     total energy              =   -1835.10294891 Ry
     Harris-Foulkes estimate   =   -2052.10969124 Ry
     estimated scf accuracy    <    2654.60704265 Ry

     iteration #  3     ecut=    40.00 Ry     beta=0.70
     Davidson diagonalization with overlap
     ethr =  8.37E-03,  avg # of iterations =  5.0

     negative rho (up, down):  0.566E+00 0.000E+00

     total cpu time spent up to now is     1206.6 secs

     total energy              =   -1931.34969888 Ry
     Harris-Foulkes estimate   =   -1960.71048692 Ry
     estimated scf accuracy    <     184.01391564 Ry

     iteration #  4     ecut=    40.00 Ry     beta=0.70
     Davidson diagonalization with overlap
     ethr =  8.37E-03,  avg # of iterations =  3.3

     negative rho (up, down):  0.571E+00 0.000E+00

     total cpu time spent up to now is     1432.4 secs

     total energy              =   -1941.92843714 Ry
     Harris-Foulkes estimate   =   -1948.45347617 Ry
     estimated scf accuracy    <      34.04654701 Ry

     iteration #  5     ecut=    40.00 Ry     beta=0.70
     Davidson diagonalization with overlap
     ethr =  8.37E-03,  avg # of iterations =  1.2

     negative rho (up, down):  0.596E+00 0.000E+00

     total cpu time spent up to now is     1633.4 secs

     total energy              =   -1944.87353532 Ry
     Harris-Foulkes estimate   =   -1945.52615165 Ry
     estimated scf accuracy    <       8.27650496 Ry

     iteration #  6     ecut=    40.00 Ry     beta=0.70
     Davidson diagonalization with overlap
     ethr =  3.57E-03,  avg # of iterations =  1.5

     negative rho (up, down):  0.604E+00 0.000E+00

     total cpu time spent up to now is     1842.0 secs

     total energy              =   -1944.99261609 Ry
     Harris-Foulkes estimate   =   -1945.26181835 Ry
     estimated scf accuracy    <       1.54796583 Ry

     iteration #  7     ecut=    40.00 Ry     beta=0.70
     Davidson diagonalization with overlap
     ethr =  6.67E-04,  avg # of iterations =  5.0

     negative rho (up, down):  0.625E+00 0.000E+00

     total cpu time spent up to now is     2077.8 secs

     total energy              =   -1945.10753392 Ry
     Harris-Foulkes estimate   =   -1945.18165027 Ry
     estimated scf accuracy    <       1.49249022 Ry

     iteration #  8     ecut=    40.00 Ry     beta=0.70
     Davidson diagonalization with overlap
     ethr =  6.43E-04,  avg # of iterations =  1.0

     negative rho (up, down):  0.643E+00 0.000E+00

     total cpu time spent up to now is     2278.4 secs

     total energy              =   -1945.05109232 Ry
     Harris-Foulkes estimate   =   -1945.21956432 Ry
     estimated scf accuracy    <       1.56379783 Ry

     iteration #  9     ecut=    40.00 Ry     beta=0.70
     Davidson diagonalization with overlap
     ethr =  6.43E-04,  avg # of iterations =  1.6

     negative rho (up, down):  0.658E+00 0.000E+00

     total cpu time spent up to now is     2477.6 secs

     total energy              =   -1945.05627596 Ry
     Harris-Foulkes estimate   =   -1945.20667904 Ry
     estimated scf accuracy    <       1.02776799 Ry

     iteration # 10     ecut=    40.00 Ry     beta=0.70
     Davidson diagonalization with overlap
     ethr =  4.43E-04,  avg # of iterations =  1.4

     negative rho (up, down):  0.669E+00 0.000E+00

     total cpu time spent up to now is     2684.8 secs

     total energy              =   -1945.10417056 Ry
     Harris-Foulkes estimate   =   -1945.20870864 Ry
     estimated scf accuracy    <       0.62415167 Ry

     iteration # 11     ecut=    40.00 Ry     beta=0.70
     Davidson diagonalization with overlap
     ethr =  2.69E-04,  avg # of iterations =  4.5

     negative rho (up, down):  0.680E+00 0.000E+00

     total cpu time spent up to now is     2907.5 secs

     total energy              =   -1945.13248107 Ry
     Harris-Foulkes estimate   =   -1945.19318854 Ry
     estimated scf accuracy    <       0.62537284 Ry

     iteration # 12     ecut=    40.00 Ry     beta=0.70
     Davidson diagonalization with overlap
     ethr =  2.69E-04,  avg # of iterations =  4.9

     negative rho (up, down):  0.678E+00 0.000E+00

     total cpu time spent up to now is     3124.8 secs

     total energy              =   -1945.14545084 Ry
     Harris-Foulkes estimate   =   -1945.16088950 Ry
     estimated scf accuracy    <       0.09685440 Ry

     iteration # 13     ecut=    40.00 Ry     beta=0.70
     Davidson diagonalization with overlap
     ethr =  4.17E-05,  avg # of iterations =  6.8

     negative rho (up, down):  0.682E+00 0.000E+00

     total cpu time spent up to now is     3376.4 secs

     total energy              =   -1945.12358947 Ry
     Harris-Foulkes estimate   =   -1945.18680312 Ry
     estimated scf accuracy    <       0.61726731 Ry

     iteration # 14     ecut=    40.00 Ry     beta=0.70
     Davidson diagonalization with overlap
     ethr =  4.17E-05,  avg # of iterations =  5.3

     negative rho (up, down):  0.683E+00 0.000E+00

     total cpu time spent up to now is     3622.5 secs

     total energy              =   -1945.14134012 Ry
     Harris-Foulkes estimate   =   -1945.16606892 Ry
     estimated scf accuracy    <       0.19890688 Ry

     iteration # 15     ecut=    40.00 Ry     beta=0.70
     Davidson diagonalization with overlap
     ethr =  4.17E-05,  avg # of iterations =  3.6

     negative rho (up, down):  0.683E+00 0.000E+00

     total cpu time spent up to now is     3843.9 secs

     total energy              =   -1945.12071778 Ry
     Harris-Foulkes estimate   =   -1945.19354865 Ry
     estimated scf accuracy    <       0.98371525 Ry

     iteration # 16     ecut=    40.00 Ry     beta=0.70
     Davidson diagonalization with overlap
     ethr =  4.17E-05,  avg # of iterations =  2.5

     negative rho (up, down):  0.682E+00 0.000E+00

     total cpu time spent up to now is     4059.6 secs

     total energy              =   -1945.15516334 Ry
     Harris-Foulkes estimate   =   -1945.15607406 Ry
     estimated scf accuracy    <       0.00640516 Ry

     iteration # 17     ecut=    40.00 Ry     beta=0.70
     Davidson diagonalization with overlap
     ethr =  2.76E-06,  avg # of iterations =  6.3

     negative rho (up, down):  0.682E+00 0.000E+00

     total cpu time spent up to now is     4307.9 secs

     total energy              =   -1945.15515896 Ry
     Harris-Foulkes estimate   =   -1945.15637983 Ry
     estimated scf accuracy    <       0.01743905 Ry

     iteration # 18     ecut=    40.00 Ry     beta=0.70
     Davidson diagonalization with overlap
     ethr =  2.76E-06,  avg # of iterations =  1.0

     negative rho (up, down):  0.682E+00 0.000E+00

     total cpu time spent up to now is     4508.3 secs

     total energy              =   -1945.15530966 Ry
     Harris-Foulkes estimate   =   -1945.15618134 Ry
     estimated scf accuracy    <       0.00817642 Ry

     iteration # 19     ecut=    40.00 Ry     beta=0.70
     Davidson diagonalization with overlap
     ethr =  2.76E-06,  avg # of iterations =  1.0

     negative rho (up, down):  0.682E+00 0.000E+00

     total cpu time spent up to now is     4706.9 secs

     total energy              =   -1945.15571079 Ry
     Harris-Foulkes estimate   =   -1945.15584947 Ry
     estimated scf accuracy    <       0.00101150 Ry

     iteration # 20     ecut=    40.00 Ry     beta=0.70
     Davidson diagonalization with overlap
     ethr =  4.36E-07,  avg # of iterations =  1.0

     negative rho (up, down):  0.682E+00 0.000E+00

     total cpu time spent up to now is     4905.5 secs

     total energy              =   -1945.15566253 Ry
     Harris-Foulkes estimate   =   -1945.15591084 Ry
     estimated scf accuracy    <       0.00171849 Ry

     iteration # 21     ecut=    40.00 Ry     beta=0.70
     Davidson diagonalization with overlap
     ethr =  4.36E-07,  avg # of iterations =  1.0

     negative rho (up, down):  0.682E+00 0.000E+00

     total cpu time spent up to now is     5097.2 secs

     total energy              =   -1945.15569733 Ry
     Harris-Foulkes estimate   =   -1945.15592607 Ry
     estimated scf accuracy    <       0.00143326 Ry

     iteration # 22     ecut=    40.00 Ry     beta=0.70
     Davidson diagonalization with overlap
     ethr =  4.36E-07,  avg # of iterations =  1.0

     negative rho (up, down):  0.682E+00 0.000E+00

     total cpu time spent up to now is     5287.6 secs

     total energy              =   -1945.15580099 Ry
     Harris-Foulkes estimate   =   -1945.15582323 Ry
     estimated scf accuracy    <       0.00014163 Ry

     iteration # 23     ecut=    40.00 Ry     beta=0.70
     Davidson diagonalization with overlap
     ethr =  6.10E-08,  avg # of iterations =  1.2

     negative rho (up, down):  0.682E+00 0.000E+00

     total cpu time spent up to now is     5477.6 secs

     total energy              =   -1945.15578381 Ry
     Harris-Foulkes estimate   =   -1945.15585051 Ry
     estimated scf accuracy    <       0.00046329 Ry

     iteration # 24     ecut=    40.00 Ry     beta=0.70
     Davidson diagonalization with overlap
     ethr =  6.10E-08,  avg # of iterations =  1.0

     negative rho (up, down):  0.682E+00 0.000E+00

     total cpu time spent up to now is     5667.6 secs

     total energy              =   -1945.15580070 Ry
     Harris-Foulkes estimate   =   -1945.15582591 Ry
     estimated scf accuracy    <       0.00023773 Ry

     iteration # 25     ecut=    40.00 Ry     beta=0.70
     Davidson diagonalization with overlap
     ethr =  6.10E-08,  avg # of iterations =  1.2

     negative rho (up, down):  0.682E+00 0.000E+00

     total cpu time spent up to now is     5869.1 secs

     total energy              =   -1945.15572226 Ry
     Harris-Foulkes estimate   =   -1945.15590459 Ry
     estimated scf accuracy    <       0.00194819 Ry

     iteration # 26     ecut=    40.00 Ry     beta=0.70
     Davidson diagonalization with overlap
     ethr =  6.10E-08,  avg # of iterations =  1.0

     negative rho (up, down):  0.682E+00 0.000E+00

     total cpu time spent up to now is     6077.5 secs

     total energy              =   -1945.15575929 Ry
     Harris-Foulkes estimate   =   -1945.15587279 Ry
     estimated scf accuracy    <       0.00117650 Ry

     iteration # 27     ecut=    40.00 Ry     beta=0.70
     Davidson diagonalization with overlap
     ethr =  6.10E-08,  avg # of iterations =  1.2

     negative rho (up, down):  0.682E+00 0.000E+00

     total cpu time spent up to now is     6287.7 secs

     total energy              =   -1945.15575838 Ry
     Harris-Foulkes estimate   =   -1945.15587370 Ry
     estimated scf accuracy    <       0.00142269 Ry

     iteration # 28     ecut=    40.00 Ry     beta=0.70
     Davidson diagonalization with overlap
     ethr =  6.10E-08,  avg # of iterations =  1.0

     negative rho (up, down):  0.682E+00 0.000E+00

     total cpu time spent up to now is     6490.9 secs

     total energy              =   -1945.15581404 Ry
     Harris-Foulkes estimate   =   -1945.15582301 Ry
     estimated scf accuracy    <       0.00012365 Ry

     iteration # 29     ecut=    40.00 Ry     beta=0.70
     Davidson diagonalization with overlap
     ethr =  5.33E-08,  avg # of iterations =  1.0

     negative rho (up, down):  0.682E+00 0.000E+00

     total cpu time spent up to now is     6683.5 secs

     total energy              =   -1945.15581037 Ry
     Harris-Foulkes estimate   =   -1945.15582779 Ry
     estimated scf accuracy    <       0.00015617 Ry

     iteration # 30     ecut=    40.00 Ry     beta=0.70
     Davidson diagonalization with overlap
     ethr =  5.33E-08,  avg # of iterations =  1.0

     negative rho (up, down):  0.682E+00 0.000E+00

     total cpu time spent up to now is     6874.4 secs

     total energy              =   -1945.15581794 Ry
     Harris-Foulkes estimate   =   -1945.15582071 Ry
     estimated scf accuracy    <       0.00002463 Ry

     iteration # 31     ecut=    40.00 Ry     beta=0.70
     Davidson diagonalization with overlap
     ethr =  1.06E-08,  avg # of iterations =  1.0

     negative rho (up, down):  0.682E+00 0.000E+00

     total cpu time spent up to now is     7062.2 secs

     total energy              =   -1945.15581821 Ry
     Harris-Foulkes estimate   =   -1945.15582098 Ry
     estimated scf accuracy    <       0.00002546 Ry

     iteration # 32     ecut=    40.00 Ry     beta=0.70
     Davidson diagonalization with overlap
     ethr =  1.06E-08,  avg # of iterations =  1.0

     negative rho (up, down):  0.682E+00 0.000E+00

     total cpu time spent up to now is     7253.9 secs

     total energy              =   -1945.15581867 Ry
     Harris-Foulkes estimate   =   -1945.15582067 Ry
     estimated scf accuracy    <       0.00001517 Ry

     iteration # 33     ecut=    40.00 Ry     beta=0.70
     Davidson diagonalization with overlap
     ethr =  6.54E-09,  avg # of iterations =  1.0

     negative rho (up, down):  0.682E+00 0.000E+00

     total cpu time spent up to now is     7447.0 secs

     total energy              =   -1945.15581900 Ry
     Harris-Foulkes estimate   =   -1945.15582076 Ry
     estimated scf accuracy    <       0.00001771 Ry

     iteration # 34     ecut=    40.00 Ry     beta=0.70
     Davidson diagonalization with overlap
     ethr =  6.54E-09,  avg # of iterations =  1.0

     negative rho (up, down):  0.682E+00 0.000E+00

     total cpu time spent up to now is     7637.2 secs

     total energy              =   -1945.15581955 Ry
     Harris-Foulkes estimate   =   -1945.15582002 Ry
     estimated scf accuracy    <       0.00000285 Ry

     iteration # 35     ecut=    40.00 Ry     beta=0.70
     Davidson diagonalization with overlap
     ethr =  1.23E-09,  avg # of iterations =  2.0

     negative rho (up, down):  0.682E+00 0.000E+00

     total cpu time spent up to now is     7831.1 secs

     total energy              =   -1945.15581776 Ry
     Harris-Foulkes estimate   =   -1945.15582200 Ry
     estimated scf accuracy    <       0.00004289 Ry

     iteration # 36     ecut=    40.00 Ry     beta=0.70
     Davidson diagonalization with overlap
     ethr =  1.23E-09,  avg # of iterations =  1.3

     negative rho (up, down):  0.682E+00 0.000E+00

     total cpu time spent up to now is     8020.4 secs

     total energy              =   -1945.15581872 Ry
     Harris-Foulkes estimate   =   -1945.15582128 Ry
     estimated scf accuracy    <       0.00002334 Ry

     iteration # 37     ecut=    40.00 Ry     beta=0.70
     Davidson diagonalization with overlap
     ethr =  1.23E-09,  avg # of iterations =  1.0

     negative rho (up, down):  0.682E+00 0.000E+00

     total cpu time spent up to now is     8212.6 secs

     total energy              =   -1945.15581951 Ry
     Harris-Foulkes estimate   =   -1945.15582033 Ry
     estimated scf accuracy    <       0.00000533 Ry

     iteration # 38     ecut=    40.00 Ry     beta=0.70
     Davidson diagonalization with overlap
     ethr =  1.23E-09,  avg # of iterations =  1.1

     negative rho (up, down):  0.682E+00 0.000E+00

     total cpu time spent up to now is     8402.5 secs

     total energy              =   -1945.15581873 Ry
     Harris-Foulkes estimate   =   -1945.15582123 Ry
     estimated scf accuracy    <       0.00003428 Ry

     iteration # 39     ecut=    40.00 Ry     beta=0.70
     Davidson diagonalization with overlap
     ethr =  1.23E-09,  avg # of iterations =  1.0

     negative rho (up, down):  0.682E+00 0.000E+00

     total cpu time spent up to now is     8592.8 secs

     total energy              =   -1945.15581993 Ry
     Harris-Foulkes estimate   =   -1945.15582008 Ry
     estimated scf accuracy    <       0.00000182 Ry

     iteration # 40     ecut=    40.00 Ry     beta=0.70
     Davidson diagonalization with overlap
     ethr =  7.83E-10,  avg # of iterations =  1.0

     negative rho (up, down):  0.682E+00 0.000E+00

     total cpu time spent up to now is     8792.4 secs

     total energy              =   -1945.15581980 Ry
     Harris-Foulkes estimate   =   -1945.15582022 Ry
     estimated scf accuracy    <       0.00000332 Ry

     iteration # 41     ecut=    40.00 Ry     beta=0.70
     Davidson diagonalization with overlap
     ethr =  7.83E-10,  avg # of iterations =  1.0

     negative rho (up, down):  0.682E+00 0.000E+00

     total cpu time spent up to now is     8990.3 secs

     total energy              =   -1945.15581997 Ry
     Harris-Foulkes estimate   =   -1945.15582009 Ry
     estimated scf accuracy    <       0.00000106 Ry

     iteration # 42     ecut=    40.00 Ry     beta=0.70
     Davidson diagonalization with overlap
     ethr =  4.59E-10,  avg # of iterations =  1.0

     negative rho (up, down):  0.682E+00 0.000E+00

     total cpu time spent up to now is     9194.5 secs

     End of self-consistent calculation
 --- enter write_ns ---
 LDA+U parameters:
U( 2)     =  8.00000000
alpha( 2) =  0.00000000
atom    3   Tr[ns(na)] =   8.11639
    eigenvalues: 
  0.575  0.594  0.939  0.971  0.980
    eigenvectors:
  0.000  0.206  0.002  0.000  0.792
  1.000  0.000  0.000  0.000  0.000
  0.000  0.000  0.998  0.000  0.002
  0.000  0.794  0.000  0.000  0.206
  0.000  0.000  0.000  1.000  0.000
    occupations:
  0.900 -0.000 -0.000 -0.156 -0.000
 -0.000  0.575 -0.000 -0.000 -0.005
 -0.000 -0.000  0.939 -0.004  0.001
 -0.156 -0.000 -0.004  0.674 -0.000
 -0.000 -0.005  0.001 -0.000  0.971
atom    4   Tr[ns(na)] =   8.13653
    eigenvalues: 
  0.595  0.649  0.901  0.942  0.982
    eigenvectors:
  0.001  0.991  0.000  0.000  0.008
  0.000  0.000  0.068  0.932  0.000
  0.000  0.000  0.932  0.068  0.000
  0.000  0.008  0.000  0.000  0.992
  0.999  0.001  0.000  0.000  0.000
    occupations:
  0.652 -0.005 -0.001  0.030  0.002
 -0.005  0.939  0.010  0.001 -0.001
 -0.001  0.010  0.903 -0.000  0.001
  0.030  0.001 -0.000  0.980  0.000
  0.002 -0.001  0.001  0.000  0.595
atom    9   Tr[ns(na)] =   8.14504
    eigenvalues: 
  0.631  0.643  0.897  0.919  0.984
    eigenvectors:
  0.000  0.154  0.000  0.000  0.845
  0.998  0.002  0.000  0.000  0.000
  0.000  0.000  1.000  0.000  0.000
  0.001  0.844  0.000  0.000  0.155
  0.000  0.000  0.000  1.000  0.000
    occupations:
  0.931  0.000 -0.000 -0.123 -0.000
  0.000  0.631  0.000  0.000 -0.000
 -0.000  0.000  0.897 -0.000 -0.000
 -0.123  0.000 -0.000  0.695  0.001
 -0.000 -0.000 -0.000  0.001  0.919
atom   10   Tr[ns(na)] =   8.09502
    eigenvalues: 
  0.571  0.593  0.950  0.952  0.982
    eigenvectors:
  0.994  0.000  0.000  0.000  0.006
  0.000  0.000  0.999  0.001  0.000
  0.000  0.000  0.001  0.999  0.000
  0.006  0.000  0.000  0.000  0.994
  0.000  1.000  0.000  0.000  0.000
    occupations:
  0.573  0.000  0.002  0.032 -0.000
  0.000  0.950 -0.000  0.000 -0.001
  0.002 -0.000  0.952 -0.000 -0.000
  0.032  0.000 -0.000  0.980  0.000
 -0.000 -0.001 -0.000  0.000  0.593
atom   16   Tr[ns(na)] =   8.11639
    eigenvalues: 
  0.575  0.594  0.939  0.971  0.980
    eigenvectors:
  0.000  0.206  0.002  0.000  0.792
  1.000  0.000  0.000  0.000  0.000
  0.000  0.000  0.998  0.000  0.002
  0.000  0.794  0.000  0.000  0.206
  0.000  0.000  0.000  1.000  0.000
    occupations:
  0.900 -0.000 -0.000 -0.156 -0.000
 -0.000  0.575 -0.000 -0.000 -0.005
 -0.000 -0.000  0.939 -0.004  0.001
 -0.156 -0.000 -0.004  0.674 -0.000
 -0.000 -0.005  0.001 -0.000  0.971
atom   17   Tr[ns(na)] =   8.13670
    eigenvalues: 
  0.595  0.649  0.901  0.942  0.982
    eigenvectors:
  0.001  0.991  0.000  0.000  0.008
  0.000  0.000  0.068  0.932  0.000
  0.000  0.000  0.932  0.068  0.000
  0.000  0.008  0.000  0.000  0.992
  0.999  0.001  0.000  0.000  0.000
    occupations:
  0.652 -0.005 -0.001  0.030  0.002
 -0.005  0.939  0.010  0.001 -0.001
 -0.001  0.010  0.903 -0.000  0.001
  0.030  0.001 -0.000  0.980  0.000
  0.002 -0.001  0.001  0.000  0.595
atom   22   Tr[ns(na)] =   8.14504
    eigenvalues: 
  0.631  0.643  0.897  0.919  0.984
    eigenvectors:
  0.000  0.154  0.000  0.000  0.845
  0.998  0.002  0.000  0.000  0.000
  0.000  0.000  1.000  0.000  0.000
  0.001  0.844  0.000  0.000  0.155
  0.000  0.000  0.000  1.000  0.000
    occupations:
  0.931  0.000 -0.000 -0.123 -0.000
  0.000  0.631  0.000  0.000 -0.000
 -0.000  0.000  0.897 -0.000 -0.000
 -0.123  0.000 -0.000  0.695  0.001
 -0.000 -0.000 -0.000  0.001  0.919
atom   23   Tr[ns(na)] =   8.09497
    eigenvalues: 
  0.571  0.593  0.950  0.952  0.982
    eigenvectors:
  0.994  0.000  0.000  0.000  0.006
  0.000  0.000  0.999  0.001  0.000
  0.000  0.000  0.001  0.999  0.000
  0.006  0.000  0.000  0.000  0.994
  0.000  1.000  0.000  0.000  0.000
    occupations:
  0.573  0.000  0.002  0.032 -0.000
  0.000  0.950 -0.000  0.000 -0.001
  0.002 -0.000  0.952 -0.000 -0.000
  0.032  0.000 -0.000  0.980  0.000
 -0.000 -0.001 -0.000  0.000  0.593
N of occupied +U levels =  64.9860718
 --- exit write_ns ---

          k = 0.0000 0.0000 0.0000 ( 30479 PWs)   bands (ev):

   -48.3938 -48.3354 -48.2928 -48.2844 -48.2815 -48.2582 -48.2546 -48.2225
   -48.2143 -48.2129 -48.1950 -48.1745 -48.1595 -48.0833 -48.0747 -48.0136
   -48.0080 -47.9925 -47.9764 -47.9702 -47.9318 -47.9153 -47.8502 -47.8311
   -21.4592 -21.1421 -21.0673 -20.9743 -20.5659 -20.3914 -20.3442 -20.3378
   -20.3163 -20.2965 -20.2476 -20.2345 -20.2269 -19.9196 -19.6851 -19.6310
   -19.1714 -18.9962 -11.2958 -11.1613 -10.6949 -10.3866 -10.2110 -10.0795
   -10.0577 -10.0432  -9.7143  -8.9834  -8.9257  -8.8570  -8.7699  -8.6837
    -8.4312  -8.4061  -8.2785  -8.2621  -8.1120  -8.0001  -7.7735  -7.6754
    -7.6120  -7.5923  -7.4605  -7.2933  -7.2864  -7.2038  -7.1327  -6.9134
    -6.7069  -6.6368  -6.5782  -6.4611  -6.4086  -6.2878  -6.0659  -5.9265
    -5.7090  -5.6608  -5.5243  -5.5158  -5.4525  -5.3809  -5.2875  -5.2419
    -5.2193  -5.1566  -5.1139  -4.8678  -4.8675  -4.8034  -4.7472  -4.6955
    -4.6558  -4.6394  -4.5941  -4.3675  -4.1576  -4.0522  -3.9821  -3.7244
    -3.6039  -3.5102  -3.4999  -3.1982  -3.1932  -3.1101  -2.9153  -2.8335
    -2.7841  -2.5825  -2.2825  -2.2687  -2.2131  -1.9587  -1.6908  -1.5728
    -1.1851  -1.0075   0.1567   0.2395   0.6029   0.6489   0.7794   0.8004
     0.9575   1.0698   1.5427   1.8715   2.0368   2.1395   2.2233   2.3164
     3.0187   3.5145   3.9644   4.4024   4.7642   5.5726   5.8188   5.9752
     6.2498   6.7751   6.7761   6.8026   7.0484   7.1576   7.2263   7.4015
     7.5535   7.6162   7.6954   7.7746   7.8900   7.9759   8.0145   8.0676
     8.1157   8.2097   8.3197   8.4082   8.4903   8.4930   8.6278   8.7807
     8.8287   8.8637   8.9789   9.0896   9.1355   9.3549   9.4209   9.5575
     9.6398   9.6709   9.8339   9.9748  10.0396  10.3267  10.5047  10.5574
    10.6197  10.7185  10.7643  10.8073  10.9840  11.0521  11.0618  11.0771
    11.0998  11.1339  11.2552  11.4107  11.4669  11.4967  11.5137  11.5284
    11.7536  11.7690  11.8479  11.8593  11.9134  11.9546  12.0006  12.0812
    12.0993  12.1689  12.2871  12.3251  12.3943  12.4357  12.4466  12.5689
    12.6038  12.6700  12.7742  12.8525  12.8686  12.9258  13.0531  13.1223
    13.3886  13.4026  13.4374  13.6095  13.6136  13.7514  13.8344  13.8978
    14.0261  14.0665  14.2812  14.2909  14.3215  14.3874  14.5585  14.7854
    14.8351  14.9866  15.0272  15.0388  15.2493  15.2933  15.3823  15.4426
    15.5392  15.5690  15.7334  15.7393  15.7930  15.9406  16.0314  16.1540
    16.2119  16.3146  16.4937  16.6054  16.6732  16.7943  16.9504  16.9932
    17.0058  17.0801  17.0981  17.1737  17.2458  17.5091  17.5770  17.6454
    17.6880  17.7116  17.9237  18.0392  18.0800  18.1802  18.2041  18.2636
    18.2902  18.3963  18.4122  18.4417  18.5210  18.5719  18.6150  18.6843
    18.7442  18.7621  18.8384  18.8921  18.9535  19.1026  19.1119  19.2100
    19.2251  19.4048  19.4071  19.4867  19.4896  19.6251  19.6418  19.6456
    19.7077  19.7505  19.8217  19.8513  19.8931  19.9399  19.9840  20.0962
    20.2205  20.2673  20.3727  20.3742  20.4553  20.4779  20.5330  20.5414
    20.5885  20.6886  20.8173  21.0405  21.0448  21.1087  21.1216  21.2403
    21.2616  21.4453  21.4701  21.5379  21.5506  21.6324  21.6668  21.7165
    21.7409  22.0010  22.0028  22.0938  22.1224  22.1379  22.1592  22.2451
    22.2723  22.2850  22.3387  22.3567

          k = 0.0000 0.2417 0.0000 ( 30538 PWs)   bands (ev):

   -48.3941 -48.3362 -48.2929 -48.2845 -48.2815 -48.2583 -48.2547 -48.2218
   -48.2143 -48.2121 -48.1949 -48.1734 -48.1592 -48.0826 -48.0747 -48.0154
   -48.0077 -47.9938 -47.9756 -47.9703 -47.9320 -47.9153 -47.8504 -47.8312
   -21.3866 -21.0532 -21.0149 -20.9729 -20.5709 -20.5360 -20.4897 -20.3778
   -20.3399 -20.2874 -20.2538 -20.0733 -20.0456 -19.9160 -19.8199 -19.7919
   -19.1685 -18.9955 -11.0298 -10.8628 -10.6412 -10.5603 -10.4161 -10.1320
   -10.1094 -10.0817  -9.8229  -8.8120  -8.6958  -8.6764  -8.6078  -8.4687
    -8.4242  -8.2852  -8.2167  -8.1873  -8.1197  -7.9958  -7.7516  -7.6903
    -7.6572  -7.5357  -7.5013  -7.4083  -7.2679  -7.1215  -6.9616  -6.8611
    -6.7954  -6.7706  -6.6946  -6.6116  -6.5992  -6.4643  -6.3271  -6.3037
    -6.2358  -6.2093  -5.7726  -5.5313  -5.3903  -5.3874  -5.2543  -5.1786
    -5.1645  -4.8977  -4.8937  -4.8824  -4.7869  -4.6712  -4.6245  -4.5689
    -4.5009  -4.3768  -4.2890  -4.2560  -4.0848  -4.0054  -3.9614  -3.8025
    -3.7810  -3.6167  -3.5945  -3.5634  -3.4876  -3.2879  -2.9784  -2.8168
    -2.7489  -2.3396  -2.3255  -2.2160  -2.0859  -1.9195  -1.7643  -1.7318
    -1.1192  -0.6957  -0.3644  -0.2602   0.2683   0.5265   0.8150   1.1142
     1.5414   1.8195   1.8762   1.9169   1.9518   1.9740   2.1014   2.3180
     3.3001   3.7089   4.1962   4.6083   4.9826   5.1941   5.7017   5.9035
     6.0383   6.1078   6.4101   6.4861   6.8972   6.9227   6.9271   7.1586
     7.3669   7.4970   7.5580   7.7214   7.7548   7.9834   8.1003   8.1554
     8.2601   8.4810   8.5181   8.6371   8.6491   8.8602   8.9152   8.9654
     9.1728   9.2244   9.2431   9.3716   9.3975   9.5287   9.5694   9.6326
     9.6500   9.7901   9.8769   9.9067   9.9598  10.0568  10.0584  10.1873
    10.2821  10.3529  10.3601  10.6778  10.7147  10.7865  10.8082  10.9340
    10.9494  11.0223  11.1111  11.1166  11.2441  11.2782  11.4865  11.5084
    11.7628  11.9219  12.1011  12.1697  12.1905  12.2264  12.2992  12.3015
    12.3943  12.5010  12.5029  12.6491  12.6782  12.8224  12.8519  12.9517
    13.0284  13.0507  13.1860  13.2267  13.3816  13.4631  13.4960  13.5340
    13.6747  13.7198  13.8340  13.8417  13.9080  13.9960  14.0232  14.0916
    14.1399  14.1535  14.3140  14.4008  14.4432  14.4808  14.6745  14.7115
    14.7558  14.8868  14.9691  15.1693  15.1827  15.2338  15.2775  15.3156
    15.4306  15.5290  15.6701  15.6900  15.7123  15.8580  15.8614  16.0064
    16.0071  16.2605  16.2896  16.3787  16.3946  16.4968  16.5215  16.6304
    16.7896  16.8918  16.9569  16.9743  17.0459  17.1135  17.1346  17.2292
    17.2335  17.2956  17.4997  17.5197  17.6766  17.8344  17.9915  18.0502
    18.0545  18.2649  18.3681  18.3753  18.3859  18.4650  18.4847  18.5275
    18.6368  18.6986  18.7675  18.8283  18.8655  18.8725  18.9629  19.0200
    19.0552  19.1722  19.2888  19.2917  19.4459  19.4641  19.5263  19.5745
    19.7085  19.7387  19.7637  19.7747  19.7870  19.8229  19.8537  19.8702
    19.9350  19.9817  20.0932  20.1018  20.1156  20.2731  20.3118  20.3851
    20.4421  20.4468  20.5775  20.7290  20.7290  20.8588  20.8716  20.9040
    20.9917  21.0288  21.1170  21.1190  21.1575  21.1921  21.2456  21.3396
    21.4213  21.4254  21.5623  21.5790  21.5926  21.6557  21.7079  21.7314
    21.8724  21.9233  21.9332  22.0476

          k = 0.0000-0.4833 0.0000 ( 30492 PWs)   bands (ev):

   -48.3942 -48.3369 -48.2930 -48.2844 -48.2814 -48.2583 -48.2547 -48.2211
   -48.2142 -48.2111 -48.1945 -48.1721 -48.1587 -48.0816 -48.0748 -48.0172
   -48.0073 -47.9951 -47.9747 -47.9703 -47.9322 -47.9152 -47.8504 -47.8311
   -21.3094 -21.0266 -20.9715 -20.8225 -20.6271 -20.6048 -20.5766 -20.3612
   -20.3419 -20.3023 -20.2832 -19.9920 -19.9720 -19.9678 -19.9545 -19.9015
   -19.1655 -18.9961 -10.7982 -10.7899 -10.5786 -10.4513 -10.4299 -10.3946
   -10.1688 -10.0983  -9.3044  -8.9626  -8.5840  -8.5657  -8.4187  -8.3667
    -8.3261  -8.2860  -8.2615  -8.2574  -8.0687  -7.9511  -7.8591  -7.6987
    -7.6815  -7.6285  -7.4567  -7.2676  -7.2574  -7.1871  -7.1860  -7.0781
    -7.0552  -6.7745  -6.7676  -6.6208  -6.4924  -6.4790  -6.4359  -6.3536
    -6.2270  -6.1779  -5.8598  -5.7454  -5.6578  -5.3720  -5.2677  -5.2492
    -5.2308  -5.2169  -5.0214  -4.9281  -4.6371  -4.4995  -4.4295  -4.3907
    -4.3400  -4.3302  -4.3088  -4.0868  -4.0550  -4.0100  -3.9443  -3.9145
    -3.8621  -3.7118  -3.6125  -3.5312  -3.3542  -3.1784  -3.0977  -2.7307
    -2.6967  -2.6553  -2.4068  -2.4060  -1.9521  -1.8058  -1.7665  -1.7381
    -1.0637  -0.7936  -0.7264  -0.4375   0.2933   0.8033   0.8298   1.4594
     1.5387   1.7056   1.7962   1.8152   1.9612   2.3145   2.3189   2.3991
     3.8287   4.0964   4.3472   4.8286   4.8974   5.0041   5.2822   5.4704
     5.7047   5.9308   6.3969   6.5553   6.6004   6.6934   6.8564   7.0354
     7.2226   7.3535   7.5553   7.6094   7.8172   7.8775   8.2098   8.4612
     8.5802   8.6221   8.6713   8.7337   8.7764   8.7854   8.8929   8.9751
     9.0094   9.1364   9.1432   9.2074   9.2708   9.3106   9.3564   9.5267
     9.5996   9.6119   9.8112   9.8366   9.9045   9.9793  10.0730  10.3842
    10.4378  10.5119  10.5638  10.6830  10.7235  11.0378  11.0506  11.1433
    11.3240  11.3291  11.3952  11.4306  11.4958  11.6148  11.6468  11.6821
    11.7565  11.8969  11.9544  12.1041  12.2326  12.2669  12.3161  12.3960
    12.5234  12.5880  12.7243  12.7649  12.8086  12.8997  12.9764  12.9858
    13.1255  13.2621  13.3111  13.3385  13.3391  13.3854  13.3861  13.5758
    13.6512  13.7887  13.8245  13.9203  13.9731  14.1527  14.1610  14.2896
    14.3350  14.3821  14.4493  14.4827  14.5718  14.7876  14.9116  14.9759
    15.1441  15.1807  15.3245  15.4115  15.4220  15.4379  15.4748  15.4917
    15.5497  15.6933  15.7289  15.8482  15.8651  15.9353  15.9910  15.9979
    16.1392  16.1495  16.2211  16.2837  16.3015  16.3374  16.4164  16.4367
    16.6319  16.6362  16.6626  16.7368  16.7773  16.9624  17.0283  17.0883
    17.1774  17.2214  17.2914  17.3295  17.3850  17.5780  17.5869  17.6531
    17.6957  17.7512  17.7958  17.9126  17.9998  18.0032  18.0144  18.0867
    18.1432  18.2135  18.2187  18.2434  18.2590  18.2955  18.5282  18.5334
    18.5649  18.7240  18.7752  18.7969  19.0122  19.0692  19.2420  19.2942
    19.5282  19.5989  19.6273  19.6649  19.6863  19.7837  19.9238  19.9555
    19.9999  20.1449  20.1624  20.2171  20.2813  20.2846  20.3216  20.3744
    20.4250  20.4584  20.4669  20.4803  20.5040  20.5333  20.5813  20.6452
    20.7175  20.7291  20.7896  20.8031  20.9319  20.9373  21.0226  21.0467
    21.0947  21.2233  21.2755  21.3491  21.4454  21.4740  21.4740  21.5034
    21.5366  21.5611  21.6027  21.6495

          k = 0.2500 0.0000 0.0000 ( 30502 PWs)   bands (ev):

   -48.3791 -48.3203 -48.2980 -48.2917 -48.2858 -48.2594 -48.2558 -48.2345
   -48.2213 -48.2146 -48.1803 -48.1735 -48.1625 -48.0949 -48.0694 -48.0129
   -48.0090 -47.9901 -47.9893 -47.9789 -47.9294 -47.9178 -47.8475 -47.8341
   -21.3395 -21.0210 -20.9744 -20.9696 -20.5327 -20.4904 -20.4129 -20.3594
   -20.3519 -20.2682 -20.2335 -20.1841 -20.1456 -19.9311 -19.7854 -19.7244
   -19.2327 -19.0856 -10.9758 -10.8569 -10.4290 -10.1324 -10.0560  -9.8916
    -9.8428  -9.8254  -9.5756  -9.2135  -9.1738  -8.9552  -8.9006  -8.8317
    -8.6433  -8.6390  -8.4694  -8.3270  -8.2730  -8.0889  -7.8634  -7.7746
    -7.6647  -7.5445  -7.4243  -7.3768  -7.3286  -7.2138  -7.0475  -6.9374
    -6.9331  -6.9063  -6.7583  -6.4999  -6.4291  -6.3752  -6.1870  -6.0825
    -6.0529  -6.0270  -5.9824  -5.8063  -5.7237  -5.5995  -5.1579  -5.0938
    -5.0549  -4.9794  -4.8948  -4.8802  -4.7910  -4.7588  -4.6880  -4.5502
    -4.4361  -4.3117  -4.2143  -4.1741  -3.9688  -3.8848  -3.6873  -3.6550
    -3.4824  -3.4823  -3.3705  -3.0854  -3.0041  -2.9146  -2.8935  -2.8517
    -2.7420  -2.5688  -2.4848  -2.3816  -2.2846  -2.0985  -1.8637  -1.7101
    -1.0102  -0.8640   0.2782   0.3559   0.7116   0.7411   0.7760   0.8373
     0.9261   1.1164   1.3153   1.7454   1.7974   1.8157   1.8527   2.2204
     3.3552   3.8098   4.2188   4.6549   5.0434   5.2441   5.6831   5.8087
     6.0913   6.1637   6.2690   6.5085   6.9084   7.0051   7.2882   7.3346
     7.3937   7.4588   7.8044   7.8302   7.8632   7.9090   7.9578   8.2528
     8.2663   8.3827   8.4804   8.4912   8.7330   8.8641   8.9443   8.9838
     9.0308   9.0532   9.2103   9.2398   9.3853   9.4401   9.6177   9.6608
     9.7458   9.8612   9.8973   9.9335  10.0175  10.1180  10.1935  10.2100
    10.2721  10.4210  10.5044  10.5287  10.7345  10.8696  10.9394  10.9642
    11.0066  11.0867  11.1561  11.2047  11.2253  11.2605  11.3139  11.5248
    11.5785  11.7040  11.9047  11.9970  12.0575  12.1290  12.2862  12.3248
    12.3766  12.3927  12.4382  12.5684  12.6250  12.7290  12.8432  12.9774
    12.9851  13.1506  13.2908  13.3435  13.4269  13.5444  13.5707  13.6300
    13.7217  13.8256  13.8746  13.8834  13.9153  13.9826  14.0239  14.0930
    14.1694  14.2872  14.3191  14.4372  14.5327  14.6494  14.6853  14.7164
    14.7768  14.8893  15.1824  15.2375  15.2495  15.3458  15.3926  15.4566
    15.4680  15.5502  15.6825  15.7696  15.8268  15.8792  15.9143  15.9324
    16.0074  16.0914  16.1928  16.2770  16.3283  16.3871  16.5134  16.5699
    16.5819  16.6882  16.9698  17.0340  17.0616  17.0725  17.2142  17.2816
    17.3600  17.3887  17.5239  17.5574  17.7466  17.7618  17.9304  18.0445
    18.0683  18.1464  18.1773  18.2671  18.4047  18.4319  18.5940  18.6192
    18.7214  18.8074  18.8750  19.0020  19.0348  19.0688  19.0887  19.1153
    19.1850  19.1924  19.2463  19.3362  19.3760  19.4102  19.4664  19.4953
    19.5465  19.5973  19.6288  19.6987  19.7464  19.7647  19.8170  19.8976
    19.9315  20.0163  20.0839  20.2438  20.2927  20.3497  20.4000  20.4243
    20.4335  20.4636  20.4833  20.5696  20.6317  20.6702  20.7006  20.7940
    20.8027  20.8605  20.8695  20.9449  20.9451  21.0319  21.1506  21.2286
    21.3453  21.3682  21.3868  21.3985  21.4609  21.5867  21.6152  21.6485
    21.7202  21.7899  21.8557  21.9352

          k = 0.2500 0.2417 0.0000 ( 30481 PWs)   bands (ev):

   -48.3791 -48.3209 -48.2980 -48.2918 -48.2859 -48.2596 -48.2559 -48.2352
   -48.2200 -48.2135 -48.1800 -48.1722 -48.1619 -48.0950 -48.0686 -48.0145
   -48.0089 -47.9911 -47.9892 -47.9783 -47.9295 -47.9178 -47.8476 -47.8341
   -21.2809 -20.9724 -20.9447 -20.8956 -20.5485 -20.4934 -20.4691 -20.3717
   -20.3571 -20.3159 -20.2038 -20.1436 -20.1037 -19.9310 -19.9107 -19.8724
   -19.2307 -19.0849 -10.7287 -10.5718 -10.3670 -10.3323 -10.1681  -9.9846
    -9.8717  -9.8137  -9.6546  -9.0612  -8.9276  -8.7958  -8.7036  -8.6857
    -8.6400  -8.4656  -8.4255  -8.2821  -8.2205  -7.9900  -7.8765  -7.7759
    -7.6721  -7.5330  -7.4491  -7.4132  -7.3074  -7.1809  -7.1800  -7.0595
    -7.0244  -6.9252  -6.9126  -6.8048  -6.6679  -6.6095  -6.5928  -6.5176
    -6.3503  -6.2230  -5.9692  -5.7012  -5.6685  -5.4092  -5.2456  -5.1858
    -5.0515  -4.9733  -4.8314  -4.7105  -4.6327  -4.6170  -4.5742  -4.4821
    -4.2841  -4.2513  -4.0807  -3.9805  -3.8087  -3.7900  -3.7220  -3.6248
    -3.5557  -3.4561  -3.4533  -3.3077  -3.2726  -3.2483  -2.9494  -2.7490
    -2.5776  -2.4356  -2.4312  -2.3165  -2.3065  -2.1223  -1.9246  -1.8925
    -0.9329  -0.6270  -0.1443  -0.0498   0.3929   0.5669   0.7927   1.0073
     1.2879   1.4809   1.6175   1.7067   1.8563   1.8783   1.9947   2.1942
     3.6178   3.9917   4.4489   4.8564   5.2376   5.4173   5.4613   5.8086
     5.9396   6.1836   6.3069   6.3684   6.3709   6.6663   6.7456   6.9555
     7.1672   7.3115   7.4303   7.6236   7.6769   7.8797   8.0082   8.0181
     8.1039   8.1841   8.3947   8.4412   8.6011   8.7555   8.8573   8.9021
     8.9484   9.1661   9.2907   9.4969   9.4989   9.6338   9.6875   9.7823
     9.8280   9.9394  10.0950  10.1342  10.2126  10.2974  10.3614  10.5688
    10.5737  10.6303  10.8085  10.8710  10.8736  11.0510  11.0530  11.2035
    11.3093  11.3149  11.4285  11.4908  11.4926  11.5847  11.6850  11.7651
    11.8110  11.9684  12.0679  12.1620  12.2001  12.2319  12.3109  12.3836
    12.4432  12.4530  12.5915  12.6278  12.6992  12.7830  12.8945  13.0151
    13.1101  13.1373  13.2679  13.2899  13.3979  13.4198  13.5276  13.5626
    13.7118  13.7409  13.7974  13.9002  13.9489  14.1049  14.1316  14.1413
    14.2104  14.2673  14.4222  14.4886  14.5955  14.6096  14.6569  14.7913
    14.8778  15.0969  15.1989  15.2773  15.3887  15.4176  15.5109  15.5183
    15.5551  15.6476  15.6960  15.7036  15.7645  15.9076  15.9351  16.0090
    16.0780  16.0882  16.1940  16.3203  16.3214  16.4044  16.4429  16.5418
    16.5433  16.5659  16.6513  16.6979  16.7800  16.8673  16.9465  17.0070
    17.1508  17.1724  17.2022  17.3228  17.3403  17.3898  17.4900  17.5091
    17.5828  17.6140  17.7442  17.7766  17.8443  17.8886  17.9819  18.0584
    18.0876  18.1800  18.2709  18.3799  18.4049  18.5045  18.5109  18.6182
    18.7311  18.8372  18.8674  18.9718  18.9728  19.0368  19.0831  19.1614
    19.1778  19.2798  19.3319  19.5100  19.5466  19.5570  19.6478  19.7619
    19.8295  19.8852  19.9233  20.0852  20.0921  20.2438  20.3595  20.4495
    20.4784  20.5468  20.6063  20.6303  20.6995  20.8146  20.8519  20.9642
    21.0170  21.0214  21.0753  21.1226  21.2037  21.2331  21.3288  21.4077
    21.4412  21.4463  21.5907  21.6083  21.6224  21.6760  21.7570  21.8356
    21.8482  21.9327  22.0137  22.1314

          k = 0.2500-0.4833 0.0000 ( 30510 PWs)   bands (ev):

   -48.3793 -48.3216 -48.2979 -48.2919 -48.2858 -48.2596 -48.2558 -48.2357
   -48.2187 -48.2126 -48.1799 -48.1712 -48.1612 -48.0950 -48.0680 -48.0160
   -48.0091 -47.9922 -47.9891 -47.9778 -47.9297 -47.9177 -47.8477 -47.8340
   -21.2233 -20.9702 -20.8912 -20.7106 -20.5679 -20.5102 -20.5063 -20.3847
   -20.3722 -20.3342 -20.2497 -20.0895 -20.0744 -20.0607 -20.0263 -19.9304
   -19.2287 -19.0851 -10.5242 -10.5125 -10.2992 -10.2145 -10.1664 -10.1633
    -9.9076  -9.8943  -9.2694  -8.9645  -8.6388  -8.5989  -8.4933  -8.4862
    -8.4332  -8.3784  -8.3599  -8.3152  -8.1941  -8.1273  -7.9350  -7.8117
    -7.7965  -7.6986  -7.6772  -7.6514  -7.6180  -7.4908  -7.3234  -7.2018
    -7.0801  -6.9672  -6.8361  -6.8121  -6.7455  -6.7403  -6.6521  -6.3934
    -6.3808  -6.2316  -6.0178  -5.8097  -5.6593  -5.5072  -5.4358  -5.3931
    -5.0379  -5.0196  -4.9039  -4.7811  -4.4798  -4.4522  -4.3368  -4.2899
    -4.2639  -4.0465  -3.9657  -3.9410  -3.9056  -3.8371  -3.7793  -3.6542
    -3.5149  -3.4737  -3.3997  -3.3404  -3.2423  -3.0207  -2.9798  -2.7240
    -2.6912  -2.5243  -2.5078  -2.4823  -2.1368  -2.0894  -1.9724  -1.9202
    -0.8672  -0.5529  -0.4949  -0.4333   0.4185   0.8083   0.8196   1.0564
     1.1915   1.2567   1.7883   1.8242   1.8270   2.0900   2.2057   2.3133
     4.1043   4.3234   4.6127   5.0802   5.1445   5.2702   5.5322   5.7276
     5.7408   5.9773   5.9800   6.2267   6.3919   6.6634   6.8629   6.9952
     7.0105   7.0435   7.1405   7.1874   7.3727   7.6340   7.7949   7.8054
     8.0987   8.1492   8.1778   8.2377   8.5162   8.5190   8.6325   8.7999
     8.9393   9.0244   9.1306   9.4496   9.4922   9.5809   9.8861   9.9075
    10.0039  10.0594  10.1049  10.4254  10.7070  10.7691  10.8204  10.8510
    10.9001  11.0552  11.1235  11.2212  11.2644  11.2896  11.3690  11.4004
    11.4365  11.5592  11.6343  11.7709  11.7809  11.9033  11.9136  11.9516
    12.0413  12.0755  12.1617  12.2256  12.3562  12.4001  12.5230  12.5582
    12.6862  12.7377  12.7678  12.8539  12.8704  12.9376  13.0787  13.1298
    13.2592  13.2713  13.3311  13.3667  13.3771  13.4696  13.5232  13.5320
    13.5670  13.7170  13.7668  13.9387  14.0611  14.0627  14.2387  14.2479
    14.3021  14.3527  14.4303  14.5398  14.5431  14.5545  14.6274  14.6296
    14.7538  14.8002  14.8362  14.8938  14.9585  15.0383  15.0871  15.1138
    15.2001  15.2995  15.4747  15.4758  15.6167  15.6300  15.7085  15.9052
    15.9394  16.0171  16.0601  16.1337  16.1986  16.2303  16.3563  16.4527
    16.5368  16.5866  16.6604  16.6747  16.8190  16.8345  16.8489  16.9184
    16.9703  17.0391  17.1332  17.1783  17.2048  17.3008  17.3483  17.4024
    17.4992  17.5326  17.5722  17.7337  17.8571  17.9042  17.9257  17.9645
    18.1000  18.1009  18.1626  18.2220  18.2491  18.3657  18.3963  18.4902
    18.5109  18.5438  18.5915  18.6417  18.6978  18.8033  18.8759  18.9192
    18.9996  19.0079  19.0336  19.2349  19.3439  19.3655  19.4374  19.5773
    19.5909  19.6353  19.7364  19.7814  19.8008  19.8389  19.8939  19.9395
    20.0437  20.1128  20.3262  20.3974  20.5026  20.5298  20.5718  20.6857
    20.7422  20.7899  20.8443  20.9220  20.9819  21.0481  21.1263  21.2632
    21.2924  21.4120  21.4391  21.5076  21.5768  21.7707  21.7869  21.8737
    21.9351  22.0135  22.0437  22.1137

          k =-0.5000 0.0000 0.0000 ( 30524 PWs)   bands (ev):

   -48.3402 -48.3400 -48.2893 -48.2893 -48.2796 -48.2796 -48.2584 -48.2581
   -48.2182 -48.2182 -48.1690 -48.1688 -48.1404 -48.1404 -48.0319 -48.0319
   -48.0111 -48.0111 -47.9846 -47.9845 -47.9237 -47.9237 -47.8409 -47.8409
   -21.0906 -21.0903 -20.7770 -20.7769 -20.7017 -20.7017 -20.4228 -20.4227
   -20.3234 -20.3232 -20.0304 -20.0303 -20.0128 -20.0127 -19.9405 -19.9405
   -19.2400 -19.2396 -10.1290 -10.1290 -10.0379 -10.0378  -9.8545  -9.8544
    -9.6152  -9.6152  -9.5388  -9.5387  -9.3779  -9.3779  -9.2243  -9.2243
    -8.9396  -8.9396  -8.7558  -8.7558  -8.1050  -8.1050  -7.7577  -7.7577
    -7.6647  -7.6646  -7.1942  -7.1942  -7.1356  -7.1356  -7.0558  -7.0557
    -6.9510  -6.9510  -6.8766  -6.8766  -6.5953  -6.5952  -6.4480  -6.4480
    -6.3257  -6.3257  -6.1526  -6.1525  -5.8726  -5.8725  -5.0611  -5.0610
    -4.8595  -4.8595  -4.7019  -4.7019  -4.5231  -4.5231  -4.4385  -4.4385
    -4.3425  -4.3425  -4.0462  -4.0461  -3.7890  -3.7889  -3.6511  -3.6510
    -3.3048  -3.3048  -3.1330  -3.1330  -2.8564  -2.8562  -2.7773  -2.7772
    -2.5953  -2.5952  -2.5317  -2.5317  -2.2532  -2.2530  -2.0492  -2.0491
    -0.7792  -0.7792   0.4605   0.4606   0.7518   0.7518   1.0676   1.0676
     1.1722   1.1722   1.1852   1.1852   1.1983   1.1984   1.9779   1.9780
     4.1590   4.1590   4.5706   4.5706   4.9664   4.9664   5.3790   5.3791
     5.8215   5.8216   6.4484   6.4485   6.8340   6.8340   6.9836   6.9836
     7.6252   7.6252   7.9638   7.9638   8.0474   8.0474   8.1207   8.1208
     8.5364   8.5364   8.5723   8.5723   8.6786   8.6786   8.9763   8.9763
     9.1038   9.1038   9.1322   9.1323   9.2709   9.2710   9.7009   9.7009
     9.7428   9.7428   9.9117   9.9117   9.9366   9.9366  10.0337  10.0338
    10.2559  10.2559  10.5044  10.5044  10.6909  10.6909  10.8024  10.8024
    11.3192  11.3192  11.4884  11.4884  11.6543  11.6543  11.7725  11.7725
    11.8263  11.8264  12.1580  12.1580  12.2715  12.2715  12.4495  12.4495
    12.5256  12.5256  12.7385  12.7385  12.8433  12.8433  13.0075  13.0075
    13.2825  13.2825  13.3687  13.3687  13.5504  13.5504  13.6907  13.6907
    13.8281  13.8282  13.9810  13.9810  14.1250  14.1250  14.2629  14.2629
    14.3569  14.3569  14.4350  14.4351  14.5424  14.5424  14.7521  14.7522
    14.8681  14.8681  15.0211  15.0211  15.1454  15.1454  15.5983  15.5983
    15.7902  15.7903  16.0967  16.0967  16.1987  16.1987  16.2445  16.2445
    16.2839  16.2839  16.3357  16.3357  16.4462  16.4462  16.5470  16.5470
    16.5906  16.5906  16.6796  16.6796  16.7421  16.7421  16.8241  16.8241
    17.0384  17.0384  17.1728  17.1728  17.4138  17.4139  17.5930  17.5930
    17.7897  17.7897  17.8828  17.8828  18.0753  18.0753  18.3041  18.3041
    18.3690  18.3690  18.4877  18.4877  18.6956  18.6956  18.8156  18.8156
    18.9414  18.9414  19.0878  19.0878  19.1538  19.1538  19.2248  19.2248
    19.3349  19.3349  19.4196  19.4196  19.5439  19.5439  19.5898  19.5898
    19.7090  19.7090  19.8485  19.8485  19.9944  19.9944  20.0983  20.0984
    20.1679  20.1679  20.2630  20.2630  20.3200  20.3200  20.4627  20.4627
    20.5614  20.5614  20.8319  20.8319  20.9616  20.9616  21.0463  21.0463
    21.1732  21.1732  21.1962  21.1962  21.3088  21.3088  21.3471  21.3471
    21.4171  21.4171  21.5515  21.5515

          k =-0.5000 0.2417 0.0000 ( 30500 PWs)   bands (ev):

   -48.3403 -48.3400 -48.2894 -48.2894 -48.2802 -48.2801 -48.2585 -48.2582
   -48.2170 -48.2170 -48.1680 -48.1676 -48.1403 -48.1403 -48.0316 -48.0316
   -48.0119 -48.0117 -47.9847 -47.9847 -47.9237 -47.9237 -47.8409 -47.8409
   -21.0699 -21.0694 -20.7121 -20.7115 -20.6143 -20.6139 -20.4374 -20.4371
   -20.3158 -20.3120 -20.1166 -20.1064 -20.0887 -20.0831 -20.0003 -20.0001
   -19.2390 -19.2386 -10.0775 -10.0742  -9.9007  -9.8872  -9.7614  -9.7131
    -9.6344  -9.6147  -9.4399  -9.4336  -9.3034  -9.2751  -9.1389  -9.1296
    -8.9296  -8.8724  -8.7354  -8.6363  -8.0733  -8.0507  -7.7508  -7.7214
    -7.6828  -7.6791  -7.5041  -7.4639  -7.3618  -7.3357  -7.2861  -7.2860
    -7.1076  -7.0439  -6.8800  -6.8772  -6.6803  -6.6713  -6.6003  -6.5499
    -6.4018  -6.3522  -6.0063  -5.9514  -5.8729  -5.8200  -5.3545  -5.2995
    -5.0724  -5.0437  -4.8425  -4.8414  -4.5857  -4.5761  -4.0730  -4.0679
    -3.9023  -3.8982  -3.8662  -3.8384  -3.7134  -3.7076  -3.6378  -3.6179
    -3.4158  -3.4023  -3.1542  -3.1360  -2.9089  -2.9064  -2.7710  -2.7707
    -2.6299  -2.6286  -2.5045  -2.4579  -2.3520  -2.3320  -2.1879  -2.1705
    -0.6661  -0.6658   0.3999   0.4103   0.4848   0.4869   0.7770   0.7859
     0.9171   0.9192   1.4174   1.4276   1.7134   1.7140   2.0823   2.0906
     4.3714   4.3828   4.7257   4.7258   5.1861   5.1862   5.5645   5.5710
     5.9197   5.9539   6.2035   6.2111   6.6243   6.6348   6.9379   6.9436
     7.0606   7.0625   7.0911   7.0931   7.4744   7.4884   7.8155   7.8257
     8.1124   8.1291   8.2730   8.3097   8.5851   8.6285   8.7323   8.7817
     9.0312   9.1254   9.4993   9.5050   9.7837   9.7863   9.8926   9.8929
    10.0646  10.0720  10.2412  10.2504  10.4240  10.4479  10.6111  10.6205
    10.8101  10.8187  10.9299  10.9390  10.9875  10.9880  11.1739  11.1882
    11.5376  11.5581  11.6835  11.7104  11.9407  11.9409  11.9791  12.0063
    12.0339  12.0593  12.2051  12.2122  12.3947  12.3992  12.5692  12.5746
    12.7265  12.7375  12.9439  12.9459  12.9995  13.0362  13.1264  13.1326
    13.3035  13.3246  13.4444  13.4894  13.5420  13.5584  13.7103  13.7236
    13.8916  13.8923  13.9428  13.9496  14.1172  14.1390  14.2733  14.2892
    14.3452  14.3458  14.5051  14.5492  14.6523  14.6557  14.6853  14.7247
    14.8362  14.8470  14.9389  14.9643  15.0230  15.0437  15.0943  15.0972
    15.2713  15.2797  15.4289  15.4483  15.4864  15.4909  15.7842  15.7930
    15.9223  15.9297  16.0689  16.0896  16.1433  16.1535  16.3340  16.3526
    16.3707  16.4398  16.4710  16.4928  16.5828  16.5940  16.7146  16.7305
    16.8892  16.9041  16.9975  17.0097  17.0386  17.1340  17.3036  17.3366
    17.5271  17.5383  17.6958  17.6966  17.7836  17.8289  17.9013  17.9436
    18.0065  18.0081  18.2689  18.2709  18.3179  18.3449  18.4431  18.4607
    18.5555  18.5581  18.7065  18.7133  18.7937  18.8038  18.9002  18.9063
    19.0702  19.1012  19.1942  19.2082  19.3917  19.4364  19.5130  19.5234
    19.5965  19.6110  19.7161  19.7211  19.8488  19.8674  20.0790  20.0822
    20.2100  20.2234  20.3737  20.4051  20.4962  20.4974  20.6221  20.6987
    20.8123  20.8146  20.8974  20.9360  21.1016  21.1417  21.3500  21.3503
    21.4777  21.4794  21.5819  21.5888  21.7438  21.7451  21.8876  21.9180
    21.9473  21.9960  22.1983  22.2075

          k =-0.5000-0.4833 0.0000 ( 30496 PWs)   bands (ev):

   -48.3403 -48.3401 -48.2895 -48.2895 -48.2807 -48.2807 -48.2585 -48.2583
   -48.2159 -48.2159 -48.1669 -48.1667 -48.1402 -48.1402 -48.0312 -48.0312
   -48.0127 -48.0127 -47.9850 -47.9850 -47.9238 -47.9238 -47.8410 -47.8410
   -21.0508 -21.0505 -20.5839 -20.5838 -20.5346 -20.5345 -20.3616 -20.3615
   -20.3425 -20.3424 -20.2650 -20.2649 -20.2397 -20.2396 -20.0112 -20.0110
   -19.2382 -19.2378 -10.0932 -10.0931  -9.7919  -9.7919  -9.7616  -9.7616
    -9.6380  -9.6380  -9.2451  -9.2450  -8.9221  -8.9220  -8.6458  -8.6457
    -8.5255  -8.5255  -8.4875  -8.4875  -8.4156  -8.4156  -8.3089  -8.3089
    -8.0341  -8.0340  -7.9001  -7.9001  -7.5367  -7.5366  -7.3583  -7.3582
    -7.0977  -7.0977  -6.9818  -6.9817  -6.6806  -6.6805  -6.3954  -6.3953
    -6.2209  -6.2209  -5.8898  -5.8897  -5.7206  -5.7206  -5.6248  -5.6248
    -5.4479  -5.4478  -4.8178  -4.8177  -4.5475  -4.5475  -4.0118  -4.0117
    -3.7050  -3.7049  -3.6232  -3.6232  -3.5758  -3.5757  -3.4673  -3.4673
    -3.4474  -3.4474  -3.3405  -3.3404  -2.8163  -2.8163  -2.7510  -2.7509
    -2.5828  -2.5828  -2.4987  -2.4985  -2.3833  -2.3832  -2.3246  -2.3245
    -0.5774  -0.5774   0.1497   0.1497   0.1631   0.1631   0.8308   0.8309
     0.8928   0.8928   1.5727   1.5728   1.9672   1.9672   2.1557   2.1557
     4.7829   4.7830   4.9726   4.9726   5.3293   5.3294   5.8085   5.8085
     5.8658   5.8658   6.0131   6.0131   6.2453   6.2453   6.4867   6.4867
     6.7100   6.7101   7.0116   7.0116   7.3796   7.3797   7.6272   7.6272
     7.7965   7.7966   7.8751   7.8751   8.4266   8.4267   8.8131   8.8131
     8.9474   8.9474   9.2901   9.2902   9.5775   9.5776  10.0491  10.0491
    10.2437  10.2438  10.5196  10.5196  10.7365  10.7365  11.0978  11.0978
    11.4289  11.4289  11.4823  11.4823  11.5394  11.5395  11.8854  11.8854
    12.0095  12.0095  12.1568  12.1569  12.3170  12.3170  12.4823  12.4823
    12.6142  12.6142  12.7773  12.7773  12.8556  12.8556  12.9462  12.9462
    13.0110  13.0110  13.0992  13.0992  13.1884  13.1884  13.2635  13.2635
    13.3991  13.3991  13.4953  13.4953  13.5233  13.5233  13.5856  13.5856
    13.6642  13.6642  13.7866  13.7866  13.9439  13.9439  13.9672  13.9673
    14.0690  14.0690  14.1478  14.1478  14.3083  14.3083  14.3336  14.3336
    14.4920  14.4920  14.5925  14.5925  14.7820  14.7820  14.9414  14.9414
    15.1054  15.1054  15.1600  15.1600  15.2087  15.2087  15.2994  15.2994
    15.5315  15.5315  15.6030  15.6030  15.6657  15.6657  15.8739  15.8739
    15.9756  15.9756  16.1124  16.1124  16.2630  16.2630  16.4571  16.4571
    16.5768  16.5768  16.7881  16.7882  16.9215  16.9215  17.0198  17.0198
    17.1138  17.1139  17.3429  17.3429  17.4787  17.4787  17.6288  17.6289
    18.0610  18.0611  18.0934  18.0934  18.2417  18.2418  18.2956  18.2956
    18.3814  18.3814  18.6263  18.6263  18.8137  18.8137  19.1447  19.1447
    19.3196  19.3196  19.4083  19.4083  19.5328  19.5328  19.7036  19.7036
    20.1281  20.1281  20.2595  20.2595  20.3750  20.3750  20.6161  20.6161
    20.6763  20.6763  20.7717  20.7718  20.8975  20.8975  20.9326  20.9326
    21.0062  21.0062  21.1222  21.1222  21.2449  21.2450  21.3269  21.3269
    21.4219  21.4219  21.4797  21.4797  21.5952  21.5952  21.6639  21.6640
    21.7169  21.7169  21.8872  21.8872

          k =-0.2500 0.2417 0.0000 ( 30481 PWs)   bands (ev):

   -48.3792 -48.3209 -48.2979 -48.2918 -48.2859 -48.2596 -48.2559 -48.2351
   -48.2200 -48.2135 -48.1800 -48.1725 -48.1616 -48.0950 -48.0686 -48.0143
   -48.0090 -47.9911 -47.9892 -47.9783 -47.9296 -47.9178 -47.8476 -47.8341
   -21.2811 -20.9722 -20.9444 -20.8952 -20.5469 -20.4927 -20.4700 -20.3735
   -20.3578 -20.3205 -20.2035 -20.1384 -20.1031 -19.9312 -19.9113 -19.8727
   -19.2307 -19.0849 -10.7267 -10.5727 -10.3714 -10.3364 -10.1607  -9.9737
    -9.8813  -9.8174  -9.6592  -9.0575  -8.9119  -8.7957  -8.7171  -8.6938
    -8.6715  -8.4117  -8.4112  -8.2707  -8.2322  -7.9978  -7.8760  -7.7896
    -7.6740  -7.5424  -7.5181  -7.4038  -7.2751  -7.2073  -7.0820  -7.0810
    -7.0309  -6.8848  -6.8705  -6.7642  -6.7532  -6.6646  -6.6174  -6.4565
    -6.3617  -6.2635  -5.9616  -5.7176  -5.6772  -5.4119  -5.2125  -5.1839
    -5.0195  -4.9623  -4.8518  -4.7061  -4.6934  -4.6212  -4.5112  -4.4848
    -4.2760  -4.2559  -4.0855  -3.9876  -3.8243  -3.7822  -3.6985  -3.6297
    -3.5637  -3.4807  -3.4729  -3.3176  -3.2645  -3.2081  -2.9512  -2.7523
    -2.5595  -2.4443  -2.4329  -2.3286  -2.3186  -2.0994  -1.9269  -1.8952
    -0.9332  -0.6270  -0.1475  -0.0496   0.3937   0.5719   0.7926   1.0073
     1.2885   1.4687   1.6298   1.7055   1.8582   1.8773   1.9853   2.2002
     3.6130   3.9917   4.4489   4.8586   5.2514   5.4370   5.4697   5.8087
     5.9352   6.1830   6.3155   6.3611   6.3641   6.6296   6.7521   6.9166
     7.1774   7.3180   7.4300   7.6102   7.6978   7.8668   8.0176   8.0275
     8.1065   8.1903   8.3990   8.4037   8.6065   8.7672   8.8624   8.8964
     8.9356   9.1719   9.3124   9.4859   9.5312   9.6343   9.6831   9.7481
     9.8309   9.9405  10.1082  10.1358  10.2297  10.2984  10.3729  10.5021
    10.5711  10.6393  10.7835  10.8735  10.8808  11.0484  11.0508  11.2329
    11.3095  11.3390  11.4443  11.4959  11.4970  11.5798  11.6941  11.7558
    11.8150  11.9813  12.1073  12.1483  12.2079  12.2362  12.3175  12.3804
    12.4407  12.5094  12.5833  12.6274  12.6892  12.7809  12.9009  13.0012
    13.0999  13.1297  13.2251  13.3207  13.3929  13.4229  13.5016  13.5722
    13.7108  13.7351  13.8227  13.8852  13.9017  14.0868  14.1265  14.1854
    14.1921  14.2821  14.3893  14.5027  14.5968  14.6107  14.6890  14.7718
    14.8319  15.0609  15.2186  15.3143  15.4053  15.4287  15.4907  15.5004
    15.5562  15.6174  15.6854  15.6958  15.7673  15.7810  15.9380  16.0094
    16.0696  16.0730  16.1864  16.3451  16.3582  16.3840  16.4514  16.5217
    16.5497  16.5681  16.6383  16.6851  16.7664  16.8726  16.9712  17.0220
    17.1256  17.2037  17.2103  17.3171  17.3503  17.3851  17.5077  17.5169
    17.5815  17.6147  17.7427  17.7551  17.8650  17.8993  18.0133  18.0759
    18.1166  18.1679  18.2428  18.3701  18.4256  18.5145  18.5274  18.6441
    18.7620  18.8541  18.9065  18.9307  18.9868  19.0417  19.1119  19.1759
    19.2067  19.2377  19.3350  19.5038  19.5369  19.5593  19.7025  19.7404
    19.7846  19.9414  19.9460  20.0525  20.1444  20.2700  20.3508  20.3812
    20.4647  20.5687  20.6273  20.6707  20.6867  20.7874  20.8743  20.9338
    20.9439  21.0393  21.1064  21.1252  21.1984  21.2049  21.3350  21.4354
    21.4380  21.4604  21.5668  21.6049  21.6690  21.7108  21.7752  21.8538
    21.8656  21.9297  22.0017  22.1255

     the Fermi energy is    -2.3237 ev

!    total energy              =   -1945.15581949 Ry
     Harris-Foulkes estimate   =   -1945.15582007 Ry
     estimated scf accuracy    <       0.00000066 Ry

     The total energy is the sum of the following terms:

     one-electron contribution =  -22571.18510784 Ry
     hartree contribution      =   11334.74499576 Ry
     xc contribution           =    -365.33446878 Ry
     ewald contribution        =    9653.72146861 Ry
     Hubbard energy            =       2.89853502 Ry
     smearing contrib. (-TS)   =      -0.00124225 Ry

     convergence has been achieved in  42 iterations

     Forces acting on atoms (Ry/au):


     negative rho (up, down):  0.682E+00 0.000E+00
     atom    1 type  1   force =    -0.00842371   -0.01229506    0.00471782
     atom    2 type  1   force =     0.00024465    0.00830602    0.00356159
     atom    3 type  2   force =     0.00001370    0.00666706   -0.01222575
     atom    4 type  2   force =     0.00828886    0.00828251   -0.00310808
     atom    5 type  1   force =    -0.00294221   -0.02524756    0.00021921
     atom    6 type  1   force =     0.00428639    0.02234570   -0.00038510
     atom    7 type  1   force =    -0.00029772   -0.00214378    0.02216382
     atom    8 type  1   force =    -0.00287599   -0.00068495    0.00095430
     atom    9 type  2   force =     0.00106748   -0.00013284   -0.00497156
     atom   10 type  2   force =     0.00003938   -0.00128813    0.00620194
     atom   11 type  1   force =    -0.00023944    0.01594287   -0.01235330
     atom   12 type  1   force =     0.00037950   -0.01541853   -0.01254947
     atom   13 type  1   force =    -0.00058824   -0.00000215    0.00394673
     atom   14 type  1   force =    -0.00851159   -0.01231287    0.00463085
     atom   15 type  1   force =     0.00024504    0.00820486    0.00360869
     atom   16 type  2   force =    -0.00000324    0.00666701   -0.01222657
     atom   17 type  2   force =     0.00828548    0.00828153   -0.00310399
     atom   18 type  1   force =    -0.00286039   -0.02524784    0.00021708
     atom   19 type  1   force =     0.00436684    0.02234542   -0.00038332
     atom   20 type  1   force =    -0.00029762   -0.00214144    0.02218049
     atom   21 type  1   force =    -0.00287731   -0.00068533    0.00094816
     atom   22 type  2   force =     0.00118682   -0.00013642   -0.00497152
     atom   23 type  2   force =     0.00003735   -0.00128834    0.00616530
     atom   24 type  1   force =    -0.00021964    0.01594217   -0.01235281
     atom   25 type  1   force =     0.00039776   -0.01541845   -0.01254988
     atom   26 type  1   force =    -0.00058966   -0.00000218    0.00409046
     atom   27 type  3   force =    -0.00019697   -0.00526505    0.00325507
     atom   28 type  3   force =    -0.00019688   -0.00517704    0.00321504
     atom   29 type  3   force =     0.00115775    0.00095463    0.00054743
     atom   30 type  3   force =     0.00112359    0.00094816    0.00055736

     Total force =     0.047244     Total SCF correction =     0.002968

     BFGS Geometry Optimization

     number of scf cycles    =   1
     number of bfgs steps    =   0

     energy   new            =   -1945.1558194874 Ry

     new trust radius        =       0.0221804873 bohr
     new conv_thr            =       0.0000010000 Ry


ATOMIC_POSITIONS (crystal)
O0       0.000000000   0.000000000   0.378744443    0   0   1
O0       0.000000000   0.500000000   0.400561297    0   0   1
Rh1      0.250000000   0.500000000   0.451745261    0   0   1
Rh1      0.000000000   0.000000000   0.453137782    0   0   1
O0       0.250000000   0.810000000   0.452794388    0   0   1
O0       0.250000000   0.190000000   0.452572291    0   0   1
O0       0.000000000   0.500000000   0.498923682    0   0   1
O0       0.000000000   0.000000000   0.528819103    0   0   1
Rh1      0.250000000   0.000000000   0.576350478    0   0   1
Rh1      0.000000000   0.500000000   0.571334152    0   0   1
O0       0.250000000   0.690000000   0.577642708    0   0   1
O0       0.250000000   0.310000000   0.577658781    0   0   1
O0       0.000000000   0.000000000   0.621759007    0   0   1
O0       0.500000000   0.000000000   0.378742702    0   0   1
O0       0.500000000   0.500000000   0.400562240    0   0   1
Rh1      0.750000000   0.500000000   0.451745245    0   0   1
Rh1      0.500000000   0.000000000   0.453137863    0   0   1
O0       0.750000000   0.810000000   0.452794346    0   0   1
O0       0.750000000   0.190000000   0.452572327    0   0   1
O0       0.500000000   0.500000000   0.498924016    0   0   1
O0       0.500000000   0.000000000   0.528818981    0   0   1
Rh1      0.750000000   0.000000000   0.576350479    0   0   1
Rh1      0.500000000   0.500000000   0.571333419    0   0   1
O0       0.750000000   0.690000000   0.577642718    0   0   1
O0       0.750000000   0.310000000   0.577658773    0   0   1
O0       0.500000000   0.000000000   0.621761884    0   0   1
H2      -0.000086758   0.638537011   0.384045161
H2       0.499913250   0.638534249   0.384044360
H2       0.148538497   0.032608507   0.367840959
H2       0.648535591   0.032607975   0.367841157


     Check: negative starting charge=   -0.642992
     NEW-OLD atomic charge density approx. for the potential

     Check: negative/imaginary core charge=   -0.000002    0.000000
     Check: negative starting charge=   -0.642913

     negative rho (up, down):  0.683E+00 0.000E+00
 Atomic wfc used for LDA+U Projector are NOT orthogonalized

     total cpu time spent up to now is     9440.3 secs

     per-process dynamical memory:   444.0 Mb

     Self-consistent Calculation

     iteration #  1     ecut=    40.00 Ry     beta=0.70
     Davidson diagonalization with overlap
     ethr =  1.00E-06,  avg # of iterations =  4.0
 --- enter write_ns ---
 LDA+U parameters:
U( 2)     =  8.00000000
alpha( 2) =  0.00000000
atom    3   Tr[ns(na)] =   8.12069
    eigenvalues: 
  0.573  0.594  0.941  0.973  0.980
    eigenvectors:
  0.000  0.208  0.002  0.000  0.790
  1.000  0.000  0.000  0.000  0.000
  0.000  0.000  0.998  0.000  0.002
  0.000  0.792  0.000  0.000  0.208
  0.000  0.000  0.000  1.000  0.000
    occupations:
  0.900 -0.000 -0.000 -0.157 -0.000
 -0.000  0.573 -0.000 -0.000 -0.006
 -0.000 -0.000  0.941 -0.004  0.000
 -0.157 -0.000 -0.004  0.674 -0.000
 -0.000 -0.006  0.000 -0.000  0.973
atom    4   Tr[ns(na)] =   8.13948
    eigenvalues: 
  0.595  0.649  0.901  0.942  0.982
    eigenvectors:
  0.001  0.991  0.000  0.000  0.008
  0.000  0.000  0.068  0.931  0.000
  0.000  0.000  0.932  0.068  0.000
  0.000  0.008  0.000  0.000  0.992
  0.999  0.001  0.000  0.000  0.000
    occupations:
  0.652 -0.005 -0.001  0.030  0.002
 -0.005  0.939  0.010  0.001 -0.001
 -0.001  0.010  0.904 -0.000  0.001
  0.030  0.001 -0.000  0.980  0.000
  0.002 -0.001  0.001  0.000  0.595
atom    9   Tr[ns(na)] =   8.14347
    eigenvalues: 
  0.631  0.642  0.896  0.919  0.984
    eigenvectors:
  0.000  0.155  0.000  0.000  0.845
  0.998  0.002  0.000  0.000  0.000
  0.000  0.000  1.000  0.000  0.000
[...]
     8.5356   8.5356   8.5676   8.5676   8.6813   8.6813   8.9709   8.9709
     9.1141   9.1141   9.1654   9.1654   9.2901   9.2901   9.6922   9.6922
     9.7503   9.7503   9.9192   9.9192  10.0239  10.0239  10.1117  10.1118
    10.3112  10.3112  10.5139  10.5139  10.6751  10.6751  10.8239  10.8239
    11.3226  11.3226  11.4842  11.4842  11.6636  11.6636  11.8189  11.8190
    11.8499  11.8499  12.2257  12.2257  12.2693  12.2693  12.4731  12.4731
    12.5422  12.5422  12.7463  12.7463  12.8402  12.8402  13.0151  13.0151
    13.2966  13.2966  13.3875  13.3876  13.5773  13.5773  13.6963  13.6963
    13.8590  13.8590  14.0127  14.0127  14.1633  14.1634  14.2850  14.2850
    14.3493  14.3493  14.4590  14.4590  14.5849  14.5850  14.7937  14.7937
    14.8754  14.8754  15.0213  15.0213  15.1481  15.1481  15.6125  15.6125
    15.7659  15.7659  16.1259  16.1259  16.2045  16.2045  16.2486  16.2486
    16.3031  16.3031  16.3219  16.3219  16.4548  16.4548  16.5416  16.5416
    16.5892  16.5892  16.7029  16.7030  16.7483  16.7484  16.8306  16.8306
    17.0293  17.0293  17.1650  17.1650  17.4167  17.4167  17.5969  17.5969
    17.7793  17.7793  17.8641  17.8641  18.0719  18.0719  18.3201  18.3201
    18.3642  18.3643  18.4733  18.4733  18.6868  18.6868  18.8001  18.8001
    18.9603  18.9603  19.1010  19.1010  19.1352  19.1353  19.2148  19.2148
    19.3377  19.3377  19.4135  19.4135  19.5389  19.5389  19.5919  19.5919
    19.7058  19.7058  19.8764  19.8764  19.9837  19.9837  20.0955  20.0955
    20.1624  20.1624  20.2506  20.2506  20.3131  20.3131  20.4715  20.4715
    20.5598  20.5598  20.8294  20.8294  20.9601  20.9601  21.0605  21.0605
    21.1845  21.1845  21.1990  21.1990  21.3018  21.3018  21.3760  21.3760
    21.4347  21.4347  21.6012  21.6013

          k =-0.5000 0.2417 0.0000 ( 30500 PWs)   bands (ev):

   -48.3194 -48.3194 -48.3083 -48.3083 -48.3002 -48.3001 -48.2292 -48.2291
   -48.2028 -48.2027 -48.1327 -48.1324 -48.1101 -48.1101 -48.0051 -48.0051
   -47.9841 -47.9841 -47.9630 -47.9628 -47.8855 -47.8855 -47.8212 -47.8211
   -21.0948 -21.0944 -20.7025 -20.7024 -20.5971 -20.5966 -20.4035 -20.4022
   -20.2972 -20.2943 -20.0982 -20.0928 -20.0604 -20.0596 -19.9900 -19.9900
   -19.1719 -19.1717 -10.0671 -10.0665  -9.9088  -9.8994  -9.7563  -9.7075
    -9.6310  -9.6116  -9.4345  -9.4292  -9.3147  -9.2883  -9.1320  -9.1226
    -8.9171  -8.8617  -8.7267  -8.6275  -8.0584  -8.0368  -7.7483  -7.7288
    -7.6840  -7.6647  -7.4677  -7.4417  -7.3680  -7.3376  -7.3142  -7.2989
    -7.0741  -7.0147  -6.8638  -6.8547  -6.6490  -6.6415  -6.5952  -6.5448
    -6.3730  -6.3329  -5.9837  -5.9402  -5.7933  -5.7560  -5.3469  -5.2900
    -5.0795  -5.0603  -4.8163  -4.8109  -4.5785  -4.5697  -4.0235  -4.0210
    -3.8806  -3.8708  -3.8292  -3.8036  -3.6867  -3.6802  -3.5957  -3.5748
    -3.3983  -3.3875  -3.1198  -3.0966  -2.8571  -2.8542  -2.7322  -2.7320
    -2.6065  -2.6024  -2.4668  -2.4190  -2.3085  -2.2881  -2.1353  -2.1168
    -0.6243  -0.6240   0.4299   0.4382   0.5149   0.5195   0.8310   0.8403
     0.9718   0.9733   1.4708   1.4823   1.7514   1.7522   2.1328   2.1419
     4.3853   4.3972   4.6694   4.6694   5.1853   5.1855   5.5555   5.5610
     5.9197   5.9555   6.2016   6.2114   6.6121   6.6229   6.9343   6.9408
     7.0603   7.0693   7.1616   7.1658   7.4719   7.4830   7.8338   7.8479
     8.1310   8.1498   8.2796   8.3189   8.6451   8.6765   8.7675   8.8009
     9.0287   9.1238   9.5154   9.5186   9.7858   9.7884   9.9335   9.9344
    10.0883  10.0974  10.2543  10.2588  10.4408  10.4672  10.6178  10.6269
    10.8608  10.8709  10.9345  10.9466  10.9874  10.9880  11.1895  11.2059
    11.5559  11.5763  11.7119  11.7392  11.9472  11.9595  12.0058  12.0314
    12.0612  12.0937  12.2389  12.2459  12.4051  12.4105  12.5835  12.5846
    12.7386  12.7624  12.9445  12.9509  12.9994  13.0404  13.1291  13.1360
    13.3124  13.3358  13.4657  13.5111  13.5737  13.5830  13.7357  13.7523
    13.9037  13.9057  13.9741  13.9756  14.1552  14.1791  14.3036  14.3372
    14.3728  14.3885  14.5180  14.5586  14.6679  14.6799  14.7214  14.7625
    14.8587  14.8600  14.9400  14.9696  15.0288  15.0446  15.1032  15.1124
    15.2760  15.2828  15.4354  15.4514  15.4841  15.4842  15.7793  15.7884
    15.9224  15.9308  16.0816  16.1029  16.1309  16.1409  16.3302  16.3541
    16.3701  16.4397  16.4713  16.4960  16.5731  16.5805  16.7193  16.7347
    16.8918  16.9052  17.0037  17.0187  17.0540  17.1571  17.2944  17.3261
    17.5252  17.5334  17.6819  17.6823  17.7824  17.8322  17.9128  17.9385
    18.0233  18.0394  18.2653  18.2658  18.3171  18.3416  18.4506  18.4674
    18.5647  18.5693  18.7026  18.7085  18.7867  18.7926  18.8951  18.8955
    19.0620  19.0885  19.2057  19.2121  19.3801  19.4285  19.5026  19.5130
    19.5869  19.6006  19.7234  19.7250  19.8294  19.8479  20.0779  20.0807
    20.2063  20.2133  20.3794  20.4138  20.4793  20.4828  20.6181  20.6875
    20.8201  20.8250  20.8965  20.9394  21.1130  21.1508  21.3524  21.3548
    21.4762  21.4872  21.5998  21.6011  21.7260  21.7272  21.8962  21.9538
    21.9787  22.0138  22.2092  22.2355

          k =-0.5000-0.4833 0.0000 ( 30496 PWs)   bands (ev):

   -48.3195 -48.3194 -48.3086 -48.3086 -48.3003 -48.3002 -48.2293 -48.2292
   -48.2018 -48.2018 -48.1316 -48.1316 -48.1100 -48.1100 -48.0054 -48.0054
   -47.9837 -47.9837 -47.9637 -47.9637 -47.8856 -47.8856 -47.8212 -47.8212
   -21.0797 -21.0796 -20.5636 -20.5636 -20.5169 -20.5168 -20.3542 -20.3542
   -20.3214 -20.3213 -20.2403 -20.2402 -20.2073 -20.2073 -19.9991 -19.9991
   -19.1713 -19.1710 -10.0856 -10.0855  -9.7848  -9.7848  -9.7559  -9.7558
    -9.6563  -9.6562  -9.2607  -9.2606  -8.9176  -8.9175  -8.6196  -8.6196
    -8.5285  -8.5285  -8.4653  -8.4653  -8.4196  -8.4196  -8.3262  -8.3262
    -8.0170  -8.0169  -7.8906  -7.8906  -7.5106  -7.5106  -7.3238  -7.3237
    -7.0880  -7.0880  -6.9610  -6.9609  -6.6565  -6.6565  -6.4094  -6.4093
    -6.1879  -6.1879  -5.8568  -5.8568  -5.7429  -5.7429  -5.6021  -5.6021
    -5.4140  -5.4140  -4.7787  -4.7787  -4.5482  -4.5482  -3.9658  -3.9657
    -3.6665  -3.6665  -3.5874  -3.5873  -3.5482  -3.5482  -3.4481  -3.4480
    -3.4093  -3.4093  -3.3031  -3.3030  -2.7677  -2.7676  -2.7161  -2.7161
    -2.5562  -2.5562  -2.4536  -2.4536  -2.3353  -2.3353  -2.2785  -2.2785
    -0.5362  -0.5362   0.1695   0.1695   0.1905   0.1905   0.8866   0.8866
     0.9492   0.9492   1.6324   1.6325   2.0112   2.0113   2.1960   2.1961
     4.7994   4.7994   4.8983   4.8983   5.3316   5.3316   5.8023   5.8023
     5.8628   5.8628   6.0075   6.0075   6.2360   6.2360   6.4810   6.4810
     6.7170   6.7170   7.0158   7.0158   7.3743   7.3743   7.7157   7.7157
     7.8282   7.8282   7.9273   7.9273   8.4825   8.4825   8.8038   8.8038
     8.9493   8.9494   9.3024   9.3024   9.6010   9.6010  10.0665  10.0665
    10.2825  10.2825  10.5621  10.5621  10.7325  10.7325  11.0927  11.0927
    11.4441  11.4441  11.4989  11.4989  11.5783  11.5783  11.8999  11.8999
    12.0123  12.0123  12.1641  12.1641  12.3531  12.3531  12.4814  12.4814
    12.6270  12.6270  12.8253  12.8253  12.9000  12.9000  12.9999  12.9999
    13.0467  13.0467  13.1332  13.1332  13.2042  13.2042  13.2809  13.2809
    13.4036  13.4036  13.5051  13.5051  13.5263  13.5263  13.5986  13.5986
    13.6668  13.6669  13.8143  13.8143  13.9521  13.9521  13.9726  13.9726
    14.0729  14.0729  14.1379  14.1379  14.3265  14.3265  14.3335  14.3336
    14.5096  14.5096  14.6007  14.6007  14.8009  14.8009  14.9463  14.9463
    15.0931  15.0931  15.1737  15.1737  15.2025  15.2025  15.3075  15.3075
    15.5395  15.5396  15.6160  15.6160  15.6723  15.6723  15.8946  15.8946
    15.9793  15.9793  16.1324  16.1324  16.2882  16.2882  16.4652  16.4652
    16.5786  16.5786  16.8016  16.8016  16.9229  16.9229  17.0418  17.0418
    17.0983  17.0983  17.3424  17.3424  17.4688  17.4688  17.6224  17.6224
    18.0546  18.0546  18.1120  18.1120  18.2433  18.2433  18.2982  18.2982
    18.3632  18.3632  18.6368  18.6368  18.8035  18.8035  19.1359  19.1359
    19.2941  19.2941  19.3780  19.3780  19.5074  19.5074  19.6968  19.6968
    20.1179  20.1179  20.2724  20.2724  20.3892  20.3892  20.6155  20.6155
    20.6785  20.6785  20.7676  20.7676  20.9074  20.9074  20.9202  20.9202
    21.0042  21.0042  21.1141  21.1141  21.2471  21.2471  21.3110  21.3110
    21.4080  21.4081  21.4898  21.4898  21.5952  21.5952  21.6628  21.6628
    21.7507  21.7507  21.9055  21.9055

          k =-0.2500 0.2417 0.0000 ( 30481 PWs)   bands (ev):

   -48.3492 -48.3389 -48.3220 -48.3161 -48.2624 -48.2591 -48.2298 -48.2268
   -48.2060 -48.1990 -48.1498 -48.1366 -48.1267 -48.0649 -48.0211 -48.0115
   -47.9986 -47.9655 -47.9600 -47.9419 -47.8912 -47.8796 -47.8278 -47.8143
   -21.2874 -21.0053 -20.9410 -20.8906 -20.5185 -20.4828 -20.4598 -20.3348
   -20.3225 -20.3121 -20.1858 -20.1152 -20.0861 -19.9194 -19.8812 -19.8505
   -19.1614 -19.0261 -10.7165 -10.5845 -10.3713 -10.3162 -10.1666  -9.9649
    -9.8766  -9.8694  -9.6631  -9.0360  -8.8974  -8.8141  -8.7252  -8.6732
    -8.6563  -8.4115  -8.4022  -8.2769  -8.2390  -7.9975  -7.8900  -7.7648
    -7.6503  -7.5021  -7.4822  -7.3836  -7.2673  -7.1815  -7.0690  -7.0488
    -7.0047  -6.8702  -6.8599  -6.7605  -6.7196  -6.6708  -6.6201  -6.4374
    -6.3610  -6.2375  -5.9515  -5.6975  -5.6288  -5.3797  -5.1793  -5.1790
    -4.9859  -4.9329  -4.8610  -4.7016  -4.6501  -4.6115  -4.5078  -4.4563
    -4.2375  -4.2319  -4.0432  -3.9460  -3.7981  -3.7425  -3.6644  -3.5939
    -3.5545  -3.4620  -3.4506  -3.2940  -3.2364  -3.1690  -2.9079  -2.7134
    -2.5450  -2.3982  -2.3826  -2.2703  -2.2655  -2.0465  -1.8920  -1.8449
    -0.8615  -0.6076  -0.1231  -0.0402   0.4517   0.6335   0.8781   1.0408
     1.3209   1.5227   1.6852   1.7610   1.8981   1.9113   2.0359   2.2485
     3.6296   3.9515   4.4494   4.8502   5.2573   5.4518   5.4775   5.7300
     5.9183   6.1887   6.3365   6.3662   6.3915   6.6278   6.7450   6.9066
     7.1917   7.3070   7.4626   7.6096   7.6981   7.9193   8.0203   8.0653
     8.1817   8.2270   8.3964   8.4037   8.6038   8.7477   8.8871   8.9180
     8.9509   9.1905   9.3046   9.5107   9.5498   9.6253   9.7120   9.7627
     9.8424   9.9844  10.1198  10.1443  10.2343  10.3115  10.3905  10.5345
    10.5707  10.6479  10.8126  10.8904  10.8906  11.0631  11.0870  11.2547
    11.3345  11.3693  11.4457  11.4964  11.5314  11.5941  11.6957  11.7670
    11.8720  12.0065  12.1275  12.1643  12.2271  12.2499  12.3874  12.4131
    12.4470  12.5167  12.6003  12.6378  12.7024  12.8056  12.9297  13.0128
    13.1227  13.1646  13.2258  13.3493  13.3975  13.4341  13.5392  13.5752
    13.6912  13.7471  13.8340  13.8984  13.9556  14.0957  14.1894  14.2037
    14.2764  14.2961  14.3871  14.5063  14.5762  14.6646  14.6996  14.7872
    14.8631  15.0646  15.2270  15.3216  15.4178  15.4186  15.5069  15.5220
    15.5567  15.6216  15.6793  15.6940  15.7713  15.7875  15.9326  16.0076
    16.0734  16.0778  16.1850  16.3540  16.3687  16.4015  16.4688  16.5423
    16.5465  16.5740  16.6645  16.6901  16.7797  16.8797  16.9735  17.0316
    17.1293  17.2006  17.2141  17.3131  17.3544  17.3772  17.5086  17.5153
    17.5879  17.6290  17.7386  17.7440  17.8642  17.9041  18.0090  18.0669
    18.1137  18.1622  18.2465  18.3523  18.4232  18.4971  18.5139  18.6429
    18.7837  18.8297  18.9071  18.9160  18.9747  19.0261  19.1093  19.1809
    19.2099  19.2726  19.3224  19.5119  19.5515  19.5575  19.7148  19.7228
    19.7972  19.9426  19.9555  20.0523  20.1479  20.2788  20.3567  20.3895
    20.4619  20.5634  20.6450  20.6576  20.7027  20.8088  20.8629  20.9372
    20.9459  21.0452  21.1032  21.1276  21.1831  21.1988  21.3410  21.4386
    21.4504  21.4757  21.5658  21.6094  21.6928  21.7060  21.7685  21.8593
    21.8823  21.9327  21.9943  22.1363

     the Fermi energy is    -2.2755 ev

!    total energy              =   -1945.15948830 Ry
     Harris-Foulkes estimate   =   -1945.15948830 Ry
     estimated scf accuracy    <          4.0E-09 Ry

     The total energy is the sum of the following terms:

     one-electron contribution =  -22652.39883743 Ry
     hartree contribution      =   11375.55857117 Ry
     xc contribution           =    -365.40149511 Ry
     ewald contribution        =    9694.18825749 Ry
     Hubbard energy            =       2.89553310 Ry
     smearing contrib. (-TS)   =      -0.00151751 Ry

     convergence has been achieved in  15 iterations

     Forces acting on atoms (Ry/au):


     negative rho (up, down):  0.686E+00 0.000E+00
     atom    1 type  1   force =    -0.00663385   -0.01154123    0.00028655
     atom    2 type  1   force =     0.00006725    0.00193719   -0.00058941
     atom    3 type  2   force =    -0.00000648    0.00710778   -0.00080699
     atom    4 type  2   force =     0.00794181    0.00813584   -0.00000770
     atom    5 type  1   force =    -0.00328352   -0.02489262    0.00006826
     atom    6 type  1   force =     0.00462763    0.02199593    0.00011568
     atom    7 type  1   force =    -0.00033277   -0.00217958    0.00046790
     atom    8 type  1   force =    -0.00290162   -0.00057703   -0.00045978
     atom    9 type  2   force =     0.00109380   -0.00010516   -0.00058533
     atom   10 type  2   force =     0.00001390   -0.00130692    0.00063083
     atom   11 type  1   force =    -0.00019748    0.01891212    0.00017442
     atom   12 type  1   force =     0.00035842   -0.01850746    0.00021024
     atom   13 type  1   force =    -0.00060074    0.00000126   -0.00046888
     atom   14 type  1   force =    -0.00664099   -0.01154199    0.00027907
     atom   15 type  1   force =     0.00006680    0.00193777   -0.00058180
     atom   16 type  2   force =    -0.00001633    0.00710736   -0.00080670
     atom   17 type  2   force =     0.00794402    0.00813639   -0.00000980
     atom   18 type  1   force =    -0.00328546   -0.02489263    0.00006853
     atom   19 type  1   force =     0.00462553    0.02199604    0.00011597
     atom   20 type  1   force =    -0.00033373   -0.00217919    0.00046839
     atom   21 type  1   force =    -0.00290307   -0.00057705   -0.00044787
     atom   22 type  2   force =     0.00109884   -0.00010510   -0.00058517
     atom   23 type  2   force =     0.00001328   -0.00130673    0.00061725
     atom   24 type  1   force =    -0.00019917    0.01891216    0.00017494
     atom   25 type  1   force =     0.00035632   -0.01850756    0.00021063
     atom   26 type  1   force =    -0.00060097    0.00000125   -0.00043635
     atom   27 type  3   force =     0.00000342    0.00060484    0.00088444
     atom   28 type  3   force =     0.00000305    0.00060407    0.00088578
     atom   29 type  3   force =    -0.00014118    0.00041470    0.00006190
     atom   30 type  3   force =    -0.00013671    0.00041555    0.00006501

     Total force =     0.002783     Total SCF correction =     0.000252

     bfgs converged in   9 scf cycles and   8 bfgs steps
     (criteria: energy < 0.10E-03, force < 0.10E-02)

     End of BFGS Geometry Optimization

     Final energy   =   -1945.1594882964 Ry
Begin final coordinates

ATOMIC_POSITIONS (crystal)
O0       0.000000000   0.000000000   0.378902650    0   0   1
O0       0.000000000   0.500000000   0.401555792    0   0   1
Rh1      0.250000000   0.500000000   0.452562087    0   0   1
Rh1      0.000000000   0.000000000   0.453157437    0   0   1
O0       0.250000000   0.810000000   0.452977422    0   0   1
O0       0.250000000   0.190000000   0.452656824    0   0   1
O0       0.000000000   0.500000000   0.499592241    0   0   1
O0       0.000000000   0.000000000   0.528490888    0   0   1
Rh1      0.250000000   0.000000000   0.575838185    0   0   1
Rh1      0.000000000   0.500000000   0.571549237    0   0   1
O0       0.250000000   0.690000000   0.576216586    0   0   1
O0       0.250000000   0.310000000   0.576234755    0   0   1
O0       0.000000000   0.000000000   0.621387989    0   0   1
O0       0.500000000   0.000000000   0.378903031    0   0   1
O0       0.500000000   0.500000000   0.401555270    0   0   1
Rh1      0.750000000   0.500000000   0.452562071    0   0   1
Rh1      0.500000000   0.000000000   0.453157390    0   0   1
O0       0.750000000   0.810000000   0.452977400    0   0   1
O0       0.750000000   0.190000000   0.452656802    0   0   1
O0       0.500000000   0.500000000   0.499592494    0   0   1
O0       0.500000000   0.000000000   0.528489795    0   0   1
Rh1      0.750000000   0.000000000   0.575838171    0   0   1
Rh1      0.500000000   0.500000000   0.571549752    0   0   1
O0       0.750000000   0.690000000   0.576216516    0   0   1
O0       0.750000000   0.310000000   0.576234716    0   0   1
O0       0.500000000   0.000000000   0.621385482    0   0   1
H2      -0.000319807   0.637366394   0.384597368
H2       0.499680491   0.637366637   0.384596947
H2       0.148443756   0.033661396   0.368212870
H2       0.648441417   0.033661837   0.368211835
End final coordinates



     init_run     :    119.44s CPU    121.22s WALL (       1 calls)
     electrons    :  36724.63s CPU  37818.47s WALL (       9 calls)
     update_pot   :    175.32s CPU    179.71s WALL (       8 calls)
     forces       :   1282.39s CPU   1300.33s WALL (       9 calls)

     Called by init_run:
     wfcinit      :     40.01s CPU     40.72s WALL (       1 calls)
     potinit      :      8.01s CPU      8.16s WALL (       1 calls)

     Called by electrons:
     c_bands      :  18622.72s CPU  19307.76s WALL (     184 calls)
     sum_band     :   7333.65s CPU   7535.76s WALL (     184 calls)
     v_of_rho     :    217.68s CPU    228.52s WALL (     192 calls)
     newd         :  10930.82s CPU  10959.65s WALL (     192 calls)
     mix_rho      :     40.27s CPU     41.80s WALL (     184 calls)

     Called by c_bands:
     init_us_2    :     41.86s CPU     42.31s WALL (    1188 calls)
     cegterg      :  18378.81s CPU  19038.24s WALL (     552 calls)

     Called by *egterg:
     h_psi        :  10634.08s CPU  11109.83s WALL (    1540 calls)
     s_psi        :   1131.88s CPU   1145.30s WALL (    1594 calls)
     g_psi        :     23.43s CPU     23.44s WALL (     985 calls)
     cdiaghg      :   1694.22s CPU   1699.71s WALL (    1510 calls)

     Called by h_psi:
     add_vuspsi   :   1100.36s CPU   1115.07s WALL (    1540 calls)
     vhpsi        :   1025.30s CPU   1038.71s WALL (    1540 calls)

     General routines
     calbec       :   2599.80s CPU   2633.37s WALL (   11582 calls)
     fft          :    264.07s CPU    310.30s WALL (    3147 calls)
     ffts         :      3.54s CPU      3.61s WALL (     376 calls)
     fftw         :   6174.93s CPU   6715.29s WALL ( 1005194 calls)
     interpolate  :     33.04s CPU     33.52s WALL (     376 calls)
     davcio       :      0.10s CPU     17.77s WALL (    1215 calls)

     Parallel routines
     fft_scatter  :   2570.46s CPU   3142.19s WALL ( 1008717 calls)
     Hubbard U routines
     new_ns       :    231.54s CPU    243.01s WALL (     184 calls)
     vhpsi        :   1025.30s CPU   1038.71s WALL (    1540 calls)
     force_hub    :    337.53s CPU    348.52s WALL (       9 calls)

     PWSCF        :    10h47m CPU       11h 6m WALL


   This run was terminated on:  10:43:48   9May2014            

=------------------------------------------------------------------------------=
   JOB DONE.
=------------------------------------------------------------------------------=
---------------------------------------
Running PBS batch system epilogue script
Job id: 340841.audhumbla.fysik.dtu.dk
Username: zhonxu
Groupname: campgst
Jobname: RhO2/Eads-2-layers/bare-U-8.0
Sessionid: 30989
Resources limits: neednodes=2:ppn=8:xeon8,nodes=2:ppn=8:xeon8,walltime=48:00:00
Resources used: cput=177:32:37,mem=17218432kb,vmem=20804560kb,walltime=11:06:10
Queuename: verylong
Accounting:
This job has allocated the following 16 nodes:
d081 d081 d081 d081 d081 d081 d081 d081 d019 d019 d019 d019 d019 d019 d019 d019
Finished epilogue job 340841.audhumbla.fysik.dtu.dk for zhonxu
