
     Program PWSCF v.5.0.2 (svn rev. 9656) starts on  5Jun2014 at 19:31:40 

     This program is part of the open-source Quantum ESPRESSO suite
     for quantum simulation of materials; please cite
         "P. Giannozzi et al., J. Phys.:Condens. Matter 21 395502 (2009);
          URL http://www.quantum-espresso.org", 
     in publications or presentations arising from this work. More details at
     http://www.quantum-espresso.org/quote.php

     Parallel version (MPI), running on    16 processors
     K-points division:     npool     =       4
     R & G space division:  proc/nbgrp/npool/nimage =       4

     Current dimensions of program PWSCF are:
     Max number of different atomic species (ntypx) = 10
     Max number of k-points (npk) =  40000
     Max angular momentum in pseudopotentials (lmaxx) =  3
     Reading input from pwscf.in
Warning: card &CELL ignored
Warning: card / ignored

     Subspace diagonalization in iterative solution of the eigenvalue problem:
     a serial algorithm will be used


     Parallelization info
     --------------------
     sticks:   dense  smooth     PW     G-vecs:    dense   smooth      PW
     Min        1419     456    126               336167    60843    9016
     Max        1420     457    127               336172    60875    9024
     Sum        5677    1827    505              1344679   243423   36075



     bravais-lattice index     =            0
     lattice parameter (alat)  =      11.7919  a.u.
     unit-cell volume          =    7123.6633 (a.u.)^3
     number of atoms/cell      =           33
     number of atomic types    =            3
     number of electrons       =       253.00
     number of Kohn-Sham states=          367
     kinetic-energy cutoff     =      40.0000  Ry
     charge density cutoff     =     500.0000  Ry
     convergence threshold     =      1.0E-06
     mixing beta               =       0.3000
     number of iterations used =            8  plain     mixing
     Exchange-correlation      = SLA  PW   PBE  PBE ( 1 4 3 4 0)
     EXX-fraction              =        0.00
     nstep                     =           50


     celldm(1)=  11.791891  celldm(2)=   0.000000  celldm(3)=   0.000000
     celldm(4)=   0.000000  celldm(5)=   0.000000  celldm(6)=   0.000000

     crystal axes: (cart. coord. in units of alat)
               a(1) = (   1.000000   0.000000   0.000000 )  
               a(2) = (   0.000000   1.026665   0.000000 )  
               a(3) = (   0.000000   0.000000   4.231793 )  

     reciprocal axes: (cart. coord. in units 2 pi/alat)
               b(1) = (  1.000000  0.000000  0.000000 )  
               b(2) = (  0.000000  0.974028  0.000000 )  
               b(3) = (  0.000000  0.000000  0.236306 )  


     PseudoPot. # 1 for O  read from file:
     /home/camp/zhonxu/pseudo/o_pbe_v1.01.uspp.F.UPF
     MD5 check sum: 2bcb18d16ea4b960afae9ec6d52f22d2
     Pseudo is Ultrasoft + core correction, Zval =  6.0
     Generated by new atomic code, or converted to UPF format
     Using radial grid of  737 points,  5 beta functions with: 
                l(1) =   0
                l(2) =   0
                l(3) =   1
                l(4) =   1
                l(5) =   2
     Q(r) pseudized with  8 coefficients,  rinner =    0.900   0.900   0.900
                                                       0.900   0.900

     PseudoPot. # 2 for Ru read from file:
     /home/camp/zhonxu/pseudo/ru_pbe_v1.uspp.F.UPF
     MD5 check sum: df00be1c11b23341d9806d8f1dfa10cf
     Pseudo is Ultrasoft + core correction, Zval = 16.0
     Generated by new atomic code, or converted to UPF format
     Using radial grid of  967 points,  6 beta functions with: 
                l(1) =   0
                l(2) =   0
                l(3) =   1
                l(4) =   1
                l(5) =   2
                l(6) =   2
     Q(r) pseudized with  8 coefficients,  rinner =    1.300   1.300   1.300
                                                       1.300   1.300

     PseudoPot. # 3 for H  read from file:
     /home/camp/zhonxu/pseudo/h_pbe_v1.uspp.F.UPF
     MD5 check sum: 3408e3ff4ec8b0a4e358431e7e038a48
     Pseudo is Ultrasoft, Zval =  1.0
     Generated by new atomic code, or converted to UPF format
     Using radial grid of  615 points,  2 beta functions with: 
                l(1) =   0
                l(2) =   0
     Q(r) pseudized with  8 coefficients,  rinner =    0.700

     atomic species   valence    mass     pseudopotential
        O0             6.00    15.99940     O ( 1.00)
        Ru1           16.00   101.07000     Ru( 1.00)
        H2             1.00     1.00794     H ( 1.00)


     Simplified LDA+U calculation (l_max = 2) with parameters (eV):
     atomic species    L          U    alpha       J0     beta
        Ru1            2     0.5000   0.0000   0.0000   0.0000



     No symmetry found



   Cartesian axes

     site n.     atom                  positions (alat units)
         1           O0  tau(   1) = (   0.0000000   0.0000000   1.5976288  )
         2           O0  tau(   2) = (   0.0000000   0.5133323   1.7135376  )
         3           Ru1 tau(   3) = (   0.2500000   0.5133323   1.9265237  )
         4           Ru1 tau(   4) = (   0.0000000   0.0000000   1.9104429  )
         5           O0  tau(   5) = (   0.2500000   0.8315984   1.9133628  )
         6           O0  tau(   6) = (   0.2500000   0.1950663   1.9137014  )
         7           O0  tau(   7) = (   0.0000000   0.5133323   2.1143307  )
         8           O0  tau(   8) = (   0.0000000   0.0000000   2.2232570  )
         9           Ru1 tau(   9) = (   0.2500000   0.0000000   2.4362008  )
        10           Ru1 tau(  10) = (   0.0000000   0.5133323   2.4139839  )
        11           O0  tau(  11) = (   0.2500000   0.7083986   2.4352275  )
        12           O0  tau(  12) = (   0.2500000   0.3182660   2.4428024  )
        13           O0  tau(  13) = (   0.0000000   0.0000000   2.6141054  )
        14           O0  tau(  14) = (   0.5000000   0.0000000   1.5980943  )
        15           O0  tau(  15) = (   0.5000000   0.5133323   1.7110408  )
        16           Ru1 tau(  16) = (   0.7500000   0.5133323   1.9265660  )
        17           Ru1 tau(  17) = (   0.5000000   0.0000000   1.9113316  )
        18           O0  tau(  18) = (   0.7500000   0.8315984   1.9134475  )
        19           O0  tau(  19) = (   0.7500000   0.1950663   1.9137014  )
        20           O0  tau(  20) = (   0.5000000   0.5133323   2.1248255  )
        21           O0  tau(  21) = (   0.5000000   0.0000000   2.2236379  )
        22           Ru1 tau(  22) = (   0.7500000   0.0000000   2.4362855  )
        23           Ru1 tau(  23) = (   0.5000000   0.5133323   2.4472458  )
        24           O0  tau(  24) = (   0.7500000   0.7083986   2.4352698  )
        25           O0  tau(  25) = (   0.7500000   0.3182660   2.4426755  )
        26           O0  tau(  26) = (   0.5000000   0.0000000   2.6042453  )
        27           H2  tau(  27) = (  -0.0003700   0.6408749   1.6195494  )
        28           H2  tau(  28) = (   0.4997300   0.6446633   1.6222578  )
        29           H2  tau(  29) = (   0.1462300   0.0299786   1.5449853  )
        30           H2  tau(  30) = (   0.6457400   0.0313441   1.5450699  )
        31           O0  tau(  31) = (   0.5000700   0.5415759   2.7547279  )
        32           O0  tau(  32) = (   0.4999900   0.3417972   2.8749108  )
        33           H2  tau(  33) = (   0.4999600   0.4009947   3.0215847  )

     number of k points=    10  Methfessel-Paxton smearing, width (Ry)=  0.0100
                       cart. coord. in units 2pi/alat
        k(    1) = (   0.0000000   0.0000000   0.0000000), wk =   0.1250000
        k(    2) = (   0.0000000   0.2435070   0.0000000), wk =   0.2500000
        k(    3) = (   0.0000000  -0.4870139   0.0000000), wk =   0.1250000
        k(    4) = (   0.2500000   0.0000000   0.0000000), wk =   0.2500000
        k(    5) = (   0.2500000   0.2435070   0.0000000), wk =   0.2500000
        k(    6) = (   0.2500000  -0.4870139   0.0000000), wk =   0.2500000
        k(    7) = (  -0.5000000   0.0000000   0.0000000), wk =   0.1250000
        k(    8) = (  -0.5000000   0.2435070   0.0000000), wk =   0.2500000
        k(    9) = (  -0.5000000  -0.4870139   0.0000000), wk =   0.1250000
        k(   10) = (  -0.2500000   0.2435070   0.0000000), wk =   0.2500000

     Dense  grid:  1344679 G-vectors     FFT dimensions: (  90,  90, 360)

     Smooth grid:   243423 G-vectors     FFT dimensions: (  48,  50, 216)

     Largest allocated arrays     est. size (Mb)     dimensions
        Kohn-Sham Wavefunctions        42.74 Mb     (   7632,  367)
        Atomic wavefunctions           22.01 Mb     (   7632,  189)
        NL pseudopotentials            48.21 Mb     (   7632,  414)
        Each V/rho on FFT grid         11.12 Mb     ( 729000)
        Each G-vector array             2.56 Mb     ( 336169)
        G-vector shells                 1.12 Mb     ( 146910)
     Largest temporary arrays     est. size (Mb)     dimensions
        Auxiliary wavefunctions       170.96 Mb     (   7632, 1468)
        Each subspace H/S matrix       32.88 Mb     (1468,1468)
        Each <psi_i|beta_j> matrix      2.32 Mb     (    414,  367)
        Arrays for rho mixing          88.99 Mb     ( 729000,   8)

     Check: negative/imaginary core charge=   -0.000003    0.000000

     Initial potential from superposition of free atoms
     Check: negative starting charge=   -0.523679

     starting charge  244.99980, renormalised to  253.00000

     negative rho (up, down):  0.541E+00 0.000E+00
     Number of +U iterations with fixed ns =  0
     Starting occupations:
 --- enter write_ns ---
 LDA+U parameters:
U( 2)     =  0.50000000
alpha( 2) =  0.00000000
atom    3   Tr[ns(na)] =   6.00000
    eigenvalues: 
  0.600  0.600  0.600  0.600  0.600
    eigenvectors:
  1.000  0.000  0.000  0.000  0.000
  0.000  1.000  0.000  0.000  0.000
  0.000  0.000  1.000  0.000  0.000
  0.000  0.000  0.000  1.000  0.000
  0.000  0.000  0.000  0.000  1.000
    occupations:
  0.600  0.000  0.000  0.000  0.000
  0.000  0.600  0.000  0.000  0.000
  0.000  0.000  0.600  0.000  0.000
  0.000  0.000  0.000  0.600  0.000
  0.000  0.000  0.000  0.000  0.600
atom    4   Tr[ns(na)] =   6.00000
    eigenvalues: 
  0.600  0.600  0.600  0.600  0.600
    eigenvectors:
  1.000  0.000  0.000  0.000  0.000
  0.000  1.000  0.000  0.000  0.000
  0.000  0.000  1.000  0.000  0.000
  0.000  0.000  0.000  1.000  0.000
  0.000  0.000  0.000  0.000  1.000
    occupations:
  0.600  0.000  0.000  0.000  0.000
  0.000  0.600  0.000  0.000  0.000
  0.000  0.000  0.600  0.000  0.000
  0.000  0.000  0.000  0.600  0.000
  0.000  0.000  0.000  0.000  0.600
atom    9   Tr[ns(na)] =   6.00000
    eigenvalues: 
  0.600  0.600  0.600  0.600  0.600
    eigenvectors:
  1.000  0.000  0.000  0.000  0.000
  0.000  1.000  0.000  0.000  0.000
  0.000  0.000  1.000  0.000  0.000
  0.000  0.000  0.000  1.000  0.000
  0.000  0.000  0.000  0.000  1.000
    occupations:
  0.600  0.000  0.000  0.000  0.000
  0.000  0.600  0.000  0.000  0.000
  0.000  0.000  0.600  0.000  0.000
  0.000  0.000  0.000  0.600  0.000
  0.000  0.000  0.000  0.000  0.600
atom   10   Tr[ns(na)] =   6.00000
    eigenvalues: 
  0.600  0.600  0.600  0.600  0.600
    eigenvectors:
  1.000  0.000  0.000  0.000  0.000
  0.000  1.000  0.000  0.000  0.000
  0.000  0.000  1.000  0.000  0.000
  0.000  0.000  0.000  1.000  0.000
  0.000  0.000  0.000  0.000  1.000
    occupations:
  0.600  0.000  0.000  0.000  0.000
  0.000  0.600  0.000  0.000  0.000
  0.000  0.000  0.600  0.000  0.000
  0.000  0.000  0.000  0.600  0.000
  0.000  0.000  0.000  0.000  0.600
atom   16   Tr[ns(na)] =   6.00000
    eigenvalues: 
  0.600  0.600  0.600  0.600  0.600
    eigenvectors:
  1.000  0.000  0.000  0.000  0.000
  0.000  1.000  0.000  0.000  0.000
  0.000  0.000  1.000  0.000  0.000
  0.000  0.000  0.000  1.000  0.000
  0.000  0.000  0.000  0.000  1.000
    occupations:
  0.600  0.000  0.000  0.000  0.000
  0.000  0.600  0.000  0.000  0.000
  0.000  0.000  0.600  0.000  0.000
  0.000  0.000  0.000  0.600  0.000
  0.000  0.000  0.000  0.000  0.600
atom   17   Tr[ns(na)] =   6.00000
    eigenvalues: 
  0.600  0.600  0.600  0.600  0.600
    eigenvectors:
  1.000  0.000  0.000  0.000  0.000
  0.000  1.000  0.000  0.000  0.000
  0.000  0.000  1.000  0.000  0.000
  0.000  0.000  0.000  1.000  0.000
  0.000  0.000  0.000  0.000  1.000
    occupations:
  0.600  0.000  0.000  0.000  0.000
  0.000  0.600  0.000  0.000  0.000
  0.000  0.000  0.600  0.000  0.000
  0.000  0.000  0.000  0.600  0.000
  0.000  0.000  0.000  0.000  0.600
atom   22   Tr[ns(na)] =   6.00000
    eigenvalues: 
  0.600  0.600  0.600  0.600  0.600
    eigenvectors:
  1.000  0.000  0.000  0.000  0.000
  0.000  1.000  0.000  0.000  0.000
  0.000  0.000  1.000  0.000  0.000
  0.000  0.000  0.000  1.000  0.000
  0.000  0.000  0.000  0.000  1.000
    occupations:
  0.600  0.000  0.000  0.000  0.000
  0.000  0.600  0.000  0.000  0.000
  0.000  0.000  0.600  0.000  0.000
  0.000  0.000  0.000  0.600  0.000
  0.000  0.000  0.000  0.000  0.600
atom   23   Tr[ns(na)] =   6.00000
    eigenvalues: 
  0.600  0.600  0.600  0.600  0.600
    eigenvectors:
  1.000  0.000  0.000  0.000  0.000
  0.000  1.000  0.000  0.000  0.000
  0.000  0.000  1.000  0.000  0.000
  0.000  0.000  0.000  1.000  0.000
  0.000  0.000  0.000  0.000  1.000
    occupations:
  0.600  0.000  0.000  0.000  0.000
  0.000  0.600  0.000  0.000  0.000
  0.000  0.000  0.600  0.000  0.000
  0.000  0.000  0.000  0.600  0.000
  0.000  0.000  0.000  0.000  0.600
N of occupied +U levels =  48.0000000
 --- exit write_ns ---
 Atomic wfc used for LDA+U Projector are NOT orthogonalized
     Starting wfc are  189 randomized atomic wfcs

     total cpu time spent up to now is      104.0 secs

     per-process dynamical memory:   408.6 Mb

     Self-consistent Calculation

     iteration #  1     ecut=    40.00 Ry     beta=0.30
     Davidson diagonalization with overlap
     ethr =  1.00E-02,  avg # of iterations =  6.0
 --- enter write_ns ---
 LDA+U parameters:
U( 2)     =  0.50000000
alpha( 2) =  0.00000000
atom    3   Tr[ns(na)] =   5.99357
    eigenvalues: 
  0.395  0.426  0.635  0.750  0.791
    eigenvectors:
  0.001  0.185  0.006  0.020  0.788
  0.993  0.007  0.000  0.000  0.000
  0.000  0.000  0.983  0.006  0.011
  0.006  0.808  0.002  0.004  0.179
  0.000  0.000  0.008  0.970  0.021
    occupations:
  0.721 -0.002  0.014 -0.141 -0.004
 -0.002  0.395  0.001  0.004 -0.003
  0.014  0.001  0.637 -0.005 -0.011
 -0.141  0.004 -0.005  0.493  0.003
 -0.004 -0.003 -0.011  0.003  0.750
atom    4   Tr[ns(na)] =   4.52087
    eigenvalues: 
  0.352  0.395  0.409  0.452  0.653
    eigenvectors:
  0.008  0.002  0.000  0.965  0.025
  0.980  0.009  0.000  0.010  0.001
  0.010  0.988  0.001  0.001  0.000
  0.002  0.000  0.000  0.024  0.974
  0.000  0.001  0.999  0.000  0.000
    occupations:
  0.456  0.008  0.002  0.032  0.000
  0.008  0.354  0.004 -0.011 -0.000
  0.002  0.004  0.395  0.000  0.000
  0.032 -0.011  0.000  0.647 -0.000
  0.000 -0.000  0.000 -0.000  0.409
atom    9   Tr[ns(na)] =   6.75709
    eigenvalues: 
  0.426  0.448  0.733  0.832  0.938
    eigenvectors:
  0.008  0.121  0.001  0.000  0.870
  0.965  0.034  0.000  0.000  0.001
  0.000  0.000  0.948  0.052  0.001
  0.027  0.844  0.000  0.000  0.129
  0.000  0.000  0.052  0.948  0.000
    occupations:
  0.874 -0.012  0.003 -0.164 -0.002
 -0.012  0.427 -0.001  0.000  0.001
  0.003 -0.001  0.739 -0.006  0.022
 -0.164  0.000 -0.006  0.511  0.000
 -0.002  0.001  0.022  0.000  0.827
atom   10   Tr[ns(na)] =   7.14492
    eigenvalues: 
  0.421  0.438  0.838  0.918  0.958
    eigenvectors:
  0.000  0.989  0.000  0.000  0.011
  0.000  0.000  0.000  1.000  0.000
  0.000  0.000  1.000  0.000  0.000
  0.000  0.011  0.000  0.000  0.989
  1.000  0.000  0.000  0.000  0.000
    occupations:
  0.444  0.000 -0.002  0.054  0.000
  0.000  0.918  0.000  0.000 -0.010
 -0.002  0.000  0.838 -0.000  0.000
  0.054  0.000 -0.000  0.953  0.000
  0.000 -0.010  0.000  0.000  0.421
atom   16   Tr[ns(na)] =   5.99238
    eigenvalues: 
  0.395  0.426  0.635  0.749  0.791
    eigenvectors:
  0.001  0.185  0.007  0.018  0.790
  0.993  0.007  0.000  0.000  0.000
  0.000  0.000  0.983  0.006  0.011
  0.007  0.808  0.002  0.004  0.179
  0.000  0.000  0.008  0.973  0.019
    occupations:
  0.721  0.002  0.015 -0.141  0.004
  0.002  0.395 -0.001 -0.004 -0.003
  0.015 -0.001  0.637 -0.005  0.011
 -0.141 -0.004 -0.005  0.493 -0.003
  0.004 -0.003  0.011 -0.003  0.749
atom   17   Tr[ns(na)] =   4.42691
    eigenvalues: 
  0.340  0.384  0.406  0.452  0.632
    eigenvectors:
  0.007  0.001  0.000  0.967  0.025
  0.989  0.002  0.000  0.008  0.001
  0.002  0.996  0.000  0.001  0.000
  0.002  0.000  0.000  0.024  0.974
  0.000  0.000  1.000  0.000  0.000
    occupations:
  0.456  0.008  0.002  0.029  0.000
  0.008  0.341  0.002 -0.011 -0.001
  0.002  0.002  0.384  0.000  0.000
  0.029 -0.011  0.000  0.627 -0.000
  0.000 -0.001  0.000 -0.000  0.406
atom   22   Tr[ns(na)] =   6.75573
    eigenvalues: 
  0.426  0.448  0.733  0.832  0.938
    eigenvectors:
  0.007  0.121  0.001  0.000  0.870
  0.967  0.032  0.000  0.000  0.000
  0.000  0.000  0.946  0.053  0.000
  0.026  0.846  0.000  0.000  0.128
  0.000  0.000  0.053  0.946  0.001
    occupations:
  0.875  0.011  0.003 -0.164  0.004
  0.011  0.427  0.000  0.000  0.001
  0.003  0.000  0.738 -0.005 -0.022
 -0.164  0.000 -0.005  0.510 -0.001
  0.004  0.001 -0.022 -0.001  0.827
atom   23   Tr[ns(na)] =   6.16638
    eigenvalues: 
  0.403  0.478  0.536  0.724  0.942
    eigenvectors:
  0.000  0.992  0.000  0.001  0.008
  0.006  0.000  0.994  0.000  0.000
  0.000  0.001  0.000  0.999  0.000
  0.000  0.008  0.000  0.000  0.992
  0.994  0.000  0.006  0.000  0.000
    occupations:
  0.481  0.000  0.007  0.040 -0.000
  0.000  0.535  0.000  0.000 -0.010
  0.007  0.000  0.724 -0.003 -0.000
  0.040  0.000 -0.003  0.939  0.000
 -0.000 -0.010 -0.000  0.000  0.404
N of occupied +U levels =  47.7578552
 --- exit write_ns ---

     negative rho (up, down):  0.572E+00 0.000E+00

     total cpu time spent up to now is      464.0 secs

     total energy              =   -2189.83994633 Ry
     Harris-Foulkes estimate   =   -2199.82637860 Ry
     estimated scf accuracy    <      21.16185929 Ry

     iteration #  2     ecut=    40.00 Ry     beta=0.30
     Davidson diagonalization with overlap
     ethr =  8.36E-03,  avg # of iterations =  3.0

     negative rho (up, down):  0.574E+00 0.000E+00

     total cpu time spent up to now is      657.4 secs

     total energy              =   -2179.50187598 Ry
     Harris-Foulkes estimate   =   -2213.10292064 Ry
     estimated scf accuracy    <     429.26478098 Ry

     iteration #  3     ecut=    40.00 Ry     beta=0.30
     Davidson diagonalization with overlap
     ethr =  8.36E-03,  avg # of iterations =  3.0

     negative rho (up, down):  0.573E+00 0.000E+00

     total cpu time spent up to now is      851.0 secs

     total energy              =   -2193.58103942 Ry
     Harris-Foulkes estimate   =   -2198.75614972 Ry
     estimated scf accuracy    <      48.88194402 Ry

     iteration #  4     ecut=    40.00 Ry     beta=0.30
     Davidson diagonalization with overlap
     ethr =  8.36E-03,  avg # of iterations =  1.1

     negative rho (up, down):  0.575E+00 0.000E+00

     total cpu time spent up to now is     1018.8 secs

     total energy              =   -2195.63522645 Ry
     Harris-Foulkes estimate   =   -2197.38113368 Ry
     estimated scf accuracy    <      11.95383167 Ry

     iteration #  5     ecut=    40.00 Ry     beta=0.30
     Davidson diagonalization with overlap
     ethr =  4.72E-03,  avg # of iterations =  1.0

     negative rho (up, down):  0.577E+00 0.000E+00

     total cpu time spent up to now is     1184.8 secs

     total energy              =   -2196.22810483 Ry
     Harris-Foulkes estimate   =   -2196.87524929 Ry
     estimated scf accuracy    <      10.67578497 Ry

     iteration #  6     ecut=    40.00 Ry     beta=0.30
     Davidson diagonalization with overlap
     ethr =  4.22E-03,  avg # of iterations =  1.0

     negative rho (up, down):  0.578E+00 0.000E+00

     total cpu time spent up to now is     1353.2 secs

     total energy              =   -2196.45104045 Ry
     Harris-Foulkes estimate   =   -2196.57268692 Ry
     estimated scf accuracy    <       1.87030655 Ry

     iteration #  7     ecut=    40.00 Ry     beta=0.30
     Davidson diagonalization with overlap
     ethr =  7.39E-04,  avg # of iterations =  2.3

     negative rho (up, down):  0.578E+00 0.000E+00

     total cpu time spent up to now is     1526.4 secs

     total energy              =   -2196.44271395 Ry
     Harris-Foulkes estimate   =   -2196.50626910 Ry
     estimated scf accuracy    <       0.46008131 Ry

     iteration #  8     ecut=    40.00 Ry     beta=0.30
     Davidson diagonalization with overlap
     ethr =  1.82E-04,  avg # of iterations =  6.2

     negative rho (up, down):  0.578E+00 0.000E+00

     total cpu time spent up to now is     1726.3 secs

     total energy              =   -2196.45649261 Ry
     Harris-Foulkes estimate   =   -2196.49988079 Ry
     estimated scf accuracy    <       0.37748022 Ry

     iteration #  9     ecut=    40.00 Ry     beta=0.30
     Davidson diagonalization with overlap
     ethr =  1.49E-04,  avg # of iterations =  1.0

     negative rho (up, down):  0.579E+00 0.000E+00

     total cpu time spent up to now is     1895.4 secs

     total energy              =   -2196.43463407 Ry
     Harris-Foulkes estimate   =   -2196.48924184 Ry
     estimated scf accuracy    <       0.36568557 Ry

     iteration # 10     ecut=    40.00 Ry     beta=0.30
     Davidson diagonalization with overlap
     ethr =  1.45E-04,  avg # of iterations =  1.0

     negative rho (up, down):  0.579E+00 0.000E+00

     total cpu time spent up to now is     2069.5 secs

     total energy              =   -2196.45981192 Ry
     Harris-Foulkes estimate   =   -2196.47912046 Ry
     estimated scf accuracy    <       0.20906114 Ry

     iteration # 11     ecut=    40.00 Ry     beta=0.30
     Davidson diagonalization with overlap
     ethr =  8.26E-05,  avg # of iterations =  1.4

     negative rho (up, down):  0.579E+00 0.000E+00

     total cpu time spent up to now is     2243.9 secs

     total energy              =   -2196.46762301 Ry
     Harris-Foulkes estimate   =   -2196.47351386 Ry
     estimated scf accuracy    <       0.06585728 Ry

     iteration # 12     ecut=    40.00 Ry     beta=0.30
     Davidson diagonalization with overlap
     ethr =  2.60E-05,  avg # of iterations =  6.6

     negative rho (up, down):  0.579E+00 0.000E+00

     total cpu time spent up to now is     2451.5 secs

     total energy              =   -2196.46877497 Ry
     Harris-Foulkes estimate   =   -2196.47447774 Ry
     estimated scf accuracy    <       0.06320551 Ry

     iteration # 13     ecut=    40.00 Ry     beta=0.30
     Davidson diagonalization with overlap
     ethr =  2.50E-05,  avg # of iterations =  1.0

     negative rho (up, down):  0.580E+00 0.000E+00

     total cpu time spent up to now is     2624.6 secs

     total energy              =   -2196.47128802 Ry
     Harris-Foulkes estimate   =   -2196.47217142 Ry
     estimated scf accuracy    <       0.00727841 Ry

     iteration # 14     ecut=    40.00 Ry     beta=0.30
     Davidson diagonalization with overlap
     ethr =  2.88E-06,  avg # of iterations =  5.4

     negative rho (up, down):  0.580E+00 0.000E+00

     total cpu time spent up to now is     2821.1 secs

     total energy              =   -2196.47118950 Ry
     Harris-Foulkes estimate   =   -2196.47256762 Ry
     estimated scf accuracy    <       0.01337232 Ry

     iteration # 15     ecut=    40.00 Ry     beta=0.30
     Davidson diagonalization with overlap
     ethr =  2.88E-06,  avg # of iterations =  1.0

     negative rho (up, down):  0.580E+00 0.000E+00

     total cpu time spent up to now is     2993.0 secs

     total energy              =   -2196.47161169 Ry
     Harris-Foulkes estimate   =   -2196.47229647 Ry
     estimated scf accuracy    <       0.00674783 Ry

     iteration # 16     ecut=    40.00 Ry     beta=0.30
     Davidson diagonalization with overlap
     ethr =  2.67E-06,  avg # of iterations =  1.0

     negative rho (up, down):  0.580E+00 0.000E+00

     total cpu time spent up to now is     3167.5 secs

     total energy              =   -2196.47189110 Ry
     Harris-Foulkes estimate   =   -2196.47209873 Ry
     estimated scf accuracy    <       0.00196367 Ry

     iteration # 17     ecut=    40.00 Ry     beta=0.30
     Davidson diagonalization with overlap
     ethr =  7.76E-07,  avg # of iterations =  1.0

     negative rho (up, down):  0.580E+00 0.000E+00

     total cpu time spent up to now is     3341.6 secs

     total energy              =   -2196.47186315 Ry
     Harris-Foulkes estimate   =   -2196.47210237 Ry
     estimated scf accuracy    <       0.00263676 Ry

     iteration # 18     ecut=    40.00 Ry     beta=0.30
     Davidson diagonalization with overlap
     ethr =  7.76E-07,  avg # of iterations =  1.0

     negative rho (up, down):  0.580E+00 0.000E+00

     total cpu time spent up to now is     3515.1 secs

     total energy              =   -2196.47195020 Ry
     Harris-Foulkes estimate   =   -2196.47209536 Ry
     estimated scf accuracy    <       0.00188999 Ry

     iteration # 19     ecut=    40.00 Ry     beta=0.30
     Davidson diagonalization with overlap
     ethr =  7.47E-07,  avg # of iterations =  1.0

     negative rho (up, down):  0.580E+00 0.000E+00

     total cpu time spent up to now is     3686.6 secs

     total energy              =   -2196.47201843 Ry
     Harris-Foulkes estimate   =   -2196.47202758 Ry
     estimated scf accuracy    <       0.00005210 Ry

     iteration # 20     ecut=    40.00 Ry     beta=0.30
     Davidson diagonalization with overlap
     ethr =  2.06E-08,  avg # of iterations =  1.0

     negative rho (up, down):  0.580E+00 0.000E+00

     total cpu time spent up to now is     3861.6 secs

     total energy              =   -2196.47201860 Ry
     Harris-Foulkes estimate   =   -2196.47202601 Ry
     estimated scf accuracy    <       0.00005282 Ry

     iteration # 21     ecut=    40.00 Ry     beta=0.30
     Davidson diagonalization with overlap
     ethr =  2.06E-08,  avg # of iterations =  1.0

     negative rho (up, down):  0.580E+00 0.000E+00

     total cpu time spent up to now is     4033.6 secs

     total energy              =   -2196.47202024 Ry
     Harris-Foulkes estimate   =   -2196.47202416 Ry
     estimated scf accuracy    <       0.00003983 Ry

     iteration # 22     ecut=    40.00 Ry     beta=0.30
     Davidson diagonalization with overlap
     ethr =  1.57E-08,  avg # of iterations =  1.0

     negative rho (up, down):  0.580E+00 0.000E+00

     total cpu time spent up to now is     4216.7 secs

     total energy              =   -2196.47202060 Ry
     Harris-Foulkes estimate   =   -2196.47202342 Ry
     estimated scf accuracy    <       0.00002687 Ry

     iteration # 23     ecut=    40.00 Ry     beta=0.30
     Davidson diagonalization with overlap
     ethr =  1.06E-08,  avg # of iterations =  1.0

     negative rho (up, down):  0.580E+00 0.000E+00

     total cpu time spent up to now is     4396.8 secs

     total energy              =   -2196.47202065 Ry
     Harris-Foulkes estimate   =   -2196.47202301 Ry
     estimated scf accuracy    <       0.00002369 Ry

     iteration # 24     ecut=    40.00 Ry     beta=0.30
     Davidson diagonalization with overlap
     ethr =  9.37E-09,  avg # of iterations =  1.0

     negative rho (up, down):  0.580E+00 0.000E+00

     total cpu time spent up to now is     4576.5 secs

     total energy              =   -2196.47202123 Ry
     Harris-Foulkes estimate   =   -2196.47202254 Ry
     estimated scf accuracy    <       0.00001460 Ry

     iteration # 25     ecut=    40.00 Ry     beta=0.30
     Davidson diagonalization with overlap
     ethr =  5.77E-09,  avg # of iterations =  1.0

     negative rho (up, down):  0.580E+00 0.000E+00

     total cpu time spent up to now is     4756.6 secs

     total energy              =   -2196.47202120 Ry
     Harris-Foulkes estimate   =   -2196.47202239 Ry
     estimated scf accuracy    <       0.00001204 Ry

     iteration # 26     ecut=    40.00 Ry     beta=0.30
     Davidson diagonalization with overlap
     ethr =  4.76E-09,  avg # of iterations =  1.0

     negative rho (up, down):  0.580E+00 0.000E+00

     total cpu time spent up to now is     4936.7 secs

     total energy              =   -2196.47202170 Ry
     Harris-Foulkes estimate   =   -2196.47202202 Ry
     estimated scf accuracy    <       0.00000364 Ry

     iteration # 27     ecut=    40.00 Ry     beta=0.30
     Davidson diagonalization with overlap
     ethr =  1.44E-09,  avg # of iterations =  1.0

     negative rho (up, down):  0.580E+00 0.000E+00

     total cpu time spent up to now is     5117.2 secs

     total energy              =   -2196.47202172 Ry
     Harris-Foulkes estimate   =   -2196.47202192 Ry
     estimated scf accuracy    <       0.00000106 Ry

     iteration # 28     ecut=    40.00 Ry     beta=0.30
     Davidson diagonalization with overlap
     ethr =  4.17E-10,  avg # of iterations =  1.0

     negative rho (up, down):  0.580E+00 0.000E+00

     total cpu time spent up to now is     5288.6 secs

     total energy              =   -2196.47202151 Ry
     Harris-Foulkes estimate   =   -2196.47202218 Ry
     estimated scf accuracy    <       0.00001202 Ry

     iteration # 29     ecut=    40.00 Ry     beta=0.30
     Davidson diagonalization with overlap
     ethr =  4.17E-10,  avg # of iterations =  1.0

     negative rho (up, down):  0.580E+00 0.000E+00

     total cpu time spent up to now is     5464.0 secs

     End of self-consistent calculation
 --- enter write_ns ---
 LDA+U parameters:
U( 2)     =  0.50000000
alpha( 2) =  0.00000000
atom    3   Tr[ns(na)] =   7.15692
    eigenvalues: 
  0.529  0.572  0.721  0.807  0.949
    eigenvectors:
  0.001  0.191  0.004  0.000  0.804
  0.997  0.003  0.000  0.000  0.000
  0.000  0.000  0.975  0.018  0.007
  0.002  0.806  0.003  0.000  0.189
  0.000  0.000  0.018  0.981  0.000
    occupations:
  0.876 -0.005  0.018 -0.147 -0.000
 -0.005  0.530 -0.000 -0.000 -0.001
  0.018 -0.000  0.724 -0.005  0.012
 -0.147 -0.000 -0.005  0.644 -0.000
 -0.000 -0.001  0.012 -0.000  0.805
atom    4   Tr[ns(na)] =   7.15066
    eigenvalues: 
  0.558  0.601  0.687  0.779  0.950
    eigenvectors:
  0.000  0.990  0.000  0.000  0.009
  0.000  0.000  0.019  0.981  0.000
  0.000  0.000  0.981  0.019  0.000
  0.000  0.009  0.000  0.000  0.991
  1.000  0.000  0.000  0.000  0.000
    occupations:
  0.604 -0.001  0.000  0.033  0.001
 -0.001  0.778  0.012 -0.001 -0.000
  0.000  0.012  0.689  0.002  0.000
  0.033 -0.001  0.002  0.947 -0.000
  0.001 -0.000  0.000 -0.000  0.558
atom    9   Tr[ns(na)] =   7.12467
    eigenvalues: 
  0.586  0.604  0.767  0.799  0.806
    eigenvectors:
  0.000  0.159  0.004  0.710  0.126
  0.995  0.004  0.000  0.000  0.000
  0.000  0.000  0.994  0.003  0.003
  0.005  0.836  0.002  0.134  0.024
  0.000  0.000  0.001  0.153  0.847
    occupations:
  0.769 -0.003 -0.003 -0.072  0.002
 -0.003  0.586  0.001  0.003  0.000
 -0.003  0.001  0.767 -0.002 -0.001
 -0.072  0.003 -0.002  0.636 -0.001
  0.002  0.000 -0.001 -0.001  0.805
atom   10   Tr[ns(na)] =   7.16994
    eigenvalues: 
  0.544  0.557  0.732  0.816  0.936
    eigenvectors:
  0.000  0.990  0.000  0.000  0.010
  0.000  0.000  0.000  1.000  0.000
  0.000  0.000  1.000  0.000  0.000
  0.000  0.010  0.000  0.000  0.990
  1.000  0.000  0.000  0.000  0.000
    occupations:
  0.561  0.000  0.002  0.037  0.000
  0.000  0.816  0.000  0.000 -0.006
  0.002  0.000  0.732 -0.001  0.000
  0.037  0.000 -0.001  0.932 -0.000
  0.000 -0.006  0.000 -0.000  0.544
atom   16   Tr[ns(na)] =   7.15675
    eigenvalues: 
  0.530  0.572  0.721  0.807  0.949
    eigenvectors:
  0.001  0.191  0.004  0.000  0.804
  0.998  0.002  0.000  0.000  0.000
  0.000  0.000  0.977  0.016  0.007
  0.002  0.807  0.003  0.000  0.189
  0.000  0.000  0.016  0.984  0.000
    occupations:
  0.876  0.005  0.018 -0.147  0.000
  0.005  0.530  0.000  0.000 -0.001
  0.018  0.000  0.723 -0.005 -0.011
 -0.147  0.000 -0.005  0.644  0.000
  0.000 -0.001 -0.011  0.000  0.805
atom   17   Tr[ns(na)] =   7.14703
    eigenvalues: 
  0.558  0.602  0.692  0.773  0.949
    eigenvectors:
  0.000  0.991  0.000  0.000  0.009
  0.000  0.000  0.023  0.977  0.000
  0.000  0.000  0.977  0.023  0.000
  0.000  0.009  0.000  0.000  0.991
  1.000  0.000  0.000  0.000  0.000
    occupations:
  0.605 -0.001  0.000  0.033  0.001
 -0.001  0.771  0.012 -0.001 -0.001
  0.000  0.012  0.693  0.001  0.000
  0.033 -0.001  0.001  0.946 -0.000
  0.001 -0.001  0.000 -0.000  0.558
atom   22   Tr[ns(na)] =   7.12467
    eigenvalues: 
  0.586  0.604  0.767  0.800  0.805
    eigenvectors:
  0.000  0.160  0.002  0.821  0.017
  0.999  0.001  0.000  0.000  0.000
  0.000  0.000  0.995  0.003  0.001
  0.001  0.839  0.001  0.156  0.003
  0.000  0.000  0.002  0.020  0.979
    occupations:
  0.769  0.003 -0.003 -0.072  0.001
  0.003  0.586  0.001 -0.002  0.000
 -0.003  0.001  0.767 -0.002  0.002
 -0.072 -0.002 -0.002  0.636 -0.000
  0.001  0.000  0.002 -0.000  0.805
atom   23   Tr[ns(na)] =   7.16852
    eigenvalues: 
  0.555  0.593  0.721  0.789  0.927
    eigenvectors:
  0.000  0.997  0.000  0.000  0.003
  0.001  0.000  0.999  0.000  0.000
  0.000  0.000  0.000  1.000  0.000
  0.000  0.003  0.000  0.000  0.997
  0.999  0.000  0.001  0.000  0.000
    occupations:
  0.594  0.000  0.003  0.019 -0.000
  0.000  0.720  0.000  0.000 -0.004
  0.003  0.000  0.789 -0.001 -0.000
  0.019  0.000 -0.001  0.926 -0.000
 -0.000 -0.004 -0.000 -0.000  0.555
N of occupied +U levels =  57.1991633
 --- exit write_ns ---

          k = 0.0000 0.0000 0.0000 ( 30363 PWs)   bands (ev):

   -74.3133 -74.3023 -74.0190 -74.0034 -73.9675 -73.7422 -73.7389 -73.7316
   -44.4875 -44.2996 -44.2578 -44.2543 -44.2437 -44.2346 -44.2044 -44.1789
   -44.1673 -44.0468 -44.0356 -44.0008 -43.9479 -43.9244 -43.8444 -43.7958
   -43.7904 -43.7322 -43.6583 -43.6573 -43.6074 -43.5782 -43.5604 -43.5602
   -23.1289 -20.6690 -20.1459 -20.1392 -20.0107 -19.8535 -19.5759 -19.2718
   -19.2326 -19.2199 -19.1845 -19.1657 -19.1463 -19.1087 -18.8827 -18.7202
   -18.6442 -18.5826 -18.3797 -16.9440  -8.8305  -8.7194  -8.7080  -8.4390
    -8.0249  -7.8808  -7.7962  -7.6734  -7.4292  -7.3640  -7.3192  -7.3060
    -7.2846  -7.2435  -7.1071  -7.0841  -7.0344  -6.9222  -6.8517  -6.7493
    -6.5676  -6.4022  -6.3371  -6.2158  -5.9621  -5.8434  -5.4937  -5.3787
    -5.1814  -5.1256  -4.9789  -4.9668  -4.7716  -4.5704  -4.5342  -4.5037
    -4.4729  -4.4281  -4.3261  -4.2169  -4.1981  -4.0814  -4.0064  -3.9316
    -3.8644  -3.8081  -3.6815  -3.4547  -3.4111  -3.3734  -3.2423  -3.2163
    -3.2026  -2.9361  -2.8807  -2.8037  -2.7540  -2.3171  -2.0859  -1.9770
    -1.8704  -1.8421  -1.7089  -1.6399  -1.5719  -1.3450  -1.2955  -1.2172
    -1.1272  -1.0539  -0.9874  -0.9785  -0.7699  -0.7366  -0.7012  -0.4767
    -0.1456  -0.0716   0.0487   0.2572   0.3970   0.5304   0.8640   0.8867
     1.7007   1.7543   2.3311   2.6066   2.6300   2.7117   2.7258   2.9550
     3.2100   3.4662   3.5795   3.7338   3.9047   4.0237   4.0358   4.1677
     4.1788   4.2542   4.6262   4.8437   5.2803   5.8963   6.3385   6.6436
     6.7690   7.0143   7.3451   7.4210   7.4503   7.5025   7.5867   7.7292
     7.8482   7.9347   7.9839   8.1307   8.1490   8.3806   8.4690   8.5343
     8.6519   8.7626   8.8040   8.9773   9.0238   9.0910   9.2387   9.3038
     9.3687   9.5050   9.5823   9.6997   9.8030   9.8722   9.9997  10.0576
    10.1159  10.2472  10.3024  10.4768  10.5618  10.6280  10.7502  10.8685
    11.1529  11.1801  11.2741  11.3037  11.3360  11.4284  11.4420  11.6072
    11.6430  11.6722  11.7134  11.7890  11.8010  11.9287  11.9681  12.0089
    12.1462  12.1604  12.2528  12.3035  12.4394  12.4828  12.5229  12.6173
    12.6454  12.7305  12.7486  12.7677  12.8110  12.9837  13.0047  13.0887
    13.1365  13.1724  13.2189  13.3074  13.4160  13.4752  13.5113  13.8381
    13.9407  14.0046  14.0256  14.0748  14.1426  14.1715  14.2215  14.2410
    14.3825  14.5294  14.7002  14.9085  14.9222  14.9547  15.0104  15.1345
    15.2560  15.2773  15.4910  15.5725  15.6265  15.7018  15.9259  15.9298
    15.9851  16.0407  16.2775  16.3289  16.3613  16.3789  16.5181  16.5595
    16.8008  16.8130  16.9669  17.0175  17.1435  17.2550  17.3345  17.4402
    17.4803  17.5386  17.6120  17.6351  17.6732  17.8125  17.9463  17.9816
    18.0396  18.2202  18.2998  18.4572  18.5545  18.5997  18.6989  18.7163
    18.7864  18.8337  18.8585  18.8619  18.9070  18.9949  19.0999  19.1148
    19.1853  19.2174  19.3174  19.3578  19.3737  19.4096  19.4224  19.4988
    19.5304  19.6471  19.7003  19.7312  19.8052  19.9067  19.9212  19.9858
    20.0534  20.0899  20.1258  20.1818  20.2237  20.2923  20.3537  20.4511
    20.4915  20.6016  20.6938  20.7478  20.7552  20.7694  20.8926  20.9296
    21.0489  21.1120  21.1208  21.2551  21.3731  21.4044  21.4755  21.4880
    21.5348  21.6062  21.6935  21.8003  21.9038  21.9351  21.9503  22.0224
    22.0819  22.1849  22.1935  22.2783  22.3503  22.3637  22.4324  22.4752
    22.4957  22.5161  22.5990  22.6461  22.6717  22.6962  22.7044

          k = 0.0000 0.2435 0.0000 ( 30432 PWs)   bands (ev):

   -74.3132 -74.3023 -74.0190 -74.0035 -73.9675 -73.7422 -73.7389 -73.7316
   -44.4876 -44.2995 -44.2568 -44.2543 -44.2451 -44.2346 -44.2044 -44.1789
   -44.1673 -44.0456 -44.0356 -44.0052 -43.9424 -43.9201 -43.8481 -43.7970
   -43.7923 -43.7309 -43.6584 -43.6578 -43.6074 -43.5782 -43.5605 -43.5605
   -23.1286 -20.6303 -20.1316 -20.0763 -19.9653 -19.8283 -19.5934 -19.3824
   -19.3497 -19.2589 -19.2291 -19.1719 -18.9836 -18.9537 -18.8788 -18.7673
   -18.7259 -18.7143 -18.3770 -16.9427  -8.8362  -8.4327  -8.3132  -8.2904
    -8.1248  -7.9062  -7.7862  -7.6630  -7.6196  -7.4279  -7.2864  -7.2505
    -7.2361  -7.1788  -7.1744  -7.0910  -7.0023  -6.9416  -6.8342  -6.7013
    -6.3609  -6.3287  -6.1629  -6.0064  -5.8953  -5.6402  -5.5268  -5.4491
    -5.3388  -5.2482  -5.1646  -5.0648  -4.9897  -4.8483  -4.5687  -4.5464
    -4.4942  -4.4242  -4.3700  -4.3092  -4.2624  -4.2393  -4.1192  -3.9330
    -3.9122  -3.8113  -3.7688  -3.6550  -3.6116  -3.5211  -3.4452  -3.3219
    -3.1900  -3.1551  -2.9049  -2.8373  -2.7243  -2.3532  -2.0975  -1.7074
    -1.6928  -1.6661  -1.5194  -1.5091  -1.3157  -1.2955  -1.2737  -1.2366
    -1.2034  -1.1349  -1.0489  -0.9740  -0.9041  -0.7367  -0.6342  -0.5034
    -0.1193  -0.0511   0.1742   0.3847   0.4428   0.5436   0.6557   1.0514
     1.7246   1.7398   1.7965   1.9710   2.5552   2.9667   3.1643   3.4563
     3.6678   3.7261   3.8353   3.9257   3.9549   3.9634   3.9847   4.0614
     4.0798   4.4348   4.5447   5.0250   5.5114   5.7338   5.8884   6.2006
     6.3583   6.6279   6.8753   7.1198   7.1602   7.4600   7.5625   7.7045
     7.8254   7.9816   8.1832   8.2640   8.3476   8.3844   8.5069   8.6380
     8.7331   8.8529   9.0114   9.1030   9.2419   9.3296   9.4009   9.4765
     9.5033   9.6755   9.7726   9.8415   9.8833   9.9784   9.9955  10.0200
    10.1162  10.1304  10.1947  10.3150  10.3984  10.4823  10.5513  10.5973
    10.7189  10.8080  11.0135  11.0890  11.1786  11.2774  11.3269  11.4192
    11.4889  11.5929  11.6713  11.6934  11.7497  11.8535  11.9892  12.1393
    12.1966  12.4368  12.5336  12.5653  12.6150  12.6716  12.7481  12.9199
    12.9858  13.0449  13.0754  13.1816  13.2399  13.2861  13.4221  13.4903
    13.5670  13.6781  13.7176  13.7333  13.8141  13.8710  13.9462  13.9767
    14.1462  14.2346  14.2816  14.3308  14.4403  14.4743  14.5434  14.6082
    14.6816  14.6989  14.8342  14.8806  14.9286  15.0520  15.1220  15.1545
    15.2480  15.2674  15.4060  15.4955  15.5365  15.6038  15.7759  15.8693
    15.8858  15.9581  16.0523  16.0952  16.1318  16.2051  16.4256  16.5313
    16.5613  16.6108  16.6697  16.6926  16.8006  16.9125  16.9607  16.9810
    17.0663  17.2639  17.2999  17.4606  17.5313  17.6079  17.6573  17.7156
    17.7711  17.8953  17.9912  18.2045  18.2258  18.2705  18.3054  18.3701
    18.4533  18.5849  18.6006  18.7210  18.8478  18.8832  18.9403  18.9964
    19.0921  19.0955  19.1363  19.2044  19.2354  19.2612  19.3051  19.3433
    19.4363  19.5098  19.5536  19.5775  19.6420  19.6886  19.7452  19.8413
    19.8585  19.9220  19.9469  20.0075  20.0469  20.1329  20.2036  20.2456
    20.3483  20.3775  20.4481  20.4989  20.5193  20.5839  20.6062  20.7062
    20.7744  20.8144  20.8824  20.9823  21.0586  21.0853  21.1682  21.2180
    21.2382  21.2916  21.3154  21.3397  21.3821  21.4746  21.5167  21.5846
    21.5999  21.7182  21.7584  21.8230  21.8678  21.9316  21.9978  22.0655
    22.1465  22.1736  22.2376  22.2868  22.3390  22.4602  22.5039

          k = 0.0000-0.4870 0.0000 ( 30448 PWs)   bands (ev):

   -74.3132 -74.3023 -74.0190 -74.0035 -73.9675 -73.7421 -73.7389 -73.7316
   -44.4877 -44.2995 -44.2558 -44.2543 -44.2465 -44.2346 -44.2044 -44.1789
   -44.1674 -44.0443 -44.0356 -44.0091 -43.9361 -43.9162 -43.8527 -43.7982
   -43.7941 -43.7297 -43.6590 -43.6578 -43.6075 -43.5782 -43.5608 -43.5606
   -23.1284 -20.5921 -20.1244 -20.0128 -19.9101 -19.7237 -19.6628 -19.4600
   -19.4268 -19.2534 -19.2174 -19.1853 -18.9283 -18.9090 -18.8771 -18.8728
   -18.8486 -18.7191 -18.3765 -16.9414  -8.8317  -8.4105  -8.2257  -7.9122
    -7.8747  -7.8401  -7.6925  -7.6776  -7.6553  -7.4274  -7.2412  -7.2227
    -7.1740  -7.1141  -7.0868  -6.9729  -6.9666  -6.8733  -6.8489  -6.6019
    -6.4019  -6.2877  -6.1759  -5.9676  -5.8897  -5.8463  -5.8118  -5.6380
    -5.3583  -5.2249  -5.2104  -5.0979  -5.0803  -4.9702  -4.8462  -4.6488
    -4.6318  -4.5596  -4.5130  -4.4507  -4.4074  -4.2713  -4.0524  -3.9368
    -3.9155  -3.8650  -3.7946  -3.6677  -3.5821  -3.4620  -3.4378  -3.3370
    -3.2810  -3.2284  -2.8376  -2.7483  -2.7199  -2.4252  -2.3088  -1.9553
    -1.8460  -1.8418  -1.5808  -1.4335  -1.2645  -1.1898  -1.1353  -1.0967
    -0.9861  -0.9658  -0.8743  -0.8178  -0.7142  -0.6151  -0.6080  -0.4586
    -0.4128  -0.1590   0.1570   0.3034   0.3861   0.6881   0.7019   1.1977
     1.3850   1.4065   1.7485   2.1784   2.8353   2.9664   3.3814   3.4491
     3.7116   3.7335   3.8224   3.9193   4.0483   4.0517   4.2016   4.3109
     4.3165   4.6223   4.9396   5.0108   5.1824   5.3763   5.6878   5.8951
     6.1030   6.4329   6.6044   7.1338   7.2577   7.3327   7.4370   7.5701
     7.9365   7.9846   8.1437   8.2859   8.3889   8.4295   8.5533   8.6966
     8.8411   8.9313   8.9817   9.0288   9.0616   9.2333   9.3551   9.3948
     9.4022   9.4984   9.6541   9.7051   9.7534   9.8200   9.8371   9.9629
    10.1814  10.2182  10.2506  10.3512  10.3603  10.3878  10.5972  10.9098
    10.9957  11.0232  11.1160  11.1569  11.3315  11.5144  11.5720  11.7293
    11.8058  11.8452  11.8707  11.8879  11.9776  12.0976  12.1166  12.2055
    12.2887  12.4245  12.4977  12.5873  12.6735  12.7846  12.9129  12.9191
    12.9964  13.0641  13.1517  13.2528  13.3552  13.3994  13.4491  13.5685
    13.6301  13.6494  13.7470  13.7692  13.7784  13.9420  13.9725  14.1125
    14.1454  14.2275  14.3882  14.4247  14.5578  14.6658  14.7342  14.7865
    14.7933  14.9758  15.0337  15.3170  15.3215  15.4086  15.4895  15.5837
    15.6269  15.7269  15.7642  15.7840  15.9009  15.9080  16.0116  16.0197
    16.0388  16.1034  16.1664  16.2198  16.2576  16.2913  16.3822  16.4259
    16.4515  16.4724  16.5140  16.5564  16.6567  16.6827  16.7875  16.8895
    16.9153  16.9453  16.9825  16.9956  17.1319  17.2017  17.2455  17.3487
    17.4049  17.5584  17.6259  17.7139  17.8485  17.9238  17.9669  18.0261
    18.1143  18.1749  18.1877  18.2656  18.3314  18.4398  18.4596  18.5154
    18.5494  18.6220  18.6587  18.7608  18.8669  18.9007  19.0215  19.0494
    19.1423  19.1834  19.2526  19.3120  19.3731  19.4058  19.4707  19.5314
    19.5774  19.7738  19.8360  19.8770  19.9842  20.0104  20.1106  20.2979
    20.3486  20.4350  20.4470  20.4583  20.4722  20.5100  20.5295  20.5753
    20.6142  20.6542  20.7100  20.7357  20.7723  20.8209  20.8958  20.9096
    20.9770  21.0228  21.0887  21.1075  21.2076  21.2277  21.2671  21.2905
    21.3492  21.4147  21.5534  21.6319  21.6435  21.6996  21.7407  21.8400
    21.8909  21.9482  22.0383  22.0651  22.1201  22.2140  22.2379

          k = 0.2500 0.0000 0.0000 ( 30394 PWs)   bands (ev):

   -74.3116 -74.3038 -74.0180 -74.0043 -73.9674 -73.7409 -73.7387 -73.7330
   -44.4606 -44.3276 -44.2557 -44.2521 -44.2458 -44.2365 -44.2007 -44.1828
   -44.1672 -44.0410 -44.0317 -43.9761 -43.9446 -43.9275 -43.8591 -43.7995
   -43.7981 -43.7078 -43.6689 -43.6564 -43.6035 -43.5866 -43.5814 -43.5613
   -23.1288 -20.5743 -20.1136 -20.0314 -20.0271 -19.8275 -19.4860 -19.4335
   -19.3077 -19.1975 -19.1847 -19.1620 -19.0934 -19.0364 -18.8856 -18.7968
   -18.7243 -18.6639 -18.4504 -16.9439  -8.7006  -8.5335  -8.5213  -8.4414
    -8.1237  -7.8539  -7.7883  -7.5991  -7.5226  -7.4508  -7.3756  -7.3552
    -7.2691  -7.1884  -7.1016  -7.0635  -6.9939  -6.8353  -6.7323  -6.5239
    -6.4362  -6.3989  -6.3358  -6.1626  -6.0701  -5.6575  -5.5728  -5.3407
    -5.2790  -5.1409  -5.0598  -4.9824  -4.8880  -4.8551  -4.7602  -4.6660
    -4.5918  -4.4996  -4.4774  -4.3535  -4.2867  -4.1937  -4.0406  -3.9850
    -3.8968  -3.8059  -3.7593  -3.7102  -3.5394  -3.4236  -3.3725  -3.3379
    -3.1937  -3.1516  -2.8857  -2.7582  -2.7561  -2.5145  -1.9481  -1.7545
    -1.6873  -1.6346  -1.5120  -1.4174  -1.2862  -1.2048  -1.1287  -1.1073
    -1.0317  -0.9504  -0.8958  -0.8579  -0.7600  -0.6811  -0.4471  -0.2755
    -0.2348  -0.2087   0.0383   0.0712   0.2468   0.3565   0.7533   1.0081
     1.8681   1.9263   2.4024   2.6626   2.7444   2.7602   2.8037   3.0158
     3.0337   3.3008   3.5146   3.7565   3.8321   3.8354   3.8798   4.0130
     4.1311   4.4551   4.6334   5.0718   5.4933   5.6976   5.9290   6.3165
     6.4816   6.6416   6.9452   7.0058   7.2466   7.4969   7.6624   7.7902
     7.8420   7.9669   8.1153   8.1453   8.2148   8.5188   8.6152   8.6962
     8.7391   8.8989   8.9611   9.1083   9.2454   9.3283   9.4327   9.5309
     9.5572   9.6157   9.7276   9.7626   9.8850   9.9035   9.9671  10.0456
    10.1073  10.2290  10.2616  10.3024  10.4335  10.4947  10.5265  10.6392
    10.7134  10.8491  11.0442  11.1595  11.2281  11.3241  11.3719  11.4657
    11.5608  11.6090  11.6552  11.7711  11.8487  11.9316  12.0104  12.1646
    12.2063  12.3382  12.4222  12.4592  12.5367  12.5654  12.6683  12.8378
    12.9064  12.9664  13.0140  13.1126  13.2047  13.3058  13.4102  13.5399
    13.5469  13.6600  13.6751  13.7743  13.8916  13.9513  13.9788  14.1359
    14.1467  14.2278  14.2672  14.3447  14.4428  14.4784  14.5847  14.6135
    14.6432  14.7397  14.7882  14.8668  14.9336  14.9913  15.0875  15.2815
    15.3189  15.5522  15.5959  15.6443  15.7006  15.8060  15.8344  15.8713
    15.9536  16.0288  16.0865  16.1329  16.2015  16.2540  16.3831  16.4094
    16.4963  16.6143  16.6482  16.7364  16.8601  16.9667  16.9887  17.0823
    17.1311  17.1676  17.3269  17.3371  17.4639  17.5292  17.6092  17.6737
    17.7583  17.8028  17.8405  17.9078  17.9955  18.0494  18.1915  18.2762
    18.4203  18.5027  18.5565  18.6761  18.7552  18.8979  18.9363  18.9808
    19.0047  19.0946  19.1037  19.2086  19.2588  19.3614  19.3901  19.4496
    19.5145  19.5488  19.5962  19.6095  19.6327  19.6831  19.7209  19.7964
    19.8319  19.8447  19.9698  20.0452  20.1006  20.1704  20.2253  20.2794
    20.3450  20.4077  20.4160  20.4696  20.5618  20.6546  20.6985  20.7385
    20.7826  20.8327  20.8748  20.9237  20.9570  21.0636  21.0746  21.1000
    21.1179  21.2291  21.2851  21.3314  21.3544  21.3965  21.4718  21.5373
    21.6241  21.6571  21.6923  21.7478  21.8045  21.8994  21.9181  21.9731
    21.9998  22.1546  22.1933  22.2232  22.2931  22.3254  22.3868

          k = 0.2500 0.2435 0.0000 ( 30434 PWs)   bands (ev):

   -74.3116 -74.3038 -74.0180 -74.0043 -73.9674 -73.7409 -73.7387 -73.7330
   -44.4607 -44.3276 -44.2551 -44.2521 -44.2467 -44.2365 -44.2007 -44.1827
   -44.1672 -44.0403 -44.0313 -43.9806 -43.9412 -43.9227 -43.8587 -43.8034
   -43.7992 -43.7070 -43.6687 -43.6570 -43.6036 -43.5866 -43.5814 -43.5617
   -23.1285 -20.5437 -20.1090 -20.0108 -19.9606 -19.7649 -19.5001 -19.4268
   -19.3384 -19.2447 -19.2053 -19.1772 -19.0313 -19.0044 -18.8854 -18.8431
   -18.8037 -18.7858 -18.4480 -16.9426  -8.6982  -8.4281  -8.1613  -8.1461
    -8.1178  -7.8438  -7.7718  -7.5889  -7.5099  -7.4170  -7.3407  -7.2682
    -7.2013  -7.1596  -7.1091  -7.0458  -6.9754  -6.8512  -6.7701  -6.5446
    -6.3987  -6.3459  -6.1991  -6.0883  -6.0145  -5.7434  -5.5428  -5.4237
    -5.3831  -5.2663  -5.1259  -5.0704  -4.9891  -4.9234  -4.8380  -4.7802
    -4.7222  -4.6331  -4.5720  -4.4941  -4.4609  -4.4109  -4.2382  -4.1211
    -4.0437  -3.8135  -3.7512  -3.6827  -3.6435  -3.5523  -3.3766  -3.3360
    -3.1908  -3.1323  -2.9289  -2.7724  -2.7109  -2.4451  -2.0297  -1.8012
    -1.5305  -1.4623  -1.3530  -1.3017  -1.2003  -1.1161  -1.0621  -1.0382
    -1.0188  -0.9992  -0.8691  -0.8445  -0.8043  -0.6192  -0.5240  -0.2882
    -0.1975  -0.1073   0.0706   0.2214   0.2639   0.3735   0.5510   1.1608
     1.8313   1.9269   2.0539   2.0968   2.5868   2.9194   3.0003   3.2239
     3.4263   3.5210   3.6123   3.6621   3.7598   3.8748   4.0260   4.1077
     4.3470   4.4875   4.7509   5.2701   5.6509   5.8170   6.0912   6.1249
     6.2259   6.5401   6.5987   6.7537   6.9069   7.1346   7.1691   7.5015
     7.6463   7.7682   7.9520   8.0764   8.1640   8.4262   8.4706   8.5626
     8.6600   8.7102   8.9540   9.0265   9.0879   9.2561   9.3579   9.4367
     9.6009   9.6882   9.7119   9.8508  10.0062  10.1199  10.1785  10.2550
    10.3041  10.4384  10.5212  10.6277  10.6524  10.7320  10.8567  10.9476
    11.0420  11.1526  11.2741  11.3448  11.3959  11.5550  11.6176  11.6763
    11.7816  11.8762  11.9735  12.0225  12.0322  12.0985  12.1748  12.2463
    12.3576  12.3807  12.5113  12.6095  12.6655  12.7376  12.7714  12.8523
    12.9225  12.9818  13.0750  13.1392  13.1923  13.2754  13.3230  13.4731
    13.5559  13.6495  13.7425  13.7926  13.9056  13.9678  14.0133  14.1343
    14.2581  14.3069  14.4032  14.5213  14.5626  14.6501  14.7068  14.7497
    14.7995  14.8834  14.9665  15.0617  15.1665  15.1874  15.2876  15.3198
    15.4474  15.4699  15.5528  15.6075  15.7208  15.7917  15.8251  15.8803
    15.9381  15.9806  16.0673  16.1418  16.1864  16.2308  16.2668  16.3249
    16.4221  16.4426  16.5706  16.6516  16.7201  16.7583  16.8000  16.8811
    16.9534  16.9977  17.0362  17.1738  17.2290  17.3190  17.3585  17.4401
    17.4799  17.5286  17.5821  17.6676  17.7186  17.7843  17.8281  17.9232
    17.9679  18.0549  18.1013  18.1300  18.2038  18.2521  18.3160  18.3552
    18.4499  18.5160  18.6080  18.6805  18.7551  18.8586  18.8936  18.9799
    19.0312  19.1142  19.2211  19.2635  19.2917  19.3672  19.4861  19.5593
    19.6083  19.6839  19.7879  19.8419  19.9027  19.9754  20.0044  20.0956
    20.1929  20.2609  20.3390  20.3896  20.5201  20.5932  20.6319  20.7118
    20.8462  20.8704  20.9271  20.9879  21.0340  21.0946  21.1722  21.2431
    21.2887  21.3806  21.4322  21.4762  21.5045  21.5698  21.5992  21.6993
    21.7348  21.8012  21.8733  21.9282  21.9532  22.0166  22.0465  22.1151
    22.1772  22.2597  22.3382  22.4079  22.4888  22.5257  22.6186

          k = 0.2500-0.4870 0.0000 ( 30468 PWs)   bands (ev):

   -74.3116 -74.3038 -74.0180 -74.0043 -73.9674 -73.7409 -73.7387 -73.7330
   -44.4607 -44.3276 -44.2544 -44.2521 -44.2477 -44.2365 -44.2006 -44.1827
   -44.1673 -44.0398 -44.0308 -43.9859 -43.9356 -43.9162 -43.8628 -43.8049
   -43.8010 -43.7063 -43.6684 -43.6576 -43.6036 -43.5866 -43.5814 -43.5621
   -23.1283 -20.5142 -20.1055 -19.9938 -19.8813 -19.6308 -19.5539 -19.4021
   -19.3878 -19.2822 -19.2150 -19.1753 -19.0002 -18.9869 -18.9711 -18.9398
   -18.8823 -18.7986 -18.4473 -16.9413  -8.6918  -8.4091  -8.1690  -7.8820
    -7.7771  -7.6609  -7.5598  -7.5025  -7.4671  -7.2975  -7.2422  -7.2257
    -7.2107  -7.1568  -7.0783  -7.0006  -6.9484  -6.8753  -6.7131  -6.5833
    -6.4620  -6.2239  -6.1080  -6.0274  -5.9342  -5.8168  -5.6866  -5.5989
    -5.5484  -5.5034  -5.4573  -5.2578  -5.1798  -5.0138  -5.0001  -4.9212
    -4.8656  -4.8063  -4.7196  -4.5906  -4.5539  -4.4745  -4.3978  -4.1571
    -4.0022  -3.9631  -3.7786  -3.5808  -3.4937  -3.3951  -3.3541  -3.2538
    -3.1537  -3.0754  -2.9891  -2.8192  -2.7449  -2.3297  -2.1283  -1.9126
    -1.7383  -1.5522  -1.4443  -1.2772  -1.1043  -1.0739  -0.9762  -0.9396
    -0.9355  -0.8581  -0.6835  -0.6617  -0.5877  -0.4862  -0.4641  -0.3260
    -0.2929  -0.1585   0.0923   0.1785   0.2136   0.4789   0.5401   1.2882
     1.5297   1.5462   1.9898   2.2234   2.8370   2.8633   3.0853   3.1202
     3.1993   3.5132   3.6588   3.8414   3.9785   4.0372   4.1058   4.2641
     4.4480   4.8745   5.1713   5.2521   5.4210   5.6134   5.9191   6.0358
     6.1474   6.4182   6.5645   6.7331   6.9946   7.0413   7.1315   7.3619
     7.3942   7.4968   7.6176   7.7593   7.8520   8.0149   8.2594   8.4709
     8.5532   8.6917   8.7314   8.8748   8.9769   9.1102   9.3227   9.3891
     9.5892   9.6267   9.6543   9.9309  10.1524  10.2007  10.2987  10.4886
    10.5626  10.6160  10.6977  10.7917  10.9093  11.1243  11.1923  11.3180
    11.3983  11.5191  11.5924  11.6725  11.7711  11.7930  11.8589  11.9901
    12.0460  12.1154  12.1375  12.2107  12.2674  12.3192  12.3384  12.4563
    12.6269  12.6461  12.7006  12.7413  12.8441  12.8736  13.0197  13.0559
    13.1634  13.2284  13.2614  13.3549  13.3738  13.4053  13.4728  13.6044
    13.6109  13.6711  13.7611  13.8480  13.8851  13.9591  14.0145  14.1263
    14.2807  14.3362  14.4168  14.4554  14.4718  14.5164  14.5773  14.6371
    14.6668  14.7756  14.8232  14.8477  14.9585  14.9758  15.0596  15.1365
    15.2019  15.3824  15.3935  15.4375  15.4778  15.5217  15.5541  15.7275
    15.7894  15.8624  15.9661  16.0299  16.0641  16.2582  16.3354  16.4024
    16.4605  16.4912  16.5502  16.5591  16.6156  16.6477  16.7097  16.7302
    16.7813  16.8536  16.8943  16.9767  16.9918  17.1148  17.2008  17.2792
    17.3805  17.4394  17.5065  17.5331  17.5649  17.6025  17.6346  17.6969
    17.7696  17.8633  17.9733  18.0916  18.1355  18.2785  18.2985  18.3656
    18.4173  18.4390  18.4742  18.5600  18.6136  18.6507  18.7943  18.8284
    18.9117  18.9392  18.9859  19.0056  19.0752  19.0942  19.2283  19.2706
    19.3617  19.4762  19.5306  19.5981  19.7094  19.7414  19.8146  19.8476
    19.8713  19.9631  20.0199  20.0446  20.0738  20.1206  20.2675  20.4086
    20.4881  20.5770  20.6005  20.6782  20.7987  20.8566  20.9637  20.9976
    21.0749  21.1062  21.1776  21.2272  21.3547  21.3979  21.4337  21.4749
    21.5862  21.6902  21.8717  21.9084  22.0161  22.0458  22.1436  22.2402
    22.3038  22.3192  22.3533  22.3911  22.4220  22.5473  22.5988

          k =-0.5000 0.0000 0.0000 ( 30480 PWs)   bands (ev):

   -74.3082 -74.3071 -74.0169 -74.0053 -73.9673 -73.7397 -73.7371 -73.7356
   -44.3995 -44.3899 -44.2511 -44.2505 -44.2492 -44.2391 -44.1929 -44.1908
   -44.1671 -44.0391 -44.0232 -43.9386 -43.9365 -43.9229 -43.9030 -43.8034
   -43.8016 -43.6804 -43.6553 -43.6515 -43.6439 -43.5936 -43.5912 -43.5625
   -23.1287 -20.4264 -20.1585 -20.0778 -19.7923 -19.7034 -19.5939 -19.5825
   -19.3279 -19.2444 -19.1841 -19.0811 -19.0175 -18.9144 -18.9112 -18.8607
   -18.8475 -18.7879 -18.5478 -16.9439  -8.4777  -8.4670  -8.2656  -8.0862
    -8.0524  -8.0253  -8.0233  -7.7270  -7.6895  -7.6246  -7.4857  -7.3476
    -7.2995  -7.0805  -7.0672  -6.9404  -6.8845  -6.8585  -6.5379  -6.3571
    -6.3033  -6.0957  -5.9934  -5.9584  -5.8843  -5.8565  -5.6368  -5.6267
    -5.4540  -5.4246  -5.3113  -5.1900  -5.0412  -5.0032  -4.9584  -4.8725
    -4.5918  -4.5391  -4.4624  -4.4337  -4.3768  -4.3143  -4.1756  -3.9674
    -3.9298  -3.9089  -3.8785  -3.7708  -3.7466  -3.5787  -3.5372  -3.1962
    -3.0006  -2.9781  -2.9240  -2.8864  -2.7497  -2.6959  -1.7953  -1.7639
    -1.7307  -1.3474  -1.2982  -1.2934  -1.2163  -1.0863  -1.0321  -0.8389
    -0.8019  -0.7605  -0.7382  -0.6317  -0.6160  -0.5686  -0.4026  -0.3330
    -0.3091  -0.1894  -0.1856  -0.0342   0.0587   0.3509   0.4520   1.1456
     2.1467   2.4434   2.4701   2.5498   2.5653   2.7563   2.9397   3.1514
     3.1774   3.1847   3.1937   3.2000   3.3675   3.9164   3.9815   4.0516
     4.5435   4.8427   4.8542   4.8861   5.2406   5.2913   5.7610   5.7899
     6.2780   6.4404   6.9092   7.1965   7.3449   7.3465   7.6833   7.7090
     7.7965   8.2003   8.3202   8.3245   8.4501   8.5419   8.5743   8.6524
     8.6721   8.8346   8.8421   8.9310   8.9462   9.0501   9.2624   9.3541
     9.4063   9.5016   9.6143   9.8028   9.8340   9.9673  10.0983  10.0992
    10.2066  10.3055  10.3389  10.5267  10.5296  10.6120  10.7143  10.7863
    10.8494  10.9588  10.9861  11.0274  11.1323  11.2801  11.3793  11.4047
    11.7233  11.7587  11.9205  12.0419  12.2494  12.2643  12.3474  12.3605
    12.4822  12.5513  12.6234  12.6358  12.7555  12.7611  12.8461  12.8602
    12.9946  13.0168  13.0754  13.1749  13.2738  13.3108  13.4769  13.5260
    13.6376  13.7128  13.7711  13.7882  13.8993  13.9808  14.2056  14.2355
    14.4395  14.5065  14.5498  14.6175  14.7534  14.8504  14.8791  14.9271
    14.9320  14.9451  15.0346  15.1106  15.1572  15.2178  15.3434  15.4316
    15.4657  15.5067  15.6145  15.7100  15.7503  15.8295  15.8550  15.9745
    16.0363  16.1428  16.1546  16.2254  16.3330  16.4031  16.4960  16.5355
    16.5570  16.5708  16.6018  16.6338  16.7207  16.7547  16.7737  16.8440
    16.9391  16.9743  16.9955  17.0010  17.0347  17.1022  17.2188  17.2363
    17.3822  17.4998  17.5205  17.6045  17.7204  17.7757  17.8172  17.8982
    18.0278  18.0506  18.1765  18.2059  18.3070  18.3578  18.3947  18.5814
    18.6955  18.7176  18.7870  18.8993  18.9049  18.9943  19.0162  19.1105
    19.2492  19.3196  19.3655  19.3856  19.4812  19.5067  19.5929  19.6186
    19.6853  19.7404  19.7497  19.8087  19.8619  19.9179  19.9823  20.0052
    20.0634  20.1542  20.1749  20.2495  20.3036  20.3442  20.4243  20.4270
    20.4876  20.4956  20.5836  20.5920  20.7235  20.7728  20.8227  20.8667
    20.8939  21.0390  21.1541  21.1683  21.1984  21.3038  21.3531  21.4232
    21.5055  21.5359  21.5692  21.5910  21.7089  21.7294  21.7382  21.8153
    21.8348  21.9333  22.0064  22.0828  22.2275  22.2322  22.3462

          k =-0.5000 0.2435 0.0000 ( 30444 PWs)   bands (ev):

   -74.3082 -74.3071 -74.0169 -74.0053 -73.9673 -73.7397 -73.7371 -73.7356
   -44.3995 -44.3899 -44.2511 -44.2506 -44.2492 -44.2391 -44.1929 -44.1907
   -44.1671 -44.0389 -44.0226 -43.9448 -43.9363 -43.9169 -43.8984 -43.8063
   -43.8037 -43.6801 -43.6558 -43.6512 -43.6437 -43.5936 -43.5912 -43.5629
   -23.1285 -20.4123 -20.1386 -20.0737 -19.7263 -19.6530 -19.5208 -19.4974
   -19.3591 -19.2424 -19.1705 -19.0993 -19.0536 -18.9960 -18.9878 -18.9448
   -18.9373 -18.7899 -18.5452 -16.9426  -8.4613  -8.4488  -8.2401  -7.8388
    -7.8176  -7.7346  -7.7220  -7.6476  -7.6304  -7.6017  -7.4760  -7.2352
    -7.2173  -7.0518  -6.9936  -6.9489  -6.8901  -6.8175  -6.5627  -6.2931
    -6.2336  -6.1774  -6.1023  -6.0633  -6.0384  -6.0044  -5.8130  -5.7535
    -5.6742  -5.6203  -5.3370  -5.2984  -5.1196  -4.9531  -4.8907  -4.8159
    -4.7315  -4.6712  -4.6059  -4.4934  -4.4829  -4.4495  -4.3356  -4.2727
    -4.1219  -3.9498  -3.8949  -3.7682  -3.7344  -3.5495  -3.5223  -3.2296
    -3.0401  -3.0117  -2.9310  -2.8369  -2.7496  -2.6200  -1.8938  -1.7613
    -1.5253  -1.3227  -1.2475  -1.0964  -1.0299  -0.9074  -0.9011  -0.8248
    -0.8059  -0.7859  -0.7597  -0.5555  -0.5455  -0.5240  -0.5007  -0.2669
    -0.1969  -0.1432  -0.1305   0.0063   0.0321   0.2934   0.3359   1.2611
     2.2066   2.3801   2.4041   2.4554   2.5249   2.5667   2.6104   2.7515
     2.9862   3.2648   3.3523   3.6037   3.6207   3.9141   4.0992   4.2045
     4.6136   5.0523   5.0556   5.0872   5.4489   5.4999   5.9590   5.9771
     6.4304   6.5079   6.7070   6.7571   6.8778   6.9225   7.2010   7.3035
     7.3426   7.5763   7.6351   7.7750   7.8379   7.9159   8.2864   8.4307
     8.5592   8.7603   8.8063   9.0064   9.1486   9.2058   9.3026   9.3551
     9.5706   9.7314   9.8778  10.0576  10.2377  10.2843  10.4110  10.4672
    10.4946  10.5721  10.7216  10.7569  10.8883  10.9237  11.0680  11.0972
    11.1933  11.3591  11.4413  11.4738  11.5381  11.5768  11.7365  11.8210
    12.0075  12.1363  12.2142  12.2471  12.4417  12.4664  12.5168  12.5791
    12.6486  12.7351  12.7686  12.8169  12.8364  12.9058  13.0578  13.1154
    13.1408  13.2260  13.2775  13.3757  13.4609  13.5046  13.5259  13.5944
    13.7791  13.8369  13.8558  13.9501  14.0198  14.1444  14.2041  14.2600
    14.3582  14.4269  14.4653  14.5304  14.6441  14.6868  14.7514  14.7916
    14.8443  14.8957  14.9167  14.9704  15.0117  15.0432  15.1515  15.1986
    15.2174  15.2540  15.3517  15.3984  15.5142  15.5254  15.6041  15.6665
    15.7569  15.8201  15.8284  15.8483  15.9216  15.9431  16.0643  16.1314
    16.2012  16.2486  16.3534  16.4446  16.4723  16.5234  16.5965  16.6532
    16.7388  16.7929  16.8263  16.8735  16.9074  16.9961  17.1044  17.1316
    17.2946  17.3420  17.3862  17.4260  17.4890  17.5636  17.6820  17.7117
    17.7356  17.8434  18.0105  18.0443  18.0841  18.1534  18.2050  18.2477
    18.3125  18.4412  18.5443  18.6444  18.6742  18.7407  18.8039  18.8402
    18.9050  18.9607  19.0317  19.0920  19.1574  19.2054  19.2194  19.3221
    19.4597  19.5161  19.5505  19.5891  19.7580  19.8032  19.8279  19.9229
    19.9569  20.0208  20.0889  20.1752  20.2095  20.2250  20.3542  20.4423
    20.4953  20.5954  20.7139  20.7847  20.8504  20.9938  21.0244  21.0771
    21.1538  21.2469  21.3037  21.3598  21.3768  21.4580  21.5270  21.6069
    21.7310  21.8436  21.8877  21.9488  21.9761  22.0280  22.2030  22.2427
    22.2559  22.3741  22.4523  22.5226  22.5873  22.6146  22.6639

          k =-0.5000-0.4870 0.0000 ( 30440 PWs)   bands (ev):

   -74.3082 -74.3071 -74.0169 -74.0053 -73.9673 -73.7397 -73.7371 -73.7356
   -44.3995 -44.3899 -44.2513 -44.2505 -44.2492 -44.2391 -44.1929 -44.1907
   -44.1672 -44.0387 -44.0220 -43.9470 -43.9397 -43.9096 -43.8954 -43.8084
   -43.8069 -43.6798 -43.6564 -43.6510 -43.6434 -43.5936 -43.5912 -43.5634
   -23.1282 -20.3984 -20.1198 -20.0700 -19.6175 -19.5868 -19.4650 -19.3420
   -19.2983 -19.2739 -19.2163 -19.1908 -19.1177 -19.1063 -19.0961 -19.0191
   -18.9811 -18.7928 -18.5435 -16.9413  -8.4488  -8.4304  -8.2239  -7.7808
    -7.7330  -7.6012  -7.5154  -7.2628  -7.2437  -7.2003  -7.1560  -7.1283
    -7.0508  -7.0305  -6.9443  -6.9093  -6.8249  -6.7584  -6.6842  -6.5949
    -6.5669  -6.4680  -6.3427  -6.1578  -6.1087  -6.0364  -5.9202  -5.7246
    -5.5807  -5.5070  -5.3890  -5.3728  -5.2067  -5.1221  -5.0981  -5.0828
    -5.0621  -5.0244  -4.9236  -4.7413  -4.6960  -4.6330  -4.6056  -4.2527
    -4.1568  -3.6975  -3.6617  -3.5912  -3.5119  -3.4963  -3.3532  -3.3028
    -3.2733  -3.0810  -2.9746  -2.9260  -2.4689  -2.4473  -1.9067  -1.6655
    -1.5887  -1.5666  -1.2729  -1.2024  -1.1739  -0.8161  -0.8059  -0.7432
    -0.6764  -0.6600  -0.5480  -0.4510  -0.4202  -0.3785  -0.3264  -0.2846
    -0.1783  -0.1255  -0.0811   0.0898   0.1565   0.2061   0.2162   1.3605
     2.0567   2.0717   2.1160   2.1192   2.4431   2.5574   2.6362   2.6848
     3.0692   3.4415   3.4540   3.7414   3.7856   4.0851   4.1391   4.1574
     4.7190   5.4728   5.5183   5.5280   5.8574   5.8598   5.9466   5.9537
     6.1148   6.1289   6.2933   6.3298   6.5445   6.6656   6.8051   6.8992
     7.0562   7.3239   7.3931   7.5979   7.7466   8.1078   8.1297   8.2909
     8.3236   8.4152   8.5148   8.6381   9.0261   9.2067   9.2391   9.3653
     9.4430   9.4645   9.8250   9.8689  10.1559  10.1708  10.4881  10.7058
    10.8593  10.8990  11.0864  11.1755  11.1973  11.2848  11.4894  11.6771
    11.9483  12.0883  12.1372  12.1466  12.2454  12.3772  12.4976  12.5146
    12.5517  12.6246  12.6826  12.7210  12.7844  12.8475  12.9457  12.9915
    13.0801  13.1534  13.1968  13.2921  13.3279  13.3658  13.3754  13.3852
    13.4334  13.4803  13.5804  13.6003  13.6307  13.6508  13.6860  13.6934
    13.7248  13.7324  13.7819  13.8108  13.8371  13.8614  13.9191  14.0052
    14.0288  14.1119  14.1649  14.1910  14.2670  14.2892  14.3702  14.3989
    14.4240  14.4789  14.4887  14.5360  14.5594  14.6738  14.6980  14.7109
    14.8497  14.9048  15.0028  15.1409  15.1602  15.2077  15.2695  15.3031
    15.3416  15.4205  15.4795  15.5128  15.5879  15.6107  15.6774  15.7184
    15.7929  15.8943  16.0764  16.1264  16.1346  16.3130  16.3204  16.3758
    16.5231  16.5757  16.6529  16.7362  16.8254  16.8711  16.8953  16.9407
    17.0022  17.1813  17.2173  17.2644  17.3152  17.3844  17.4815  17.5036
    17.5289  17.6188  17.7626  17.8099  17.8634  17.8660  17.9137  18.0225
    18.3389  18.3535  18.4845  18.5686  18.6285  18.8132  18.8518  18.9261
    18.9679  18.9851  19.0155  19.1254  19.1551  19.3482  19.3669  19.4404
    19.5517  19.6402  19.6628  19.6981  19.7601  20.0002  20.1034  20.1886
    20.2663  20.3916  20.4676  20.5308  20.5466  20.7356  20.7551  20.8508
    21.0046  21.0294  21.0549  21.0755  21.0992  21.1800  21.2301  21.2525
    21.2971  21.3060  21.3604  21.3982  21.4357  21.4848  21.5100  21.5454
    21.5879  21.6114  21.7329  21.8141  21.8341  21.8985  21.9533  22.0332
    22.0664  22.1180  22.1936  22.2124  22.2162  22.2987  22.3135

          k =-0.2500 0.2435 0.0000 ( 30434 PWs)   bands (ev):

   -74.3116 -74.3038 -74.0180 -74.0043 -73.9674 -73.7409 -73.7387 -73.7330
   -44.4607 -44.3276 -44.2551 -44.2521 -44.2467 -44.2365 -44.2007 -44.1827
   -44.1672 -44.0403 -44.0313 -43.9824 -43.9394 -43.9201 -43.8627 -43.8011
   -43.7999 -43.7071 -43.6687 -43.6570 -43.6036 -43.5865 -43.5814 -43.5617
   -23.1285 -20.5438 -20.1089 -20.0107 -19.9604 -19.7648 -19.4997 -19.4255
   -19.3385 -19.2496 -19.2066 -19.1754 -19.0279 -19.0047 -18.8853 -18.8438
   -18.8033 -18.7861 -18.4480 -16.9426  -8.6979  -8.4280  -8.1599  -8.1447
    -8.1160  -7.8443  -7.7845  -7.5777  -7.5123  -7.4078  -7.3455  -7.2692
    -7.2210  -7.1477  -7.1260  -7.0449  -6.9546  -6.8579  -6.7913  -6.5424
    -6.3758  -6.3442  -6.1792  -6.0718  -6.0204  -5.7380  -5.5627  -5.4685
    -5.3651  -5.2260  -5.1263  -5.0613  -5.0081  -4.9185  -4.8706  -4.7998
    -4.7307  -4.6284  -4.5905  -4.4759  -4.4411  -4.3899  -4.2840  -4.1073
    -4.0147  -3.8222  -3.7259  -3.7101  -3.5869  -3.5262  -3.4507  -3.3703
    -3.1723  -3.1116  -2.9847  -2.7554  -2.7036  -2.4064  -2.0295  -1.8019
    -1.5498  -1.4512  -1.3635  -1.2977  -1.2140  -1.1119  -1.0652  -1.0402
    -1.0119  -1.0030  -0.8771  -0.8504  -0.7594  -0.6354  -0.5272  -0.2916
    -0.1897  -0.1097   0.0597   0.2118   0.2787   0.3786   0.5484   1.1604
     1.8343   1.9234   2.0535   2.0968   2.5888   2.9206   2.9990   3.2260
     3.4190   3.5294   3.6146   3.6609   3.7590   3.8735   4.0197   4.1098
     4.3442   4.4903   4.7504   5.2704   5.6509   5.8227   6.1082   6.1383
     6.2226   6.5377   6.6025   6.7512   6.9032   7.1325   7.1630   7.4625
     7.6324   7.7735   7.9537   8.0756   8.1517   8.4331   8.4792   8.5794
     8.6513   8.7338   8.9231   9.0113   9.1152   9.2600   9.3617   9.4296
     9.5972   9.6862   9.7177   9.8666  10.0313  10.1115  10.1652  10.2532
    10.2928  10.4379  10.5171  10.6219  10.6439  10.7832  10.8325  10.9445
    11.0092  11.1499  11.2669  11.3591  11.3992  11.5439  11.5976  11.7027
    11.7726  11.8722  11.9778  12.0188  12.0451  12.1010  12.1800  12.2509
    12.3736  12.3927  12.5079  12.6113  12.6683  12.7528  12.8039  12.8594
    12.9232  12.9809  13.0530  13.1596  13.1811  13.3088  13.3729  13.4490
    13.5396  13.6522  13.7459  13.8163  13.9162  13.9642  14.0144  14.1400
    14.1960  14.2858  14.4087  14.4607  14.5696  14.6539  14.7140  14.7524
    14.8251  14.8798  14.9709  15.0535  15.1650  15.1956  15.2957  15.3090
    15.4184  15.4727  15.5400  15.6174  15.7132  15.7835  15.8305  15.8861
    15.9497  15.9912  16.0648  16.1283  16.1711  16.2126  16.2897  16.3107
    16.3974  16.4244  16.5604  16.6299  16.7055  16.7435  16.7991  16.8886
    16.9376  16.9690  17.0368  17.1201  17.2522  17.3225  17.3457  17.4737
    17.4972  17.5444  17.5740  17.6662  17.7483  17.7841  17.8176  17.9179
    18.0008  18.0149  18.0757  18.1050  18.1930  18.2438  18.3269  18.3862
    18.4570  18.4965  18.6299  18.6829  18.7751  18.8706  18.8846  18.9558
    19.0497  19.1376  19.2185  19.2688  19.3071  19.4255  19.4931  19.5891
    19.6249  19.7070  19.7834  19.8259  19.8862  19.9637  20.0090  20.1180
    20.2018  20.2237  20.3158  20.4908  20.5280  20.5781  20.6515  20.7209
    20.8629  20.9064  20.9450  20.9709  21.0402  21.0704  21.1360  21.2405
    21.3092  21.3503  21.4260  21.4528  21.5147  21.5630  21.6183  21.6606
    21.7298  21.8037  21.8491  21.9262  21.9626  22.0347  22.0651  22.1322
    22.2085  22.2894  22.3274  22.4173  22.4700  22.5159  22.6180

     the Fermi energy is    -0.4773 ev

!    total energy              =   -2196.47202167 Ry
     Harris-Foulkes estimate   =   -2196.47202187 Ry
     estimated scf accuracy    <       0.00000028 Ry

     The total energy is the sum of the following terms:

     one-electron contribution =  -25578.77410363 Ry
     hartree contribution      =   12817.40964780 Ry
     xc contribution           =    -345.46183206 Ry
     ewald contribution        =   10910.08155951 Ry
     Hubbard energy            =       0.27278125 Ry
     smearing contrib. (-TS)   =      -0.00007453 Ry

     convergence has been achieved in  29 iterations

     Forces acting on atoms (Ry/au):


     negative rho (up, down):  0.580E+00 0.000E+00
     atom    1 type  1   force =    -0.00483528   -0.01026368    0.00123060
     atom    2 type  1   force =    -0.00012966    0.00757903    0.00053063
     atom    3 type  2   force =     0.03580224   -0.00031841   -0.00179806
     atom    4 type  2   force =     0.00403586    0.00603722    0.00009895
     atom    5 type  1   force =     0.00179682   -0.02937589    0.00051683
     atom    6 type  1   force =     0.00173075    0.03123642    0.00038720
     atom    7 type  1   force =     0.00030877   -0.00511116    0.00432144
     atom    8 type  1   force =    -0.00015632    0.00002592   -0.00125962
     atom    9 type  2   force =    -0.01374044    0.00004273    0.00057910
     atom   10 type  2   force =     0.00009238    0.00156375   -0.00405258
     atom   11 type  1   force =    -0.01160288    0.00950977   -0.00018133
     atom   12 type  1   force =    -0.00526280   -0.00598664    0.00050161
     atom   13 type  1   force =    -0.00161134   -0.00176326   -0.00090060
     atom   14 type  1   force =    -0.00543162   -0.01094878    0.00105316
     atom   15 type  1   force =    -0.00003611    0.00682228    0.00093336
     atom   16 type  2   force =    -0.03624997   -0.00044144   -0.00197292
     atom   17 type  2   force =     0.00373336    0.00624089    0.00004893
     atom   18 type  1   force =     0.00006755   -0.02970581    0.00049428
     atom   19 type  1   force =     0.00004908    0.03139094    0.00036386
     atom   20 type  1   force =     0.00010405   -0.00429811   -0.00056035
     atom   21 type  1   force =    -0.00006340    0.00035871   -0.00120150
     atom   22 type  2   force =     0.01560193   -0.00041521    0.00069052
     atom   23 type  2   force =     0.00009463    0.00134011    0.00056450
     atom   24 type  1   force =     0.01131179    0.00947259   -0.00016306
     atom   25 type  1   force =     0.00537259   -0.00598405    0.00045585
     atom   26 type  1   force =    -0.00168468   -0.00709450   -0.00054823
     atom   27 type  3   force =    -0.00001502   -0.00053497    0.00032102
     atom   28 type  3   force =    -0.00000977   -0.00066169    0.00035608
     atom   29 type  3   force =     0.00040077    0.00000222    0.00035018
     atom   30 type  3   force =     0.00028041   -0.00000692    0.00048170
     atom   31 type  1   force =     0.00010307   -0.00101068   -0.00057178
     atom   32 type  1   force =    -0.00005032    0.00117063   -0.00098111
     atom   33 type  3   force =    -0.00000646    0.00112800   -0.00008866

     Total force =     0.007709     Total SCF correction =     0.002058
     SCF correction compared to forces is large: reduce conv_thr to get better values


     entering subroutine stress ...


     negative rho (up, down):  0.580E+00 0.000E+00
          total   stress  (Ry/bohr**3)                   (kbar)     P=   -7.27
  -0.00005440   0.00000144   0.00000267         -8.00      0.21      0.39
   0.00000144  -0.00004594   0.00000402          0.21     -6.76      0.59
   0.00000267   0.00000402  -0.00004794          0.39      0.59     -7.05


     BFGS Geometry Optimization

     number of scf cycles    =   1
     number of bfgs steps    =   0

     energy   new            =   -2196.4720216669 Ry

     new trust radius        =       0.0043214449 bohr
     new conv_thr            =       0.0000010000 Ry


ATOMIC_POSITIONS (crystal)
O0       0.000000000   0.000000000   0.377554661    0   0   1
O0       0.000000000   0.500000000   0.404930634    0   0   1
Ru1      0.250000000   0.500000000   0.455213967    0   0   1
Ru1      0.000000000   0.000000000   0.451451983    0   0   1
O0       0.250000000   0.810000000   0.452150357    0   0   1
O0       0.250000000   0.190000000   0.452227759    0   0   1
O0       0.000000000   0.500000000   0.499716601    0   0   1
O0       0.000000000   0.000000000   0.525344758    0   0   1
Ru1      0.250000000   0.000000000   0.575701605    0   0   1
Ru1      0.000000000   0.500000000   0.570358787    0   0   1
O0       0.250000000   0.690000000   0.575456366    0   0   1
O0       0.250000000   0.310000000   0.577260052    0   0   1
O0       0.000000000   0.000000000   0.617711952    0   0   1
O0       0.500000000   0.000000000   0.377661105    0   0   1
O0       0.500000000   0.500000000   0.404348704    0   0   1
Ru1      0.750000000   0.500000000   0.455220463    0   0   1
Ru1      0.500000000   0.000000000   0.451660980    0   0   1
O0       0.750000000   0.810000000   0.452169905    0   0   1
O0       0.750000000   0.190000000   0.452227292    0   0   1
O0       0.500000000   0.500000000   0.502098771    0   0   1
O0       0.500000000   0.000000000   0.525435922    0   0   1
Ru1      0.750000000   0.000000000   0.575723838    0   0   1
Ru1      0.500000000   0.500000000   0.578311312    0   0   1
O0       0.750000000   0.690000000   0.575466732    0   0   1
O0       0.750000000   0.310000000   0.577229135    0   0   1
O0       0.500000000   0.000000000   0.615389014    0   0   1
H2      -0.000371274   0.624185811   0.382716433
H2       0.499729171   0.627865343   0.383357136
H2       0.146263987   0.029200183   0.365097017
H2       0.645763780   0.030529429   0.365119653
O0       0.500078741   0.527426516   0.650948542
O0       0.499985733   0.333016696   0.679340339
H2       0.499959452   0.390673174   0.714018223


     Check: negative starting charge=   -0.523679
     NEW-OLD atomic charge density approx. for the potential

     Check: negative/imaginary core charge=   -0.000003    0.000000
     Check: negative starting charge=   -0.523547

     negative rho (up, down):  0.580E+00 0.000E+00
 Atomic wfc used for LDA+U Projector are NOT orthogonalized

     total cpu time spent up to now is     6352.8 secs

     per-process dynamical memory:   440.5 Mb

     Self-consistent Calculation

     iteration #  1     ecut=    40.00 Ry     beta=0.30
     Davidson diagonalization with overlap
     ethr =  1.00E-06,  avg # of iterations =  3.0
 --- enter write_ns ---
 LDA+U parameters:
U( 2)     =  0.50000000
alpha( 2) =  0.00000000
atom    3   Tr[ns(na)] =   7.16326
    eigenvalues: 
  0.529  0.572  0.722  0.809  0.949
    eigenvectors:
  0.001  0.191  0.004  0.000  0.804
  0.997  0.003  0.000  0.000  0.000
  0.000  0.000  0.972  0.020  0.007
  0.002  0.806  0.003  0.000  0.189
  0.000  0.000  0.021  0.979  0.000
    occupations:
  0.876 -0.005  0.018 -0.148 -0.000
 -0.005  0.529 -0.000 -0.000 -0.001
  0.018 -0.000  0.725 -0.005  0.012
 -0.148 -0.000 -0.005  0.644 -0.000
 -0.000 -0.001  0.012 -0.000  0.807
atom    4   Tr[ns(na)] =   7.15017
    eigenvalues: 
  0.558  0.601  0.687  0.779  0.950
    eigenvectors:
  0.000  0.990  0.000  0.000  0.009
  0.000  0.000  0.019  0.981  0.000
  0.000  0.000  0.981  0.019  0.000
  0.000  0.009  0.000  0.000  0.991
  1.000  0.000  0.000  0.000  0.000
    occupations:
  0.604 -0.001  0.000  0.033  0.001
 -0.001  0.777  0.012 -0.001 -0.000
  0.000  0.012  0.689  0.002  0.000
  0.033 -0.001  0.002  0.947 -0.000
  0.001 -0.000  0.000 -0.000  0.558
atom    9   Tr[ns(na)] =   7.12244
    eigenvalues: 
  0.585  0.604  0.767  0.799  0.806
    eigenvectors:
  0.000  0.160  0.004  0.728  0.108
  0.995  0.004  0.000  0.000  0.000
  0.000  0.000  0.993  0.004  0.002
  0.005  0.835  0.002  0.138  0.021
  0.000  0.000  0.001  0.130  0.869
    occupations:
  0.768 -0.003 -0.003 -0.072  0.002
 -0.003  0.586  0.001  0.003  0.000
 -0.003  0.001  0.767 -0.002 -0.001
 -0.072  0.003 -0.002  0.635 -0.001
  0.002  0.000 -0.001 -0.001  0.805
atom   10   Tr[ns(na)] =   7.16301
    eigenvalues: 
  0.544  0.557  0.730  0.815  0.936
    eigenvectors:
  0.000  0.991  0.000  0.000  0.009
  0.000  0.000  0.000  1.000  0.000
  0.000  0.000  1.000  0.000  0.000
  0.000  0.009  0.000  0.000  0.991
  1.000  0.000  0.000  0.000  0.000
    occupations:
  0.560  0.000  0.002  0.037  0.000
  0.000  0.815  0.000  0.000 -0.006
  0.002  0.000  0.730 -0.001  0.000
  0.037  0.000 -0.001  0.933 -0.000
  0.000 -0.006  0.000 -0.000  0.544
atom   16   Tr[ns(na)] =   7.16389
    eigenvalues: 
  0.529  0.573  0.721  0.809  0.950
    eigenvectors:
  0.001  0.191  0.004  0.000  0.804
  0.997  0.003  0.000  0.000  0.000
  0.000  0.000  0.975  0.018  0.007
  0.002  0.806  0.003  0.000  0.189
  0.000  0.000  0.018  0.982  0.000
    occupations:
  0.876  0.005  0.018 -0.148  0.000
  0.005  0.530  0.000  0.000 -0.001
  0.018  0.000  0.724 -0.005 -0.012
 -0.148  0.000 -0.005  0.644  0.000
  0.000 -0.001 -0.012  0.000  0.807
atom   17   Tr[ns(na)] =   7.14833
    eigenvalues: 
  0.558  0.602  0.692  0.773  0.949
    eigenvectors:
  0.000  0.991  0.000  0.000  0.009
  0.000  0.000  0.023  0.976  0.000
  0.000  0.000  0.976  0.023  0.000
  0.000  0.009  0.000  0.000  0.991
  1.000  0.000  0.000  0.000  0.000
    occupations:
  0.605 -0.001  0.000  0.033  0.001
 -0.001  0.771  0.012 -0.001 -0.001
  0.000  0.012  0.694  0.001  0.000
  0.033 -0.001  0.001  0.946 -0.000
  0.001 -0.001  0.000 -0.000  0.558
atom   22   Tr[ns(na)] =   7.11852
    eigenvalues: 
  0.585  0.604  0.767  0.798  0.805
    eigenvectors:
  0.000  0.161  0.002  0.826  0.011
  0.999  0.001  0.000  0.000  0.000
  0.000  0.000  0.995  0.003  0.001
  0.001  0.838  0.001  0.158  0.002
  0.000  0.000  0.002  0.012  0.986
    occupations:
  0.767  0.003 -0.003 -0.071  0.001
  0.003  0.586  0.001 -0.002  0.000
 -0.003  0.001  0.767 -0.002  0.002
 -0.071 -0.002 -0.002  0.635 -0.000
  0.001  0.000  0.002 -0.000  0.805
atom   23   Tr[ns(na)] =   7.17194
    eigenvalues: 
  0.555  0.593  0.721  0.790  0.927
    eigenvectors:
  0.000  0.997  0.000  0.000  0.003
  0.001  0.000  0.999  0.000  0.000
  0.000  0.000  0.000  1.000  0.000
  0.000  0.003  0.000  0.000  0.997
  0.999  0.000  0.001  0.000  0.000
    occupations:
  0.594  0.000  0.003  0.019 -0.000
  0.000  0.721  0.000  0.000 -0.004
  0.003  0.000  0.790 -0.001 -0.000
  0.019  0.000 -0.001  0.926 -0.000
 -0.000 -0.004 -0.000 -0.000  0.555
N of occupied +U levels =  57.2015569
 --- exit write_ns ---

     negative rho (up, down):  0.580E+00 0.000E+00

     total cpu time spent up to now is     6568.1 secs

     total energy              =   -2196.47193553 Ry
[...]
    16.5556  16.5697  16.6004  16.6338  16.7214  16.7535  16.7745  16.8426
    16.9420  16.9748  16.9948  17.0006  17.0367  17.1037  17.2225  17.2387
    17.3833  17.5003  17.5201  17.6010  17.7249  17.7776  17.8161  17.8968
    18.0286  18.0502  18.1740  18.2054  18.3067  18.3558  18.3934  18.5799
    18.6946  18.7136  18.7865  18.8978  18.9053  18.9924  19.0169  19.1103
    19.2484  19.3174  19.3653  19.3860  19.4799  19.5064  19.5919  19.6183
    19.6846  19.7386  19.7481  19.8068  19.8621  19.9165  19.9826  20.0069
    20.0622  20.1528  20.1737  20.2513  20.3042  20.3426  20.4228  20.4270
    20.4887  20.4965  20.5819  20.5909  20.7234  20.7744  20.8248  20.8662
    20.8925  21.0414  21.1550  21.1688  21.1992  21.3029  21.3552  21.4262
    21.5062  21.5360  21.5691  21.5915  21.7086  21.7313  21.7396  21.8165
    21.8341  21.9358  22.0077  22.0924  22.2253  22.2384  22.3502

          k =-0.5000 0.2435 0.0000 ( 30444 PWs)   bands (ev):

   -74.3000 -74.2982 -74.0121 -74.0008 -73.9607 -73.7397 -73.7279 -73.7264
   -44.3930 -44.3835 -44.2484 -44.2415 -44.2408 -44.2387 -44.1852 -44.1824
   -44.1606 -44.0470 -44.0195 -43.9367 -43.9275 -43.9096 -43.8916 -43.8008
   -43.7981 -43.6764 -43.6478 -43.6430 -43.6363 -43.5845 -43.5818 -43.5607
   -23.1427 -20.4186 -20.1520 -20.0829 -19.7228 -19.6502 -19.5137 -19.4897
   -19.3544 -19.2405 -19.1629 -19.0962 -19.0505 -18.9873 -18.9790 -18.9386
   -18.9291 -18.7889 -18.5508 -16.9422  -8.4744  -8.4541  -8.2510  -7.8410
    -7.8188  -7.7289  -7.7156  -7.6443  -7.6288  -7.6066  -7.4770  -7.2334
    -7.2150  -7.0513  -6.9918  -6.9494  -6.8914  -6.8165  -6.5645  -6.2921
    -6.2310  -6.1737  -6.0971  -6.0593  -6.0341  -6.0007  -5.8110  -5.7522
    -5.6732  -5.6207  -5.3369  -5.2967  -5.1274  -4.9562  -4.8888  -4.8141
    -4.7244  -4.6682  -4.6034  -4.4866  -4.4753  -4.4431  -4.3294  -4.2717
    -4.1204  -3.9478  -3.8900  -3.7643  -3.7286  -3.5501  -3.5243  -3.2292
    -3.0371  -3.0077  -2.9271  -2.8340  -2.7459  -2.6160  -1.8932  -1.7573
    -1.5229  -1.3142  -1.2391  -1.0916  -1.0275  -0.8994  -0.8930  -0.8203
    -0.7986  -0.7740  -0.7549  -0.5460  -0.5358  -0.5157  -0.4920  -0.2585
    -0.1850  -0.1329  -0.1195   0.0146   0.0414   0.3022   0.3455   1.2872
     2.2214   2.3863   2.4081   2.4676   2.5369   2.5832   2.6187   2.7630
     2.9927   3.2782   3.3655   3.6121   3.6308   3.9304   4.1180   4.2162
     4.6184   5.0509   5.0542   5.0849   5.4467   5.4986   5.9579   5.9743
     6.4298   6.5062   6.7066   6.7556   6.8773   6.9207   7.2005   7.3018
     7.3409   7.5751   7.6362   7.7786   7.8374   7.9165   8.2883   8.4293
     8.5643   8.7601   8.8069   9.0112   9.1503   9.2044   9.3056   9.3614
     9.5709   9.7326   9.8786  10.0588  10.2393  10.2859  10.4106  10.4694
    10.4955  10.5717  10.7237  10.7585  10.8874  10.9232  11.0692  11.0986
    11.1951  11.3592  11.4393  11.4768  11.5383  11.5817  11.7377  11.8199
    12.0087  12.1367  12.2163  12.2479  12.4452  12.4698  12.5228  12.5814
    12.6563  12.7397  12.7729  12.8201  12.8398  12.9075  13.0581  13.1141
    13.1427  13.2258  13.2783  13.3795  13.4596  13.5074  13.5280  13.5963
    13.7822  13.8381  13.8575  13.9517  14.0226  14.1469  14.2052  14.2620
    14.3614  14.4297  14.4672  14.5322  14.6494  14.6909  14.7570  14.7938
    14.8479  14.9001  14.9175  14.9707  15.0108  15.0467  15.1637  15.2006
    15.2216  15.2568  15.3527  15.3987  15.5147  15.5279  15.6042  15.6688
    15.7660  15.8233  15.8312  15.8580  15.9232  15.9465  16.0658  16.1319
    16.2034  16.2516  16.3525  16.4450  16.4742  16.5235  16.5986  16.6537
    16.7386  16.7925  16.8263  16.8732  16.9083  16.9969  17.1057  17.1326
    17.2952  17.3423  17.3853  17.4269  17.4887  17.5665  17.6789  17.7112
    17.7364  17.8432  18.0101  18.0439  18.0839  18.1530  18.2062  18.2471
    18.3118  18.4415  18.5433  18.6430  18.6739  18.7418  18.8037  18.8383
    18.9045  18.9605  19.0325  19.0905  19.1570  19.2072  19.2202  19.3205
    19.4603  19.5163  19.5491  19.5896  19.7618  19.8035  19.8298  19.9220
    19.9551  20.0213  20.0882  20.1742  20.2091  20.2245  20.3524  20.4445
    20.4957  20.5953  20.7158  20.7870  20.8520  20.9951  21.0260  21.0785
    21.1556  21.2492  21.3060  21.3605  21.3786  21.4587  21.5256  21.6035
    21.7299  21.8452  21.8917  21.9479  21.9763  22.0345  22.2049  22.2463
    22.2570  22.3753  22.4543  22.5255  22.5911  22.6225  22.6687

          k =-0.5000-0.4870 0.0000 ( 30440 PWs)   bands (ev):

   -74.3000 -74.2982 -74.0121 -74.0008 -73.9607 -73.7397 -73.7279 -73.7264
   -44.3930 -44.3835 -44.2484 -44.2417 -44.2407 -44.2387 -44.1852 -44.1824
   -44.1607 -44.0469 -44.0188 -43.9389 -43.9312 -43.9018 -43.8885 -43.8030
   -43.8013 -43.6761 -43.6483 -43.6427 -43.6360 -43.5845 -43.5818 -43.5612
   -23.1425 -20.4051 -20.1344 -20.0793 -19.6158 -19.5859 -19.4567 -19.3347
   -19.2904 -19.2671 -19.2085 -19.1822 -19.1137 -19.1017 -19.0870 -19.0138
   -18.9785 -18.7919 -18.5491 -16.9409  -8.4622  -8.4358  -8.2351  -7.7874
    -7.7406  -7.6092  -7.5172  -7.2606  -7.2367  -7.1927  -7.1491  -7.1229
    -7.0522  -7.0290  -6.9415  -6.9074  -6.8225  -6.7546  -6.6836  -6.5874
    -6.5626  -6.4633  -6.3371  -6.1540  -6.1075  -6.0338  -5.9180  -5.7265
    -5.5797  -5.5106  -5.3915  -5.3765  -5.2103  -5.1224  -5.0905  -5.0761
    -5.0541  -5.0222  -4.9184  -4.7381  -4.6949  -4.6326  -4.6033  -4.2544
    -4.1567  -3.6954  -3.6592  -3.5858  -3.5086  -3.4895  -3.3494  -3.2965
    -3.2723  -3.0800  -2.9728  -2.9211  -2.4654  -2.4434  -1.9081  -1.6639
    -1.5816  -1.5572  -1.2715  -1.1989  -1.1639  -0.8083  -0.8009  -0.7340
    -0.6672  -0.6527  -0.5433  -0.4426  -0.4114  -0.3710  -0.3188  -0.2744
    -0.1655  -0.1149  -0.0686   0.0964   0.1658   0.2148   0.2249   1.3866
     2.0687   2.0790   2.1190   2.1297   2.4530   2.5684   2.6543   2.6942
     3.0778   3.4592   3.4687   3.7554   3.7983   4.0997   4.1510   4.1716
     4.7192   5.4686   5.5142   5.5290   5.8570   5.8589   5.9446   5.9520
     6.1137   6.1263   6.2920   6.3290   6.5436   6.6621   6.8036   6.8982
     7.0553   7.3220   7.3924   7.5969   7.7455   8.1077   8.1289   8.2974
     8.3252   8.4143   8.5204   8.6452   9.0351   9.2079   9.2403   9.3732
     9.4429   9.4640   9.8280   9.8709  10.1531  10.1689  10.4891  10.7067
    10.8618  10.9024  11.0879  11.1766  11.1980  11.2864  11.4960  11.6777
    11.9460  12.0881  12.1451  12.1510  12.2466  12.3807  12.5020  12.5182
    12.5570  12.6243  12.6862  12.7218  12.7849  12.8481  12.9465  12.9921
    13.0859  13.1575  13.2020  13.2989  13.3288  13.3666  13.3772  13.3856
    13.4351  13.4803  13.5843  13.6014  13.6312  13.6545  13.6871  13.6922
    13.7229  13.7329  13.7818  13.8127  13.8357  13.8614  13.9184  14.0063
    14.0306  14.1122  14.1659  14.1914  14.2674  14.2913  14.3699  14.4002
    14.4279  14.4850  14.4925  14.5417  14.5616  14.6762  14.7021  14.7142
    14.8517  14.9049  15.0051  15.1418  15.1590  15.2063  15.2698  15.3046
    15.3422  15.4178  15.4813  15.5159  15.5903  15.6108  15.6801  15.7183
    15.7944  15.8940  16.0764  16.1294  16.1366  16.3124  16.3194  16.3783
    16.5218  16.5814  16.6568  16.7352  16.8320  16.8738  16.8981  16.9475
    17.0018  17.1809  17.2215  17.2686  17.3207  17.3882  17.4829  17.5065
    17.5332  17.6179  17.7617  17.8109  17.8629  17.8669  17.9138  18.0239
    18.3382  18.3523  18.4868  18.5709  18.6285  18.8144  18.8551  18.9288
    18.9655  18.9848  19.0155  19.1254  19.1565  19.3455  19.3723  19.4384
    19.5503  19.6416  19.6621  19.6964  19.7599  19.9993  20.1022  20.1889
    20.2646  20.3912  20.4719  20.5286  20.5443  20.7389  20.7578  20.8528
    21.0099  21.0342  21.0546  21.0764  21.0996  21.1806  21.2321  21.2513
    21.2972  21.3048  21.3599  21.3966  21.4352  21.4859  21.5090  21.5443
    21.5856  21.6112  21.7311  21.8154  21.8338  21.8997  21.9537  22.0360
    22.0704  22.1181  22.1965  22.2130  22.2187  22.2987  22.3131

          k =-0.2500 0.2435 0.0000 ( 30434 PWs)   bands (ev):

   -74.3031 -74.2952 -74.0132 -73.9998 -73.9608 -73.7397 -73.7308 -73.7236
   -44.4543 -44.3211 -44.2512 -44.2454 -44.2371 -44.2362 -44.1930 -44.1746
   -44.1607 -44.0467 -44.0300 -43.9756 -43.9303 -43.9111 -43.8565 -43.7954
   -43.7943 -43.6993 -43.6650 -43.6490 -43.5944 -43.5796 -43.5711 -43.5594
   -23.1428 -20.5508 -20.1200 -20.0190 -19.9592 -19.7586 -19.4959 -19.4206
   -19.3300 -19.2487 -19.2010 -19.1710 -19.0201 -18.9966 -18.8832 -18.8355
   -18.7982 -18.7816 -18.4532 -16.9423  -8.7105  -8.4332  -8.1623  -8.1430
    -8.1106  -7.8474  -7.7903  -7.5804  -7.5095  -7.4074  -7.3461  -7.2659
    -7.2194  -7.1433  -7.1217  -7.0451  -6.9555  -6.8597  -6.7912  -6.5455
    -6.3735  -6.3429  -6.1734  -6.0681  -6.0153  -5.7429  -5.5638  -5.4666
    -5.3618  -5.2273  -5.1232  -5.0622  -5.0057  -4.9170  -4.8677  -4.7948
    -4.7236  -4.6229  -4.5856  -4.4731  -4.4374  -4.3881  -4.2845  -4.1051
    -4.0155  -3.8212  -3.7242  -3.7064  -3.5836  -3.5264  -3.4489  -3.3692
    -3.1694  -3.1072  -2.9818  -2.7520  -2.6996  -2.4017  -2.0268  -1.7953
    -1.5434  -1.4464  -1.3545  -1.2908  -1.2067  -1.1041  -1.0592  -1.0332
    -1.0038  -0.9938  -0.8706  -0.8438  -0.7518  -0.6241  -0.5186  -0.2810
    -0.1797  -0.0995   0.0685   0.2201   0.2879   0.3864   0.5585   1.1845
     1.8388   1.9346   2.0600   2.1101   2.6056   2.9314   3.0140   3.2370
     3.4297   3.5417   3.6226   3.6677   3.7690   3.8819   4.0408   4.1188
     4.3433   4.5021   4.7493   5.2682   5.6527   5.8211   6.1050   6.1358
     6.2224   6.5369   6.6011   6.7496   6.9051   7.1305   7.1623   7.4630
     7.6331   7.7721   7.9555   8.0757   8.1521   8.4322   8.4781   8.5807
     8.6536   8.7375   8.9247   9.0123   9.1144   9.2601   9.3640   9.4323
     9.6009   9.6889   9.7179   9.8661  10.0341  10.1124  10.1678  10.2558
    10.2943  10.4382  10.5173  10.6210  10.6451  10.7816  10.8328  10.9476
    11.0099  11.1514  11.2672  11.3603  11.3992  11.5447  11.5980  11.7031
    11.7754  11.8745  11.9792  12.0191  12.0463  12.1049  12.1820  12.2515
    12.3752  12.3950  12.5095  12.6122  12.6721  12.7534  12.8058  12.8610
    12.9248  12.9815  13.0553  13.1653  13.1852  13.3109  13.3753  13.4519
    13.5425  13.6545  13.7490  13.8187  13.9190  13.9665  14.0143  14.1413
    14.2007  14.2874  14.4120  14.4648  14.5728  14.6586  14.7191  14.7566
    14.8280  14.8848  14.9785  15.0592  15.1690  15.2004  15.2990  15.3118
    15.4214  15.4790  15.5416  15.6196  15.7120  15.7865  15.8315  15.8868
    15.9508  15.9929  16.0655  16.1296  16.1712  16.2130  16.2891  16.3113
    16.3983  16.4267  16.5613  16.6307  16.7050  16.7462  16.7985  16.8901
    16.9372  16.9708  17.0386  17.1220  17.2546  17.3238  17.3466  17.4742
    17.4977  17.5451  17.5749  17.6667  17.7500  17.7850  17.8208  17.9175
    18.0012  18.0151  18.0757  18.1052  18.1944  18.2449  18.3257  18.3879
    18.4568  18.4967  18.6296  18.6842  18.7754  18.8701  18.8827  18.9554
    19.0498  19.1367  19.2186  19.2682  19.3065  19.4253  19.4946  19.5909
    19.6262  19.7088  19.7839  19.8268  19.8872  19.9639  20.0106  20.1216
    20.2059  20.2252  20.3146  20.4923  20.5317  20.5803  20.6497  20.7230
    20.8668  20.9097  20.9453  20.9727  21.0427  21.0720  21.1378  21.2413
    21.3095  21.3508  21.4262  21.4540  21.5133  21.5649  21.6175  21.6612
    21.7329  21.8050  21.8533  21.9259  21.9617  22.0369  22.0658  22.1314
    22.2086  22.2902  22.3281  22.4174  22.4697  22.5149  22.6193

     the Fermi energy is    -0.4683 ev

!    total energy              =   -2196.47209667 Ry
     Harris-Foulkes estimate   =   -2196.47209668 Ry
     estimated scf accuracy    <          6.4E-09 Ry

     The total energy is the sum of the following terms:

     one-electron contribution =  -25591.87821121 Ry
     hartree contribution      =   12824.00334366 Ry
     xc contribution           =    -345.48091775 Ry
     ewald contribution        =   10916.61115183 Ry
     Hubbard energy            =       0.27267694 Ry
     smearing contrib. (-TS)   =      -0.00014013 Ry

     convergence has been achieved in  17 iterations

     Forces acting on atoms (Ry/au):


     negative rho (up, down):  0.580E+00 0.000E+00
     atom    1 type  1   force =    -0.00459018   -0.01019443   -0.00025908
     atom    2 type  1   force =    -0.00011160    0.00717045   -0.00034057
     atom    3 type  2   force =     0.03566494   -0.00054175    0.00000718
     atom    4 type  2   force =     0.00394548    0.00595407   -0.00001949
     atom    5 type  1   force =     0.00173694   -0.02939467    0.00002605
     atom    6 type  1   force =     0.00163803    0.03124375    0.00008160
     atom    7 type  1   force =     0.00026926   -0.00516924    0.00017095
     atom    8 type  1   force =    -0.00021019    0.00016404    0.00076520
     atom    9 type  2   force =    -0.01307013    0.00006562    0.00012763
     atom   10 type  2   force =     0.00006887    0.00150244    0.00050777
     atom   11 type  1   force =    -0.01154204    0.00944463   -0.00043763
     atom   12 type  1   force =    -0.00535005   -0.00590515   -0.00040763
     atom   13 type  1   force =    -0.00164877   -0.00189984    0.00014031
     atom   14 type  1   force =    -0.00528952   -0.01088488   -0.00020272
     atom   15 type  1   force =    -0.00008376    0.00615233   -0.00041384
     atom   16 type  2   force =    -0.03611368   -0.00064648    0.00009894
     atom   17 type  2   force =     0.00363878    0.00613969   -0.00009264
     atom   18 type  1   force =     0.00020005   -0.02970500    0.00003548
     atom   19 type  1   force =     0.00009016    0.03138026    0.00008380
     atom   20 type  1   force =     0.00010981   -0.00444659    0.00080967
     atom   21 type  1   force =    -0.00002484    0.00054326    0.00079817
     atom   22 type  2   force =     0.01498120   -0.00043867    0.00003986
     atom   23 type  2   force =     0.00012939    0.00126127   -0.00040730
     atom   24 type  1   force =     0.01130679    0.00947050   -0.00043812
     atom   25 type  1   force =     0.00540585   -0.00595710   -0.00042451
     atom   26 type  1   force =    -0.00169243   -0.00717761    0.00013089
     atom   27 type  3   force =    -0.00000916    0.00012181   -0.00033212
     atom   28 type  3   force =    -0.00001097    0.00022743   -0.00032631
     atom   29 type  3   force =     0.00029144   -0.00002618    0.00027450
     atom   30 type  3   force =     0.00026392   -0.00002943    0.00028788
     atom   31 type  1   force =     0.00011113    0.00038933   -0.00005751
     atom   32 type  1   force =    -0.00010279    0.00065328   -0.00000698
     atom   33 type  3   force =    -0.00000192    0.00053288   -0.00021942

     Total force =     0.002254     Total SCF correction =     0.000180


     entering subroutine stress ...


     negative rho (up, down):  0.580E+00 0.000E+00
          total   stress  (Ry/bohr**3)                   (kbar)     P=   -6.67
  -0.00005196   0.00000146   0.00000256         -7.64      0.21      0.38
   0.00000146  -0.00004428   0.00000340          0.21     -6.51      0.50
   0.00000256   0.00000340  -0.00003984          0.38      0.50     -5.86


     bfgs converged in   6 scf cycles and   5 bfgs steps
     (criteria: energy < 0.10E-03, force < 0.10E-02)

     End of BFGS Geometry Optimization

     Final energy   =   -2196.4720966734 Ry
Begin final coordinates

ATOMIC_POSITIONS (crystal)
O0       0.000000000   0.000000000   0.377690914    0   0   1
O0       0.000000000   0.500000000   0.404983518    0   0   1
Ru1      0.250000000   0.500000000   0.455188402    0   0   1
Ru1      0.000000000   0.000000000   0.451540310    0   0   1
O0       0.250000000   0.810000000   0.452222567    0   0   1
O0       0.250000000   0.190000000   0.452271835    0   0   1
O0       0.000000000   0.500000000   0.499661677    0   0   1
O0       0.000000000   0.000000000   0.525291559    0   0   1
Ru1      0.250000000   0.000000000   0.575662743    0   0   1
Ru1      0.000000000   0.500000000   0.570237403    0   0   1
O0       0.250000000   0.690000000   0.575365406    0   0   1
O0       0.250000000   0.310000000   0.577315590    0   0   1
O0       0.000000000   0.000000000   0.617612701    0   0   1
O0       0.500000000   0.000000000   0.377785260    0   0   1
O0       0.500000000   0.500000000   0.404424217    0   0   1
Ru1      0.750000000   0.500000000   0.455185587    0   0   1
Ru1      0.500000000   0.000000000   0.451744298    0   0   1
O0       0.750000000   0.810000000   0.452234254    0   0   1
O0       0.750000000   0.190000000   0.452263745    0   0   1
O0       0.500000000   0.500000000   0.501975910    0   0   1
O0       0.500000000   0.000000000   0.525377910    0   0   1
Ru1      0.750000000   0.000000000   0.575696397    0   0   1
Ru1      0.500000000   0.500000000   0.578246399    0   0   1
O0       0.750000000   0.690000000   0.575382936    0   0   1
O0       0.750000000   0.310000000   0.577274642    0   0   1
O0       0.500000000   0.000000000   0.615363852    0   0   1
H2      -0.000388731   0.623921798   0.382707528
H2       0.499710993   0.627574458   0.383364585
H2       0.146247436   0.029082581   0.365242094
H2       0.645790606   0.030434631   0.365278110
O0       0.500204395   0.527590116   0.650806204
O0       0.499908448   0.333429773   0.679309877
H2       0.499950299   0.391760184   0.713911571
End final coordinates



     init_run     :    102.11s CPU    103.53s WALL (       1 calls)
     electrons    :  18722.57s CPU  19216.77s WALL (       6 calls)
     update_pot   :    100.55s CPU    102.83s WALL (       5 calls)
     forces       :    775.35s CPU    790.92s WALL (       6 calls)
     stress       :   4153.06s CPU   4251.45s WALL (       6 calls)

     Called by init_run:
     wfcinit      :     37.11s CPU     37.97s WALL (       1 calls)
     potinit      :      7.33s CPU      7.46s WALL (       1 calls)

     Called by electrons:
     c_bands      :  10040.57s CPU  10302.62s WALL (     107 calls)
     sum_band     :   3766.94s CPU   3868.85s WALL (     107 calls)
     v_of_rho     :    115.40s CPU    121.39s WALL (     109 calls)
     newd         :   4985.83s CPU   5022.09s WALL (     109 calls)
     mix_rho      :     20.49s CPU     21.04s WALL (     107 calls)

     Called by c_bands:
     init_us_2    :     32.86s CPU     33.13s WALL (     879 calls)
     cegterg      :   9918.71s CPU  10156.58s WALL (     321 calls)

     Called by *egterg:
     h_psi        :   5869.26s CPU   6001.91s WALL (     782 calls)
     s_psi        :    741.44s CPU    749.00s WALL (     980 calls)
     g_psi        :     12.33s CPU     12.34s WALL (     458 calls)
     cdiaghg      :    759.48s CPU    761.52s WALL (     752 calls)

     Called by h_psi:
     add_vuspsi   :    579.95s CPU    587.60s WALL (     782 calls)
     vhpsi        :    610.82s CPU    615.67s WALL (     782 calls)

     General routines
     calbec       :   1772.80s CPU   1796.40s WALL (    8128 calls)
     fft          :    167.18s CPU    208.24s WALL (    1891 calls)
     ffts         :      1.83s CPU      1.86s WALL (     216 calls)
     fftw         :   3247.75s CPU   3398.46s WALL (  603665 calls)
     interpolate  :     17.94s CPU     18.12s WALL (     216 calls)
     davcio       :      0.08s CPU     21.30s WALL (    1041 calls)

     Parallel routines
     fft_scatter  :   1264.02s CPU   1451.25s WALL (  605772 calls)
     Hubbard U routines
     new_ns       :    142.57s CPU    150.17s WALL (     107 calls)
     vhpsi        :    610.82s CPU    615.67s WALL (     782 calls)
     force_hub    :    231.03s CPU    237.24s WALL (       6 calls)
     stres_hub    :   2221.26s CPU   2257.62s WALL (       6 calls)

     PWSCF        :     6h41m CPU        6h52m WALL


   This run was terminated on:   2:23:49   6Jun2014            

=------------------------------------------------------------------------------=
   JOB DONE.
=------------------------------------------------------------------------------=
