
     Program PWSCF v.5.0.2 (svn rev. 9656) starts on  6May2014 at 11:52:16 

     This program is part of the open-source Quantum ESPRESSO suite
     for quantum simulation of materials; please cite
         "P. Giannozzi et al., J. Phys.:Condens. Matter 21 395502 (2009);
          URL http://www.quantum-espresso.org", 
     in publications or presentations arising from this work. More details at
     http://www.quantum-espresso.org/quote.php

     Parallel version (MPI), running on    16 processors
     K-points division:     npool     =       4
     R & G space division:  proc/nbgrp/npool/nimage =       4

     Current dimensions of program PWSCF are:
     Max number of different atomic species (ntypx) = 10
     Max number of k-points (npk) =  40000
     Max angular momentum in pseudopotentials (lmaxx) =  3
     Reading input from pwscf.in
Warning: card &CELL ignored
Warning: card / ignored

     Subspace diagonalization in iterative solution of the eigenvalue problem:
     a serial algorithm will be used

     Found symmetry operation: I + ( -0.5000  0.0000  0.0000)
     This is a supercell, fractional translations are disabled

     Parallelization info
     --------------------
     sticks:   dense  smooth     PW     G-vecs:    dense   smooth      PW
     Min        1491     475    132               353925    64028    9441
     Max        1492     476    134               353934    64061    9444
     Sum        5965    1901    531              1415713   256153   37769



     bravais-lattice index     =            0
     lattice parameter (alat)  =      12.2076  a.u.
     unit-cell volume          =    7496.5096 (a.u.)^3
     number of atoms/cell      =           30
     number of atomic types    =            3
     number of electrons       =       240.00
     number of Kohn-Sham states=          360
     kinetic-energy cutoff     =      40.0000  Ry
     charge density cutoff     =     500.0000  Ry
     convergence threshold     =      1.0E-06
     mixing beta               =       0.7000
     number of iterations used =            8  plain     mixing
     Exchange-correlation      = SLA  PW   PBE  PBE ( 1 4 3 4 0)
     EXX-fraction              =        0.00
     nstep                     =           50


     celldm(1)=  12.207631  celldm(2)=   0.000000  celldm(3)=   0.000000
     celldm(4)=   0.000000  celldm(5)=   0.000000  celldm(6)=   0.000000

     crystal axes: (cart. coord. in units of alat)
               a(1) = (   1.000000   0.000000   0.000000 )  
               a(2) = (   0.000000   1.004836   0.000000 )  
               a(3) = (   0.000000   0.000000   4.100811 )  

     reciprocal axes: (cart. coord. in units 2 pi/alat)
               b(1) = (  1.000000  0.000000  0.000000 )  
               b(2) = (  0.000000  0.995187  0.000000 )  
               b(3) = (  0.000000  0.000000  0.243854 )  


     PseudoPot. # 1 for O  read from file:
     /home/camp/zhonxu/pseudo/o_pbe_v1.01.uspp.F.UPF
     MD5 check sum: 2bcb18d16ea4b960afae9ec6d52f22d2
     Pseudo is Ultrasoft + core correction, Zval =  6.0
     Generated by new atomic code, or converted to UPF format
     Using radial grid of  737 points,  5 beta functions with: 
                l(1) =   0
                l(2) =   0
                l(3) =   1
                l(4) =   1
                l(5) =   2
     Q(r) pseudized with  8 coefficients,  rinner =    0.900   0.900   0.900
                                                       0.900   0.900

     PseudoPot. # 2 for Pt read from file:
     /home/camp/zhonxu/pseudo/pt_pbe_v1.uspp.F.UPF
     MD5 check sum: 4c71d6ad5ef119f1eb26a4d0b7884226
     Pseudo is Ultrasoft + core correction, Zval = 16.0
     Generated by new atomic code, or converted to UPF format
     Using radial grid of  985 points,  6 beta functions with: 
                l(1) =   0
                l(2) =   0
                l(3) =   1
                l(4) =   1
                l(5) =   2
                l(6) =   2
     Q(r) pseudized with  8 coefficients,  rinner =    1.300   1.300   1.300
                                                       1.300   1.300

     PseudoPot. # 3 for H  read from file:
     /home/camp/zhonxu/pseudo/h_pbe_v1.uspp.F.UPF
     MD5 check sum: 3408e3ff4ec8b0a4e358431e7e038a48
     Pseudo is Ultrasoft, Zval =  1.0
     Generated by new atomic code, or converted to UPF format
     Using radial grid of  615 points,  2 beta functions with: 
                l(1) =   0
                l(2) =   0
     Q(r) pseudized with  8 coefficients,  rinner =    0.700

     atomic species   valence    mass     pseudopotential
        O0             6.00    15.99940     O ( 1.00)
        Pt1           16.00   195.08000     Pt( 1.00)
        H2             1.00     1.00794     H ( 1.00)


     Simplified LDA+U calculation (l_max = 2) with parameters (eV):
     atomic species    L          U    alpha       J0     beta
        Pt1            2     8.0000   0.0000   0.0000   0.0000



     No symmetry found



   Cartesian axes

     site n.     atom                  positions (alat units)
         1           O0  tau(   1) = (   0.0000000   0.0000000   1.5457188  )
         2           O0  tau(   2) = (   0.0000000   0.5024180   1.6369208  )
         3           Pt1 tau(   3) = (   0.2500000   0.5024180   1.8413872  )
         4           Pt1 tau(   4) = (   0.0000000   0.0000000   1.8534436  )
         5           O0  tau(   5) = (   0.2500000   0.8139171   1.8157162  )
         6           O0  tau(   6) = (   0.2500000   0.1909188   1.8824364  )
         7           O0  tau(   7) = (   0.0000000   0.5024180   2.0315829  )
         8           O0  tau(   8) = (   0.0000000   0.0000000   2.1708464  )
         9           Pt1 tau(   9) = (   0.2500000   0.0000000   2.3625593  )
        10           Pt1 tau(  10) = (   0.0000000   0.5024180   2.3549318  )
        11           O0  tau(  11) = (   0.2500000   0.6933368   2.3911010  )
        12           O0  tau(  12) = (   0.2500000   0.3114991   2.3934384  )
        13           O0  tau(  13) = (   0.0000000   0.0000000   2.5491052  )
        14           O0  tau(  14) = (   0.5000000   0.0000000   1.5457188  )
        15           O0  tau(  15) = (   0.5000000   0.5024180   1.6369208  )
        16           Pt1 tau(  16) = (   0.7500000   0.5024180   1.8413872  )
        17           Pt1 tau(  17) = (   0.5000000   0.0000000   1.8534436  )
        18           O0  tau(  18) = (   0.7500000   0.8139171   1.8157162  )
        19           O0  tau(  19) = (   0.7500000   0.1909188   1.8824364  )
        20           O0  tau(  20) = (   0.5000000   0.5024180   2.0315829  )
        21           O0  tau(  21) = (   0.5000000   0.0000000   2.1708464  )
        22           Pt1 tau(  22) = (   0.7500000   0.0000000   2.3625593  )
        23           Pt1 tau(  23) = (   0.5000000   0.5024180   2.3549318  )
        24           O0  tau(  24) = (   0.7500000   0.6933368   2.3911010  )
        25           O0  tau(  25) = (   0.7500000   0.3114991   2.3934384  )
        26           O0  tau(  26) = (   0.5000000   0.0000000   2.5491052  )
        27           H2  tau(  27) = (  -0.0000500   0.6431553   1.5728661  )
        28           H2  tau(  28) = (   0.4999500   0.6431553   1.5728661  )
        29           H2  tau(  29) = (   0.1440700   0.0315318   1.5048747  )
        30           H2  tau(  30) = (   0.6440700   0.0315318   1.5048747  )

     number of k points=    10  Methfessel-Paxton smearing, width (Ry)=  0.0100
                       cart. coord. in units 2pi/alat
        k(    1) = (   0.0000000   0.0000000   0.0000000), wk =   0.1250000
        k(    2) = (   0.0000000   0.2487968   0.0000000), wk =   0.2500000
        k(    3) = (   0.0000000  -0.4975937   0.0000000), wk =   0.1250000
        k(    4) = (   0.2500000   0.0000000   0.0000000), wk =   0.2500000
        k(    5) = (   0.2500000   0.2487968   0.0000000), wk =   0.2500000
        k(    6) = (   0.2500000  -0.4975937   0.0000000), wk =   0.2500000
        k(    7) = (  -0.5000000   0.0000000   0.0000000), wk =   0.1250000
        k(    8) = (  -0.5000000   0.2487968   0.0000000), wk =   0.2500000
        k(    9) = (  -0.5000000  -0.4975937   0.0000000), wk =   0.1250000
        k(   10) = (  -0.2500000   0.2487968   0.0000000), wk =   0.2500000

     Dense  grid:  1415713 G-vectors     FFT dimensions: (  90,  90, 360)

     Smooth grid:   256153 G-vectors     FFT dimensions: (  50,  50, 216)

     Largest allocated arrays     est. size (Mb)     dimensions
        Kohn-Sham Wavefunctions        44.48 Mb     (   8098,  360)
        Atomic wavefunctions           21.25 Mb     (   8098,  172)
        NL pseudopotentials            47.70 Mb     (   8098,  386)
        Each V/rho on FFT grid         11.12 Mb     ( 729000)
        Each G-vector array             2.70 Mb     ( 353934)
        G-vector shells                 1.17 Mb     ( 153301)
     Largest temporary arrays     est. size (Mb)     dimensions
        Auxiliary wavefunctions       177.93 Mb     (   8098, 1440)
        Each subspace H/S matrix       31.64 Mb     (1440,1440)
        Each <psi_i|beta_j> matrix      2.12 Mb     (    386,  360)
        Arrays for rho mixing          88.99 Mb     ( 729000,   8)

     Check: negative/imaginary core charge=   -0.000003    0.000000

     Initial potential from superposition of free atoms
     Check: negative starting charge=   -1.537272

     starting charge  235.99985, renormalised to  240.00000

     negative rho (up, down):  0.156E+01 0.000E+00
     Number of +U iterations with fixed ns =  0
     Starting occupations:
 --- enter write_ns ---
 LDA+U parameters:
U( 2)     =  8.00000000
alpha( 2) =  0.00000000
atom    3   Tr[ns(na)] =   8.00000
    eigenvalues: 
  0.800  0.800  0.800  0.800  0.800
    eigenvectors:
  1.000  0.000  0.000  0.000  0.000
  0.000  1.000  0.000  0.000  0.000
  0.000  0.000  1.000  0.000  0.000
  0.000  0.000  0.000  1.000  0.000
  0.000  0.000  0.000  0.000  1.000
    occupations:
  0.800  0.000  0.000  0.000  0.000
  0.000  0.800  0.000  0.000  0.000
  0.000  0.000  0.800  0.000  0.000
  0.000  0.000  0.000  0.800  0.000
  0.000  0.000  0.000  0.000  0.800
atom    4   Tr[ns(na)] =   8.00000
    eigenvalues: 
  0.800  0.800  0.800  0.800  0.800
    eigenvectors:
  1.000  0.000  0.000  0.000  0.000
  0.000  1.000  0.000  0.000  0.000
  0.000  0.000  1.000  0.000  0.000
  0.000  0.000  0.000  1.000  0.000
  0.000  0.000  0.000  0.000  1.000
    occupations:
  0.800  0.000  0.000  0.000  0.000
  0.000  0.800  0.000  0.000  0.000
  0.000  0.000  0.800  0.000  0.000
  0.000  0.000  0.000  0.800  0.000
  0.000  0.000  0.000  0.000  0.800
atom    9   Tr[ns(na)] =   8.00000
    eigenvalues: 
  0.800  0.800  0.800  0.800  0.800
    eigenvectors:
  1.000  0.000  0.000  0.000  0.000
  0.000  1.000  0.000  0.000  0.000
  0.000  0.000  1.000  0.000  0.000
  0.000  0.000  0.000  1.000  0.000
  0.000  0.000  0.000  0.000  1.000
    occupations:
  0.800  0.000  0.000  0.000  0.000
  0.000  0.800  0.000  0.000  0.000
  0.000  0.000  0.800  0.000  0.000
  0.000  0.000  0.000  0.800  0.000
  0.000  0.000  0.000  0.000  0.800
atom   10   Tr[ns(na)] =   8.00000
    eigenvalues: 
  0.800  0.800  0.800  0.800  0.800
    eigenvectors:
  1.000  0.000  0.000  0.000  0.000
  0.000  1.000  0.000  0.000  0.000
  0.000  0.000  1.000  0.000  0.000
  0.000  0.000  0.000  1.000  0.000
  0.000  0.000  0.000  0.000  1.000
    occupations:
  0.800  0.000  0.000  0.000  0.000
  0.000  0.800  0.000  0.000  0.000
  0.000  0.000  0.800  0.000  0.000
  0.000  0.000  0.000  0.800  0.000
  0.000  0.000  0.000  0.000  0.800
atom   16   Tr[ns(na)] =   8.00000
    eigenvalues: 
  0.800  0.800  0.800  0.800  0.800
    eigenvectors:
  1.000  0.000  0.000  0.000  0.000
  0.000  1.000  0.000  0.000  0.000
  0.000  0.000  1.000  0.000  0.000
  0.000  0.000  0.000  1.000  0.000
  0.000  0.000  0.000  0.000  1.000
    occupations:
  0.800  0.000  0.000  0.000  0.000
  0.000  0.800  0.000  0.000  0.000
  0.000  0.000  0.800  0.000  0.000
  0.000  0.000  0.000  0.800  0.000
  0.000  0.000  0.000  0.000  0.800
atom   17   Tr[ns(na)] =   8.00000
    eigenvalues: 
  0.800  0.800  0.800  0.800  0.800
    eigenvectors:
  1.000  0.000  0.000  0.000  0.000
  0.000  1.000  0.000  0.000  0.000
  0.000  0.000  1.000  0.000  0.000
  0.000  0.000  0.000  1.000  0.000
  0.000  0.000  0.000  0.000  1.000
    occupations:
  0.800  0.000  0.000  0.000  0.000
  0.000  0.800  0.000  0.000  0.000
  0.000  0.000  0.800  0.000  0.000
  0.000  0.000  0.000  0.800  0.000
  0.000  0.000  0.000  0.000  0.800
atom   22   Tr[ns(na)] =   8.00000
    eigenvalues: 
  0.800  0.800  0.800  0.800  0.800
    eigenvectors:
  1.000  0.000  0.000  0.000  0.000
  0.000  1.000  0.000  0.000  0.000
  0.000  0.000  1.000  0.000  0.000
  0.000  0.000  0.000  1.000  0.000
  0.000  0.000  0.000  0.000  1.000
    occupations:
  0.800  0.000  0.000  0.000  0.000
  0.000  0.800  0.000  0.000  0.000
  0.000  0.000  0.800  0.000  0.000
  0.000  0.000  0.000  0.800  0.000
  0.000  0.000  0.000  0.000  0.800
atom   23   Tr[ns(na)] =   8.00000
    eigenvalues: 
  0.800  0.800  0.800  0.800  0.800
    eigenvectors:
  1.000  0.000  0.000  0.000  0.000
  0.000  1.000  0.000  0.000  0.000
  0.000  0.000  1.000  0.000  0.000
  0.000  0.000  0.000  1.000  0.000
  0.000  0.000  0.000  0.000  1.000
    occupations:
  0.800  0.000  0.000  0.000  0.000
  0.000  0.800  0.000  0.000  0.000
  0.000  0.000  0.800  0.000  0.000
  0.000  0.000  0.000  0.800  0.000
  0.000  0.000  0.000  0.000  0.800
N of occupied +U levels =  64.0000000
 --- exit write_ns ---
 Atomic wfc used for LDA+U Projector are NOT orthogonalized
     Starting wfc are  172 randomized atomic wfcs

     total cpu time spent up to now is      107.5 secs

     per-process dynamical memory:   415.8 Mb

     Self-consistent Calculation

     iteration #  1     ecut=    40.00 Ry     beta=0.70
     Davidson diagonalization with overlap
     ethr =  1.00E-02,  avg # of iterations =  5.3
 --- enter write_ns ---
 LDA+U parameters:
U( 2)     =  8.00000000
alpha( 2) =  0.00000000
atom    3   Tr[ns(na)] =   7.48423
    eigenvalues: 
  0.489  0.523  0.804  0.960  0.967
    eigenvectors:
  0.000  0.140  0.075  0.785  0.000
  1.000  0.000  0.000  0.000  0.000
  0.000  0.018  0.924  0.057  0.000
  0.000  0.842  0.001  0.157  0.000
  0.000  0.000  0.000  0.001  0.999
    occupations:
  0.887 -0.000 -0.019 -0.151  0.000
 -0.000  0.489 -0.000  0.000 -0.004
 -0.019 -0.000  0.808  0.050  0.001
 -0.151  0.000  0.050  0.592 -0.000
  0.000 -0.004  0.001 -0.000  0.966
atom    4   Tr[ns(na)] =   7.30076
    eigenvalues: 
  0.499  0.520  0.818  0.849  0.965
    eigenvectors:
  0.000  0.974  0.007  0.002  0.017
  0.033  0.000  0.143  0.823  0.000
  0.000  0.011  0.840  0.146  0.003
  0.000  0.015  0.004  0.001  0.980
  0.966  0.000  0.005  0.028  0.000
    occupations:
  0.530 -0.003 -0.032  0.055 -0.001
 -0.003  0.833  0.011  0.000  0.062
 -0.032  0.011  0.820 -0.004  0.001
  0.055  0.000 -0.004  0.957  0.000
 -0.001  0.062  0.001  0.000  0.511
atom    9   Tr[ns(na)] =   7.94120
    eigenvalues: 
  0.516  0.537  0.968  0.974  0.976
    eigenvectors:
  0.000  0.137  0.029  0.002  0.831
  1.000  0.000  0.000  0.000  0.000
  0.000  0.000  0.965  0.000  0.035
  0.000  0.863  0.005  0.000  0.131
  0.000  0.000  0.000  0.997  0.002
    occupations:
  0.916  0.000 -0.002 -0.151  0.000
  0.000  0.516  0.000  0.000  0.001
 -0.002  0.000  0.968 -0.001 -0.000
 -0.151  0.000 -0.001  0.597  0.000
  0.000  0.001 -0.000  0.000  0.974
atom   10   Tr[ns(na)] =   8.68793
    eigenvalues: 
  0.510  0.884  0.981  0.983  0.986
    eigenvectors:
  0.000  0.893  0.104  0.000  0.003
  0.000  0.000  0.000  1.000  0.000
  0.000  0.001  0.008  0.000  0.991
  0.000  0.106  0.889  0.000  0.005
  1.000  0.000  0.000  0.000  0.000
    occupations:
  0.894  0.000  0.003  0.030  0.000
  0.000  0.983 -0.000 -0.000 -0.003
  0.003 -0.000  0.986 -0.001  0.000
  0.030 -0.000 -0.001  0.971 -0.000
  0.000 -0.003  0.000 -0.000  0.510
atom   16   Tr[ns(na)] =   7.48424
    eigenvalues: 
  0.489  0.523  0.804  0.960  0.967
    eigenvectors:
  0.000  0.140  0.075  0.785  0.000
  1.000  0.000  0.000  0.000  0.000
  0.000  0.018  0.924  0.057  0.000
  0.000  0.842  0.001  0.157  0.000
  0.000  0.000  0.000  0.001  0.999
    occupations:
  0.887 -0.000 -0.019 -0.151  0.000
 -0.000  0.489 -0.000  0.000 -0.004
 -0.019 -0.000  0.808  0.050  0.001
 -0.151  0.000  0.050  0.592 -0.000
  0.000 -0.004  0.001 -0.000  0.966
atom   17   Tr[ns(na)] =   7.30072
    eigenvalues: 
  0.499  0.520  0.818  0.849  0.965
    eigenvectors:
  0.000  0.974  0.007  0.002  0.017
  0.033  0.000  0.143  0.823  0.000
  0.000  0.011  0.840  0.146  0.003
  0.000  0.015  0.004  0.001  0.980
  0.966  0.000  0.005  0.028  0.000
    occupations:
  0.530 -0.003 -0.032  0.055 -0.001
 -0.003  0.833  0.011  0.000  0.062
 -0.032  0.011  0.820 -0.004  0.001
  0.055  0.000 -0.004  0.957  0.000
 -0.001  0.062  0.001  0.000  0.511
atom   22   Tr[ns(na)] =   7.94120
    eigenvalues: 
  0.516  0.537  0.968  0.974  0.976
    eigenvectors:
  0.000  0.137  0.029  0.002  0.831
  1.000  0.000  0.000  0.000  0.000
  0.000  0.000  0.965  0.000  0.035
  0.000  0.863  0.005  0.000  0.131
  0.000  0.000  0.000  0.997  0.002
    occupations:
  0.916  0.000 -0.002 -0.151  0.000
  0.000  0.516  0.000  0.000  0.001
 -0.002  0.000  0.968 -0.001 -0.000
 -0.151  0.000 -0.001  0.597  0.000
  0.000  0.001 -0.000  0.000  0.974
atom   23   Tr[ns(na)] =   8.68794
    eigenvalues: 
  0.510  0.884  0.981  0.983  0.986
    eigenvectors:
  0.000  0.893  0.104  0.000  0.003
  0.000  0.000  0.000  1.000  0.000
  0.000  0.001  0.008  0.000  0.991
  0.000  0.106  0.889  0.000  0.005
  1.000  0.000  0.000  0.000  0.000
    occupations:
  0.894  0.000  0.003  0.030  0.000
  0.000  0.983 -0.000 -0.000 -0.003
  0.003 -0.000  0.986 -0.001  0.000
  0.030 -0.000 -0.001  0.971 -0.000
  0.000 -0.003  0.000 -0.000  0.510
N of occupied +U levels =  62.8282154
 --- exit write_ns ---

     negative rho (up, down):  0.151E+01 0.000E+00

     total cpu time spent up to now is      443.8 secs

     total energy              =   -2232.39909575 Ry
     Harris-Foulkes estimate   =   -2250.49029266 Ry
     estimated scf accuracy    <      22.74019991 Ry

     iteration #  2     ecut=    40.00 Ry     beta=0.70
     Davidson diagonalization with overlap
     ethr =  9.48E-03,  avg # of iterations =  5.0

     negative rho (up, down):  0.129E+01 0.000E+00

     total cpu time spent up to now is      752.7 secs

     total energy              =   -2161.32847825 Ry
     Harris-Foulkes estimate   =   -2315.06551783 Ry
     estimated scf accuracy    <    1511.10024503 Ry

     iteration #  3     ecut=    40.00 Ry     beta=0.70
     Davidson diagonalization with overlap
     ethr =  9.48E-03,  avg # of iterations =  5.0

     negative rho (up, down):  0.119E+01 0.000E+00

     total cpu time spent up to now is     1078.1 secs

     total energy              =   -2229.89148606 Ry
     Harris-Foulkes estimate   =   -2266.56858427 Ry
     estimated scf accuracy    <     272.25413095 Ry

     iteration #  4     ecut=    40.00 Ry     beta=0.70
     Davidson diagonalization with overlap
     ethr =  9.48E-03,  avg # of iterations =  3.6

     negative rho (up, down):  0.123E+01 0.000E+00

     total cpu time spent up to now is     1285.9 secs

     total energy              =   -2243.35531210 Ry
     Harris-Foulkes estimate   =   -2249.72391093 Ry
     estimated scf accuracy    <      27.18904435 Ry

     iteration #  5     ecut=    40.00 Ry     beta=0.70
     Davidson diagonalization with overlap
     ethr =  9.48E-03,  avg # of iterations =  1.0

     negative rho (up, down):  0.128E+01 0.000E+00

     total cpu time spent up to now is     1456.0 secs

     total energy              =   -2245.76980084 Ry
     Harris-Foulkes estimate   =   -2247.49696686 Ry
     estimated scf accuracy    <      10.58297207 Ry

     iteration #  6     ecut=    40.00 Ry     beta=0.70
     Davidson diagonalization with overlap
     ethr =  4.41E-03,  avg # of iterations =  1.1

     negative rho (up, down):  0.134E+01 0.000E+00

     total cpu time spent up to now is     1628.3 secs

     total energy              =   -2246.46654874 Ry
     Harris-Foulkes estimate   =   -2247.11104323 Ry
     estimated scf accuracy    <       2.72010246 Ry

     iteration #  7     ecut=    40.00 Ry     beta=0.70
     Davidson diagonalization with overlap
     ethr =  1.13E-03,  avg # of iterations =  3.2

     negative rho (up, down):  0.140E+01 0.000E+00

     total cpu time spent up to now is     1807.1 secs

     total energy              =   -2246.62242345 Ry
     Harris-Foulkes estimate   =   -2246.70845290 Ry
     estimated scf accuracy    <       0.44104414 Ry

     iteration #  8     ecut=    40.00 Ry     beta=0.70
     Davidson diagonalization with overlap
     ethr =  1.84E-04,  avg # of iterations = 10.7

     negative rho (up, down):  0.145E+01 0.000E+00

     total cpu time spent up to now is     2038.6 secs

     total energy              =   -2246.59032874 Ry
     Harris-Foulkes estimate   =   -2246.69485135 Ry
     estimated scf accuracy    <       0.46769456 Ry

     iteration #  9     ecut=    40.00 Ry     beta=0.70
     Davidson diagonalization with overlap
     ethr =  1.84E-04,  avg # of iterations =  2.9

     negative rho (up, down):  0.151E+01 0.000E+00

     total cpu time spent up to now is     2230.0 secs

     total energy              =   -2246.59424768 Ry
     Harris-Foulkes estimate   =   -2246.69561408 Ry
     estimated scf accuracy    <       0.70040748 Ry

     iteration # 10     ecut=    40.00 Ry     beta=0.70
     Davidson diagonalization with overlap
     ethr =  1.84E-04,  avg # of iterations =  2.4

     negative rho (up, down):  0.156E+01 0.000E+00

     total cpu time spent up to now is     2421.0 secs

     total energy              =   -2246.61882889 Ry
     Harris-Foulkes estimate   =   -2246.66617019 Ry
     estimated scf accuracy    <       0.47652464 Ry

     iteration # 11     ecut=    40.00 Ry     beta=0.70
     Davidson diagonalization with overlap
     ethr =  1.84E-04,  avg # of iterations =  1.0

     negative rho (up, down):  0.157E+01 0.000E+00

     total cpu time spent up to now is     2604.3 secs

     total energy              =   -2246.62953061 Ry
     Harris-Foulkes estimate   =   -2246.64221628 Ry
     estimated scf accuracy    <       0.13534370 Ry

     iteration # 12     ecut=    40.00 Ry     beta=0.70
     Davidson diagonalization with overlap
     ethr =  5.64E-05,  avg # of iterations =  5.3

     negative rho (up, down):  0.156E+01 0.000E+00

     total cpu time spent up to now is     2812.3 secs

     total energy              =   -2246.61594862 Ry
     Harris-Foulkes estimate   =   -2246.63470770 Ry
     estimated scf accuracy    <       0.03830663 Ry

     iteration # 13     ecut=    40.00 Ry     beta=0.70
     Davidson diagonalization with overlap
     ethr =  1.60E-05,  avg # of iterations =  5.9

     negative rho (up, down):  0.157E+01 0.000E+00

     total cpu time spent up to now is     3045.5 secs

     total energy              =   -2246.59143914 Ry
     Harris-Foulkes estimate   =   -2246.66449395 Ry
     estimated scf accuracy    <       0.59024606 Ry

     iteration # 14     ecut=    40.00 Ry     beta=0.70
     Davidson diagonalization with overlap
     ethr =  1.60E-05,  avg # of iterations =  4.9

     negative rho (up, down):  0.157E+01 0.000E+00

     total cpu time spent up to now is     3257.3 secs

     total energy              =   -2246.62559383 Ry
     Harris-Foulkes estimate   =   -2246.63406700 Ry
     estimated scf accuracy    <       0.02977062 Ry

     iteration # 15     ecut=    40.00 Ry     beta=0.70
     Davidson diagonalization with overlap
     ethr =  1.24E-05,  avg # of iterations =  1.6

     negative rho (up, down):  0.157E+01 0.000E+00

     total cpu time spent up to now is     3431.0 secs

     total energy              =   -2246.62403685 Ry
     Harris-Foulkes estimate   =   -2246.63639406 Ry
     estimated scf accuracy    <       0.11161585 Ry

     iteration # 16     ecut=    40.00 Ry     beta=0.70
     Davidson diagonalization with overlap
     ethr =  1.24E-05,  avg # of iterations =  1.0

     negative rho (up, down):  0.157E+01 0.000E+00

     total cpu time spent up to now is     3601.3 secs

     total energy              =   -2246.63002670 Ry
     Harris-Foulkes estimate   =   -2246.63099686 Ry
     estimated scf accuracy    <       0.00425980 Ry

     iteration # 17     ecut=    40.00 Ry     beta=0.70
     Davidson diagonalization with overlap
     ethr =  1.77E-06,  avg # of iterations =  1.0

     negative rho (up, down):  0.157E+01 0.000E+00

     total cpu time spent up to now is     3773.1 secs

     total energy              =   -2246.63040678 Ry
     Harris-Foulkes estimate   =   -2246.63073816 Ry
     estimated scf accuracy    <       0.00186800 Ry

     iteration # 18     ecut=    40.00 Ry     beta=0.70
     Davidson diagonalization with overlap
     ethr =  7.78E-07,  avg # of iterations =  1.0

     negative rho (up, down):  0.157E+01 0.000E+00

     total cpu time spent up to now is     3945.7 secs

     total energy              =   -2246.63053156 Ry
     Harris-Foulkes estimate   =   -2246.63066441 Ry
     estimated scf accuracy    <       0.00054396 Ry

     iteration # 19     ecut=    40.00 Ry     beta=0.70
     Davidson diagonalization with overlap
     ethr =  2.27E-07,  avg # of iterations =  1.0

     negative rho (up, down):  0.157E+01 0.000E+00

     total cpu time spent up to now is     4114.8 secs

     total energy              =   -2246.63059093 Ry
     Harris-Foulkes estimate   =   -2246.63061633 Ry
     estimated scf accuracy    <       0.00014383 Ry

     iteration # 20     ecut=    40.00 Ry     beta=0.70
     Davidson diagonalization with overlap
     ethr =  5.99E-08,  avg # of iterations =  1.0

     negative rho (up, down):  0.157E+01 0.000E+00

     total cpu time spent up to now is     4289.7 secs

     total energy              =   -2246.63058833 Ry
     Harris-Foulkes estimate   =   -2246.63061287 Ry
     estimated scf accuracy    <       0.00008195 Ry

     iteration # 21     ecut=    40.00 Ry     beta=0.70
     Davidson diagonalization with overlap
     ethr =  3.41E-08,  avg # of iterations =  2.0

     negative rho (up, down):  0.157E+01 0.000E+00

     total cpu time spent up to now is     4467.6 secs

     total energy              =   -2246.63054642 Ry
     Harris-Foulkes estimate   =   -2246.63066087 Ry
     estimated scf accuracy    <       0.00075344 Ry

     iteration # 22     ecut=    40.00 Ry     beta=0.70
     Davidson diagonalization with overlap
     ethr =  3.41E-08,  avg # of iterations =  1.5

     negative rho (up, down):  0.157E+01 0.000E+00

     total cpu time spent up to now is     4643.2 secs

     total energy              =   -2246.63059975 Ry
     Harris-Foulkes estimate   =   -2246.63061573 Ry
     estimated scf accuracy    <       0.00012972 Ry

     iteration # 23     ecut=    40.00 Ry     beta=0.70
     Davidson diagonalization with overlap
     ethr =  3.41E-08,  avg # of iterations =  1.0

     negative rho (up, down):  0.157E+01 0.000E+00

     total cpu time spent up to now is     4817.5 secs

     total energy              =   -2246.63059919 Ry
     Harris-Foulkes estimate   =   -2246.63061543 Ry
     estimated scf accuracy    <       0.00010877 Ry

     iteration # 24     ecut=    40.00 Ry     beta=0.70
     Davidson diagonalization with overlap
     ethr =  3.41E-08,  avg # of iterations =  1.0

     negative rho (up, down):  0.157E+01 0.000E+00

     total cpu time spent up to now is     4991.8 secs

     total energy              =   -2246.63060476 Ry
     Harris-Foulkes estimate   =   -2246.63061104 Ry
     estimated scf accuracy    <       0.00003757 Ry

     iteration # 25     ecut=    40.00 Ry     beta=0.70
     Davidson diagonalization with overlap
     ethr =  1.57E-08,  avg # of iterations =  1.0

     negative rho (up, down):  0.157E+01 0.000E+00

     total cpu time spent up to now is     5170.6 secs

     total energy              =   -2246.63060577 Ry
     Harris-Foulkes estimate   =   -2246.63060954 Ry
     estimated scf accuracy    <       0.00001712 Ry

     iteration # 26     ecut=    40.00 Ry     beta=0.70
     Davidson diagonalization with overlap
     ethr =  7.13E-09,  avg # of iterations =  1.2

     negative rho (up, down):  0.157E+01 0.000E+00

     total cpu time spent up to now is     5350.7 secs

     total energy              =   -2246.63060348 Ry
     Harris-Foulkes estimate   =   -2246.63061310 Ry
     estimated scf accuracy    <       0.00008363 Ry

     iteration # 27     ecut=    40.00 Ry     beta=0.70
     Davidson diagonalization with overlap
     ethr =  7.13E-09,  avg # of iterations =  1.0

     negative rho (up, down):  0.157E+01 0.000E+00

     total cpu time spent up to now is     5531.1 secs

     total energy              =   -2246.63060792 Ry
     Harris-Foulkes estimate   =   -2246.63060868 Ry
     estimated scf accuracy    <       0.00000361 Ry

     iteration # 28     ecut=    40.00 Ry     beta=0.70
     Davidson diagonalization with overlap
     ethr =  1.50E-09,  avg # of iterations =  1.0

     negative rho (up, down):  0.157E+01 0.000E+00

     total cpu time spent up to now is     5711.7 secs

     total energy              =   -2246.63060808 Ry
     Harris-Foulkes estimate   =   -2246.63060845 Ry
     estimated scf accuracy    <       0.00000199 Ry

     iteration # 29     ecut=    40.00 Ry     beta=0.70
     Davidson diagonalization with overlap
     ethr =  8.31E-10,  avg # of iterations =  1.0

     negative rho (up, down):  0.157E+01 0.000E+00

     total cpu time spent up to now is     5897.0 secs

     total energy              =   -2246.63060814 Ry
     Harris-Foulkes estimate   =   -2246.63060845 Ry
     estimated scf accuracy    <       0.00000155 Ry

     iteration # 30     ecut=    40.00 Ry     beta=0.70
     Davidson diagonalization with overlap
     ethr =  6.45E-10,  avg # of iterations =  1.0

     negative rho (up, down):  0.157E+01 0.000E+00

     total cpu time spent up to now is     6081.6 secs

     End of self-consistent calculation
 --- enter write_ns ---
 LDA+U parameters:
U( 2)     =  8.00000000
alpha( 2) =  0.00000000
atom    3   Tr[ns(na)] =   8.83802
    eigenvalues: 
  0.718  0.730  0.988  0.990  0.993
    eigenvectors:
  0.174  0.000  0.790  0.000  0.036
  0.000  1.000  0.000  0.000  0.000
  0.003  0.000  0.054  0.000  0.943
  0.823  0.000  0.156  0.000  0.021
  0.000  0.000  0.000  1.000  0.000
    occupations:
  0.941 -0.000  0.005 -0.102  0.000
 -0.000  0.730  0.000  0.000 -0.002
  0.005  0.000  0.992  0.014 -0.000
 -0.102  0.000  0.014  0.766  0.000
  0.000 -0.002 -0.000  0.000  0.990
atom    4   Tr[ns(na)] =   8.81456
    eigenvalues: 
  0.709  0.732  0.987  0.989  0.990
    eigenvectors:
  0.000  0.986  0.010  0.002  0.002
  0.009  0.000  0.030  0.909  0.051
  0.000  0.004  0.721  0.001  0.275
  0.000  0.010  0.239  0.080  0.671
  0.991  0.000  0.000  0.008  0.000
    occupations:
  0.736 -0.005 -0.015  0.025 -0.001
 -0.005  0.987  0.000  0.000  0.026
 -0.015  0.000  0.987  0.003  0.000
  0.025  0.000  0.003  0.987  0.000
 -0.001  0.026  0.000  0.000  0.711
atom    9   Tr[ns(na)] =   8.80926
    eigenvalues: 
  0.733  0.739  0.969  0.973  0.990
    eigenvectors:
  0.001  0.140  0.000  0.000  0.859
  0.994  0.006  0.000  0.000  0.000
  0.000  0.000  0.000  1.000  0.000
  0.005  0.854  0.000  0.000  0.141
  0.000  0.000  1.000  0.000  0.000
    occupations:
  0.954  0.000 -0.001 -0.087  0.000
  0.000  0.733  0.000  0.000 -0.000
 -0.001  0.000  0.973 -0.002 -0.000
 -0.087  0.000 -0.002  0.774  0.000
  0.000 -0.000 -0.000  0.000  0.969
atom   10   Tr[ns(na)] =   8.88909
    eigenvalues: 
  0.666  0.822  0.977  0.989  0.990
    eigenvectors:
  0.000  0.973  0.000  0.027  0.000
  0.000  0.000  1.000  0.000  0.000
  0.000  0.000  0.000  0.002  0.997
  0.000  0.027  0.000  0.971  0.002
  1.000  0.000  0.000  0.000  0.000
    occupations:
  0.827  0.000  0.002  0.027  0.000
  0.000  0.977 -0.000  0.000 -0.001
  0.002 -0.000  0.990 -0.000 -0.000
  0.027  0.000 -0.000  0.985 -0.000
  0.000 -0.001 -0.000 -0.000  0.666
atom   16   Tr[ns(na)] =   8.83802
    eigenvalues: 
  0.718  0.730  0.988  0.990  0.993
    eigenvectors:
  0.174  0.000  0.790  0.000  0.036
  0.000  1.000  0.000  0.000  0.000
  0.003  0.000  0.054  0.000  0.943
  0.823  0.000  0.156  0.000  0.021
  0.000  0.000  0.000  1.000  0.000
    occupations:
  0.941 -0.000  0.005 -0.102  0.000
 -0.000  0.730  0.000  0.000 -0.002
  0.005  0.000  0.992  0.014 -0.000
 -0.102  0.000  0.014  0.766  0.000
  0.000 -0.002 -0.000  0.000  0.990
atom   17   Tr[ns(na)] =   8.81455
    eigenvalues: 
  0.709  0.732  0.987  0.989  0.990
    eigenvectors:
  0.000  0.986  0.010  0.002  0.002
  0.009  0.000  0.030  0.909  0.051
  0.000  0.004  0.721  0.001  0.274
  0.000  0.010  0.239  0.080  0.672
  0.991  0.000  0.000  0.008  0.000
    occupations:
  0.736 -0.005 -0.015  0.025 -0.001
 -0.005  0.987  0.000  0.000  0.026
 -0.015  0.000  0.987  0.003  0.000
  0.025  0.000  0.003  0.987  0.000
 -0.001  0.026  0.000  0.000  0.711
atom   22   Tr[ns(na)] =   8.80926
    eigenvalues: 
  0.733  0.739  0.969  0.973  0.990
    eigenvectors:
  0.001  0.140  0.000  0.000  0.859
  0.994  0.006  0.000  0.000  0.000
  0.000  0.000  0.000  1.000  0.000
  0.005  0.854  0.000  0.000  0.141
  0.000  0.000  1.000  0.000  0.000
    occupations:
  0.954  0.000 -0.001 -0.087  0.000
  0.000  0.733  0.000  0.000 -0.000
 -0.001  0.000  0.973 -0.002 -0.000
 -0.087  0.000 -0.002  0.774  0.000
  0.000 -0.000 -0.000  0.000  0.969
atom   23   Tr[ns(na)] =   8.88900
    eigenvalues: 
  0.666  0.822  0.977  0.989  0.990
    eigenvectors:
  0.000  0.973  0.000  0.027  0.000
  0.000  0.000  1.000  0.000  0.000
  0.000  0.000  0.000  0.002  0.997
  0.000  0.027  0.000  0.971  0.002
  1.000  0.000  0.000  0.000  0.000
    occupations:
  0.827  0.000  0.002  0.027  0.000
  0.000  0.977 -0.000  0.000 -0.001
  0.002 -0.000  0.990 -0.000 -0.000
  0.027  0.000 -0.000  0.985 -0.000
  0.000 -0.001 -0.000 -0.000  0.666
N of occupied +U levels =  70.7017563
 --- exit write_ns ---

          k = 0.0000 0.0000 0.0000 ( 32157 PWs)   bands (ev):

   -54.9322 -54.9019 -54.9002 -54.8728 -54.8456 -54.8414 -54.7856 -54.7830
   -54.7564 -54.7526 -54.6627 -54.6585 -54.5780 -54.5707 -54.5696 -54.5690
   -54.5374 -54.5304 -54.2455 -54.1864 -53.9053 -53.9003 -53.5474 -53.5437
   -22.2670 -22.0895 -21.7048 -21.6632 -21.0817 -20.8329 -20.7543 -20.7066
   -20.6953 -20.6289 -20.5793 -20.5357 -20.3817 -20.1155 -19.8590 -19.8192
   -19.3696 -19.0531 -12.3225 -12.0178 -11.8486 -11.3915 -11.2513 -11.0470
   -10.8935 -10.8390 -10.5420 -10.2748  -9.8159  -9.7846  -9.7404  -9.7136
    -9.6855  -9.6411  -9.3680  -9.2743  -9.1011  -8.8293  -8.8180  -8.6945
    -8.5575  -8.4283  -8.4101  -8.3472  -8.0502  -8.0235  -7.8512  -7.7310
    -7.5704  -7.4065  -7.3119  -7.3015  -7.2414  -7.0581  -6.9546  -6.9424
    -6.6218  -6.5928  -6.5795  -6.5575  -6.5107  -6.3020  -6.1961  -5.8337
    -5.8287  -5.6435  -5.4436  -5.3945  -5.3074  -5.2703  -5.2550  -5.1072
    -5.0508  -4.9682  -4.9581  -4.6650  -4.6594  -4.4418  -4.3811  -4.1618
    -3.9802  -3.7900  -3.4690  -3.4465  -3.3460  -3.2447  -3.1772  -2.8782
    -2.8226  -2.7930  -2.7624  -2.5993  -2.5509  -2.4335  -2.4313  -2.0208
    -1.8100  -1.7755  -0.8445  -0.7315  -0.6945  -0.5935  -0.1588  -0.0862
    -0.0209   0.4200   0.7057   1.1804   1.2465   1.4247   1.4741   1.7720
     2.3387   3.2039   4.0649   4.5386   4.6163   5.4649   5.5260   5.7059
     5.7309   6.2367   6.4194   6.4647   6.5532   6.7902   6.9858   7.0438
     7.1436   7.2094   7.3416   7.3852   7.5427   7.5830   7.6184   7.6581
     7.7382   7.7893   7.9063   8.0243   8.0322   8.0348   8.0820   8.2792
     8.3100   8.3980   8.4532   8.5361   8.6626   8.8019   8.8934   8.9806
     9.0364   9.0808   9.3683   9.5294   9.5542   9.6172   9.7520   9.8632
     9.8948   9.9639  10.1298  10.1515  10.3401  10.4839  10.6060  10.6747
    10.6897  10.7903  10.8073  10.9346  10.9804  11.0342  11.0892  11.1595
    11.2495  11.3042  11.3853  11.4001  11.4275  11.4722  11.5139  11.6434
    11.8374  11.8410  11.8676  12.0017  12.0109  12.1182  12.1464  12.2558
    12.2822  12.3489  12.4094  12.4478  12.4816  12.6579  12.7829  12.9204
    12.9377  13.2085  13.2684  13.3646  13.3793  13.4116  13.5269  13.5593
    13.7012  13.7154  13.9743  14.0020  14.0379  14.1531  14.2170  14.3557
    14.5195  14.5669  14.6847  14.7091  14.7389  14.7556  14.8439  14.9553
    15.1476  15.2482  15.2585  15.3687  15.4569  15.4914  15.6191  15.6895
    15.7105  15.7961  15.8648  15.8664  15.9527  16.1777  16.3867  16.4467
    16.4992  16.6284  16.6961  16.7093  16.8106  16.8694  16.9358  16.9791
    17.1310  17.1509  17.2986  17.3513  17.4005  17.4550  17.5257  17.5544
    17.6183  17.6423  17.6429  17.7261  17.7599  17.8623  17.8844  17.9172
    18.0499  18.0891  18.1217  18.1651  18.1791  18.2126  18.2158  18.3565
    18.4916  18.5159  18.5311  18.5398  18.5402  18.5773  18.6602  18.7755
    18.8038  18.8565  18.9643  18.9662  19.0049  19.0228  19.0674  19.0945
    19.1042  19.1696  19.3434  19.3509  19.4806  19.5780  19.6445  19.6739
    19.7155  19.7441  19.8245  19.8659  19.9375  20.0022  20.0337  20.1218
    20.1359  20.1666  20.1939  20.3675  20.5104  20.5554  20.6746  20.7948
    20.8225  20.8614  20.8641  20.8981  21.0513  21.1072  21.1739  21.2325
    21.2523  21.3848  21.4133  21.4261  21.4343  21.5663  21.6137  21.6757
    21.7224  21.7783  21.8137  21.8352  21.8611  21.8719  21.8901  21.9103

          k = 0.0000 0.2488 0.0000 ( 32033 PWs)   bands (ev):

   -54.9315 -54.9011 -54.9000 -54.8728 -54.8451 -54.8420 -54.7865 -54.7825
   -54.7567 -54.7517 -54.6634 -54.6577 -54.5777 -54.5720 -54.5694 -54.5682
   -54.5376 -54.5303 -54.2450 -54.1865 -53.9061 -53.8988 -53.5477 -53.5436
   -22.2560 -22.0901 -21.5535 -21.5001 -21.1457 -21.0718 -20.9175 -20.7441
   -20.6334 -20.5798 -20.3979 -20.3790 -20.3089 -20.1134 -20.0884 -20.0581
   -19.3627 -19.0546 -11.9568 -11.8365 -11.7668 -11.5690 -11.3481 -11.2690
   -11.0292 -10.6638 -10.5401 -10.1086  -9.8128  -9.7217  -9.7045  -9.5855
    -9.4281  -9.4098  -9.3830  -9.0563  -8.9932  -8.8738  -8.8588  -8.5976
    -8.4770  -8.4626  -8.3779  -8.3527  -8.0905  -8.0277  -7.9550  -7.8249
    -7.8173  -7.7384  -7.5559  -7.4287  -7.3339  -7.1526  -7.1233  -7.0633
    -6.8590  -6.6541  -6.6303  -6.5965  -6.5726  -6.3840  -6.2039  -5.7520
    -5.6864  -5.6519  -5.3694  -5.3134  -5.2780  -5.1973  -5.0757  -4.9759
    -4.8865  -4.8249  -4.7485  -4.6714  -4.6049  -4.5303  -4.4177  -4.1644
    -3.9916  -3.9362  -3.8876  -3.7819  -3.5453  -3.3940  -3.2167  -2.9400
    -2.7875  -2.6980  -2.6212  -2.5452  -2.5289  -2.4934  -2.2343  -2.0608
    -1.7954  -1.6989  -1.5030  -1.0592  -0.7168  -0.5703  -0.3349   0.2613
     0.7051   0.9416   1.0538   1.2390   1.2914   1.3053   1.3378   1.7724
     2.7006   3.3945   4.2782   4.7259   4.7970   4.9013   5.5273   5.7094
     5.8047   5.8924   6.1166   6.3054   6.3903   6.5394   6.5431   6.8063
     7.0397   7.1640   7.2399   7.2906   7.3503   7.4815   7.5443   7.6006
     7.6934   7.9006   7.9139   8.0135   8.1156   8.1903   8.2235   8.3479
     8.4448   8.5428   8.6250   8.7179   8.8563   8.8849   9.0705   9.1439
     9.1681   9.3214   9.4163   9.4600   9.6782   9.7262   9.7424   9.8934
     9.9351   9.9465  10.0111  10.0191  10.1602  10.2909  10.3232  10.3272
    10.5073  10.5161  10.6594  10.7595  10.7791  10.9207  11.0130  11.0377
    11.2409  11.2976  11.3825  11.5063  11.5353  11.6592  11.7791  11.9228
    11.9511  12.1227  12.1740  12.1758  12.3135  12.4018  12.4189  12.4854
    12.5396  12.6585  12.6634  12.7923  13.0405  13.1371  13.1421  13.2310
    13.3555  13.3614  13.4516  13.5436  13.5976  13.6390  13.7043  13.7687
    13.8248  13.9476  14.0036  14.0911  14.1372  14.2839  14.3135  14.4257
    14.5444  14.5627  14.7671  14.8524  14.8730  14.8834  15.0735  15.0961
    15.1528  15.1704  15.2202  15.4132  15.4619  15.5266  15.5800  15.6165
    15.7655  15.8222  15.8891  15.8896  15.9386  16.0010  16.0889  16.1642
    16.1915  16.2770  16.3315  16.3729  16.5467  16.6755  16.7027  16.7840
    16.8181  16.9503  17.0104  17.0288  17.1374  17.1422  17.2405  17.3993
    17.4370  17.5217  17.5453  17.5576  17.5963  17.6310  17.6388  17.6565
    17.7574  17.7955  17.9966  18.0625  18.0888  18.2082  18.2626  18.3034
    18.3244  18.3826  18.4252  18.4409  18.5252  18.5509  18.5837  18.5881
    18.6409  18.7568  18.8078  18.8525  18.9085  18.9227  18.9688  19.0014
    19.0341  19.0917  19.1104  19.1191  19.2881  19.3188  19.3401  19.3838
    19.3877  19.4409  19.4552  19.6422  19.6673  19.7000  19.7376  19.7782
    19.9054  19.9190  20.0356  20.0712  20.2235  20.2321  20.3124  20.3157
    20.3285  20.4100  20.4207  20.4620  20.5242  20.6603  20.6723  20.7218
    20.7962  20.8199  20.8305  21.0128  21.0435  21.0723  21.1560  21.1858
    21.2343  21.2874  21.3281  21.3504  21.4024  21.4201  21.4984  21.5908

          k = 0.0000-0.4976 0.0000 ( 31948 PWs)   bands (ev):

   -54.9306 -54.9004 -54.8998 -54.8728 -54.8443 -54.8430 -54.7874 -54.7820
   -54.7570 -54.7509 -54.6642 -54.6569 -54.5770 -54.5737 -54.5693 -54.5674
   -54.5378 -54.5302 -54.2445 -54.1866 -53.9069 -53.8973 -53.5479 -53.5436
   -22.2464 -22.0908 -21.3466 -21.2923 -21.2497 -21.0637 -21.0331 -20.7373
   -20.6370 -20.5804 -20.4807 -20.3838 -20.2942 -20.2256 -20.1885 -20.1006
   -19.3558 -19.0579 -12.0346 -11.8445 -11.5629 -11.4331 -11.3907 -11.0711
   -11.0200 -10.5349 -10.1944  -9.9712  -9.8969  -9.8465  -9.6426  -9.6205
    -9.4781  -9.2042  -9.0377  -9.0175  -8.9485  -8.9429  -8.8047  -8.7316
    -8.5509  -8.4713  -8.4018  -8.3968  -8.3805  -8.2780  -8.2167  -7.9482
    -7.9214  -7.8065  -7.5983  -7.4802  -7.2861  -7.1339  -7.0833  -7.0610
    -6.7515  -6.7325  -6.6275  -6.5782  -6.5385  -6.3277  -6.2848  -6.1157
    -5.6845  -5.6811  -5.6055  -5.3987  -5.2221  -5.2005  -5.0703  -4.9402
    -4.8298  -4.7184  -4.6970  -4.6489  -4.4329  -4.2641  -4.1782  -4.1732
    -4.1661  -4.1054  -3.8500  -3.7813  -3.6235  -3.5324  -3.1850  -3.0443
    -2.7975  -2.7768  -2.7006  -2.6959  -2.6421  -2.6059  -2.1614  -2.0063
    -1.8109  -1.6660  -1.5456  -1.5399  -0.7039  -0.5497   0.1811   0.5556
     0.7007   0.8513   1.1240   1.1899   1.2950   1.4455   1.7689   1.7728
     3.4866   3.7748   3.9881   4.6863   4.8773   5.0468   5.2747   5.3949
     5.5182   5.6190   6.0811   6.1819   6.2043   6.3831   6.4186   6.5561
     6.8119   6.9671   7.2343   7.3202   7.4906   7.5773   7.6137   7.6743
     7.7345   7.8587   7.9989   8.0546   8.1997   8.4070   8.5920   8.6000
     8.6292   8.6378   8.6543   8.7686   8.7874   8.8324   8.8439   8.9831
     8.9903   9.0041   9.0118   9.2963   9.3490   9.4437   9.4761   9.6837
     9.7620   9.8112   9.8369   9.8581   9.9453  10.5856  10.6200  10.6883
    10.7445  10.8065  10.9351  11.0534  11.1718  11.2643  11.2780  11.3313
    11.3757  11.4442  11.5770  11.5863  11.8556  11.9767  12.0592  12.1163
    12.1410  12.2008  12.2177  12.3311  12.4198  12.5266  12.5358  12.6555
    12.6689  12.8007  12.8246  12.8661  12.8726  13.0664  13.1069  13.1669
    13.2195  13.2333  13.4645  13.4885  13.6159  13.6493  13.8280  13.8841
    13.9420  14.2216  14.2443  14.2773  14.3054  14.4815  14.6235  14.6693
    14.8939  14.9075  14.9360  14.9857  15.0410  15.0716  15.2515  15.3080
    15.3888  15.4340  15.4340  15.6444  15.6723  15.6758  15.7142  15.7173
    15.7251  15.8233  15.8451  15.8766  15.9254  15.9399  16.0813  16.1522
    16.1709  16.2337  16.2528  16.2842  16.3623  16.4055  16.4283  16.6212
    16.6313  16.6465  16.7238  16.7487  16.9678  17.0452  17.1289  17.1684
    17.2062  17.2570  17.3345  17.3552  17.4154  17.4368  17.5278  17.5331
    17.5449  17.5643  17.6269  17.6534  17.6665  17.7115  17.7691  17.8124
    17.8409  17.9777  17.9944  18.0203  18.1452  18.1551  18.2012  18.2350
    18.4132  18.5089  18.5356  18.5525  18.6120  18.6816  18.7292  18.7987
    18.8152  18.8436  18.9293  19.0011  19.0881  19.1516  19.1807  19.2823
    19.3015  19.4132  19.4576  19.4587  19.5500  19.6073  19.6174  19.7406
    19.7479  19.8076  19.8608  19.8983  19.9469  19.9989  20.0200  20.0985
    20.1029  20.1226  20.1772  20.2468  20.3187  20.3828  20.4066  20.4957
    20.5041  20.5512  20.6423  20.6713  20.6995  20.7498  20.7578  20.8579
    20.9740  20.9740  20.9886  21.0913  21.1871  21.2258  21.3536  21.3608

          k = 0.2500 0.0000 0.0000 ( 32013 PWs)   bands (ev):

   -54.9262 -54.8980 -54.8925 -54.8842 -54.8573 -54.8520 -54.7856 -54.7837
   -54.7562 -54.7535 -54.6623 -54.6593 -54.5774 -54.5721 -54.5704 -54.5685
   -54.5365 -54.5315 -54.2397 -54.1980 -53.9047 -53.9012 -53.5472 -53.5445
   -22.1810 -22.0535 -21.5592 -21.5147 -20.9512 -20.8867 -20.8338 -20.7278
   -20.6773 -20.6617 -20.6437 -20.4392 -20.3495 -20.1143 -20.0048 -19.9326
   -19.4683 -19.2069 -12.0125 -11.7130 -11.5783 -11.2290 -10.9735 -10.8523
   -10.7208 -10.6595 -10.3832 -10.3119 -10.1528  -9.8912  -9.8530  -9.7885
    -9.6675  -9.5920  -9.5128  -9.3580  -9.2206  -9.0715  -8.8934  -8.7854
    -8.5906  -8.4993  -8.4707  -8.3196  -8.2073  -8.1006  -8.0880  -7.8827
    -7.8206  -7.5730  -7.5120  -7.4360  -7.3463  -7.2252  -7.1170  -6.9827
    -6.9096  -6.8758  -6.7130  -6.5510  -6.5442  -6.2571  -6.1555  -5.9346
    -5.8093  -5.7023  -5.5718  -5.3676  -5.2696  -5.0997  -5.0691  -5.0187
    -4.8522  -4.8292  -4.6522  -4.5410  -4.3630  -4.3353  -4.1005  -3.9411
    -3.8156  -3.6796  -3.6290  -3.2188  -3.1773  -3.0873  -3.0796  -2.9803
    -2.9538  -2.8513  -2.7945  -2.6136  -2.5177  -2.4671  -2.2617  -1.9843
    -1.9698  -1.8965  -0.6687  -0.5991  -0.5282  -0.4233  -0.0480  -0.0479
     0.0420   0.4012   0.4205   0.8867   1.1024   1.1738   1.1776   1.5269
     2.7417   3.5339   4.2944   4.7600   4.8376   4.8501   5.5154   5.6884
     5.7245   5.9617   6.0192   6.3822   6.5002   6.6707   6.7733   6.8229
     7.0431   7.1340   7.1650   7.2685   7.4228   7.5572   7.5785   7.8112
     7.8414   7.8738   7.9738   8.0569   8.2359   8.2595   8.2982   8.4818
     8.4991   8.5039   8.6572   8.6824   8.8281   8.8505   9.0339   9.1846
     9.2203   9.4108   9.5408   9.5501   9.6640   9.7266   9.7638   9.8302
     9.8948   9.9989  10.0484  10.0919  10.1288  10.1891  10.2710  10.3107
    10.5855  10.6284  10.7066  10.7210  10.7559  10.8027  10.9655  10.9892
    11.0779  11.1633  11.2654  11.3556  11.4400  11.4409  11.5934  11.7151
    12.0066  12.0251  12.0968  12.1603  12.2704  12.3130  12.4097  12.5100
    12.5885  12.7725  12.8307  12.9307  13.0277  13.0747  13.1949  13.3003
    13.3327  13.4390  13.5419  13.5574  13.6306  13.6728  13.7135  13.7277
    13.8009  13.8216  13.9091  13.9171  13.9621  14.0396  14.2075  14.2292
    14.3094  14.3846  14.4769  14.5832  14.6562  14.8196  14.8372  14.9781
    15.0127  15.0841  15.1762  15.2599  15.2965  15.4958  15.5021  15.5765
    15.6591  15.7165  15.7419  15.8699  15.9405  16.0444  16.0831  16.1478
    16.2502  16.3872  16.4082  16.5642  16.5775  16.7899  16.7917  16.8628
    16.9548  17.0411  17.0976  17.1256  17.2605  17.3727  17.4768  17.5170
    17.5229  17.5505  17.5874  17.6238  17.6344  17.6423  17.6995  17.7349
    17.8776  17.9428  17.9796  18.0337  18.1301  18.1557  18.3428  18.4300
    18.4696  18.4946  18.5002  18.5420  18.5862  18.6561  18.6876  18.7305
    18.8014  18.8430  18.8767  18.9106  18.9476  18.9519  19.0104  19.0236
    19.0667  19.1396  19.1508  19.2540  19.2612  19.3007  19.3613  19.4007
    19.4809  19.5957  19.5962  19.6379  19.6916  19.7154  19.7411  19.8213
    19.8908  19.9066  19.9966  20.0280  20.1354  20.2165  20.2180  20.2875
    20.3546  20.4393  20.4944  20.4957  20.5946  20.6632  20.6769  20.7354
    20.8116  20.8734  20.9113  20.9311  20.9821  21.0190  21.0639  21.1743
    21.1837  21.2451  21.3111  21.3391  21.5378  21.5644  21.5731  21.6106

          k = 0.2500 0.2488 0.0000 ( 32025 PWs)   bands (ev):

   -54.9256 -54.8968 -54.8929 -54.8841 -54.8566 -54.8527 -54.7862 -54.7834
   -54.7563 -54.7529 -54.6629 -54.6588 -54.5769 -54.5715 -54.5714 -54.5686
   -54.5366 -54.5315 -54.2393 -54.1980 -53.9051 -53.9000 -53.5474 -53.5445
   -22.1734 -22.0537 -21.4114 -21.3557 -21.0726 -20.9411 -20.8929 -20.7279
   -20.6749 -20.6466 -20.4725 -20.3833 -20.3820 -20.1952 -20.1531 -20.1169
   -19.4630 -19.2082 -11.6718 -11.5490 -11.5105 -11.2917 -11.0996 -11.0019
   -10.8437 -10.5208 -10.3315 -10.1747 -10.0127  -9.8317  -9.7057  -9.6589
    -9.5563  -9.5096  -9.3461  -9.3297  -9.2182  -8.9580  -8.9297  -8.6775
    -8.6274  -8.5058  -8.4818  -8.4037  -8.2180  -8.1628  -8.0589  -8.0050
    -7.9047  -7.7585  -7.7170  -7.6386  -7.4931  -7.4648  -7.3367  -7.2230
    -7.1681  -7.0537  -6.8053  -6.5243  -6.5059  -6.1118  -5.9698  -5.9535
    -5.8682  -5.6446  -5.5418  -5.3652  -5.2960  -5.2108  -5.0471  -4.8802
    -4.6830  -4.6272  -4.5228  -4.4829  -4.3344  -4.1863  -4.0805  -3.9433
    -3.7469  -3.7389  -3.6966  -3.6650  -3.3653  -3.3243  -3.0029  -2.9270
    -2.9124  -2.8170  -2.6913  -2.6147  -2.5853  -2.5447  -2.1534  -2.0713
    -2.0075  -1.6793  -1.2521  -0.7738  -0.5313  -0.4871  -0.2720   0.1760
     0.4205   0.6495   0.7689   0.9674   1.1558   1.1616   1.3162   1.5149
     3.0839   3.7214   4.5108   4.9493   5.0236   5.0370   5.1326   5.5977
     5.7411   5.9462   6.0688   6.2130   6.3545   6.5384   6.6048   6.6512
     6.7628   6.7951   7.0262   7.1422   7.2628   7.3775   7.4777   7.5323
     7.6142   7.7284   7.8343   7.9912   8.1726   8.1889   8.2414   8.3847
     8.4049   8.5324   8.5458   8.6352   8.7715   8.8499   9.0304   9.1551
     9.3016   9.3232   9.4790   9.6123   9.6146   9.8040   9.9142   9.9303
    10.0552  10.1205  10.1893  10.2195  10.4083  10.5232  10.5538  10.6252
    10.6561  10.8176  10.8565  10.9509  11.1551  11.2215  11.3329  11.3721
    11.4413  11.5659  11.6596  11.7021  11.7611  11.8147  11.9078  11.9383
    12.0115  12.1586  12.2196  12.2447  12.3306  12.3986  12.4007  12.5322
    12.5821  12.6018  12.7153  12.7673  12.8711  12.9097  13.0687  13.1325
    13.1749  13.3376  13.4123  13.5125  13.6394  13.6397  13.7212  13.8136
    13.8325  13.9698  14.0247  14.0403  14.1280  14.3804  14.4333  14.4749
    14.4894  14.6236  14.6575  14.7220  14.8105  14.9686  15.1339  15.1610
    15.2595  15.2899  15.3310  15.3369  15.4276  15.5252  15.5741  15.6016
    15.6062  15.6711  15.7753  15.8122  15.8804  15.9666  15.9946  16.0205
    16.1448  16.2136  16.2143  16.3397  16.4332  16.4837  16.6192  16.6810
    16.7451  16.8899  16.8910  16.9617  17.0279  17.1097  17.1111  17.1725
    17.2463  17.2728  17.3211  17.3844  17.4126  17.4394  17.4595  17.4897
    17.5229  17.5855  17.6126  17.6181  17.6292  17.6399  17.7260  17.8020
    17.8667  17.9136  17.9931  18.0653  18.0669  18.1618  18.2109  18.3575
    18.4011  18.4118  18.4584  18.5150  18.5410  18.5662  18.7111  18.7228
    18.7604  18.8126  18.9347  19.0119  19.0164  19.1548  19.1681  19.3188
    19.3232  19.4386  19.4430  19.5408  19.5848  19.7850  19.8296  19.9078
    19.9231  20.0060  20.0406  20.0603  20.0974  20.1284  20.1897  20.2629
    20.3443  20.3496  20.4527  20.4644  20.6228  20.7075  20.7863  20.8444
    20.8492  20.9312  20.9645  21.0503  21.0596  21.1708  21.2101  21.2518
    21.3557  21.4503  21.4540  21.5566  21.5583  21.6267  21.7195  21.7702

          k = 0.2500-0.4976 0.0000 ( 32026 PWs)   bands (ev):

   -54.9249 -54.8949 -54.8941 -54.8840 -54.8552 -54.8540 -54.7869 -54.7831
   -54.7564 -54.7521 -54.6634 -54.6582 -54.5760 -54.5730 -54.5706 -54.5686
   -54.5368 -54.5315 -54.2389 -54.1980 -53.9056 -53.8988 -53.5476 -53.5445
   -22.1665 -22.0540 -21.1917 -21.1796 -21.0939 -20.9419 -20.9292 -20.7090
   -20.6890 -20.6694 -20.5443 -20.4811 -20.3670 -20.3402 -20.2976 -20.1145
   -19.4576 -19.2110 -11.7265 -11.5596 -11.2580 -11.1845 -11.1342 -10.8452
   -10.8092 -10.3250 -10.2290  -9.9392  -9.8642  -9.8045  -9.6618  -9.4719
    -9.4036  -9.3376  -9.2347  -9.2289  -9.1938  -9.0209  -8.9900  -8.9382
    -8.7387  -8.6704  -8.6206  -8.5844  -8.4914  -8.4188  -8.2337  -8.0640
    -8.0132  -7.8567  -7.7299  -7.5806  -7.5269  -7.5059  -7.4566  -7.2765
    -7.1240  -7.0348  -6.7668  -6.6144  -6.5491  -6.2193  -6.0518  -5.8941
    -5.8514  -5.8271  -5.6719  -5.5835  -5.1646  -5.0771  -4.9488  -4.8683
    -4.6424  -4.5876  -4.4372  -4.2055  -4.1945  -4.0348  -4.0102  -3.9797
    -3.8953  -3.7376  -3.6621  -3.5010  -3.4657  -3.3657  -3.2895  -2.9207
    -2.8396  -2.7986  -2.7934  -2.7591  -2.6705  -2.5314  -2.2666  -2.0377
    -1.9099  -1.5782  -1.5410  -1.2053  -0.5203  -0.4775   0.0902   0.2353
     0.3472   0.5840   0.8311   1.1522   1.1764   1.3159   1.4805   1.6853
     3.7768   4.0538   4.2777   5.0082   5.1362   5.2898   5.3597   5.5258
     5.6293   5.7043   5.7628   5.8788   5.9976   6.4193   6.4436   6.6843
     6.7557   6.8122   6.8709   7.0602   7.1953   7.3171   7.4374   7.4535
     7.5868   7.5908   7.7762   7.8143   7.9234   7.9364   8.0731   8.2130
     8.2754   8.3899   8.4437   8.7204   8.8355   8.8381   8.8854   9.0590
     9.0944   9.2198   9.3700   9.5333   9.5912   9.8006   9.9148   9.9774
    10.0975  10.4444  10.5496  10.6621  10.7597  10.8343  10.9931  11.0559
    11.1019  11.1511  11.2299  11.2674  11.2954  11.3834  11.4988  11.5448
    11.6168  11.6513  11.6956  11.8889  11.9724  12.0649  12.0860  12.1335
    12.2275  12.3404  12.3696  12.4169  12.4232  12.5686  12.7680  12.8204
    12.8225  12.8988  12.9184  12.9734  13.0466  13.1146  13.1926  13.2726
    13.3066  13.5057  13.5341  13.6588  13.6720  13.6964  13.8579  13.8595
    13.9425  13.9872  14.0530  14.0891  14.1352  14.2231  14.2664  14.3335
    14.4181  14.5434  14.5499  14.5539  14.6324  14.6856  14.7548  14.8682
    14.8942  14.9230  15.0743  15.1674  15.2956  15.3279  15.4002  15.5019
    15.5929  15.6427  15.6893  15.7331  15.7555  15.9312  15.9558  16.0482
    16.0547  16.1024  16.2003  16.2967  16.3051  16.3408  16.4064  16.4293
    16.5351  16.6059  16.6472  16.6825  16.6966  16.8237  16.8867  17.0377
    17.0658  17.1082  17.1898  17.2176  17.2289  17.3486  17.4093  17.4825
    17.4887  17.5214  17.5311  17.6041  17.6101  17.6460  17.6493  17.6687
    17.7269  17.7550  17.7635  17.9587  18.0736  18.0903  18.1339  18.1584
    18.2615  18.2769  18.2861  18.3932  18.4032  18.4218  18.5187  18.5505
    18.6020  18.6404  18.6441  18.8216  18.8991  18.9058  18.9519  19.0934
    19.1018  19.1880  19.2572  19.2810  19.2884  19.3773  19.3883  19.5096
    19.5450  19.5660  19.6950  19.8841  19.9386  20.0090  20.0552  20.2089
    20.2611  20.3707  20.3768  20.3962  20.5006  20.5014  20.5997  20.6653
    20.6746  20.7901  20.8847  20.8992  21.0124  21.0305  21.1273  21.1768
    21.1980  21.2665  21.4653  21.4804  21.5494  21.5785  21.6747  21.7519

          k =-0.5000 0.0000 0.0000 ( 31984 PWs)   bands (ev):

   -54.9079 -54.9079 -54.8812 -54.8811 -54.8742 -54.8741 -54.7850 -54.7850
   -54.7553 -54.7553 -54.6610 -54.6610 -54.5753 -54.5753 -54.5693 -54.5693
   -54.5341 -54.5341 -54.2219 -54.2216 -53.9032 -53.9030 -53.5463 -53.5460
   -22.0510 -22.0510 -21.2177 -21.2177 -21.1675 -21.1675 -20.7370 -20.7369
   -20.7266 -20.7265 -20.3978 -20.3978 -20.1950 -20.1950 -20.1672 -20.1672
   -19.4772 -19.4769 -11.1992 -11.1992 -11.0042 -11.0042 -10.8913 -10.8912
   -10.5362 -10.5362 -10.4647 -10.4647 -10.2576 -10.2576 -10.1575 -10.1575
    -9.7888  -9.7887  -9.5643  -9.5642  -9.1428  -9.1428  -8.8773  -8.8773
    -8.5533  -8.5533  -8.4280  -8.4280  -8.1308  -8.1308  -7.9025  -7.9025
    -7.7569  -7.7568  -7.6645  -7.6644  -7.4963  -7.4963  -7.4018  -7.4017
    -7.0599  -7.0598  -6.9251  -6.9251  -6.6013  -6.6013  -5.8827  -5.8826
    -5.6762  -5.6761  -5.4536  -5.4536  -5.0751  -5.0750  -4.9647  -4.9646
    -4.6665  -4.6665  -4.3828  -4.3827  -4.1763  -4.1763  -3.8105  -3.8105
    -3.6923  -3.6922  -3.4780  -3.4780  -2.9987  -2.9986  -2.9318  -2.9317
    -2.8756  -2.8755  -2.7739  -2.7738  -2.4081  -2.4080  -2.2809  -2.2808
    -1.9140  -1.9139  -0.4123  -0.4123  -0.2925  -0.2925   0.1436   0.1436
     0.2263   0.2263   0.3584   0.3584   0.5640   0.5641   1.2904   1.2904
     3.6980   3.6980   4.3921   4.3922   4.9652   4.9652   5.4022   5.4023
     5.5048   5.5048   6.2283   6.2283   6.3038   6.3038   6.5672   6.5672
     7.0902   7.0902   7.3959   7.3959   7.6277   7.6277   7.7013   7.7014
     8.0329   8.0330   8.3008   8.3008   8.4095   8.4095   8.5029   8.5029
     8.5881   8.5881   8.7758   8.7758   8.8743   8.8743   9.0694   9.0694
     9.1086   9.1086   9.2574   9.2574   9.3758   9.3758   9.4701   9.4701
     9.7603   9.7603   9.9689   9.9689  10.1741  10.1741  10.6056  10.6056
    10.6631  10.6631  10.7853  10.7853  11.1871  11.1871  11.3746  11.3746
    11.5180  11.5180  11.5950  11.5950  11.6692  11.6692  11.8738  11.8738
    11.9741  11.9741  12.2622  12.2622  12.4097  12.4097  12.5322  12.5322
    12.6831  12.6831  12.7994  12.7994  12.9058  12.9058  13.0299  13.0299
    13.1447  13.1447  13.2746  13.2746  13.5038  13.5038  13.6154  13.6154
    13.8174  13.8175  13.9122  13.9122  14.2161  14.2161  14.3360  14.3360
    14.4714  14.4714  14.6212  14.6212  14.9563  14.9563  15.1175  15.1175
    15.4705  15.4705  15.5823  15.5823  15.6649  15.6649  15.7003  15.7003
    15.8017  15.8017  15.9748  15.9748  16.0657  16.0657  16.1313  16.1313
    16.1870  16.1870  16.2744  16.2744  16.4922  16.4922  16.5907  16.5907
    16.6955  16.6955  16.8621  16.8621  17.0739  17.0739  17.1702  17.1702
    17.3208  17.3208  17.5142  17.5142  17.5523  17.5523  17.6148  17.6149
    17.6237  17.6237  17.6832  17.6832  17.9001  17.9001  17.9705  17.9705
    18.1701  18.1701  18.2242  18.2242  18.3975  18.3975  18.5233  18.5236
    18.5923  18.5923  18.6781  18.6781  18.7491  18.7491  18.8248  18.8248
    18.9476  18.9476  19.0764  19.0764  19.2042  19.2042  19.3525  19.3525
    19.4026  19.4026  19.4598  19.4598  19.5223  19.5223  19.6093  19.6093
    19.7992  19.7992  19.9057  19.9057  19.9690  19.9690  20.0453  20.0453
    20.1232  20.1232  20.2422  20.2422  20.4670  20.4670  20.5188  20.5188
    20.5259  20.5259  20.5662  20.5662  20.8053  20.8053  20.8790  20.8790
    20.9732  20.9732  21.1113  21.1113  21.2338  21.2338  21.4534  21.4534

          k =-0.5000 0.2488 0.0000 ( 32052 PWs)   bands (ev):

   -54.9076 -54.9076 -54.8799 -54.8799 -54.8750 -54.8749 -54.7851 -54.7851
   -54.7550 -54.7549 -54.6611 -54.6610 -54.5746 -54.5746 -54.5701 -54.5700
   -54.5342 -54.5342 -54.2217 -54.2214 -53.9028 -53.9026 -53.5464 -53.5461
   -22.0490 -22.0490 -21.1184 -21.1177 -21.0445 -21.0445 -20.7526 -20.7419
   -20.7229 -20.7206 -20.5101 -20.4970 -20.3565 -20.3564 -20.1818 -20.1764
   -19.4767 -19.4763 -11.1305 -11.1286 -10.8273 -10.8044 -10.6917 -10.6801
   -10.5658 -10.5550 -10.4021 -10.3845 -10.2509 -10.2435 -10.0552 -10.0238
    -9.8295  -9.7857  -9.5600  -9.5292  -9.1928  -9.1830  -8.7128  -8.6934
    -8.6511  -8.6298  -8.4624  -8.4445  -8.3823  -8.3797  -7.9294  -7.9270
    -7.9126  -7.8970  -7.8443  -7.8354  -7.7044  -7.6115  -7.4386  -7.3976
    -7.1735  -7.1557  -6.8106  -6.7804  -6.6108  -6.5864  -6.1068  -6.1065
    -5.8558  -5.7277  -5.4946  -5.4269  -5.3332  -5.3289  -4.6707  -4.6397
    -4.3937  -4.3207  -4.2022  -4.1895  -4.1486  -4.1424  -3.8479  -3.8312
    -3.6437  -3.6227  -3.4461  -3.4252  -3.1402  -3.0980  -3.0723  -3.0690
    -2.8868  -2.8853  -2.7406  -2.7151  -2.5001  -2.4994  -2.4103  -2.4096
    -1.7598  -1.7586  -0.5798  -0.5701  -0.3320  -0.3312  -0.0604  -0.0600
     0.0929   0.0929   0.5280   0.5320   0.9399   0.9415   1.3870   1.3882
     3.9564   3.9658   4.5415   4.5424   5.1818   5.1849   5.5837   5.5935
     5.6870   5.6922   5.7637   5.7968   6.3159   6.3261   6.5545   6.5670
     6.7479   6.7494   7.0244   7.0387   7.2906   7.3058   7.4607   7.4834
     7.5917   7.6028   7.8227   7.8386   8.0570   8.0965   8.1459   8.1497
     8.3898   8.3984   8.6801   8.7083   8.9174   8.9256   9.0777   9.0920
     9.3123   9.3175   9.4181   9.4363   9.6892   9.6942  10.0121  10.0281
    10.2608  10.2871  10.5024  10.5234  10.7269  10.7276  10.8258  10.8377
    10.8903  10.9013  11.1569  11.1665  11.2276  11.2324  11.5377  11.5669
    11.7312  11.7443  11.8041  11.8544  12.0089  12.0494  12.0645  12.0897
    12.2344  12.2617  12.4721  12.4834  12.5054  12.5579  12.6493  12.6678
    12.8511  12.8525  12.9531  12.9588  13.0695  13.1006  13.1355  13.1507
    13.2141  13.2251  13.4264  13.4296  13.4931  13.5211  13.7551  13.7608
    13.9346  13.9428  14.0187  14.0325  14.1448  14.1469  14.1769  14.2237
    14.3048  14.3278  14.4463  14.4503  14.5550  14.5734  14.7147  14.7295
    14.8001  14.8003  15.0331  15.0732  15.2700  15.3083  15.5010  15.5017
    15.6700  15.6820  15.7556  15.7583  15.8970  15.9174  15.9784  15.9920
    16.1368  16.1369  16.1848  16.2103  16.3457  16.3790  16.5040  16.5126
    16.5881  16.5945  16.6762  16.6805  16.7668  16.8511  17.0528  17.0690
    17.0879  17.1249  17.3358  17.3433  17.3623  17.3712  17.4820  17.5108
    17.5268  17.5294  17.5844  17.5981  17.6367  17.6407  17.6456  17.6594
    17.9077  17.9210  17.9463  17.9553  18.0249  18.0417  18.1088  18.1380
    18.2091  18.2303  18.3673  18.3693  18.4965  18.5186  18.5536  18.6168
    18.6809  18.6857  18.7704  18.8456  18.8618  18.8854  19.0884  19.1084
    19.2238  19.2329  19.2749  19.2923  19.4888  19.5129  19.5659  19.6030
    19.7012  19.7187  19.7450  19.8050  19.9208  19.9777  20.0154  20.0269
    20.2354  20.2454  20.3391  20.3651  20.4997  20.5250  20.6327  20.6945
    20.8309  20.8826  20.9651  20.9809  21.1455  21.1827  21.2401  21.2426
    21.3897  21.4069  21.5853  21.5898  21.6872  21.7023  21.7438  21.7709

          k =-0.5000-0.4976 0.0000 ( 31956 PWs)   bands (ev):

   -54.9072 -54.9072 -54.8777 -54.8777 -54.8767 -54.8767 -54.7853 -54.7853
   -54.7546 -54.7546 -54.6611 -54.6610 -54.5735 -54.5735 -54.5711 -54.5711
   -54.5343 -54.5343 -54.2214 -54.2212 -53.9025 -53.9022 -53.5465 -53.5462
   -22.0470 -22.0470 -20.9113 -20.9113 -20.8510 -20.8510 -20.7478 -20.7477
   -20.7288 -20.7288 -20.6759 -20.6759 -20.6295 -20.6295 -20.1864 -20.1864
   -19.4764 -19.4761 -11.1625 -11.1625 -10.7490 -10.7490 -10.5805 -10.5805
   -10.4923 -10.4923 -10.1640 -10.1640  -9.8850  -9.8850  -9.8363  -9.8363
    -9.5706  -9.5706  -9.4403  -9.4403  -9.3247  -9.3247  -9.0896  -9.0896
    -8.9411  -8.9411  -8.7126  -8.7125  -8.4725  -8.4725  -8.2723  -8.2723
    -8.0907  -8.0907  -7.7712  -7.7712  -7.6774  -7.6774  -7.2336  -7.2336
    -6.9787  -6.9787  -6.6686  -6.6685  -6.6112  -6.6111  -6.3515  -6.3514
    -6.1981  -6.1980  -5.5317  -5.5316  -5.3330  -5.3330  -4.3270  -4.3270
    -4.2964  -4.2964  -4.1261  -4.1261  -3.7988  -3.7988  -3.7737  -3.7737
    -3.6997  -3.6997  -3.4133  -3.4132  -3.2062  -3.2062  -3.1739  -3.1739
    -2.9356  -2.9356  -2.6828  -2.6828  -2.5649  -2.5647  -2.4952  -2.4952
    -1.6567  -1.6566  -0.8955  -0.8955  -0.4274  -0.4274  -0.2382  -0.2382
     0.1309   0.1310   0.8515   0.8515   1.0309   1.0309   1.5275   1.5275
     4.4618   4.4618   4.7674   4.7674   4.9973   4.9973   5.7700   5.7700
     5.8464   5.8464   5.9849   5.9849   6.1991   6.1991   6.2971   6.2971
     6.4454   6.4454   6.5775   6.5775   7.0513   7.0513   7.0861   7.0861
     7.3647   7.3647   7.4881   7.4881   7.9153   7.9153   8.2322   8.2322
     8.3455   8.3455   8.5068   8.5068   8.8714   8.8714   9.2673   9.2673
     9.3353   9.3354   9.5249   9.5249   9.6878   9.6878  10.0299  10.0299
    10.3301  10.3301  10.7176  10.7176  10.8728  10.8728  11.1931  11.1931
    11.4231  11.4231  11.7209  11.7209  11.9178  11.9178  11.9765  11.9765
    12.0771  12.0771  12.3656  12.3656  12.5037  12.5037  12.5591  12.5591
    12.7004  12.7005  12.7651  12.7651  12.8491  12.8491  13.0021  13.0021
    13.1302  13.1302  13.1544  13.1544  13.2056  13.2056  13.3804  13.3804
    13.4159  13.4159  13.4981  13.4981  13.5529  13.5529  13.6534  13.6534
    13.6730  13.6730  13.7745  13.7745  13.8904  13.8904  13.9436  13.9436
    14.1742  14.1742  14.2532  14.2532  14.4806  14.4806  14.6451  14.6451
    14.6975  14.6975  14.7788  14.7788  14.8491  14.8491  14.9920  14.9920
    15.0963  15.0963  15.1583  15.1583  15.3050  15.3050  15.3373  15.3374
    15.4537  15.4537  15.5660  15.5660  15.7621  15.7621  16.0353  16.0353
    16.3101  16.3101  16.3922  16.3922  16.4850  16.4850  16.5650  16.5650
    16.8895  16.8895  16.9663  16.9663  17.2133  17.2133  17.3954  17.3954
    17.5163  17.5163  17.5953  17.5953  17.6231  17.6231  17.7135  17.7135
    17.7881  17.7881  17.8197  17.8197  17.9820  17.9820  18.1543  18.1543
    18.3678  18.3678  18.5324  18.5324  18.5516  18.5519  18.6129  18.6129
    18.9224  18.9224  19.0562  19.0562  19.1680  19.1680  19.2404  19.2404
    19.4834  19.4835  19.6892  19.6892  19.8361  19.8361  19.9532  19.9532
    20.0909  20.0909  20.1407  20.1407  20.2687  20.2687  20.3921  20.3921
    20.4523  20.4524  20.4584  20.4584  20.5878  20.5878  20.7595  20.7595
    20.9198  20.9198  20.9459  20.9459  20.9911  20.9911  21.0979  21.0979
    21.2145  21.2145  21.2951  21.2951  21.3626  21.3626  21.4987  21.4987

          k =-0.2500 0.2488 0.0000 ( 32025 PWs)   bands (ev):

   -54.9256 -54.8969 -54.8929 -54.8841 -54.8566 -54.8527 -54.7862 -54.7834
   -54.7563 -54.7528 -54.6628 -54.6588 -54.5769 -54.5715 -54.5715 -54.5685
   -54.5366 -54.5315 -54.2393 -54.1980 -53.9051 -53.9000 -53.5474 -53.5445
   -22.1734 -22.0538 -21.4112 -21.3557 -21.0733 -20.9426 -20.8929 -20.7182
   -20.6783 -20.6470 -20.4815 -20.3835 -20.3763 -20.1987 -20.1537 -20.1132
   -19.4630 -19.2083 -11.6693 -11.5541 -11.5116 -11.2912 -11.0888 -11.0070
   -10.8536 -10.5136 -10.3304 -10.1771  -9.9892  -9.8313  -9.7447  -9.6563
    -9.5432  -9.5293  -9.3402  -9.3243  -9.2066  -8.9569  -8.8538  -8.7415
    -8.6773  -8.5283  -8.4732  -8.3767  -8.2101  -8.1344  -8.0171  -7.9972
    -7.9037  -7.8753  -7.6947  -7.6003  -7.4767  -7.4728  -7.3901  -7.2041
    -7.1698  -7.0319  -6.8055  -6.5305  -6.5143  -6.1799  -5.9463  -5.8464
    -5.8145  -5.6898  -5.5646  -5.4298  -5.3071  -5.2147  -4.9835  -4.8975
    -4.6962  -4.6298  -4.5371  -4.4916  -4.2583  -4.2148  -4.0567  -3.9359
    -3.7852  -3.7645  -3.6957  -3.6677  -3.3353  -3.3253  -3.0350  -2.9258
    -2.9031  -2.8185  -2.6832  -2.6173  -2.6041  -2.5067  -2.1515  -2.0726
    -2.0080  -1.6811  -1.2627  -0.7732  -0.5334  -0.4867  -0.2698   0.1759
     0.4199   0.6482   0.7731   0.9691   1.1536   1.1620   1.3153   1.5151
     3.0826   3.7202   4.5120   4.9527   5.0359   5.0435   5.1544   5.5977
     5.7450   5.9396   6.0695   6.1910   6.3604   6.4945   6.5845   6.6442
     6.7665   6.8048   7.0241   7.1167   7.2555   7.4085   7.4702   7.5278
     7.6416   7.7458   7.8099   8.0036   8.1636   8.2059   8.2634   8.3707
     8.3905   8.5263   8.5427   8.6300   8.7683   8.8843   9.0339   9.1679
     9.3014   9.3269   9.4596   9.5926   9.6205   9.7865   9.9094   9.9242
    10.0760  10.1228  10.1905  10.2282  10.4107  10.5150  10.5219  10.6249
    10.6543  10.8264  10.8608  10.9718  11.1554  11.2364  11.3300  11.4018
    11.4329  11.5677  11.6654  11.6985  11.7714  11.8142  11.9236  11.9534
    12.0133  12.1676  12.2124  12.2569  12.3029  12.4015  12.4445  12.5255
    12.5815  12.6044  12.7193  12.8081  12.9033  12.9478  13.0497  13.1062
    13.1781  13.2813  13.4056  13.5188  13.6290  13.6474  13.7036  13.8331
    13.8346  13.8983  14.0155  14.0753  14.1254  14.3358  14.3743  14.4524
    14.4754  14.6245  14.6798  14.7528  14.8534  14.8953  15.0859  15.1433
    15.2186  15.2476  15.3320  15.3540  15.4299  15.5021  15.5786  15.6088
    15.6121  15.6672  15.7697  15.8001  15.8689  15.9402  16.0237  16.0244
    16.1754  16.1790  16.2454  16.3394  16.3939  16.4841  16.6048  16.7110
    16.7611  16.8513  16.8838  17.0187  17.0528  17.1194  17.1246  17.1738
    17.2439  17.2543  17.3289  17.3847  17.4276  17.4391  17.4908  17.4933
    17.5193  17.6053  17.6095  17.6245  17.6289  17.6460  17.7121  17.7926
    17.7996  17.8818  18.0471  18.0826  18.1246  18.1968  18.2037  18.3763
    18.4059  18.4118  18.5064  18.5378  18.5510  18.6213  18.7122  18.7168
    18.7648  18.8906  18.9346  19.0352  19.0442  19.1269  19.1690  19.2954
    19.3582  19.4034  19.4135  19.5714  19.6363  19.8103  19.8532  19.8574
    19.8951  19.9396  20.0221  20.0618  20.0949  20.1296  20.2479  20.2688
    20.3042  20.3265  20.5329  20.5340  20.6710  20.6907  20.7737  20.8168
    20.8200  20.9214  20.9239  21.0101  21.0547  21.2154  21.2396  21.2525
    21.3435  21.4368  21.4479  21.5390  21.5862  21.6221  21.6574  21.7771

     the Fermi energy is    -1.9980 ev

!    total energy              =   -2246.63060796 Ry
     Harris-Foulkes estimate   =   -2246.63060836 Ry
     estimated scf accuracy    <       0.00000049 Ry

     The total energy is the sum of the following terms:

     one-electron contribution =  -22779.54723434 Ry
     hartree contribution      =   11432.43683979 Ry
     xc contribution           =    -565.23813103 Ry
     ewald contribution        =    9663.68434580 Ry
     Hubbard energy            =       2.03479148 Ry
     smearing contrib. (-TS)   =      -0.00121965 Ry

     convergence has been achieved in  30 iterations

     Forces acting on atoms (Ry/au):


     negative rho (up, down):  0.157E+01 0.000E+00
     atom    1 type  1   force =    -0.00862038   -0.00589249   -0.00212443
     atom    2 type  1   force =     0.00008978    0.00270173    0.00389213
     atom    3 type  2   force =    -0.00052162    0.00347936   -0.00580271
     atom    4 type  2   force =     0.01113506    0.00193576    0.00042817
     atom    5 type  1   force =     0.00100770   -0.00116539   -0.00370815
     atom    6 type  1   force =     0.00013004    0.00119709    0.00253289
     atom    7 type  1   force =     0.00002500    0.00345880   -0.00393130
     atom    8 type  1   force =    -0.00416718   -0.00695246    0.00595534
     atom    9 type  2   force =     0.00187661    0.00097427   -0.01188069
     atom   10 type  2   force =    -0.00003511   -0.00147819    0.00027441
     atom   11 type  1   force =     0.00000206   -0.00355548    0.00334509
     atom   12 type  1   force =     0.00009464    0.00434270    0.00238438
     atom   13 type  1   force =    -0.00115275   -0.00028621    0.00346956
     atom   14 type  1   force =    -0.00861092   -0.00589029   -0.00211270
     atom   15 type  1   force =     0.00008990    0.00270464    0.00390175
     atom   16 type  2   force =    -0.00054967    0.00347943   -0.00580275
     atom   17 type  2   force =     0.01113531    0.00193618    0.00044253
     atom   18 type  1   force =     0.00098782   -0.00116534   -0.00370778
     atom   19 type  1   force =     0.00010498    0.00119718    0.00253288
     atom   20 type  1   force =     0.00002518    0.00345697   -0.00389019
     atom   21 type  1   force =    -0.00416732   -0.00695311    0.00593104
     atom   22 type  2   force =     0.00191080    0.00097472   -0.01188068
     atom   23 type  2   force =    -0.00003454   -0.00147500    0.00023625
     atom   24 type  1   force =    -0.00001475   -0.00355559    0.00334497
     atom   25 type  1   force =     0.00007067    0.00434292    0.00238430
     atom   26 type  1   force =    -0.00115266   -0.00028550    0.00355916
     atom   27 type  3   force =    -0.00001814    0.00056196    0.00323222
     atom   28 type  3   force =    -0.00001816    0.00056098    0.00323325
     atom   29 type  3   force =     0.00018749    0.00067499    0.00188102
     atom   30 type  3   force =     0.00019016    0.00067539    0.00188006

     Total force =     0.024882     Total SCF correction =     0.002851
     SCF correction compared to forces is large: reduce conv_thr to get better values

     BFGS Geometry Optimization

     number of scf cycles    =   1
     number of bfgs steps    =   0

     energy   new            =   -2246.6306079621 Ry

     new trust radius        =       0.0118806924 bohr
     new conv_thr            =       0.0000010000 Ry


ATOMIC_POSITIONS (crystal)
O0       0.000000000   0.000000000   0.376887563    0   0   1
O0       0.000000000   0.500000000   0.399247747    0   0   1
Pt1      0.250000000   0.500000000   0.448914088    0   0   1
Pt1      0.000000000   0.000000000   0.451978553    0   0   1
O0       0.250000000   0.810000000   0.442695928    0   0   1
O0       0.250000000   0.190000000   0.459090596    0   0   1
O0       0.000000000   0.500000000   0.495331470    0   0   1
O0       0.000000000   0.000000000   0.529488961    0   0   1
Pt1      0.250000000   0.000000000   0.575882677    0   0   1
Pt1      0.000000000   0.500000000   0.574265481    0   0   1
O0       0.250000000   0.690000000   0.583146820    0   0   1
O0       0.250000000   0.310000000   0.583697629    0   0   1
O0       0.000000000   0.000000000   0.621679306    0   0   1
O0       0.500000000   0.000000000   0.376887798    0   0   1
O0       0.500000000   0.500000000   0.399247940    0   0   1
Pt1      0.750000000   0.500000000   0.448914087    0   0   1
Pt1      0.500000000   0.000000000   0.451978840    0   0   1
O0       0.750000000   0.810000000   0.442695935    0   0   1
O0       0.750000000   0.190000000   0.459090596    0   0   1
O0       0.500000000   0.500000000   0.495332291    0   0   1
O0       0.500000000   0.000000000   0.529488476    0   0   1
Pt1      0.750000000   0.000000000   0.575882677    0   0   1
Pt1      0.500000000   0.500000000   0.574264719    0   0   1
O0       0.750000000   0.690000000   0.583146818    0   0   1
O0       0.750000000   0.310000000   0.583697628    0   0   1
O0       0.500000000   0.000000000   0.621681096    0   0   1
H2      -0.000051486   0.640105812   0.383614565
H2       0.499948513   0.640105732   0.383614586
H2       0.144085358   0.031435026   0.367007574
H2       0.644085577   0.031435059   0.367007555


     Check: negative starting charge=   -1.537272
     NEW-OLD atomic charge density approx. for the potential

     Check: negative/imaginary core charge=   -0.000003    0.000000
     Check: negative starting charge=   -1.537045

     negative rho (up, down):  0.157E+01 0.000E+00
 Atomic wfc used for LDA+U Projector are NOT orthogonalized

     total cpu time spent up to now is     6287.2 secs

     per-process dynamical memory:   447.1 Mb

     Self-consistent Calculation

     iteration #  1     ecut=    40.00 Ry     beta=0.70
     Davidson diagonalization with overlap
     ethr =  1.00E-06,  avg # of iterations =  3.2
 --- enter write_ns ---
 LDA+U parameters:
U( 2)     =  8.00000000
alpha( 2) =  0.00000000
atom    3   Tr[ns(na)] =   8.83983
    eigenvalues: 
  0.719  0.730  0.988  0.990  0.993
    eigenvectors:
  0.173  0.000  0.792  0.000  0.035
  0.000  1.000  0.000  0.000  0.000
  0.003  0.000  0.053  0.000  0.944
  0.824  0.000  0.155  0.000  0.021
  0.000  0.000  0.000  1.000  0.000
    occupations:
  0.941 -0.000  0.005 -0.102  0.000
 -0.000  0.730  0.000  0.000 -0.002
  0.005  0.000  0.992  0.014 -0.000
 -0.102  0.000  0.014  0.766  0.000
  0.000 -0.002 -0.000  0.000  0.990
atom    4   Tr[ns(na)] =   8.81620
    eigenvalues: 
  0.709  0.733  0.987  0.989  0.990
    eigenvectors:
  0.000  0.986  0.010  0.002  0.002
  0.009  0.000  0.028  0.908  0.055
  0.000  0.004  0.701  0.000  0.296
  0.000  0.010  0.261  0.082  0.647
  0.991  0.000  0.000  0.008  0.000
    occupations:
  0.736 -0.004 -0.015  0.025 -0.001
 -0.004  0.987  0.000  0.000  0.026
 -0.015  0.000  0.987  0.003  0.000
  0.025  0.000  0.003  0.987  0.000
 -0.001  0.026  0.000  0.000  0.711
atom    9   Tr[ns(na)] =   8.80975
    eigenvalues: 
  0.734  0.740  0.969  0.973  0.990
    eigenvectors:
  0.001  0.140  0.000  0.000  0.859
  0.995  0.005  0.000  0.000  0.000
  0.000  0.000  0.000  1.000  0.000
  0.004  0.855  0.000  0.000  0.141
  0.000  0.000  1.000  0.000  0.000
    occupations:
  0.954  0.000 -0.001 -0.087  0.000
  0.000  0.734  0.000  0.000 -0.000
 -0.001  0.000  0.973 -0.002  0.000
 -0.087  0.000 -0.002  0.775  0.000
  0.000 -0.000  0.000  0.000  0.969
atom   10   Tr[ns(na)] =   8.89315
    eigenvalues: 
  0.666  0.824  0.977  0.989  0.990
    eigenvectors:
  0.000  0.972  0.000  0.027  0.000
  0.000  0.000  1.000  0.000  0.000
  0.000  0.000  0.000  0.002  0.997
  0.000  0.027  0.000  0.970  0.002
  1.000  0.000  0.000  0.000  0.000
    occupations:
  0.828  0.000  0.002  0.027  0.000
  0.000  0.977 -0.000  0.000 -0.001
  0.002 -0.000  0.990 -0.000 -0.000
  0.027  0.000 -0.000  0.985 -0.000
  0.000 -0.001 -0.000 -0.000  0.666
atom   16   Tr[ns(na)] =   8.83983
    eigenvalues: 
  0.719  0.730  0.988  0.990  0.993
    eigenvectors:
  0.173  0.000  0.792  0.000  0.035
  0.000  1.000  0.000  0.000  0.000
  0.003  0.000  0.053  0.000  0.944
  0.824  0.000  0.155  0.000  0.021
  0.000  0.000  0.000  1.000  0.000
    occupations:
  0.941 -0.000  0.005 -0.102  0.000
 -0.000  0.730  0.000  0.000 -0.002
  0.005  0.000  0.992  0.014 -0.000
 -0.102  0.000  0.014  0.766  0.000
  0.000 -0.002 -0.000  0.000  0.990
atom   17   Tr[ns(na)] =   8.81641
    eigenvalues: 
  0.709  0.733  0.987  0.989  0.990
    eigenvectors:
  0.000  0.986  0.010  0.002  0.002
  0.009  0.000  0.029  0.909  0.053
  0.000  0.004  0.691  0.000  0.305
  0.000  0.010  0.270  0.080  0.640
  0.991  0.000  0.000  0.008  0.000
    occupations:
  0.736 -0.004 -0.015  0.025 -0.001
 -0.004  0.987  0.000  0.000  0.026
 -0.015  0.000  0.987  0.003  0.000
  0.025  0.000  0.003  0.987  0.000
 -0.001  0.026  0.000  0.000  0.711
atom   22   Tr[ns(na)] =   8.80975
    eigenvalues: 
  0.734  0.740  0.969  0.973  0.990
    eigenvectors:
  0.001  0.140  0.000  0.000  0.859
  0.992  0.008  0.000  0.000  0.000
  0.000  0.000  0.001  0.999  0.000
  0.007  0.852  0.000  0.000  0.141
  0.000  0.000  0.999  0.001  0.000
    occupations:
  0.954  0.000 -0.001 -0.087  0.000
  0.000  0.734  0.000  0.000 -0.000
 -0.001  0.000  0.973 -0.002 -0.000
 -0.087  0.000 -0.002  0.775  0.000
  0.000 -0.000 -0.000  0.000  0.969
atom   23   Tr[ns(na)] =   8.89361
    eigenvalues: 
  0.666  0.824  0.977  0.989  0.990
    eigenvectors:
  0.000  0.972  0.000  0.027  0.000
  0.000  0.000  1.000  0.000  0.000
  0.000  0.000  0.000  0.002  0.997
  0.000  0.027  0.000  0.970  0.002
  1.000  0.000  0.000  0.000  0.000
    occupations:
  0.828  0.000  0.002  0.027  0.000
  0.000  0.977 -0.000  0.000 -0.001
  0.002 -0.000  0.990 -0.000 -0.000
  0.027  0.000 -0.000  0.985 -0.000
  0.000 -0.001 -0.000 -0.000  0.666
N of occupied +U levels =  70.7185260
 --- exit write_ns ---

     negative rho (up, down):  0.157E+01 0.000E+00

     total cpu time spent up to now is     6539.4 secs

     total energy              =   -2246.63043277 Ry
     Harris-Foulkes estimate   =   -2246.63102805 Ry
     estimated scf accuracy    <       0.00077234 Ry

     iteration #  2     ecut=    40.00 Ry     beta=0.70
     Davidson diagonalization with overlap
     ethr =  3.22E-07,  avg # of iterations =  5.4

     negative rho (up, down):  0.157E+01 0.000E+00

     total cpu time spent up to now is     6759.6 secs

     total energy              =   -2246.62715236 Ry
     Harris-Foulkes estimate   =   -2246.63547810 Ry
     estimated scf accuracy    <       0.07685611 Ry

     iteration #  3     ecut=    40.00 Ry     beta=0.70
     Davidson diagonalization with overlap
     ethr =  3.22E-07,  avg # of iterations =  5.1

     negative rho (up, down):  0.157E+01 0.000E+00

     total cpu time spent up to now is     6982.7 secs

     total energy              =   -2246.63088661 Ry
     Harris-Foulkes estimate   =   -2246.63100301 Ry
     estimated scf accuracy    <       0.00035130 Ry

     iteration #  4     ecut=    40.00 Ry     beta=0.70
     Davidson diagonalization with overlap
     ethr =  1.46E-07,  avg # of iterations =  1.1

     negative rho (up, down):  0.157E+01 0.000E+00

[...]
     5.4997   5.4997   6.2268   6.2268   6.3015   6.3015   6.5485   6.5485
     7.0405   7.0405   7.3910   7.3910   7.5944   7.5944   7.6839   7.6839
     8.0188   8.0188   8.2757   8.2757   8.3952   8.3952   8.4794   8.4794
     8.5880   8.5880   8.7709   8.7709   8.8697   8.8697   9.0572   9.0572
     9.1107   9.1107   9.2629   9.2629   9.3707   9.3707   9.4590   9.4590
     9.7689   9.7689   9.9713   9.9713  10.1657  10.1657  10.6086  10.6086
    10.6668  10.6669  10.7772  10.7772  11.1626  11.1626  11.3684  11.3684
    11.5196  11.5196  11.6085  11.6085  11.6788  11.6788  11.8735  11.8735
    11.9585  11.9585  12.2642  12.2642  12.4144  12.4144  12.5314  12.5314
    12.6798  12.6799  12.7897  12.7897  12.9054  12.9054  13.0251  13.0251
    13.1308  13.1308  13.2803  13.2803  13.5027  13.5027  13.6122  13.6122
    13.8136  13.8137  13.9204  13.9204  14.2247  14.2247  14.3589  14.3589
    14.4841  14.4841  14.6165  14.6165  14.9608  14.9608  15.1269  15.1269
    15.4775  15.4775  15.5865  15.5865  15.6741  15.6741  15.7055  15.7055
    15.8019  15.8019  15.9810  15.9810  16.0685  16.0685  16.1398  16.1398
    16.2033  16.2033  16.2843  16.2843  16.4980  16.4980  16.6036  16.6036
    16.7220  16.7220  16.8745  16.8745  17.0726  17.0726  17.1747  17.1747
    17.3188  17.3188  17.5074  17.5074  17.5350  17.5350  17.5944  17.5944
    17.5995  17.5995  17.6840  17.6840  17.9133  17.9133  17.9646  17.9646
    18.1656  18.1656  18.2162  18.2162  18.3983  18.3983  18.5258  18.5258
    18.5796  18.5796  18.6883  18.6883  18.7450  18.7450  18.8260  18.8260
    18.9457  18.9457  19.0794  19.0794  19.2034  19.2034  19.3575  19.3575
    19.3858  19.3858  19.4398  19.4398  19.5140  19.5140  19.6116  19.6116
    19.7999  19.7999  19.8963  19.8964  19.9665  19.9665  20.0479  20.0479
    20.1306  20.1306  20.2482  20.2482  20.4704  20.4704  20.5135  20.5135
    20.5283  20.5283  20.5684  20.5684  20.8100  20.8100  20.8878  20.8878
    20.9808  20.9808  21.1221  21.1221  21.2435  21.2435  21.4530  21.4530

          k =-0.5000 0.2488 0.0000 ( 32052 PWs)   bands (ev):

   -54.9191 -54.9191 -54.9165 -54.9165 -54.8921 -54.8921 -54.7910 -54.7909
   -54.7870 -54.7870 -54.6912 -54.6912 -54.6024 -54.6024 -54.5756 -54.5756
   -54.5392 -54.5392 -54.2130 -54.2129 -53.8938 -53.8938 -53.5519 -53.5518
   -22.1263 -22.1262 -21.1503 -21.1494 -21.0402 -21.0402 -20.7889 -20.7736
   -20.7516 -20.7460 -20.5466 -20.5317 -20.3591 -20.3590 -20.2115 -20.2055
   -19.4755 -19.4753 -11.1781 -11.1759 -10.8492 -10.8279 -10.7069 -10.6918
   -10.5768 -10.5658 -10.4184 -10.4018 -10.2546 -10.2427 -10.0596 -10.0265
    -9.8443  -9.8002  -9.5786  -9.5500  -9.2173  -9.2078  -8.7484  -8.7318
    -8.6867  -8.6648  -8.4822  -8.4672  -8.3978  -8.3953  -7.9530  -7.9510
    -7.9021  -7.8960  -7.8593  -7.8475  -7.7132  -7.6107  -7.4348  -7.4053
    -7.1700  -7.1421  -6.8249  -6.7888  -6.6189  -6.5943  -6.1454  -6.1347
    -5.8777  -5.7444  -5.5091  -5.4255  -5.3504  -5.3469  -4.7118  -4.6771
    -4.4243  -4.3511  -4.2198  -4.2047  -4.1356  -4.1350  -3.8767  -3.8623
    -3.6942  -3.6659  -3.4807  -3.4613  -3.1639  -3.1272  -3.1088  -3.1037
    -2.9171  -2.9137  -2.7976  -2.7761  -2.5229  -2.5214  -2.4469  -2.4461
    -1.7704  -1.7693  -0.6293  -0.6184  -0.3378  -0.3370  -0.0716  -0.0712
     0.0754   0.0761   0.4883   0.4916   0.8999   0.9014   1.3362   1.3373
     3.9561   3.9661   4.5279   4.5292   5.1893   5.1919   5.5882   5.5967
     5.6810   5.6909   5.7495   5.7830   6.2905   6.3009   6.5371   6.5490
     6.7359   6.7379   7.0292   7.0433   7.2751   7.2892   7.4546   7.4760
     7.5745   7.5878   7.8129   7.8272   8.0127   8.0608   8.1165   8.1201
     8.3818   8.3820   8.6585   8.6943   8.8928   8.9022   9.0637   9.0790
     9.3038   9.3095   9.4135   9.4361   9.6797   9.6829  10.0124  10.0278
    10.2419  10.2687  10.5091  10.5304  10.7334  10.7356  10.8251  10.8325
    10.8878  10.8979  11.1527  11.1622  11.2277  11.2341  11.5397  11.5690
    11.7217  11.7301  11.8026  11.8602  12.0153  12.0479  12.0764  12.0905
    12.2418  12.2601  12.4693  12.4784  12.5010  12.5407  12.6446  12.6647
    12.8473  12.8486  12.9512  12.9569  13.0648  13.0962  13.1300  13.1443
    13.2112  13.2259  13.4384  13.4388  13.4954  13.5211  13.7552  13.7623
    13.9472  13.9584  14.0269  14.0347  14.1519  14.1548  14.1817  14.2310
    14.3114  14.3355  14.4468  14.4498  14.5651  14.5812  14.7119  14.7349
    14.8034  14.8086  15.0430  15.0860  15.2784  15.3201  15.5085  15.5108
    15.6780  15.6894  15.7580  15.7599  15.9052  15.9238  15.9794  15.9896
    16.1409  16.1450  16.1889  16.2163  16.3597  16.4013  16.5172  16.5244
    16.5889  16.5951  16.6864  16.6931  16.7737  16.8606  17.0616  17.0820
    17.0952  17.1329  17.3373  17.3473  17.3677  17.3775  17.4874  17.5144
    17.5283  17.5339  17.5821  17.5842  17.6098  17.6205  17.6331  17.6472
    17.9131  17.9260  17.9535  17.9643  18.0310  18.0473  18.1073  18.1414
    18.2127  18.2314  18.3673  18.3684  18.5015  18.5198  18.5534  18.6156
    18.6850  18.6850  18.7805  18.8391  18.8557  18.8943  19.0846  19.1052
    19.2256  19.2400  19.2874  19.3036  19.4745  19.4979  19.5589  19.5874
    19.6898  19.7069  19.7355  19.7849  19.8918  19.9711  20.0082  20.0241
    20.2172  20.2343  20.3390  20.3697  20.5108  20.5426  20.6388  20.6878
    20.8273  20.8710  20.9515  20.9778  21.1389  21.1875  21.2458  21.2473
    21.3858  21.4029  21.5879  21.5910  21.6920  21.7052  21.7487  21.7647

          k =-0.5000-0.4976 0.0000 ( 31956 PWs)   bands (ev):

   -54.9187 -54.9187 -54.9159 -54.9159 -54.8922 -54.8922 -54.7906 -54.7906
   -54.7872 -54.7872 -54.6912 -54.6912 -54.6023 -54.6023 -54.5757 -54.5757
   -54.5392 -54.5392 -54.2128 -54.2127 -53.8934 -53.8934 -53.5520 -53.5519
   -22.1243 -22.1243 -20.9484 -20.9484 -20.8917 -20.8917 -20.7634 -20.7634
   -20.7291 -20.7291 -20.6888 -20.6888 -20.6462 -20.6462 -20.2177 -20.2177
   -19.4750 -19.4748 -11.2111 -11.2111 -10.7780 -10.7780 -10.5841 -10.5840
   -10.5171 -10.5171 -10.1853 -10.1853  -9.9212  -9.9212  -9.8610  -9.8610
    -9.5873  -9.5873  -9.4581  -9.4581  -9.3034  -9.3033  -9.1044  -9.1044
    -8.9431  -8.9431  -8.7059  -8.7059  -8.4915  -8.4914  -8.3036  -8.3036
    -8.1036  -8.1036  -7.7895  -7.7895  -7.6920  -7.6919  -7.2730  -7.2730
    -6.9829  -6.9828  -6.6735  -6.6735  -6.6164  -6.6164  -6.3377  -6.3377
    -6.1975  -6.1975  -5.5670  -5.5670  -5.3586  -5.3586  -4.3503  -4.3503
    -4.3307  -4.3307  -4.1570  -4.1570  -3.8324  -3.8323  -3.7715  -3.7715
    -3.7300  -3.7300  -3.4292  -3.4292  -3.2551  -3.2551  -3.2129  -3.2128
    -2.9659  -2.9659  -2.7526  -2.7526  -2.5810  -2.5810  -2.5270  -2.5270
    -1.6664  -1.6664  -0.9351  -0.9351  -0.4309  -0.4309  -0.2448  -0.2448
     0.1179   0.1180   0.8138   0.8139   0.9690   0.9690   1.4820   1.4821
     4.4775   4.4775   4.7545   4.7546   4.9820   4.9820   5.7320   5.7320
     5.8394   5.8394   5.9879   5.9879   6.1925   6.1925   6.2971   6.2971
     6.4366   6.4366   6.5748   6.5748   7.0399   7.0399   7.0836   7.0836
     7.3566   7.3566   7.4565   7.4565   7.8841   7.8841   8.2003   8.2003
     8.3343   8.3343   8.4778   8.4778   8.8620   8.8620   9.2374   9.2374
     9.3123   9.3123   9.5024   9.5024   9.6914   9.6914  10.0359  10.0359
    10.3091  10.3091  10.7086  10.7086  10.8946  10.8946  11.1621  11.1621
    11.4207  11.4207  11.7273  11.7273  11.9234  11.9234  11.9636  11.9636
    12.0753  12.0754  12.3654  12.3654  12.4890  12.4890  12.5641  12.5641
    12.7016  12.7017  12.7504  12.7504  12.8501  12.8501  13.0170  13.0170
    13.1271  13.1271  13.1649  13.1649  13.2121  13.2121  13.3816  13.3816
    13.4227  13.4228  13.5086  13.5086  13.5582  13.5582  13.6588  13.6588
    13.6759  13.6759  13.7754  13.7754  13.8911  13.8911  13.9442  13.9442
    14.1871  14.1871  14.2636  14.2636  14.4840  14.4840  14.6464  14.6464
    14.7001  14.7001  14.7844  14.7844  14.8550  14.8550  14.9970  14.9970
    15.1043  15.1043  15.1667  15.1667  15.3020  15.3020  15.3440  15.3440
    15.4657  15.4657  15.5789  15.5789  15.7680  15.7681  16.0416  16.0417
    16.3264  16.3264  16.3952  16.3952  16.4847  16.4847  16.5865  16.5865
    16.9031  16.9031  16.9697  16.9697  17.2244  17.2244  17.4079  17.4079
    17.5149  17.5149  17.5834  17.5834  17.5954  17.5954  17.7021  17.7021
    17.7920  17.7920  17.8390  17.8390  18.0010  18.0010  18.1697  18.1697
    18.3739  18.3739  18.5357  18.5357  18.5539  18.5539  18.6170  18.6170
    18.9219  18.9219  19.0453  19.0453  19.1529  19.1529  19.2386  19.2386
    19.4852  19.4852  19.6954  19.6954  19.8463  19.8463  19.9491  19.9491
    20.0605  20.0605  20.1409  20.1409  20.2665  20.2665  20.3829  20.3829
    20.4376  20.4376  20.4616  20.4616  20.5780  20.5780  20.7556  20.7556
    20.9223  20.9223  20.9362  20.9362  20.9967  20.9967  21.0964  21.0964
    21.2340  21.2340  21.2979  21.2980  21.3497  21.3497  21.4815  21.4815

          k =-0.2500 0.2488 0.0000 ( 32025 PWs)   bands (ev):

   -54.9372 -54.9339 -54.9095 -54.8956 -54.8934 -54.8695 -54.7924 -54.7888
   -54.7881 -54.7853 -54.6929 -54.6890 -54.6047 -54.5996 -54.5770 -54.5737
   -54.5416 -54.5364 -54.2306 -54.1895 -53.8962 -53.8911 -53.5530 -53.5501
   -22.2531 -22.1275 -21.4386 -21.3461 -21.1078 -20.9810 -20.8902 -20.7511
   -20.7034 -20.6690 -20.5158 -20.4155 -20.3893 -20.2219 -20.1601 -20.1451
   -19.4645 -19.2086 -11.6890 -11.5844 -11.5675 -11.2768 -11.1136 -11.0111
   -10.8853 -10.5181 -10.3375 -10.2053 -10.0194  -9.8716  -9.7556  -9.6481
    -9.5766  -9.5186  -9.3606  -9.3545  -9.2157  -8.9689  -8.8788  -8.7611
    -8.7198  -8.5469  -8.4959  -8.4093  -8.2244  -8.1591  -8.0324  -8.0118
    -7.9156  -7.8786  -7.6824  -7.6137  -7.4804  -7.4787  -7.3927  -7.2076
    -7.1468  -7.0173  -6.8283  -6.5562  -6.5218  -6.2126  -5.9912  -5.8684
    -5.8341  -5.7191  -5.5801  -5.4513  -5.3027  -5.2219  -5.0077  -4.9033
    -4.6981  -4.6703  -4.5587  -4.5274  -4.2948  -4.2359  -4.0925  -3.9548
    -3.8124  -3.7918  -3.7324  -3.6787  -3.3510  -3.3496  -3.0734  -2.9779
    -2.9333  -2.8505  -2.7307  -2.6883  -2.6496  -2.5568  -2.1831  -2.1040
    -2.0244  -1.6812  -1.2850  -0.7668  -0.5441  -0.4920  -0.3097   0.1620
     0.4073   0.5881   0.7168   0.9248   1.1097   1.1359   1.2650   1.4867
     3.0672   3.7140   4.5196   4.9554   5.0379   5.0556   5.1486   5.5804
     5.7138   5.9263   6.0558   6.1961   6.3668   6.4710   6.5697   6.6319
     6.7516   6.7975   7.0159   7.0830   7.2451   7.3941   7.4370   7.5020
     7.6332   7.7310   7.7999   7.9894   8.1349   8.1759   8.2536   8.3374
     8.3893   8.5232   8.5242   8.6367   8.7683   8.8775   9.0251   9.1241
     9.3055   9.3249   9.4460   9.5765   9.6138   9.7817   9.9035   9.9305
    10.0775  10.1170  10.1933  10.2180  10.4071  10.5163  10.5228  10.6269
    10.6473  10.8262  10.8465  10.9779  11.1455  11.2370  11.3374  11.4011
    11.4206  11.5701  11.6661  11.7038  11.7830  11.8134  11.9247  11.9261
    12.0123  12.1627  12.2188  12.2452  12.3119  12.3866  12.4438  12.5251
    12.5884  12.6201  12.7234  12.8134  12.8981  12.9462  13.0579  13.1151
    13.1825  13.2586  13.4091  13.5216  13.6348  13.6510  13.7086  13.8302
    13.8376  13.9026  14.0255  14.0724  14.1271  14.3261  14.3720  14.4558
    14.4685  14.6338  14.6835  14.7572  14.8516  14.9088  15.0936  15.1520
    15.2228  15.2490  15.3434  15.3574  15.4360  15.5081  15.5774  15.6205
    15.6241  15.6701  15.7686  15.8130  15.8798  15.9452  16.0292  16.0336
    16.1778  16.1798  16.2466  16.3503  16.3986  16.4988  16.6093  16.7153
    16.7702  16.8610  16.8922  17.0253  17.0619  17.1273  17.1307  17.1780
    17.2494  17.2555  17.3370  17.3934  17.4401  17.4458  17.4790  17.4924
    17.5197  17.5881  17.5942  17.6083  17.6105  17.6459  17.7143  17.7952
    17.8027  17.8859  18.0554  18.0874  18.1263  18.1956  18.2091  18.3590
    18.4025  18.4056  18.5118  18.5370  18.5493  18.6268  18.7200  18.7222
    18.7635  18.9005  18.9422  19.0093  19.0404  19.1149  19.1614  19.3051
    19.3519  19.4092  19.4109  19.5788  19.6293  19.7922  19.8442  19.8489
    19.8999  19.9474  19.9965  20.0627  20.0950  20.1138  20.2572  20.2727
    20.3096  20.3413  20.5196  20.5338  20.6828  20.6909  20.7754  20.8067
    20.8212  20.9250  20.9272  20.9983  21.0534  21.2156  21.2461  21.2557
    21.3601  21.4413  21.4431  21.5312  21.5842  21.6251  21.6621  21.7755

     the Fermi energy is    -2.0189 ev

!    total energy              =   -2246.63165873 Ry
     Harris-Foulkes estimate   =   -2246.63165874 Ry
     estimated scf accuracy    <          6.7E-09 Ry

     The total energy is the sum of the following terms:

     one-electron contribution =  -22770.35465607 Ry
     hartree contribution      =   11427.67156333 Ry
     xc contribution           =    -565.22516421 Ry
     ewald contribution        =    9659.24455012 Ry
     Hubbard energy            =       2.03316864 Ry
     smearing contrib. (-TS)   =      -0.00112055 Ry

     convergence has been achieved in  12 iterations

     Forces acting on atoms (Ry/au):


     negative rho (up, down):  0.157E+01 0.000E+00
     atom    1 type  1   force =    -0.00720488   -0.00384048   -0.00018393
     atom    2 type  1   force =     0.00006712    0.00449333    0.00059703
     atom    3 type  2   force =    -0.00047348    0.00172271    0.00009895
     atom    4 type  2   force =     0.00947259    0.00104768    0.00008180
     atom    5 type  1   force =     0.00121227   -0.00094767   -0.00013369
     atom    6 type  1   force =     0.00022809    0.00090155    0.00027143
     atom    7 type  1   force =     0.00001295    0.00444764    0.00012595
     atom    8 type  1   force =    -0.00389594   -0.00796318    0.00040603
     atom    9 type  2   force =     0.00174478    0.00066907   -0.00022325
     atom   10 type  2   force =    -0.00002584   -0.00102957    0.00047393
     atom   11 type  1   force =    -0.00001239   -0.00451245   -0.00062724
     atom   12 type  1   force =     0.00007421    0.00504347   -0.00050922
     atom   13 type  1   force =    -0.00105345   -0.00010524    0.00012140
     atom   14 type  1   force =    -0.00720324   -0.00384052   -0.00018052
     atom   15 type  1   force =     0.00006714    0.00449222    0.00059431
     atom   16 type  2   force =    -0.00047275    0.00172269    0.00009895
     atom   17 type  2   force =     0.00947190    0.00104766    0.00007814
     atom   18 type  1   force =     0.00121325   -0.00094764   -0.00013388
     atom   19 type  1   force =     0.00022906    0.00090159    0.00027156
     atom   20 type  1   force =     0.00001294    0.00444754    0.00012563
     atom   21 type  1   force =    -0.00389584   -0.00796267    0.00040073
     atom   22 type  2   force =     0.00175646    0.00066899   -0.00022312
     atom   23 type  2   force =    -0.00002599   -0.00102951    0.00047039
     atom   24 type  1   force =    -0.00000946   -0.00451242   -0.00062714
     atom   25 type  1   force =     0.00007717    0.00504342   -0.00050917
     atom   26 type  1   force =    -0.00105342   -0.00010511    0.00015549
     atom   27 type  3   force =     0.00002103   -0.00023285    0.00015655
     atom   28 type  3   force =     0.00002105   -0.00023182    0.00015587
     atom   29 type  3   force =    -0.00017699    0.00030597   -0.00066618
     atom   30 type  3   force =    -0.00017832    0.00030561   -0.00066679

     Total force =     0.002129     Total SCF correction =     0.000173

     bfgs converged in   9 scf cycles and   8 bfgs steps
     (criteria: energy < 0.10E-03, force < 0.10E-02)

     End of BFGS Geometry Optimization

     Final energy   =   -2246.6316587344 Ry
Begin final coordinates

ATOMIC_POSITIONS (crystal)
O0       0.000000000   0.000000000   0.376745122    0   0   1
O0       0.000000000   0.500000000   0.399218831    0   0   1
Pt1      0.250000000   0.500000000   0.448721003    0   0   1
Pt1      0.000000000   0.000000000   0.451844201    0   0   1
O0       0.250000000   0.810000000   0.441384201    0   0   1
O0       0.250000000   0.190000000   0.459877659    0   0   1
O0       0.000000000   0.500000000   0.495054161    0   0   1
O0       0.000000000   0.000000000   0.529384665    0   0   1
Pt1      0.250000000   0.000000000   0.575805718    0   0   1
Pt1      0.000000000   0.500000000   0.574065522    0   0   1
O0       0.250000000   0.690000000   0.583656169    0   0   1
O0       0.250000000   0.310000000   0.583943777    0   0   1
O0       0.000000000   0.000000000   0.621449061    0   0   1
O0       0.500000000   0.000000000   0.376744640    0   0   1
O0       0.500000000   0.500000000   0.399219137    0   0   1
Pt1      0.750000000   0.500000000   0.448721002    0   0   1
Pt1      0.500000000   0.000000000   0.451843974    0   0   1
O0       0.750000000   0.810000000   0.441384224    0   0   1
O0       0.750000000   0.190000000   0.459877629    0   0   1
O0       0.500000000   0.500000000   0.495054263    0   0   1
O0       0.500000000   0.000000000   0.529384264    0   0   1
Pt1      0.750000000   0.000000000   0.575805711    0   0   1
Pt1      0.500000000   0.500000000   0.574065955    0   0   1
O0       0.750000000   0.690000000   0.583656149    0   0   1
O0       0.750000000   0.310000000   0.583943759    0   0   1
O0       0.500000000   0.000000000   0.621446915    0   0   1
H2      -0.000045361   0.641643254   0.384445177
H2       0.499954656   0.641642913   0.384445343
H2       0.144447381   0.032499428   0.367335967
H2       0.644447792   0.032499560   0.367335801
End final coordinates



     init_run     :    103.99s CPU    106.97s WALL (       1 calls)
     electrons    :  28977.73s CPU  29677.01s WALL (       9 calls)
     update_pot   :    169.28s CPU    172.42s WALL (       8 calls)
     forces       :   1178.93s CPU   1207.90s WALL (       9 calls)

     Called by init_run:
     wfcinit      :     37.57s CPU     38.96s WALL (       1 calls)
     potinit      :      7.64s CPU      7.78s WALL (       1 calls)

     Called by electrons:
     c_bands      :  15866.30s CPU  16258.72s WALL (     159 calls)
     sum_band     :   5845.59s CPU   5962.01s WALL (     159 calls)
     v_of_rho     :    179.17s CPU    193.93s WALL (     161 calls)
     newd         :   7383.57s CPU   7421.89s WALL (     161 calls)
     mix_rho      :     33.97s CPU     34.73s WALL (     159 calls)

     Called by c_bands:
     init_us_2    :     41.88s CPU     42.34s WALL (    1038 calls)
     cegterg      :  15666.39s CPU  16008.54s WALL (     477 calls)

     Called by *egterg:
     h_psi        :   9232.68s CPU   9414.25s WALL (    1261 calls)
     s_psi        :    889.76s CPU    900.65s WALL (    1315 calls)
     g_psi        :     19.77s CPU     19.84s WALL (     781 calls)
     cdiaghg      :   1271.25s CPU   1274.12s WALL (    1213 calls)

     Called by h_psi:
     add_vuspsi   :    859.60s CPU    870.59s WALL (    1261 calls)
     vhpsi        :   1003.01s CPU   1015.22s WALL (    1261 calls)

     General routines
     calbec       :   2120.54s CPU   2147.32s WALL (   10874 calls)
     fft          :    214.11s CPU    245.12s WALL (    2675 calls)
     ffts         :      2.85s CPU      2.91s WALL (     320 calls)
     fftw         :   5151.50s CPU   5333.01s WALL (  894848 calls)
     interpolate  :     27.24s CPU     27.55s WALL (     320 calls)
     davcio       :      0.10s CPU     20.77s WALL (    1065 calls)

     Parallel routines
     fft_scatter  :   1818.83s CPU   2019.46s WALL (  897843 calls)
     Hubbard U routines
     new_ns       :    202.55s CPU    216.22s WALL (     159 calls)
     vhpsi        :   1003.01s CPU   1015.22s WALL (    1261 calls)
     force_hub    :    320.61s CPU    331.33s WALL (       9 calls)

     PWSCF        :     8h34m CPU        8h46m WALL


   This run was terminated on:  20:38:52   6May2014            

=------------------------------------------------------------------------------=
   JOB DONE.
=------------------------------------------------------------------------------=
