
     Program PWSCF v.5.0.2 (svn rev. 9656) starts on 10Feb2014 at 14:13:23 

     This program is part of the open-source Quantum ESPRESSO suite
     for quantum simulation of materials; please cite
         "P. Giannozzi et al., J. Phys.:Condens. Matter 21 395502 (2009);
          URL http://www.quantum-espresso.org", 
     in publications or presentations arising from this work. More details at
     http://www.quantum-espresso.org/quote.php

     Parallel version (MPI), running on    16 processors
     R & G space division:  proc/nbgrp/npool/nimage =      16

     Current dimensions of program PWSCF are:
     Max number of different atomic species (ntypx) = 10
     Max number of k-points (npk) =  40000
     Max angular momentum in pseudopotentials (lmaxx) =  3
     Reading input from alpha_-0.15/alpha_-0.15.in
Warning: card &IONS ignored
Warning: card / ignored
Warning: card &CELL ignored
Warning: card / ignored

     Subspace diagonalization in iterative solution of the eigenvalue problem:
     a serial algorithm will be used


     Parallelization info
     --------------------
     sticks:   dense  smooth     PW     G-vecs:    dense   smooth      PW
     Min         728     233     65                40771     7373    1095
     Max         730     234     66                40773     7387    1096
     Sum       11661    3729   1041               652351   118087   17521



     bravais-lattice index     =            0
     lattice parameter (alat)  =      17.1209  a.u.
     unit-cell volume          =    3456.5082 (a.u.)^3
     number of atoms/cell      =           48
     number of atomic types    =            3
     number of electrons       =       448.00
     number of Kohn-Sham states=          648
     kinetic-energy cutoff     =      40.0000  Ry
     charge density cutoff     =     500.0000  Ry
     convergence threshold     =      1.0E-06
     mixing beta               =       0.7000
     number of iterations used =            8  plain     mixing
     Exchange-correlation      = SLA  PW   PBE  PBE ( 1 4 3 4 0)
     EXX-fraction              =        0.00

     celldm(1)=  17.120919  celldm(2)=   0.000000  celldm(3)=   0.000000
     celldm(4)=   0.000000  celldm(5)=   0.000000  celldm(6)=   0.000000

     crystal axes: (cart. coord. in units of alat)
               a(1) = (   1.000000   0.000000   0.000000 )  
               a(2) = (   0.000000   1.000000   0.000000 )  
               a(3) = (   0.000000   0.000000   0.688742 )  

     reciprocal axes: (cart. coord. in units 2 pi/alat)
               b(1) = (  1.000000  0.000000  0.000000 )  
               b(2) = (  0.000000  1.000000  0.000000 )  
               b(3) = (  0.000000  0.000000  1.451923 )  


     PseudoPot. # 1 for Ru read from file:
     /home/camp/zhonxu/pseudo/ru_pbe_v1.uspp.F.UPF
     MD5 check sum: df00be1c11b23341d9806d8f1dfa10cf
     Pseudo is Ultrasoft + core correction, Zval = 16.0
     Generated by new atomic code, or converted to UPF format
     Using radial grid of  967 points,  6 beta functions with: 
                l(1) =   0
                l(2) =   0
                l(3) =   1
                l(4) =   1
                l(5) =   2
                l(6) =   2
     Q(r) pseudized with  8 coefficients,  rinner =    1.300   1.300   1.300
                                                       1.300   1.300

     PseudoPot. # 2 for Ru read from file:
     /home/camp/zhonxu/pseudo/ru_pbe_v1.uspp.F.UPF
     MD5 check sum: df00be1c11b23341d9806d8f1dfa10cf
     Pseudo is Ultrasoft + core correction, Zval = 16.0
     Generated by new atomic code, or converted to UPF format
     Using radial grid of  967 points,  6 beta functions with: 
                l(1) =   0
                l(2) =   0
                l(3) =   1
                l(4) =   1
                l(5) =   2
                l(6) =   2
     Q(r) pseudized with  8 coefficients,  rinner =    1.300   1.300   1.300
                                                       1.300   1.300

     PseudoPot. # 3 for O  read from file:
     /home/camp/zhonxu/pseudo/o_pbe_v1.01.uspp.F.UPF
     MD5 check sum: 2bcb18d16ea4b960afae9ec6d52f22d2
     Pseudo is Ultrasoft + core correction, Zval =  6.0
     Generated by new atomic code, or converted to UPF format
     Using radial grid of  737 points,  5 beta functions with: 
                l(1) =   0
                l(2) =   0
                l(3) =   1
                l(4) =   1
                l(5) =   2
     Q(r) pseudized with  8 coefficients,  rinner =    0.900   0.900   0.900
                                                       0.900   0.900

     atomic species   valence    mass     pseudopotential
        Ru0           16.00   101.07000     Ru( 1.00)
        Ru1           16.00   101.07000     Ru( 1.00)
        O2             6.00    15.99940     O ( 1.00)

     Starting magnetic structure 
     atomic species   magnetization
        Ru0          0.000
        Ru1          0.000
        O2           0.000


     Simplified LDA+U calculation (l_max = 2) with parameters (eV):
     atomic species    L          U    alpha       J0     beta
        Ru0            2     0.0000  -0.1500   0.0000   0.0000
        Ru1            2     0.0000   0.0000   0.0000   0.0000
        O2             1     0.0000   0.0000   0.0000   0.0000



      8 Sym. Ops., with inversion, found



   Cartesian axes

     site n.     atom                  positions (alat units)
         1           Ru0 tau(   1) = (   0.0000000   0.0000000   0.0000000  )
         2           Ru1 tau(   2) = (   0.2500000   0.2500000   0.1721854  )
         3           Ru1 tau(   3) = (   0.0000000   0.0000000   0.3443709  )
         4           Ru1 tau(   4) = (   0.2500000   0.2500000   0.5165563  )
         5           Ru1 tau(   5) = (   0.0000000   0.5000000   0.0000000  )
         6           Ru1 tau(   6) = (   0.2500000   0.7500000   0.1721854  )
         7           Ru1 tau(   7) = (   0.0000000   0.5000000   0.3443709  )
         8           Ru1 tau(   8) = (   0.2500000   0.7500000   0.5165563  )
         9           Ru1 tau(   9) = (   0.5000000   0.0000000   0.0000000  )
        10           Ru1 tau(  10) = (   0.7500000   0.2500000   0.1721854  )
        11           Ru1 tau(  11) = (   0.5000000   0.0000000   0.3443709  )
        12           Ru1 tau(  12) = (   0.7500000   0.2500000   0.5165563  )
        13           Ru1 tau(  13) = (   0.5000000   0.5000000   0.0000000  )
        14           Ru1 tau(  14) = (   0.7500000   0.7500000   0.1721854  )
        15           Ru1 tau(  15) = (   0.5000000   0.5000000   0.3443709  )
        16           Ru1 tau(  16) = (   0.7500000   0.7500000   0.5165563  )
        17           O2  tau(  17) = (   0.1550000   0.1550000   0.0000000  )
        18           O2  tau(  18) = (  -0.1550000  -0.1550000   0.0000000  )
        19           O2  tau(  19) = (   0.4050000   0.0950000   0.1721854  )
        20           O2  tau(  20) = (   0.0950000   0.4050000   0.1721854  )
        21           O2  tau(  21) = (   0.1550000   0.1550000   0.3443709  )
        22           O2  tau(  22) = (  -0.1550000  -0.1550000   0.3443709  )
        23           O2  tau(  23) = (   0.4050000   0.0950000   0.5165563  )
        24           O2  tau(  24) = (   0.0950000   0.4050000   0.5165563  )
        25           O2  tau(  25) = (   0.1550000   0.6550000   0.0000000  )
        26           O2  tau(  26) = (  -0.1550000   0.3450000   0.0000000  )
        27           O2  tau(  27) = (   0.4050000   0.5950000   0.1721854  )
        28           O2  tau(  28) = (   0.0950000   0.9050000   0.1721854  )
        29           O2  tau(  29) = (   0.1550000   0.6550000   0.3443709  )
        30           O2  tau(  30) = (  -0.1550000   0.3450000   0.3443709  )
        31           O2  tau(  31) = (   0.4050000   0.5950000   0.5165563  )
        32           O2  tau(  32) = (   0.0950000   0.9050000   0.5165563  )
        33           O2  tau(  33) = (   0.6550000   0.1550000   0.0000000  )
        34           O2  tau(  34) = (   0.3450000  -0.1550000   0.0000000  )
        35           O2  tau(  35) = (   0.9050000   0.0950000   0.1721854  )
        36           O2  tau(  36) = (   0.5950000   0.4050000   0.1721854  )
        37           O2  tau(  37) = (   0.6550000   0.1550000   0.3443709  )
        38           O2  tau(  38) = (   0.3450000  -0.1550000   0.3443709  )
        39           O2  tau(  39) = (   0.9050000   0.0950000   0.5165563  )
        40           O2  tau(  40) = (   0.5950000   0.4050000   0.5165563  )
        41           O2  tau(  41) = (   0.6550000   0.6550000   0.0000000  )
        42           O2  tau(  42) = (   0.3450000   0.3450000   0.0000000  )
        43           O2  tau(  43) = (   0.9050000   0.5950000   0.1721854  )
        44           O2  tau(  44) = (   0.5950000   0.9050000   0.1721854  )
        45           O2  tau(  45) = (   0.6550000   0.6550000   0.3443709  )
        46           O2  tau(  46) = (   0.3450000   0.3450000   0.3443709  )
        47           O2  tau(  47) = (   0.9050000   0.5950000   0.5165563  )
        48           O2  tau(  48) = (   0.5950000   0.9050000   0.5165563  )

     number of k points=    42  Methfessel-Paxton smearing, width (Ry)=  0.0100
                       cart. coord. in units 2pi/alat
        k(    1) = (   0.0000000   0.0000000   0.0000000), wk =   0.0156250
        k(    2) = (   0.0000000   0.0000000   0.3629808), wk =   0.0312500
        k(    3) = (   0.0000000   0.0000000  -0.7259615), wk =   0.0156250
        k(    4) = (   0.0000000   0.2500000   0.0000000), wk =   0.0625000
        k(    5) = (   0.0000000   0.2500000   0.3629808), wk =   0.1250000
        k(    6) = (   0.0000000   0.2500000  -0.7259615), wk =   0.0625000
        k(    7) = (   0.0000000  -0.5000000   0.0000000), wk =   0.0312500
        k(    8) = (   0.0000000  -0.5000000   0.3629808), wk =   0.0625000
        k(    9) = (   0.0000000  -0.5000000  -0.7259615), wk =   0.0312500
        k(   10) = (   0.2500000   0.2500000   0.0000000), wk =   0.0312500
        k(   11) = (   0.2500000   0.2500000   0.3629808), wk =   0.0625000
        k(   12) = (   0.2500000   0.2500000  -0.7259615), wk =   0.0312500
        k(   13) = (   0.2500000  -0.5000000   0.0000000), wk =   0.0625000
        k(   14) = (   0.2500000  -0.5000000   0.3629808), wk =   0.1250000
        k(   15) = (   0.2500000  -0.5000000  -0.7259615), wk =   0.0625000
        k(   16) = (  -0.5000000  -0.5000000   0.0000000), wk =   0.0156250
        k(   17) = (  -0.5000000  -0.5000000   0.3629808), wk =   0.0312500
        k(   18) = (  -0.5000000  -0.5000000  -0.7259615), wk =   0.0156250
        k(   19) = (  -0.2500000   0.2500000   0.0000000), wk =   0.0312500
        k(   20) = (  -0.2500000   0.2500000  -0.3629808), wk =   0.0625000
        k(   21) = (  -0.2500000   0.2500000   0.7259615), wk =   0.0312500
        k(   22) = (   0.0000000   0.0000000   0.0000000), wk =   0.0156250
        k(   23) = (   0.0000000   0.0000000   0.3629808), wk =   0.0312500
        k(   24) = (   0.0000000   0.0000000  -0.7259615), wk =   0.0156250
        k(   25) = (   0.0000000   0.2500000   0.0000000), wk =   0.0625000
        k(   26) = (   0.0000000   0.2500000   0.3629808), wk =   0.1250000
        k(   27) = (   0.0000000   0.2500000  -0.7259615), wk =   0.0625000
        k(   28) = (   0.0000000  -0.5000000   0.0000000), wk =   0.0312500
        k(   29) = (   0.0000000  -0.5000000   0.3629808), wk =   0.0625000
        k(   30) = (   0.0000000  -0.5000000  -0.7259615), wk =   0.0312500
        k(   31) = (   0.2500000   0.2500000   0.0000000), wk =   0.0312500
        k(   32) = (   0.2500000   0.2500000   0.3629808), wk =   0.0625000
        k(   33) = (   0.2500000   0.2500000  -0.7259615), wk =   0.0312500
        k(   34) = (   0.2500000  -0.5000000   0.0000000), wk =   0.0625000
        k(   35) = (   0.2500000  -0.5000000   0.3629808), wk =   0.1250000
        k(   36) = (   0.2500000  -0.5000000  -0.7259615), wk =   0.0625000
        k(   37) = (  -0.5000000  -0.5000000   0.0000000), wk =   0.0156250
        k(   38) = (  -0.5000000  -0.5000000   0.3629808), wk =   0.0312500
        k(   39) = (  -0.5000000  -0.5000000  -0.7259615), wk =   0.0156250
        k(   40) = (  -0.2500000   0.2500000   0.0000000), wk =   0.0312500
        k(   41) = (  -0.2500000   0.2500000  -0.3629808), wk =   0.0625000
        k(   42) = (  -0.2500000   0.2500000   0.7259615), wk =   0.0312500

     Dense  grid:   652351 G-vectors     FFT dimensions: ( 125, 125,  90)

     Smooth grid:   118087 G-vectors     FFT dimensions: (  72,  72,  48)

     Largest allocated arrays     est. size (Mb)     dimensions
        Kohn-Sham Wavefunctions         9.17 Mb     (    927,  648)
        Atomic wavefunctions            4.75 Mb     (    927,  336)
        NL pseudopotentials             9.96 Mb     (    927,  704)
        Each V/rho on FFT grid          2.86 Mb     (  93750,   2)
        Each G-vector array             0.31 Mb     (  40772)
        G-vector shells                 0.12 Mb     (  15344)
     Largest temporary arrays     est. size (Mb)     dimensions
        Auxiliary wavefunctions        36.66 Mb     (    927, 2592)
        Each subspace H/S matrix      102.52 Mb     (2592,2592)
        Each <psi_i|beta_j> matrix      6.96 Mb     (    704,  648)
        Arrays for rho mixing          11.44 Mb     (  93750,   8)

     Check: negative/imaginary core charge=   -0.000008    0.000000

     The initial density is read from file :
     alpha_-0.15/pwscf.save/charge-density.dat


     negative rho (up, down):  0.578E+00 0.578E+00
     Number of +U iterations with fixed ns =  0
     Starting occupations:
 --- enter write_ns ---
 LDA+U parameters:
U( 1)     =  0.00000000
alpha( 1) = -0.15000000
U( 2)     =  0.00000000
alpha( 2) =  0.00000000
U( 3)     =  0.00000000
alpha( 3) =  0.00000000
atom    1   Tr[ns(na)] (up, down, total) =   3.57708  3.57708  7.15415
   spin  1
    eigenvalues: 
  0.553  0.589  0.716  0.781  0.937
    eigenvectors:
  0.000  0.334  0.000  0.000  0.666
  0.500  0.000  0.000  0.500  0.000
  0.500  0.000  0.000  0.500  0.000
  0.000  0.000  1.000  0.000  0.000
  0.000  0.666  0.000  0.000  0.334
    occupations:
  0.821 -0.000 -0.000 -0.000  0.164
 -0.000  0.667  0.114  0.000  0.000
 -0.000  0.114  0.667  0.000  0.000
 -0.000  0.000  0.000  0.716 -0.000
  0.164  0.000  0.000 -0.000  0.706
   spin  2
    eigenvalues: 
  0.553  0.589  0.716  0.781  0.937
    eigenvectors:
  0.000  0.334  0.000  0.000  0.666
  0.500  0.000  0.000  0.500  0.000
  0.500  0.000  0.000  0.500  0.000
  0.000  0.000  1.000  0.000  0.000
  0.000  0.666  0.000  0.000  0.334
    occupations:
  0.821 -0.000 -0.000 -0.000  0.164
 -0.000  0.667  0.114  0.000  0.000
 -0.000  0.114  0.667  0.000  0.000
 -0.000  0.000  0.000  0.716 -0.000
  0.164  0.000  0.000 -0.000  0.706
atomic mag. moment =     0.000000
atom    2   Tr[ns(na)] (up, down, total) =   3.57690  3.57690  7.15380
   spin  1
    eigenvalues: 
  0.553  0.589  0.716  0.781  0.937
    eigenvectors:
  0.000  0.334  0.000  0.000  0.666
  0.500  0.000  0.000  0.500  0.000
  0.500  0.000  0.000  0.500  0.000
  0.000  0.000  1.000  0.000  0.000
  0.000  0.666  0.000  0.000  0.334
    occupations:
  0.821  0.000  0.000  0.000 -0.164
  0.000  0.667 -0.114 -0.000  0.000
  0.000 -0.114  0.667  0.000  0.000
  0.000 -0.000  0.000  0.716 -0.000
 -0.164  0.000  0.000 -0.000  0.706
   spin  2
    eigenvalues: 
  0.553  0.589  0.716  0.781  0.937
    eigenvectors:
  0.000  0.334  0.000  0.000  0.666
  0.500  0.000  0.000  0.500  0.000
  0.500  0.000  0.000  0.500  0.000
  0.000  0.000  1.000  0.000  0.000
  0.000  0.666  0.000  0.000  0.334
    occupations:
  0.821  0.000  0.000  0.000 -0.164
  0.000  0.667 -0.114 -0.000  0.000
  0.000 -0.114  0.667  0.000  0.000
  0.000 -0.000  0.000  0.716 -0.000
 -0.164  0.000  0.000 -0.000  0.706
atomic mag. moment =     0.000000
atom    3   Tr[ns(na)] (up, down, total) =   3.57711  3.57710  7.15421
   spin  1
    eigenvalues: 
  0.553  0.589  0.716  0.781  0.937
    eigenvectors:
  0.000  0.334  0.000  0.000  0.666
  0.500  0.000  0.000  0.500  0.000
  0.500  0.000  0.000  0.500  0.000
  0.000  0.000  1.000  0.000  0.000
  0.000  0.666  0.000  0.000  0.334
    occupations:
  0.821 -0.000 -0.000 -0.000  0.164
 -0.000  0.667  0.114  0.000  0.000
 -0.000  0.114  0.667  0.000  0.000
 -0.000  0.000  0.000  0.716 -0.000
  0.164  0.000  0.000 -0.000  0.706
   spin  2
    eigenvalues: 
  0.553  0.589  0.716  0.781  0.937
    eigenvectors:
  0.000  0.334  0.000  0.000  0.666
  0.500  0.000  0.000  0.500  0.000
  0.500  0.000  0.000  0.500  0.000
  0.000  0.000  1.000  0.000  0.000
  0.000  0.666  0.000  0.000  0.334
    occupations:
  0.821 -0.000 -0.000 -0.000  0.164
 -0.000  0.667  0.114  0.000  0.000
 -0.000  0.114  0.667  0.000  0.000
 -0.000  0.000  0.000  0.716 -0.000
  0.164  0.000  0.000 -0.000  0.706
atomic mag. moment =     0.000001
atom    4   Tr[ns(na)] (up, down, total) =   3.57690  3.57690  7.15380
   spin  1
    eigenvalues: 
  0.553  0.589  0.716  0.781  0.937
    eigenvectors:
  0.000  0.334  0.000  0.000  0.666
  0.500  0.000  0.000  0.500  0.000
  0.500  0.000  0.000  0.500  0.000
  0.000  0.000  1.000  0.000  0.000
  0.000  0.666  0.000  0.000  0.334
    occupations:
  0.821 -0.000 -0.000  0.000 -0.164
 -0.000  0.667 -0.114  0.000 -0.000
 -0.000 -0.114  0.667 -0.000 -0.000
  0.000  0.000 -0.000  0.716 -0.000
 -0.164 -0.000 -0.000 -0.000  0.706
   spin  2
    eigenvalues: 
  0.553  0.589  0.716  0.781  0.937
    eigenvectors:
  0.000  0.334  0.000  0.000  0.666
  0.500  0.000  0.000  0.500  0.000
  0.500  0.000  0.000  0.500  0.000
  0.000  0.000  1.000  0.000  0.000
  0.000  0.666  0.000  0.000  0.334
    occupations:
  0.821 -0.000 -0.000  0.000 -0.164
 -0.000  0.667 -0.114  0.000 -0.000
 -0.000 -0.114  0.667 -0.000 -0.000
  0.000  0.000 -0.000  0.716 -0.000
 -0.164 -0.000 -0.000 -0.000  0.706
atomic mag. moment =     0.000000
atom    5   Tr[ns(na)] (up, down, total) =   3.57685  3.57685  7.15370
   spin  1
    eigenvalues: 
  0.553  0.589  0.716  0.781  0.937
    eigenvectors:
  0.000  0.334  0.000  0.000  0.666
  0.500  0.000  0.000  0.500  0.000
  0.500  0.000  0.000  0.500  0.000
  0.000  0.000  1.000  0.000  0.000
  0.000  0.666  0.000  0.000  0.334
    occupations:
  0.821 -0.000 -0.000 -0.000  0.164
 -0.000  0.667  0.114  0.000  0.000
 -0.000  0.114  0.667  0.000  0.000
 -0.000  0.000  0.000  0.716 -0.000
  0.164  0.000  0.000 -0.000  0.705
   spin  2
    eigenvalues: 
  0.553  0.589  0.716  0.781  0.937
    eigenvectors:
  0.000  0.334  0.000  0.000  0.666
  0.500  0.000  0.000  0.500  0.000
  0.500  0.000  0.000  0.500  0.000
  0.000  0.000  1.000  0.000  0.000
  0.000  0.666  0.000  0.000  0.334
    occupations:
  0.821 -0.000 -0.000 -0.000  0.164
 -0.000  0.667  0.114  0.000  0.000
 -0.000  0.114  0.667  0.000  0.000
 -0.000  0.000  0.000  0.716 -0.000
  0.164  0.000  0.000 -0.000  0.705
atomic mag. moment =    -0.000001
atom    6   Tr[ns(na)] (up, down, total) =   3.57705  3.57705  7.15409
   spin  1
    eigenvalues: 
  0.553  0.589  0.716  0.781  0.937
    eigenvectors:
  0.000  0.334  0.000  0.000  0.666
  0.500  0.000  0.000  0.500  0.000
  0.500  0.000  0.000  0.500  0.000
  0.000  0.000  1.000  0.000  0.000
  0.000  0.666  0.000  0.000  0.334
    occupations:
  0.821 -0.000  0.000  0.000 -0.164
 -0.000  0.667 -0.114 -0.000  0.000
  0.000 -0.114  0.667 -0.000 -0.000
  0.000 -0.000 -0.000  0.716 -0.000
 -0.164  0.000 -0.000 -0.000  0.706
   spin  2
    eigenvalues: 
  0.553  0.589  0.716  0.781  0.937
    eigenvectors:
  0.000  0.334  0.000  0.000  0.666
  0.500  0.000  0.000  0.500  0.000
  0.500  0.000  0.000  0.500  0.000
  0.000  0.000  1.000  0.000  0.000
  0.000  0.666  0.000  0.000  0.334
    occupations:
  0.821 -0.000  0.000  0.000 -0.164
 -0.000  0.667 -0.114 -0.000  0.000
  0.000 -0.114  0.667 -0.000 -0.000
  0.000 -0.000 -0.000  0.716 -0.000
 -0.164  0.000 -0.000 -0.000  0.706
atomic mag. moment =    -0.000000
atom    7   Tr[ns(na)] (up, down, total) =   3.57697  3.57697  7.15394
   spin  1
    eigenvalues: 
  0.553  0.589  0.716  0.781  0.937
    eigenvectors:
  0.000  0.334  0.000  0.000  0.666
  0.500  0.000  0.000  0.500  0.000
  0.500  0.000  0.000  0.500  0.000
  0.000  0.000  1.000  0.000  0.000
  0.000  0.666  0.000  0.000  0.334
    occupations:
  0.821 -0.000 -0.000 -0.000  0.164
 -0.000  0.667  0.114  0.000  0.000
 -0.000  0.114  0.667  0.000  0.000
 -0.000  0.000  0.000  0.716 -0.000
  0.164  0.000  0.000 -0.000  0.706
   spin  2
    eigenvalues: 
  0.553  0.589  0.716  0.781  0.937
    eigenvectors:
  0.000  0.334  0.000  0.000  0.666
  0.500  0.000  0.000  0.500  0.000
  0.500  0.000  0.000  0.500  0.000
  0.000  0.000  1.000  0.000  0.000
  0.000  0.666  0.000  0.000  0.334
    occupations:
  0.821 -0.000 -0.000 -0.000  0.164
 -0.000  0.667  0.114  0.000  0.000
 -0.000  0.114  0.667  0.000  0.000
 -0.000  0.000  0.000  0.716 -0.000
  0.164  0.000  0.000 -0.000  0.706
atomic mag. moment =     0.000002
atom    8   Tr[ns(na)] (up, down, total) =   3.57705  3.57705  7.15409
   spin  1
    eigenvalues: 
  0.553  0.589  0.716  0.781  0.937
    eigenvectors:
  0.000  0.334  0.000  0.000  0.666
  0.500  0.000  0.000  0.500  0.000
  0.500  0.000  0.000  0.500  0.000
  0.000  0.000  1.000  0.000  0.000
  0.000  0.666  0.000  0.000  0.334
    occupations:
  0.821  0.000 -0.000  0.000 -0.164
  0.000  0.667 -0.114  0.000 -0.000
 -0.000 -0.114  0.667  0.000  0.000
  0.000  0.000  0.000  0.716 -0.000
 -0.164 -0.000  0.000 -0.000  0.706
   spin  2
    eigenvalues: 
  0.553  0.589  0.716  0.781  0.937
    eigenvectors:
  0.000  0.334  0.000  0.000  0.666
  0.500  0.000  0.000  0.500  0.000
  0.500  0.000  0.000  0.500  0.000
  0.000  0.000  1.000  0.000  0.000
  0.000  0.666  0.000  0.000  0.334
    occupations:
  0.821  0.000 -0.000  0.000 -0.164
  0.000  0.667 -0.114  0.000 -0.000
 -0.000 -0.114  0.667  0.000  0.000
  0.000  0.000  0.000  0.716 -0.000
 -0.164 -0.000  0.000 -0.000  0.706
atomic mag. moment =    -0.000000
atom    9   Tr[ns(na)] (up, down, total) =   3.57685  3.57685  7.15370
   spin  1
    eigenvalues: 
  0.553  0.589  0.716  0.781  0.937
    eigenvectors:
  0.000  0.334  0.000  0.000  0.666
  0.500  0.000  0.000  0.500  0.000
  0.500  0.000  0.000  0.500  0.000
  0.000  0.000  1.000  0.000  0.000
  0.000  0.666  0.000  0.000  0.334
    occupations:
  0.821 -0.000 -0.000  0.000  0.164
 -0.000  0.667  0.114  0.000  0.000
 -0.000  0.114  0.667  0.000  0.000
  0.000  0.000  0.000  0.716  0.000
  0.164  0.000  0.000  0.000  0.705
   spin  2
    eigenvalues: 
  0.553  0.589  0.716  0.781  0.937
    eigenvectors:
  0.000  0.334  0.000  0.000  0.666
  0.500  0.000  0.000  0.500  0.000
  0.500  0.000  0.000  0.500  0.000
  0.000  0.000  1.000  0.000  0.000
  0.000  0.666  0.000  0.000  0.334
    occupations:
  0.821 -0.000 -0.000  0.000  0.164
 -0.000  0.667  0.114  0.000  0.000
 -0.000  0.114  0.667  0.000  0.000
  0.000  0.000  0.000  0.716  0.000
  0.164  0.000  0.000  0.000  0.705
atomic mag. moment =    -0.000001
atom   10   Tr[ns(na)] (up, down, total) =   3.57705  3.57705  7.15409
   spin  1
    eigenvalues: 
  0.553  0.589  0.716  0.781  0.937
    eigenvectors:
  0.000  0.334  0.000  0.000  0.666
  0.500  0.000  0.000  0.500  0.000
  0.500  0.000  0.000  0.500  0.000
  0.000  0.000  1.000  0.000  0.000
  0.000  0.666  0.000  0.000  0.334
    occupations:
  0.821  0.000 -0.000  0.000 -0.164
  0.000  0.667 -0.114  0.000 -0.000
 -0.000 -0.114  0.667  0.000  0.000
  0.000  0.000  0.000  0.716 -0.000
 -0.164 -0.000  0.000 -0.000  0.706
   spin  2
    eigenvalues: 
  0.553  0.589  0.716  0.781  0.937
    eigenvectors:
  0.000  0.334  0.000  0.000  0.666
  0.500  0.000  0.000  0.500  0.000
  0.500  0.000  0.000  0.500  0.000
  0.000  0.000  1.000  0.000  0.000
  0.000  0.666  0.000  0.000  0.334
    occupations:
  0.821  0.000 -0.000  0.000 -0.164
  0.000  0.667 -0.114  0.000 -0.000
 -0.000 -0.114  0.667  0.000  0.000
  0.000  0.000  0.000  0.716 -0.000
 -0.164 -0.000  0.000 -0.000  0.706
atomic mag. moment =    -0.000000
atom   11   Tr[ns(na)] (up, down, total) =   3.57697  3.57697  7.15394
   spin  1
    eigenvalues: 
  0.553  0.589  0.716  0.781  0.937
    eigenvectors:
  0.000  0.334  0.000  0.000  0.666
  0.500  0.000  0.000  0.500  0.000
  0.500  0.000  0.000  0.500  0.000
  0.000  0.000  1.000  0.000  0.000
  0.000  0.666  0.000  0.000  0.334
    occupations:
  0.821 -0.000 -0.000  0.000  0.164
 -0.000  0.667  0.114  0.000  0.000
 -0.000  0.114  0.667  0.000  0.000
  0.000  0.000  0.000  0.716  0.000
  0.164  0.000  0.000  0.000  0.706
   spin  2
    eigenvalues: 
  0.553  0.589  0.716  0.781  0.937
    eigenvectors:
  0.000  0.334  0.000  0.000  0.666
  0.500  0.000  0.000  0.500  0.000
  0.500  0.000  0.000  0.500  0.000
  0.000  0.000  1.000  0.000  0.000
  0.000  0.666  0.000  0.000  0.334
    occupations:
  0.821 -0.000 -0.000  0.000  0.164
 -0.000  0.667  0.114  0.000  0.000
 -0.000  0.114  0.667  0.000  0.000
  0.000  0.000  0.000  0.716  0.000
  0.164  0.000  0.000  0.000  0.706
atomic mag. moment =     0.000002
atom   12   Tr[ns(na)] (up, down, total) =   3.57705  3.57705  7.15409
   spin  1
    eigenvalues: 
  0.553  0.589  0.716  0.781  0.937
    eigenvectors:
  0.000  0.334  0.000  0.000  0.666
  0.500  0.000  0.000  0.500  0.000
  0.500  0.000  0.000  0.500  0.000
  0.000  0.000  1.000  0.000  0.000
  0.000  0.666  0.000  0.000  0.334
    occupations:
  0.821 -0.000  0.000  0.000 -0.164
 -0.000  0.667 -0.114 -0.000  0.000
  0.000 -0.114  0.667 -0.000 -0.000
  0.000 -0.000 -0.000  0.716 -0.000
 -0.164  0.000 -0.000 -0.000  0.706
   spin  2
    eigenvalues: 
  0.553  0.589  0.716  0.781  0.937
    eigenvectors:
  0.000  0.334  0.000  0.000  0.666
  0.500  0.000  0.000  0.500  0.000
  0.500  0.000  0.000  0.500  0.000
  0.000  0.000  1.000  0.000  0.000
  0.000  0.666  0.000  0.000  0.334
    occupations:
  0.821 -0.000  0.000  0.000 -0.164
 -0.000  0.667 -0.114 -0.000  0.000
  0.000 -0.114  0.667 -0.000 -0.000
  0.000 -0.000 -0.000  0.716 -0.000
 -0.164  0.000 -0.000 -0.000  0.706
atomic mag. moment =    -0.000000
atom   13   Tr[ns(na)] (up, down, total) =   3.57724  3.57724  7.15448
   spin  1
    eigenvalues: 
  0.553  0.589  0.716  0.781  0.937
    eigenvectors:
  0.000  0.334  0.000  0.000  0.666
  0.500  0.000  0.000  0.500  0.000
  0.500  0.000  0.000  0.500  0.000
  0.000  0.000  1.000  0.000  0.000
  0.000  0.666  0.000  0.000  0.334
    occupations:
  0.821 -0.000 -0.000 -0.000  0.164
 -0.000  0.667  0.114  0.000  0.000
 -0.000  0.114  0.667  0.000  0.000
 -0.000  0.000  0.000  0.716 -0.000
  0.164  0.000  0.000 -0.000  0.706
   spin  2
    eigenvalues: 
  0.553  0.589  0.716  0.781  0.937
    eigenvectors:
  0.000  0.334  0.000  0.000  0.666
  0.500  0.000  0.000  0.500  0.000
  0.500  0.000  0.000  0.500  0.000
  0.000  0.000  1.000  0.000  0.000
  0.000  0.666  0.000  0.000  0.334
    occupations:
  0.821 -0.000 -0.000 -0.000  0.164
 -0.000  0.667  0.114  0.000  0.000
 -0.000  0.114  0.667  0.000  0.000
 -0.000  0.000  0.000  0.716 -0.000
  0.164  0.000  0.000 -0.000  0.706
atomic mag. moment =    -0.000000
atom   14   Tr[ns(na)] (up, down, total) =   3.57690  3.57690  7.15380
   spin  1
    eigenvalues: 
  0.553  0.589  0.716  0.781  0.937
    eigenvectors:
  0.000  0.334  0.000  0.000  0.666
  0.500  0.000  0.000  0.500  0.000
  0.500  0.000  0.000  0.500  0.000
  0.000  0.000  1.000  0.000  0.000
  0.000  0.666  0.000  0.000  0.334
    occupations:
  0.821 -0.000 -0.000  0.000 -0.164
 -0.000  0.667 -0.114  0.000 -0.000
 -0.000 -0.114  0.667 -0.000 -0.000
  0.000  0.000 -0.000  0.716 -0.000
 -0.164 -0.000 -0.000 -0.000  0.706
   spin  2
    eigenvalues: 
  0.553  0.589  0.716  0.781  0.937
    eigenvectors:
  0.000  0.334  0.000  0.000  0.666
  0.500  0.000  0.000  0.500  0.000
  0.500  0.000  0.000  0.500  0.000
  0.000  0.000  1.000  0.000  0.000
  0.000  0.666  0.000  0.000  0.334
    occupations:
  0.821 -0.000 -0.000  0.000 -0.164
 -0.000  0.667 -0.114  0.000 -0.000
 -0.000 -0.114  0.667 -0.000 -0.000
  0.000  0.000 -0.000  0.716 -0.000
 -0.164 -0.000 -0.000 -0.000  0.706
atomic mag. moment =     0.000000
atom   15   Tr[ns(na)] (up, down, total) =   3.57728  3.57728  7.15456
   spin  1
    eigenvalues: 
  0.553  0.589  0.716  0.781  0.937
    eigenvectors:
  0.000  0.334  0.000  0.000  0.666
  0.500  0.000  0.000  0.500  0.000
  0.500  0.000  0.000  0.500  0.000
  0.000  0.000  1.000  0.000  0.000
  0.000  0.666  0.000  0.000  0.334
    occupations:
  0.821 -0.000 -0.000 -0.000  0.164
 -0.000  0.667  0.114  0.000  0.000
 -0.000  0.114  0.667  0.000  0.000
 -0.000  0.000  0.000  0.716 -0.000
  0.164  0.000  0.000 -0.000  0.706
   spin  2
    eigenvalues: 
  0.553  0.589  0.716  0.781  0.937
    eigenvectors:
  0.000  0.334  0.000  0.000  0.666
  0.500  0.000  0.000  0.500  0.000
  0.500  0.000  0.000  0.500  0.000
  0.000  0.000  1.000  0.000  0.000
  0.000  0.666  0.000  0.000  0.334
    occupations:
  0.821 -0.000 -0.000 -0.000  0.164
 -0.000  0.667  0.114  0.000  0.000
 -0.000  0.114  0.667  0.000  0.000
 -0.000  0.000  0.000  0.716 -0.000
  0.164  0.000  0.000 -0.000  0.706
atomic mag. moment =     0.000002
atom   16   Tr[ns(na)] (up, down, total) =   3.57690  3.57690  7.15380
   spin  1
    eigenvalues: 
  0.553  0.589  0.716  0.781  0.937
    eigenvectors:
  0.000  0.334  0.000  0.000  0.666
  0.500  0.000  0.000  0.500  0.000
  0.500  0.000  0.000  0.500  0.000
  0.000  0.000  1.000  0.000  0.000
  0.000  0.666  0.000  0.000  0.334
    occupations:
  0.821  0.000  0.000  0.000 -0.164
  0.000  0.667 -0.114 -0.000  0.000
  0.000 -0.114  0.667  0.000  0.000
  0.000 -0.000  0.000  0.716 -0.000
 -0.164  0.000  0.000 -0.000  0.706
   spin  2
    eigenvalues: 
  0.553  0.589  0.716  0.781  0.937
    eigenvectors:
  0.000  0.334  0.000  0.000  0.666
  0.500  0.000  0.000  0.500  0.000
  0.500  0.000  0.000  0.500  0.000
  0.000  0.000  1.000  0.000  0.000
  0.000  0.666  0.000  0.000  0.334
    occupations:
  0.821  0.000  0.000  0.000 -0.164
  0.000  0.667 -0.114 -0.000  0.000
  0.000 -0.114  0.667  0.000  0.000
  0.000 -0.000  0.000  0.716 -0.000
 -0.164  0.000  0.000 -0.000  0.706
atomic mag. moment =     0.000000
atom   17   Tr[ns(na)] (up, down, total) =   2.65809  2.65809  5.31617
   spin  1
    eigenvalues: 
  0.878  0.886  0.894
    eigenvectors:
  0.000  0.000  1.000
  0.500  0.500  0.000
  0.500  0.500  0.000
    occupations:
  0.894 -0.000 -0.000
 -0.000  0.882  0.004
 -0.000  0.004  0.882
   spin  2
    eigenvalues: 
  0.878  0.886  0.894
    eigenvectors:
  0.000  0.000  1.000
  0.500  0.500  0.000
  0.500  0.500  0.000
    occupations:
  0.894 -0.000 -0.000
 -0.000  0.882  0.004
 -0.000  0.004  0.882
atomic mag. moment =     0.000000
atom   18   Tr[ns(na)] (up, down, total) =   2.65809  2.65809  5.31617
   spin  1
    eigenvalues: 
  0.878  0.886  0.894
    eigenvectors:
  0.000  0.000  1.000
  0.500  0.500  0.000
  0.500  0.500  0.000
    occupations:
  0.894 -0.000 -0.000
 -0.000  0.882  0.004
 -0.000  0.004  0.882
   spin  2
    eigenvalues: 
  0.878  0.886  0.894
    eigenvectors:
  0.000  0.000  1.000
  0.500  0.500  0.000
  0.500  0.500  0.000
    occupations:
  0.894 -0.000 -0.000
 -0.000  0.882  0.004
 -0.000  0.004  0.882
atomic mag. moment =     0.000000
atom   19   Tr[ns(na)] (up, down, total) =   2.65808  2.65808  5.31615
   spin  1
    eigenvalues: 
  0.878  0.886  0.894
    eigenvectors:
  0.000  0.000  1.000
  0.500  0.500  0.000
  0.500  0.500  0.000
    occupations:
  0.894  0.000 -0.000
  0.000  0.882 -0.004
 -0.000 -0.004  0.882
   spin  2
    eigenvalues: 
  0.878  0.886  0.894
    eigenvectors:
  0.000  0.000  1.000
  0.500  0.500  0.000
  0.500  0.500  0.000
    occupations:
  0.894  0.000 -0.000
  0.000  0.882 -0.004
 -0.000 -0.004  0.882
atomic mag. moment =     0.000000
atom   20   Tr[ns(na)] (up, down, total) =   2.65808  2.65808  5.31615
   spin  1
    eigenvalues: 
  0.878  0.886  0.894
    eigenvectors:
  0.000  0.000  1.000
  0.500  0.500  0.000
  0.500  0.500  0.000
    occupations:
  0.894 -0.000  0.000
 -0.000  0.882 -0.004
  0.000 -0.004  0.882
   spin  2
    eigenvalues: 
  0.878  0.886  0.894
    eigenvectors:
  0.000  0.000  1.000
  0.500  0.500  0.000
  0.500  0.500  0.000
    occupations:
  0.894 -0.000  0.000
 -0.000  0.882 -0.004
  0.000 -0.004  0.882
atomic mag. moment =     0.000000
atom   21   Tr[ns(na)] (up, down, total) =   2.65806  2.65806  5.31612
   spin  1
    eigenvalues: 
  0.878  0.886  0.894
    eigenvectors:
  0.000  0.000  1.000
  0.500  0.500  0.000
  0.500  0.500  0.000
    occupations:
  0.894 -0.000 -0.000
 -0.000  0.882  0.004
 -0.000  0.004  0.882
   spin  2
    eigenvalues: 
  0.878  0.886  0.894
    eigenvectors:
  0.000  0.000  1.000
  0.500  0.500  0.000
  0.500  0.500  0.000
    occupations:
  0.894 -0.000 -0.000
 -0.000  0.882  0.004
 -0.000  0.004  0.882
atomic mag. moment =     0.000000
atom   22   Tr[ns(na)] (up, down, total) =   2.65806  2.65806  5.31612
   spin  1
    eigenvalues: 
  0.878  0.886  0.894
    eigenvectors:
  0.000  0.000  1.000
  0.500  0.500  0.000
  0.500  0.500  0.000
    occupations:
  0.894 -0.000 -0.000
 -0.000  0.882  0.004
 -0.000  0.004  0.882
   spin  2
    eigenvalues: 
  0.878  0.886  0.894
    eigenvectors:
  0.000  0.000  1.000
  0.500  0.500  0.000
  0.500  0.500  0.000
    occupations:
  0.894 -0.000 -0.000
 -0.000  0.882  0.004
 -0.000  0.004  0.882
atomic mag. moment =     0.000000
atom   23   Tr[ns(na)] (up, down, total) =   2.65808  2.65808  5.31615
   spin  1
    eigenvalues: 
  0.878  0.886  0.894
    eigenvectors:
  0.000  0.000  1.000
  0.500  0.500  0.000
  0.500  0.500  0.000
    occupations:
  0.894 -0.000  0.000
 -0.000  0.882 -0.004
  0.000 -0.004  0.882
   spin  2
    eigenvalues: 
  0.878  0.886  0.894
    eigenvectors:
  0.000  0.000  1.000
  0.500  0.500  0.000
  0.500  0.500  0.000
    occupations:
  0.894 -0.000  0.000
 -0.000  0.882 -0.004
  0.000 -0.004  0.882
atomic mag. moment =     0.000000
atom   24   Tr[ns(na)] (up, down, total) =   2.65808  2.65808  5.31615
   spin  1
    eigenvalues: 
  0.878  0.886  0.894
    eigenvectors:
  0.000  0.000  1.000
  0.500  0.500  0.000
  0.500  0.500  0.000
    occupations:
  0.894  0.000 -0.000
  0.000  0.882 -0.004
 -0.000 -0.004  0.882
   spin  2
    eigenvalues: 
  0.878  0.886  0.894
    eigenvectors:
  0.000  0.000  1.000
  0.500  0.500  0.000
  0.500  0.500  0.000
    occupations:
  0.894  0.000 -0.000
  0.000  0.882 -0.004
 -0.000 -0.004  0.882
atomic mag. moment =     0.000000
atom   25   Tr[ns(na)] (up, down, total) =   2.65809  2.65809  5.31618
   spin  1
    eigenvalues: 
  0.878  0.886  0.894
    eigenvectors:
  0.000  0.000  1.000
  0.500  0.500  0.000
  0.500  0.500  0.000
    occupations:
  0.894 -0.000 -0.000
 -0.000  0.882  0.004
 -0.000  0.004  0.882
   spin  2
    eigenvalues: 
  0.878  0.886  0.894
    eigenvectors:
  0.000  0.000  1.000
  0.500  0.500  0.000
  0.500  0.500  0.000
    occupations:
  0.894 -0.000 -0.000
 -0.000  0.882  0.004
 -0.000  0.004  0.882
atomic mag. moment =    -0.000000
atom   26   Tr[ns(na)] (up, down, total) =   2.65809  2.65809  5.31618
   spin  1
    eigenvalues: 
  0.878  0.886  0.894
    eigenvectors:
  0.000  0.000  1.000
  0.500  0.500  0.000
  0.500  0.500  0.000
    occupations:
  0.894 -0.000 -0.000
 -0.000  0.882  0.004
 -0.000  0.004  0.882
   spin  2
    eigenvalues: 
  0.878  0.886  0.894
    eigenvectors:
  0.000  0.000  1.000
  0.500  0.500  0.000
  0.500  0.500  0.000
    occupations:
  0.894 -0.000 -0.000
 -0.000  0.882  0.004
 -0.000  0.004  0.882
atomic mag. moment =    -0.000000
atom   27   Tr[ns(na)] (up, down, total) =   2.65811  2.65811  5.31623
   spin  1
    eigenvalues: 
  0.878  0.886  0.894
    eigenvectors:
  0.000  0.000  1.000
  0.500  0.500  0.000
  0.500  0.500  0.000
    occupations:
  0.894  0.000 -0.000
  0.000  0.882 -0.004
 -0.000 -0.004  0.882
   spin  2
    eigenvalues: 
  0.878  0.886  0.894
    eigenvectors:
  0.000  0.000  1.000
  0.500  0.500  0.000
  0.500  0.500  0.000
    occupations:
  0.894  0.000 -0.000
  0.000  0.882 -0.004
 -0.000 -0.004  0.882
atomic mag. moment =     0.000000
atom   28   Tr[ns(na)] (up, down, total) =   2.65810  2.65810  5.31619
   spin  1
    eigenvalues: 
  0.878  0.886  0.894
    eigenvectors:
  0.000  0.000  1.000
  0.500  0.500  0.000
  0.500  0.500  0.000
    occupations:
  0.894 -0.000  0.000
 -0.000  0.882 -0.004
  0.000 -0.004  0.882
   spin  2
    eigenvalues: 
  0.878  0.886  0.894
    eigenvectors:
  0.000  0.000  1.000
  0.500  0.500  0.000
  0.500  0.500  0.000
    occupations:
  0.894 -0.000  0.000
 -0.000  0.882 -0.004
  0.000 -0.004  0.882
atomic mag. moment =     0.000000
atom   29   Tr[ns(na)] (up, down, total) =   2.65808  2.65808  5.31615
   spin  1
    eigenvalues: 
  0.878  0.886  0.894
    eigenvectors:
  0.000  0.000  1.000
  0.500  0.500  0.000
  0.500  0.500  0.000
    occupations:
  0.894 -0.000 -0.000
 -0.000  0.882  0.004
 -0.000  0.004  0.882
   spin  2
    eigenvalues: 
  0.878  0.886  0.894
    eigenvectors:
  0.000  0.000  1.000
  0.500  0.500  0.000
  0.500  0.500  0.000
    occupations:
  0.894 -0.000 -0.000
 -0.000  0.882  0.004
 -0.000  0.004  0.882
atomic mag. moment =     0.000000
atom   30   Tr[ns(na)] (up, down, total) =   2.65808  2.65808  5.31615
   spin  1
    eigenvalues: 
  0.878  0.886  0.894
    eigenvectors:
  0.000  0.000  1.000
  0.500  0.500  0.000
  0.500  0.500  0.000
    occupations:
  0.894 -0.000 -0.000
 -0.000  0.882  0.004
 -0.000  0.004  0.882
   spin  2
    eigenvalues: 
  0.878  0.886  0.894
    eigenvectors:
  0.000  0.000  1.000
  0.500  0.500  0.000
  0.500  0.500  0.000
    occupations:
  0.894 -0.000 -0.000
 -0.000  0.882  0.004
 -0.000  0.004  0.882
atomic mag. moment =     0.000000
atom   31   Tr[ns(na)] (up, down, total) =   2.65811  2.65811  5.31623
   spin  1
    eigenvalues: 
  0.878  0.886  0.894
    eigenvectors:
  0.000  0.000  1.000
  0.500  0.500  0.000
  0.500  0.500  0.000
    occupations:
  0.894 -0.000  0.000
 -0.000  0.882 -0.004
  0.000 -0.004  0.882
   spin  2
    eigenvalues: 
  0.878  0.886  0.894
    eigenvectors:
  0.000  0.000  1.000
  0.500  0.500  0.000
  0.500  0.500  0.000
    occupations:
  0.894 -0.000  0.000
 -0.000  0.882 -0.004
  0.000 -0.004  0.882
atomic mag. moment =     0.000000
atom   32   Tr[ns(na)] (up, down, total) =   2.65810  2.65810  5.31619
   spin  1
    eigenvalues: 
  0.878  0.886  0.894
    eigenvectors:
  0.000  0.000  1.000
  0.500  0.500  0.000
  0.500  0.500  0.000
    occupations:
  0.894  0.000 -0.000
  0.000  0.882 -0.004
 -0.000 -0.004  0.882
   spin  2
    eigenvalues: 
  0.878  0.886  0.894
    eigenvectors:
  0.000  0.000  1.000
  0.500  0.500  0.000
  0.500  0.500  0.000
    occupations:
  0.894  0.000 -0.000
  0.000  0.882 -0.004
 -0.000 -0.004  0.882
atomic mag. moment =     0.000000
atom   33   Tr[ns(na)] (up, down, total) =   2.65809  2.65809  5.31618
   spin  1
    eigenvalues: 
  0.878  0.886  0.894
    eigenvectors:
  0.000  0.000  1.000
  0.500  0.500  0.000
  0.500  0.500  0.000
    occupations:
  0.894 -0.000 -0.000
 -0.000  0.882  0.004
 -0.000  0.004  0.882
   spin  2
    eigenvalues: 
  0.878  0.886  0.894
    eigenvectors:
  0.000  0.000  1.000
  0.500  0.500  0.000
  0.500  0.500  0.000
    occupations:
  0.894 -0.000 -0.000
 -0.000  0.882  0.004
 -0.000  0.004  0.882
atomic mag. moment =    -0.000000
atom   34   Tr[ns(na)] (up, down, total) =   2.65809  2.65809  5.31618
   spin  1
    eigenvalues: 
  0.878  0.886  0.894
    eigenvectors:
  0.000  0.000  1.000
  0.500  0.500  0.000
  0.500  0.500  0.000
    occupations:
  0.894 -0.000 -0.000
 -0.000  0.882  0.004
 -0.000  0.004  0.882
   spin  2
    eigenvalues: 
  0.878  0.886  0.894
    eigenvectors:
  0.000  0.000  1.000
  0.500  0.500  0.000
  0.500  0.500  0.000
    occupations:
  0.894 -0.000 -0.000
 -0.000  0.882  0.004
 -0.000  0.004  0.882
atomic mag. moment =    -0.000000
atom   35   Tr[ns(na)] (up, down, total) =   2.65810  2.65810  5.31619
   spin  1
    eigenvalues: 
  0.878  0.886  0.894
    eigenvectors:
  0.000  0.000  1.000
  0.500  0.500  0.000
  0.500  0.500  0.000
    occupations:
  0.894  0.000 -0.000
  0.000  0.882 -0.004
 -0.000 -0.004  0.882
   spin  2
    eigenvalues: 
  0.878  0.886  0.894
    eigenvectors:
  0.000  0.000  1.000
  0.500  0.500  0.000
  0.500  0.500  0.000
    occupations:
  0.894  0.000 -0.000
  0.000  0.882 -0.004
 -0.000 -0.004  0.882
atomic mag. moment =     0.000000
atom   36   Tr[ns(na)] (up, down, total) =   2.65811  2.65811  5.31623
   spin  1
    eigenvalues: 
  0.878  0.886  0.894
    eigenvectors:
  0.000  0.000  1.000
  0.500  0.500  0.000
  0.500  0.500  0.000
    occupations:
  0.894 -0.000  0.000
 -0.000  0.882 -0.004
  0.000 -0.004  0.882
   spin  2
    eigenvalues: 
  0.878  0.886  0.894
    eigenvectors:
  0.000  0.000  1.000
  0.500  0.500  0.000
  0.500  0.500  0.000
    occupations:
  0.894 -0.000  0.000
 -0.000  0.882 -0.004
  0.000 -0.004  0.882
atomic mag. moment =     0.000000
atom   37   Tr[ns(na)] (up, down, total) =   2.65808  2.65808  5.31615
   spin  1
    eigenvalues: 
  0.878  0.886  0.894
    eigenvectors:
  0.000  0.000  1.000
  0.500  0.500  0.000
  0.500  0.500  0.000
    occupations:
  0.894 -0.000 -0.000
 -0.000  0.882  0.004
 -0.000  0.004  0.882
   spin  2
    eigenvalues: 
  0.878  0.886  0.894
    eigenvectors:
  0.000  0.000  1.000
  0.500  0.500  0.000
  0.500  0.500  0.000
    occupations:
  0.894 -0.000 -0.000
 -0.000  0.882  0.004
 -0.000  0.004  0.882
atomic mag. moment =     0.000000
atom   38   Tr[ns(na)] (up, down, total) =   2.65808  2.65808  5.31615
   spin  1
    eigenvalues: 
  0.878  0.886  0.894
    eigenvectors:
  0.000  0.000  1.000
  0.500  0.500  0.000
  0.500  0.500  0.000
    occupations:
  0.894 -0.000 -0.000
 -0.000  0.882  0.004
 -0.000  0.004  0.882
   spin  2
    eigenvalues: 
  0.878  0.886  0.894
    eigenvectors:
  0.000  0.000  1.000
  0.500  0.500  0.000
  0.500  0.500  0.000
    occupations:
  0.894 -0.000 -0.000
 -0.000  0.882  0.004
 -0.000  0.004  0.882
atomic mag. moment =     0.000000
atom   39   Tr[ns(na)] (up, down, total) =   2.65810  2.65810  5.31619
   spin  1
    eigenvalues: 
  0.878  0.886  0.894
    eigenvectors:
  0.000  0.000  1.000
  0.500  0.500  0.000
  0.500  0.500  0.000
    occupations:
  0.894 -0.000  0.000
 -0.000  0.882 -0.004
  0.000 -0.004  0.882
   spin  2
    eigenvalues: 
  0.878  0.886  0.894
    eigenvectors:
  0.000  0.000  1.000
  0.500  0.500  0.000
  0.500  0.500  0.000
    occupations:
  0.894 -0.000  0.000
 -0.000  0.882 -0.004
  0.000 -0.004  0.882
atomic mag. moment =     0.000000
atom   40   Tr[ns(na)] (up, down, total) =   2.65811  2.65811  5.31623
   spin  1
    eigenvalues: 
  0.878  0.886  0.894
    eigenvectors:
  0.000  0.000  1.000
  0.500  0.500  0.000
  0.500  0.500  0.000
    occupations:
  0.894  0.000 -0.000
  0.000  0.882 -0.004
 -0.000 -0.004  0.882
   spin  2
    eigenvalues: 
  0.878  0.886  0.894
    eigenvectors:
  0.000  0.000  1.000
  0.500  0.500  0.000
  0.500  0.500  0.000
    occupations:
  0.894  0.000 -0.000
  0.000  0.882 -0.004
 -0.000 -0.004  0.882
atomic mag. moment =     0.000000
atom   41   Tr[ns(na)] (up, down, total) =   2.65808  2.65808  5.31616
   spin  1
    eigenvalues: 
  0.878  0.886  0.894
    eigenvectors:
  0.000  0.000  1.000
  0.500  0.500  0.000
  0.500  0.500  0.000
    occupations:
  0.894 -0.000 -0.000
 -0.000  0.882  0.004
 -0.000  0.004  0.882
   spin  2
    eigenvalues: 
  0.878  0.886  0.894
    eigenvectors:
  0.000  0.000  1.000
  0.500  0.500  0.000
  0.500  0.500  0.000
    occupations:
  0.894 -0.000 -0.000
 -0.000  0.882  0.004
 -0.000  0.004  0.882
atomic mag. moment =     0.000000
atom   42   Tr[ns(na)] (up, down, total) =   2.65808  2.65808  5.31616
   spin  1
    eigenvalues: 
  0.878  0.886  0.894
    eigenvectors:
  0.000  0.000  1.000
  0.500  0.500  0.000
  0.500  0.500  0.000
    occupations:
  0.894 -0.000 -0.000
 -0.000  0.882  0.004
 -0.000  0.004  0.882
   spin  2
    eigenvalues: 
  0.878  0.886  0.894
    eigenvectors:
  0.000  0.000  1.000
  0.500  0.500  0.000
  0.500  0.500  0.000
    occupations:
  0.894 -0.000 -0.000
 -0.000  0.882  0.004
 -0.000  0.004  0.882
atomic mag. moment =     0.000000
atom   43   Tr[ns(na)] (up, down, total) =   2.65808  2.65808  5.31615
   spin  1
    eigenvalues: 
  0.878  0.886  0.894
    eigenvectors:
  0.000  0.000  1.000
  0.500  0.500  0.000
  0.500  0.500  0.000
    occupations:
  0.894  0.000 -0.000
  0.000  0.882 -0.004
 -0.000 -0.004  0.882
   spin  2
    eigenvalues: 
  0.878  0.886  0.894
    eigenvectors:
  0.000  0.000  1.000
  0.500  0.500  0.000
  0.500  0.500  0.000
    occupations:
  0.894  0.000 -0.000
  0.000  0.882 -0.004
 -0.000 -0.004  0.882
atomic mag. moment =     0.000000
atom   44   Tr[ns(na)] (up, down, total) =   2.65808  2.65808  5.31615
   spin  1
    eigenvalues: 
  0.878  0.886  0.894
    eigenvectors:
  0.000  0.000  1.000
  0.500  0.500  0.000
  0.500  0.500  0.000
    occupations:
  0.894 -0.000  0.000
 -0.000  0.882 -0.004
  0.000 -0.004  0.882
   spin  2
    eigenvalues: 
  0.878  0.886  0.894
    eigenvectors:
  0.000  0.000  1.000
  0.500  0.500  0.000
  0.500  0.500  0.000
    occupations:
  0.894 -0.000  0.000
 -0.000  0.882 -0.004
  0.000 -0.004  0.882
atomic mag. moment =     0.000000
atom   45   Tr[ns(na)] (up, down, total) =   2.65808  2.65808  5.31616
   spin  1
    eigenvalues: 
  0.878  0.886  0.894
    eigenvectors:
  0.000  0.000  1.000
  0.500  0.500  0.000
  0.500  0.500  0.000
    occupations:
  0.894 -0.000 -0.000
 -0.000  0.882  0.004
 -0.000  0.004  0.882
   spin  2
    eigenvalues: 
  0.878  0.886  0.894
    eigenvectors:
  0.000  0.000  1.000
  0.500  0.500  0.000
  0.500  0.500  0.000
    occupations:
  0.894 -0.000 -0.000
 -0.000  0.882  0.004
 -0.000  0.004  0.882
atomic mag. moment =     0.000000
atom   46   Tr[ns(na)] (up, down, total) =   2.65808  2.65808  5.31616
   spin  1
    eigenvalues: 
  0.878  0.886  0.894
    eigenvectors:
  0.000  0.000  1.000
  0.500  0.500  0.000
  0.500  0.500  0.000
    occupations:
  0.894 -0.000 -0.000
 -0.000  0.882  0.004
 -0.000  0.004  0.882
   spin  2
    eigenvalues: 
  0.878  0.886  0.894
    eigenvectors:
  0.000  0.000  1.000
  0.500  0.500  0.000
  0.500  0.500  0.000
    occupations:
  0.894 -0.000 -0.000
 -0.000  0.882  0.004
 -0.000  0.004  0.882
atomic mag. moment =     0.000000
atom   47   Tr[ns(na)] (up, down, total) =   2.65808  2.65808  5.31615
   spin  1
    eigenvalues: 
  0.878  0.886  0.894
    eigenvectors:
  0.000  0.000  1.000
  0.500  0.500  0.000
  0.500  0.500  0.000
    occupations:
  0.894 -0.000  0.000
 -0.000  0.882 -0.004
  0.000 -0.004  0.882
   spin  2
    eigenvalues: 
  0.878  0.886  0.894
    eigenvectors:
  0.000  0.000  1.000
  0.500  0.500  0.000
  0.500  0.500  0.000
    occupations:
  0.894 -0.000  0.000
 -0.000  0.882 -0.004
  0.000 -0.004  0.882
atomic mag. moment =     0.000000
atom   48   Tr[ns(na)] (up, down, total) =   2.65808  2.65808  5.31615
   spin  1
    eigenvalues: 
  0.878  0.886  0.894
    eigenvectors:
  0.000  0.000  1.000
  0.500  0.500  0.000
  0.500  0.500  0.000
    occupations:
  0.894  0.000 -0.000
  0.000  0.882 -0.004
 -0.000 -0.004  0.882
   spin  2
    eigenvalues: 
  0.878  0.886  0.894
    eigenvectors:
  0.000  0.000  1.000
  0.500  0.500  0.000
  0.500  0.500  0.000
    occupations:
  0.894  0.000 -0.000
  0.000  0.882 -0.004
 -0.000 -0.004  0.882
atomic mag. moment =     0.000000
N of occupied +U levels = 284.5816921
 --- exit write_ns ---
 Atomic wfc used for LDA+U Projector are NOT orthogonalized
     Starting wfc from file

     total cpu time spent up to now is      106.3 secs

     per-process dynamical memory:    98.2 Mb

     Self-consistent Calculation

     iteration #  1     ecut=    40.00 Ry     beta=0.70
     Davidson diagonalization with overlap
     ethr =  2.95E-10,  avg # of iterations =  6.8
 --- enter write_ns ---
 LDA+U parameters:
U( 1)     =  0.00000000
alpha( 1) = -0.15000000
U( 2)     =  0.00000000
alpha( 2) =  0.00000000
U( 3)     =  0.00000000
alpha( 3) =  0.00000000
atom    1   Tr[ns(na)] (up, down, total) =   3.65652  3.65652  7.31303
   spin  1
    eigenvalues: 
  0.560  0.596  0.741  0.806  0.953
    eigenvectors:
  0.000  0.335  0.000  0.000  0.665
  0.500  0.000  0.000  0.500  0.000
  0.500  0.000  0.000  0.500  0.000
  0.000  0.000  1.000  0.000  0.000
  0.000  0.665  0.000  0.000  0.335
    occupations:
  0.833 -0.000 -0.000 -0.000  0.168
 -0.000  0.683  0.123  0.000  0.000
 -0.000  0.123  0.683  0.000  0.000
 -0.000  0.000  0.000  0.741 -0.000
  0.168  0.000  0.000 -0.000  0.716
   spin  2
    eigenvalues: 
  0.560  0.596  0.741  0.806  0.953
    eigenvectors:
  0.000  0.335  0.000  0.000  0.665
  0.500  0.000  0.000  0.500  0.000
  0.500  0.000  0.000  0.500  0.000
  0.000  0.000  1.000  0.000  0.000
  0.000  0.665  0.000  0.000  0.335
    occupations:
  0.833 -0.000 -0.000 -0.000  0.168
 -0.000  0.683  0.123  0.000  0.000
 -0.000  0.123  0.683  0.000  0.000
 -0.000  0.000  0.000  0.741 -0.000
  0.168  0.000  0.000 -0.000  0.716
atomic mag. moment =     0.000000
atom    2   Tr[ns(na)] (up, down, total) =   3.57476  3.57476  7.14953
   spin  1
    eigenvalues: 
  0.553  0.589  0.716  0.779  0.937
    eigenvectors:
  0.000  0.334  0.000  0.000  0.666
  0.500  0.000  0.000  0.500  0.000
  0.500  0.000  0.000  0.500  0.000
  0.000  0.000  1.000  0.000  0.000
  0.000  0.666  0.000  0.000  0.334
    occupations:
  0.821 -0.000 -0.000  0.000 -0.164
 -0.000  0.666 -0.113  0.001  0.000
 -0.000 -0.113  0.666 -0.001  0.000
  0.000  0.001 -0.001  0.716 -0.000
 -0.164  0.000  0.000 -0.000  0.705
   spin  2
    eigenvalues: 
  0.553  0.589  0.716  0.779  0.937
    eigenvectors:
  0.000  0.334  0.000  0.000  0.666
  0.500  0.000  0.000  0.500  0.000
  0.500  0.000  0.000  0.500  0.000
  0.000  0.000  1.000  0.000  0.000
  0.000  0.666  0.000  0.000  0.334
    occupations:
  0.821 -0.000 -0.000  0.000 -0.164
 -0.000  0.666 -0.113  0.001  0.000
 -0.000 -0.113  0.666 -0.001  0.000
  0.000  0.001 -0.001  0.716 -0.000
 -0.164  0.000  0.000 -0.000  0.705
atomic mag. moment =     0.000000
atom    3   Tr[ns(na)] (up, down, total) =   3.56340  3.56340  7.12681
   spin  1
    eigenvalues: 
  0.553  0.589  0.713  0.774  0.935
    eigenvectors:
  0.000  0.335  0.000  0.000  0.665
  0.500  0.000  0.000  0.500  0.000
  0.500  0.000  0.000  0.500  0.000
  0.000  0.000  1.000  0.000  0.000
  0.000  0.665  0.000  0.000  0.335
    occupations:
  0.819 -0.000 -0.000 -0.000  0.163
 -0.000  0.664  0.111  0.000  0.000
 -0.000  0.111  0.664  0.000  0.000
 -0.000  0.000  0.000  0.713 -0.000
  0.163  0.000  0.000 -0.000  0.705
   spin  2
    eigenvalues: 
  0.553  0.589  0.713  0.774  0.935
    eigenvectors:
  0.000  0.335  0.000  0.000  0.665
  0.500  0.000  0.000  0.500  0.000
  0.500  0.000  0.000  0.500  0.000
  0.000  0.000  1.000  0.000  0.000
  0.000  0.665  0.000  0.000  0.335
    occupations:
  0.819 -0.000 -0.000 -0.000  0.163
 -0.000  0.664  0.111  0.000  0.000
 -0.000  0.111  0.664  0.000  0.000
 -0.000  0.000  0.000  0.713 -0.000
  0.163  0.000  0.000 -0.000  0.705
atomic mag. moment =     0.000001
atom    4   Tr[ns(na)] (up, down, total) =   3.57476  3.57476  7.14953
   spin  1
    eigenvalues: 
  0.553  0.589  0.716  0.779  0.937
    eigenvectors:
  0.000  0.334  0.000  0.000  0.666
  0.500  0.000  0.000  0.500  0.000
  0.500  0.000  0.000  0.500  0.000
  0.000  0.000  1.000  0.000  0.000
  0.000  0.666  0.000  0.000  0.334
    occupations:
  0.821  0.000  0.000  0.000 -0.164
  0.000  0.666 -0.113 -0.001 -0.000
  0.000 -0.113  0.666  0.001 -0.000
  0.000 -0.001  0.001  0.716 -0.000
 -0.164 -0.000 -0.000 -0.000  0.705
   spin  2
    eigenvalues: 
  0.553  0.589  0.716  0.779  0.937
    eigenvectors:
  0.000  0.334  0.000  0.000  0.666
  0.500  0.000  0.000  0.500  0.000
  0.500  0.000  0.000  0.500  0.000
  0.000  0.000  1.000  0.000  0.000
  0.000  0.666  0.000  0.000  0.334
    occupations:
  0.821  0.000  0.000  0.000 -0.164
  0.000  0.666 -0.113 -0.001 -0.000
  0.000 -0.113  0.666  0.001 -0.000
  0.000 -0.001  0.001  0.716 -0.000
 -0.164 -0.000 -0.000 -0.000  0.705
atomic mag. moment =     0.000000
atom    5   Tr[ns(na)] (up, down, total) =   3.57762  3.57762  7.15523
   spin  1
    eigenvalues: 
  0.553  0.589  0.716  0.781  0.937
    eigenvectors:
  0.000  0.334  0.000  0.000  0.666
  0.500  0.000  0.000  0.500  0.000
  0.500  0.000  0.000  0.500  0.000
  0.000  0.000  1.000  0.000  0.000
  0.000  0.666  0.000  0.000  0.334
    occupations:
  0.821 -0.000 -0.000  0.000  0.164
 -0.000  0.667  0.114  0.000  0.000
 -0.000  0.114  0.667  0.000  0.000
  0.000  0.000  0.000  0.716 -0.000
  0.164  0.000  0.000 -0.000  0.706
   spin  2
    eigenvalues: 
  0.553  0.589  0.716  0.781  0.937
    eigenvectors:
  0.000  0.334  0.000  0.000  0.666
  0.500  0.000  0.000  0.500  0.000
  0.500  0.000  0.000  0.500  0.000
  0.000  0.000  1.000  0.000  0.000
  0.000  0.666  0.000  0.000  0.334
    occupations:
  0.821 -0.000 -0.000  0.000  0.164
 -0.000  0.667  0.114  0.000  0.000
 -0.000  0.114  0.667  0.000  0.000
  0.000  0.000  0.000  0.716 -0.000
  0.164  0.000  0.000 -0.000  0.706
atomic mag. moment =    -0.000001
atom    6   Tr[ns(na)] (up, down, total) =   3.57100  3.57100  7.14200
   spin  1
    eigenvalues: 
  0.553  0.589  0.714  0.780  0.935
    eigenvectors:
  0.000  0.334  0.000  0.000  0.666
  0.500  0.000  0.000  0.500  0.000
  0.500  0.000  0.000  0.500  0.000
  0.000  0.000  1.000  0.000  0.000
  0.000  0.666  0.000  0.000  0.334
    occupations:
  0.819 -0.000  0.000  0.000 -0.163
 -0.000  0.667 -0.113 -0.000 -0.000
  0.000 -0.113  0.667 -0.000  0.000
  0.000 -0.000 -0.000  0.714 -0.000
 -0.163 -0.000  0.000 -0.000  0.704
   spin  2
    eigenvalues: 
  0.553  0.589  0.714  0.780  0.935
    eigenvectors:
  0.000  0.334  0.000  0.000  0.666
  0.500  0.000  0.000  0.500  0.000
  0.500  0.000  0.000  0.500  0.000
  0.000  0.000  1.000  0.000  0.000
  0.000  0.666  0.000  0.000  0.334
    occupations:
  0.819 -0.000  0.000  0.000 -0.163
 -0.000  0.667 -0.113 -0.000 -0.000
  0.000 -0.113  0.667 -0.000  0.000
  0.000 -0.000 -0.000  0.714 -0.000
 -0.163 -0.000  0.000 -0.000  0.704
atomic mag. moment =    -0.000000
atom    7   Tr[ns(na)] (up, down, total) =   3.57490  3.57490  7.14979
   spin  1
    eigenvalues: 
  0.553  0.589  0.716  0.780  0.936
    eigenvectors:
  0.000  0.334  0.000  0.000  0.666
  0.500  0.000  0.000  0.500  0.000
  0.500  0.000  0.000  0.500  0.000
  0.000  0.000  1.000  0.000  0.000
  0.000  0.666  0.000  0.000  0.334
    occupations:
  0.820 -0.000 -0.000 -0.000  0.164
 -0.000  0.667  0.114  0.000  0.000
 -0.000  0.114  0.667  0.000  0.000
 -0.000  0.000  0.000  0.716  0.000
  0.164  0.000  0.000  0.000  0.705
   spin  2
    eigenvalues: 
  0.553  0.589  0.716  0.780  0.936
    eigenvectors:
  0.000  0.334  0.000  0.000  0.666
  0.500  0.000  0.000  0.500  0.000
  0.500  0.000  0.000  0.500  0.000
  0.000  0.000  1.000  0.000  0.000
  0.000  0.666  0.000  0.000  0.334
    occupations:
  0.820 -0.000 -0.000 -0.000  0.164
 -0.000  0.667  0.114  0.000  0.000
 -0.000  0.114  0.667  0.000  0.000
 -0.000  0.000  0.000  0.716  0.000
  0.164  0.000  0.000  0.000  0.705
atomic mag. moment =     0.000001
atom    8   Tr[ns(na)] (up, down, total) =   3.57100  3.57100  7.14200
   spin  1
    eigenvalues: 
  0.553  0.589  0.714  0.780  0.935
    eigenvectors:
  0.000  0.334  0.000  0.000  0.666
  0.500  0.000  0.000  0.500  0.000
  0.500  0.000  0.000  0.500  0.000
  0.000  0.000  1.000  0.000  0.000
  0.000  0.666  0.000  0.000  0.334
    occupations:
  0.819  0.000 -0.000  0.000 -0.163
  0.000  0.667 -0.113  0.000  0.000
 -0.000 -0.113  0.667  0.000 -0.000
  0.000  0.000  0.000  0.714 -0.000
 -0.163  0.000 -0.000 -0.000  0.704
   spin  2
    eigenvalues: 
  0.553  0.589  0.714  0.780  0.935
    eigenvectors:
  0.000  0.334  0.000  0.000  0.666
  0.500  0.000  0.000  0.500  0.000
  0.500  0.000  0.000  0.500  0.000
  0.000  0.000  1.000  0.000  0.000
  0.000  0.666  0.000  0.000  0.334
    occupations:
  0.819  0.000 -0.000  0.000 -0.163
  0.000  0.667 -0.113  0.000  0.000
 -0.000 -0.113  0.667  0.000 -0.000
  0.000  0.000  0.000  0.714 -0.000
 -0.163  0.000 -0.000 -0.000  0.704
atomic mag. moment =    -0.000000
atom    9   Tr[ns(na)] (up, down, total) =   3.57762  3.57762  7.15523
   spin  1
    eigenvalues: 
  0.553  0.589  0.716  0.781  0.937
    eigenvectors:
  0.000  0.334  0.000  0.000  0.666
  0.500  0.000  0.000  0.500  0.000
  0.500  0.000  0.000  0.500  0.000
  0.000  0.000  1.000  0.000  0.000
  0.000  0.666  0.000  0.000  0.334
    occupations:
  0.821 -0.000 -0.000 -0.000  0.164
 -0.000  0.667  0.114  0.000  0.000
 -0.000  0.114  0.667  0.000  0.000
 -0.000  0.000  0.000  0.716  0.000
  0.164  0.000  0.000  0.000  0.706
   spin  2
    eigenvalues: 
  0.553  0.589  0.716  0.781  0.937
    eigenvectors:
  0.000  0.334  0.000  0.000  0.666
  0.500  0.000  0.000  0.500  0.000
  0.500  0.000  0.000  0.500  0.000
  0.000  0.000  1.000  0.000  0.000
  0.000  0.666  0.000  0.000  0.334
    occupations:
  0.821 -0.000 -0.000 -0.000  0.164
 -0.000  0.667  0.114  0.000  0.000
 -0.000  0.114  0.667  0.000  0.000
 -0.000  0.000  0.000  0.716  0.000
  0.164  0.000  0.000  0.000  0.706
atomic mag. moment =    -0.000001
atom   10   Tr[ns(na)] (up, down, total) =   3.57100  3.57100  7.14200
   spin  1
    eigenvalues: 
  0.553  0.589  0.714  0.780  0.935
    eigenvectors:
  0.000  0.334  0.000  0.000  0.666
  0.500  0.000  0.000  0.500  0.000
  0.500  0.000  0.000  0.500  0.000
  0.000  0.000  1.000  0.000  0.000
  0.000  0.666  0.000  0.000  0.334
    occupations:
  0.819  0.000 -0.000  0.000 -0.163
  0.000  0.667 -0.113  0.000  0.000
 -0.000 -0.113  0.667  0.000 -0.000
  0.000  0.000  0.000  0.714 -0.000
 -0.163  0.000 -0.000 -0.000  0.704
   spin  2
    eigenvalues: 
  0.553  0.589  0.714  0.780  0.935
    eigenvectors:
  0.000  0.334  0.000  0.000  0.666
  0.500  0.000  0.000  0.500  0.000
  0.500  0.000  0.000  0.500  0.000
  0.000  0.000  1.000  0.000  0.000
  0.000  0.666  0.000  0.000  0.334
    occupations:
  0.819  0.000 -0.000  0.000 -0.163
  0.000  0.667 -0.113  0.000  0.000
 -0.000 -0.113  0.667  0.000 -0.000
  0.000  0.000  0.000  0.714 -0.000
 -0.163  0.000 -0.000 -0.000  0.704
atomic mag. moment =    -0.000000
atom   11   Tr[ns(na)] (up, down, total) =   3.57490  3.57490  7.14979
   spin  1
    eigenvalues: 
  0.553  0.589  0.716  0.780  0.936
    eigenvectors:
  0.000  0.334  0.000  0.000  0.666
  0.500  0.000  0.000  0.500  0.000
  0.500  0.000  0.000  0.500  0.000
  0.000  0.000  1.000  0.000  0.000
  0.000  0.666  0.000  0.000  0.334
    occupations:
  0.820 -0.000 -0.000  0.000  0.164
 -0.000  0.667  0.114  0.000  0.000
 -0.000  0.114  0.667  0.000  0.000
  0.000  0.000  0.000  0.716 -0.000
  0.164  0.000  0.000 -0.000  0.705
   spin  2
    eigenvalues: 
  0.553  0.589  0.716  0.780  0.936
    eigenvectors:
  0.000  0.334  0.000  0.000  0.666
  0.500  0.000  0.000  0.500  0.000
  0.500  0.000  0.000  0.500  0.000
  0.000  0.000  1.000  0.000  0.000
  0.000  0.666  0.000  0.000  0.334
    occupations:
  0.820 -0.000 -0.000  0.000  0.164
 -0.000  0.667  0.114  0.000  0.000
 -0.000  0.114  0.667  0.000  0.000
  0.000  0.000  0.000  0.716 -0.000
  0.164  0.000  0.000 -0.000  0.705
atomic mag. moment =     0.000001
atom   12   Tr[ns(na)] (up, down, total) =   3.57100  3.57100  7.14200
   spin  1
    eigenvalues: 
  0.553  0.589  0.714  0.780  0.935
    eigenvectors:
  0.000  0.334  0.000  0.000  0.666
  0.500  0.000  0.000  0.500  0.000
  0.500  0.000  0.000  0.500  0.000
  0.000  0.000  1.000  0.000  0.000
  0.000  0.666  0.000  0.000  0.334
    occupations:
  0.819 -0.000  0.000  0.000 -0.163
 -0.000  0.667 -0.113 -0.000 -0.000
  0.000 -0.113  0.667 -0.000  0.000
  0.000 -0.000 -0.000  0.714 -0.000
 -0.163 -0.000  0.000 -0.000  0.704
   spin  2
    eigenvalues: 
  0.553  0.589  0.714  0.780  0.935
    eigenvectors:
  0.000  0.334  0.000  0.000  0.666
  0.500  0.000  0.000  0.500  0.000
  0.500  0.000  0.000  0.500  0.000
  0.000  0.000  1.000  0.000  0.000
  0.000  0.666  0.000  0.000  0.334
    occupations:
  0.819 -0.000  0.000  0.000 -0.163
 -0.000  0.667 -0.113 -0.000 -0.000
  0.000 -0.113  0.667 -0.000  0.000
  0.000 -0.000 -0.000  0.714 -0.000
 -0.163 -0.000  0.000 -0.000  0.704
atomic mag. moment =    -0.000000
atom   13   Tr[ns(na)] (up, down, total) =   3.57745  3.57745  7.15491
   spin  1
    eigenvalues: 
  0.553  0.589  0.714  0.780  0.942
    eigenvectors:
  0.000  0.334  0.000  0.000  0.666
  0.500  0.000  0.000  0.500  0.000
  0.500  0.000  0.000  0.500  0.000
  0.000  0.000  1.000  0.000  0.000
  0.000  0.666  0.000  0.000  0.334
    occupations:
  0.824 -0.000 -0.000 -0.000  0.167
 -0.000  0.666  0.113  0.000  0.000
 -0.000  0.113  0.666  0.000  0.000
 -0.000  0.000  0.000  0.714 -0.000
  0.167  0.000  0.000 -0.000  0.707
   spin  2
    eigenvalues: 
  0.553  0.589  0.714  0.780  0.942
    eigenvectors:
  0.000  0.334  0.000  0.000  0.666
  0.500  0.000  0.000  0.500  0.000
  0.500  0.000  0.000  0.500  0.000
  0.000  0.000  1.000  0.000  0.000
  0.000  0.666  0.000  0.000  0.334
    occupations:
  0.824 -0.000 -0.000 -0.000  0.167
 -0.000  0.666  0.113  0.000  0.000
 -0.000  0.113  0.666  0.000  0.000
 -0.000  0.000  0.000  0.714 -0.000
  0.167  0.000  0.000 -0.000  0.707
atomic mag. moment =    -0.000000
atom   14   Tr[ns(na)] (up, down, total) =   3.57476  3.57476  7.14953
   spin  1
    eigenvalues: 
  0.553  0.589  0.716  0.779  0.937
    eigenvectors:
  0.000  0.334  0.000  0.000  0.666
  0.500  0.000  0.000  0.500  0.000
  0.500  0.000  0.000  0.500  0.000
  0.000  0.000  1.000  0.000  0.000
  0.000  0.666  0.000  0.000  0.334
    occupations:
  0.821  0.000  0.000  0.000 -0.164
  0.000  0.666 -0.113 -0.001 -0.000
  0.000 -0.113  0.666  0.001 -0.000
  0.000 -0.001  0.001  0.716 -0.000
 -0.164 -0.000 -0.000 -0.000  0.705
   spin  2
    eigenvalues: 
  0.553  0.589  0.716  0.779  0.937
    eigenvectors:
  0.000  0.334  0.000  0.000  0.666
  0.500  0.000  0.000  0.500  0.000
  0.500  0.000  0.000  0.500  0.000
  0.000  0.000  1.000  0.000  0.000
  0.000  0.666  0.000  0.000  0.334
    occupations:
  0.821  0.000  0.000  0.000 -0.164
  0.000  0.666 -0.113 -0.001 -0.000
  0.000 -0.113  0.666  0.001 -0.000
  0.000 -0.001  0.001  0.716 -0.000
 -0.164 -0.000 -0.000 -0.000  0.705
atomic mag. moment =     0.000000
atom   15   Tr[ns(na)] (up, down, total) =   3.57013  3.57013  7.14026
   spin  1
    eigenvalues: 
  0.553  0.589  0.715  0.779  0.934
    eigenvectors:
  0.000  0.334  0.000  0.000  0.666
  0.500  0.000  0.000  0.500  0.000
  0.500  0.000  0.000  0.500  0.000
  0.000  0.000  1.000  0.000  0.000
  0.000  0.666  0.000  0.000  0.334
    occupations:
  0.819 -0.000 -0.000 -0.000  0.163
 -0.000  0.666  0.113  0.000  0.000
 -0.000  0.113  0.666  0.000  0.000
 -0.000  0.000  0.000  0.715 -0.000
  0.163  0.000  0.000 -0.000  0.704
   spin  2
    eigenvalues: 
  0.553  0.589  0.715  0.779  0.934
    eigenvectors:
  0.000  0.334  0.000  0.000  0.666
  0.500  0.000  0.000  0.500  0.000
  0.500  0.000  0.000  0.500  0.000
  0.000  0.000  1.000  0.000  0.000
  0.000  0.666  0.000  0.000  0.334
    occupations:
  0.819 -0.000 -0.000 -0.000  0.163
 -0.000  0.666  0.113  0.000  0.000
 -0.000  0.113  0.666  0.000  0.000
 -0.000  0.000  0.000  0.715 -0.000
  0.163  0.000  0.000 -0.000  0.704
atomic mag. moment =     0.000001
atom   16   Tr[ns(na)] (up, down, total) =   3.57476  3.57476  7.14953
   spin  1
    eigenvalues: 
  0.553  0.589  0.716  0.779  0.937
    eigenvectors:
  0.000  0.334  0.000  0.000  0.666
  0.500  0.000  0.000  0.500  0.000
  0.500  0.000  0.000  0.500  0.000
  0.000  0.000  1.000  0.000  0.000
  0.000  0.666  0.000  0.000  0.334
    occupations:
  0.821 -0.000 -0.000  0.000 -0.164
 -0.000  0.666 -0.113  0.001  0.000
 -0.000 -0.113  0.666 -0.001  0.000
  0.000  0.001 -0.001  0.716 -0.000
 -0.164  0.000  0.000 -0.000  0.705
   spin  2
    eigenvalues: 
  0.553  0.589  0.716  0.779  0.937
    eigenvectors:
  0.000  0.334  0.000  0.000  0.666
  0.500  0.000  0.000  0.500  0.000
  0.500  0.000  0.000  0.500  0.000
  0.000  0.000  1.000  0.000  0.000
  0.000  0.666  0.000  0.000  0.334
    occupations:
  0.821 -0.000 -0.000  0.000 -0.164
 -0.000  0.666 -0.113  0.001  0.000
 -0.000 -0.113  0.666 -0.001  0.000
  0.000  0.001 -0.001  0.716 -0.000
 -0.164  0.000  0.000 -0.000  0.705
atomic mag. moment =     0.000000
atom   17   Tr[ns(na)] (up, down, total) =   2.65609  2.65609  5.31217
   spin  1
    eigenvalues: 
  0.877  0.885  0.894
    eigenvectors:
  0.000  0.000  1.000
  0.500  0.500  0.000
  0.500  0.500  0.000
    occupations:
  0.894 -0.000 -0.000
 -0.000  0.881  0.004
 -0.000  0.004  0.881
   spin  2
    eigenvalues: 
  0.877  0.885  0.894
    eigenvectors:
  0.000  0.000  1.000
  0.500  0.500  0.000
  0.500  0.500  0.000
    occupations:
  0.894 -0.000 -0.000
 -0.000  0.881  0.004
 -0.000  0.004  0.881
atomic mag. moment =     0.000000
atom   18   Tr[ns(na)] (up, down, total) =   2.65609  2.65609  5.31217
   spin  1
    eigenvalues: 
  0.877  0.885  0.894
    eigenvectors:
  0.000  0.000  1.000
  0.500  0.500  0.000
  0.500  0.500  0.000
    occupations:
  0.894 -0.000 -0.000
 -0.000  0.881  0.004
 -0.000  0.004  0.881
   spin  2
    eigenvalues: 
  0.877  0.885  0.894
    eigenvectors:
  0.000  0.000  1.000
  0.500  0.500  0.000
  0.500  0.500  0.000
    occupations:
  0.894 -0.000 -0.000
 -0.000  0.881  0.004
 -0.000  0.004  0.881
atomic mag. moment =     0.000000
atom   19   Tr[ns(na)] (up, down, total) =   2.65794  2.65794  5.31588
   spin  1
    eigenvalues: 
  0.878  0.886  0.894
    eigenvectors:
  0.000  0.000  1.000
  0.497  0.503  0.000
  0.503  0.497  0.000
    occupations:
  0.894 -0.000  0.000
 -0.000  0.882 -0.004
  0.000 -0.004  0.882
   spin  2
    eigenvalues: 
  0.878  0.886  0.894
    eigenvectors:
  0.000  0.000  1.000
  0.497  0.503  0.000
  0.503  0.497  0.000
    occupations:
  0.894 -0.000  0.000
 -0.000  0.882 -0.004
  0.000 -0.004  0.882
atomic mag. moment =     0.000000
atom   20   Tr[ns(na)] (up, down, total) =   2.65794  2.65794  5.31588
   spin  1
    eigenvalues: 
  0.878  0.886  0.894
    eigenvectors:
  0.000  0.000  1.000
  0.503  0.497  0.000
  0.497  0.503  0.000
    occupations:
  0.894  0.000 -0.000
  0.000  0.882 -0.004
 -0.000 -0.004  0.882
   spin  2
    eigenvalues: 
  0.878  0.886  0.894
    eigenvectors:
  0.000  0.000  1.000
  0.503  0.497  0.000
  0.497  0.503  0.000
    occupations:
  0.894  0.000 -0.000
  0.000  0.882 -0.004
 -0.000 -0.004  0.882
atomic mag. moment =     0.000000
atom   21   Tr[ns(na)] (up, down, total) =   2.65792  2.65792  5.31584
   spin  1
    eigenvalues: 
  0.878  0.886  0.894
    eigenvectors:
  0.000  0.000  1.000
  0.500  0.500  0.000
  0.500  0.500  0.000
    occupations:
  0.894 -0.000 -0.000
 -0.000  0.882  0.004
 -0.000  0.004  0.882
   spin  2
    eigenvalues: 
  0.878  0.886  0.894
    eigenvectors:
  0.000  0.000  1.000
  0.500  0.500  0.000
  0.500  0.500  0.000
    occupations:
  0.894 -0.000 -0.000
 -0.000  0.882  0.004
 -0.000  0.004  0.882
atomic mag. moment =     0.000000
atom   22   Tr[ns(na)] (up, down, total) =   2.65792  2.65792  5.31584
   spin  1
    eigenvalues: 
  0.878  0.886  0.894
    eigenvectors:
  0.000  0.000  1.000
  0.500  0.500  0.000
  0.500  0.500  0.000
    occupations:
  0.894 -0.000 -0.000
 -0.000  0.882  0.004
 -0.000  0.004  0.882
   spin  2
    eigenvalues: 
  0.878  0.886  0.894
    eigenvectors:
  0.000  0.000  1.000
  0.500  0.500  0.000
  0.500  0.500  0.000
    occupations:
  0.894 -0.000 -0.000
 -0.000  0.882  0.004
 -0.000  0.004  0.882
atomic mag. moment =     0.000000
atom   23   Tr[ns(na)] (up, down, total) =   2.65794  2.65794  5.31588
   spin  1
    eigenvalues: 
  0.878  0.886  0.894
    eigenvectors:
  0.000  0.000  1.000
  0.497  0.503  0.000
  0.503  0.497  0.000
    occupations:
  0.894  0.000 -0.000
  0.000  0.882 -0.004
 -0.000 -0.004  0.882
   spin  2
    eigenvalues: 
  0.878  0.886  0.894
    eigenvectors:
  0.000  0.000  1.000
  0.497  0.503  0.000
  0.503  0.497  0.000
    occupations:
  0.894  0.000 -0.000
  0.000  0.882 -0.004
 -0.000 -0.004  0.882
atomic mag. moment =     0.000000
atom   24   Tr[ns(na)] (up, down, total) =   2.65794  2.65794  5.31588
   spin  1
    eigenvalues: 
  0.878  0.886  0.894
    eigenvectors:
  0.000  0.000  1.000
  0.503  0.497  0.000
  0.497  0.503  0.000
    occupations:
  0.894 -0.000  0.000
 -0.000  0.882 -0.004
  0.000 -0.004  0.882
   spin  2
    eigenvalues: 
  0.878  0.886  0.894
    eigenvectors:
  0.000  0.000  1.000
  0.503  0.497  0.000
  0.497  0.503  0.000
    occupations:
  0.894 -0.000  0.000
 -0.000  0.882 -0.004
  0.000 -0.004  0.882
atomic mag. moment =     0.000000
atom   25   Tr[ns(na)] (up, down, total) =   2.65750  2.65750  5.31499
   spin  1
    eigenvalues: 
  0.878  0.886  0.894
    eigenvectors:
  0.000  0.000  1.000
  0.504  0.496  0.000
  0.496  0.504  0.000
    occupations:
  0.894 -0.000 -0.000
 -0.000  0.882  0.004
 -0.000  0.004  0.882
   spin  2
    eigenvalues: 
  0.878  0.886  0.894
    eigenvectors:
  0.000  0.000  1.000
  0.504  0.496  0.000
  0.496  0.504  0.000
    occupations:
  0.894 -0.000 -0.000
 -0.000  0.882  0.004
 -0.000  0.004  0.882
atomic mag. moment =    -0.000000
atom   26   Tr[ns(na)] (up, down, total) =   2.65750  2.65750  5.31499
   spin  1
    eigenvalues: 
  0.878  0.886  0.894
    eigenvectors:
  0.000  0.000  1.000
  0.504  0.496  0.000
  0.496  0.504  0.000
    occupations:
  0.894 -0.000 -0.000
 -0.000  0.882  0.004
 -0.000  0.004  0.882
   spin  2
    eigenvalues: 
  0.878  0.886  0.894
    eigenvectors:
  0.000  0.000  1.000
  0.504  0.496  0.000
  0.496  0.504  0.000
    occupations:
  0.894 -0.000 -0.000
 -0.000  0.882  0.004
 -0.000  0.004  0.882
atomic mag. moment =    -0.000000
atom   27   Tr[ns(na)] (up, down, total) =   2.65750  2.65750  5.31500
   spin  1
    eigenvalues: 
  0.877  0.886  0.894
    eigenvectors:
  0.000  0.001  0.999
  0.500  0.499  0.001
  0.500  0.499  0.001
    occupations:
  0.894 -0.000  0.000
 -0.000  0.882 -0.004
  0.000 -0.004  0.882
   spin  2
    eigenvalues: 
  0.877  0.886  0.894
    eigenvectors:
  0.000  0.001  0.999
  0.500  0.499  0.001
  0.500  0.499  0.001
    occupations:
  0.894 -0.000  0.000
 -0.000  0.882 -0.004
  0.000 -0.004  0.882
atomic mag. moment =     0.000000
atom   28   Tr[ns(na)] (up, down, total) =   2.65705  2.65705  5.31410
   spin  1
    eigenvalues: 
  0.878  0.886  0.893
    eigenvectors:
  0.000  0.021  0.979
  0.500  0.490  0.010
  0.500  0.490  0.010
    occupations:
  0.893  0.001 -0.001
  0.001  0.882 -0.004
 -0.001 -0.004  0.882
   spin  2
    eigenvalues: 
  0.878  0.886  0.893
    eigenvectors:
  0.000  0.021  0.979
  0.500  0.490  0.010
  0.500  0.490  0.010
    occupations:
  0.893  0.001 -0.001
  0.001  0.882 -0.004
 -0.001 -0.004  0.882
atomic mag. moment =     0.000000
atom   29   Tr[ns(na)] (up, down, total) =   2.65743  2.65743  5.31486
   spin  1
    eigenvalues: 
  0.878  0.886  0.894
    eigenvectors:
  0.000  0.000  1.000
  0.506  0.494  0.000
  0.494  0.506  0.000
    occupations:
  0.894 -0.000 -0.000
 -0.000  0.882  0.004
 -0.000  0.004  0.882
   spin  2
    eigenvalues: 
  0.878  0.886  0.894
    eigenvectors:
  0.000  0.000  1.000
  0.506  0.494  0.000
  0.494  0.506  0.000
    occupations:
  0.894 -0.000 -0.000
 -0.000  0.882  0.004
 -0.000  0.004  0.882
atomic mag. moment =    -0.000000
atom   30   Tr[ns(na)] (up, down, total) =   2.65743  2.65743  5.31486
   spin  1
    eigenvalues: 
  0.878  0.886  0.894
    eigenvectors:
  0.000  0.000  1.000
  0.506  0.494  0.000
  0.494  0.506  0.000
    occupations:
  0.894 -0.000 -0.000
 -0.000  0.882  0.004
 -0.000  0.004  0.882
   spin  2
    eigenvalues: 
  0.878  0.886  0.894
    eigenvectors:
  0.000  0.000  1.000
  0.506  0.494  0.000
  0.494  0.506  0.000
    occupations:
  0.894 -0.000 -0.000
 -0.000  0.882  0.004
 -0.000  0.004  0.882
atomic mag. moment =    -0.000000
atom   31   Tr[ns(na)] (up, down, total) =   2.65750  2.65750  5.31500
   spin  1
    eigenvalues: 
  0.877  0.886  0.894
    eigenvectors:
  0.000  0.001  0.999
  0.500  0.499  0.001
  0.500  0.499  0.001
    occupations:
  0.894  0.000 -0.000
  0.000  0.882 -0.004
 -0.000 -0.004  0.882
   spin  2
    eigenvalues: 
  0.877  0.886  0.894
    eigenvectors:
  0.000  0.001  0.999
  0.500  0.499  0.001
  0.500  0.499  0.001
    occupations:
  0.894  0.000 -0.000
  0.000  0.882 -0.004
 -0.000 -0.004  0.882
atomic mag. moment =     0.000000
atom   32   Tr[ns(na)] (up, down, total) =   2.65705  2.65705  5.31410
   spin  1
    eigenvalues: 
  0.878  0.886  0.893
    eigenvectors:
  0.000  0.021  0.979
  0.500  0.490  0.010
  0.500  0.490  0.010
    occupations:
  0.893 -0.001  0.001
 -0.001  0.882 -0.004
  0.001 -0.004  0.882
   spin  2
    eigenvalues: 
  0.878  0.886  0.893
    eigenvectors:
  0.000  0.021  0.979
  0.500  0.490  0.010
  0.500  0.490  0.010
    occupations:
  0.893 -0.001  0.001
 -0.001  0.882 -0.004
  0.001 -0.004  0.882
atomic mag. moment =     0.000000
atom   33   Tr[ns(na)] (up, down, total) =   2.65750  2.65750  5.31499
   spin  1
    eigenvalues: 
  0.878  0.886  0.894
    eigenvectors:
  0.000  0.000  1.000
  0.496  0.504  0.000
  0.504  0.496  0.000
    occupations:
  0.894 -0.000 -0.000
 -0.000  0.882  0.004
 -0.000  0.004  0.882
   spin  2
    eigenvalues: 
  0.878  0.886  0.894
    eigenvectors:
  0.000  0.000  1.000
  0.496  0.504  0.000
  0.504  0.496  0.000
    occupations:
  0.894 -0.000 -0.000
 -0.000  0.882  0.004
 -0.000  0.004  0.882
atomic mag. moment =    -0.000000
atom   34   Tr[ns(na)] (up, down, total) =   2.65750  2.65750  5.31499
   spin  1
    eigenvalues: 
  0.878  0.886  0.894
    eigenvectors:
  0.000  0.000  1.000
  0.496  0.504  0.000
  0.504  0.496  0.000
    occupations:
  0.894 -0.000 -0.000
 -0.000  0.882  0.004
 -0.000  0.004  0.882
   spin  2
    eigenvalues: 
  0.878  0.886  0.894
    eigenvectors:
  0.000  0.000  1.000
  0.496  0.504  0.000
  0.504  0.496  0.000
    occupations:
  0.894 -0.000 -0.000
 -0.000  0.882  0.004
 -0.000  0.004  0.882
atomic mag. moment =    -0.000000
atom   35   Tr[ns(na)] (up, down, total) =   2.65705  2.65705  5.31410
   spin  1
    eigenvalues: 
  0.878  0.886  0.893
    eigenvectors:
  0.000  0.021  0.979
  0.500  0.490  0.010
  0.500  0.490  0.010
    occupations:
  0.893 -0.001  0.001
 -0.001  0.882 -0.004
  0.001 -0.004  0.882
   spin  2
    eigenvalues: 
  0.878  0.886  0.893
    eigenvectors:
  0.000  0.021  0.979
  0.500  0.490  0.010
  0.500  0.490  0.010
    occupations:
  0.893 -0.001  0.001
 -0.001  0.882 -0.004
  0.001 -0.004  0.882
atomic mag. moment =     0.000000
atom   36   Tr[ns(na)] (up, down, total) =   2.65750  2.65750  5.31500
   spin  1
    eigenvalues: 
  0.877  0.886  0.894
    eigenvectors:
  0.000  0.001  0.999
  0.500  0.499  0.001
  0.500  0.499  0.001
    occupations:
  0.894  0.000 -0.000
  0.000  0.882 -0.004
 -0.000 -0.004  0.882
   spin  2
    eigenvalues: 
  0.877  0.886  0.894
    eigenvectors:
  0.000  0.001  0.999
  0.500  0.499  0.001
  0.500  0.499  0.001
    occupations:
  0.894  0.000 -0.000
  0.000  0.882 -0.004
 -0.000 -0.004  0.882
atomic mag. moment =     0.000000
atom   37   Tr[ns(na)] (up, down, total) =   2.65743  2.65743  5.31486
   spin  1
    eigenvalues: 
  0.878  0.886  0.894
    eigenvectors:
  0.000  0.000  1.000
  0.494  0.506  0.000
  0.506  0.494  0.000
    occupations:
  0.894 -0.000 -0.000
 -0.000  0.882  0.004
 -0.000  0.004  0.882
   spin  2
    eigenvalues: 
  0.878  0.886  0.894
    eigenvectors:
  0.000  0.000  1.000
  0.494  0.506  0.000
  0.506  0.494  0.000
    occupations:
  0.894 -0.000 -0.000
 -0.000  0.882  0.004
 -0.000  0.004  0.882
atomic mag. moment =    -0.000000
atom   38   Tr[ns(na)] (up, down, total) =   2.65743  2.65743  5.31486
   spin  1
    eigenvalues: 
  0.878  0.886  0.894
    eigenvectors:
  0.000  0.000  1.000
  0.494  0.506  0.000
  0.506  0.494  0.000
    occupations:
  0.894 -0.000 -0.000
 -0.000  0.882  0.004
 -0.000  0.004  0.882
   spin  2
    eigenvalues: 
  0.878  0.886  0.894
    eigenvectors:
  0.000  0.000  1.000
  0.494  0.506  0.000
  0.506  0.494  0.000
    occupations:
  0.894 -0.000 -0.000
 -0.000  0.882  0.004
 -0.000  0.004  0.882
atomic mag. moment =    -0.000000
atom   39   Tr[ns(na)] (up, down, total) =   2.65705  2.65705  5.31410
   spin  1
    eigenvalues: 
  0.878  0.886  0.893
    eigenvectors:
  0.000  0.021  0.979
  0.500  0.490  0.010
  0.500  0.490  0.010
    occupations:
  0.893  0.001 -0.001
  0.001  0.882 -0.004
 -0.001 -0.004  0.882
   spin  2
    eigenvalues: 
  0.878  0.886  0.893
    eigenvectors:
  0.000  0.021  0.979
  0.500  0.490  0.010
  0.500  0.490  0.010
    occupations:
  0.893  0.001 -0.001
  0.001  0.882 -0.004
 -0.001 -0.004  0.882
atomic mag. moment =     0.000000
atom   40   Tr[ns(na)] (up, down, total) =   2.65750  2.65750  5.31500
   spin  1
    eigenvalues: 
  0.877  0.886  0.894
    eigenvectors:
  0.000  0.001  0.999
  0.500  0.499  0.001
  0.500  0.499  0.001
    occupations:
  0.894 -0.000  0.000
 -0.000  0.882 -0.004
  0.000 -0.004  0.882
   spin  2
    eigenvalues: 
  0.877  0.886  0.894
    eigenvectors:
  0.000  0.001  0.999
  0.500  0.499  0.001
  0.500  0.499  0.001
    occupations:
  0.894 -0.000  0.000
 -0.000  0.882 -0.004
  0.000 -0.004  0.882
atomic mag. moment =     0.000000
atom   41   Tr[ns(na)] (up, down, total) =   2.65758  2.65758  5.31516
   spin  1
    eigenvalues: 
  0.878  0.886  0.894
    eigenvectors:
  0.000  0.000  1.000
  0.500  0.500  0.000
  0.500  0.500  0.000
    occupations:
  0.894 -0.000 -0.000
 -0.000  0.882  0.004
 -0.000  0.004  0.882
   spin  2
    eigenvalues: 
  0.878  0.886  0.894
    eigenvectors:
  0.000  0.000  1.000
  0.500  0.500  0.000
  0.500  0.500  0.000
    occupations:
  0.894 -0.000 -0.000
 -0.000  0.882  0.004
 -0.000  0.004  0.882
atomic mag. moment =     0.000000
atom   42   Tr[ns(na)] (up, down, total) =   2.65758  2.65758  5.31516
   spin  1
    eigenvalues: 
  0.878  0.886  0.894
    eigenvectors:
  0.000  0.000  1.000
  0.500  0.500  0.000
  0.500  0.500  0.000
    occupations:
  0.894 -0.000 -0.000
 -0.000  0.882  0.004
 -0.000  0.004  0.882
   spin  2
    eigenvalues: 
  0.878  0.886  0.894
    eigenvectors:
  0.000  0.000  1.000
  0.500  0.500  0.000
  0.500  0.500  0.000
    occupations:
  0.894 -0.000 -0.000
 -0.000  0.882  0.004
 -0.000  0.004  0.882
atomic mag. moment =     0.000000
atom   43   Tr[ns(na)] (up, down, total) =   2.65794  2.65794  5.31588
   spin  1
    eigenvalues: 
  0.878  0.886  0.894
    eigenvectors:
  0.000  0.000  1.000
  0.503  0.497  0.000
  0.497  0.503  0.000
    occupations:
  0.894 -0.000  0.000
 -0.000  0.882 -0.004
  0.000 -0.004  0.882
   spin  2
    eigenvalues: 
  0.878  0.886  0.894
    eigenvectors:
  0.000  0.000  1.000
  0.503  0.497  0.000
  0.497  0.503  0.000
    occupations:
  0.894 -0.000  0.000
 -0.000  0.882 -0.004
  0.000 -0.004  0.882
atomic mag. moment =     0.000000
atom   44   Tr[ns(na)] (up, down, total) =   2.65794  2.65794  5.31588
   spin  1
    eigenvalues: 
  0.878  0.886  0.894
    eigenvectors:
  0.000  0.000  1.000
  0.497  0.503  0.000
  0.503  0.497  0.000
    occupations:
  0.894  0.000 -0.000
  0.000  0.882 -0.004
 -0.000 -0.004  0.882
   spin  2
    eigenvalues: 
  0.878  0.886  0.894
    eigenvectors:
  0.000  0.000  1.000
  0.497  0.503  0.000
  0.503  0.497  0.000
    occupations:
  0.894  0.000 -0.000
  0.000  0.882 -0.004
 -0.000 -0.004  0.882
atomic mag. moment =     0.000000
atom   45   Tr[ns(na)] (up, down, total) =   2.65755  2.65755  5.31509
   spin  1
    eigenvalues: 
  0.878  0.886  0.894
    eigenvectors:
  0.000  0.000  1.000
  0.500  0.500  0.000
[...]
     8.2563   8.3033   8.3043   8.3241   8.4683   8.4685   8.4743   8.4869
     8.4903   8.5071   8.5853   8.5874   8.5991   8.8953   8.9965   9.0008
     9.0469   9.0512   9.0526   9.0540   9.0851   9.1450   9.2740   9.2997
     9.4300   9.4316   9.4316   9.6290   9.7346   9.7362   9.7513   9.7527
     9.7700   9.8411  10.0652  10.1026  10.1477  10.2782  10.2784  10.7657
    11.2467  11.2519  11.3846  11.3910  11.4068  11.4111  11.4994  11.6506
    11.6512  11.8533  11.8546  11.8610  11.8713  11.8757  11.9468  11.9499
    11.9859  12.0311  12.0470  12.0766  12.0808  12.0865  12.0936  12.0936
    12.0991  12.0999  12.1750  12.2755  12.2780  12.2974  12.3918  12.3929
    12.5071  12.7106  12.7113  12.9774  13.2500  13.4125  13.5333  13.5620
    13.5629  13.5826  13.6003  13.6013  13.8592  13.8681  13.8682  14.1985
    14.4280  14.5924  14.5934  14.8626  14.9666  14.9935  14.9953  15.6808
    15.6830  15.7802  15.8031  15.8034  15.9297  16.2078  16.4873  16.8633
    16.8987  16.8994  17.0317  17.0508  17.0529  17.1306  17.1352  17.1369
    17.1460  17.2224  17.2259  17.3449  17.3544  17.4723  17.4766  18.1440
    19.0689  20.3658  20.3689  21.4268  21.8310  21.8344  22.3185  22.4648
    22.4669  22.7656  22.9893  22.9893  23.1428  23.1456  23.1850  23.1934
    23.2174  23.3693  23.4180  23.4201  24.0088  24.4012  24.7563  24.7569
    25.0414  25.0457  25.1076  25.1125  25.2443  25.7189  25.7982  25.8089
    25.9805  26.0332  26.0787  26.0854  26.3521  26.4726  26.4740  26.4917
    26.5146  26.5148  26.7866  26.9761  26.9771  26.9996  27.0009  27.1728
    27.3830  27.5524  27.6875  27.6954  27.7014  27.9879  28.5453  28.5472
    28.5952  28.6028  28.6061  28.6873  28.7325  28.7345  28.7964  28.9914
    29.3364  29.3523  29.6679  29.6688  29.6713  29.6718  29.9460  29.9532
    30.0370  30.1696  30.2832  30.5516  30.5539  30.6108  30.6815  31.0130
    31.0159  31.1663  31.1877  31.4242  31.4646  31.4653  31.6926  31.9126
    31.9131  32.1231  32.1675  32.1699  32.1807  32.2782  32.3119  32.3558
    32.3566  33.0014  33.3910  33.4911  33.5363  33.5391  33.7198  33.8661
    33.8902  34.1136  34.1199  34.1507  34.1515  34.1632  34.2682  34.2749
    34.3510  34.5879  34.7616  34.8381  34.8398  35.1487  35.4410  35.5219
    35.5267  35.6213  35.6219  35.6952  35.8666  35.8671  35.9764  35.9920
    36.1579  36.1815  36.6326  36.6335  36.8206  36.8312  36.9930  36.9954
    37.2487  37.2603  37.5273  37.5301  37.5565  38.0887  38.1048  38.3016
    38.3081  38.3927  38.3954  38.7632  38.7659  38.9637  38.9686  39.0994
    39.1009  39.2214  39.4488  39.5295  39.6130  39.6151  39.7873  39.7906
    39.8539  40.0066  40.0090  40.0486  40.1044  40.1530  40.1571  40.2126
    40.2136  40.2153  40.3139  40.3166  40.3558  40.5197  40.6633  40.8124
    40.9915  40.9921  41.0123  41.2366  41.4022  41.4046  41.5876  41.7114
    41.8919  41.9173  41.9188  42.0254  42.0886  42.2714  42.3081  42.3967
    42.4678  42.5232  42.5249  42.5699  42.8307  42.8327  42.8625  42.8672
    42.9380  43.0381  43.0935  43.0980  43.2400  43.5952  43.5978  44.0381
    44.2565  44.2572  44.2585  44.2620  44.3245  44.3280  44.3757  44.4495
    44.6678  44.6732  44.7575  44.7688  44.7719  44.7758  44.9320  44.9509
    44.9514  44.9548  45.2208  45.2267  45.2465  45.2538  45.2567  45.3289
    45.4594  45.4597  45.4799  45.6574  45.6835  45.7258  45.7705  46.0939
    46.2217  46.4071  46.4147  46.6242  46.6248  46.6579  46.6674  46.7054
    46.8012  46.9715  46.9722  46.9818  47.0314  47.1442  47.1447  47.1851
    47.4214  47.4226  47.4950  47.4990  47.6430  47.6431  47.6762  47.7001
    47.7158  47.7611  47.7715  47.7780  47.8024  48.0195  48.0237  48.0350
    48.1332  48.2386  48.2777  48.2822  48.3055  48.3188  48.3701  48.3701
    48.6519  48.7283  48.8170  48.8912  48.8937  48.9265  48.9478  49.0401
    49.0790  49.1873  49.1885  49.1949  49.2821  49.3533  49.3571  49.4113
    49.8127  49.8130  49.9496  50.0121  50.0748  50.0759  50.1085  50.1213
    50.1218  50.4940  50.5762  50.5776  50.5958  50.5964  50.6305  50.6881
    50.7204  50.7722  50.7772  51.0155  51.0708  51.3334  51.3526  51.3578
    51.3970  51.4347  51.4793  51.4863  51.5494  51.5506  51.7175  51.7209
    52.0135  52.0830  52.2691  52.3160  52.3183  52.4847  52.5116  52.5336
    52.5358  52.5523  52.5620  52.5954  52.5970  52.6358  52.6397  53.0539
    53.2412  53.2478  53.6549  53.6584  53.7476  53.7494  53.8756  53.8767
    53.8857  53.9099  53.9112  53.9201  53.9632  54.0888  54.1951  54.2236
    54.5033  54.5037  54.6291  54.6917  54.7825  54.7865  54.9085  55.0009
    55.0793  55.1070  55.1559  55.1871  55.2227  55.3023  55.3036  55.3880

          k =-0.2500 0.2500-0.3630 ( 14760 PWs)   bands (ev):

   -60.8011 -60.8001 -60.7996 -60.7993 -60.7982 -60.7981 -60.7973 -60.7965
   -60.7925 -60.7922 -60.7919 -60.7918 -60.7913 -60.7911 -60.7905 -60.6503
   -31.0011 -31.0004 -30.9999 -30.9996 -30.9994 -30.9991 -30.9984 -30.9970
   -30.9930 -30.9921 -30.9919 -30.9916 -30.9912 -30.9911 -30.9902 -30.8593
   -30.8048 -30.8026 -30.8014 -30.8004 -30.7988 -30.7976 -30.7969 -30.7638
   -30.6822 -30.6780 -30.6764 -30.6744 -30.6713 -30.6706 -30.6662 -30.6108
   -30.6103 -30.6088 -30.6088 -30.6080 -30.6077 -30.6072 -30.6011 -30.5887
   -30.5882 -30.5878 -30.5877 -30.5877 -30.5877 -30.5868 -30.5754 -30.4591
    -7.1686  -6.8372  -6.8357  -6.7626  -6.5847  -6.4348  -6.3997  -6.3995
    -6.3353  -6.3351  -6.3086  -6.2343  -6.1970  -6.1939  -6.1371  -6.0830
    -5.9852  -5.9203  -5.9117  -5.9030  -5.9025  -5.8624  -5.8579  -5.8574
    -5.8463  -5.8435  -5.7384  -5.6810  -5.6796  -5.6545  -5.6212  -5.5304
     4.6251   4.6474   5.0313   5.0356   5.0501   5.0559   5.4873   5.6073
     5.6237   5.6282   5.6776   5.6785   5.6969   5.7044   5.7066   5.7832
     5.8131   5.8447   5.8519   5.8605   5.8955   5.8995   5.9347   5.9352
     6.0355   6.0361   6.0398   6.0455   6.1000   6.1644   6.1645   6.2012
     6.2873   6.7062   6.8387   6.8401   6.8982   6.9014   7.0599   7.0649
     7.2177   7.3137   7.3147   7.4741   7.5085   7.5087   7.5258   7.6598
     7.6614   7.8434   7.9387   7.9404   8.0191   8.0241   8.0263   8.1363
     8.2348   8.2396   8.2492   8.3763   8.3766   8.4329   8.4337   8.4585
     8.4622   8.4917   8.5455   8.5461   8.6339   8.7011   8.7916   8.8541
     8.8582   8.8660   8.8677   8.8988   9.0270   9.1288   9.2231   9.2662
     9.3130   9.3145   9.3298   9.4838   9.6435   9.6436   9.7575   9.7644
     9.8073   9.8082  10.0389  10.0390  10.0669  10.2030  10.2030  10.6054
    11.1830  11.1875  11.3959  11.6005  11.6813  11.6815  11.6839  11.7615
    11.8567  11.8572  11.9792  11.9801  11.9914  11.9918  11.9932  12.0639
    12.1034  12.1181  12.2081  12.2378  12.2436  12.2461  12.2485  12.3259
    12.3724  12.3731  12.3878  12.3881  12.4185  12.4341  12.7013  12.7015
    12.7685  12.7689  12.8162  12.9123  13.1307  13.1860  13.3875  13.4194
    13.4244  13.4252  13.4929  13.4938  13.6997  13.7000  13.7002  14.0613
    14.7047  14.7372  14.7384  15.0627  15.1589  15.1775  15.1797  15.7211
    15.7233  15.8741  15.9093  15.9184  15.9387  16.2314  16.3353  16.3369
    16.3759  16.6802  16.7885  16.7933  16.9030  16.9050  16.9094  16.9596
    16.9623  17.0076  17.0087  17.3127  17.3159  17.4071  17.4111  17.9376
    19.5233  20.7586  20.7614  21.6984  21.9066  22.2053  22.2085  22.3541
    22.3556  22.5708  22.6009  22.9688  22.9993  23.1744  23.3755  23.3777
    23.6388  23.8381  23.8398  24.3376  24.4109  24.6108  24.9494  24.9513
    25.0179  25.3110  25.3155  25.3724  25.5053  25.5894  25.5931  25.6839
    26.0652  26.1047  26.1049  26.1206  26.1412  26.2064  26.2975  26.5130
    26.5882  26.5898  26.8117  26.8134  26.9329  26.9335  27.1191  27.4805
    27.5105  27.5348  27.8655  27.9112  27.9127  28.0609  28.2805  28.2931
    28.2955  28.4484  28.4487  28.6059  28.6832  28.7246  28.7268  28.7351
    28.7578  28.7586  28.8116  29.2798  29.5552  29.6776  29.6836  29.8101
    29.9085  29.9118  29.9120  30.1238  30.1271  30.1272  30.3864  30.4024
    30.6290  30.6293  30.6987  31.1683  31.5300  31.5351  31.6158  31.6181
    31.7818  31.7891  31.8065  32.3494  32.8093  32.8096  32.8810  32.9992
    33.2945  33.2982  33.3812  33.3830  33.5626  33.5629  33.6266  33.9060
    34.0329  34.0465  34.3058  34.3199  34.3254  34.5574  34.6791  34.7430
    34.8383  34.9036  34.9045  34.9071  35.2590  35.4124  35.5117  35.6105
    35.6109  35.7466  35.8573  35.8586  35.9879  36.0743  36.1015  36.1021
    36.2236  36.7055  36.7057  36.7469  37.0790  37.1296  37.3202  37.3407
    37.3414  37.3901  37.5138  37.6334  37.6468  37.6527  37.7159  37.7176
    37.9661  37.9665  37.9682  38.5425  38.7903  38.7906  38.9060  39.0212
    39.0217  39.1322  39.1334  39.1709  39.2307  39.3583  39.4193  39.4214
    39.5339  39.7026  39.7130  39.7933  40.0271  40.0274  40.0710  40.0730
    40.1294  40.1760  40.2050  40.2139  40.2770  40.2772  40.5826  40.6552
    40.6561  40.8016  40.8220  40.8788  40.8797  40.9705  40.9706  40.9850
    41.2326  41.4461  41.5861  41.8462  41.8470  41.9444  42.3187  42.3331
    42.3441  42.3449  42.5254  42.7127  42.8760  42.9164  42.9178  43.0487
    43.0550  43.2484  43.3497  43.3504  43.3530  43.7381  43.7392  43.8831
    44.3495  44.4412  44.4440  44.5343  44.5367  44.5478  44.5485  44.5664
    44.6415  44.6563  44.7547  44.9431  45.0849  45.1999  45.2661  45.2687
    45.3005  45.3479  45.5865  45.6077  45.6189  45.6199  45.6982  45.7030
    45.7063  45.7713  46.0900  46.1604  46.1640  46.2144  46.2161  46.2205
    46.2381  46.3664  46.4531  46.5746  46.5756  46.6277  46.7381  46.7715
    46.7742  46.8415  46.9169  46.9618  47.0605  47.0618  47.1573  47.2712
    47.3896  47.4099  47.4101  47.4182  47.4211  47.4276  47.4282  47.5232
    47.5884  47.5976  47.7898  47.8973  47.9029  47.9322  47.9352  48.1555
    48.3998  48.4034  48.4816  48.5508  48.5523  48.5720  48.6493  48.6906
    48.7016  48.7492  48.9206  48.9243  49.0061  49.0395  49.0425  49.1543
    49.3307  49.3314  49.4531  49.4566  49.4777  49.6499  49.6535  49.7682
    49.7758  49.7782  49.9776  50.0025  50.0040  50.2627  50.4003  50.4805
    50.4827  50.4903  50.4919  50.5068  50.5989  50.6171  50.6283  50.7130
    50.7740  50.8092  50.8925  50.8927  50.8962  50.9362  50.9376  51.0867
    51.2936  51.5457  51.5463  51.6512  51.6537  51.7203  51.7222  51.8648
    51.9000  51.9268  52.0171  52.2245  52.2255  52.2279  52.2292  52.3807
    52.4274  52.5394  52.6048  52.6775  52.6791  52.7503  53.0032  53.0045
    53.0497  53.2722  53.3020  53.3081  53.3117  53.6642  53.7314  53.7490
    53.7491  53.9343  53.9492  54.0663  54.0664  54.1572  54.2015  54.2119
    54.3233  54.4160  54.4188  54.5311  54.5953  54.7014  54.7040  55.0135
    55.0150  55.2018  55.2054  55.4855  55.6066  55.6071  55.6430  55.7317

          k =-0.2500 0.2500 0.7260 ( 14788 PWs)   bands (ev):

   -60.7978 -60.7968 -60.7967 -60.7962 -60.7962 -60.7958 -60.7957 -60.7955
   -60.7954 -60.7948 -60.7947 -60.7946 -60.7944 -60.7937 -60.7931 -60.6504
   -30.9971 -30.9961 -30.9961 -30.9958 -30.9957 -30.9957 -30.9957 -30.9954
   -30.9954 -30.9953 -30.9953 -30.9951 -30.9950 -30.9950 -30.9947 -30.8581
   -30.7454 -30.7441 -30.7412 -30.7407 -30.7403 -30.7397 -30.7395 -30.7382
   -30.7371 -30.7353 -30.7351 -30.7351 -30.7345 -30.7319 -30.7316 -30.6075
   -30.6003 -30.5990 -30.5990 -30.5990 -30.5985 -30.5983 -30.5983 -30.5982
   -30.5982 -30.5980 -30.5979 -30.5977 -30.5973 -30.5963 -30.5940 -30.4600
    -6.8252  -6.8238  -6.5532  -6.5525  -6.5513  -6.5499  -6.4786  -6.4784
    -6.3294  -6.3278  -6.1595  -6.1594  -6.1579  -6.1576  -6.1248  -6.1212
    -6.0000  -5.9954  -5.9951  -5.9945  -5.8973  -5.8936  -5.8418  -5.8370
    -5.8368  -5.8356  -5.8226  -5.8191  -5.8075  -5.8054  -5.7258  -5.7238
     5.0716   5.0754   5.1243   5.1254   5.4296   5.4327   5.4328   5.4328
     5.4465   5.4477   5.4597   5.4610   5.7683   5.7730   5.9021   5.9025
     5.9051   5.9076   5.9080   5.9089   5.9968   5.9977   5.9994   5.9994
     6.0028   6.0054   6.2355   6.2397   6.2405   6.2434   6.3146   6.3164
     6.6000   6.6053   6.6058   6.6075   6.7265   6.7304   6.9827   6.9837
     7.1292   7.1297   7.1302   7.1320   7.2047   7.2048   7.6294   7.6338
     7.6340   7.6346   7.6809   7.6823   7.8076   7.8083   7.9957   7.9967
     8.1025   8.1031   8.1033   8.1037   8.5602   8.5620   8.5631   8.5654
     8.6390   8.6405   8.6660   8.6694   8.7013   8.7021   8.7178   8.7207
     8.8483   8.8487   8.8490   8.8507   9.0210   9.0242   9.1405   9.1427
     9.2320   9.2322   9.2461   9.2492   9.5139   9.5146   9.5152   9.5157
     9.6886   9.6901  10.0564  10.0565  10.0568  10.0578  10.3323  10.3323
    11.2800  11.2811  11.5711  11.5742  11.5748  11.5753  11.9779  11.9779
    11.9952  11.9968  12.0361  12.0363  12.1932  12.1946  12.1952  12.1953
    12.3925  12.3951  12.4569  12.4579  12.4615  12.4662  12.4710  12.4725
    12.4726  12.4735  12.6470  12.6477  12.7511  12.7512  12.7513  12.7523
    12.8807  12.8815  12.9190  12.9195  13.1199  13.1200  13.1202  13.1205
    13.1390  13.1392  13.3936  13.3937  13.3939  13.3947  13.7239  13.7247
    15.2224  15.2232  15.2947  15.2947  15.2954  15.2972  15.6639  15.6640
    15.6653  15.6681  15.6890  15.6907  15.9415  15.9426  16.1991  16.2024
    16.3707  16.3712  16.3764  16.3772  16.6047  16.6048  16.6081  16.6082
    16.8504  16.8507  17.3309  17.3309  17.3319  17.3368  17.3991  17.4005
    20.5936  20.5968  21.5460  21.5471  21.5479  21.5512  22.2021  22.2039
    22.9106  22.9117  22.9121  22.9160  22.9776  22.9813  24.0180  24.0196
    24.1319  24.1380  24.3325  24.3381  24.8382  24.8383  24.8397  24.8428
    25.0721  25.0745  25.7769  25.7773  25.7774  25.7840  25.8073  25.8124
    25.8610  25.8652  26.1007  26.1022  26.2906  26.2912  26.2938  26.2969
    26.4419  26.4457  26.6721  26.6727  26.6757  26.6761  27.5223  27.5235
    27.8049  27.8050  27.8064  27.8106  27.9320  27.9320  28.1294  28.1294
    28.2990  28.3024  28.4734  28.4737  28.4744  28.4789  28.4795  28.4856
    28.8673  28.8696  28.9440  28.9442  28.9459  28.9504  29.2666  29.2691
    29.3081  29.3089  29.7769  29.7835  29.9817  29.9821  29.9839  29.9858
    30.2098  30.2135  31.0771  31.0784  31.0787  31.0857  31.7125  31.7135
    32.1641  32.1646  32.1646  32.1718  32.8518  32.8587  33.0333  33.0346
    33.1929  33.1959  33.1959  33.1959  33.6887  33.6895  33.7570  33.7626
    34.3877  34.3878  34.5923  34.5958  34.5963  34.5968  35.1788  35.1804
    35.4989  35.4997  35.7148  35.7187  35.7188  35.7193  35.7210  35.7214
    35.7393  35.7430  35.8871  35.8894  35.9872  35.9884  35.9895  35.9947
    36.6747  36.6749  36.9281  36.9289  36.9305  36.9319  37.1051  37.1054
    37.1714  37.1719  37.1721  37.1737  37.9287  37.9301  38.4110  38.4123
    38.4138  38.4139  38.4479  38.4489  38.4625  38.4664  38.8551  38.8566
    38.8566  38.8610  38.8751  38.8759  39.0382  39.0400  39.0840  39.0851
    39.2455  39.2474  39.3236  39.3242  39.5953  39.5961  39.5996  39.6007
    39.6664  39.6708  39.7145  39.7152  39.8391  39.8401  39.8405  39.8406
    40.1482  40.1500  40.6744  40.6751  40.6789  40.6792  41.1750  41.1767
    41.6260  41.6271  41.9740  41.9744  42.0448  42.0521  42.2678  42.2685
    42.2709  42.2719  42.4262  42.4295  42.8037  42.8062  43.2768  43.2773
    43.2795  43.2817  43.8667  43.8671  43.8678  43.8739  43.9036  43.9042
    44.2666  44.2694  44.4725  44.4759  44.4771  44.4775  44.7551  44.7569
    44.8976  44.8983  44.8993  44.9032  45.0168  45.0172  45.4667  45.4712
    45.5530  45.5630  45.8350  45.8360  45.8360  45.8381  45.9932  45.9944
    46.0049  46.0061  46.0866  46.0873  46.0878  46.0881  46.2154  46.2168
    46.4633  46.4643  46.4651  46.4684  46.6814  46.6864  46.7388  46.7411
    46.8874  46.8896  46.9215  46.9224  46.9254  46.9261  46.9917  47.0009
    47.0769  47.0805  47.3236  47.3250  47.8505  47.8511  47.8520  47.8540
    48.0089  48.0112  48.2365  48.2384  48.2473  48.2484  48.2495  48.2536
    48.3600  48.3661  48.5200  48.5227  48.7673  48.7675  48.7701  48.7743
    49.1471  49.1499  49.1502  49.1514  49.1535  49.1660  49.4399  49.4415
    49.4941  49.4955  49.4963  49.4968  49.4975  49.4997  49.5209  49.5209
    49.7183  49.7188  49.8950  49.8990  50.0019  50.0025  50.0070  50.0088
    50.4610  50.4610  50.8161  50.8165  50.8173  50.8186  50.8619  50.8664
    50.9177  50.9195  50.9209  50.9218  51.0537  51.0543  51.1216  51.1225
    51.3426  51.3469  51.5520  51.5523  51.5551  51.5580  51.9616  51.9631
    52.0336  52.0342  52.0346  52.0374  52.2313  52.2359  52.2979  52.3034
    52.5866  52.5867  52.5872  52.5884  52.6032  52.6051  52.8631  52.8649
    53.0591  53.0609  53.3116  53.3116  53.3122  53.3171  53.3808  53.3823
    54.1085  54.1086  54.1943  54.1970  54.2771  54.2790  54.3872  54.3911
    54.4858  54.4867  54.4882  54.4938  55.1664  55.1686  55.1692  55.1699
    55.2788  55.2793  55.3915  55.3923  55.3946  55.3947  55.5285  55.5288

     the Fermi energy is    12.7104 ev

!    total energy              =   -4124.80921325 Ry
     Harris-Foulkes estimate   =   -4124.80921340 Ry
     estimated scf accuracy    <       0.00000016 Ry

     The total energy is the sum of the following terms:

     one-electron contribution =   -1365.44725551 Ry
     hartree contribution      =     934.07923517 Ry
     xc contribution           =    -627.48669687 Ry
     ewald contribution        =   -3065.87288853 Ry
     Hubbard energy            =      -0.07912373 Ry
     smearing contrib. (-TS)   =      -0.00248379 Ry

     total magnetization       =     0.00 Bohr mag/cell
     absolute magnetization    =     0.00 Bohr mag/cell

     convergence has been achieved in  28 iterations

     Writing output data file pwscf.save

     init_run     :     61.84s CPU    105.69s WALL (       1 calls)
     electrons    :  36713.93s CPU  44925.90s WALL (       1 calls)

     Called by init_run:
     wfcinit      :     48.96s CPU     91.02s WALL (       1 calls)
     potinit      :      1.37s CPU      2.54s WALL (       1 calls)

     Called by electrons:
     c_bands      :  34008.55s CPU  40426.12s WALL (      28 calls)
     sum_band     :   2338.91s CPU   4082.28s WALL (      28 calls)
     v_of_rho     :     17.86s CPU     27.23s WALL (      29 calls)
     newd         :    348.43s CPU    375.39s WALL (      29 calls)
     mix_rho      :      3.28s CPU      5.75s WALL (      28 calls)

     Called by c_bands:
     init_us_2    :     14.51s CPU     15.03s WALL (    2394 calls)
     cegterg      :  33949.04s CPU  39988.91s WALL (    1176 calls)

     Called by *egterg:
     h_psi        :   8626.91s CPU  12932.45s WALL (    2975 calls)
     s_psi        :    829.50s CPU    830.77s WALL (    3017 calls)
     g_psi        :      9.99s CPU     10.02s WALL (    1799 calls)
     cdiaghg      :  19258.74s CPU  19589.76s WALL (    2933 calls)

     Called by h_psi:
     add_vuspsi   :    829.53s CPU    831.07s WALL (    2975 calls)
     vhpsi        :   1755.48s CPU   2317.38s WALL (    2975 calls)

     General routines
     calbec       :   2779.43s CPU   3777.03s WALL (    8344 calls)
     fft          :     34.99s CPU     65.07s WALL (     887 calls)
     ffts         :      0.45s CPU      0.83s WALL (     114 calls)
     fftw         :   5656.80s CPU  10060.87s WALL ( 3950418 calls)
     interpolate  :      3.52s CPU      6.38s WALL (     114 calls)
     davcio       :      8.63s CPU   1025.57s WALL (    7140 calls)

     Parallel routines
     fft_scatter  :   4115.73s CPU   8510.76s WALL ( 3951419 calls)
     Hubbard U routines
     new_ns       :    362.34s CPU   1148.72s WALL (      28 calls)
     vhpsi        :   1755.48s CPU   2317.38s WALL (    2975 calls)

     PWSCF        :    10h12m CPU       12h30m WALL


   This run was terminated on:   2:43:58  11Feb2014            

=------------------------------------------------------------------------------=
   JOB DONE.
=------------------------------------------------------------------------------=
