
     Program PWSCF v.5.0.2 (svn rev. 9656) starts on  7Apr2014 at 21: 6:46 

     This program is part of the open-source Quantum ESPRESSO suite
     for quantum simulation of materials; please cite
         "P. Giannozzi et al., J. Phys.:Condens. Matter 21 395502 (2009);
          URL http://www.quantum-espresso.org", 
     in publications or presentations arising from this work. More details at
     http://www.quantum-espresso.org/quote.php

     Parallel version (MPI), running on    16 processors
     R & G space division:  proc/nbgrp/npool/nimage =      16

     Current dimensions of program PWSCF are:
     Max number of different atomic species (ntypx) = 10
     Max number of k-points (npk) =  40000
     Max angular momentum in pseudopotentials (lmaxx) =  3
     Reading input from pwscf.in
Warning: card &CELL ignored
Warning: card / ignored

     Subspace diagonalization in iterative solution of the eigenvalue problem:
     a serial algorithm will be used


     Parallelization info
     --------------------
     sticks:   dense  smooth     PW     G-vecs:    dense   smooth      PW
     Min         372     118     33                88474    15968    2355
     Max         373     119     34                88487    16039    2367
     Sum        5965    1901    531              1415713   256153   37769



     bravais-lattice index     =            0
     lattice parameter (alat)  =      12.2076  a.u.
     unit-cell volume          =    7496.5096 (a.u.)^3
     number of atoms/cell      =           32
     number of atomic types    =            3
     number of electrons       =       247.00
     number of Kohn-Sham states=          370
     kinetic-energy cutoff     =      40.0000  Ry
     charge density cutoff     =     500.0000  Ry
     convergence threshold     =      1.0E-06
     mixing beta               =       0.3000
     number of iterations used =            8  plain     mixing
     Exchange-correlation      = SLA  PW   PBE  PBE ( 1 4 3 4 0)
     EXX-fraction              =        0.00
     nstep                     =           50


     celldm(1)=  12.207631  celldm(2)=   0.000000  celldm(3)=   0.000000
     celldm(4)=   0.000000  celldm(5)=   0.000000  celldm(6)=   0.000000

     crystal axes: (cart. coord. in units of alat)
               a(1) = (   1.000000   0.000000   0.000000 )  
               a(2) = (   0.000000   1.004836   0.000000 )  
               a(3) = (   0.000000   0.000000   4.100811 )  

     reciprocal axes: (cart. coord. in units 2 pi/alat)
               b(1) = (  1.000000  0.000000  0.000000 )  
               b(2) = (  0.000000  0.995187  0.000000 )  
               b(3) = (  0.000000  0.000000  0.243854 )  


     PseudoPot. # 1 for O  read from file:
     /home/camp/zhonxu/pseudo/o_pbe_v1.01.uspp.F.UPF
     MD5 check sum: 2bcb18d16ea4b960afae9ec6d52f22d2
     Pseudo is Ultrasoft + core correction, Zval =  6.0
     Generated by new atomic code, or converted to UPF format
     Using radial grid of  737 points,  5 beta functions with: 
                l(1) =   0
                l(2) =   0
                l(3) =   1
                l(4) =   1
                l(5) =   2
     Q(r) pseudized with  8 coefficients,  rinner =    0.900   0.900   0.900
                                                       0.900   0.900

     PseudoPot. # 2 for Pt read from file:
     /home/camp/zhonxu/pseudo/pt_pbe_v1.uspp.F.UPF
     MD5 check sum: 4c71d6ad5ef119f1eb26a4d0b7884226
     Pseudo is Ultrasoft + core correction, Zval = 16.0
     Generated by new atomic code, or converted to UPF format
     Using radial grid of  985 points,  6 beta functions with: 
                l(1) =   0
                l(2) =   0
                l(3) =   1
                l(4) =   1
                l(5) =   2
                l(6) =   2
     Q(r) pseudized with  8 coefficients,  rinner =    1.300   1.300   1.300
                                                       1.300   1.300

     PseudoPot. # 3 for H  read from file:
     /home/camp/zhonxu/pseudo/h_pbe_v1.uspp.F.UPF
     MD5 check sum: 3408e3ff4ec8b0a4e358431e7e038a48
     Pseudo is Ultrasoft, Zval =  1.0
     Generated by new atomic code, or converted to UPF format
     Using radial grid of  615 points,  2 beta functions with: 
                l(1) =   0
                l(2) =   0
     Q(r) pseudized with  8 coefficients,  rinner =    0.700

     atomic species   valence    mass     pseudopotential
        O0             6.00    15.99940     O ( 1.00)
        Pt1           16.00   195.08000     Pt( 1.00)
        H2             1.00     1.00794     H ( 1.00)

     Starting magnetic structure 
     atomic species   magnetization
        O0           0.000
        Pt1          0.000
        H2           0.000

     No symmetry found



   Cartesian axes

     site n.     atom                  positions (alat units)
         1           O0  tau(   1) = (   0.0000000   0.0000000   1.5465389  )
         2           O0  tau(   2) = (   0.0000000   0.5024180   1.6420468  )
         3           Pt1 tau(   3) = (   0.2500000   0.5024180   1.8457341  )
         4           Pt1 tau(   4) = (   0.0000000   0.0000000   1.8540998  )
         5           O0  tau(   5) = (   0.2500000   0.8139171   1.8163313  )
         6           O0  tau(   6) = (   0.2500000   0.1909188   1.8821903  )
         7           O0  tau(   7) = (   0.0000000   0.5024180   2.0334282  )
         8           O0  tau(   8) = (   0.0000000   0.0000000   2.1705594  )
         9           Pt1 tau(   9) = (   0.2500000   0.0000000   2.3612881  )
        10           Pt1 tau(  10) = (   0.0000000   0.5024180   2.3528814  )
        11           O0  tau(  11) = (   0.2500000   0.6933368   2.3800698  )
        12           O0  tau(  12) = (   0.2500000   0.3114991   2.3843757  )
        13           O0  tau(  13) = (   0.0000000   0.0000000   2.5479570  )
        14           O0  tau(  14) = (   0.5000000   0.0000000   1.5465389  )
        15           O0  tau(  15) = (   0.5000000   0.5024180   1.6390122  )
        16           Pt1 tau(  16) = (   0.7500000   0.5024180   1.8457341  )
        17           Pt1 tau(  17) = (   0.5000000   0.0000000   1.8539767  )
        18           O0  tau(  18) = (   0.7500000   0.8139171   1.8163723  )
        19           O0  tau(  19) = (   0.7500000   0.1909188   1.8820673  )
        20           O0  tau(  20) = (   0.5000000   0.5024180   2.0385542  )
        21           O0  tau(  21) = (   0.5000000   0.0000000   2.1700263  )
        22           Pt1 tau(  22) = (   0.7500000   0.0000000   2.3610420  )
        23           Pt1 tau(  23) = (   0.5000000   0.5024180   2.3648148  )
        24           O0  tau(  24) = (   0.7500000   0.6933368   2.3762971  )
        25           O0  tau(  25) = (   0.7500000   0.3114991   2.3802338  )
        26           O0  tau(  26) = (   0.5000000   0.0000000   2.5469728  )
        27           H2  tau(  27) = (   0.0000400   0.6420801   1.5757777  )
        28           H2  tau(  28) = (   0.4999600   0.6427433   1.5737273  )
        29           H2  tau(  29) = (   0.1437000   0.0320844   1.5050387  )
        30           H2  tau(  30) = (   0.6436600   0.0322150   1.5049567  )
        31           O0  tau(  31) = (   0.5117900   0.5039051   2.6694230  )
        32           H2  tau(  32) = (   0.3652300   0.5007399   2.7127276  )

     number of k points=    20  Methfessel-Paxton smearing, width (Ry)=  0.0100
                       cart. coord. in units 2pi/alat
        k(    1) = (   0.0000000   0.0000000   0.0000000), wk =   0.0625000
        k(    2) = (   0.0000000   0.2487968   0.0000000), wk =   0.1250000
        k(    3) = (   0.0000000  -0.4975937   0.0000000), wk =   0.0625000
        k(    4) = (   0.2500000   0.0000000   0.0000000), wk =   0.1250000
        k(    5) = (   0.2500000   0.2487968   0.0000000), wk =   0.1250000
        k(    6) = (   0.2500000  -0.4975937   0.0000000), wk =   0.1250000
        k(    7) = (  -0.5000000   0.0000000   0.0000000), wk =   0.0625000
        k(    8) = (  -0.5000000   0.2487968   0.0000000), wk =   0.1250000
        k(    9) = (  -0.5000000  -0.4975937   0.0000000), wk =   0.0625000
        k(   10) = (  -0.2500000   0.2487968   0.0000000), wk =   0.1250000
        k(   11) = (   0.0000000   0.0000000   0.0000000), wk =   0.0625000
        k(   12) = (   0.0000000   0.2487968   0.0000000), wk =   0.1250000
        k(   13) = (   0.0000000  -0.4975937   0.0000000), wk =   0.0625000
        k(   14) = (   0.2500000   0.0000000   0.0000000), wk =   0.1250000
        k(   15) = (   0.2500000   0.2487968   0.0000000), wk =   0.1250000
        k(   16) = (   0.2500000  -0.4975937   0.0000000), wk =   0.1250000
        k(   17) = (  -0.5000000   0.0000000   0.0000000), wk =   0.0625000
        k(   18) = (  -0.5000000   0.2487968   0.0000000), wk =   0.1250000
        k(   19) = (  -0.5000000  -0.4975937   0.0000000), wk =   0.0625000
        k(   20) = (  -0.2500000   0.2487968   0.0000000), wk =   0.1250000

     Dense  grid:  1415713 G-vectors     FFT dimensions: (  90,  90, 360)

     Smooth grid:   256153 G-vectors     FFT dimensions: (  50,  50, 216)

     Largest allocated arrays     est. size (Mb)     dimensions
        Kohn-Sham Wavefunctions        11.51 Mb     (   2039,  370)
        NL pseudopotentials            12.48 Mb     (   2039,  401)
        Each V/rho on FFT grid          5.69 Mb     ( 186300,   2)
        Each G-vector array             0.68 Mb     (  88483)
        G-vector shells                 0.32 Mb     (  42478)
     Largest temporary arrays     est. size (Mb)     dimensions
        Auxiliary wavefunctions        46.05 Mb     (   2039, 1480)
        Each subspace H/S matrix       33.42 Mb     (1480,1480)
        Each <psi_i|beta_j> matrix      2.26 Mb     (    401,  370)
        Arrays for rho mixing          22.74 Mb     ( 186300,   8)

     Check: negative/imaginary core charge=   -0.000003    0.000000

     Initial potential from superposition of free atoms
     Check: negative starting charge=(component1):   -0.769156
     Check: negative starting charge=(component2):   -0.769156

     starting charge  242.99984, renormalised to  247.00000

     negative rho (up, down):  0.782E+00 0.782E+00
     Starting wfc are  177 randomized atomic wfcs

     total cpu time spent up to now is      153.0 secs

     per-process dynamical memory:   319.6 Mb

     Self-consistent Calculation

     iteration #  1     ecut=    40.00 Ry     beta=0.30
     Davidson diagonalization with overlap
     ethr =  1.00E-02,  avg # of iterations =  5.1

     negative rho (up, down):  0.771E+00 0.771E+00

     total cpu time spent up to now is     1196.5 secs

     total energy              =   -2275.80798636 Ry
     Harris-Foulkes estimate   =   -2288.22211749 Ry
     estimated scf accuracy    <      26.59880464 Ry

     total magnetization       =     0.00 Bohr mag/cell
     absolute magnetization    =     0.01 Bohr mag/cell

     iteration #  2     ecut=    40.00 Ry     beta=0.30
     Davidson diagonalization with overlap
     ethr =  1.00E-02,  avg # of iterations =  3.0

     negative rho (up, down):  0.776E+00 0.776E+00

     total cpu time spent up to now is     1674.9 secs

     total energy              =   -2268.46754408 Ry
     Harris-Foulkes estimate   =   -2289.39635595 Ry
     estimated scf accuracy    <     162.08866956 Ry

     total magnetization       =     0.00 Bohr mag/cell
     absolute magnetization    =     0.01 Bohr mag/cell

     iteration #  3     ecut=    40.00 Ry     beta=0.30
     Davidson diagonalization with overlap
     ethr =  1.00E-02,  avg # of iterations =  3.0

     negative rho (up, down):  0.783E+00 0.783E+00

     total cpu time spent up to now is     2182.9 secs

     total energy              =   -2276.15212247 Ry
     Harris-Foulkes estimate   =   -2286.51242223 Ry
     estimated scf accuracy    <     130.87126765 Ry

     total magnetization       =    -0.00 Bohr mag/cell
     absolute magnetization    =     0.00 Bohr mag/cell

     iteration #  4     ecut=    40.00 Ry     beta=0.30
     Davidson diagonalization with overlap
     ethr =  1.00E-02,  avg # of iterations =  2.1

     negative rho (up, down):  0.785E+00 0.785E+00

     total cpu time spent up to now is     2618.2 secs

     total energy              =   -2282.00063973 Ry
     Harris-Foulkes estimate   =   -2283.52878474 Ry
     estimated scf accuracy    <      10.24865037 Ry

     total magnetization       =     0.00 Bohr mag/cell
     absolute magnetization    =     0.00 Bohr mag/cell

     iteration #  5     ecut=    40.00 Ry     beta=0.30
     Davidson diagonalization with overlap
     ethr =  4.15E-03,  avg # of iterations =  1.0

     negative rho (up, down):  0.786E+00 0.786E+00

     total cpu time spent up to now is     3008.8 secs

     total energy              =   -2282.37399840 Ry
     Harris-Foulkes estimate   =   -2282.58615173 Ry
     estimated scf accuracy    <       2.05356164 Ry

     total magnetization       =     0.00 Bohr mag/cell
     absolute magnetization    =     0.00 Bohr mag/cell

     iteration #  6     ecut=    40.00 Ry     beta=0.30
     Davidson diagonalization with overlap
     ethr =  8.31E-04,  avg # of iterations =  7.9

     negative rho (up, down):  0.787E+00 0.787E+00

     total cpu time spent up to now is     3730.2 secs

     total energy              =   -2282.28946576 Ry
     Harris-Foulkes estimate   =   -2282.42627107 Ry
     estimated scf accuracy    <       1.27350104 Ry

     total magnetization       =     0.00 Bohr mag/cell
     absolute magnetization    =     0.00 Bohr mag/cell

     iteration #  7     ecut=    40.00 Ry     beta=0.30
     Davidson diagonalization with overlap
     ethr =  5.16E-04,  avg # of iterations =  2.9

     negative rho (up, down):  0.788E+00 0.788E+00

     total cpu time spent up to now is     4235.6 secs

     total energy              =   -2282.17315403 Ry
     Harris-Foulkes estimate   =   -2282.31688040 Ry
     estimated scf accuracy    <       0.72323585 Ry

     total magnetization       =     0.00 Bohr mag/cell
     absolute magnetization    =     0.00 Bohr mag/cell

     iteration #  8     ecut=    40.00 Ry     beta=0.30
     Davidson diagonalization with overlap
     ethr =  2.93E-04,  avg # of iterations =  1.6

     negative rho (up, down):  0.789E+00 0.789E+00

     total cpu time spent up to now is     4658.0 secs

     total energy              =   -2282.17724100 Ry
     Harris-Foulkes estimate   =   -2282.21846226 Ry
     estimated scf accuracy    <       0.23735644 Ry

     total magnetization       =     0.00 Bohr mag/cell
     absolute magnetization    =     0.00 Bohr mag/cell

     iteration #  9     ecut=    40.00 Ry     beta=0.30
     Davidson diagonalization with overlap
     ethr =  9.61E-05,  avg # of iterations =  5.2

     negative rho (up, down):  0.790E+00 0.790E+00

     total cpu time spent up to now is     5180.7 secs

     total energy              =   -2282.18058186 Ry
     Harris-Foulkes estimate   =   -2282.19535088 Ry
     estimated scf accuracy    <       0.06542985 Ry

     total magnetization       =     0.00 Bohr mag/cell
     absolute magnetization    =     0.00 Bohr mag/cell

     iteration # 10     ecut=    40.00 Ry     beta=0.30
     Davidson diagonalization with overlap
     ethr =  2.65E-05,  avg # of iterations =  5.1

     negative rho (up, down):  0.791E+00 0.791E+00

     total cpu time spent up to now is     5699.6 secs

     total energy              =   -2282.17938834 Ry
     Harris-Foulkes estimate   =   -2282.19178335 Ry
     estimated scf accuracy    <       0.09906636 Ry

     total magnetization       =     0.00 Bohr mag/cell
     absolute magnetization    =     0.00 Bohr mag/cell

     iteration # 11     ecut=    40.00 Ry     beta=0.30
     Davidson diagonalization with overlap
     ethr =  2.65E-05,  avg # of iterations =  1.0

     negative rho (up, down):  0.791E+00 0.791E+00

     total cpu time spent up to now is     6094.5 secs

     total energy              =   -2282.18564278 Ry
     Harris-Foulkes estimate   =   -2282.18788883 Ry
     estimated scf accuracy    <       0.01448652 Ry

     total magnetization       =     0.00 Bohr mag/cell
     absolute magnetization    =     0.00 Bohr mag/cell

     iteration # 12     ecut=    40.00 Ry     beta=0.30
     Davidson diagonalization with overlap
     ethr =  5.86E-06,  avg # of iterations =  5.4

     negative rho (up, down):  0.792E+00 0.792E+00

     total cpu time spent up to now is     6624.2 secs

     total energy              =   -2282.18434548 Ry
     Harris-Foulkes estimate   =   -2282.18750051 Ry
     estimated scf accuracy    <       0.01662129 Ry

     total magnetization       =     0.00 Bohr mag/cell
     absolute magnetization    =     0.00 Bohr mag/cell

     iteration # 13     ecut=    40.00 Ry     beta=0.30
     Davidson diagonalization with overlap
     ethr =  5.86E-06,  avg # of iterations =  1.0

     negative rho (up, down):  0.792E+00 0.792E+00

     total cpu time spent up to now is     7021.0 secs

     total energy              =   -2282.18592688 Ry
     Harris-Foulkes estimate   =   -2282.18634501 Ry
     estimated scf accuracy    <       0.00281375 Ry

     total magnetization       =     0.00 Bohr mag/cell
     absolute magnetization    =     0.00 Bohr mag/cell

     iteration # 14     ecut=    40.00 Ry     beta=0.30
     Davidson diagonalization with overlap
     ethr =  1.14E-06,  avg # of iterations =  2.5

     negative rho (up, down):  0.792E+00 0.792E+00

     total cpu time spent up to now is     7452.2 secs

     total energy              =   -2282.18597688 Ry
     Harris-Foulkes estimate   =   -2282.18621954 Ry
     estimated scf accuracy    <       0.00159612 Ry

     total magnetization       =     0.00 Bohr mag/cell
     absolute magnetization    =     0.00 Bohr mag/cell

     iteration # 15     ecut=    40.00 Ry     beta=0.30
     Davidson diagonalization with overlap
     ethr =  6.46E-07,  avg # of iterations =  2.0

     negative rho (up, down):  0.792E+00 0.792E+00

     total cpu time spent up to now is     7869.0 secs

     total energy              =   -2282.18608756 Ry
     Harris-Foulkes estimate   =   -2282.18617795 Ry
     estimated scf accuracy    <       0.00072493 Ry

     total magnetization       =     0.00 Bohr mag/cell
     absolute magnetization    =     0.00 Bohr mag/cell

     iteration # 16     ecut=    40.00 Ry     beta=0.30
     Davidson diagonalization with overlap
     ethr =  2.93E-07,  avg # of iterations =  1.0

     negative rho (up, down):  0.792E+00 0.792E+00

     total cpu time spent up to now is     8257.4 secs

     total energy              =   -2282.18612327 Ry
     Harris-Foulkes estimate   =   -2282.18614076 Ry
     estimated scf accuracy    <       0.00011294 Ry

     total magnetization       =     0.00 Bohr mag/cell
     absolute magnetization    =     0.00 Bohr mag/cell

     iteration # 17     ecut=    40.00 Ry     beta=0.30
     Davidson diagonalization with overlap
     ethr =  4.57E-08,  avg # of iterations =  1.0

     negative rho (up, down):  0.792E+00 0.792E+00

     total cpu time spent up to now is     8644.5 secs

     total energy              =   -2282.18613078 Ry
     Harris-Foulkes estimate   =   -2282.18613544 Ry
     estimated scf accuracy    <       0.00002877 Ry

     total magnetization       =     0.00 Bohr mag/cell
     absolute magnetization    =     0.00 Bohr mag/cell

     iteration # 18     ecut=    40.00 Ry     beta=0.30
     Davidson diagonalization with overlap
     ethr =  1.16E-08,  avg # of iterations =  1.0

     negative rho (up, down):  0.792E+00 0.792E+00

     total cpu time spent up to now is     9032.0 secs

     total energy              =   -2282.18613193 Ry
     Harris-Foulkes estimate   =   -2282.18613578 Ry
     estimated scf accuracy    <       0.00002194 Ry

     total magnetization       =     0.00 Bohr mag/cell
     absolute magnetization    =     0.00 Bohr mag/cell

     iteration # 19     ecut=    40.00 Ry     beta=0.30
     Davidson diagonalization with overlap
     ethr =  8.88E-09,  avg # of iterations =  1.0

     negative rho (up, down):  0.792E+00 0.792E+00

     total cpu time spent up to now is     9419.3 secs

     total energy              =   -2282.18613357 Ry
     Harris-Foulkes estimate   =   -2282.18613459 Ry
     estimated scf accuracy    <       0.00000543 Ry

     total magnetization       =     0.00 Bohr mag/cell
     absolute magnetization    =     0.00 Bohr mag/cell

     iteration # 20     ecut=    40.00 Ry     beta=0.30
     Davidson diagonalization with overlap
     ethr =  2.20E-09,  avg # of iterations =  1.0

     negative rho (up, down):  0.792E+00 0.792E+00

     total cpu time spent up to now is     9806.4 secs

     total energy              =   -2282.18613359 Ry
     Harris-Foulkes estimate   =   -2282.18613420 Ry
     estimated scf accuracy    <       0.00000327 Ry

     total magnetization       =     0.00 Bohr mag/cell
     absolute magnetization    =     0.00 Bohr mag/cell

     iteration # 21     ecut=    40.00 Ry     beta=0.30
     Davidson diagonalization with overlap
     ethr =  1.32E-09,  avg # of iterations =  1.0

     negative rho (up, down):  0.792E+00 0.792E+00

     total cpu time spent up to now is    10193.5 secs

     total energy              =   -2282.18613366 Ry
     Harris-Foulkes estimate   =   -2282.18613425 Ry
     estimated scf accuracy    <       0.00000449 Ry

     total magnetization       =     0.00 Bohr mag/cell
     absolute magnetization    =     0.00 Bohr mag/cell

     iteration # 22     ecut=    40.00 Ry     beta=0.30
     Davidson diagonalization with overlap
     ethr =  1.32E-09,  avg # of iterations =  1.0

     negative rho (up, down):  0.792E+00 0.792E+00

     total cpu time spent up to now is    10580.6 secs

     End of self-consistent calculation

 ------ SPIN UP ------------


          k = 0.0000 0.0000 0.0000 ( 32157 PWs)   bands (ev):

   -55.8896 -55.8329 -55.8019 -55.7783 -55.7710 -55.7324 -55.7173 -55.7062
   -55.6518 -55.5723 -55.5630 -55.5199 -55.4923 -55.4822 -55.4696 -55.4643
   -55.4268 -55.4168 -55.4156 -55.4041 -55.3944 -55.1309 -54.8708 -54.6008
   -22.0160 -21.6222 -21.2632 -21.0886 -20.4247 -20.4058 -20.3595 -20.2962
   -20.1827 -20.1368 -20.1016 -20.0658 -19.9182 -19.8038 -19.7421 -19.6868
   -19.6245 -18.8775 -18.7369 -10.4227 -10.4008 -10.0632  -9.3908  -9.1610
    -9.0795  -9.0138  -9.0108  -8.9077  -8.8990  -8.8105  -8.7520  -8.7230
    -8.6962  -8.5312  -8.3321  -8.2432  -8.1988  -8.0373  -7.7133  -7.6419
    -7.5725  -7.4111  -7.3817  -6.9538  -6.8886  -6.7521  -6.5975  -6.3051
    -6.0586  -5.9500  -5.9152  -5.8031  -5.7953  -5.7218  -5.6683  -5.5629
    -5.5318  -5.4419  -5.2100  -5.1707  -5.1137  -5.0205  -4.9921  -4.9163
    -4.7821  -4.7304  -4.7192  -4.6909  -4.6673  -4.6534  -4.6117  -4.5431
    -4.4706  -4.4341  -4.2931  -4.2621  -4.2429  -4.1229  -4.0089  -3.9322
    -3.8688  -3.8153  -3.5641  -3.5237  -3.3492  -3.1817  -2.8730  -2.8020
    -2.7555  -2.7069  -2.6043  -2.4054  -2.1832  -2.1280  -1.9471  -1.8360
    -1.8237  -1.6241  -1.5466  -1.2393  -1.1768  -0.9061  -0.4245  -0.4055
    -0.3726  -0.1799  -0.0322   0.2272   0.6062   0.9048   1.0141   1.4265
     1.4344   1.6236   1.9566   2.0306   2.4167   3.3707   4.2101   4.6335
     4.7624   5.5442   5.6504   5.8217   5.8476   6.4986   6.5612   6.5825
     6.6839   6.8654   6.9344   6.9851   7.1802   7.3811   7.4282   7.4881
     7.6000   7.7142   7.7809   7.8194   7.8647   7.9041   7.9946   8.0662
     8.1601   8.2169   8.2762   8.3619   8.4389   8.4697   8.6031   8.7086
     8.8554   8.9192   8.9731   9.1018   9.1700   9.2467   9.5084   9.5300
     9.5992   9.6547   9.9140   9.9264   9.9791  10.0354  10.2231  10.2774
    10.4544  10.5469  10.5933  10.6833  10.7997  10.8282  10.8670  10.9281
    10.9772  11.0304  11.1926  11.1999  11.4010  11.4401  11.5181  11.5601
    11.6271  11.6782  11.7343  11.8076  11.9076  11.9895  12.0110  12.0419
    12.1662  12.2076  12.2356  12.2873  12.3710  12.4644  12.5334  12.5649
    12.6056  12.7028  12.7876  12.9622  13.0195  13.1593  13.2390  13.3436
    13.4141  13.4529  13.6196  13.6460  13.7601  13.7621  13.8452  14.0446
    14.0566  14.1884  14.2036  14.3149  14.4595  14.4995  14.5665  14.6024
    14.6820  14.8049  14.8128  14.9189  15.1057  15.2293  15.3306  15.4311
    15.4464  15.4995  15.5859  15.5953  15.6632  15.7976  15.8656  15.8743
    15.9909  16.1500  16.1632  16.2981  16.3258  16.3728  16.4024  16.4746
    16.5381  16.5520  16.5812  16.5961  16.6223  16.6465  16.7310  16.8222
    16.8598  16.9110  16.9818  17.1513  17.2306  17.3120  17.3737  17.4121
    17.5124  17.5622  17.6289  17.8074  17.8432  17.8874  17.8946  17.9978
    18.0843  18.1605  18.2112  18.3342  18.3933  18.4702  18.5303  18.6311
    18.6632  18.6947  18.7226  18.7428  18.7893  18.8810  18.9040  18.9447
    19.0420  19.0681  19.0931  19.1528  19.2392  19.2793  19.3655  19.3699
    19.4792  19.5398  19.6429  19.6659  19.6850  19.7423  19.7838  19.8047
    19.9555  19.9844  20.0973  20.1550  20.1610  20.1779  20.3475  20.4168
    20.5577  20.5635  20.6256  20.6630  20.8393  20.8739  20.9014  20.9551
    21.1111  21.1740  21.2007  21.2734  21.3409  21.3563  21.4446  21.4484
    21.5569  21.6171  21.6507  21.6762  21.7284  21.7593  21.8194  21.8464
    21.8580  21.9266  21.9873  22.0299  22.0430  22.0682  22.1313  22.1704
    22.1867  22.2346

          k = 0.0000 0.2488 0.0000 ( 32033 PWs)   bands (ev):

   -55.8896 -55.8329 -55.8019 -55.7784 -55.7710 -55.7321 -55.7173 -55.7063
   -55.6518 -55.5720 -55.5628 -55.5198 -55.4923 -55.4823 -55.4696 -55.4643
   -55.4266 -55.4169 -55.4155 -55.4045 -55.3945 -55.1309 -54.8708 -54.6008
   -21.9945 -21.6170 -21.1735 -21.0133 -20.4634 -20.4581 -20.3887 -20.3049
   -20.1631 -20.1211 -20.0806 -20.0788 -19.9515 -19.8244 -19.8054 -19.7854
   -19.6213 -18.8778 -18.7305 -10.1436  -9.9374  -9.8931  -9.5873  -9.1582
    -9.0857  -9.0132  -8.9984  -8.9273  -8.8322  -8.8141  -8.7796  -8.7378
    -8.6896  -8.6416  -8.3620  -8.2827  -8.0908  -7.6795  -7.6207  -7.5178
    -7.3837  -7.3564  -7.0885  -6.9678  -6.8304  -6.7974  -6.6950  -6.5969
    -6.4723  -6.4100  -6.2125  -6.0897  -6.0083  -5.8809  -5.7816  -5.6977
    -5.6204  -5.5396  -5.4745  -5.4308  -5.3538  -5.2061  -5.0508  -4.9992
    -4.8747  -4.8312  -4.6521  -4.6097  -4.4858  -4.3802  -4.2791  -4.2603
    -4.2333  -4.1956  -4.1466  -4.1134  -4.0148  -4.0006  -3.8999  -3.8729
    -3.8225  -3.7350  -3.5705  -3.4789  -3.4523  -3.3371  -3.2370  -3.1923
    -2.9637  -2.7524  -2.6024  -2.4310  -2.1962  -1.9986  -1.9104  -1.8508
    -1.6467  -1.5687  -1.5187  -1.3081  -1.2666  -1.1253  -1.0517  -0.6822
    -0.3555  -0.0463   0.4148   0.8996   0.9390   1.1437   1.2246   1.4165
     1.4893   1.4961   1.9116   1.9586   2.7904   3.5790   4.4118   4.8035
     4.9383   5.0504   5.6472   5.8167   5.8848   5.9997   6.2614   6.4144
     6.6519   6.6878   6.7488   7.0214   7.0852   7.1723   7.2600   7.3842
     7.4434   7.5721   7.6674   7.7048   7.8551   7.9416   8.0256   8.0773
     8.1983   8.3144   8.3926   8.4825   8.5188   8.6244   8.7357   8.7935
     8.9171   9.0572   9.1337   9.2415   9.3637   9.3945   9.5155   9.6139
     9.6578   9.7839   9.9053   9.9468  10.0222  10.0881  10.1151  10.2138
    10.3025  10.3933  10.4099  10.4773  10.5745  10.6544  10.8214  10.8949
    10.9672  11.0321  11.1167  11.1765  11.3538  11.3764  11.5141  11.5562
    11.6134  11.7280  11.8396  11.9226  11.9508  12.0766  12.1976  12.2460
    12.3032  12.4227  12.4519  12.5504  12.6129  12.6649  12.7222  12.8482
    12.9362  13.0688  13.1459  13.2814  13.4366  13.4937  13.5475  13.6021
    13.6686  13.7409  13.7691  13.8197  13.8947  14.0405  14.0978  14.1729
    14.2168  14.2656  14.3382  14.4440  14.4918  14.6143  14.6779  14.8073
    14.8385  14.9145  14.9737  14.9863  15.1212  15.2386  15.2903  15.3696
    15.4828  15.5494  15.6107  15.6796  15.7025  15.7679  15.7950  15.8949
    15.9252  15.9970  16.0481  16.1023  16.1697  16.2501  16.3003  16.3301
    16.3676  16.4141  16.4880  16.5139  16.5399  16.5748  16.5905  16.6142
    16.6401  16.6695  16.7106  16.8048  16.8557  16.9514  17.0304  17.1085
    17.1705  17.2246  17.3286  17.4298  17.4893  17.5823  17.6636  17.8243
    18.0152  18.0693  18.1075  18.1735  18.2081  18.2901  18.3554  18.4580
    18.5090  18.5465  18.6012  18.6248  18.6534  18.7508  18.7843  18.8931
    18.9385  18.9713  19.0079  19.0460  19.1130  19.1636  19.1792  19.2145
    19.2654  19.3543  19.3915  19.4203  19.4594  19.5481  19.5735  19.6869
    19.7129  19.7549  19.7799  19.8297  19.8647  19.9151  20.1752  20.1841
    20.2420  20.2692  20.3071  20.3776  20.4294  20.4640  20.4857  20.5353
    20.5890  20.7309  20.7500  20.8276  20.8620  20.8874  20.9338  20.9831
    21.0666  21.1209  21.1871  21.2112  21.2864  21.3319  21.3640  21.3971
    21.4529  21.5042  21.5464  21.6348  21.6768  21.7242  21.8153  21.8646
    21.9843  22.0648

          k = 0.0000-0.4976 0.0000 ( 31948 PWs)   bands (ev):

   -55.8895 -55.8328 -55.8019 -55.7785 -55.7710 -55.7319 -55.7172 -55.7065
   -55.6519 -55.5717 -55.5626 -55.5198 -55.4923 -55.4824 -55.4697 -55.4643
   -55.4263 -55.4170 -55.4153 -55.4050 -55.3946 -55.1309 -54.8709 -54.6008
   -21.9738 -21.6117 -21.0582 -20.8914 -20.5718 -20.4869 -20.4110 -20.3380
   -20.1597 -20.1095 -20.0950 -20.0598 -20.0161 -19.9030 -19.8380 -19.8039
   -19.6197 -18.8780 -18.7255 -10.0975  -9.7286  -9.2431  -9.2268  -9.1571
    -9.1447  -9.1163  -8.9229  -8.8567  -8.8479  -8.7659  -8.6971  -8.6879
    -8.6692  -8.5917  -8.3906  -8.2454  -8.0626  -7.8065  -7.7242  -7.7169
    -7.6182  -7.4290  -7.2233  -6.9945  -6.8378  -6.7777  -6.6533  -6.5591
    -6.4279  -6.3868  -6.3552  -6.3007  -6.1650  -6.1167  -6.0856  -5.9905
    -5.8415  -5.6927  -5.5279  -5.3441  -5.2893  -5.2463  -5.1935  -4.9964
    -4.8632  -4.7097  -4.6603  -4.4223  -4.3771  -4.3118  -4.2601  -4.2540
    -4.2194  -4.2000  -4.1708  -4.0943  -4.0222  -3.8979  -3.8467  -3.8002
    -3.7700  -3.6346  -3.5625  -3.4899  -3.3928  -3.3327  -3.2912  -3.2390
    -2.9139  -2.8493  -2.5141  -2.4422  -2.2342  -2.2261  -2.1259  -1.9497
    -1.6944  -1.5997  -1.5665  -1.3606  -1.3133  -1.2925  -1.1774  -0.5534
    -0.3397   0.4894   0.5615   0.8853   1.0177   1.2161   1.3512   1.4325
     1.5521   1.6286   1.9573   1.9851   3.6095   3.9487   4.1096   4.8149
     4.9577   5.2374   5.3574   5.5387   5.6768   5.7779   6.1804   6.2087
     6.2863   6.5502   6.6439   6.9359   7.0348   7.1002   7.2965   7.3975
     7.5223   7.5982   7.6346   7.7002   7.8108   7.9998   8.1437   8.2410
     8.4274   8.4935   8.5721   8.6235   8.6670   8.7468   8.7797   8.8114
     8.8415   8.9167   8.9265   9.0020   9.1107   9.1633   9.2360   9.4266
     9.4674   9.5155   9.6369   9.8253   9.8570   9.9711  10.0145  10.0382
    10.2017  10.6770  10.7623  10.7843  10.8291  10.8729  11.0402  11.1395
    11.1963  11.2761  11.3467  11.3641  11.4331  11.5369  11.6203  11.6933
    11.8855  11.9811  12.1205  12.1630  12.2026  12.2471  12.3168  12.3912
    12.5419  12.5681  12.6788  12.7719  12.7884  12.8387  12.8819  12.9339
    12.9704  13.0027  13.1337  13.1468  13.2054  13.3207  13.4534  13.5062
    13.6015  13.7000  13.7918  13.9267  14.1067  14.1912  14.2145  14.2398
    14.3609  14.4898  14.5129  14.5742  14.8087  14.9483  14.9960  15.0136
    15.0362  15.0994  15.1333  15.2257  15.2469  15.3081  15.3658  15.4312
    15.4691  15.6584  15.7052  15.7511  15.8281  15.8978  15.9034  15.9610
    16.0012  16.0928  16.1275  16.1892  16.2059  16.2437  16.2855  16.2999
    16.3339  16.3645  16.4005  16.4528  16.4719  16.5202  16.5492  16.5693
    16.5768  16.5951  16.6293  16.6302  16.7099  16.7468  16.8234  16.8865
    17.0653  17.1311  17.1890  17.2805  17.3077  17.3335  17.3783  17.4162
    17.5445  17.5911  17.6173  17.6934  17.7143  17.8192  17.8349  17.9973
    18.0301  18.0706  18.0944  18.1257  18.2431  18.3182  18.4230  18.5197
    18.5792  18.6339  18.7161  18.7647  18.8249  18.8685  18.9147  19.0912
    19.1108  19.1489  19.2087  19.2615  19.3002  19.3828  19.5014  19.5480
    19.6035  19.7276  19.7704  19.8043  19.8218  19.8819  19.9254  20.0155
    20.0427  20.0833  20.1103  20.1716  20.2095  20.2378  20.2519  20.3104
    20.3631  20.3814  20.4431  20.4666  20.5661  20.6120  20.6572  20.7277
    20.7377  20.7461  20.8016  20.8691  20.9252  21.0643  21.0685  21.1460
    21.1978  21.2945  21.3386  21.4105  21.5157  21.5402  21.5977  21.7854
    21.8102  21.8554

          k = 0.2500 0.0000 0.0000 ( 32013 PWs)   bands (ev):

   -55.8819 -55.8406 -55.8018 -55.7783 -55.7635 -55.7318 -55.7248 -55.6984
   -55.6596 -55.5719 -55.5634 -55.5196 -55.4926 -55.4820 -55.4698 -55.4643
   -55.4263 -55.4168 -55.4162 -55.4038 -55.3946 -55.1316 -54.8708 -54.6008
   -21.9592 -21.6408 -21.1651 -20.9971 -20.6054 -20.4849 -20.3467 -20.2721
   -20.1429 -20.1107 -20.0481 -20.0428 -19.9183 -19.8279 -19.7973 -19.7470
   -19.6278 -18.9023 -18.7913 -10.2646 -10.2416  -9.9516  -9.5105  -9.2936
    -9.2674  -9.1506  -8.9703  -8.8596  -8.8317  -8.8240  -8.5500  -8.4608
    -8.3766  -8.3469  -8.3223  -8.1482  -8.0916  -8.0270  -7.9097  -7.5994
    -7.5012  -7.4393  -7.3346  -6.9292  -6.8705  -6.6486  -6.5866  -6.4427
    -6.4132  -6.3185  -6.2420  -6.0794  -5.9959  -5.9425  -5.8810  -5.7995
    -5.6796  -5.4866  -5.4103  -5.3541  -5.3025  -5.2180  -5.1837  -5.1365
    -5.0929  -5.0551  -4.8681  -4.8427  -4.6689  -4.5733  -4.4859  -4.2752
    -4.2355  -4.2068  -4.1486  -4.1056  -3.9239  -3.8958  -3.7733  -3.7130
    -3.5726  -3.4150  -3.3579  -3.2959  -3.2721  -3.2029  -2.7703  -2.7030
    -2.6125  -2.4849  -2.4087  -2.3584  -2.3281  -2.1601  -2.0818  -1.9254
    -1.8313  -1.5957  -1.5127  -1.4095  -1.2970  -0.7536  -0.2876  -0.2096
    -0.1683   0.0307   0.0549   0.2176   0.5060   0.6097   1.0646   1.0977
     1.2903   1.4101   1.4553   1.9421   2.8214   3.6767   4.4306   4.8452
     4.9566   4.9827   5.6330   5.7999   6.0093   6.0801   6.2459   6.4957
     6.6340   6.7259   6.8487   7.0047   7.0929   7.1454   7.3111   7.3775
     7.4944   7.6454   7.7140   7.7749   7.9303   8.0188   8.1061   8.1321
     8.2547   8.3158   8.4281   8.5216   8.5626   8.6817   8.7589   8.8052
     8.9350   9.0423   9.1261   9.2882   9.3479   9.5085   9.5558   9.7352
     9.7479   9.8208   9.8726   9.9904  10.0329  10.0900  10.1493  10.1973
    10.2279  10.3041  10.4178  10.4375  10.6084  10.6912  10.7325  10.8196
    10.8611  10.9369  11.0142  11.0891  11.1918  11.2885  11.3051  11.4194
    11.4645  11.5627  11.7352  11.7823  12.0291  12.0984  12.1600  12.1786
    12.2639  12.3218  12.5058  12.5884  12.7006  12.7718  12.8772  12.9303
    13.0065  13.1266  13.1871  13.2628  13.4476  13.5076  13.5740  13.6022
    13.6370  13.6851  13.7251  13.7688  13.8297  13.8530  13.8855  13.9835
    14.0996  14.1472  14.2021  14.2691  14.3330  14.4286  14.5067  14.6235
    14.6856  14.8055  14.9065  14.9980  15.0426  15.1810  15.2318  15.2640
    15.3210  15.4034  15.4844  15.5334  15.6752  15.7834  15.8472  15.8901
    15.9738  16.0037  16.0908  16.1655  16.2346  16.2792  16.3147  16.3536
    16.3895  16.4532  16.5351  16.5637  16.5777  16.5873  16.6067  16.6261
    16.7613  16.8695  16.9206  16.9538  17.0425  17.1188  17.2609  17.2997
    17.3539  17.3845  17.5222  17.5816  17.6217  17.6702  17.7741  17.8955
    17.9671  18.0671  18.0893  18.2264  18.2453  18.3422  18.4150  18.5666
    18.6161  18.6830  18.7151  18.7490  18.7867  18.8615  18.9100  18.9259
    18.9713  19.0334  19.0711  19.1051  19.1369  19.1653  19.2056  19.2788
    19.3336  19.3665  19.4016  19.4434  19.4618  19.5231  19.5888  19.6468
    19.7003  19.7319  19.7737  19.8447  19.8795  19.9703  20.0243  20.0946
    20.1397  20.1906  20.2798  20.3603  20.4209  20.4757  20.5342  20.5723
    20.6234  20.6489  20.7566  20.8153  20.8495  20.8606  20.9619  20.9933
    21.0188  21.0763  21.1158  21.2453  21.2836  21.3631  21.4026  21.4324
    21.5211  21.5683  21.5982  21.6665  21.7185  21.8042  21.8558  21.9308
    21.9651  22.0387

          k = 0.2500 0.2488 0.0000 ( 32025 PWs)   bands (ev):

   -55.8819 -55.8406 -55.8018 -55.7784 -55.7635 -55.7316 -55.7247 -55.6986
   -55.6597 -55.5717 -55.5632 -55.5196 -55.4926 -55.4821 -55.4698 -55.4643
   -55.4261 -55.4169 -55.4160 -55.4042 -55.3948 -55.1315 -54.8709 -54.6008
   -21.9438 -21.6351 -21.0758 -20.9147 -20.5571 -20.4438 -20.4000 -20.2952
   -20.2311 -20.1152 -20.0683 -20.0619 -19.9543 -19.8652 -19.8370 -19.8212
   -19.6234 -18.9027 -18.7860 -10.0189  -9.7999  -9.7715  -9.5748  -9.1510
    -9.1466  -9.1269  -8.9004  -8.8579  -8.8257  -8.7410  -8.6391  -8.6086
    -8.3788  -8.3631  -8.3172  -8.2317  -8.0343  -7.7956  -7.6908  -7.5783
    -7.5485  -7.4886  -7.4276  -6.9504  -6.7621  -6.6827  -6.6383  -6.5645
    -6.5500  -6.4471  -6.4206  -6.2866  -6.2582  -6.1746  -6.1043  -5.9852
    -5.9125  -5.8249  -5.6206  -5.5702  -5.4371  -5.3337  -5.2972  -5.1063
    -5.0136  -4.9392  -4.8375  -4.6859  -4.6150  -4.5130  -4.3660  -4.2423
    -4.1729  -4.0115  -3.9643  -3.8553  -3.7885  -3.7253  -3.5983  -3.5485
    -3.5070  -3.4383  -3.3012  -3.2750  -3.2207  -3.1573  -3.1265  -2.9458
    -2.9034  -2.6414  -2.4405  -2.3984  -2.2009  -2.0663  -1.9608  -1.9142
    -1.7758  -1.6284  -1.5254  -1.4526  -1.3280  -0.9202  -0.7525  -0.5597
    -0.1704   0.0072   0.3791   0.5274   0.8308   0.9236   1.0618   1.1149
     1.3658   1.4732   1.5326   1.8949   3.1767   3.8745   4.6362   5.0232
     5.1447   5.1547   5.2763   5.7427   5.9462   6.1511   6.2138   6.4165
     6.5079   6.6217   6.6834   6.7770   6.9050   6.9708   7.1289   7.2891
     7.3428   7.4741   7.5616   7.6347   7.6652   7.8847   7.9355   8.0955
     8.1431   8.3082   8.3534   8.4280   8.5063   8.6047   8.6819   8.7510
     8.8615   8.9609   9.0844   9.2574   9.3581   9.4819   9.5234   9.6889
     9.7435   9.7928   9.9448  10.0800  10.1417  10.2149  10.2969  10.3700
    10.5220  10.5485  10.6640  10.7465  10.7833  10.9121  11.0235  11.1145
    11.1712  11.3098  11.3805  11.4694  11.5050  11.6433  11.7345  11.8070
    11.8589  11.8978  11.9495  12.0288  12.0693  12.2123  12.2415  12.3040
    12.3743  12.4210  12.4729  12.5592  12.6097  12.6987  12.7686  12.8402
    12.8793  12.9722  13.0900  13.1677  13.2442  13.3528  13.4632  13.5203
    13.6188  13.7238  13.7808  13.7960  13.9094  13.9843  14.0566  14.0792
    14.1692  14.3187  14.4006  14.4330  14.5368  14.6075  14.6563  14.7964
    14.8448  15.0080  15.0708  15.1263  15.2599  15.3018  15.3890  15.4197
    15.4555  15.4925  15.5922  15.6272  15.6800  15.7068  15.8161  15.8524
    15.9382  16.0068  16.0549  16.0788  16.1309  16.1655  16.2254  16.2894
    16.3248  16.3726  16.4341  16.5048  16.5478  16.5605  16.5847  16.5993
    16.6190  16.6694  16.7260  16.8027  16.9145  16.9503  16.9919  17.0095
    17.0842  17.1357  17.2221  17.2568  17.2818  17.3177  17.3702  17.4375
    17.4755  17.5312  17.5499  17.6075  17.7075  17.8109  17.8274  17.9573
    18.0057  18.0841  18.1248  18.1947  18.2434  18.3622  18.4066  18.4461
    18.5271  18.5852  18.6357  18.7121  18.7932  18.8048  18.8917  18.9570
    19.0507  19.1241  19.1986  19.2436  19.3132  19.4169  19.4737  19.5663
    19.6031  19.7273  19.8333  19.9175  19.9430  19.9777  20.0682  20.0901
    20.1311  20.1748  20.2868  20.3333  20.3764  20.4192  20.4743  20.5252
    20.6039  20.7506  20.7893  20.8415  20.9225  20.9502  21.0174  21.0793
    21.1196  21.2019  21.2667  21.3186  21.3671  21.4664  21.5095  21.5459
    21.6247  21.6570  21.7562  21.7981  21.8341  21.9135  21.9743  22.0623
    22.1106  22.2008

          k = 0.2500-0.4976 0.0000 ( 32026 PWs)   bands (ev):

   -55.8820 -55.8405 -55.8019 -55.7785 -55.7636 -55.7313 -55.7247 -55.6987
   -55.6597 -55.5714 -55.5629 -55.5196 -55.4926 -55.4822 -55.4699 -55.4643
   -55.4259 -55.4170 -55.4158 -55.4047 -55.3949 -55.1315 -54.8709 -54.6008
   -21.9290 -21.6292 -20.9500 -20.7920 -20.4969 -20.4706 -20.4121 -20.3516
   -20.2967 -20.2048 -20.1088 -20.0590 -20.0213 -19.9223 -19.8547 -19.8287
   -19.6209 -18.9032 -18.7818  -9.9785  -9.6071  -9.1698  -9.0520  -9.0453
    -8.9786  -8.9591  -8.9157  -8.8999  -8.7961  -8.7649  -8.7373  -8.6899
    -8.4300  -8.3755  -8.3071  -8.2346  -8.0006  -7.7656  -7.7085  -7.6145
    -7.4547  -7.4388  -7.3680  -7.3099  -7.2710  -7.0262  -6.8858  -6.8093
    -6.6420  -6.5231  -6.4625  -6.3795  -6.2868  -6.2155  -6.1680  -6.1160
    -6.0655  -5.9853  -5.7898  -5.6700  -5.4580  -5.3456  -5.3276  -5.2512
    -5.0149  -4.7842  -4.6985  -4.6498  -4.4349  -4.3784  -4.2428  -4.1180
    -4.0825  -3.9850  -3.8502  -3.8138  -3.7733  -3.6610  -3.6367  -3.5888
    -3.5319  -3.4693  -3.2762  -3.2074  -3.1602  -3.1232  -3.0745  -2.9666
    -2.7848  -2.7420  -2.5188  -2.3424  -2.2113  -2.2002  -2.0917  -1.9357
    -1.7734  -1.6138  -1.5444  -1.5204  -1.2606  -1.2051  -1.1674  -0.4748
    -0.1584   0.2622   0.4612   0.5508   0.7362   0.7966   1.3476   1.4081
     1.4224   1.5358   1.6650   1.8914   3.9037   4.1942   4.3882   5.1124
     5.2213   5.4745   5.4878   5.5769   5.7344   5.9118   6.0320   6.1124
     6.1833   6.4851   6.6805   6.8002   6.8827   6.9267   7.0029   7.2264
     7.3230   7.4575   7.5316   7.5871   7.6927   7.7099   7.8034   7.8763
     7.9667   8.0678   8.2279   8.3719   8.4192   8.5096   8.6108   8.7672
     8.8131   8.8663   8.9037   9.1102   9.1855   9.2235   9.4159   9.6245
     9.6624   9.8550  10.0117  10.0785  10.2619  10.5400  10.7048  10.7954
    10.8489  10.8595  11.0252  11.1054  11.1819  11.2113  11.2817  11.3795
    11.4455  11.4808  11.5239  11.6100  11.6804  11.7328  11.7983  11.9408
    11.9755  12.0901  12.1652  12.1983  12.2561  12.3291  12.4642  12.5420
    12.5542  12.7000  12.8119  12.8492  12.8621  12.9645  12.9877  13.1236
    13.1403  13.1774  13.2378  13.3090  13.3494  13.5295  13.5628  13.6332
    13.6694  13.7455  13.8131  13.8881  13.9446  14.0187  14.0428  14.1483
    14.1955  14.3178  14.3424  14.3717  14.4454  14.4728  14.5652  14.6310
    14.7116  14.7464  14.8084  14.8518  14.8825  14.9507  15.1487  15.1757
    15.3190  15.3648  15.4103  15.4530  15.6012  15.6657  15.7285  15.7788
    15.8058  15.9045  15.9269  16.0147  16.1132  16.1434  16.2120  16.2257
    16.3000  16.3165  16.3529  16.3982  16.4412  16.4721  16.5037  16.5380
    16.5650  16.5859  16.6037  16.6241  16.6451  16.6765  16.7102  16.7386
    16.8728  16.8911  17.0089  17.0992  17.1183  17.1570  17.2260  17.2874
    17.3181  17.3708  17.4880  17.5042  17.5816  17.6449  17.7827  17.8250
    17.8739  17.9355  18.0044  18.1160  18.1917  18.2155  18.2538  18.3333
    18.3659  18.3963  18.4326  18.4760  18.6045  18.6531  18.7153  18.8017
    18.8591  18.9129  18.9342  19.0626  19.0995  19.1687  19.2245  19.2498
    19.3164  19.3698  19.4348  19.4780  19.5408  19.6947  19.7247  19.9130
    20.0063  20.0460  20.1092  20.1924  20.3148  20.3832  20.3987  20.4612
    20.5209  20.5393  20.5953  20.6105  20.6722  20.7745  20.8497  20.9092
    21.0411  21.0755  21.1550  21.2451  21.2727  21.3716  21.4858  21.5073
    21.5796  21.6436  21.7066  21.8287  21.8984  21.9195  21.9969  22.0616
    22.1168  22.2301

          k =-0.5000 0.0000 0.0000 ( 31984 PWs)   bands (ev):

   -55.8685 -55.8540 -55.8017 -55.7784 -55.7497 -55.7387 -55.7312 -55.6829
   -55.6752 -55.5715 -55.5638 -55.5193 -55.4929 -55.4818 -55.4700 -55.4643
   -55.4257 -55.4169 -55.4168 -55.4036 -55.3948 -55.1322 -54.8708 -54.6008
   -21.8862 -21.6746 -20.9254 -20.9023 -20.7760 -20.7295 -20.3183 -20.1890
   -20.1699 -20.0513 -20.0138 -19.9350 -19.9044 -19.8842 -19.8777 -19.8625
   -19.6294 -18.8989 -18.8740  -9.8919  -9.8598  -9.8379  -9.7702  -9.7156
    -9.6012  -8.9776  -8.9644  -8.7498  -8.7289  -8.6668  -8.6528  -8.5563
    -8.5223  -8.0611  -8.0351  -7.9305  -7.7452  -7.6809  -7.6446  -7.4806
    -7.3869  -7.3407  -7.3131  -7.1809  -7.0922  -7.0191  -6.9358  -6.8456
    -6.6558  -6.6042  -6.3947  -6.2916  -6.1182  -6.0270  -5.9989  -5.9793
    -5.9774  -5.7124  -5.6391  -5.5623  -5.3618  -5.3423  -5.2814  -5.2540
    -5.1087  -5.0746  -4.8639  -4.8569  -4.5578  -4.4876  -4.3803  -4.1682
    -4.1443  -4.0658  -4.0405  -4.0145  -3.9060  -3.8398  -3.6997  -3.5261
    -3.3699  -3.3281  -3.2557  -2.9603  -2.8687  -2.8536  -2.7618  -2.6135
    -2.5445  -2.5122  -2.3738  -2.3175  -2.2866  -2.1674  -2.1113  -1.8907
    -1.8669  -1.7331  -1.6036  -1.5097  -1.3612  -0.4081  -0.1337  -0.0939
     0.0370   0.3077   0.3609   0.3674   0.4805   0.4920   0.5189   0.5820
     0.6877   1.2975   1.5037   1.6644   3.7890   3.8050   4.2630   4.7938
     5.0476   5.1946   5.4371   5.5533   5.7081   5.7194   6.2561   6.3097
     6.4742   6.6110   6.6774   6.7655   7.0475   7.2004   7.3561   7.5657
     7.6291   7.7291   7.7743   7.9003   7.9895   8.1449   8.2408   8.4023
     8.4302   8.5057   8.5911   8.7148   8.7351   8.8219   8.9076   8.9258
     8.9870   9.0303   9.0542   9.1359   9.1879   9.2277   9.2511   9.3974
     9.4644   9.5414   9.5729   9.6276   9.7735   9.8491  10.0696  10.1569
    10.1979  10.2994  10.6930  10.7288  10.7504  10.7638  10.8596  10.8918
    11.0978  11.2206  11.2939  11.3834  11.5351  11.6050  11.6335  11.6741
    11.7584  11.8334  11.9564  11.9849  12.0103  12.1086  12.2276  12.3393
    12.4980  12.5153  12.5694  12.6098  12.6792  12.6962  12.8228  12.8864
    12.9964  13.0227  13.0567  13.0745  13.1222  13.1568  13.2480  13.3377
    13.5211  13.5444  13.6621  13.7541  13.8261  13.8664  13.9525  14.0900
    14.2000  14.3121  14.3622  14.3775  14.5332  14.6086  14.6325  14.6771
    14.8741  14.9690  15.0596  15.1307  15.1926  15.4953  15.5600  15.5810
    15.6329  15.6795  15.7273  15.7454  15.7683  15.8592  15.9239  16.0368
    16.0722  16.1319  16.1397  16.2975  16.3069  16.3170  16.3416  16.3479
    16.3601  16.4351  16.4881  16.5356  16.5552  16.5688  16.5896  16.5926
    16.6060  16.6603  16.7197  16.7901  16.8262  16.9167  17.0787  17.0902
    17.1417  17.1590  17.2109  17.2948  17.3305  17.4200  17.5469  17.6467
    17.7021  17.7597  17.8921  17.9317  17.9725  18.0101  18.1095  18.1524
    18.2123  18.2387  18.3081  18.3936  18.4345  18.5081  18.5748  18.6000
    18.6999  18.7501  18.8079  18.8783  18.9376  19.0295  19.0908  19.1862
    19.2510  19.3026  19.3716  19.4323  19.4395  19.4810  19.5324  19.5681
    19.5983  19.6138  19.6952  19.7207  19.7632  19.8930  19.9183  19.9353
    19.9675  20.0243  20.0663  20.1226  20.1509  20.2182  20.2642  20.3192
    20.3818  20.4495  20.4591  20.5097  20.5378  20.5658  20.5770  20.6396
    20.7781  20.8085  20.8782  20.9019  20.9743  21.0243  21.1025  21.1414
    21.2470  21.3528  21.3934  21.4739  21.5021  21.5812  21.6589  21.7716
    21.8294  21.8966

          k =-0.5000 0.2488 0.0000 ( 32052 PWs)   bands (ev):

   -55.8685 -55.8541 -55.8018 -55.7785 -55.7497 -55.7387 -55.7310 -55.6830
   -55.6753 -55.5713 -55.5636 -55.5193 -55.4929 -55.4819 -55.4701 -55.4643
   -55.4255 -55.4169 -55.4166 -55.4040 -55.3951 -55.1322 -54.8709 -54.6008
   -21.8797 -21.6658 -20.8390 -20.8183 -20.6920 -20.6379 -20.3698 -20.2557
   -20.2030 -20.1105 -20.0673 -20.0341 -19.9942 -19.8991 -19.8871 -19.8631
   -19.6248 -18.8969 -18.8717  -9.8090  -9.6543  -9.4924  -9.4752  -9.4562
    -9.4421  -8.9756  -8.9601  -8.7330  -8.6765  -8.5460  -8.5327  -8.4605
    -8.4087  -8.1213  -8.0908  -8.0140  -7.8933  -7.8485  -7.7873  -7.5975
    -7.5494  -7.4232  -7.3975  -7.3216  -7.1403  -7.0649  -6.8882  -6.8165
    -6.7462  -6.7039  -6.4259  -6.2525  -6.2379  -6.1672  -6.1280  -6.0593
    -6.0328  -5.9449  -5.8728  -5.7741  -5.7204  -5.5946  -5.3524  -5.2195
    -5.1040  -5.0685  -4.8825  -4.8184  -4.6209  -4.5387  -4.3390  -4.2798
    -4.0147  -3.9082  -3.8488  -3.6164  -3.5843  -3.4981  -3.4512  -3.3872
    -3.3456  -3.2412  -3.1964  -3.1488  -3.0175  -2.8894  -2.8594  -2.6887
    -2.6158  -2.4603  -2.4227  -2.2837  -2.2304  -2.1284  -2.0852  -1.9638
    -1.9387  -1.7774  -1.7646  -1.5631  -1.2354  -0.4350  -0.2954  -0.1612
    -0.1522  -0.0112   0.0390   0.3355   0.3739   0.6351   0.7639   1.0215
     1.1266   1.2729   1.5801   1.7685   4.0565   4.0824   4.3928   5.0132
     5.2643   5.4055   5.6266   5.7380   5.8156   5.8376   5.9510   6.0016
     6.3579   6.5125   6.7103   6.7721   6.8227   6.9064   7.1001   7.2256
     7.2897   7.4629   7.5849   7.6056   7.7210   7.7805   7.8907   8.0027
     8.0911   8.1447   8.2407   8.3468   8.4801   8.5799   8.6844   8.7447
     8.8991   9.0101   9.1322   9.1798   9.3336   9.3816   9.5089   9.5882
     9.7473   9.8267   9.9321  10.0953  10.2298  10.3806  10.5173  10.6006
    10.6534  10.8028  10.8987  10.9393  11.0460  11.0564  11.2075  11.2439
    11.3156  11.3963  11.4974  11.6411  11.7168  11.7902  11.8651  11.9192
    12.0747  12.1296  12.1658  12.2354  12.2937  12.4055  12.4856  12.5361
    12.6277  12.6686  12.7194  12.7596  12.8810  12.8949  12.9649  13.0333
    13.0936  13.1548  13.1879  13.2349  13.3124  13.3496  13.4220  13.4871
    13.5272  13.5994  13.6729  13.7815  13.8896  13.9631  14.0872  14.1331
    14.1424  14.1872  14.2876  14.3430  14.3964  14.4527  14.4828  14.5423
    14.6080  14.6628  14.7678  14.7816  14.8642  14.8946  15.0765  15.1734
    15.2455  15.3104  15.3966  15.4847  15.5934  15.6974  15.7517  15.7918
    15.9064  15.9758  16.0083  16.0448  16.0890  16.1211  16.1850  16.2858
    16.3029  16.3212  16.3385  16.4054  16.4580  16.5238  16.5463  16.5558
    16.5710  16.5935  16.6233  16.6526  16.6761  16.7036  16.7648  16.7931
    16.8936  17.0015  17.0579  17.1191  17.1929  17.3275  17.3593  17.3865
    17.4057  17.4454  17.5734  17.6183  17.6829  17.7159  17.8435  17.9685
    18.0190  18.0666  18.0774  18.1058  18.1488  18.1918  18.2695  18.3529
    18.4002  18.4791  18.5114  18.5679  18.6407  18.7440  18.7822  18.8612
    18.8950  18.9621  19.0405  19.0895  19.2145  19.2657  19.2841  19.3410
    19.4196  19.5075  19.5663  19.5756  19.6726  19.7483  19.7897  19.8534
    19.9542  19.9890  20.0613  20.0917  20.2043  20.2511  20.3089  20.3862
    20.4615  20.5064  20.5658  20.7200  20.8516  20.9126  20.9551  21.0008
    21.0883  21.1845  21.2061  21.2356  21.3902  21.4268  21.4659  21.5955
    21.6564  21.7065  21.7557  21.8036  21.8250  21.9033  21.9727  22.0555
    22.0941  22.1550

          k =-0.5000-0.4976 0.0000 ( 31956 PWs)   bands (ev):

   -55.8685 -55.8541 -55.8018 -55.7785 -55.7497 -55.7387 -55.7307 -55.6831
   -55.6754 -55.5710 -55.5633 -55.5193 -55.4929 -55.4820 -55.4701 -55.4643
   -55.4253 -55.4170 -55.4163 -55.4043 -55.3953 -55.1322 -54.8709 -54.6008
   -21.8733 -21.6573 -20.6835 -20.6692 -20.5815 -20.5338 -20.3961 -20.3674
   -20.3440 -20.2894 -20.1538 -20.0689 -20.0456 -19.9041 -19.8954 -19.8655
   -19.6217 -18.8954 -18.8696  -9.7801  -9.6090  -9.0666  -9.0576  -8.9497
    -8.9171  -8.9065  -8.7885  -8.7401  -8.6452  -8.4695  -8.3822  -8.3637
    -8.3366  -8.2718  -8.2461  -8.1699  -8.1320  -8.0872  -8.0680  -7.7784
    -7.6028  -7.4630  -7.4581  -7.2746  -7.1077  -7.0504  -6.9218  -6.8738
    -6.8334  -6.8194  -6.7992  -6.7072  -6.6572  -6.6007  -6.3212  -6.2497
    -6.1964  -6.0215  -5.9804  -5.8561  -5.5651  -5.4583  -5.3087  -5.1594
    -5.0785  -4.9596  -4.8714  -4.7048  -4.5904  -4.5407  -4.2215  -4.2112
    -3.9344  -3.8358  -3.7935  -3.4726  -3.3657  -3.3541  -3.3193  -3.2830
    -3.2666  -3.1930  -3.1499  -3.0996  -3.0744  -3.0028  -2.8969  -2.8145
    -2.5489  -2.4660  -2.4406  -2.2433  -2.1603  -2.0870  -2.0656  -2.0348
    -1.9688  -1.9265  -1.7610  -1.6304  -1.1573  -0.6622  -0.6306  -0.4865
    -0.3174  -0.2310   0.0380   0.4022   0.4110   0.8793   1.1122   1.1376
     1.2228   1.4736   1.7100   1.7373   4.5115   4.6070   4.6359   5.0994
     5.1077   5.4393   5.7828   5.8801   5.9577   6.0160   6.1417   6.1823
     6.2360   6.3670   6.4951   6.5225   6.5673   6.6335   6.6867   6.8049
     7.0243   7.1490   7.3137   7.3979   7.4809   7.4988   7.5594   7.6128
     7.9044   8.0317   8.2636   8.3635   8.3869   8.4192   8.6233   8.7952
     8.9373   9.0785   9.1365   9.2580   9.3150   9.3787   9.4250   9.5777
     9.6644   9.8360  10.0541  10.2164  10.4020  10.5763  10.6862  10.7277
    10.8307  10.8682  11.0556  11.2322  11.3464  11.4997  11.7336  11.7669
    11.8627  11.9265  11.9707  12.0060  12.1250  12.1437  12.3906  12.4087
    12.4669  12.5138  12.5809  12.7015  12.7603  12.8016  12.8481  12.8893
    13.0186  13.1261  13.1523  13.1759  13.2146  13.2289  13.2638  13.3238
    13.3375  13.3441  13.4092  13.5011  13.5400  13.5570  13.6025  13.6055
    13.6867  13.6909  13.7153  13.7412  13.7641  13.7938  13.8498  13.8726
    13.9095  13.9586  13.9968  14.0558  14.2577  14.2949  14.3192  14.3858
    14.4512  14.6052  14.6788  14.7219  14.7251  14.7644  14.8053  14.8428
    14.8570  14.8959  14.9241  15.0161  15.0421  15.0679  15.1146  15.1879
    15.2855  15.3079  15.3700  15.4102  15.4262  15.5423  15.5933  15.6174
    15.7638  15.8146  15.9905  16.1231  16.1445  16.2842  16.3001  16.3625
    16.3805  16.4057  16.4353  16.5357  16.5446  16.5611  16.5705  16.5831
    16.6036  16.6255  16.6414  16.6633  16.8659  16.9088  17.0122  17.2155
    17.2688  17.3297  17.3763  17.4298  17.6078  17.7383  17.7531  17.8209
    17.8546  17.8855  17.9340  18.0073  18.0648  18.2183  18.3283  18.3946
    18.5562  18.5667  18.6535  18.6707  18.8031  18.9127  18.9423  19.0251
    19.1462  19.1891  19.2602  19.3351  19.4010  19.4822  19.6254  19.6890
    19.7739  19.8117  19.9141  19.9697  20.0679  20.1162  20.1449  20.2510
    20.3304  20.3866  20.4354  20.4512  20.5102  20.5551  20.5763  20.6327
    20.6520  20.6724  20.7937  20.8092  20.9162  20.9616  20.9806  21.0296
    21.0728  21.1013  21.1283  21.1856  21.2146  21.2304  21.2722  21.3242
    21.4039  21.4736  21.4972  21.5364  21.5749  21.5988  21.6817  21.6967
    21.7324  21.7598

          k =-0.2500 0.2488 0.0000 ( 32025 PWs)   bands (ev):

   -55.8819 -55.8405 -55.8018 -55.7784 -55.7635 -55.7316 -55.7247 -55.6986
   -55.6596 -55.5717 -55.5631 -55.5196 -55.4926 -55.4821 -55.4698 -55.4643
   -55.4261 -55.4169 -55.4160 -55.4042 -55.3948 -55.1315 -54.8709 -54.6008
   -21.9438 -21.6351 -21.0757 -20.9145 -20.5597 -20.4430 -20.4018 -20.2921
   -20.2239 -20.1106 -20.0817 -20.0623 -19.9570 -19.8614 -19.8349 -19.8221
   -19.6234 -18.9027 -18.7860 -10.0185  -9.7999  -9.7697  -9.5674  -9.1656
    -9.1491  -9.1402  -8.9028  -8.8355  -8.8121  -8.7388  -8.6341  -8.5831
    -8.4597  -8.3752  -8.3323  -8.1645  -8.0415  -7.8485  -7.7012  -7.6445
    -7.4734  -7.4558  -7.3179  -6.9499  -6.8130  -6.6958  -6.6630  -6.5891
    -6.5271  -6.4673  -6.3721  -6.3544  -6.2594  -6.1942  -6.0562  -6.0101
    -5.8861  -5.8355  -5.6134  -5.5012  -5.4258  -5.3698  -5.2875  -5.1912
    -5.0110  -4.9105  -4.8583  -4.7242  -4.5502  -4.5259  -4.3016  -4.2134
    -4.1808  -4.0716  -3.9594  -3.8646  -3.7610  -3.7202  -3.6114  -3.5189
    -3.4969  -3.4057  -3.3384  -3.2849  -3.2575  -3.2109  -3.1221  -2.9468
    -2.8618  -2.6517  -2.4417  -2.3774  -2.2015  -2.0785  -1.9610  -1.8964
    -1.7767  -1.6306  -1.5247  -1.4487  -1.3318  -0.9306  -0.7522  -0.5598
    -0.1712   0.0101   0.3790   0.5270   0.8272   0.9270   1.0646   1.1155
     1.3642   1.4732   1.5321   1.8952   3.1756   3.8731   4.6374   5.0179
     5.1640   5.1730   5.2879   5.7459   5.9673   6.1084   6.2186   6.3922
     6.5061   6.5918   6.6794   6.7679   6.9256   6.9678   7.0934   7.2926
     7.3252   7.5124   7.5412   7.6199   7.7387   7.8998   7.9451   8.0577
     8.1816   8.2504   8.3216   8.4297   8.5234   8.6167   8.6745   8.7869
     8.8478   8.9386   9.1364   9.2353   9.3517   9.4572   9.5702   9.6947
     9.7402   9.7946   9.8869  10.1223  10.1891  10.2322  10.3079  10.3371
    10.4583  10.5599  10.5975  10.7220  10.7936  10.9097  11.0610  11.1382
    11.2352  11.3101  11.3528  11.4624  11.5299  11.6351  11.6988  11.8090
    11.9067  11.9112  11.9766  12.0444  12.0711  12.2060  12.2373  12.2921
    12.3740  12.4452  12.4891  12.5660  12.6308  12.7041  12.7973  12.8667
    12.9000  12.9754  13.0627  13.1482  13.2276  13.3418  13.4222  13.4779
    13.6463  13.7090  13.7755  13.8114  13.9045  13.9681  14.0513  14.0981
    14.1640  14.2690  14.3873  14.4298  14.5054  14.5809  14.6936  14.8225
    14.8795  14.9528  15.0339  15.0869  15.2311  15.2813  15.3439  15.4201
    15.4546  15.5220  15.5881  15.6235  15.6701  15.7076  15.7919  15.8420
    15.9632  15.9952  16.0238  16.0845  16.1418  16.1731  16.2198  16.2929
    16.3207  16.3635  16.4266  16.5149  16.5516  16.5622  16.5826  16.5955
    16.6180  16.6535  16.7503  16.8348  16.8609  16.9477  16.9870  17.0355
    17.0852  17.1853  17.2199  17.2529  17.2741  17.3325  17.3727  17.4353
    17.4842  17.5439  17.6016  17.6191  17.7271  17.7853  17.8481  17.9441
    17.9635  18.1198  18.1501  18.1800  18.2283  18.3517  18.4548  18.4946
    18.5649  18.6269  18.6624  18.7284  18.7940  18.8460  18.8817  18.9379
    19.0930  19.1408  19.1847  19.2677  19.3099  19.4179  19.4950  19.5571
    19.6595  19.6850  19.8380  19.8624  19.9447  19.9681  20.0189  20.0919
    20.1272  20.1722  20.2915  20.3408  20.3657  20.4022  20.5547  20.5829
    20.6564  20.7035  20.7979  20.8386  20.8885  20.9519  21.0155  21.0774
    21.1248  21.1732  21.2545  21.3241  21.4040  21.4675  21.5182  21.5568
    21.5945  21.6542  21.7067  21.7567  21.8502  21.8799  21.9984  22.0239
    22.1248  22.1547

 ------ SPIN DOWN ----------


          k = 0.0000 0.0000 0.0000 ( 32157 PWs)   bands (ev):

   -55.8896 -55.8329 -55.8018 -55.7782 -55.7710 -55.7324 -55.7173 -55.7062
   -55.6518 -55.5723 -55.5630 -55.5199 -55.4923 -55.4822 -55.4696 -55.4643
   -55.4268 -55.4168 -55.4156 -55.4041 -55.3944 -55.1309 -54.8708 -54.6008
   -22.0160 -21.6222 -21.2632 -21.0886 -20.4247 -20.4058 -20.3595 -20.2962
   -20.1827 -20.1368 -20.1016 -20.0658 -19.9182 -19.8038 -19.7421 -19.6868
   -19.6245 -18.8775 -18.7369 -10.4227 -10.4008 -10.0632  -9.3908  -9.1610
    -9.0795  -9.0138  -9.0108  -8.9077  -8.8990  -8.8105  -8.7520  -8.7230
    -8.6962  -8.5312  -8.3321  -8.2432  -8.1988  -8.0373  -7.7133  -7.6419
    -7.5725  -7.4111  -7.3817  -6.9538  -6.8886  -6.7521  -6.5975  -6.3051
    -6.0586  -5.9500  -5.9152  -5.8031  -5.7953  -5.7218  -5.6682  -5.5629
    -5.5318  -5.4419  -5.2100  -5.1707  -5.1137  -5.0205  -4.9921  -4.9163
    -4.7821  -4.7304  -4.7192  -4.6909  -4.6673  -4.6534  -4.6117  -4.5431
    -4.4706  -4.4341  -4.2931  -4.2621  -4.2429  -4.1229  -4.0089  -3.9322
    -3.8687  -3.8153  -3.5641  -3.5237  -3.3492  -3.1817  -2.8729  -2.8020
    -2.7555  -2.7069  -2.6043  -2.4054  -2.1832  -2.1280  -1.9471  -1.8360
    -1.8237  -1.6241  -1.5466  -1.2393  -1.1768  -0.9061  -0.4245  -0.4055
    -0.3726  -0.1799  -0.0322   0.2272   0.6062   0.9048   1.0141   1.4265
     1.4344   1.6236   1.9566   2.0306   2.4167   3.3707   4.2101   4.6335
     4.7624   5.5442   5.6504   5.8217   5.8476   6.4986   6.5612   6.5825
     6.6839   6.8654   6.9344   6.9851   7.1802   7.3811   7.4282   7.4881
     7.6001   7.7142   7.7809   7.8194   7.8647   7.9041   7.9946   8.0662
     8.1601   8.2169   8.2762   8.3619   8.4389   8.4697   8.6031   8.7086
     8.8554   8.9192   8.9731   9.1018   9.1700   9.2467   9.5084   9.5300
     9.5992   9.6547   9.9140   9.9264   9.9791  10.0354  10.2231  10.2774
    10.4544  10.5469  10.5933  10.6833  10.7997  10.8282  10.8670  10.9281
    10.9772  11.0304  11.1926  11.1999  11.4010  11.4401  11.5181  11.5601
    11.6271  11.6782  11.7343  11.8076  11.9076  11.9895  12.0110  12.0419
    12.1662  12.2076  12.2356  12.2873  12.3710  12.4644  12.5334  12.5649
    12.6056  12.7028  12.7876  12.9622  13.0195  13.1593  13.2390  13.3436
    13.4141  13.4529  13.6196  13.6460  13.7601  13.7621  13.8452  14.0446
    14.0566  14.1884  14.2036  14.3149  14.4595  14.4995  14.5665  14.6024
    14.6820  14.8049  14.8128  14.9189  15.1057  15.2293  15.3306  15.4311
    15.4464  15.4995  15.5859  15.5953  15.6632  15.7976  15.8656  15.8743
    15.9909  16.1500  16.1632  16.2981  16.3258  16.3728  16.4024  16.4746
    16.5381  16.5520  16.5812  16.5961  16.6223  16.6465  16.7310  16.8222
    16.8598  16.9110  16.9818  17.1514  17.2306  17.3120  17.3737  17.4121
    17.5124  17.5622  17.6289  17.8074  17.8432  17.8874  17.8946  17.9978
    18.0843  18.1605  18.2112  18.3342  18.3933  18.4702  18.5303  18.6311
    18.6632  18.6947  18.7226  18.7428  18.7893  18.8810  18.9040  18.9447
    19.0420  19.0681  19.0931  19.1528  19.2392  19.2793  19.3655  19.3699
    19.4792  19.5398  19.6429  19.6659  19.6850  19.7423  19.7838  19.8047
    19.9555  19.9844  20.0973  20.1550  20.1610  20.1779  20.3475  20.4168
    20.5577  20.5635  20.6256  20.6630  20.8393  20.8739  20.9014  20.9551
    21.1111  21.1740  21.2007  21.2734  21.3409  21.3563  21.4446  21.4484
    21.5569  21.6171  21.6507  21.6762  21.7284  21.7593  21.8194  21.8464
    21.8580  21.9267  21.9873  22.0299  22.0430  22.0682  22.1312  22.1704
    22.1866  22.2346

          k = 0.0000 0.2488 0.0000 ( 32033 PWs)   bands (ev):

   -55.8896 -55.8329 -55.8019 -55.7783 -55.7710 -55.7321 -55.7173 -55.7063
   -55.6518 -55.5720 -55.5628 -55.5198 -55.4923 -55.4823 -55.4696 -55.4643
   -55.4266 -55.4169 -55.4155 -55.4045 -55.3945 -55.1309 -54.8708 -54.6008
   -21.9945 -21.6170 -21.1735 -21.0133 -20.4634 -20.4581 -20.3887 -20.3049
   -20.1631 -20.1211 -20.0806 -20.0788 -19.9515 -19.8243 -19.8054 -19.7854
   -19.6213 -18.8777 -18.7305 -10.1436  -9.9374  -9.8931  -9.5873  -9.1582
    -9.0857  -9.0132  -8.9984  -8.9273  -8.8322  -8.8141  -8.7796  -8.7378
    -8.6896  -8.6416  -8.3620  -8.2827  -8.0908  -7.6795  -7.6207  -7.5178
    -7.3837  -7.3564  -7.0885  -6.9678  -6.8304  -6.7974  -6.6950  -6.5969
    -6.4723  -6.4100  -6.2125  -6.0897  -6.0083  -5.8809  -5.7816  -5.6976
    -5.6204  -5.5396  -5.4745  -5.4308  -5.3538  -5.2061  -5.0508  -4.9992
    -4.8747  -4.8312  -4.6521  -4.6097  -4.4858  -4.3802  -4.2790  -4.2603
    -4.2333  -4.1956  -4.1466  -4.1134  -4.0148  -4.0005  -3.8999  -3.8729
    -3.8225  -3.7350  -3.5705  -3.4789  -3.4522  -3.3371  -3.2370  -3.1923
    -2.9637  -2.7524  -2.6024  -2.4309  -2.1962  -1.9986  -1.9104  -1.8508
    -1.6467  -1.5687  -1.5187  -1.3081  -1.2665  -1.1253  -1.0517  -0.6822
    -0.3555  -0.0463   0.4148   0.8996   0.9390   1.1437   1.2246   1.4165
     1.4893   1.4961   1.9116   1.9587   2.7904   3.5790   4.4118   4.8035
     4.9383   5.0504   5.6472   5.8167   5.8848   5.9997   6.2614   6.4144
     6.6519   6.6878   6.7488   7.0214   7.0852   7.1723   7.2600   7.3842
     7.4434   7.5721   7.6674   7.7048   7.8551   7.9416   8.0256   8.0773
     8.1983   8.3144   8.3926   8.4825   8.5188   8.6244   8.7357   8.7935
     8.9171   9.0572   9.1337   9.2415   9.3637   9.3945   9.5155   9.6139
     9.6578   9.7839   9.9053   9.9468  10.0222  10.0881  10.1151  10.2138
    10.3025  10.3933  10.4099  10.4774  10.5745  10.6544  10.8214  10.8949
    10.9672  11.0321  11.1167  11.1765  11.3538  11.3764  11.5141  11.5562
    11.6134  11.7280  11.8396  11.9226  11.9508  12.0766  12.1976  12.2460
    12.3032  12.4227  12.4519  12.5504  12.6129  12.6649  12.7222  12.8482
    12.9362  13.0688  13.1459  13.2814  13.4366  13.4937  13.5475  13.6021
    13.6686  13.7409  13.7691  13.8197  13.8947  14.0405  14.0978  14.1729
    14.2168  14.2656  14.3382  14.4440  14.4918  14.6143  14.6779  14.8073
    14.8385  14.9145  14.9737  14.9863  15.1212  15.2386  15.2903  15.3696
    15.4828  15.5494  15.6107  15.6796  15.7025  15.7679  15.7950  15.8949
    15.9252  15.9970  16.0481  16.1023  16.1697  16.2501  16.3003  16.3301
    16.3676  16.4141  16.4880  16.5139  16.5399  16.5748  16.5905  16.6142
    16.6401  16.6695  16.7106  16.8048  16.8557  16.9514  17.0304  17.1085
    17.1705  17.2246  17.3286  17.4298  17.4893  17.5823  17.6636  17.8243
    18.0152  18.0694  18.1075  18.1735  18.2081  18.2901  18.3554  18.4580
    18.5090  18.5465  18.6012  18.6248  18.6534  18.7508  18.7843  18.8931
    18.9385  18.9713  19.0079  19.0460  19.1130  19.1636  19.1792  19.2145
    19.2654  19.3543  19.3915  19.4203  19.4594  19.5481  19.5735  19.6869
    19.7129  19.7549  19.7799  19.8297  19.8647  19.9151  20.1752  20.1841
    20.2420  20.2692  20.3071  20.3776  20.4294  20.4640  20.4857  20.5353
    20.5890  20.7309  20.7500  20.8276  20.8620  20.8874  20.9338  20.9831
    21.0666  21.1209  21.1871  21.2112  21.2864  21.3319  21.3640  21.3971
    21.4529  21.5042  21.5464  21.6348  21.6768  21.7242  21.8153  21.8646
    21.9843  22.0648

          k = 0.0000-0.4976 0.0000 ( 31948 PWs)   bands (ev):

   -55.8895 -55.8328 -55.8019 -55.7785 -55.7710 -55.7319 -55.7172 -55.7065
   -55.6519 -55.5717 -55.5626 -55.5198 -55.4923 -55.4824 -55.4696 -55.4643
   -55.4263 -55.4170 -55.4153 -55.4050 -55.3946 -55.1309 -54.8709 -54.6008
   -21.9738 -21.6117 -21.0582 -20.8914 -20.5718 -20.4869 -20.4110 -20.3380
   -20.1597 -20.1095 -20.0950 -20.0598 -20.0161 -19.9030 -19.8380 -19.8039
   -19.6197 -18.8780 -18.7254 -10.0975  -9.7286  -9.2431  -9.2268  -9.1571
    -9.1447  -9.1163  -8.9229  -8.8567  -8.8479  -8.7659  -8.6971  -8.6879
    -8.6692  -8.5917  -8.3906  -8.2454  -8.0626  -7.8065  -7.7242  -7.7169
    -7.6182  -7.4290  -7.2233  -6.9945  -6.8378  -6.7777  -6.6533  -6.5591
    -6.4279  -6.3867  -6.3552  -6.3007  -6.1650  -6.1167  -6.0856  -5.9905
    -5.8415  -5.6927  -5.5279  -5.3440  -5.2893  -5.2463  -5.1935  -4.9964
    -4.8632  -4.7097  -4.6603  -4.4223  -4.3771  -4.3118  -4.2601  -4.2540
    -4.2194  -4.1999  -4.1708  -4.0943  -4.0222  -3.8979  -3.8467  -3.8002
    -3.7700  -3.6346  -3.5625  -3.4899  -3.3928  -3.3327  -3.2911  -3.2390
    -2.9139  -2.8493  -2.5141  -2.4422  -2.2342  -2.2261  -2.1259  -1.9497
    -1.6944  -1.5997  -1.5665  -1.3606  -1.3132  -1.2925  -1.1774  -0.5534
    -0.3397   0.4894   0.5615   0.8853   1.0177   1.2161   1.3512   1.4325
     1.5521   1.6286   1.9573   1.9851   3.6095   3.9487   4.1096   4.8149
     4.9577   5.2374   5.3574   5.5387   5.6768   5.7779   6.1804   6.2087
     6.2863   6.5502   6.6440   6.9359   7.0349   7.1002   7.2965   7.3975
     7.5223   7.5982   7.6346   7.7002   7.8108   7.9998   8.1437   8.2410
     8.4274   8.4935   8.5721   8.6235   8.6670   8.7468   8.7797   8.8114
     8.8415   8.9167   8.9265   9.0020   9.1107   9.1633   9.2360   9.4266
     9.4674   9.5155   9.6369   9.8253   9.8570   9.9711  10.0145  10.0382
    10.2017  10.6770  10.7623  10.7843  10.8291  10.8729  11.0402  11.1395
    11.1963  11.2761  11.3467  11.3641  11.4331  11.5370  11.6203  11.6933
    11.8855  11.9811  12.1205  12.1630  12.2026  12.2471  12.3168  12.3912
    12.5419  12.5681  12.6788  12.7719  12.7884  12.8387  12.8819  12.9339
    12.9704  13.0027  13.1337  13.1468  13.2054  13.3207  13.4534  13.5062
    13.6015  13.7000  13.7918  13.9267  14.1067  14.1912  14.2145  14.2398
    14.3609  14.4898  14.5129  14.5742  14.8087  14.9483  14.9960  15.0136
    15.0362  15.0994  15.1333  15.2257  15.2469  15.3081  15.3658  15.4312
    15.4691  15.6584  15.7052  15.7511  15.8281  15.8978  15.9034  15.9610
    16.0012  16.0928  16.1275  16.1892  16.2059  16.2437  16.2855  16.2999
    16.3339  16.3645  16.4005  16.4528  16.4719  16.5202  16.5492  16.5693
    16.5768  16.5951  16.6293  16.6302  16.7099  16.7468  16.8234  16.8865
    17.0653  17.1311  17.1890  17.2805  17.3077  17.3335  17.3783  17.4162
    17.5445  17.5911  17.6173  17.6934  17.7143  17.8192  17.8349  17.9973
    18.0301  18.0706  18.0944  18.1257  18.2431  18.3182  18.4230  18.5197
    18.5792  18.6339  18.7161  18.7647  18.8249  18.8685  18.9147  19.0912
    19.1108  19.1489  19.2087  19.2615  19.3002  19.3828  19.5014  19.5480
    19.6035  19.7276  19.7704  19.8043  19.8218  19.8819  19.9254  20.0155
    20.0427  20.0833  20.1103  20.1717  20.2095  20.2378  20.2519  20.3104
    20.3631  20.3814  20.4431  20.4666  20.5661  20.6120  20.6572  20.7277
    20.7377  20.7461  20.8016  20.8691  20.9252  21.0643  21.0685  21.1460
    21.1978  21.2945  21.3386  21.4105  21.5157  21.5402  21.5977  21.7854
    21.8102  21.8554

          k = 0.2500 0.0000 0.0000 ( 32013 PWs)   bands (ev):

   -55.8819 -55.8406 -55.8018 -55.7783 -55.7635 -55.7318 -55.7248 -55.6984
   -55.6596 -55.5719 -55.5634 -55.5196 -55.4926 -55.4820 -55.4698 -55.4643
   -55.4263 -55.4168 -55.4162 -55.4038 -55.3946 -55.1316 -54.8708 -54.6008
   -21.9592 -21.6408 -21.1651 -20.9971 -20.6054 -20.4849 -20.3467 -20.2721
   -20.1429 -20.1107 -20.0481 -20.0428 -19.9183 -19.8279 -19.7973 -19.7470
   -19.6278 -18.9023 -18.7913 -10.2646 -10.2416  -9.9516  -9.5105  -9.2936
    -9.2674  -9.1506  -8.9703  -8.8596  -8.8317  -8.8240  -8.5500  -8.4608
    -8.3766  -8.3469  -8.3223  -8.1482  -8.0916  -8.0270  -7.9097  -7.5994
    -7.5012  -7.4393  -7.3346  -6.9292  -6.8705  -6.6485  -6.5866  -6.4427
    -6.4132  -6.3185  -6.2420  -6.0794  -5.9959  -5.9425  -5.8810  -5.7995
    -5.6796  -5.4866  -5.4103  -5.3541  -5.3025  -5.2180  -5.1837  -5.1365
    -5.0928  -5.0551  -4.8681  -4.8427  -4.6689  -4.5733  -4.4859  -4.2752
    -4.2355  -4.2068  -4.1486  -4.1056  -3.9239  -3.8958  -3.7733  -3.7130
    -3.5726  -3.4150  -3.3579  -3.2959  -3.2721  -3.2029  -2.7703  -2.7030
    -2.6125  -2.4849  -2.4087  -2.3584  -2.3280  -2.1601  -2.0818  -1.9253
    -1.8313  -1.5957  -1.5127  -1.4095  -1.2970  -0.7536  -0.2876  -0.2096
    -0.1683   0.0307   0.0549   0.2176   0.5060   0.6097   1.0646   1.0977
     1.2903   1.4101   1.4553   1.9421   2.8214   3.6767   4.4306   4.8452
     4.9566   4.9827   5.6330   5.7999   6.0093   6.0801   6.2459   6.4957
     6.6340   6.7259   6.8487   7.0047   7.0929   7.1454   7.3111   7.3775
     7.4944   7.6454   7.7140   7.7749   7.9303   8.0188   8.1061   8.1321
     8.2547   8.3158   8.4281   8.5216   8.5626   8.6817   8.7589   8.8052
     8.9350   9.0423   9.1261   9.2882   9.3479   9.5085   9.5558   9.7352
     9.7479   9.8208   9.8726   9.9904  10.0329  10.0900  10.1493  10.1973
    10.2279  10.3041  10.4178  10.4375  10.6084  10.6912  10.7325  10.8196
    10.8611  10.9369  11.0142  11.0891  11.1918  11.2885  11.3051  11.4194
    11.4645  11.5627  11.7352  11.7823  12.0291  12.0984  12.1600  12.1786
    12.2639  12.3218  12.5058  12.5884  12.7006  12.7718  12.8772  12.9303
    13.0065  13.1266  13.1871  13.2628  13.4476  13.5076  13.5740  13.6022
    13.6370  13.6851  13.7251  13.7688  13.8297  13.8530  13.8855  13.9835
    14.0996  14.1472  14.2021  14.2691  14.3330  14.4286  14.5067  14.6235
    14.6856  14.8055  14.9065  14.9980  15.0426  15.1810  15.2318  15.2640
    15.3210  15.4034  15.4844  15.5334  15.6752  15.7834  15.8472  15.8901
    15.9738  16.0037  16.0908  16.1655  16.2346  16.2792  16.3147  16.3536
    16.3895  16.4532  16.5351  16.5637  16.5777  16.5873  16.6067  16.6261
    16.7613  16.8695  16.9206  16.9538  17.0425  17.1188  17.2609  17.2997
    17.3539  17.3845  17.5222  17.5816  17.6217  17.6702  17.7741  17.8955
    17.9671  18.0671  18.0893  18.2264  18.2453  18.3422  18.4150  18.5666
    18.6161  18.6830  18.7151  18.7490  18.7867  18.8615  18.9100  18.9259
    18.9713  19.0334  19.0711  19.1051  19.1369  19.1653  19.2056  19.2788
    19.3336  19.3665  19.4016  19.4434  19.4618  19.5231  19.5888  19.6468
    19.7003  19.7319  19.7737  19.8447  19.8795  19.9703  20.0243  20.0946
    20.1397  20.1906  20.2798  20.3603  20.4209  20.4757  20.5342  20.5723
    20.6234  20.6489  20.7566  20.8153  20.8495  20.8606  20.9619  20.9933
    21.0188  21.0763  21.1158  21.2453  21.2836  21.3631  21.4026  21.4324
    21.5211  21.5683  21.5982  21.6665  21.7185  21.8042  21.8558  21.9308
    21.9651  22.0387

          k = 0.2500 0.2488 0.0000 ( 32025 PWs)   bands (ev):

   -55.8819 -55.8405 -55.8018 -55.7784 -55.7635 -55.7316 -55.7247 -55.6986
   -55.6597 -55.5717 -55.5632 -55.5196 -55.4926 -55.4821 -55.4698 -55.4643
   -55.4261 -55.4169 -55.4160 -55.4042 -55.3948 -55.1315 -54.8709 -54.6008
   -21.9438 -21.6351 -21.0758 -20.9147 -20.5571 -20.4438 -20.4000 -20.2952
   -20.2311 -20.1152 -20.0682 -20.0619 -19.9543 -19.8652 -19.8370 -19.8212
   -19.6234 -18.9027 -18.7860 -10.0189  -9.7999  -9.7715  -9.5748  -9.1510
    -9.1466  -9.1269  -8.9004  -8.8579  -8.8257  -8.7410  -8.6391  -8.6086
    -8.3788  -8.3631  -8.3172  -8.2317  -8.0343  -7.7956  -7.6908  -7.5783
    -7.5484  -7.4886  -7.4276  -6.9504  -6.7621  -6.6827  -6.6383  -6.5645
    -6.5500  -6.4471  -6.4206  -6.2866  -6.2582  -6.1746  -6.1043  -5.9852
    -5.9125  -5.8249  -5.6206  -5.5702  -5.4371  -5.3337  -5.2972  -5.1063
    -5.0136  -4.9392  -4.8375  -4.6859  -4.6150  -4.5130  -4.3660  -4.2423
    -4.1729  -4.0115  -3.9643  -3.8553  -3.7885  -3.7253  -3.5983  -3.5485
    -3.5070  -3.4383  -3.3012  -3.2750  -3.2207  -3.1573  -3.1265  -2.9458
    -2.9034  -2.6414  -2.4405  -2.3984  -2.2009  -2.0663  -1.9608  -1.9142
    -1.7758  -1.6284  -1.5253  -1.4526  -1.3280  -0.9202  -0.7525  -0.5597
    -0.1704   0.0072   0.3791   0.5274   0.8308   0.9236   1.0618   1.1149
     1.3658   1.4732   1.5327   1.8949   3.1767   3.8745   4.6362   5.0232
     5.1447   5.1547   5.2763   5.7427   5.9462   6.1511   6.2138   6.4165
     6.5079   6.6217   6.6834   6.7770   6.9050   6.9708   7.1289   7.2891
     7.3428   7.4741   7.5616   7.6347   7.6652   7.8847   7.9355   8.0955
     8.1431   8.3082   8.3534   8.4280   8.5063   8.6047   8.6819   8.7510
     8.8615   8.9609   9.0844   9.2574   9.3581   9.4819   9.5234   9.6889
     9.7435   9.7928   9.9448  10.0800  10.1417  10.2149  10.2969  10.3700
    10.5220  10.5485  10.6640  10.7465  10.7833  10.9121  11.0236  11.1145
    11.1712  11.3098  11.3805  11.4694  11.5050  11.6433  11.7345  11.8070
    11.8589  11.8978  11.9495  12.0288  12.0693  12.2123  12.2415  12.3041
    12.3743  12.4210  12.4729  12.5592  12.6097  12.6987  12.7686  12.8402
    12.8793  12.9722  13.0900  13.1677  13.2442  13.3528  13.4632  13.5203
    13.6188  13.7238  13.7808  13.7960  13.9094  13.9843  14.0566  14.0792
    14.1692  14.3187  14.4006  14.4330  14.5368  14.6075  14.6563  14.7964
    14.8448  15.0080  15.0708  15.1263  15.2599  15.3018  15.3890  15.4197
    15.4555  15.4925  15.5922  15.6272  15.6800  15.7068  15.8161  15.8524
    15.9382  16.0068  16.0549  16.0788  16.1309  16.1655  16.2254  16.2894
    16.3248  16.3727  16.4341  16.5048  16.5478  16.5605  16.5847  16.5993
    16.6190  16.6694  16.7260  16.8027  16.9145  16.9503  16.9919  17.0095
    17.0842  17.1357  17.2221  17.2568  17.2818  17.3177  17.3702  17.4375
    17.4755  17.5312  17.5499  17.6075  17.7075  17.8109  17.8274  17.9573
    18.0057  18.0841  18.1248  18.1947  18.2434  18.3622  18.4066  18.4461
    18.5271  18.5852  18.6357  18.7121  18.7932  18.8048  18.8917  18.9570
    19.0507  19.1241  19.1986  19.2436  19.3132  19.4169  19.4737  19.5663
    19.6031  19.7273  19.8333  19.9175  19.9430  19.9777  20.0682  20.0901
    20.1311  20.1748  20.2868  20.3333  20.3764  20.4192  20.4743  20.5252
    20.6039  20.7506  20.7893  20.8415  20.9225  20.9502  21.0174  21.0793
    21.1196  21.2019  21.2667  21.3186  21.3671  21.4664  21.5095  21.5459
    21.6247  21.6570  21.7562  21.7981  21.8341  21.9135  21.9743  22.0623
    22.1106  22.2008

          k = 0.2500-0.4976 0.0000 ( 32026 PWs)   bands (ev):

   -55.8819 -55.8405 -55.8019 -55.7785 -55.7636 -55.7314 -55.7247 -55.6987
   -55.6597 -55.5714 -55.5629 -55.5196 -55.4926 -55.4822 -55.4699 -55.4643
   -55.4259 -55.4170 -55.4158 -55.4047 -55.3949 -55.1315 -54.8709 -54.6008
   -21.9290 -21.6292 -20.9500 -20.7920 -20.4969 -20.4706 -20.4121 -20.3516
   -20.2967 -20.2048 -20.1088 -20.0590 -20.0213 -19.9223 -19.8547 -19.8287
   -19.6209 -18.9032 -18.7818  -9.9785  -9.6071  -9.1698  -9.0520  -9.0453
    -8.9786  -8.9591  -8.9157  -8.8999  -8.7961  -8.7649  -8.7373  -8.6899
    -8.4300  -8.3755  -8.3071  -8.2346  -8.0006  -7.7656  -7.7085  -7.6145
    -7.4547  -7.4388  -7.3680  -7.3099  -7.2710  -7.0262  -6.8858  -6.8093
    -6.6420  -6.5231  -6.4625  -6.3795  -6.2868  -6.2155  -6.1680  -6.1160
    -6.0655  -5.9853  -5.7898  -5.6699  -5.4580  -5.3456  -5.3276  -5.2512
    -5.0149  -4.7842  -4.6985  -4.6498  -4.4349  -4.3784  -4.2428  -4.1180
    -4.0825  -3.9850  -3.8502  -3.8138  -3.7733  -3.6610  -3.6367  -3.5888
    -3.5318  -3.4693  -3.2762  -3.2074  -3.1602  -3.1232  -3.0745  -2.9666
    -2.7848  -2.7420  -2.5188  -2.3424  -2.2113  -2.2002  -2.0917  -1.9357
    -1.7734  -1.6138  -1.5444  -1.5204  -1.2606  -1.2051  -1.1674  -0.4748
    -0.1584   0.2622   0.4612   0.5508   0.7362   0.7966   1.3476   1.4082
     1.4224   1.5358   1.6650   1.8914   3.9037   4.1942   4.3882   5.1124
     5.2213   5.4745   5.4878   5.5769   5.7344   5.9118   6.0320   6.1124
     6.1833   6.4851   6.6805   6.8002   6.8827   6.9267   7.0029   7.2264
     7.3230   7.4575   7.5316   7.5871   7.6927   7.7099   7.8034   7.8763
     7.9667   8.0678   8.2279   8.3719   8.4192   8.5096   8.6108   8.7672
     8.8131   8.8663   8.9037   9.1102   9.1855   9.2235   9.4159   9.6245
     9.6624   9.8550  10.0117  10.0785  10.2619  10.5400  10.7048  10.7954
    10.8489  10.8595  11.0252  11.1054  11.1819  11.2113  11.2817  11.3795
    11.4455  11.4808  11.5239  11.6100  11.6804  11.7328  11.7983  11.9408
    11.9755  12.0901  12.1652  12.1983  12.2561  12.3291  12.4642  12.5420
    12.5542  12.7000  12.8119  12.8492  12.8621  12.9645  12.9877  13.1236
    13.1403  13.1774  13.2378  13.3090  13.3494  13.5295  13.5628  13.6332
    13.6694  13.7455  13.8131  13.8881  13.9446  14.0187  14.0428  14.1483
    14.1955  14.3178  14.3424  14.3717  14.4454  14.4728  14.5652  14.6310
    14.7116  14.7464  14.8084  14.8518  14.8825  14.9507  15.1487  15.1757
    15.3190  15.3648  15.4103  15.4530  15.6012  15.6657  15.7285  15.7788
    15.8058  15.9045  15.9269  16.0147  16.1132  16.1434  16.2120  16.2257
    16.3000  16.3165  16.3529  16.3982  16.4412  16.4721  16.5037  16.5380
    16.5650  16.5859  16.6037  16.6241  16.6451  16.6765  16.7102  16.7386
    16.8728  16.8911  17.0089  17.0992  17.1183  17.1570  17.2260  17.2874
    17.3181  17.3708  17.4880  17.5042  17.5816  17.6449  17.7827  17.8250
    17.8739  17.9355  18.0044  18.1160  18.1917  18.2155  18.2538  18.3333
    18.3659  18.3963  18.4326  18.4760  18.6045  18.6531  18.7153  18.8017
    18.8591  18.9129  18.9342  19.0626  19.0995  19.1687  19.2245  19.2498
    19.3164  19.3698  19.4348  19.4780  19.5408  19.6947  19.7247  19.9130
    20.0063  20.0460  20.1092  20.1924  20.3148  20.3832  20.3987  20.4612
    20.5209  20.5393  20.5953  20.6105  20.6722  20.7745  20.8497  20.9092
    21.0411  21.0755  21.1550  21.2451  21.2727  21.3716  21.4858  21.5073
    21.5796  21.6436  21.7066  21.8287  21.8984  21.9195  21.9969  22.0616
    22.1168  22.2301

          k =-0.5000 0.0000 0.0000 ( 31984 PWs)   bands (ev):

   -55.8685 -55.8540 -55.8017 -55.7783 -55.7497 -55.7387 -55.7312 -55.6829
   -55.6752 -55.5715 -55.5638 -55.5193 -55.4928 -55.4818 -55.4700 -55.4643
   -55.4257 -55.4169 -55.4168 -55.4036 -55.3948 -55.1322 -54.8708 -54.6008
   -21.8862 -21.6746 -20.9254 -20.9023 -20.7760 -20.7295 -20.3183 -20.1890
   -20.1699 -20.0513 -20.0138 -19.9350 -19.9044 -19.8842 -19.8777 -19.8625
   -19.6294 -18.8988 -18.8740  -9.8919  -9.8598  -9.8379  -9.7702  -9.7156
    -9.6012  -8.9776  -8.9644  -8.7498  -8.7289  -8.6668  -8.6528  -8.5563
    -8.5223  -8.0611  -8.0351  -7.9305  -7.7452  -7.6809  -7.6446  -7.4806
    -7.3869  -7.3407  -7.3131  -7.1809  -7.0922  -7.0191  -6.9358  -6.8456
    -6.6558  -6.6042  -6.3947  -6.2916  -6.1182  -6.0270  -5.9989  -5.9793
    -5.9774  -5.7124  -5.6391  -5.5623  -5.3618  -5.3423  -5.2814  -5.2540
    -5.1087  -5.0746  -4.8639  -4.8569  -4.5578  -4.4876  -4.3803  -4.1682
    -4.1443  -4.0658  -4.0405  -4.0145  -3.9060  -3.8398  -3.6997  -3.5261
    -3.3699  -3.3281  -3.2557  -2.9603  -2.8687  -2.8536  -2.7618  -2.6135
    -2.5445  -2.5122  -2.3738  -2.3175  -2.2865  -2.1674  -2.1113  -1.8906
    -1.8668  -1.7331  -1.6036  -1.5097  -1.3612  -0.4081  -0.1337  -0.0939
     0.0370   0.3077   0.3609   0.3674   0.4805   0.4920   0.5189   0.5820
     0.6877   1.2975   1.5037   1.6644   3.7890   3.8050   4.2630   4.7938
[...]
    -7.5706  -7.4205  -7.3716  -7.3214  -7.1349  -7.0836  -6.8739  -6.7966
    -6.7082  -6.6881  -6.4060  -6.2692  -6.1865  -6.1260  -6.0780  -6.0494
    -5.9733  -5.9178  -5.8667  -5.7806  -5.6909  -5.5400  -5.3211  -5.1823
    -5.1087  -5.0515  -4.8166  -4.7881  -4.6274  -4.5308  -4.3303  -4.2579
    -3.9660  -3.8736  -3.8148  -3.5876  -3.5628  -3.4757  -3.4453  -3.3566
    -3.3007  -3.2080  -3.1609  -3.1429  -2.9770  -2.9047  -2.8001  -2.6778
    -2.5636  -2.4329  -2.3739  -2.2583  -2.1861  -2.1012  -2.0622  -1.9375
    -1.9057  -1.7486  -1.7063  -1.5505  -1.2335  -0.3971  -0.2770  -0.1411
    -0.1211   0.0137   0.1013   0.3629   0.4101   0.6847   0.8011   1.0672
     1.1570   1.3239   1.6149   1.8203   4.1196   4.1498   4.3910   5.0317
     5.2950   5.3927   5.6538   5.7229   5.8377   5.8659   5.9486   6.0172
     6.3615   6.5205   6.7698   6.8040   6.8325   6.9073   7.0968   7.2249
     7.2874   7.4415   7.5895   7.5946   7.7164   7.8029   7.8760   8.0038
     8.1251   8.2015   8.2552   8.3887   8.4817   8.5761   8.6865   8.7637
     8.9465   9.0669   9.1811   9.2103   9.3520   9.4037   9.5313   9.6102
     9.7481   9.8416   9.9309  10.1224  10.2390  10.3902  10.5076  10.6188
    10.6581  10.7928  10.9067  10.9591  11.0661  11.0878  11.2052  11.2422
    11.3149  11.4106  11.5038  11.6400  11.7057  11.7801  11.8665  11.9126
    12.0782  12.1456  12.1924  12.2620  12.2806  12.3955  12.4781  12.5543
    12.6419  12.6894  12.7226  12.7694  12.8680  12.9150  12.9699  13.0529
    13.1163  13.1657  13.2007  13.2515  13.3243  13.3591  13.4355  13.4850
    13.5492  13.6151  13.6766  13.8215  13.9128  13.9587  14.0773  14.1201
    14.1484  14.1955  14.2823  14.3460  14.4157  14.4547  14.4782  14.5412
    14.5824  14.6620  14.7375  14.7826  14.8549  14.9011  15.0863  15.1408
    15.2427  15.3102  15.3838  15.4802  15.5939  15.6773  15.7650  15.7783
    15.9146  16.0065  16.0214  16.0528  16.1015  16.1479  16.2201  16.2780
    16.3294  16.3367  16.3471  16.4008  16.4709  16.5313  16.5521  16.5737
    16.5841  16.6095  16.6340  16.6597  16.6731  16.7071  16.7788  16.8078
    16.8851  17.0213  17.0791  17.1184  17.1992  17.3190  17.3590  17.3917
    17.4063  17.4464  17.5609  17.6332  17.6995  17.7365  17.8534  17.9685
    18.0098  18.0683  18.0843  18.1018  18.1502  18.1881  18.2649  18.3322
    18.3913  18.4816  18.4937  18.5695  18.6527  18.7340  18.7874  18.8680
    18.9161  18.9659  19.0319  19.0814  19.1961  19.2573  19.2905  19.3474
    19.4070  19.5020  19.5711  19.5943  19.6978  19.7491  19.7982  19.8538
    19.9590  20.0156  20.0551  20.0982  20.2475  20.3144  20.3413  20.4090
    20.4788  20.5300  20.5886  20.7604  20.8534  20.9281  20.9535  20.9991
    21.0792  21.1458  21.1689  21.2529  21.3648  21.4067  21.5025  21.5913
    21.6637  21.6867  21.7474  21.8043  21.8439  21.9157  21.9753  22.0704
    22.0889  22.1243

          k =-0.5000-0.4976 0.0000 ( 31956 PWs)   bands (ev):

   -55.8354 -55.8300 -55.7589 -55.7475 -55.7265 -55.7127 -55.7014 -55.6648
   -55.6600 -55.5473 -55.5374 -55.4764 -55.4661 -55.4638 -55.4601 -55.4549
   -55.4073 -55.3985 -55.3881 -55.3829 -55.3828 -55.0836 -54.8303 -54.5637
   -21.8501 -21.6674 -20.6626 -20.6486 -20.5357 -20.4992 -20.3548 -20.3274
   -20.3116 -20.2775 -20.1075 -20.0406 -20.0054 -19.9027 -19.8633 -19.8493
   -19.6502 -18.8928 -18.8590  -9.7326  -9.6022  -9.0490  -9.0391  -8.9242
    -8.9110  -8.8973  -8.7970  -8.7492  -8.6371  -8.4150  -8.3688  -8.3488
    -8.3102  -8.2471  -8.2066  -8.1176  -8.0855  -8.0637  -8.0368  -7.8125
    -7.5858  -7.4412  -7.4289  -7.2952  -7.1073  -7.0625  -6.9035  -6.8162
    -6.7961  -6.7940  -6.7728  -6.7218  -6.5847  -6.5508  -6.3105  -6.2133
    -6.1889  -6.0291  -5.9521  -5.8437  -5.5471  -5.4475  -5.2761  -5.1516
    -5.0172  -4.9220  -4.8480  -4.6814  -4.5846  -4.5218  -4.2155  -4.1818
    -3.8772  -3.8068  -3.7692  -3.4410  -3.3429  -3.3275  -3.2902  -3.2595
    -3.2377  -3.1633  -3.1061  -3.0837  -3.0533  -2.9875  -2.8675  -2.7856
    -2.5171  -2.4165  -2.3780  -2.1965  -2.1383  -2.0550  -2.0443  -2.0009
    -1.9424  -1.8900  -1.7143  -1.6249  -1.1735  -0.6403  -0.6126  -0.4815
    -0.2831  -0.1839   0.1122   0.4330   0.4437   0.9357   1.1458   1.1836
     1.2626   1.5310   1.7292   1.7751   4.5246   4.6943   4.7069   5.1178
     5.1310   5.4046   5.8660   5.9193   5.9971   6.0255   6.1394   6.1895
     6.2480   6.3628   6.4802   6.5299   6.5574   6.6040   6.6776   6.7826
     7.0227   7.1424   7.3012   7.4049   7.4722   7.5184   7.5883   7.6251
     7.9219   8.0567   8.2663   8.3800   8.4013   8.4502   8.6321   8.8282
     8.9371   9.0623   9.1298   9.3185   9.3967   9.4195   9.4871   9.6202
     9.6393   9.7871  10.1116  10.2194  10.4175  10.6010  10.7029  10.7626
    10.7951  10.8716  11.0166  11.2878  11.3515  11.5411  11.7434  11.7923
    11.9161  11.9659  11.9839  12.0213  12.1285  12.2180  12.3110  12.4255
    12.4593  12.5691  12.6211  12.6678  12.7122  12.8513  12.8830  12.9542
    12.9826  13.1432  13.1788  13.1972  13.2187  13.2488  13.2737  13.3316
    13.3372  13.3417  13.4049  13.5076  13.5550  13.5624  13.5857  13.5915
    13.6591  13.6985  13.7190  13.7364  13.7556  13.7820  13.8454  13.8835
    13.9236  13.9389  13.9941  14.0226  14.2470  14.3004  14.3157  14.3790
    14.4351  14.5605  14.6578  14.7047  14.7365  14.7821  14.8046  14.8294
    14.8531  14.8906  14.9690  14.9992  15.0306  15.0764  15.1352  15.2215
    15.2866  15.3114  15.4097  15.4218  15.4573  15.5313  15.5863  15.6208
    15.7588  15.8118  15.9494  16.1179  16.1547  16.3158  16.3287  16.3835
    16.3970  16.4179  16.4555  16.5341  16.5576  16.5765  16.5864  16.5961
    16.6167  16.6353  16.6601  16.6657  16.8348  16.9137  17.0333  17.1962
    17.2442  17.3982  17.4283  17.4329  17.5760  17.7208  17.7768  17.8296
    17.8484  17.9035  17.9392  17.9965  18.0809  18.2195  18.3217  18.3925
    18.5428  18.5996  18.6577  18.6791  18.8242  18.9032  18.9214  19.0217
    19.1887  19.1971  19.2757  19.3214  19.4413  19.4755  19.6434  19.7156
    19.7725  19.8432  19.8980  19.9781  20.0787  20.1362  20.1525  20.2679
    20.3158  20.3954  20.4590  20.4979  20.5223  20.5592  20.5942  20.6242
    20.6446  20.6883  20.7509  20.7745  20.8798  20.9319  20.9766  21.0115
    21.0602  21.0725  21.1317  21.2024  21.2174  21.2334  21.2783  21.3296
    21.3805  21.4271  21.4863  21.5123  21.5627  21.6118  21.6633  21.7044
    21.7772  21.7964

          k =-0.2500 0.2488 0.0000 ( 32025 PWs)   bands (ev):

   -55.8523 -55.8131 -55.7590 -55.7473 -55.7395 -55.7023 -55.6996 -55.6815
   -55.6430 -55.5480 -55.5373 -55.4770 -55.4662 -55.4636 -55.4599 -55.4546
   -55.4072 -55.3992 -55.3886 -55.3832 -55.3811 -55.0829 -54.8302 -54.5637
   -21.9294 -21.6365 -21.0475 -20.8730 -20.5353 -20.3984 -20.3770 -20.2506
   -20.2024 -20.0843 -20.0525 -20.0285 -19.9484 -19.8476 -19.8023 -19.7854
   -19.6483 -18.8973 -18.7775  -9.9953  -9.7486  -9.7369  -9.5625  -9.1462
    -9.1392  -9.0953  -8.8937  -8.8401  -8.7946  -8.6908  -8.5933  -8.5712
    -8.4778  -8.3619  -8.3193  -8.1671  -8.0452  -7.8463  -7.6556  -7.6315
    -7.4696  -7.4382  -7.2730  -6.9423  -6.7702  -6.6765  -6.6205  -6.5617
    -6.5063  -6.4467  -6.3898  -6.3168  -6.2269  -6.1677  -6.0810  -5.9558
    -5.8518  -5.8106  -5.6105  -5.5038  -5.3862  -5.3699  -5.2463  -5.1473
    -4.9768  -4.8719  -4.8168  -4.7006  -4.5286  -4.5047  -4.2867  -4.2016
    -4.1625  -4.0294  -3.9252  -3.8384  -3.7358  -3.7140  -3.5841  -3.4911
    -3.4605  -3.3895  -3.3005  -3.2457  -3.2311  -3.1760  -3.1228  -2.9178
    -2.8072  -2.6270  -2.4295  -2.3425  -2.1766  -2.0588  -1.9333  -1.8630
    -1.7235  -1.6320  -1.4855  -1.4084  -1.3331  -0.9145  -0.7248  -0.5109
    -0.1435   0.0492   0.4088   0.5897   0.8553   0.9718   1.1108   1.1645
     1.3973   1.5165   1.5723   1.9459   3.2390   3.8859   4.6532   5.0362
     5.1593   5.2345   5.3263   5.7075   5.9725   6.1800   6.2708   6.3821
     6.5198   6.6098   6.6871   6.7778   6.9220   6.9813   7.1065   7.2948
     7.3445   7.5219   7.5783   7.6654   7.7512   7.8966   7.9332   8.0452
     8.2108   8.2836   8.3480   8.4909   8.5345   8.6210   8.6894   8.7892
     8.8829   8.9671   9.1224   9.2387   9.3506   9.4802   9.5535   9.6533
     9.7440   9.8268   9.9275  10.1122  10.1919  10.2269  10.3027  10.3783
    10.4742  10.5572  10.5930  10.7126  10.7778  10.9168  11.0750  11.1517
    11.2141  11.2733  11.3680  11.4778  11.5282  11.6222  11.7335  11.8218
    11.9230  11.9327  12.0013  12.0605  12.0710  12.2084  12.2433  12.3160
    12.3992  12.4317  12.5047  12.5727  12.6316  12.7181  12.7718  12.8816
    12.9296  12.9656  13.1062  13.1456  13.2278  13.3231  13.4702  13.5117
    13.6464  13.6880  13.7699  13.8185  13.9066  13.9976  14.0534  14.1294
    14.1728  14.2652  14.3996  14.4607  14.5295  14.5724  14.7054  14.8257
    14.9000  14.9519  15.0170  15.1026  15.2560  15.2998  15.3526  15.4216
    15.4671  15.5409  15.5896  15.6222  15.6659  15.7096  15.7804  15.8313
    15.9517  15.9912  16.0244  16.0794  16.1235  16.1703  16.2574  16.3322
    16.3462  16.3718  16.4475  16.5127  16.5601  16.5903  16.6113  16.6140
    16.6312  16.6532  16.7532  16.8146  16.8973  16.9414  17.0110  17.0398
    17.0838  17.1870  17.2278  17.2392  17.3051  17.3290  17.3744  17.4566
    17.4738  17.5444  17.5888  17.6135  17.7275  17.7955  17.8661  17.9364
    17.9763  18.0912  18.1579  18.1858  18.2397  18.3628  18.4636  18.5150
    18.5879  18.6431  18.6549  18.7267  18.7945  18.8396  18.8862  18.9211
    19.1139  19.1503  19.1963  19.2573  19.3059  19.4082  19.4798  19.5832
    19.6632  19.6933  19.8440  19.8803  19.9324  19.9859  20.0355  20.0834
    20.1273  20.2196  20.3035  20.3271  20.3795  20.4163  20.5340  20.6085
    20.6418  20.7007  20.7726  20.8368  20.9030  20.9493  21.0353  21.0568
    21.0866  21.1711  21.2406  21.3291  21.3746  21.4746  21.5055  21.5249
    21.6093  21.6524  21.7370  21.7641  21.8138  21.8842  21.9915  22.0374
    22.1287  22.1790

     the Fermi energy is    -1.4196 ev

!    total energy              =   -2282.18842831 Ry
     Harris-Foulkes estimate   =   -2282.18842832 Ry
     estimated scf accuracy    <       0.00000001 Ry

     The total energy is the sum of the following terms:

     one-electron contribution =  -23644.75302781 Ry
     hartree contribution      =   11864.76355355 Ry
     xc contribution           =    -572.98278274 Ry
     ewald contribution        =   10070.78302736 Ry
     smearing contrib. (-TS)   =       0.00080132 Ry

     total magnetization       =    -0.00 Bohr mag/cell
     absolute magnetization    =     0.01 Bohr mag/cell

     convergence has been achieved in  23 iterations

     Forces acting on atoms (Ry/au):


     negative rho (up, down):  0.791E+00 0.791E+00
     atom    1 type  1   force =    -0.00863617   -0.00513567    0.00055559
     atom    2 type  1   force =     0.00102105    0.00671607    0.00114217
     atom    3 type  2   force =     0.00718987    0.00440863   -0.00137694
     atom    4 type  2   force =     0.01097823    0.00577842    0.00086069
     atom    5 type  1   force =     0.00110756   -0.00505891    0.00026324
     atom    6 type  1   force =    -0.00017408   -0.00207871    0.00074326
     atom    7 type  1   force =     0.00156983    0.00120917   -0.00299975
     atom    8 type  1   force =    -0.00271047   -0.00410168    0.00134558
     atom    9 type  2   force =     0.00607588    0.00461893   -0.00066983
     atom   10 type  2   force =    -0.00232291   -0.01513445    0.00169726
     atom   11 type  1   force =    -0.00225521   -0.00028531   -0.00245097
     atom   12 type  1   force =    -0.01123204    0.00374313   -0.00001546
     atom   13 type  1   force =    -0.00267006   -0.00290861   -0.00158828
     atom   14 type  1   force =    -0.00907111   -0.00478394    0.00034584
     atom   15 type  1   force =     0.00006908    0.00516484   -0.00005165
     atom   16 type  2   force =    -0.00815591    0.00539533   -0.00043596
     atom   17 type  2   force =     0.01105807    0.00639674    0.00056243
     atom   18 type  1   force =     0.00126389   -0.00537412    0.00018454
     atom   19 type  1   force =    -0.00027547   -0.00233354    0.00090298
     atom   20 type  1   force =    -0.00268037    0.00225678   -0.00162382
     atom   21 type  1   force =    -0.00537174   -0.00203094    0.00091741
     atom   22 type  2   force =    -0.00186821    0.00492208    0.00145668
     atom   23 type  2   force =     0.00335894   -0.00289735    0.00318054
     atom   24 type  1   force =     0.00333263    0.00654689   -0.00395526
     atom   25 type  1   force =     0.01015866    0.00139607    0.00066409
     atom   26 type  1   force =     0.00032568   -0.00297148    0.00065666
     atom   27 type  3   force =     0.00002881   -0.00160621   -0.00127739
     atom   28 type  3   force =    -0.00004301   -0.00092600   -0.00123259
     atom   29 type  3   force =     0.00018403   -0.00034597    0.00061227
     atom   30 type  3   force =     0.00028948   -0.00037332    0.00065712
     atom   31 type  1   force =    -0.00911436    0.00165231    0.00564685
     atom   32 type  3   force =     0.00856945   -0.00185923   -0.00471732

     Total force =     0.016907     Total SCF correction =     0.000285

     number of scf cycles    =  22
     number of bfgs steps    =  20

     energy   old            =   -2282.1881527097 Ry
     energy   new            =   -2282.1884283148 Ry

     CASE: energy  _new < energy  _old

     new trust radius        =       0.0301461207 bohr
     new conv_thr            =       0.0000000276 Ry


ATOMIC_POSITIONS (crystal)
O0       0.000000000   0.000000000   0.377034125    0   0   1
O0       0.000000000   0.500000000   0.401147654    0   0   1
Pt1      0.250000000   0.500000000   0.450818966    0   0   1
Pt1      0.000000000   0.000000000   0.452077657    0   0   1
O0       0.250000000   0.810000000   0.443208146    0   0   1
O0       0.250000000   0.190000000   0.459051841    0   0   1
O0       0.000000000   0.500000000   0.496627954    0   0   1
O0       0.000000000   0.000000000   0.529070336    0   0   1
Pt1      0.250000000   0.000000000   0.575613493    0   0   1
Pt1      0.000000000   0.500000000   0.574344112    0   0   1
O0       0.250000000   0.690000000   0.575914878    0   0   1
O0       0.250000000   0.310000000   0.584596254    0   0   1
O0       0.000000000   0.000000000   0.621093499    0   0   1
O0       0.500000000   0.000000000   0.377028921    0   0   1
O0       0.500000000   0.500000000   0.400637274    0   0   1
Pt1      0.750000000   0.500000000   0.450790963    0   0   1
Pt1      0.500000000   0.000000000   0.452026118    0   0   1
O0       0.750000000   0.810000000   0.443179533    0   0   1
O0       0.750000000   0.190000000   0.459024599    0   0   1
O0       0.500000000   0.500000000   0.497396760    0   0   1
O0       0.500000000   0.000000000   0.528865440    0   0   1
Pt1      0.750000000   0.000000000   0.575370677    0   0   1
Pt1      0.500000000   0.500000000   0.576348186    0   0   1
O0       0.750000000   0.690000000   0.572417201    0   0   1
O0       0.750000000   0.310000000   0.582203936    0   0   1
O0       0.500000000   0.000000000   0.620628144    0   0   1
H2       0.000095685   0.640578271   0.385688885
H2       0.500252304   0.640255996   0.385140243
H2       0.142869886   0.035532399   0.366896180
H2       0.642347868   0.037187406   0.366839013
O0       0.515708706   0.520861221   0.649760515
H2       0.379494541   0.480740121   0.663768496


     Check: negative starting charge=(component1):   -1.537574
     NEW-OLD atomic charge density approx. for the potential

     Check: negative/imaginary core charge=   -0.000003    0.000000
     Check: negative starting charge=(component1):   -1.537265

     negative rho (up, down):  0.791E+00 0.791E+00

     total cpu time spent up to now is   169705.1 secs

     per-process dynamical memory:   371.7 Mb

     Self-consistent Calculation

     iteration #  1     ecut=    40.00 Ry     beta=0.30
     Davidson diagonalization with overlap
     ethr =  1.00E-06,  avg # of iterations =  3.4

     negative rho (up, down):  0.791E+00 0.791E+00

     total cpu time spent up to now is   170436.3 secs

     total energy              =   -2282.18865720 Ry
     Harris-Foulkes estimate   =   -2282.18870335 Ry
     estimated scf accuracy    <       0.00025770 Ry

     total magnetization       =     0.00 Bohr mag/cell
     absolute magnetization    =     0.01 Bohr mag/cell

     iteration #  2     ecut=    40.00 Ry     beta=0.30
     Davidson diagonalization with overlap
     ethr =  1.04E-07,  avg # of iterations =  1.8

     negative rho (up, down):  0.791E+00 0.791E+00

     total cpu time spent up to now is   170855.7 secs

     total energy              =   -2282.18864305 Ry
     Harris-Foulkes estimate   =   -2282.18871916 Ry
     estimated scf accuracy    <       0.00048307 Ry

     total magnetization       =    -0.00 Bohr mag/cell
     absolute magnetization    =     0.01 Bohr mag/cell

     iteration #  3     ecut=    40.00 Ry     beta=0.30
     Davidson diagonalization with overlap
     ethr =  1.04E-07,  avg # of iterations =  1.0

     negative rho (up, down):  0.791E+00 0.791E+00

     total cpu time spent up to now is   171252.7 secs

     total energy              =   -2282.18867430 Ry
     Harris-Foulkes estimate   =   -2282.18870589 Ry
     estimated scf accuracy    <       0.00026087 Ry

     total magnetization       =     0.00 Bohr mag/cell
     absolute magnetization    =     0.01 Bohr mag/cell

     iteration #  4     ecut=    40.00 Ry     beta=0.30
     Davidson diagonalization with overlap
     ethr =  1.04E-07,  avg # of iterations =  1.0

     negative rho (up, down):  0.791E+00 0.791E+00

     total cpu time spent up to now is   171648.3 secs

     total energy              =   -2282.18867565 Ry
     Harris-Foulkes estimate   =   -2282.18871098 Ry
     estimated scf accuracy    <       0.00031449 Ry

     total magnetization       =     0.00 Bohr mag/cell
     absolute magnetization    =     0.01 Bohr mag/cell

     iteration #  5     ecut=    40.00 Ry     beta=0.30
     Davidson diagonalization with overlap
     ethr =  1.04E-07,  avg # of iterations =  1.0

     negative rho (up, down):  0.791E+00 0.791E+00

     total cpu time spent up to now is   172046.6 secs

     total energy              =   -2282.18869051 Ry
     Harris-Foulkes estimate   =   -2282.18870679 Ry
     estimated scf accuracy    <       0.00014765 Ry

     total magnetization       =     0.00 Bohr mag/cell
     absolute magnetization    =     0.01 Bohr mag/cell

     iteration #  6     ecut=    40.00 Ry     beta=0.30
     Davidson diagonalization with overlap
     ethr =  5.98E-08,  avg # of iterations =  1.0

     negative rho (up, down):  0.791E+00 0.791E+00

     total cpu time spent up to now is   172444.4 secs

     total energy              =   -2282.18869829 Ry
     Harris-Foulkes estimate   =   -2282.18870349 Ry
     estimated scf accuracy    <       0.00004463 Ry

     total magnetization       =     0.00 Bohr mag/cell
     absolute magnetization    =     0.01 Bohr mag/cell

     iteration #  7     ecut=    40.00 Ry     beta=0.30
     Davidson diagonalization with overlap
     ethr =  1.81E-08,  avg # of iterations =  1.0
=>> PBS: job killed: walltime 172834 exceeded limit 172800
mpirun: killing job...

---------------------------------------
Running PBS batch system epilogue script
Job id: 329695.audhumbla.fysik.dtu.dk
Username: zhonxu
Groupname: campgst
Jobname: PtO2/Eads-2-layers/OH-relax-surf
Sessionid: 26370
Resources limits: neednodes=2:ppn=8:xeon8,nodes=2:ppn=8:xeon8,walltime=48:00:00
Resources used: cput=767:36:04,mem=10623024kb,vmem=14130988kb,walltime=48:00:35
Queuename: verylong
Accounting:
This job has allocated the following 16 nodes:
b082 b082 b082 b082 b082 b082 b082 b082 b039 b039 b039 b039 b039 b039 b039 b039
Finished epilogue job 329695.audhumbla.fysik.dtu.dk for zhonxu
