
     Program PWSCF v.5.0.2 (svn rev. 9656) starts on 11May2014 at 14:28:19 

     This program is part of the open-source Quantum ESPRESSO suite
     for quantum simulation of materials; please cite
         "P. Giannozzi et al., J. Phys.:Condens. Matter 21 395502 (2009);
          URL http://www.quantum-espresso.org", 
     in publications or presentations arising from this work. More details at
     http://www.quantum-espresso.org/quote.php

     Parallel version (MPI), running on    32 processors
     K-points division:     npool     =       4
     R & G space division:  proc/nbgrp/npool/nimage =       8

     Current dimensions of program PWSCF are:
     Max number of different atomic species (ntypx) = 10
     Max number of k-points (npk) =  40000
     Max angular momentum in pseudopotentials (lmaxx) =  3
     Reading input from pwscf.in
Warning: card &CELL ignored
Warning: card / ignored

     Subspace diagonalization in iterative solution of the eigenvalue problem:
     a serial algorithm will be used


     Parallelization info
     --------------------
     sticks:   dense  smooth     PW     G-vecs:    dense   smooth      PW
     Min         745     237     66               241825    43740    6456
     Max         746     238     67               241838    43794    6459
     Sum        5965    1901    531              1934647   350115   51659



     bravais-lattice index     =            0
     lattice parameter (alat)  =      12.2076  a.u.
     unit-cell volume          =   10244.9005 (a.u.)^3
     number of atoms/cell      =           51
     number of atomic types    =            3
     number of electrons       =       461.00
     number of Kohn-Sham states=          691
     kinetic-energy cutoff     =      40.0000  Ry
     charge density cutoff     =     500.0000  Ry
     convergence threshold     =      1.0E-06
     mixing beta               =       0.3000
     number of iterations used =            8  plain     mixing
     Exchange-correlation      = SLA  PW   PBE  PBE ( 1 4 3 4 0)
     EXX-fraction              =        0.00
     nstep                     =           50


     celldm(1)=  12.207631  celldm(2)=   0.000000  celldm(3)=   0.000000
     celldm(4)=   0.000000  celldm(5)=   0.000000  celldm(6)=   0.000000

     crystal axes: (cart. coord. in units of alat)
               a(1) = (   1.000000   0.000000   0.000000 )  
               a(2) = (   0.000000   1.004836   0.000000 )  
               a(3) = (   0.000000   0.000000   5.604262 )  

     reciprocal axes: (cart. coord. in units 2 pi/alat)
               b(1) = (  1.000000  0.000000  0.000000 )  
               b(2) = (  0.000000  0.995187  0.000000 )  
               b(3) = (  0.000000  0.000000  0.178436 )  


     PseudoPot. # 1 for O  read from file:
     /home/camp/zhonxu/pseudo/o_pbe_v1.01.uspp.F.UPF
     MD5 check sum: 2bcb18d16ea4b960afae9ec6d52f22d2
     Pseudo is Ultrasoft + core correction, Zval =  6.0
     Generated by new atomic code, or converted to UPF format
     Using radial grid of  737 points,  5 beta functions with: 
                l(1) =   0
                l(2) =   0
                l(3) =   1
                l(4) =   1
                l(5) =   2
     Q(r) pseudized with  8 coefficients,  rinner =    0.900   0.900   0.900
                                                       0.900   0.900

     PseudoPot. # 2 for Pt read from file:
     /home/camp/zhonxu/pseudo/pt_pbe_v1.uspp.F.UPF
     MD5 check sum: 4c71d6ad5ef119f1eb26a4d0b7884226
     Pseudo is Ultrasoft + core correction, Zval = 16.0
     Generated by new atomic code, or converted to UPF format
     Using radial grid of  985 points,  6 beta functions with: 
                l(1) =   0
                l(2) =   0
                l(3) =   1
                l(4) =   1
                l(5) =   2
                l(6) =   2
     Q(r) pseudized with  8 coefficients,  rinner =    1.300   1.300   1.300
                                                       1.300   1.300

     PseudoPot. # 3 for H  read from file:
     /home/camp/zhonxu/pseudo/h_pbe_v1.uspp.F.UPF
     MD5 check sum: 3408e3ff4ec8b0a4e358431e7e038a48
     Pseudo is Ultrasoft, Zval =  1.0
     Generated by new atomic code, or converted to UPF format
     Using radial grid of  615 points,  2 beta functions with: 
                l(1) =   0
                l(2) =   0
     Q(r) pseudized with  8 coefficients,  rinner =    0.700

     atomic species   valence    mass     pseudopotential
        O0             6.00    15.99940     O ( 1.00)
        Pt1           16.00   195.08000     Pt( 1.00)
        H2             1.00     1.00794     H ( 1.00)

      2 Sym. Ops. (no inversion) found



   Cartesian axes

     site n.     atom                  positions (alat units)
         1           O0  tau(   1) = (   0.0000000   0.5024180   1.8575886  )
         2           Pt1 tau(   2) = (   0.2500000   0.5024180   2.0485258  )
         3           Pt1 tau(   3) = (   0.0000000   0.0000000   2.0485258  )
         4           O0  tau(   4) = (   0.2500000   0.8139171   2.0485258  )
         5           O0  tau(   5) = (   0.2500000   0.1909188   2.0485258  )
         6           O0  tau(   6) = (   0.0000000   0.5024180   2.2394070  )
         7           O0  tau(   7) = (   0.0000000   0.0000000   2.3600107  )
         8           Pt1 tau(   8) = (   0.2500000   0.0000000   2.5509479  )
         9           Pt1 tau(   9) = (   0.0000000   0.5024180   2.5509479  )
        10           O0  tau(  10) = (   0.2500000   0.6933368   2.5509479  )
        11           O0  tau(  11) = (   0.2500000   0.3114991   2.5509479  )
        12           O0  tau(  12) = (   0.0000000   0.0000000   2.7418291  )
        13           O0  tau(  13) = (   0.0000000   0.5024180   2.8577252  )
        14           Pt1 tau(  14) = (   0.2500000   0.5024180   3.0464207  )
        15           Pt1 tau(  15) = (   0.0000000   0.0000000   3.0519689  )
        16           O0  tau(  16) = (   0.2500000   0.8129525   3.0573490  )
        17           O0  tau(  17) = (   0.2500000   0.1918835   3.0573490  )
        18           O0  tau(  18) = (   0.0000000   0.5024180   3.2388711  )
        19           O0  tau(  19) = (   0.0000000   0.0000000   3.3644626  )
        20           Pt1 tau(  20) = (   0.2500000   0.0000000   3.5576415  )
        21           Pt1 tau(  21) = (   0.0000000   0.5024180   3.5547273  )
        22           O0  tau(  22) = (   0.2500000   0.6920004   3.5920516  )
        23           O0  tau(  23) = (   0.2500000   0.3128356   3.5920516  )
        24           O0  tau(  24) = (   0.0000000   0.0000000   3.7444315  )
        25           O0  tau(  25) = (   0.5000000   0.5024180   1.8575886  )
        26           Pt1 tau(  26) = (   0.7500000   0.5024180   2.0485258  )
        27           Pt1 tau(  27) = (   0.5000000   0.0000000   2.0485258  )
        28           O0  tau(  28) = (   0.7500000   0.8139171   2.0485258  )
        29           O0  tau(  29) = (   0.7500000   0.1909188   2.0485258  )
        30           O0  tau(  30) = (   0.5000000   0.5024180   2.2394070  )
        31           O0  tau(  31) = (   0.5000000   0.0000000   2.3600107  )
        32           Pt1 tau(  32) = (   0.7500000   0.0000000   2.5509479  )
        33           Pt1 tau(  33) = (   0.5000000   0.5024180   2.5509479  )
        34           O0  tau(  34) = (   0.7500000   0.6933368   2.5509479  )
        35           O0  tau(  35) = (   0.7500000   0.3114991   2.5509479  )
        36           O0  tau(  36) = (   0.5000000   0.0000000   2.7418291  )
        37           O0  tau(  37) = (   0.5000000   0.5024180   2.8577252  )
        38           Pt1 tau(  38) = (   0.7500000   0.5024180   3.0464207  )
        39           Pt1 tau(  39) = (   0.5000000   0.0000000   3.0519689  )
        40           O0  tau(  40) = (   0.7500000   0.8129525   3.0573490  )
        41           O0  tau(  41) = (   0.7500000   0.1918835   3.0573490  )
        42           O0  tau(  42) = (   0.5000000   0.5024180   3.2388711  )
        43           O0  tau(  43) = (   0.5000000   0.0000000   3.3644626  )
        44           Pt1 tau(  44) = (   0.7500000   0.0000000   3.5576415  )
        45           Pt1 tau(  45) = (   0.5000000   0.5024180   3.5547273  )
        46           O0  tau(  46) = (   0.7500000   0.6920004   3.5920516  )
        47           O0  tau(  47) = (   0.7500000   0.3128356   3.5920516  )
        48           O0  tau(  48) = (   0.5000000   0.0000000   3.7444315  )
        49           O0  tau(  49) = (   0.5000000   0.5024180   3.8643067  )
        50           O0  tau(  50) = (   0.5000000   0.3220801   3.9705074  )
        51           H2  tau(  51) = (   0.5000000   0.3679106   4.1171149  )

     number of k points=     9  Methfessel-Paxton smearing, width (Ry)=  0.0100
                       cart. coord. in units 2pi/alat
        k(    1) = (   0.0000000   0.0000000   0.0000000), wk =   0.1250000
        k(    2) = (   0.0000000   0.2487968   0.0000000), wk =   0.2500000
        k(    3) = (   0.0000000  -0.4975937   0.0000000), wk =   0.1250000
        k(    4) = (   0.2500000   0.0000000   0.0000000), wk =   0.2500000
        k(    5) = (   0.2500000   0.2487968   0.0000000), wk =   0.5000000
        k(    6) = (   0.2500000  -0.4975937   0.0000000), wk =   0.2500000
        k(    7) = (  -0.5000000   0.0000000   0.0000000), wk =   0.1250000
        k(    8) = (  -0.5000000   0.2487968   0.0000000), wk =   0.2500000
        k(    9) = (  -0.5000000  -0.4975937   0.0000000), wk =   0.1250000

     Dense  grid:  1934647 G-vectors     FFT dimensions: (  90,  90, 500)

     Smooth grid:   350115 G-vectors     FFT dimensions: (  50,  50, 288)

     Largest allocated arrays     est. size (Mb)     dimensions
        Kohn-Sham Wavefunctions        58.76 Mb     (   5573,  691)
        NL pseudopotentials            62.25 Mb     (   5573,  732)
        Each V/rho on FFT grid          7.79 Mb     ( 510300)
        Each G-vector array             1.85 Mb     ( 241838)
        G-vector shells                 0.88 Mb     ( 115255)
     Largest temporary arrays     est. size (Mb)     dimensions
        Auxiliary wavefunctions       235.04 Mb     (   5573, 2764)
        Each subspace H/S matrix      116.57 Mb     (2764,2764)
        Each <psi_i|beta_j> matrix      7.72 Mb     (    732,  691)
        Arrays for rho mixing          62.29 Mb     ( 510300,   8)

     Check: negative/imaginary core charge=   -0.000003    0.000000

     Initial potential from superposition of free atoms
     Check: negative starting charge=   -3.073568

     starting charge  452.99976, renormalised to  461.00000

     negative rho (up, down):  0.313E+01 0.000E+00
     Starting wfc are  329 randomized atomic wfcs

     total cpu time spent up to now is      145.5 secs

     Self-consistent Calculation

     iteration #  1     ecut=    40.00 Ry     beta=0.30
     Davidson diagonalization with overlap
     ethr =  1.00E-02,  avg # of iterations =  6.1

     negative rho (up, down):  0.308E+01 0.000E+00

     total cpu time spent up to now is     1251.1 secs

     total energy              =   -4342.08332771 Ry
     Harris-Foulkes estimate   =   -4437.06617731 Ry
     estimated scf accuracy    <     191.05321928 Ry

     iteration #  2     ecut=    40.00 Ry     beta=0.30
     Davidson diagonalization with overlap
     ethr =  1.00E-02,  avg # of iterations =  5.9

     negative rho (up, down):  0.300E+01 0.000E+00

     total cpu time spent up to now is     2156.8 secs

     total energy              =   -3972.83736541 Ry
     Harris-Foulkes estimate   =   -5207.84593670 Ry
     estimated scf accuracy    <   35827.82094989 Ry

     iteration #  3     ecut=    40.00 Ry     beta=0.30
     Davidson diagonalization with overlap
     ethr =  1.00E-02,  avg # of iterations =  6.0

     negative rho (up, down):  0.303E+01 0.000E+00

     total cpu time spent up to now is     3177.1 secs

     total energy              =   -4391.74234967 Ry
     Harris-Foulkes estimate   =   -4447.48488389 Ry
     estimated scf accuracy    <     731.61677212 Ry

     iteration #  4     ecut=    40.00 Ry     beta=0.30
     Davidson diagonalization with overlap
     ethr =  1.00E-02,  avg # of iterations =  5.0

     negative rho (up, down):  0.307E+01 0.000E+00

     total cpu time spent up to now is     3696.4 secs

     total energy              =   -4411.80871599 Ry
     Harris-Foulkes estimate   =   -4436.71897101 Ry
     estimated scf accuracy    <     333.60962412 Ry

     iteration #  5     ecut=    40.00 Ry     beta=0.30
     Davidson diagonalization with overlap
     ethr =  1.00E-02,  avg # of iterations =  2.7

     negative rho (up, down):  0.309E+01 0.000E+00

     total cpu time spent up to now is     4054.0 secs

     total energy              =   -4422.72216061 Ry
     Harris-Foulkes estimate   =   -4426.71015866 Ry
     estimated scf accuracy    <      24.57146457 Ry

     iteration #  6     ecut=    40.00 Ry     beta=0.30
     Davidson diagonalization with overlap
     ethr =  5.33E-03,  avg # of iterations =  1.0

     negative rho (up, down):  0.310E+01 0.000E+00

     total cpu time spent up to now is     4348.8 secs

     total energy              =   -4424.13999907 Ry
     Harris-Foulkes estimate   =   -4425.17000221 Ry
     estimated scf accuracy    <       6.12386214 Ry

     iteration #  7     ecut=    40.00 Ry     beta=0.30
     Davidson diagonalization with overlap
     ethr =  1.33E-03,  avg # of iterations =  3.2

     negative rho (up, down):  0.311E+01 0.000E+00

     total cpu time spent up to now is     4693.0 secs

     total energy              =   -4424.48812226 Ry
     Harris-Foulkes estimate   =   -4424.79740379 Ry
     estimated scf accuracy    <       2.44756198 Ry

     iteration #  8     ecut=    40.00 Ry     beta=0.30
     Davidson diagonalization with overlap
     ethr =  5.31E-04,  avg # of iterations =  3.8

     negative rho (up, down):  0.311E+01 0.000E+00

     total cpu time spent up to now is     5079.1 secs

     total energy              =   -4424.45040875 Ry
     Harris-Foulkes estimate   =   -4424.66375003 Ry
     estimated scf accuracy    <       3.08203665 Ry

     iteration #  9     ecut=    40.00 Ry     beta=0.30
     Davidson diagonalization with overlap
     ethr =  5.31E-04,  avg # of iterations =  1.0

     negative rho (up, down):  0.312E+01 0.000E+00

     total cpu time spent up to now is     5374.7 secs

     total energy              =   -4424.52104305 Ry
     Harris-Foulkes estimate   =   -4424.64001307 Ry
     estimated scf accuracy    <       0.85047756 Ry

     iteration # 10     ecut=    40.00 Ry     beta=0.30
     Davidson diagonalization with overlap
     ethr =  1.84E-04,  avg # of iterations =  5.4

     negative rho (up, down):  0.314E+01 0.000E+00

     total cpu time spent up to now is     5815.4 secs

     total energy              =   -4424.49727909 Ry
     Harris-Foulkes estimate   =   -4424.59158693 Ry
     estimated scf accuracy    <       1.45117920 Ry

     iteration # 11     ecut=    40.00 Ry     beta=0.30
     Davidson diagonalization with overlap
     ethr =  1.84E-04,  avg # of iterations =  6.3

     negative rho (up, down):  0.314E+01 0.000E+00

     total cpu time spent up to now is     6264.3 secs

     total energy              =   -4424.50742523 Ry
     Harris-Foulkes estimate   =   -4424.56457450 Ry
     estimated scf accuracy    <       1.83024588 Ry

     iteration # 12     ecut=    40.00 Ry     beta=0.30
     Davidson diagonalization with overlap
     ethr =  1.84E-04,  avg # of iterations =  1.0

     negative rho (up, down):  0.315E+01 0.000E+00

     total cpu time spent up to now is     6562.5 secs

     total energy              =   -4424.52318430 Ry
     Harris-Foulkes estimate   =   -4424.54585895 Ry
     estimated scf accuracy    <       0.49877694 Ry

     iteration # 13     ecut=    40.00 Ry     beta=0.30
     Davidson diagonalization with overlap
     ethr =  1.08E-04,  avg # of iterations =  1.0

     negative rho (up, down):  0.315E+01 0.000E+00

     total cpu time spent up to now is     6865.4 secs

     total energy              =   -4424.51994717 Ry
     Harris-Foulkes estimate   =   -4424.54107799 Ry
     estimated scf accuracy    <       0.32697008 Ry

     iteration # 14     ecut=    40.00 Ry     beta=0.30
     Davidson diagonalization with overlap
     ethr =  7.09E-05,  avg # of iterations =  2.4

     negative rho (up, down):  0.316E+01 0.000E+00

     total cpu time spent up to now is     7223.1 secs

     total energy              =   -4424.53234413 Ry
     Harris-Foulkes estimate   =   -4424.53964233 Ry
     estimated scf accuracy    <       0.08576524 Ry

     iteration # 15     ecut=    40.00 Ry     beta=0.30
     Davidson diagonalization with overlap
     ethr =  1.86E-05,  avg # of iterations =  7.1

     negative rho (up, down):  0.316E+01 0.000E+00

     total cpu time spent up to now is     7662.6 secs

     total energy              =   -4424.53339522 Ry
     Harris-Foulkes estimate   =   -4424.53653779 Ry
     estimated scf accuracy    <       0.10790471 Ry

     iteration # 16     ecut=    40.00 Ry     beta=0.30
     Davidson diagonalization with overlap
     ethr =  1.86E-05,  avg # of iterations =  1.7

     negative rho (up, down):  0.316E+01 0.000E+00

     total cpu time spent up to now is     7962.9 secs

     total energy              =   -4424.53403619 Ry
     Harris-Foulkes estimate   =   -4424.53555033 Ry
     estimated scf accuracy    <       0.03019295 Ry

     iteration # 17     ecut=    40.00 Ry     beta=0.30
     Davidson diagonalization with overlap
     ethr =  6.55E-06,  avg # of iterations =  5.8

     negative rho (up, down):  0.316E+01 0.000E+00

     total cpu time spent up to now is     8413.7 secs

     total energy              =   -4424.53447810 Ry
     Harris-Foulkes estimate   =   -4424.53534476 Ry
     estimated scf accuracy    <       0.01111240 Ry

     iteration # 18     ecut=    40.00 Ry     beta=0.30
     Davidson diagonalization with overlap
     ethr =  2.41E-06,  avg # of iterations =  9.6

     negative rho (up, down):  0.316E+01 0.000E+00

     total cpu time spent up to now is     8972.0 secs

     total energy              =   -4424.53473135 Ry
     Harris-Foulkes estimate   =   -4424.53529647 Ry
     estimated scf accuracy    <       0.01047484 Ry

     iteration # 19     ecut=    40.00 Ry     beta=0.30
     Davidson diagonalization with overlap
     ethr =  2.27E-06,  avg # of iterations =  1.3

     negative rho (up, down):  0.316E+01 0.000E+00

     total cpu time spent up to now is     9269.4 secs

     total energy              =   -4424.53493818 Ry
     Harris-Foulkes estimate   =   -4424.53508883 Ry
     estimated scf accuracy    <       0.00196796 Ry

     iteration # 20     ecut=    40.00 Ry     beta=0.30
     Davidson diagonalization with overlap
     ethr =  4.27E-07,  avg # of iterations =  1.0

     negative rho (up, down):  0.316E+01 0.000E+00

     total cpu time spent up to now is     9567.6 secs

     total energy              =   -4424.53499784 Ry
     Harris-Foulkes estimate   =   -4424.53504534 Ry
     estimated scf accuracy    <       0.00074596 Ry

     iteration # 21     ecut=    40.00 Ry     beta=0.30
     Davidson diagonalization with overlap
     ethr =  1.62E-07,  avg # of iterations =  1.8

     negative rho (up, down):  0.316E+01 0.000E+00

     total cpu time spent up to now is     9899.1 secs

     total energy              =   -4424.53499653 Ry
     Harris-Foulkes estimate   =   -4424.53503513 Ry
     estimated scf accuracy    <       0.00137567 Ry

     iteration # 22     ecut=    40.00 Ry     beta=0.30
     Davidson diagonalization with overlap
     ethr =  1.62E-07,  avg # of iterations =  1.0

     negative rho (up, down):  0.316E+01 0.000E+00

     total cpu time spent up to now is    10198.1 secs

     total energy              =   -4424.53500546 Ry
     Harris-Foulkes estimate   =   -4424.53503193 Ry
     estimated scf accuracy    <       0.00124058 Ry

     iteration # 23     ecut=    40.00 Ry     beta=0.30
     Davidson diagonalization with overlap
     ethr =  1.62E-07,  avg # of iterations =  1.0

     negative rho (up, down):  0.316E+01 0.000E+00

     total cpu time spent up to now is    10495.1 secs

     total energy              =   -4424.53501014 Ry
     Harris-Foulkes estimate   =   -4424.53502371 Ry
     estimated scf accuracy    <       0.00018195 Ry

     iteration # 24     ecut=    40.00 Ry     beta=0.30
     Davidson diagonalization with overlap
     ethr =  3.95E-08,  avg # of iterations =  1.0

     negative rho (up, down):  0.316E+01 0.000E+00

     total cpu time spent up to now is    10790.5 secs

     total energy              =   -4424.53501094 Ry
     Harris-Foulkes estimate   =   -4424.53502555 Ry
     estimated scf accuracy    <       0.00018741 Ry

     iteration # 25     ecut=    40.00 Ry     beta=0.30
     Davidson diagonalization with overlap
     ethr =  3.95E-08,  avg # of iterations =  1.0

     negative rho (up, down):  0.316E+01 0.000E+00

     total cpu time spent up to now is    11086.1 secs

     total energy              =   -4424.53501574 Ry
     Harris-Foulkes estimate   =   -4424.53501992 Ry
     estimated scf accuracy    <       0.00005427 Ry

     iteration # 26     ecut=    40.00 Ry     beta=0.30
     Davidson diagonalization with overlap
     ethr =  1.18E-08,  avg # of iterations =  1.0

     negative rho (up, down):  0.316E+01 0.000E+00

     total cpu time spent up to now is    11381.3 secs

     total energy              =   -4424.53501528 Ry
     Harris-Foulkes estimate   =   -4424.53501826 Ry
     estimated scf accuracy    <       0.00004243 Ry

     iteration # 27     ecut=    40.00 Ry     beta=0.30
     Davidson diagonalization with overlap
     ethr =  9.20E-09,  avg # of iterations =  1.0

     negative rho (up, down):  0.316E+01 0.000E+00

     total cpu time spent up to now is    11676.8 secs

     total energy              =   -4424.53501473 Ry
     Harris-Foulkes estimate   =   -4424.53501992 Ry
     estimated scf accuracy    <       0.00008887 Ry

     iteration # 28     ecut=    40.00 Ry     beta=0.30
     Davidson diagonalization with overlap
     ethr =  9.20E-09,  avg # of iterations =  1.0

     negative rho (up, down):  0.316E+01 0.000E+00

     total cpu time spent up to now is    11971.6 secs

     total energy              =   -4424.53501690 Ry
     Harris-Foulkes estimate   =   -4424.53501763 Ry
     estimated scf accuracy    <       0.00000662 Ry

     iteration # 29     ecut=    40.00 Ry     beta=0.30
     Davidson diagonalization with overlap
     ethr =  1.44E-09,  avg # of iterations =  1.0

     negative rho (up, down):  0.316E+01 0.000E+00

     total cpu time spent up to now is    12267.7 secs

     total energy              =   -4424.53501704 Ry
     Harris-Foulkes estimate   =   -4424.53501736 Ry
     estimated scf accuracy    <       0.00000502 Ry

     iteration # 30     ecut=    40.00 Ry     beta=0.30
     Davidson diagonalization with overlap
     ethr =  1.09E-09,  avg # of iterations =  1.0

     negative rho (up, down):  0.316E+01 0.000E+00

     total cpu time spent up to now is    12564.9 secs

     total energy              =   -4424.53501712 Ry
     Harris-Foulkes estimate   =   -4424.53501729 Ry
     estimated scf accuracy    <       0.00000422 Ry

     iteration # 31     ecut=    40.00 Ry     beta=0.30
     Davidson diagonalization with overlap
     ethr =  9.16E-10,  avg # of iterations =  1.0

     negative rho (up, down):  0.316E+01 0.000E+00

     total cpu time spent up to now is    12860.2 secs

     End of self-consistent calculation

          k = 0.0000 0.0000 0.0000 ( 43825 PWs)   bands (ev):

   -53.7386 -53.7232 -53.6907 -53.6680 -53.6415 -53.6357 -53.6075 -53.6063
   -53.5875 -53.5841 -53.5534 -53.5528 -53.5506 -53.5500 -53.5454 -53.5310
   -53.5206 -53.5098 -53.4638 -53.4327 -53.4282 -53.4235 -53.4169 -53.4086
   -53.4083 -53.4068 -53.4062 -53.3974 -53.3806 -53.3002 -53.3002 -53.2978
   -53.2931 -53.2719 -53.2642 -53.2605 -53.2041 -53.1961 -53.1888 -53.1513
   -53.1437 -52.9983 -52.9087 -52.9011 -52.7267 -52.7057 -52.7019 -52.5483
   -23.2836 -19.4723 -19.2164 -19.0196 -18.9158 -18.8148 -18.5157 -18.3446
   -18.3047 -18.2622 -18.2615 -18.2180 -18.2091 -18.2050 -18.1546 -18.1410
   -18.0529 -18.0407 -18.0133 -17.9727 -17.9067 -17.8806 -17.8331 -17.7285
   -17.6690 -17.6314 -17.5883 -17.5304 -17.4863 -16.7132 -16.6079 -16.5935
   -16.5255 -15.4327  -8.3907  -8.3799  -8.3441  -8.1190  -8.0489  -7.9306
    -7.7673  -7.1271  -7.0864  -7.0015  -7.0007  -6.9500  -6.9236  -6.9190
    -6.8533  -6.8483  -6.8478  -6.8226  -6.8170  -6.7833  -6.7753  -6.7447
    -6.6677  -6.6147  -6.4914  -6.4870  -6.4728  -6.3842  -6.3653  -6.2628
    -6.2570  -6.1806  -6.1771  -6.1691  -6.1545  -5.8921  -5.7804  -5.7501
    -5.6083  -5.4953  -5.4091  -5.2762  -4.9426  -4.8407  -4.7824  -4.7339
    -4.7318  -4.6614  -4.6613  -4.6025  -4.5585  -4.4919  -4.4407  -4.3764
    -4.1067  -4.0935  -4.0624  -4.0576  -3.9556  -3.9495  -3.9174  -3.8300
    -3.6635  -3.5488  -3.5118  -3.4908  -3.4420  -3.3728  -3.3415  -3.3240
    -3.2100  -3.1570  -3.1441  -3.1234  -3.1049  -3.0900  -3.0670  -3.0318
    -2.9978  -2.9078  -2.8718  -2.7316  -2.6992  -2.6412  -2.6116  -2.5827
    -2.5779  -2.5361  -2.5353  -2.5317  -2.5115  -2.5068  -2.4734  -2.4499
    -2.4437  -2.3411  -2.3171  -2.2793  -2.2578  -2.2356  -2.2225  -2.1978
    -2.1685  -2.1467  -2.0747  -2.0589  -2.0280  -2.0161  -2.0022  -1.9226
    -1.9161  -1.8655  -1.7676  -1.7041  -1.6468  -1.6354  -1.5551  -1.4955
    -1.3446  -1.2919  -1.2043  -1.1373  -1.0179  -0.9304  -0.7835  -0.7019
    -0.6628  -0.6453  -0.5525  -0.5254  -0.4772  -0.4053  -0.3393  -0.2415
    -0.1467  -0.0182   0.1743   0.1807   0.2124   0.2185   0.3290   0.4407
     0.4679   0.4900   0.5986   0.7018   0.7239   0.7823   0.8705   0.9175
     0.9548   0.9948   1.1588   1.2563   1.3750   1.6241   1.7529   1.7636
     1.8471   1.9536   2.0055   2.1608   2.2941   2.3299   2.4338   2.6328
     2.7922   2.8460   2.8622   3.5400   3.5577   3.6068   3.6221   3.6527
     3.6820   3.7401   3.7455   3.8834   4.0219   4.0921   4.4086   4.9095
     5.0975   5.3114   6.0366   6.1127   6.4802   6.8426   7.0256   7.4912
     7.5376   7.5515   8.0107   8.3831   8.5023   8.6699   8.9462   8.9579
     9.0081   9.0300   9.1261   9.1712   9.1876   9.3042   9.3046   9.4676
     9.5173   9.5203   9.5210   9.5964   9.6061   9.6397   9.6597   9.6932
     9.7038   9.7321   9.7927   9.8090   9.9006  10.0015  10.0193  10.0388
    10.0505  10.1781  10.2392  10.3064  10.3121  10.4314  10.5696  10.5896
    10.6566  10.6822  10.6952  10.7442  10.8002  11.0330  11.2104  11.2355
    11.2581  11.3397  11.3557  11.4841  11.5380  11.6691  11.7454  11.7978
    11.9163  11.9985  12.0397  12.0835  12.1441  12.1962  12.2427  12.3080
    12.3909  12.4550  12.4961  12.5678  12.6134  12.6329  12.7126  12.7498
    12.8390  12.9194  13.0343  13.0424  13.1502  13.1760  13.2197  13.2198
    13.3128  13.3684  13.3887  13.4399  13.4597  13.4669  13.5312  13.5568
    13.5660  13.6352  13.6368  13.6417  13.6584  13.6824  13.7399  13.7566
    13.8776  13.9029  13.9233  13.9771  14.0497  14.0873  14.1649  14.2119
    14.3570  14.3704  14.4237  14.4593  14.5460  14.5946  14.6432  14.6636
    14.7464  14.7679  14.7809  14.8821  15.0425  15.0726  15.1006  15.2048
    15.2622  15.2946  15.3091  15.5622  15.5691  15.6618  15.7220  15.7319
    15.8459  15.9721  16.0021  16.0021  16.1263  16.1747  16.1795  16.2121
    16.2445  16.2606  16.4063  16.4746  16.5071  16.5429  16.5635  16.7339
    16.7344  16.7420  16.8139  16.8636  16.9582  17.0035  17.0669  17.1994
    17.2335  17.2670  17.2760  17.3458  17.4342  17.4667  17.5652  17.6121
    17.6226  17.6337  17.7166  17.8277  17.8354  17.9428  17.9932  18.1309
    18.2162  18.2867  18.3604  18.3653  18.3894  18.4637  18.4758  18.4772
    18.4963  18.5224  18.5535  18.5550  18.5701  18.5999  18.6043  18.6443
    18.6675  18.6836  18.6988  18.7259  18.7644  18.7938  18.8294  18.9019
    18.9152  18.9465  18.9488  18.9750  19.0446  19.0767  19.0946  19.1707
    19.2398  19.3019  19.3319  19.3620  19.4207  19.5211  19.5701  19.5827
    19.7151  19.7337  19.8080  19.8304  19.8990  19.9017  20.0450  20.0519
    20.1362  20.1523  20.1884  20.2241  20.2985  20.3024  20.3389  20.3645
    20.4048  20.4731  20.4907  20.5949  20.6039  20.6545  20.6898  20.7137
    20.7471  20.7501  20.7569  20.8128  20.8338  20.9101  20.9436  20.9719
    21.0053  21.0502  21.0762  21.0897  21.1464  21.1888  21.2053  21.2119
    21.3502  21.3723  21.4025  21.4074  21.4943  21.5334  21.5680  21.5736
    21.6645  21.7680  21.8004  21.8540  21.9318  21.9546  21.9595  21.9975
    22.0247  22.0545  22.0747  22.0964  22.1591  22.2133  22.2207  22.2925
    22.3266  22.3517  22.4501  22.4762  22.5227  22.5524  22.6411  22.6415
    22.6758  22.6794  22.7439  22.7970  22.8946  22.9484  22.9942  23.0198
    23.1278  23.1775  23.1915  23.2151  23.2717  23.3382  23.3420  23.3748
    23.3958  23.4367  23.4801  23.5176  23.5603  23.6513  23.7045  23.7366
    23.7547  23.7910  23.8019  23.8230  23.8437  23.8972  23.9001  23.9308
    23.9511  23.9571  23.9711  24.0157  24.0322  24.0839  24.0921  24.0975
    24.1384  24.1487  24.1789  24.2159  24.2307  24.2438  24.2917  24.3735
    24.3877  24.3966  24.4368  24.4393  24.4687  24.4886  24.5224  24.5847
    24.6119  24.6362  24.6794  24.7435  24.7754  24.7966  24.8472  24.8559
    24.8691  24.8937  24.9370  24.9466  24.9864  25.0219  25.0547  25.0585
    25.0950  25.1223  25.1270  25.1384  25.1396  25.2032  25.2293  25.2462
    25.3238  25.3726  25.4392  25.4890  25.5078  25.5375  25.5650  25.6141
    25.6263  25.6994  25.7366  25.7599  25.7981  25.8045  25.8724  25.9398
    25.9505  25.9911  26.0214  26.0678  26.1245  26.1256  26.1428  26.1896
    26.1995  26.2131  26.2489  26.2500  26.2581  26.2751  26.3146  26.3342
    26.3660  26.3694  26.4856  26.5140  26.5913  26.6573  26.6893  26.7776
    26.7994  26.8370  26.8697  26.8777  26.9376  26.9512  27.0232  27.0383
    27.0685  27.0846  27.1029  27.1182  27.2009  27.2526  27.2641  27.3000
    27.3208  27.3571  27.4046

          k = 0.0000 0.2488 0.0000 ( 43767 PWs)   bands (ev):

   -53.7386 -53.7233 -53.6908 -53.6680 -53.6415 -53.6357 -53.6075 -53.6063
   -53.5874 -53.5841 -53.5533 -53.5528 -53.5506 -53.5500 -53.5454 -53.5310
   -53.5207 -53.5098 -53.4640 -53.4321 -53.4282 -53.4208 -53.4164 -53.4084
   -53.4083 -53.4075 -53.4061 -53.3993 -53.3811 -53.3007 -53.3002 -53.2977
   -53.2931 -53.2719 -53.2642 -53.2604 -53.2041 -53.1961 -53.1888 -53.1513
   -53.1437 -52.9983 -52.9088 -52.9011 -52.7268 -52.7057 -52.7019 -52.5483
   -23.2835 -19.3658 -19.1015 -18.9155 -18.8708 -18.7994 -18.5634 -18.3394
   -18.3294 -18.3089 -18.2933 -18.2637 -18.2624 -18.2059 -18.1596 -18.1401
   -18.0422 -18.0102 -17.9690 -17.9473 -17.9113 -17.8842 -17.8376 -17.7538
   -17.7341 -17.6984 -17.6743 -17.6458 -17.5898 -16.7137 -16.5958 -16.5930
   -16.5213 -15.4302  -8.1027  -7.9518  -7.9191  -7.9096  -7.8557  -7.7748
    -7.6380  -7.1135  -7.1095  -7.0779  -7.0513  -6.9404  -6.9360  -6.9198
    -6.8828  -6.8676  -6.8499  -6.8250  -6.8019  -6.7810  -6.7787  -6.7764
    -6.7353  -6.7281  -6.6529  -6.6100  -6.5596  -6.4890  -6.4643  -6.4616
    -6.3082  -6.2614  -5.9701  -5.9537  -5.6233  -5.5629  -5.4572  -5.4308
    -5.3562  -5.2849  -5.0997  -4.9730  -4.8629  -4.8360  -4.8137  -4.7168
    -4.6949  -4.6860  -4.6718  -4.6350  -4.6161  -4.5860  -4.5485  -4.5400
    -4.5358  -4.5225  -4.4194  -4.3428  -4.1974  -4.1150  -4.1070  -4.0089
    -3.9486  -3.9115  -3.8485  -3.7902  -3.6924  -3.6873  -3.6230  -3.5663
    -3.4994  -3.4978  -3.4614  -3.2764  -3.2367  -3.2064  -3.1798  -3.0934
    -3.0521  -2.9012  -2.8739  -2.8625  -2.8517  -2.8347  -2.7243  -2.6116
    -2.5198  -2.5095  -2.4583  -2.4476  -2.3892  -2.2457  -2.2450  -2.2344
    -2.2166  -2.1634  -2.1134  -2.0947  -2.0718  -2.0541  -2.0147  -2.0061
    -1.9927  -1.9673  -1.9266  -1.8829  -1.8642  -1.8061  -1.8015  -1.7820
    -1.7006  -1.6934  -1.6892  -1.6611  -1.5941  -1.5368  -1.4967  -1.4741
    -1.4450  -1.3501  -1.3188  -1.3053  -1.3044  -1.2092  -1.1144  -1.0353
    -1.0294  -0.8683  -0.7636  -0.6737  -0.6705  -0.5547  -0.4634  -0.2697
     0.1458   0.2127   0.2598   0.3589   0.3923   0.4433   0.4692   0.4889
     0.5382   0.5929   0.6460   0.6806   0.6807   0.7658   0.7680   0.8493
     0.8571   0.8944   0.9494   0.9747   1.0324   1.1963   1.2233   1.3440
     1.6488   2.0650   2.2390   2.3224   2.5223   2.6367   2.9366   3.3775
     3.4583   3.4691   3.5171   3.5633   3.5661   3.5804   3.6084   3.6497
     3.6794   3.6811   3.6920   3.7828   4.0238   4.0927   4.3860   5.1292
     5.2446   5.5144   6.2465   6.2806   6.6441   6.9524   7.0497   7.4669
     7.5633   7.6638   7.7905   7.9154   7.9571   8.1092   8.3511   8.3701
     8.5498   8.6888   8.8124   9.0449   9.0853   9.1376   9.1474   9.3361
     9.3747   9.6065   9.6266   9.6619   9.7586   9.7923   9.8033   9.8332
     9.8871   9.9072   9.9301   9.9810  10.0436  10.1197  10.1596  10.2157
    10.2605  10.3621  10.3955  10.4916  10.5334  10.5446  10.5954  10.6951
    10.7312  10.7839  10.8218  10.8869  11.0229  11.0372  11.1122  11.1622
    11.2305  11.3095  11.3952  11.4663  11.5405  11.5968  11.5975  11.7068
    11.7152  11.7647  11.8504  11.9391  12.0306  12.0385  12.1034  12.1718
    12.1895  12.2663  12.3339  12.3920  12.5082  12.5417  12.5956  12.6156
    12.7191  12.8036  12.8235  13.0138  13.0534  13.2447  13.2973  13.3253
    13.3404  13.3994  13.4711  13.4818  13.5545  13.5880  13.6608  13.7239
    13.7399  13.7605  13.8408  13.9288  13.9972  14.0593  14.1238  14.1312
    14.1827  14.2625  14.2831  14.3319  14.4088  14.4467  14.4553  14.5088
    14.5729  14.6147  14.6403  14.7080  14.7115  14.8490  14.8999  14.9157
    14.9948  15.1057  15.1478  15.1503  15.2287  15.3053  15.3629  15.3636
    15.4201  15.5540  15.5921  15.6596  15.6721  15.7318  15.8488  15.8603
    15.9018  15.9842  16.0672  16.0764  16.1659  16.1832  16.2120  16.3387
    16.3790  16.4458  16.4868  16.5284  16.5522  16.6208  16.7836  16.8220
    16.8949  16.9016  17.0045  17.0218  17.1369  17.1824  17.2342  17.2379
    17.3129  17.3709  17.3929  17.4181  17.4512  17.4815  17.5061  17.5379
    17.5630  17.6092  17.6407  17.6994  17.7646  17.8090  17.9051  17.9189
    18.0007  18.0223  18.0610  18.1249  18.1401  18.1921  18.2326  18.3257
    18.3406  18.4116  18.4451  18.4876  18.5256  18.5439  18.5517  18.5546
    18.5649  18.6021  18.6024  18.6159  18.6250  18.6579  18.6796  18.6958
    18.7455  18.7698  18.8035  18.8440  18.8466  18.8555  18.8843  18.9281
    18.9583  19.0092  19.0447  19.1280  19.2050  19.2290  19.2872  19.3037
    19.4027  19.4411  19.4756  19.4927  19.5357  19.6395  19.7247  19.7298
    19.8314  19.8551  19.9194  19.9858  20.0383  20.0581  20.1556  20.1771
    20.1794  20.2624  20.2938  20.4047  20.4067  20.4420  20.4646  20.4950
    20.5395  20.5518  20.6429  20.6557  20.7020  20.7101  20.7730  20.8011
    20.8511  20.8597  20.8863  20.8888  20.9618  20.9686  20.9879  21.0279
    21.0737  21.1202  21.1501  21.2133  21.2834  21.2840  21.2968  21.3770
    21.3828  21.4762  21.5028  21.5554  21.5921  21.6892  21.7147  21.7693
    21.7747  21.8313  21.8494  21.9395  21.9552  21.9796  22.0283  22.0711
    22.0762  22.1516  22.2011  22.2197  22.2691  22.3132  22.3478  22.3699
    22.3875  22.4464  22.5035  22.5313  22.5653  22.5912  22.6278  22.6798
    22.7553  22.7629  22.8145  22.8277  22.8706  22.9284  22.9790  22.9985
    23.0034  23.1345  23.1478  23.1783  23.2327  23.2414  23.2666  23.3127
    23.3161  23.3905  23.4110  23.4238  23.5636  23.6533  23.6752  23.7305
    23.7522  23.7768  23.8407  23.8704  23.9305  23.9682  24.0107  24.0613
    24.1205  24.1706  24.1932  24.2167  24.2244  24.2673  24.3403  24.3890
    24.3931  24.4696  24.5130  24.5167  24.5806  24.5950  24.6368  24.6501
    24.7032  24.7130  24.8321  24.8826  24.9266  24.9540  24.9688  24.9960
    25.0179  25.0888  25.1177  25.1501  25.2064  25.2111  25.2752  25.3277
    25.3540  25.4169  25.4260  25.4709  25.5316  25.5448  25.5566  25.6386
    25.6413  25.7107  25.7284  25.7847  25.8187  25.8872  25.9256  25.9647
    26.0198  26.0348  26.0500  26.1043  26.1235  26.2375  26.2771  26.3146
    26.3149  26.3757  26.3814  26.4387  26.4531  26.4669  26.4775  26.5381
    26.5429  26.5727  26.6023  26.6300  26.6604  26.7004  26.7597  26.7600
    26.7949  26.8617  26.8999  26.9243  27.0020  27.0065  27.0327  27.0577
    27.0870  27.1423  27.1506  27.2379  27.2394  27.2597  27.2869  27.3619
    27.3643  27.4291  27.4635  27.4924  27.5211  27.5512  27.5527  27.5815
    27.6378  27.6679  27.7110

          k = 0.0000-0.4976 0.0000 ( 43712 PWs)   bands (ev):

   -53.7386 -53.7233 -53.6908 -53.6680 -53.6415 -53.6357 -53.6075 -53.6063
   -53.5874 -53.5841 -53.5533 -53.5528 -53.5506 -53.5501 -53.5454 -53.5310
   -53.5207 -53.5098 -53.4641 -53.4316 -53.4282 -53.4168 -53.4160 -53.4096
   -53.4084 -53.4083 -53.4060 -53.4012 -53.3816 -53.3012 -53.3002 -53.2977
   -53.2931 -53.2719 -53.2642 -53.2603 -53.2041 -53.1961 -53.1888 -53.1513
   -53.1437 -52.9982 -52.9089 -52.9011 -52.7268 -52.7057 -52.7019 -52.5483
   -23.2833 -19.1353 -19.1035 -18.8493 -18.7827 -18.6387 -18.6062 -18.4420
   -18.3869 -18.3514 -18.3316 -18.3147 -18.3063 -18.2042 -18.1619 -18.1392
   -18.0433 -17.9803 -17.9321 -17.9265 -17.9166 -17.8883 -17.8633 -17.8424
   -17.8091 -17.8069 -17.7394 -17.6758 -17.6575 -16.7142 -16.5926 -16.5863
   -16.5179 -15.4278  -8.0985  -7.9350  -7.7577  -7.2733  -7.2671  -7.1794
    -7.1672  -7.1240  -7.1074  -7.0661  -7.0345  -7.0259  -6.9999  -6.9153
    -6.8634  -6.8374  -6.8274  -6.8150  -6.8113  -6.7879  -6.7257  -6.7074
    -6.7025  -6.6883  -6.6692  -6.5889  -6.4861  -6.4594  -6.4508  -6.4326
    -6.3899  -6.2644  -5.9439  -5.7136  -5.6204  -5.6053  -5.5754  -5.5558
    -5.5414  -5.4989  -5.4001  -5.3865  -5.1019  -4.9312  -4.8672  -4.7609
    -4.7519  -4.7059  -4.6794  -4.6573  -4.6550  -4.6094  -4.5463  -4.5304
    -4.3694  -4.3351  -4.3110  -4.2703  -4.2535  -4.2171  -4.2020  -4.2002
    -4.1965  -4.1506  -4.0554  -3.9730  -3.8791  -3.8392  -3.8213  -3.7079
    -3.6967  -3.6644  -3.6177  -3.5189  -3.4548  -3.3075  -3.2951  -3.1990
    -3.1522  -2.8960  -2.8834  -2.8504  -2.8151  -2.6032  -2.5840  -2.5590
    -2.5239  -2.4908  -2.4770  -2.4128  -2.3174  -2.2947  -2.2399  -2.2194
    -2.1996  -2.1623  -2.0974  -2.0787  -2.0641  -2.0479  -2.0201  -1.9942
    -1.9601  -1.9131  -1.8776  -1.8068  -1.8045  -1.7718  -1.6875  -1.6782
    -1.6658  -1.6084  -1.5717  -1.5451  -1.5335  -1.5133  -1.4941  -1.4353
    -1.4079  -1.3807  -1.3104  -1.2837  -1.2690  -1.2509  -1.1740  -1.1701
    -1.1693  -0.8228  -0.7704  -0.7012  -0.6204  -0.5567  -0.3177  -0.2739
    -0.0898  -0.0446   0.2474   0.3022   0.3053   0.3178   0.3645   0.4645
     0.4844   0.5225   0.5555   0.6070   0.6239   0.7025   0.7327   0.7731
     0.8421   0.8489   0.8547   0.9018   0.9280   0.9398   1.2854   1.3798
     1.8751   2.3345   2.3357   2.3634   2.8147   3.2204   3.2454   3.2820
     3.2830   3.3643   3.4503   3.5650   3.6097   3.7462   3.7550   3.8041
     3.8210   3.9736   4.0243   4.0704   4.0931   4.1078   4.1829   5.5335
     5.6470   6.0260   6.4902   6.7009   6.7544   6.8918   7.0004   7.1881
     7.2183   7.4039   7.5361   7.5720   7.7344   7.7771   7.8392   8.1083
     8.3456   8.4290   8.4898   8.7406   9.0260   9.1381   9.1914   9.4595
     9.4641   9.5093   9.5402   9.7568   9.8869   9.8878   9.9759  10.0074
    10.0434  10.0888  10.1111  10.1619  10.2604  10.2920  10.3405  10.3976
    10.4567  10.5152  10.5344  10.5453  10.5657  10.5810  10.5913  10.6471
    10.6907  10.7281  10.7774  10.7974  10.8814  10.9171  10.9318  10.9708
    10.9893  11.0139  11.0738  11.1242  11.1848  11.3741  11.4193  11.4583
    11.5854  11.5866  11.7247  11.7816  11.8262  12.0154  12.1727  12.2300
    12.2858  12.2985  12.3996  12.5392  12.6228  12.7340  12.8028  12.8985
    12.9793  13.1134  13.1858  13.2979  13.3444  13.3949  13.4299  13.4838
    13.4956  13.5273  13.5645  13.5830  13.6261  13.7762  13.7907  13.9365
    13.9861  14.0114  14.0705  14.0947  14.1790  14.2402  14.3373  14.3459
    14.3745  14.4385  14.4422  14.4596  14.5310  14.5565  14.5636  14.5788
    14.5973  14.6831  14.6869  14.7413  14.8438  14.9258  15.0786  15.1837
    15.2224  15.2337  15.3067  15.3110  15.4146  15.5060  15.5621  15.6208
    15.6492  15.7280  15.8026  15.8504  15.8858  15.8989  15.9559  15.9603
    15.9682  16.0473  16.1290  16.2140  16.2407  16.2703  16.3332  16.3560
    16.4676  16.5467  16.5803  16.6451  16.7238  16.7909  16.8455  16.8684
    16.9563  16.9941  17.0752  17.1867  17.2503  17.2721  17.2861  17.3201
    17.3569  17.3652  17.3860  17.4042  17.4529  17.4959  17.5497  17.6082
    17.6743  17.6845  17.7261  17.7366  17.7436  17.7723  17.9537  18.0012
    18.0033  18.0357  18.0579  18.0902  18.1039  18.1292  18.1937  18.1990
    18.2220  18.2441  18.3159  18.3756  18.3968  18.4315  18.4632  18.4939
    18.5010  18.5142  18.5332  18.5399  18.5706  18.5782  18.5940  18.6101
    18.6106  18.6369  18.6563  18.6684  18.6751  18.7061  18.7588  18.7755
    18.7909  18.8424  18.8695  18.8925  18.9374  18.9476  19.0061  19.0763
    19.1678  19.1863  19.2244  19.2340  19.2692  19.2969  19.2980  19.3595
    19.4150  19.4420  19.4504  19.4788  19.5257  19.5583  19.5968  19.7950
    19.8709  19.9108  19.9609  19.9749  20.0904  20.1132  20.1472  20.1635
    20.2059  20.2550  20.2959  20.3198  20.3945  20.4279  20.4551  20.4881
    20.5289  20.5941  20.6041  20.6385  20.7281  20.7816  20.9195  20.9720
    20.9770  20.9942  21.0446  21.0805  21.1016  21.1179  21.1465  21.2298
    21.2398  21.3710  21.3732  21.4073  21.4399  21.4972  21.5485  21.5769
    21.5791  21.6135  21.6304  21.6846  21.7112  21.7299  21.8521  21.8609
    21.8874  21.9406  21.9668  21.9757  21.9924  22.0372  22.0673  22.1303
    22.1365  22.1387  22.2401  22.3193  22.3463  22.3889  22.4357  22.4936
    22.4956  22.5514  22.6275  22.6639  22.6675  22.6962  22.7210  22.7923
    22.8126  22.8892  22.9221  22.9565  22.9879  23.0426  23.1309  23.1791
    23.1970  23.2234  23.2325  23.2504  23.3343  23.3361  23.4018  23.4583
    23.4935  23.5166  23.5786  23.6349  23.7254  23.8051  23.9081  24.0365
    24.1138  24.1479  24.1619  24.2309  24.2765  24.2872  24.3106  24.3657
    24.4033  24.4748  24.5364  24.5724  24.6021  24.6504  24.6790  24.7236
    24.7387  24.8106  24.8268  24.8649  24.8757  24.9102  24.9854  25.0452
    25.0543  25.2294  25.2702  25.2791  25.2965  25.3615  25.4216  25.4730
    25.4872  25.6367  25.6736  25.6754  25.7655  25.8116  25.8154  25.8322
    25.9452  25.9524  26.0250  26.0486  26.0643  26.1558  26.1700  26.1852
    26.2156  26.2457  26.2581  26.2710  26.3619  26.3747  26.3929  26.3962
    26.4322  26.4788  26.4902  26.5089  26.5279  26.6137  26.6953  26.7708
    26.7884  26.8279  26.9201  26.9723  26.9776  27.0397  27.1048  27.1053
    27.1096  27.2342  27.2645  27.3792  27.4359  27.4651  27.5137  27.5622
    27.5866  27.6476  27.6875  27.7051  27.7688  27.7715  27.8110  27.8448
    27.9313  27.9991  28.0374  28.0557  28.0737  28.1693  28.2138  28.2664
    28.2876  28.2939  28.3146

          k = 0.2500 0.0000 0.0000 ( 43773 PWs)   bands (ev):

   -53.7381 -53.7153 -53.6829 -53.6760 -53.6436 -53.6336 -53.5995 -53.5983
   -53.5954 -53.5841 -53.5608 -53.5588 -53.5529 -53.5505 -53.5451 -53.5311
   -53.5205 -53.5099 -53.4558 -53.4321 -53.4288 -53.4222 -53.4165 -53.4157
   -53.4104 -53.4098 -53.4041 -53.3972 -53.3806 -53.2999 -53.2992 -53.2981
   -53.2942 -53.2708 -53.2654 -53.2523 -53.2124 -53.1950 -53.1899 -53.1502
   -53.1448 -52.9988 -52.9076 -52.9022 -52.7267 -52.7052 -52.7023 -52.5484
   -23.2836 -19.3458 -19.1003 -18.9134 -18.8128 -18.7187 -18.6060 -18.4651
   -18.4304 -18.3637 -18.2845 -18.2633 -18.2004 -18.1489 -18.1408 -18.1110
   -18.0328 -17.9939 -17.9538 -17.9308 -17.9112 -17.8485 -17.8256 -17.7856
   -17.7278 -17.6960 -17.6535 -17.5985 -17.5469 -16.7375 -16.6543 -16.6210
   -16.5670 -15.4320  -8.2231  -8.2158  -8.1829  -8.0179  -7.9018  -7.7848
    -7.7318  -7.2944  -7.2360  -7.2152  -7.0840  -7.0096  -6.9558  -6.9330
    -6.9229  -6.8631  -6.8567  -6.8211  -6.7489  -6.7361  -6.6672  -6.6480
    -6.6087  -6.5315  -6.4851  -6.4208  -6.3245  -6.2721  -6.1453  -6.1161
    -6.0901  -6.0730  -6.0144  -6.0060  -5.9489  -5.8966  -5.8418  -5.7309
    -5.6796  -5.4601  -5.3741  -5.3403  -5.0944  -4.9988  -4.8166  -4.7209
    -4.7140  -4.6844  -4.6239  -4.5687  -4.4778  -4.4702  -4.4177  -4.3861
    -4.3404  -4.2564  -4.1584  -4.1521  -4.0505  -4.0123  -3.9967  -3.9226
    -3.9001  -3.8578  -3.8428  -3.7487  -3.7245  -3.6639  -3.6465  -3.6101
    -3.4888  -3.4525  -3.4160  -3.3695  -3.3422  -3.2680  -3.2542  -3.1761
    -3.1097  -3.0683  -3.0419  -3.0112  -3.0051  -2.9800  -2.9534  -2.9164
    -2.8596  -2.8199  -2.6793  -2.6561  -2.4538  -2.4168  -2.3800  -2.3540
    -2.3446  -2.3266  -2.1826  -2.1501  -2.1421  -2.1030  -2.0967  -2.0818
    -2.0580  -1.9303  -1.8754  -1.8685  -1.8319  -1.7653  -1.7507  -1.7367
    -1.5780  -1.5158  -1.4671  -1.4466  -1.3598  -1.2694  -1.2264  -1.1832
    -1.1510  -1.1112  -1.0702  -1.0467  -0.9991  -0.8693  -0.6866  -0.5604
    -0.4288  -0.3830  -0.3633  -0.3335  -0.3015  -0.2608  -0.2578  -0.1919
    -0.1509  -0.0629   0.0417   0.0700   0.0864   0.2150   0.3391   0.4567
     0.5057   0.5753   0.5875   0.6001   0.6173   0.6848   0.7965   0.8081
     0.8280   1.0278   1.1942   1.4309   1.5754   1.8508   1.9794   1.9920
     2.0782   2.1760   2.1925   2.2965   2.3435   2.4050   2.4760   2.6448
     2.7703   2.8212   2.8467   2.9733   3.2288   3.3132   3.3351   3.3671
     3.5162   3.5659   3.5964   3.6276   3.6692   3.8023   4.3428   5.2367
     5.3428   5.5917   6.2674   6.3581   6.6639   7.0436   7.0563   7.1387
     7.2508   7.7203   7.7845   8.0802   8.1229   8.4119   8.5215   8.5247
     8.7336   8.7707   8.9114   8.9747   9.1301   9.1649   9.3161   9.3502
     9.4030   9.4670   9.4801   9.5853   9.7291   9.7499   9.7863   9.8330
     9.9189   9.9746   9.9914  10.0281  10.0368  10.1885  10.2087  10.2915
    10.3463  10.4440  10.4697  10.5394  10.5920  10.6273  10.7696  10.8506
    10.8733  10.9136  10.9381  10.9867  11.0441  11.0981  11.1294  11.2557
    11.3750  11.4482  11.4990  11.5251  11.5736  11.6118  11.6836  11.7035
    11.7496  11.8107  11.9233  11.9966  12.0274  12.0779  12.0911  12.1086
    12.1368  12.2343  12.3496  12.4095  12.4700  12.5415  12.6012  12.6551
    12.6913  12.7941  12.8073  12.8372  12.8903  12.9498  13.1018  13.1061
    13.1566  13.3125  13.3643  13.4120  13.4577  13.4763  13.5300  13.5614
    13.6082  13.7317  13.7501  13.7630  13.7804  13.8310  13.9248  13.9683
    13.9906  14.0323  14.1595  14.2456  14.3889  14.4300  14.5254  14.5781
    14.6619  14.6894  14.7457  14.8049  14.8118  14.9242  14.9581  14.9909
    15.0434  15.1237  15.1710  15.2172  15.3410  15.3592  15.3812  15.4567
    15.5120  15.5403  15.5505  15.6183  15.7551  15.7731  15.8157  15.8312
    15.8830  15.9250  15.9902  16.0052  16.0321  16.0483  16.1285  16.1620
    16.1709  16.2428  16.2500  16.2666  16.2988  16.3358  16.4213  16.4996
    16.5535  16.6195  16.6717  16.7353  16.7608  16.7995  16.8271  16.9042
    16.9943  17.0878  17.1424  17.1955  17.2493  17.2725  17.4023  17.4292
    17.4630  17.5291  17.5688  17.6048  17.6634  17.6970  17.7778  17.8058
    17.8939  17.9166  17.9700  18.0491  18.2185  18.2301  18.3250  18.3841
    18.4775  18.5220  18.5537  18.5607  18.5664  18.5729  18.5843  18.5961
    18.6209  18.6227  18.6577  18.6663  18.7203  18.7468  18.7608  18.7794
    18.8412  18.8794  18.8861  18.9048  18.9437  18.9850  19.0658  19.1301
    19.1674  19.2047  19.2878  19.3134  19.3336  19.3719  19.4346  19.4827
    19.5890  19.6206  19.6487  19.7406  19.8961  19.9832  20.0445  20.0743
    20.1004  20.1119  20.1422  20.2166  20.2863  20.3272  20.3509  20.3790
    20.4430  20.4458  20.4664  20.4830  20.5144  20.5441  20.5905  20.6279
    20.6825  20.7293  20.7483  20.7877  20.7980  20.8531  20.9053  20.9446
    20.9799  21.0011  21.0637  21.0730  21.1591  21.1853  21.2252  21.2972
    21.3299  21.3575  21.3830  21.4023  21.4155  21.4598  21.4882  21.5194
    21.5579  21.5937  21.6764  21.7072  21.7590  21.7999  21.8275  21.8603
    21.9017  21.9150  21.9347  21.9930  22.0301  22.0348  22.0819  22.1195
    22.1335  22.1753  22.2029  22.2427  22.2618  22.2951  22.3149  22.3273
    22.3591  22.4192  22.4578  22.5000  22.5146  22.5666  22.6080  22.6352
    22.6775  22.7009  22.7257  22.7565  22.7892  22.8672  22.9024  22.9144
    22.9659  23.0089  23.0285  23.1234  23.1764  23.2075  23.2448  23.2875
    23.3311  23.3657  23.3940  23.4445  23.4793  23.5294  23.5566  23.5902
    23.6259  23.6569  23.7554  23.8028  23.8660  23.9064  23.9240  24.0048
    24.0273  24.1032  24.1179  24.1950  24.2243  24.2716  24.3160  24.3700
    24.3909  24.4212  24.4831  24.5242  24.5880  24.5977  24.6536  24.7142
    24.7833  24.8432  24.8880  24.9197  24.9612  24.9952  25.0174  25.0624
    25.1190  25.1604  25.1730  25.2157  25.2789  25.3065  25.3259  25.3783
    25.4250  25.4377  25.4878  25.5227  25.5591  25.6086  25.6452  25.6601
    25.6860  25.7192  25.7387  25.7893  25.8361  25.8835  25.9229  25.9747
    26.0064  26.0852  26.1007  26.1341  26.1435  26.1756  26.2181  26.2289
    26.2542  26.3107  26.3300  26.3613  26.3837  26.4203  26.4942  26.5628
    26.5803  26.5979  26.6112  26.6715  26.7106  26.7227  26.7342  26.7656
    26.8098  26.8273  26.8873  26.9240  26.9651  26.9785  27.0057  27.0213
    27.0337  27.0402  27.0863  27.1265  27.1525  27.1732  27.2552  27.2682
    27.2770  27.3377  27.3647  27.3797  27.4255  27.4439  27.4711  27.5004
    27.5509  27.5747  27.6028

          k = 0.2500 0.2488 0.0000 ( 43747 PWs)   bands (ev):

   -53.7381 -53.7153 -53.6829 -53.6760 -53.6436 -53.6336 -53.5995 -53.5983
   -53.5954 -53.5841 -53.5608 -53.5588 -53.5529 -53.5505 -53.5451 -53.5311
   -53.5205 -53.5099 -53.4559 -53.4316 -53.4288 -53.4198 -53.4172 -53.4146
   -53.4096 -53.4093 -53.4055 -53.3991 -53.3811 -53.3003 -53.2992 -53.2982
   -53.2942 -53.2708 -53.2654 -53.2522 -53.2123 -53.1950 -53.1899 -53.1502
   -53.1448 -52.9988 -52.9077 -52.9022 -52.7268 -52.7052 -52.7023 -52.5483
   -23.2834 -19.2436 -18.9893 -18.8114 -18.7712 -18.7002 -18.5574 -18.4719
   -18.4149 -18.3202 -18.3094 -18.2438 -18.2261 -18.1884 -18.1540 -18.1354
   -18.0370 -18.0232 -17.9781 -17.9629 -17.9178 -17.8925 -17.8441 -17.8125
   -17.7919 -17.7586 -17.7329 -17.7083 -17.6448 -16.7379 -16.6445 -16.6210
   -16.5634 -15.4295  -8.0085  -7.7978  -7.7788  -7.7697  -7.7312  -7.7226
    -7.4991  -7.1860  -7.1270  -7.0781  -7.0625  -6.9497  -6.9306  -6.8632
    -6.8452  -6.8408  -6.8170  -6.7825  -6.7447  -6.7073  -6.6784  -6.6637
    -6.6386  -6.5961  -6.5752  -6.4891  -6.4748  -6.3676  -6.2159  -6.1438
    -6.1012  -6.0876  -5.9979  -5.8675  -5.8203  -5.7690  -5.6687  -5.5538
    -5.5247  -5.4938  -5.3982  -5.3577  -5.1855  -4.8896  -4.8454  -4.7527
    -4.7185  -4.7020  -4.6604  -4.6185  -4.5272  -4.5148  -4.4980  -4.4590
    -4.4235  -4.4040  -4.3668  -4.2778  -4.2658  -4.2379  -4.2279  -4.2143
    -4.1752  -4.1270  -4.0872  -4.0280  -3.9999  -3.9207  -3.8217  -3.7730
    -3.7493  -3.6388  -3.5812  -3.5705  -3.5609  -3.4703  -3.4242  -3.3162
    -3.2970  -3.2818  -3.1415  -2.9708  -2.9351  -2.8424  -2.8232  -2.7983
    -2.7566  -2.7229  -2.6156  -2.4947  -2.4353  -2.3966  -2.3789  -2.3426
    -2.3189  -2.2489  -2.2140  -2.1781  -2.1711  -1.9273  -1.9173  -1.8843
    -1.8506  -1.7997  -1.6474  -1.6229  -1.5981  -1.5645  -1.5154  -1.4719
    -1.4310  -1.3862  -1.3678  -1.3124  -1.2838  -1.2488  -1.2319  -1.1938
    -1.1681  -1.1528  -1.1336  -1.0686  -1.0349  -0.9859  -0.9494  -0.8807
    -0.8282  -0.6746  -0.6217  -0.4387  -0.3410  -0.3116  -0.2339  -0.1808
     0.0300   0.1223   0.1836   0.2189   0.2821   0.3456   0.3600   0.3935
     0.4314   0.4581   0.5895   0.6370   0.6476   0.7240   0.7418   0.7686
     0.8412   0.9477   1.1614   1.2181   1.3431   1.3905   1.5050   1.5447
     1.7915   2.1559   2.3539   2.4191   2.5488   2.6177   2.7857   2.9099
     2.9982   3.1783   3.2120   3.2359   3.2774   3.3867   3.4082   3.5393
     3.5813   3.5871   3.6129   3.7392   3.7910   3.8333   4.3168   5.4269
     5.5070   5.8322   6.4621   6.5370   6.8364   7.0837   7.1444   7.2653
     7.3884   7.7243   7.9167   7.9650   8.1536   8.1837   8.2918   8.3290
     8.4270   8.5905   8.6420   8.7229   8.7803   8.9107   8.9649   9.0566
     9.1721   9.2592   9.3662   9.4647   9.4833   9.5398   9.6525   9.7614
     9.9111   9.9971  10.0390  10.0697  10.0921  10.1364  10.1807  10.2575
    10.3307  10.3855  10.4050  10.4228  10.5049  10.6203  10.7231  10.7525
    10.7994  10.8636  10.8969  10.9366  11.0433  11.0838  11.1714  11.2653
    11.3192  11.4620  11.4693  11.5252  11.5886  11.7553  11.7930  11.8571
    11.8997  11.9869  12.0563  12.1065  12.1487  12.2007  12.2292  12.3398
    12.3889  12.4347  12.4840  12.5599  12.6862  12.7337  12.8210  12.8480
    12.9888  13.0787  13.1259  13.1703  13.2539  13.3038  13.3603  13.4523
    13.4834  13.5137  13.5598  13.6220  13.6482  13.6826  13.7666  13.8210
    13.9054  13.9371  13.9879  14.0296  14.0663  14.1226  14.1710  14.2182
    14.2726  14.3106  14.3402  14.3798  14.4360  14.4904  14.5280  14.5891
    14.6277  14.6985  14.7151  14.7704  14.7945  14.8419  14.8730  14.9467
    14.9691  15.0012  15.0479  15.1027  15.1744  15.2290  15.2844  15.3303
    15.3915  15.4672  15.5125  15.5601  15.6509  15.7090  15.7402  15.8339
    15.9392  15.9792  16.0666  16.0893  16.1479  16.1972  16.2495  16.2986
    16.3622  16.3807  16.4498  16.4841  16.5805  16.6350  16.6684  16.7440
    16.7893  16.8462  16.8997  16.9324  17.0215  17.0889  17.1024  17.1403
    17.1653  17.1816  17.2331  17.2653  17.2956  17.3349  17.3769  17.4209
    17.4769  17.5274  17.5651  17.6092  17.6580  17.6859  17.7382  17.7935
    17.8318  17.9062  17.9684  18.0105  18.0890  18.1173  18.2073  18.2415
    18.2792  18.3276  18.3492  18.3807  18.4101  18.4652  18.5109  18.5292
    18.5474  18.5582  18.5787  18.5900  18.6103  18.6133  18.6296  18.6679
    18.7017  18.7271  18.7529  18.7573  18.8251  18.8790  18.8835  18.9065
    18.9326  18.9500  18.9591  18.9846  19.0118  19.0691  19.1365  19.1989
    19.2224  19.2619  19.2861  19.3242  19.3500  19.3771  19.3963  19.4406
    19.4935  19.5176  19.5395  19.5869  19.6335  19.6528  19.7369  19.7672
    19.8385  19.8532  19.9681  20.0355  20.0982  20.1182  20.1411  20.2094
    20.2592  20.3063  20.3200  20.3762  20.4029  20.4688  20.5054  20.5169
    20.6081  20.6248  20.6715  20.7386  20.7961  20.8107  20.8786  20.9340
    20.9665  20.9851  21.0500  21.1174  21.1414  21.2067  21.2134  21.3058
    21.4118  21.4360  21.4700  21.5167  21.5564  21.6212  21.6613  21.7453
    21.8055  21.8609  21.8734  21.9358  22.0430  22.1092  22.1338  22.2010
    22.2219  22.2800  22.3047  22.3555  22.3956  22.4198  22.4438  22.5051
    22.5422  22.5518  22.5698  22.6276  22.6558  22.6858  22.7341  22.7474
    22.8200  22.8618  22.8936  22.9238  22.9533  22.9782  23.0387  23.0570
    23.1555  23.1614  23.2325  23.2627  23.3509  23.3661  23.3963  23.4272
    23.4811  23.4986  23.5178  23.6268  23.6374  23.6813  23.7594  23.8020
    23.8259  23.8782  23.9506  23.9735  24.0382  24.0744  24.1377  24.1988
    24.2331  24.2520  24.3112  24.3368  24.3788  24.4323  24.4527  24.5142
    24.5494  24.5694  24.6203  24.6667  24.6838  24.7019  24.7851  24.7959
    24.8196  24.8609  24.9022  24.9185  25.0112  25.0392  25.0511  25.0814
    25.1182  25.1920  25.2258  25.2361  25.3039  25.3531  25.3948  25.4446
    25.4986  25.5006  25.5611  25.5748  25.5867  25.6383  25.6588  25.6789
    25.6865  25.7339  25.7584  25.7818  25.8486  25.8907  25.9454  25.9902
    26.0066  26.0448  26.0908  26.1096  26.1867  26.2082  26.2385  26.2855
    26.3094  26.3487  26.3627  26.3980  26.4400  26.4854  26.5438  26.5618
    26.5869  26.6516  26.6711  26.6976  26.7055  26.7432  26.7631  26.7911
    26.8333  26.8578  26.9066  26.9541  26.9716  27.0243  27.0368  27.0696
    27.0961  27.1297  27.1860  27.2145  27.2520  27.2755  27.3275  27.3454
    27.3709  27.3992  27.4552  27.5023  27.5229  27.6044  27.6396  27.7015
    27.7151  27.7740  27.7907

          k = 0.2500-0.4976 0.0000 ( 43762 PWs)   bands (ev):

   -53.7381 -53.7154 -53.6830 -53.6760 -53.6436 -53.6337 -53.5996 -53.5984
   -53.5954 -53.5841 -53.5608 -53.5589 -53.5528 -53.5506 -53.5451 -53.5311
   -53.5205 -53.5099 -53.4561 -53.4311 -53.4287 -53.4175 -53.4164 -53.4139
   -53.4094 -53.4091 -53.4066 -53.4016 -53.3816 -53.3007 -53.2992 -53.2982
   -53.2942 -53.2708 -53.2654 -53.2521 -53.2123 -53.1950 -53.1899 -53.1502
   -53.1448 -52.9988 -52.9078 -52.9023 -52.7268 -52.7052 -52.7023 -52.5483
   -23.2833 -19.0244 -18.9896 -18.7426 -18.6802 -18.5420 -18.5114 -18.4601
   -18.3974 -18.3717 -18.3242 -18.3072 -18.2478 -18.2421 -18.1597 -18.1164
   -18.0734 -18.0437 -18.0243 -17.9895 -17.9650 -17.9245 -17.9143 -17.8670
   -17.8582 -17.8494 -17.7952 -17.7339 -17.7109 -16.7385 -16.6368 -16.6209
   -16.5605 -15.4270  -8.0040  -7.7872  -7.7229  -7.1039  -7.0237  -6.9707
    -6.9653  -6.9581  -6.9433  -6.9180  -6.8946  -6.8731  -6.8646  -6.8458
    -6.8442  -6.8323  -6.8287  -6.7807  -6.7629  -6.7583  -6.7417  -6.7125
    -6.7121  -6.6884  -6.6707  -6.5933  -6.4583  -6.3659  -6.2617  -6.1580
    -6.1422  -6.1032  -6.0959  -5.8901  -5.6623  -5.6310  -5.4945  -5.4088
    -5.3827  -5.3499  -5.3044  -5.2995  -5.2774  -5.2685  -5.2531  -5.2044
    -5.1784  -5.0260  -5.0072  -4.9511  -4.8760  -4.8518  -4.8436  -4.5795
    -4.5185  -4.4608  -4.4084  -4.4066  -4.3607  -4.3175  -4.2929  -4.2689
    -4.2284  -4.1812  -4.1514  -4.1119  -4.0726  -3.9923  -3.9674  -3.9221
    -3.8440  -3.7536  -3.7082  -3.6605  -3.6265  -3.5551  -3.4935  -3.4747
    -3.4516  -3.3241  -3.2937  -2.8916  -2.8523  -2.7646  -2.7404  -2.6897
    -2.6682  -2.5872  -2.5124  -2.4592  -2.4311  -2.2953  -2.2493  -2.1988
    -2.1744  -2.1498  -2.1424  -2.0645  -1.9605  -1.9450  -1.8859  -1.8059
    -1.7644  -1.7447  -1.6889  -1.6398  -1.5824  -1.5792  -1.5655  -1.5296
    -1.4648  -1.4567  -1.3827  -1.3261  -1.3145  -1.2422  -1.2225  -1.1809
    -1.1616  -1.1444  -1.0297  -0.9575  -0.9197  -0.9144  -0.8718  -0.8705
    -0.6787  -0.5541  -0.5226  -0.4565  -0.3871  -0.3607  -0.2604  -0.2454
    -0.1069  -0.0523   0.1867   0.2348   0.2441   0.2965   0.3526   0.3840
     0.5173   0.5604   0.6004   0.6151   0.6213   0.6446   0.6766   0.7297
     0.7349   0.8413   0.8623   0.9756   1.0179   1.0912   1.4673   1.5710
     2.0400   2.3544   2.3694   2.4314   2.6160   2.6470   2.7139   2.7409
     2.8056   3.2458   3.2603   3.4612   3.5467   3.5527   3.5875   3.6341
     3.6410   3.8898   3.9237   3.9246   4.0004   4.0173   4.0806   5.6695
     5.8567   6.2500   6.7412   7.0110   7.0876   7.1078   7.2199   7.2405
     7.4102   7.4532   7.6005   7.6343   7.8559   7.9491   8.0367   8.0431
     8.4644   8.5779   8.6021   8.6554   8.7699   8.8199   8.9102   8.9524
     9.0961   9.1111   9.2639   9.2758   9.3592   9.4209   9.5399   9.5447
     9.5834   9.6666   9.7855   9.8866  10.0801  10.1346  10.1704  10.1992
    10.2178  10.3601  10.4555  10.5022  10.5755  10.6269  10.7074  10.7234
    10.8129  10.8385  10.8792  10.9460  10.9819  11.0785  11.1562  11.2496
    11.2647  11.3253  11.3501  11.3983  11.4564  11.4859  11.5436  11.9553
    12.0184  12.0806  12.2654  12.3059  12.4155  12.4450  12.5086  12.6026
    12.7233  12.7284  12.7803  12.8325  12.9581  13.0411  13.1606  13.2200
    13.2635  13.3239  13.3621  13.4323  13.4728  13.5523  13.5965  13.6412
    13.6525  13.6704  13.7066  13.7483  13.8421  13.9254  13.9464  13.9921
    14.0400  14.1717  14.2156  14.2851  14.3040  14.3340  14.3929  14.4489
    14.4705  14.4873  14.5280  14.6166  14.6399  14.6636  14.7031  14.7162
    14.7810  14.8010  14.8628  14.9537  15.0038  15.0696  15.1241  15.1752
    15.2085  15.2868  15.2960  15.3242  15.3953  15.4402  15.4769  15.5085
    15.5559  15.6079  15.6479  15.6904  15.7217  15.7781  15.7954  15.8575
    15.9834  15.9951  16.0243  16.0979  16.1122  16.1194  16.2137  16.2605
    16.2814  16.3480  16.3785  16.3969  16.4288  16.4635  16.4818  16.5181
    16.5429  16.6341  16.6693  16.7431  16.7671  16.7880  16.8758  16.9188
    16.9559  17.0154  17.0448  17.1049  17.1404  17.1720  17.2328  17.4006
    17.4295  17.4642  17.4950  17.5344  17.5934  17.6196  17.6616  17.7105
    17.7576  17.8154  17.8984  17.9240  18.0242  18.0437  18.0643  18.0843
    18.1013  18.1183  18.1564  18.1876  18.2253  18.2990  18.3553  18.4194
    18.4309  18.5039  18.5281  18.5435  18.5568  18.5729  18.5792  18.5914
    18.5959  18.6120  18.6304  18.6514  18.6661  18.6895  18.7095  18.7202
    18.7536  18.7812  18.7979  18.8425  18.8475  18.8734  18.9112  18.9440
    18.9898  19.0307  19.0927  19.1761  19.2017  19.2633  19.3043  19.3236
    19.3511  19.3863  19.4306  19.4698  19.5171  19.5542  19.6153  19.6268
    19.6493  19.6866  19.7435  19.7877  19.8297  19.9027  19.9609  19.9929
    20.0099  20.0410  20.0751  20.1797  20.1863  20.2104  20.2728  20.3476
    20.4000  20.4596  20.4771  20.4907  20.5393  20.5415  20.6404  20.6697
    20.6877  20.7269  20.7601  20.8546  20.9005  20.9186  21.0060  21.0620
    21.1126  21.1467  21.2863  21.3068  21.3982  21.4080  21.4680  21.4859
    21.5012  21.5500  21.6335  21.6868  21.7129  21.7655  21.8461  21.9233
    21.9899  22.0494  22.0694  22.1519  22.1758  22.1972  22.2184  22.2456
    22.3095  22.3992  22.4090  22.4549  22.5302  22.5534  22.5711  22.7633
    22.7920  22.8341  22.8421  22.8838  22.9604  22.9969  23.0225  23.0728
    23.1014  23.1515  23.1738  23.2822  23.3412  23.4077  23.4277  23.5128
    23.5357  23.5427  23.5973  23.6187  23.6688  23.7145  23.7395  23.7754
    23.8794  23.9949  24.0550  24.0742  24.1772  24.1965  24.2413  24.2810
    24.3027  24.3509  24.4109  24.5180  24.5572  24.6146  24.6371  24.6673
    24.6877  24.7094  24.7908  24.8280  24.8593  24.9201  24.9315  24.9960
    25.0338  25.0521  25.0633  25.0880  25.0956  25.1564  25.1618  25.1834
    25.2192  25.2377  25.2894  25.3192  25.3507  25.3998  25.4567  25.4823
    25.4944  25.5429  25.5824  25.6186  25.6377  25.6596  25.6818  25.7496
    25.7867  25.8392  25.8746  25.8904  25.9456  25.9673  26.0086  26.0508
    26.0713  26.1129  26.1323  26.1652  26.2021  26.2294  26.2472  26.3265
    26.3535  26.3725  26.3875  26.4480  26.4547  26.5024  26.5078  26.5671
    26.5772  26.6090  26.6360  26.6972  26.7276  26.7553  26.7990  26.8311
    26.8387  26.9158  26.9582  27.0010  27.0610  27.1462  27.1674  27.1806
    27.2167  27.2347  27.3058  27.3702  27.3995  27.4876  27.6225  27.6305
    27.6431  27.7710  27.7867  27.8112  27.8681  27.8865  27.9502  27.9867
    28.0301  28.0667  28.1018

          k =-0.5000 0.0000 0.0000 ( 43760 PWs)   bands (ev):

   -53.7376 -53.6986 -53.6928 -53.6673 -53.6593 -53.6146 -53.6146 -53.5853
   -53.5802 -53.5802 -53.5787 -53.5774 -53.5517 -53.5517 -53.5449 -53.5312
   -53.5203 -53.5099 -53.4362 -53.4362 -53.4309 -53.4300 -53.4204 -53.4132
   -53.4129 -53.4125 -53.4034 -53.3970 -53.3806 -53.2990 -53.2990 -53.2967
   -53.2967 -53.2681 -53.2681 -53.2326 -53.2321 -53.1925 -53.1925 -53.1475
   -53.1475 -52.9994 -52.9053 -52.9045 -52.7267 -52.7046 -52.7030 -52.5483
   -23.2835 -19.0220 -19.0040 -18.8068 -18.7980 -18.6470 -18.6467 -18.5587
   -18.5511 -18.4997 -18.4617 -18.2538 -18.2302 -18.0964 -18.0727 -18.0431
   -18.0257 -17.9359 -17.8859 -17.8576 -17.8478 -17.8478 -17.8283 -17.8065
   -17.8064 -17.7581 -17.7581 -17.6942 -17.6840 -16.7420 -16.7212 -16.6293
   -16.6286 -15.4313  -7.9388  -7.7851  -7.7836  -7.7738  -7.7720  -7.7475
    -7.7473  -7.5271  -7.5029  -7.4538  -7.4304  -7.4079  -7.4014  -6.8790
    -6.7354  -6.7267  -6.7234  -6.7137  -6.6730  -6.6181  -6.6138  -6.4911
    -6.4657  -6.4571  -6.4256  -6.4168  -6.2768  -6.2732  -6.2655  -6.0560
    -5.9868  -5.8216  -5.8180  -5.7785  -5.6005  -5.5877  -5.5798  -5.5526
    -5.4386  -5.2692  -5.2468  -5.2416  -5.0690  -5.0683  -5.0576  -5.0560
    -5.0219  -5.0203  -4.8945  -4.8826  -4.6366  -4.5736  -4.5520  -4.5487
    -4.4759  -4.4151  -4.3798  -4.2409  -4.2111  -4.1000  -4.0415  -4.0381
    -3.9772  -3.9683  -3.9460  -3.9459  -3.9290  -3.8509  -3.8481  -3.6979
    -3.6735  -3.5994  -3.5973  -3.4942  -3.4872  -3.4615  -3.3984  -3.3374
    -3.2764  -3.2588  -3.2510  -3.2356  -3.2262  -3.2140  -3.1311  -3.0526
    -3.0492  -2.7237  -2.7200  -2.4990  -2.4777  -2.4148  -2.4103  -2.3770
    -2.3676  -2.3489  -2.3411  -2.0252  -2.0229  -2.0151  -1.9764  -1.9748
    -1.8642  -1.8210  -1.8056  -1.7604  -1.6787  -1.6499  -1.5005  -1.4747
    -1.4708  -1.2954  -1.2834  -1.1717  -1.1086  -1.0968  -1.0725  -1.0252
    -1.0153  -0.9292  -0.9243  -0.7300  -0.7173  -0.6474  -0.5706  -0.5241
    -0.2687  -0.2618  -0.2255  -0.2230  -0.1667  -0.1404  -0.1299  -0.1277
    -0.0705  -0.0531   0.0418   0.0588   0.1012   0.1102   0.2391   0.2591
     0.3592   0.3608   0.5043   0.5057   0.6344   0.6736   0.6739   0.8283
     0.8404   1.0057   1.6457   1.7180   1.9106   2.1018   2.1555   2.3769
     2.4023   2.4243   2.4827   2.5604   2.5769   2.5947   2.6154   2.6169
     2.6390   2.6625   2.6733   2.7039   2.7787   2.7791   2.8440   2.8444
     2.9257   2.9504   3.1618   3.6165   3.7190   3.9176   3.9311   5.6004
     6.1489   6.1491   6.2725   6.6204   6.6957   6.8930   7.0081   7.0648
     7.2014   7.3363   7.5238   7.6615   7.7661   7.7739   8.2198   8.3040
     8.3854   8.6296   8.9165   9.0015   9.1118   9.1287   9.3193   9.3536
     9.4532   9.5894   9.6678   9.8008   9.8940   9.9106   9.9959  10.0830
    10.0964  10.0979  10.1865  10.3309  10.3789  10.4510  10.4514  10.4901
    10.5657  10.5691  10.5817  10.6579  10.7428  10.7439  10.7758  10.8330
    10.8795  10.9171  10.9523  10.9878  10.9906  11.0625  11.0689  11.0835
    11.1387  11.1575  11.3033  11.3511  11.3804  11.4038  11.4985  11.5060
    11.7170  11.7262  11.7441  11.7684  11.8696  11.8786  12.0111  12.2259
    12.2712  12.3250  12.3909  12.3915  12.4363  12.4680  12.7309  12.7363
    12.8557  12.8912  12.9841  13.0201  13.1534  13.2176  13.2486  13.2492
    13.4613  13.4926  13.5023  13.5541  13.5933  13.5955  13.7393  13.7735
    13.8057  13.9058  14.0068  14.0363  14.0528  14.0762  14.1185  14.1565
    14.2721  14.2936  14.3925  14.4187  14.4356  14.4866  14.5295  14.5314
    14.5565  14.5867  14.7151  14.7526  14.7996  14.8377  14.9092  15.0732
    15.1209  15.1422  15.2461  15.2548  15.2779  15.2976  15.3029  15.3794
    15.4115  15.4275  15.4286  15.4630  15.5650  15.6184  15.6519  15.6687
    15.7536  15.7630  15.8029  15.8160  15.8258  15.8500  15.8746  15.9242
    16.0913  16.1545  16.2523  16.3005  16.3115  16.4035  16.5086  16.6074
    16.6417  16.6712  16.6952  16.7888  16.8053  16.8748  17.0646  17.1282
    17.1387  17.1984  17.2334  17.3557  17.4776  17.5168  17.5188  17.5855
    17.6359  17.7066  17.7617  17.8287  17.8532  17.8587  17.9069  17.9163
    17.9960  17.9969  18.0162  18.0279  18.1007  18.1714  18.2656  18.2847
    18.3140  18.3194  18.3577  18.3664  18.5076  18.5126  18.5250  18.5254
    18.5493  18.5757  18.5847  18.5925  18.6017  18.6176  18.6341  18.6670
    18.6996  18.7415  18.7494  18.8406  18.8687  18.8938  18.9096  19.0018
    19.0041  19.0793  19.0794  19.1808  19.2054  19.2605  19.2611  19.2874
    19.3157  19.3361  19.3482  19.4192  19.4479  19.4639  19.5500  19.5759
    19.6425  19.6655  19.8343  19.8350  20.0404  20.0753  20.0980  20.2272
    20.2515  20.2544  20.3864  20.4042  20.4278  20.4938  20.5151  20.5841
    20.5908  20.5968  20.6499  20.7076  20.7290  20.7757  20.8110  20.8143
    20.8308  20.9310  20.9716  20.9773  21.0578  21.0824  21.1270  21.1532
    21.2217  21.2369  21.2528  21.2743  21.3470  21.3838  21.4074  21.4234
    21.4651  21.4971  21.5404  21.5518  21.5584  21.6288  21.6432  21.6468
    21.6833  21.7315  21.7851  21.7879  21.7958  21.8303  21.9779  22.0134
    22.0143  22.0732  22.1087  22.1191  22.1688  22.1835  22.2125  22.2818
    22.2873  22.3391  22.3563  22.3601  22.4698  22.4973  22.5093  22.5199
    22.5563  22.5930  22.6310  22.7120  22.7422  22.7512  22.7747  22.7931
    22.8928  22.9028  22.9045  22.9394  22.9535  22.9732  23.0707  23.1095
    23.1828  23.2113  23.2191  23.3182  23.4114  23.4248  23.4488  23.4539
    23.4583  23.5690  23.7194  23.7307  23.7495  23.7997  23.8654  24.0314
    24.0698  24.1325  24.1925  24.2018  24.2585  24.2620  24.2878  24.3009
    24.3298  24.3721  24.4462  24.4959  24.5578  24.6121  24.6211  24.7107
    24.7218  24.7268  24.7747  24.8581  24.8912  24.9339  25.0435  25.0989
    25.2620  25.3261  25.4180  25.4312  25.4803  25.5605  25.5861  25.6166
    25.6585  25.6908  25.7180  25.7588  25.7667  25.7728  25.8034  25.8146
    25.8737  25.8775  25.8938  25.9247  25.9263  25.9412  25.9591  25.9839
    26.0109  26.0423  26.0716  26.0717  26.1356  26.2063  26.2319  26.2368
    26.2663  26.2735  26.3298  26.3898  26.3970  26.3982  26.5182  26.5945
    26.6458  26.6566  26.7383  26.7646  26.9017  26.9062  26.9149  26.9512
    26.9538  26.9626  27.0860  27.1375  27.1623  27.2138  27.2923  27.3554
    27.3910  27.3932  27.4468  27.5338  27.5398  27.6375  27.6871  27.6887
    27.7153  27.8038  27.8129  27.8927  27.8963  27.9284  28.0112  28.0130
    28.0509  28.0823  28.1304

          k =-0.5000 0.2488 0.0000 ( 43812 PWs)   bands (ev):

   -53.7377 -53.6986 -53.6928 -53.6673 -53.6593 -53.6146 -53.6146 -53.5853
   -53.5802 -53.5802 -53.5787 -53.5774 -53.5517 -53.5517 -53.5449 -53.5312
   -53.5203 -53.5100 -53.4364 -53.4364 -53.4305 -53.4299 -53.4186 -53.4125
   -53.4122 -53.4110 -53.4052 -53.3990 -53.3811 -53.2992 -53.2992 -53.2967
   -53.2967 -53.2681 -53.2681 -53.2326 -53.2320 -53.1925 -53.1925 -53.1475
   -53.1475 -52.9993 -52.9053 -52.9046 -52.7268 -52.7046 -52.7030 -52.5484
   -23.2833 -18.9372 -18.9159 -18.7126 -18.7011 -18.5625 -18.5514 -18.5374
   -18.5158 -18.4605 -18.4517 -18.2709 -18.2454 -18.1347 -18.1212 -18.0508
   -18.0363 -17.9679 -17.9397 -17.9158 -17.9081 -17.8978 -17.8769 -17.8642
   -17.8604 -17.8578 -17.8358 -17.7757 -17.7591 -16.7385 -16.7171 -16.6278
   -16.6271 -15.4287  -7.9300  -7.5132  -7.4609  -7.4453  -7.4412  -7.4245
    -7.4158  -7.4012  -7.3985  -7.3915  -7.3880  -7.1597  -7.1219  -6.8658
    -6.7263  -6.7045  -6.6779  -6.5837  -6.5814  -6.5008  -6.4887  -6.4716
    -6.4165  -6.3582  -6.3538  -6.3243  -6.3225  -6.2978  -6.2275  -6.0307
    -6.0305  -5.8776  -5.8755  -5.8327  -5.7109  -5.6834  -5.6331  -5.6041
    -5.5392  -5.5335  -5.5220  -5.5215  -5.3312  -5.3041  -5.2847  -5.2751
    -5.2327  -5.2266  -4.8631  -4.8171  -4.8054  -4.6560  -4.6463  -4.5215
    -4.4843  -4.3549  -4.3496  -4.2735  -4.2237  -4.2137  -4.2036  -4.1097
    -4.0781  -4.0278  -4.0053  -3.9919  -3.9867  -3.9525  -3.9473  -3.9370
    -3.9310  -3.8983  -3.8199  -3.7090  -3.6838  -3.5865  -3.5562  -3.4676
    -3.3912  -3.3754  -3.3733  -3.1759  -3.1735  -3.0688  -3.0666  -3.0553
    -3.0426  -2.8420  -2.8413  -2.6901  -2.5908  -2.4862  -2.4824  -2.4374
    -2.4073  -2.3186  -2.2846  -2.2553  -2.2017  -1.7914  -1.6564  -1.5304
    -1.5246  -1.4659  -1.4615  -1.4322  -1.4140  -1.3483  -1.3448  -1.3238
    -1.3044  -1.2485  -1.1963  -1.1920  -1.1247  -1.0996  -1.0656  -1.0499
    -1.0205  -0.9804  -0.8143  -0.7626  -0.7615  -0.6378  -0.4932  -0.4410
    -0.3460  -0.3154  -0.2950  -0.1996  -0.1932  -0.1724  -0.1283  -0.1145
    -0.1145  -0.0509   0.0290   0.0392   0.1203   0.1402   0.1514   0.1812
     0.2334   0.2837   0.3578   0.3815   0.5052   0.5281   0.6436   0.9638
     0.9684   1.1243   1.8110   1.8297   1.9320   1.9516   1.9572   2.0016
     2.0213   2.0407   2.0905   2.1025   2.1407   2.1882   2.3751   2.7728
     2.8164   2.8459   2.8489   2.8893   3.0224   3.0789   3.1357   3.3088
     3.3273   3.3739   3.4342   3.7039   3.7937   4.0301   4.0470   5.7041
     6.2682   6.2683   6.4492   6.7352   6.9196   7.0817   7.1967   7.2441
     7.4162   7.5465   7.7158   7.8380   7.9331   7.9840   8.2304   8.2997
     8.5149   8.5372   8.5735   8.6791   8.7915   8.8193   8.8420   8.9652
     9.0652   9.0864   9.2387   9.2879   9.3100   9.3586   9.5282   9.5523
     9.6301   9.7742   9.7968   9.9119  10.1223  10.1375  10.1835  10.3105
    10.4305  10.5563  10.5972  10.6068  10.7655  10.7836  10.8431  10.8729
    10.9332  10.9667  11.0226  11.0539  11.0874  11.1210  11.1660  11.2317
    11.2478  11.4060  11.4401  11.4642  11.5629  11.8128  11.8434  11.9816
    12.0361  12.0368  12.2187  12.3121  12.4673  12.4782  12.5252  12.5339
    12.6534  12.7111  12.7429  12.7450  12.8007  12.8208  12.9145  12.9437
    13.0213  13.0851  13.1407  13.1572  13.2052  13.3031  13.4213  13.4412
    13.5833  13.6297  13.7185  13.7953  13.8976  13.8998  13.9575  13.9836
    14.0758  14.1038  14.1176  14.2065  14.2977  14.3681  14.4030  14.4049
    14.4984  14.5108  14.5695  14.7082  14.7234  14.7415  14.7963  14.8083
    14.9001  14.9230  15.0088  15.0101  15.0282  15.1069  15.1424  15.1571
    15.1620  15.1877  15.2415  15.2601  15.3052  15.3332  15.3336  15.3916
    15.4146  15.4657  15.5396  15.5510  15.6165  15.6190  15.6577  15.6660
    15.6976  15.7395  15.7623  15.7763  15.8344  15.8794  15.9230  15.9540
    15.9984  16.0250  16.1024  16.1538  16.1586  16.1939  16.2286  16.2332
    16.3932  16.5489  16.6041  16.6265  16.6428  16.7383  16.8005  16.8618
    16.8977  16.9452  16.9892  17.0041  17.0684  17.0825  17.1535  17.1978
    17.2804  17.2932  17.4123  17.5122  17.6425  17.6905  17.8136  17.8177
    17.8612  17.8840  17.9480  17.9834  18.0905  18.1450  18.1607  18.1625
    18.2263  18.2855  18.2864  18.3130  18.3542  18.3620  18.4874  18.5066
    18.5350  18.5359  18.5587  18.5670  18.5804  18.5952  18.6026  18.6193
    18.6470  18.6565  18.6917  18.7486  18.7550  18.7614  18.8045  18.8157
    18.8494  18.9034  18.9118  18.9745  18.9788  19.0130  19.0177  19.0837
    19.1056  19.1361  19.1914  19.2526  19.2671  19.3512  19.3533  19.3860
    19.4213  19.4497  19.4662  19.4906  19.5770  19.5840  19.6509  19.6681
    19.7077  19.7685  19.7816  19.8598  19.9249  19.9335  20.0576  20.0626
    20.0891  20.1726  20.2082  20.2781  20.3602  20.3900  20.4275  20.4583
    20.4999  20.5054  20.5427  20.6509  20.7028  20.7599  20.7733  20.7982
    20.9019  20.9618  21.0047  21.0396  21.0555  21.1042  21.1101  21.1273
    21.2385  21.2730  21.3144  21.3616  21.4407  21.5384  21.5552  21.5777
    21.5838  21.7358  21.7620  21.8522  21.9408  21.9951  22.0458  22.0747
    22.1318  22.1336  22.1941  22.2407  22.2481  22.2917  22.3626  22.4036
    22.5101  22.5284  22.5827  22.5981  22.6734  22.6803  22.7380  22.8035
    22.8595  22.8971  22.9204  22.9221  22.9727  22.9794  23.0553  23.0729
    23.1361  23.1951  23.2621  23.2632  23.3973  23.4306  23.4734  23.4849
    23.5586  23.5785  23.6188  23.6429  23.7142  23.7415  23.7937  23.8667
    23.8770  23.8909  23.9477  24.0000  24.0308  24.0430  24.2059  24.2163
    24.2464  24.2746  24.4242  24.4666  24.5198  24.5262  24.6384  24.6476
    24.7019  24.7375  24.7499  24.7886  24.8481  24.8907  24.8984  24.9262
    24.9694  25.0151  25.0822  25.0826  25.1388  25.1604  25.1875  25.2392
    25.2571  25.3298  25.3444  25.3612  25.4096  25.4398  25.5056  25.5517
    25.5712  25.5810  25.6012  25.6048  25.6332  25.6683  25.6890  25.7050
    25.7319  25.7670  25.7870  25.8067  25.8159  25.8489  25.8533  25.9063
    25.9830  26.0157  26.0174  26.0339  26.0677  26.1073  26.1231  26.1673
    26.2062  26.2261  26.2984  26.3380  26.3544  26.3842  26.4366  26.4771
    26.5313  26.5318  26.5656  26.5877  26.6376  26.6806  26.7212  26.7430
    26.8178  26.8583  26.8638  26.8918  26.9956  27.0159  27.0432  27.0600
    27.1258  27.1987  27.2776  27.3112  27.3859  27.4083  27.4377  27.4664
    27.5184  27.5349  27.6242  27.6645  27.6771  27.7007  27.8085  27.8317
    27.9032  27.9045  27.9401

          k =-0.5000-0.4976 0.0000 ( 43684 PWs)   bands (ev):

   -53.7377 -53.6987 -53.6928 -53.6673 -53.6593 -53.6146 -53.6146 -53.5853
   -53.5802 -53.5802 -53.5788 -53.5774 -53.5517 -53.5517 -53.5449 -53.5312
   -53.5203 -53.5100 -53.4366 -53.4366 -53.4300 -53.4298 -53.4159 -53.4121
   -53.4118 -53.4078 -53.4078 -53.4021 -53.3816 -53.2994 -53.2994 -53.2967
   -53.2967 -53.2681 -53.2681 -53.2325 -53.2320 -53.1925 -53.1925 -53.1475
   -53.1475 -52.9993 -52.9054 -52.9046 -52.7268 -52.7046 -52.7030 -52.5483
   -23.2832 -18.7712 -18.7203 -18.7029 -18.6988 -18.4820 -18.4778 -18.4486
   -18.4289 -18.3120 -18.3096 -18.2852 -18.2786 -18.2350 -18.2331 -18.1508
   -18.1417 -18.0603 -18.0430 -18.0035 -18.0031 -17.9603 -17.9388 -17.9292
   -17.9222 -17.8931 -17.8338 -17.8242 -17.8084 -16.7357 -16.7136 -16.6265
   -16.6258 -15.4262  -7.9227  -7.5040  -7.4358  -7.4101  -7.4025  -6.8836
    -6.8779  -6.8633  -6.8622  -6.8612  -6.8065  -6.8062  -6.7043  -6.6941
    -6.6935  -6.6138  -6.5181  -6.4393  -6.4287  -6.4031  -6.3979  -6.3714
    -6.3700  -6.3542  -6.3472  -6.3095  -6.2774  -6.2773  -6.1703  -6.1319
    -6.1282  -6.1229  -6.1188  -6.0574  -6.0571  -5.9920  -5.9905  -5.9370
    -5.8062  -5.8001  -5.7540  -5.7508  -5.4094  -5.3569  -5.3006  -5.2983
    -5.0095  -4.9899  -4.9844  -4.8375  -4.7960  -4.7397  -4.7087  -4.7062
    -4.6971  -4.6668  -4.6567  -4.6175  -4.6017  -4.5675  -4.5492  -4.4740
    -4.4689  -4.4052  -4.3974  -4.2573  -4.2049  -4.0833  -4.0785  -4.0661
    -4.0327  -3.9795  -3.9734  -3.9713  -3.8058  -3.5894  -3.5739  -3.4894
    -3.3585  -3.0972  -3.0947  -3.0093  -2.9865  -2.8481  -2.8277  -2.8245
    -2.7654  -2.6870  -2.6846  -2.6417  -2.6072  -2.5638  -2.5620  -2.5551
    -2.5238  -2.2573  -2.2512  -2.2406  -2.2154  -1.7750  -1.5331  -1.4901
    -1.4792  -1.3466  -1.3411  -1.3328  -1.3300  -1.2632  -1.2326  -1.2268
    -1.2028  -1.1933  -1.0771  -1.0718  -1.0655  -1.0571  -0.9628  -0.9474
    -0.8712  -0.8462  -0.8298  -0.8252  -0.7359  -0.6360  -0.4562  -0.3940
    -0.3890  -0.3880  -0.3671  -0.1919  -0.1478  -0.0898  -0.0898  -0.0764
    -0.0751   0.0556   0.0747   0.0790   0.0816   0.1296   0.1400   0.1869
     0.1870   0.2643   0.2715   0.2798   0.2854   0.3254   0.6418   1.0495
     1.0508   1.2065   1.5372   1.5434   1.5683   1.5687   1.7062   1.7067
     1.7095   1.9183   1.9658   2.0574   2.0617   2.0676   2.3670   2.8005
     2.8587   2.8598   2.9105   3.1678   3.1869   3.2228   3.3321   3.6642
     3.6940   3.7352   3.7615   3.9213   3.9384   3.9746   3.9855   5.8423
     6.4395   6.4397   6.7125   6.7508   7.4367   7.5419   7.5647   7.7149
     7.8142   7.8286   7.8589   7.9159   8.0028   8.0243   8.0377   8.0755
     8.1649   8.2448   8.2550   8.3481   8.5425   8.5647   8.5977   8.6166
     8.6656   8.6765   8.7606   8.8655   9.2250   9.2355   9.2471   9.3019
     9.3828   9.4542   9.5352   9.6278   9.8914   9.9019  10.0401  10.0638
    10.1817  10.4132  10.4835  10.5342  10.7849  10.8176  10.8193  10.8775
    11.1103  11.1158  11.1456  11.1987  11.2193  11.2849  11.2922  11.2983
    11.3098  11.3130  11.3684  11.3733  11.4858  11.7299  11.7843  11.8296
    12.0585  12.2835  12.2932  12.3812  12.4528  12.5298  12.5637  12.5688
    13.0341  13.0867  13.1176  13.1911  13.2862  13.5219  13.5349  13.5386
    13.7039  13.7449  13.7640  13.7775  13.8228  13.8729  13.9782  14.0236
    14.0799  14.1181  14.2034  14.2240  14.2241  14.2858  14.3492  14.4216
    14.4421  14.4693  14.4775  14.5713  14.6274  14.6865  14.7190  14.7339
    14.7593  14.7746  14.8093  14.8130  14.8339  14.8711  14.9181  14.9339
    14.9745  14.9846  14.9930  15.0502  15.0784  15.1384  15.1574  15.2381
    15.3103  15.3141  15.3290  15.3458  15.3711  15.3937  15.4189  15.4275
    15.4573  15.4817  15.4818  15.5207  15.5538  15.5777  15.6244  15.6439
    15.6453  15.6726  15.6890  15.7741  15.8656  15.8758  15.9342  15.9436
[...]
    13.0108  13.0882  13.1299  13.1478  13.2029  13.3112  13.4221  13.4383
    13.5811  13.6324  13.7259  13.7845  13.8906  13.8934  13.9489  13.9772
    14.0828  14.1054  14.1137  14.2033  14.3026  14.3568  14.3944  14.4147
    14.4872  14.5004  14.5670  14.7008  14.7241  14.7338  14.7962  14.8047
    14.8969  14.9159  15.0035  15.0056  15.0198  15.0958  15.1343  15.1475
    15.1550  15.1833  15.2283  15.2460  15.3016  15.3320  15.3360  15.3838
    15.4102  15.4586  15.5328  15.5435  15.6027  15.6075  15.6452  15.6516
    15.6929  15.7359  15.7473  15.7689  15.8289  15.8711  15.9186  15.9419
    15.9969  16.0306  16.0920  16.1553  16.1588  16.1991  16.2308  16.2313
    16.3997  16.5527  16.6016  16.6243  16.6393  16.7381  16.8039  16.8599
    16.8979  16.9433  16.9840  17.0002  17.0705  17.0791  17.1516  17.2008
    17.2806  17.3011  17.4131  17.5189  17.6435  17.6837  17.8207  17.8227
    17.8608  17.8812  17.9481  17.9815  18.0839  18.1447  18.1593  18.1597
    18.2304  18.2875  18.2917  18.3098  18.3502  18.3598  18.4827  18.4999
    18.5238  18.5280  18.5478  18.5511  18.5644  18.5834  18.5895  18.6128
    18.6331  18.6421  18.6835  18.7353  18.7430  18.7562  18.7979  18.8064
    18.8499  18.8888  18.9003  18.9720  18.9778  19.0070  19.0122  19.0765
    19.1038  19.1260  19.1937  19.2421  19.2543  19.3409  19.3463  19.3775
    19.4154  19.4453  19.4570  19.4796  19.5757  19.5855  19.6579  19.6666
    19.7101  19.7695  19.7839  19.8597  19.9261  19.9335  20.0583  20.0641
    20.0911  20.1732  20.2077  20.2867  20.3587  20.3847  20.4272  20.4557
    20.4938  20.4985  20.5363  20.6487  20.6968  20.7576  20.7704  20.7925
    20.9018  20.9600  21.0010  21.0398  21.0521  21.1026  21.1083  21.1260
    21.2350  21.2778  21.3082  21.3617  21.4364  21.5426  21.5521  21.5677
    21.5812  21.7345  21.7568  21.8507  21.9355  21.9931  22.0509  22.0711
    22.1321  22.1353  22.1917  22.2375  22.2449  22.2948  22.3617  22.4015
    22.5014  22.5207  22.5744  22.5899  22.6696  22.6789  22.7305  22.7945
    22.8470  22.8899  22.9166  22.9181  22.9723  22.9754  23.0513  23.0754
    23.1296  23.1959  23.2584  23.2643  23.3918  23.4241  23.4686  23.4791
    23.5535  23.5763  23.6111  23.6369  23.7081  23.7361  23.7912  23.8679
    23.8766  23.8961  23.9462  23.9904  24.0340  24.0387  24.1964  24.2147
    24.2539  24.2717  24.4251  24.4610  24.5200  24.5218  24.6391  24.6490
    24.7023  24.7319  24.7536  24.7925  24.8450  24.8908  24.8962  24.9325
    24.9745  25.0179  25.0815  25.0902  25.1306  25.1583  25.1880  25.2375
    25.2551  25.3250  25.3358  25.3575  25.4073  25.4396  25.5026  25.5419
    25.5696  25.5727  25.5950  25.5956  25.6288  25.6635  25.6826  25.7018
    25.7315  25.7610  25.7815  25.7991  25.8136  25.8426  25.8528  25.9079
    25.9846  26.0110  26.0134  26.0304  26.0630  26.1080  26.1142  26.1606
    26.1976  26.2228  26.2918  26.3308  26.3480  26.3774  26.4331  26.4703
    26.5273  26.5310  26.5612  26.5849  26.6344  26.6766  26.7188  26.7367
    26.8163  26.8555  26.8562  26.8873  26.9945  27.0130  27.0399  27.0517
    27.1205  27.1974  27.2769  27.3124  27.3788  27.4070  27.4388  27.4693
    27.5184  27.5355  27.6192  27.6608  27.6778  27.6969  27.8040  27.8308
    27.8971  27.8999  27.9399

          k =-0.5000-0.4976 0.0000 ( 43684 PWs)   bands (ev):

   -53.7396 -53.7158 -53.7103 -53.6839 -53.6763 -53.6312 -53.6312 -53.5967
   -53.5967 -53.5967 -53.5965 -53.5783 -53.5684 -53.5684 -53.5618 -53.5486
   -53.5367 -53.5267 -53.4533 -53.4533 -53.4473 -53.4472 -53.4325 -53.4291
   -53.4290 -53.4254 -53.4254 -53.4192 -53.3847 -53.3161 -53.3161 -53.3133
   -53.3133 -53.2864 -53.2863 -53.2497 -53.2491 -53.2090 -53.2090 -53.1643
   -53.1643 -53.0196 -52.9224 -52.9217 -52.7463 -52.7218 -52.7202 -52.5698
   -22.9927 -18.7887 -18.7386 -18.7196 -18.7156 -18.4987 -18.4945 -18.4655
   -18.4460 -18.3286 -18.3263 -18.2985 -18.2921 -18.2510 -18.2495 -18.1660
   -18.1566 -18.0774 -18.0603 -18.0204 -18.0199 -17.9775 -17.9563 -17.9448
   -17.9381 -17.9106 -17.8535 -17.8395 -17.8240 -16.7453 -16.7283 -16.6431
   -16.6424 -15.4503  -7.8615  -7.5217  -7.4338  -7.4266  -7.4188  -6.8990
    -6.8951  -6.8803  -6.8792  -6.8243  -6.8233  -6.8203  -6.7218  -6.7108
    -6.7101  -6.6237  -6.5163  -6.4523  -6.4459  -6.4194  -6.4144  -6.3884
    -6.3869  -6.3710  -6.3640  -6.3183  -6.2943  -6.2942  -6.1827  -6.1490
    -6.1363  -6.1308  -6.1273  -6.0582  -6.0204  -6.0088  -6.0035  -5.9340
    -5.8227  -5.8142  -5.7674  -5.7666  -5.4167  -5.3737  -5.3162  -5.3118
    -5.0063  -5.0058  -4.9872  -4.8529  -4.7883  -4.7527  -4.7238  -4.7231
    -4.7100  -4.6832  -4.6721  -4.6342  -4.6135  -4.5810  -4.5638  -4.4905
    -4.4845  -4.4218  -4.4141  -4.2474  -4.2179  -4.0991  -4.0943  -4.0795
    -4.0429  -3.9950  -3.9898  -3.9856  -3.7857  -3.6059  -3.5814  -3.5032
    -3.3752  -3.1102  -3.1029  -3.0256  -3.0032  -2.8620  -2.8440  -2.8409
    -2.7805  -2.7033  -2.7009  -2.6545  -2.6236  -2.5805  -2.5787  -2.5673
    -2.5360  -2.2724  -2.2668  -2.2456  -2.2324  -1.7601  -1.5506  -1.5053
    -1.4954  -1.3611  -1.3569  -1.3489  -1.3468  -1.2767  -1.2488  -1.2401
    -1.2198  -1.2089  -1.0922  -1.0875  -1.0821  -1.0723  -0.9786  -0.9639
    -0.8857  -0.8602  -0.8466  -0.8410  -0.7503  -0.6518  -0.4662  -0.4092
    -0.4054  -0.4034  -0.3825  -0.2037  -0.1633  -0.1067  -0.1066  -0.0932
    -0.0920   0.0414   0.0580   0.0624   0.0661   0.1128   0.1242   0.1702
     0.1704   0.2449   0.2543   0.2630   0.2681   0.3086   0.6281   1.0326
     1.0338   1.1889   1.5202   1.5261   1.5513   1.5516   1.6897   1.6926
     1.6959   1.9006   1.9432   2.0413   2.0454   2.0499   2.3274   2.7831
     2.8432   2.8444   2.8851   3.1523   3.1711   3.2058   3.3053   3.6491
     3.6781   3.7179   3.7419   3.9053   3.9221   3.9575   3.9682   5.8334
     6.4234   6.4235   6.6262   6.7556   7.4503   7.5563   7.5609   7.6931
     7.8217   7.8272   7.8564   7.8927   8.0021   8.0214   8.0390   8.0582
     8.1597   8.2477   8.2525   8.3340   8.5402   8.5584   8.5880   8.6081
     8.6652   8.6730   8.7489   8.8630   9.2252   9.2352   9.2440   9.2974
     9.3787   9.4448   9.5208   9.6239   9.8889   9.9015  10.0359  10.0604
    10.1751  10.4122  10.4811  10.5369  10.7794  10.8049  10.8057  10.8972
    11.0938  11.1086  11.1404  11.1918  11.2224  11.2674  11.2751  11.2830
    11.2937  11.3020  11.3535  11.3603  11.4832  11.7238  11.7827  11.8252
    12.0725  12.2718  12.2815  12.3809  12.4412  12.5215  12.5572  12.5688
    13.0320  13.0939  13.1135  13.1876  13.2814  13.5130  13.5254  13.5289
    13.7059  13.7429  13.7582  13.7790  13.8273  13.8792  13.9634  14.0095
    14.0763  14.1148  14.1927  14.2133  14.2135  14.2960  14.3446  14.4213
    14.4425  14.4649  14.4777  14.5735  14.6199  14.6868  14.7067  14.7273
    14.7512  14.7765  14.8077  14.8085  14.8240  14.8588  14.9275  14.9378
    14.9758  14.9904  15.0004  15.0600  15.0858  15.1437  15.1530  15.2305
    15.3133  15.3138  15.3306  15.3479  15.3706  15.3895  15.4122  15.4225
    15.4494  15.4784  15.4787  15.5199  15.5471  15.5718  15.6191  15.6356
    15.6406  15.6562  15.6879  15.7663  15.8633  15.8761  15.9341  15.9405
    15.9809  15.9820  16.0342  16.0507  16.1196  16.1524  16.1995  16.2531
    16.2706  16.2963  16.4073  16.4363  16.5168  16.5437  16.5590  16.5933
    16.7593  16.7653  16.8173  16.8293  16.8922  16.9006  16.9328  16.9475
    17.0109  17.0299  17.1344  17.1583  17.2288  17.2962  17.3003  17.3375
    17.3407  17.3531  17.3753  17.3825  17.4368  17.4671  17.5002  17.5191
    17.6136  17.6449  17.6781  17.7335  17.8802  17.8982  17.9231  18.0317
    18.1228  18.1434  18.2075  18.2356  18.3005  18.3093  18.3466  18.4318
    18.5154  18.5164  18.5334  18.5492  18.5617  18.5643  18.5811  18.5890
    18.5957  18.6183  18.6335  18.6470  18.6520  18.7493  18.7598  18.7879
    18.8116  18.8766  18.8915  18.9387  18.9572  19.2047  19.2389  19.3195
    19.3403  19.4255  19.4656  19.4769  19.5402  19.5449  19.5811  19.5884
    19.6033  19.6513  19.6689  19.6822  19.8019  19.8240  19.8718  19.9338
    19.9821  20.0334  20.1207  20.1239  20.3069  20.3322  20.4123  20.5945
    20.7700  20.7803  20.8545  20.9129  20.9572  21.0318  21.0531  21.0653
    21.0721  21.0813  21.1054  21.1623  21.2199  21.2834  21.2899  21.3054
    21.3737  21.5187  21.5340  21.6494  21.7218  21.7774  21.8058  21.8945
    22.0170  22.0233  22.0535  22.0741  22.1168  22.1647  22.1815  22.2092
    22.2153  22.2706  22.3125  22.3440  22.3470  22.3879  22.3981  22.5369
    22.5576  22.5958  22.6534  22.6702  22.7212  22.7272  22.7628  22.7948
    22.8439  22.8727  22.8992  22.9585  22.9821  23.0011  23.0250  23.0565
    23.1073  23.1356  23.1496  23.2324  23.2332  23.3241  23.3399  23.3684
    23.4102  23.5245  23.5760  23.5805  23.6112  23.6156  23.6580  23.7104
    23.7177  23.7242  23.7503  23.8128  23.8155  23.8291  23.8813  23.9073
    23.9490  23.9522  23.9766  24.0399  24.0418  24.0575  24.1247  24.1612
    24.1814  24.2309  24.2780  24.3078  24.3978  24.4462  24.4732  24.5041
    24.6597  24.7460  24.8182  24.8412  24.8539  24.8712  24.9279  24.9473
    25.0491  25.0677  25.1371  25.2195  25.2355  25.2873  25.2939  25.3515
    25.3533  25.4119  25.4521  25.4929  25.5962  25.6358  25.6412  25.6696
    25.7171  25.7218  25.8049  25.8327  25.8752  25.9466  25.9868  26.0150
    26.0380  26.0633  26.1128  26.1729  26.1854  26.2022  26.2497  26.2691
    26.3766  26.3815  26.4257  26.4643  26.5876  26.5928  26.6605  26.6847
    26.6923  26.8523  26.8837  26.9233  26.9967  27.0162  27.0891  27.0979
    27.1560  27.1659  27.2045  27.2109  27.2639  27.2739  27.3370  27.3714
    27.4806  27.6169  27.6484  27.7626  27.8745  27.8786  27.9060  27.9473
    28.0075  28.0218  28.1015  28.1276  28.1575  28.2534  28.2762  28.3681
    28.4056  28.4647  28.4775

     the Fermi energy is     0.7243 ev

!    total energy              =   -4424.53558381 Ry
     Harris-Foulkes estimate   =   -4424.53558381 Ry
     estimated scf accuracy    <          4.0E-09 Ry

     The total energy is the sum of the following terms:

     one-electron contribution =  -82405.06626433 Ry
     hartree contribution      =   41311.68360401 Ry
     xc contribution           =   -1111.20156586 Ry
     ewald contribution        =   37780.04940615 Ry
     smearing contrib. (-TS)   =      -0.00076378 Ry

     convergence has been achieved in  15 iterations

     Forces acting on atoms (Ry/au):


     negative rho (up, down):  0.316E+01 0.000E+00
     atom    1 type  1   force =     0.00000000    0.00000371    0.01388121
     atom    2 type  2   force =     0.00116215    0.00004959   -0.00439322
     atom    3 type  2   force =     0.00000000   -0.00006299    0.00472572
     atom    4 type  1   force =    -0.00003337   -0.00072222   -0.02913395
     atom    5 type  1   force =    -0.00004213    0.00068480   -0.02903468
     atom    6 type  1   force =     0.00000000   -0.00000003    0.00894342
     atom    7 type  1   force =     0.00000000    0.00014066    0.02381101
     atom    8 type  2   force =     0.00021864    0.00005559    0.01458896
     atom    9 type  2   force =     0.00000000   -0.00036963   -0.02481720
     atom   10 type  1   force =     0.00032080    0.00570660    0.00067689
     atom   11 type  1   force =     0.00022389   -0.00572578    0.00058540
     atom   12 type  1   force =     0.00000000    0.00006686    0.01481433
     atom   13 type  1   force =     0.00000000   -0.00014792    0.00976657
     atom   14 type  2   force =    -0.00688428    0.00236095    0.00703426
     atom   15 type  2   force =     0.00000000   -0.00017419    0.00138929
     atom   16 type  1   force =     0.00006931   -0.00004184    0.00008263
     atom   17 type  1   force =     0.00030975   -0.00022911    0.00046848
     atom   18 type  1   force =     0.00000000    0.00040174    0.00236860
     atom   19 type  1   force =     0.00000000    0.00040914    0.00179874
     atom   20 type  2   force =     0.00137312   -0.00230607   -0.00496220
     atom   21 type  2   force =     0.00000000    0.00030819   -0.00049952
     atom   22 type  1   force =    -0.01183806    0.00985116   -0.01322390
     atom   23 type  1   force =    -0.01179252   -0.00799896   -0.01788440
     atom   24 type  1   force =     0.00000000    0.00048411    0.00125244
     atom   25 type  1   force =     0.00000000    0.00001097    0.01330268
     atom   26 type  2   force =    -0.00116215    0.00004959   -0.00439322
     atom   27 type  2   force =     0.00000000    0.00001701    0.00489287
     atom   28 type  1   force =     0.00003337   -0.00072222   -0.02913395
     atom   29 type  1   force =     0.00004213    0.00068480   -0.02903468
     atom   30 type  1   force =     0.00000000   -0.00007670    0.00474167
     atom   31 type  1   force =     0.00000000   -0.00009791    0.02390264
     atom   32 type  2   force =    -0.00021864    0.00005559    0.01458896
     atom   33 type  2   force =     0.00000000    0.00013949   -0.01663582
     atom   34 type  1   force =    -0.00032080    0.00570660    0.00067689
     atom   35 type  1   force =    -0.00022389   -0.00572578    0.00058540
     atom   36 type  1   force =     0.00000000   -0.00012754    0.01430974
     atom   37 type  1   force =     0.00000000   -0.00011180   -0.00930861
     atom   38 type  2   force =     0.00688428    0.00236095    0.00703426
     atom   39 type  2   force =     0.00000000   -0.00002379    0.00142195
     atom   40 type  1   force =    -0.00006931   -0.00004184    0.00008263
     atom   41 type  1   force =    -0.00030975   -0.00022911    0.00046848
     atom   42 type  1   force =     0.00000000    0.00201865    0.02177344
     atom   43 type  1   force =     0.00000000    0.00042249    0.00052975
     atom   44 type  2   force =    -0.00137312   -0.00230607   -0.00496220
     atom   45 type  2   force =     0.00000000   -0.04210703    0.04528074
     atom   46 type  1   force =     0.01183806    0.00985116   -0.01322390
     atom   47 type  1   force =     0.01179252   -0.00799896   -0.01788440
     atom   48 type  1   force =     0.00000000   -0.01217170   -0.01117891
     atom   49 type  1   force =     0.00000000    0.10436409    0.00013131
     atom   50 type  1   force =     0.00000000   -0.07555909   -0.00000330
     atom   51 type  3   force =     0.00000000    0.01887377   -0.00020336

     Total force =     0.000242     Total SCF correction =     0.000008

     bfgs converged in   9 scf cycles and   8 bfgs steps
     (criteria: energy < 0.10E-03, force < 0.10E-02)

     End of BFGS Geometry Optimization

     Final energy   =   -4424.5355838094 Ry
Begin final coordinates

ATOMIC_POSITIONS (crystal)
O0       0.000000000   0.500000000   0.331460000    0   0   0
Pt1      0.250000000   0.500000000   0.365530000    0   0   0
Pt1      0.000000000   0.000000000   0.365530000    0   0   0
O0       0.250000000   0.810000000   0.365530000    0   0   0
O0       0.250000000   0.190000000   0.365530000    0   0   0
O0       0.000000000   0.500000000   0.399590000    0   0   0
O0       0.000000000   0.000000000   0.421110000    0   0   0
Pt1      0.250000000   0.000000000   0.455180000    0   0   0
Pt1      0.000000000   0.500000000   0.455180000    0   0   0
O0       0.250000000   0.690000000   0.455180000    0   0   0
O0       0.250000000   0.310000000   0.455180000    0   0   0
O0       0.000000000   0.000000000   0.489240000    0   0   0
O0       0.000000000   0.500000000   0.509920000    0   0   0
Pt1      0.250000000   0.500000000   0.543590000    0   0   0
Pt1      0.000000000   0.000000000   0.544580000    0   0   0
O0       0.250000000   0.809040000   0.545540000    0   0   0
O0       0.250000000   0.190960000   0.545540000    0   0   0
O0       0.000000000   0.500000000   0.577930000    0   0   0
O0       0.000000000   0.000000000   0.600340000    0   0   0
Pt1      0.250000000   0.000000000   0.634810000    0   0   0
Pt1      0.000000000   0.500000000   0.634290000    0   0   0
O0       0.250000000   0.688670000   0.640950000    0   0   0
O0       0.250000000   0.311330000   0.640950000    0   0   0
O0       0.000000000   0.000000000   0.668140000    0   0   0
O0       0.500000000   0.500000000   0.331460000    0   0   0
Pt1      0.750000000   0.500000000   0.365530000    0   0   0
Pt1      0.500000000   0.000000000   0.365530000    0   0   0
O0       0.750000000   0.810000000   0.365530000    0   0   0
O0       0.750000000   0.190000000   0.365530000    0   0   0
O0       0.500000000   0.500000000   0.399590000    0   0   0
O0       0.500000000   0.000000000   0.421110000    0   0   0
Pt1      0.750000000   0.000000000   0.455180000    0   0   0
Pt1      0.500000000   0.500000000   0.455180000    0   0   0
O0       0.750000000   0.690000000   0.455180000    0   0   0
O0       0.750000000   0.310000000   0.455180000    0   0   0
O0       0.500000000   0.000000000   0.489240000    0   0   0
O0       0.500000000   0.500000000   0.509920000    0   0   0
Pt1      0.750000000   0.500000000   0.543590000    0   0   0
Pt1      0.500000000   0.000000000   0.544580000    0   0   0
O0       0.750000000   0.809040000   0.545540000    0   0   0
O0       0.750000000   0.190960000   0.545540000    0   0   0
O0       0.500000000   0.500000000   0.577930000    0   0   0
O0       0.500000000   0.000000000   0.600340000    0   0   0
Pt1      0.750000000   0.000000000   0.634810000    0   0   0
Pt1      0.500000000   0.500000000   0.634290000    0   0   0
O0       0.750000000   0.688670000   0.640950000    0   0   0
O0       0.750000000   0.311330000   0.640950000    0   0   0
O0       0.500000000   0.000000000   0.668140000    0   0   0
O0       0.500000000   0.500000000   0.689853322    1   0   1
O0       0.500000000   0.320530000   0.709578925    1   0   1
H2       0.500000000   0.366140000   0.735567188    1   0   1
End final coordinates



     init_run     :    120.04s CPU    144.51s WALL (       1 calls)
     electrons    :  56947.25s CPU  62666.67s WALL (       9 calls)
     update_pot   :    111.51s CPU    115.81s WALL (       8 calls)
     forces       :    978.10s CPU    983.16s WALL (       9 calls)

     Called by init_run:
     wfcinit      :     69.98s CPU     73.50s WALL (       1 calls)
     potinit      :      5.08s CPU      5.23s WALL (       1 calls)

     Called by electrons:
     c_bands      :  42719.19s CPU  44218.93s WALL (     187 calls)
     sum_band     :   7078.16s CPU   7436.76s WALL (     187 calls)
     v_of_rho     :    138.65s CPU    155.22s WALL (     194 calls)
     newd         :   7004.58s CPU  10960.07s WALL (     194 calls)
     mix_rho      :     22.54s CPU     25.87s WALL (     187 calls)

     Called by c_bands:
     init_us_2    :     32.11s CPU     33.90s WALL (    1152 calls)
     cegterg      :  42561.02s CPU  44057.14s WALL (     561 calls)

     Called by *egterg:
     h_psi        :  13029.25s CPU  14162.69s WALL (    1642 calls)
     s_psi        :   3120.80s CPU   3141.75s WALL (    1642 calls)
     g_psi        :     25.12s CPU     25.18s WALL (    1078 calls)
     cdiaghg      :  10683.18s CPU  10807.57s WALL (    1609 calls)

     Called by h_psi:
     add_vuspsi   :   3121.13s CPU   3142.76s WALL (    1642 calls)

     General routines
     calbec       :   4760.29s CPU   4788.25s WALL (    2230 calls)
     fft          :    189.75s CPU    214.16s WALL (    3183 calls)
     ffts         :      3.04s CPU      3.37s WALL (     381 calls)
     fftw         :   6034.02s CPU   7440.39s WALL ( 2001145 calls)
     interpolate  :     22.04s CPU     26.61s WALL (     381 calls)

     Parallel routines
     fft_scatter  :   1987.06s CPU   2942.82s WALL ( 2004709 calls)

     PWSCF        :    16h14m CPU       17h52m WALL


   This run was terminated on:   8:21: 7  12May2014            

=------------------------------------------------------------------------------=
   JOB DONE.
=------------------------------------------------------------------------------=
