
     Program PWSCF v.5.0.2 (svn rev. 9656) starts on 23Jan2014 at 20:34: 0 

     This program is part of the open-source Quantum ESPRESSO suite
     for quantum simulation of materials; please cite
         "P. Giannozzi et al., J. Phys.:Condens. Matter 21 395502 (2009);
          URL http://www.quantum-espresso.org", 
     in publications or presentations arising from this work. More details at
     http://www.quantum-espresso.org/quote.php

     Parallel version (MPI), running on     4 processors
     R & G space division:  proc/nbgrp/npool/nimage =       4

     Current dimensions of program PWSCF are:
     Max number of different atomic species (ntypx) = 10
     Max number of k-points (npk) =  40000
     Max angular momentum in pseudopotentials (lmaxx) =  3
     Reading input from SnO2-v-0.8.in

     Subspace diagonalization in iterative solution of the eigenvalue problem:
     a serial algorithm will be used


     Parallelization info
     --------------------
     sticks:   dense  smooth     PW     G-vecs:    dense   smooth      PW
     Min         641     207     60                15801     2849     482
     Max         643     208     61                15802     2858     485
     Sum        2569     829    241                63205    11409    1931



     bravais-lattice index     =            0
     lattice parameter (alat)  =       8.0383  a.u.
     unit-cell volume          =     334.7174 (a.u.)^3
     number of atoms/cell      =            6
     number of atomic types    =            2
     number of electrons       =        52.00
     number of Kohn-Sham states=           75
     kinetic-energy cutoff     =      40.0000  Ry
     charge density cutoff     =     500.0000  Ry
     convergence threshold     =      1.0E-06
     mixing beta               =       0.7000
     number of iterations used =            8  plain     mixing
     Exchange-correlation      = SLA  PW   PBE  PBE ( 1 4 3 4 0)
     EXX-fraction              =        0.00
     nstep                     =           50


     celldm(1)=   8.038301  celldm(2)=   0.000000  celldm(3)=   0.000000
     celldm(4)=   0.000000  celldm(5)=   0.000000  celldm(6)=   0.000000

     crystal axes: (cart. coord. in units of alat)
               a(1) = (   1.000000   0.000000   0.000000 )  
               a(2) = (   0.000000   1.000000   0.000000 )  
               a(3) = (   0.000000   0.000000   0.644444 )  

     reciprocal axes: (cart. coord. in units 2 pi/alat)
               b(1) = (  1.000000  0.000000  0.000000 )  
               b(2) = (  0.000000  1.000000  0.000000 )  
               b(3) = (  0.000000  0.000000  1.551724 )  


     PseudoPot. # 1 for Sn read from file:
     /home/camp/zhonxu/pseudo/sn_pbe_v1.uspp.F.UPF
     MD5 check sum: 4cf58ce39ec5d5d420df3dd08604eb00
     Pseudo is Ultrasoft + core correction, Zval = 14.0
     Generated by new atomic code, or converted to UPF format
     Using radial grid of  891 points,  6 beta functions with: 
                l(1) =   0
                l(2) =   0
                l(3) =   1
                l(4) =   1
                l(5) =   2
                l(6) =   2
     Q(r) pseudized with  6 coefficients,  rinner =    1.200   1.200   1.200
                                                       1.200   1.200

     PseudoPot. # 2 for O  read from file:
     /home/camp/zhonxu/pseudo/o_pbe_v1.01.uspp.F.UPF
     MD5 check sum: 2bcb18d16ea4b960afae9ec6d52f22d2
     Pseudo is Ultrasoft + core correction, Zval =  6.0
     Generated by new atomic code, or converted to UPF format
     Using radial grid of  737 points,  5 beta functions with: 
                l(1) =   0
                l(2) =   0
                l(3) =   1
                l(4) =   1
                l(5) =   2
     Q(r) pseudized with  8 coefficients,  rinner =    0.900   0.900   0.900
                                                       0.900   0.900

     atomic species   valence    mass     pseudopotential
        Sn0           14.00   118.71000     Sn( 1.00)
        O1             6.00    15.99940     O ( 1.00)

     Starting magnetic structure 
     atomic species   magnetization
        Sn0          0.600
        O1           0.000

     16 Sym. Ops., with inversion, found ( 8 have fractional translation)



   Cartesian axes

     site n.     atom                  positions (alat units)
         1           Sn0 tau(   1) = (   0.0000000   0.0000000   0.0000000  )
         2           Sn0 tau(   2) = (   0.5000000   0.5000000   0.3222222  )
         3           O1  tau(   3) = (   0.3050000   0.3050000   0.0000000  )
         4           O1  tau(   4) = (  -0.3050000  -0.3050000   0.0000000  )
         5           O1  tau(   5) = (   0.8050000   0.1950000   0.3222222  )
         6           O1  tau(   6) = (   0.1950000   0.8050000   0.3222222  )

     number of k points=    36  Methfessel-Paxton smearing, width (Ry)=  0.0100
                       cart. coord. in units 2pi/alat
        k(    1) = (   0.0000000   0.0000000   0.0000000), wk =   0.0080000
        k(    2) = (   0.0000000   0.0000000   0.3103448), wk =   0.0160000
        k(    3) = (   0.0000000   0.0000000   0.6206897), wk =   0.0160000
        k(    4) = (   0.0000000   0.2000000   0.0000000), wk =   0.0320000
        k(    5) = (   0.0000000   0.2000000   0.3103448), wk =   0.0640000
        k(    6) = (   0.0000000   0.2000000   0.6206897), wk =   0.0640000
        k(    7) = (   0.0000000   0.4000000   0.0000000), wk =   0.0320000
        k(    8) = (   0.0000000   0.4000000   0.3103448), wk =   0.0640000
        k(    9) = (   0.0000000   0.4000000   0.6206897), wk =   0.0640000
        k(   10) = (   0.2000000   0.2000000   0.0000000), wk =   0.0320000
        k(   11) = (   0.2000000   0.2000000   0.3103448), wk =   0.0640000
        k(   12) = (   0.2000000   0.2000000   0.6206897), wk =   0.0640000
        k(   13) = (   0.2000000   0.4000000   0.0000000), wk =   0.0640000
        k(   14) = (   0.2000000   0.4000000   0.3103448), wk =   0.1280000
        k(   15) = (   0.2000000   0.4000000   0.6206897), wk =   0.1280000
        k(   16) = (   0.4000000   0.4000000   0.0000000), wk =   0.0320000
        k(   17) = (   0.4000000   0.4000000   0.3103448), wk =   0.0640000
        k(   18) = (   0.4000000   0.4000000   0.6206897), wk =   0.0640000
        k(   19) = (   0.0000000   0.0000000   0.0000000), wk =   0.0080000
        k(   20) = (   0.0000000   0.0000000   0.3103448), wk =   0.0160000
        k(   21) = (   0.0000000   0.0000000   0.6206897), wk =   0.0160000
        k(   22) = (   0.0000000   0.2000000   0.0000000), wk =   0.0320000
        k(   23) = (   0.0000000   0.2000000   0.3103448), wk =   0.0640000
        k(   24) = (   0.0000000   0.2000000   0.6206897), wk =   0.0640000
        k(   25) = (   0.0000000   0.4000000   0.0000000), wk =   0.0320000
        k(   26) = (   0.0000000   0.4000000   0.3103448), wk =   0.0640000
        k(   27) = (   0.0000000   0.4000000   0.6206897), wk =   0.0640000
        k(   28) = (   0.2000000   0.2000000   0.0000000), wk =   0.0320000
        k(   29) = (   0.2000000   0.2000000   0.3103448), wk =   0.0640000
        k(   30) = (   0.2000000   0.2000000   0.6206897), wk =   0.0640000
        k(   31) = (   0.2000000   0.4000000   0.0000000), wk =   0.0640000
        k(   32) = (   0.2000000   0.4000000   0.3103448), wk =   0.1280000
        k(   33) = (   0.2000000   0.4000000   0.6206897), wk =   0.1280000
        k(   34) = (   0.4000000   0.4000000   0.0000000), wk =   0.0320000
        k(   35) = (   0.4000000   0.4000000   0.3103448), wk =   0.0640000
        k(   36) = (   0.4000000   0.4000000   0.6206897), wk =   0.0640000

     Dense  grid:    63205 G-vectors     FFT dimensions: (  60,  60,  40)

     Smooth grid:    11409 G-vectors     FFT dimensions: (  36,  36,  24)

     Largest allocated arrays     est. size (Mb)     dimensions
        Kohn-Sham Wavefunctions         0.41 Mb     (    359,   75)
        NL pseudopotentials             0.48 Mb     (    359,   88)
        Each V/rho on FFT grid          1.10 Mb     (  36000,   2)
        Each G-vector array             0.12 Mb     (  15802)
        G-vector shells                 0.12 Mb     (  15802)
     Largest temporary arrays     est. size (Mb)     dimensions
        Auxiliary wavefunctions         1.64 Mb     (    359,  300)
        Each subspace H/S matrix        1.37 Mb     ( 300, 300)
        Each <psi_i|beta_j> matrix      0.10 Mb     (     88,   75)
        Arrays for rho mixing           4.39 Mb     (  36000,   8)

     Check: negative/imaginary core charge=   -0.000003    0.000000

     Initial potential from superposition of free atoms

     starting charge   49.99990, renormalised to   52.00000
     Starting wfc are   34 randomized atomic wfcs

     total cpu time spent up to now is        9.1 secs

     per-process dynamical memory:    40.1 Mb

     Self-consistent Calculation

     iteration #  1     ecut=    40.00 Ry     beta=0.70
     Davidson diagonalization with overlap
     ethr =  1.00E-02,  avg # of iterations =  5.0

     total cpu time spent up to now is       50.7 secs

     total energy              =    -453.73757647 Ry
     Harris-Foulkes estimate   =    -454.01030634 Ry
     estimated scf accuracy    <       3.63920480 Ry

     total magnetization       =    -0.00 Bohr mag/cell
     absolute magnetization    =     0.71 Bohr mag/cell

     iteration #  2     ecut=    40.00 Ry     beta=0.70
     Davidson diagonalization with overlap
     ethr =  7.00E-03,  avg # of iterations =  1.5

     total cpu time spent up to now is       65.3 secs

     total energy              =    -454.33535152 Ry
     Harris-Foulkes estimate   =    -454.79221647 Ry
     estimated scf accuracy    <       1.05231651 Ry

     total magnetization       =     0.00 Bohr mag/cell
     absolute magnetization    =     0.38 Bohr mag/cell

     iteration #  3     ecut=    40.00 Ry     beta=0.70
     Davidson diagonalization with overlap
     ethr =  2.02E-03,  avg # of iterations =  1.9

     total cpu time spent up to now is       80.3 secs

     total energy              =    -454.61413319 Ry
     Harris-Foulkes estimate   =    -454.60943788 Ry
     estimated scf accuracy    <       0.09906104 Ry

     total magnetization       =     0.00 Bohr mag/cell
     absolute magnetization    =     0.21 Bohr mag/cell

     iteration #  4     ecut=    40.00 Ry     beta=0.70
     Davidson diagonalization with overlap
     ethr =  1.91E-04,  avg # of iterations =  1.9

     total cpu time spent up to now is       95.2 secs

     total energy              =    -454.62544017 Ry
     Harris-Foulkes estimate   =    -454.62545037 Ry
     estimated scf accuracy    <       0.00048756 Ry

     total magnetization       =    -0.00 Bohr mag/cell
     absolute magnetization    =     0.06 Bohr mag/cell

     iteration #  5     ecut=    40.00 Ry     beta=0.70
     Davidson diagonalization with overlap
     ethr =  9.38E-07,  avg # of iterations =  4.9

     total cpu time spent up to now is      118.0 secs

     total energy              =    -454.62563323 Ry
     Harris-Foulkes estimate   =    -454.62558369 Ry
     estimated scf accuracy    <       0.00003881 Ry

     total magnetization       =    -0.00 Bohr mag/cell
     absolute magnetization    =     0.03 Bohr mag/cell

     iteration #  6     ecut=    40.00 Ry     beta=0.70
     Davidson diagonalization with overlap
     ethr =  7.46E-08,  avg # of iterations =  2.0

     total cpu time spent up to now is      133.0 secs

     End of self-consistent calculation

 ------ SPIN UP ------------


          k = 0.0000 0.0000 0.0000 (  1447 PWs)   bands (ev):

    -6.6131  -6.4744  -3.9507  -3.5590  -3.4428  -3.4428  -3.0386  -2.7191
    -2.5805  -2.5805  -2.5772  -2.5506  -2.5506   2.2200   7.2964  10.3416
    10.3416  11.2748  11.4423  13.8238  14.8847  14.8847  15.2322  15.7466
    15.7466  16.1025  22.5508  25.1105  25.1105  26.4415  28.5203  31.5054
    31.6300  32.8061  33.0426  33.0426  35.1452  38.9013  39.1755  39.1804
    39.2466  39.2466  39.5333  41.0079  41.0902  41.0902  41.1297  41.1297
    43.0706  43.5211  43.6336  44.0924  48.7637  48.7637  49.5969  50.8810
    50.8810  50.9724  54.0047  54.1274  54.1274  54.2162  57.6952  58.1771
    58.1771  58.5466  59.1611  60.8040  61.0607  61.0607  61.3641  61.3641
    61.8677  61.9132  62.6690

          k = 0.0000 0.0000 0.3103 (  1423 PWs)   bands (ev):

    -6.1710  -5.7736  -4.9750  -4.9750  -3.8028  -3.2847  -2.9497  -2.7960
    -2.7960  -2.7007  -2.5774  -0.5184  -0.5184   1.6923   6.6890  11.0408
    11.0408  11.2549  11.7439  11.8884  13.6118  13.6118  14.6160  15.2404
    15.2404  15.4922  24.3239  27.1039  27.1039  27.8114  27.8279  31.4264
    31.4301  31.5032  32.6493  32.6493  33.1838  36.7151  36.7151  37.4150
    39.1803  39.1815  39.8295  40.6952  40.6952  40.9115  41.6598  45.2615
    45.2615  46.4921  47.2142  47.4449  47.9002  47.9002  48.0614  49.8457
    49.8457  51.6544  53.2440  54.9560  55.7248  55.7248  57.0010  57.3756
    57.7785  58.0000  58.0000  59.4585  60.1569  60.1569  62.2545  62.8920
    63.1838  63.1838  65.6494

          k = 0.0000 0.0000 0.6207 (  1426 PWs)   bands (ev):

    -6.0343  -6.0343  -5.2575  -4.7533  -3.0622  -3.0622  -2.8862  -2.7616
    -2.7540  -2.6199  -2.5680  -0.2968   1.5320   1.5320   6.6834   8.7634
    10.7564  10.7564  11.7126  12.6562  12.9839  13.0998  13.0998  14.0727
    14.7046  14.7046  27.0880  27.5736  28.4622  29.3198  29.8177  29.8177
    31.1688  31.2299  31.2299  31.5542  32.3273  34.2936  35.7668  35.7668
    39.1812  39.1815  41.5937  41.5937  41.9207  42.6192  43.1760  45.1366
    45.7327  45.7327  45.7931  48.1147  48.1147  48.4531  51.6082  51.6082
    52.9233  53.2765  53.3858  54.3601  54.3601  55.7865  56.0380  57.2599
    57.2599  57.3140  57.6533  59.7287  59.7287  61.6514  61.7147  63.9137
    63.9137  65.2652  65.5524

          k = 0.0000 0.2000 0.0000 (  1438 PWs)   bands (ev):

    -6.5246  -6.3399  -4.3602  -3.7267  -3.4328  -3.4319  -3.0273  -2.9976
    -2.7565  -2.6128  -2.5661  -2.5650  -1.5958   2.0405   7.1941   9.8628
    10.9314  11.5104  11.8809  13.5937  14.2422  14.9882  15.2794  15.6855
    15.7214  15.8081  23.2685  25.1492  25.3564  26.5059  29.3785  31.1196
    32.0844  32.4983  32.5353  32.8190  35.5715  36.6391  37.9474  38.5596
    39.1804  39.1812  39.2841  39.7465  40.6137  41.3664  41.3718  41.4714
    43.4390  45.6737  46.0323  46.6845  47.0614  47.7062  49.8844  50.5648
    50.7756  51.7312  53.9646  54.8986  55.2552  55.6590  56.0514  56.7877
    57.7297  58.4943  58.6363  59.4291  59.9268  60.7077  61.1588  62.0175
    62.8204  63.9019  64.5885

          k = 0.0000 0.2000 0.3103 (  1422 PWs)   bands (ev):

    -6.1030  -5.6607  -5.1800  -5.0131  -3.6122  -3.2596  -2.9221  -2.9024
    -2.7838  -2.6710  -2.5993  -1.1368  -0.1506   1.8810   6.9314  10.1771
    10.4388  11.4600  11.8486  12.7019  13.6285  13.8078  14.2231  15.2095
    15.2907  15.7180  24.7721  26.9372  27.2485  27.9049  28.7019  30.9692
    31.2135  31.3623  32.2274  32.2728  33.9158  35.1577  35.2112  39.1248
    39.1792  39.1808  39.4752  40.4908  40.9140  41.2549  42.0378  44.3019
    44.6327  45.6884  46.7569  47.5153  48.7902  49.3761  50.0592  50.3549
    50.7457  52.1468  52.1804  54.2445  55.4633  56.3548  56.6906  57.0085
    57.6826  57.7582  57.8873  59.9511  60.6873  61.4891  61.9077  61.9816
    63.4799  63.8966  65.6296

          k = 0.0000 0.2000 0.6207 (  1427 PWs)   bands (ev):

    -6.2113  -6.1979  -4.9221  -4.3432  -3.2179  -3.1016  -2.9631  -2.7417
    -2.7146  -2.6215  -2.5464  -0.9439   1.6992   1.8728   7.0612   8.6631
     9.9975  10.7208  11.2528  11.3656  13.0434  13.8010  14.2107  14.2243
    14.6661  15.3780  27.0563  27.7651  28.3918  28.7181  29.7479  30.2452
    30.8490  30.9709  31.4459  31.8588  32.2203  33.2827  35.3192  36.1578
    39.1811  39.1811  41.3389  41.5124  42.4212  42.6321  44.1244  44.4745
    45.2347  45.4454  46.5305  48.2768  48.7064  48.7375  49.9527  52.0697
    52.5991  52.6765  53.7056  54.7089  55.9158  56.1657  56.5727  56.6590
    57.5781  58.2323  59.1256  59.5389  60.4097  61.0368  61.8178  63.6870
    64.1124  64.8113  64.8376

          k = 0.0000 0.4000 0.0000 (  1418 PWs)   bands (ev):

    -6.2950  -6.1446  -4.6966  -4.2927  -3.4151  -3.4143  -3.0514  -3.0491
    -2.8102  -2.7066  -2.5910  -2.5898  -0.1988   1.1739   7.6948   8.7875
    11.8509  12.1410  12.9475  12.9988  13.1836  14.5835  15.2376  15.4850
    15.6314  15.6635  24.7246  25.6430  25.6923  26.3242  30.3170  30.5436
    31.4578  32.0200  32.7795  33.6206  34.1493  35.7339  36.7585  38.1560
    38.3192  39.0605  39.1796  39.1808  40.7854  41.3388  41.5579  41.7378
    42.5696  44.3594  48.4820  48.8077  49.1063  50.1254  50.4151  50.6823
    51.8555  51.9433  53.4514  53.9026  55.3760  55.9167  56.2287  56.3412
    57.0780  57.2087  58.0915  59.3216  59.4166  60.5301  60.7404  61.2739
    62.0301  63.7398  64.8697

          k = 0.0000 0.4000 0.3103 (  1425 PWs)   bands (ev):

    -5.8981  -5.5716  -5.3887  -5.1476  -3.2198  -3.1979  -2.9623  -2.8684
    -2.7357  -2.6839  -2.6487  -2.1451   0.7184   1.5931   7.7972   9.1343
    10.0915  10.6660  12.2649  12.9742  13.9881  14.2082  14.4186  15.0920
    15.2122  15.6163  25.9056  27.0626  27.3408  27.9441  29.8093  29.9864
    30.9519  31.2140  31.6395  32.5241  32.9905  33.8080  35.3304  37.3786
    39.1795  39.1805  40.5798  40.6534  41.5513  41.7665  42.5050  43.2625
    44.6199  44.7249  45.9070  47.6390  48.8311  49.7036  50.9422  51.5277
    53.0137  53.1152  53.5081  55.6792  55.7009  56.2630  56.5099  56.7761
    57.7016  57.9846  58.4685  58.6046  59.7681  60.7509  61.9675  62.2986
    62.5446  63.3600  65.0749

          k = 0.0000 0.4000 0.6207 (  1432 PWs)   bands (ev):

    -6.3879  -6.3816  -4.3030  -3.7042  -3.4250  -3.1407  -3.0799  -2.7529
    -2.6678  -2.6367  -2.4907  -2.0448   2.0324   2.1617   8.0817   8.5752
     9.0333   9.6416  10.7160  10.8691  13.7036  13.8890  14.3638  14.3675
    15.7092  16.1171  27.1091  27.7222  28.1242  28.2849  29.7116  30.1756
    31.0813  31.1959  31.3767  31.5947  32.0811  32.2063  35.2470  36.0833
    39.1805  39.1810  41.6270  41.8628  42.6891  42.7741  43.5049  44.3985
    44.5452  45.4986  46.4788  46.5395  50.0249  50.3840  50.6994  51.7731
    52.8786  53.5402  53.9395  54.7567  55.9369  56.0728  56.3945  57.3660
    58.4458  58.7049  59.9842  60.7152  61.2026  61.6522  62.5211  62.5496
    63.7664  64.5168  64.8206

          k = 0.2000 0.2000 0.0000 (  1425 PWs)   bands (ev):

    -6.5470  -6.1868  -4.6465  -3.5953  -3.4463  -3.4135  -3.0367  -3.0045
    -2.6551  -2.6150  -2.5908  -2.5494  -1.5532   1.7111   7.3621  10.3703
    10.7361  11.7004  12.0940  13.3976  13.9138  14.8462  15.2086  15.5795
    15.6485  15.7059  23.8766  24.9850  25.9642  26.5571  29.8054  30.6530
    32.0652  32.3404  32.5654  32.6968  35.9726  36.2589  37.2216  37.5755
    38.3138  38.8592  39.1804  39.2069  39.4867  41.4253  43.0358  43.0803
    44.4448  45.7198  46.1701  47.1327  47.8428  47.9584  48.8128  49.0840
    51.6131  52.0089  54.6579  54.8015  55.0596  55.3956  55.9669  57.0253
    57.4393  58.8854  59.3090  59.6683  60.2333  60.9060  61.5765  62.1132
    62.3150  63.6243  64.8907

          k = 0.2000 0.2000 0.3103 (  1426 PWs)   bands (ev):

    -6.0805  -5.5385  -5.3689  -5.0061  -3.4779  -3.2056  -2.9548  -2.8999
    -2.7809  -2.6746  -2.6195  -0.8884  -0.5930   1.8264   7.2705   9.4802
    11.1392  11.2329  11.9953  12.6878  13.4010  13.7009  14.3931  14.9665
    15.6500  15.6811  25.1306  26.7750  27.7044  27.9520  28.7350  30.6631
    31.1925  31.5430  31.5687  32.4345  34.0446  34.1318  35.5514  38.6271
    39.0518  39.1813  39.1829  40.6378  40.7829  41.3139  42.4186  44.4911
    44.5694  46.0537  46.2669  47.4827  48.8489  49.0877  50.4718  51.1143
    51.8635  52.2192  53.3590  53.8367  55.5113  55.9788  56.1777  57.0629
    57.1873  57.8335  58.0427  60.3500  60.5704  61.6666  61.9796  62.6407
    63.0802  64.1961  65.5668

          k = 0.2000 0.2000 0.6207 (  1424 PWs)   bands (ev):

    -6.3809  -6.0586  -5.0819  -3.7901  -3.4375  -3.1114  -3.0867  -2.7137
    -2.6720  -2.6231  -2.5197  -1.0311   1.4646   2.1271   7.0720   8.7454
     9.3588  10.2917  10.6877  12.8749  12.9902  13.5756  14.2642  14.3499
    14.8355  15.7474  26.6211  27.2220  28.4233  29.2085  29.2930  30.3011
    30.5929  31.2724  31.6254  32.2560  32.3359  32.9902  34.5048  36.9686
    39.1804  39.1814  40.3681  40.7155  41.7957  43.6678  43.8158  45.3961
    45.4005  45.6874  47.5180  47.9533  48.9545  49.4962  49.8891  50.5489
    51.6852  53.4042  54.3921  54.9822  55.7528  56.2026  56.5744  56.9561
    57.7408  58.9612  59.2879  60.0092  60.0939  61.1441  62.5161  63.3138
    63.8078  64.9420  64.9426

          k = 0.2000 0.4000 0.0000 (  1425 PWs)   bands (ev):

    -6.4247  -6.1975  -4.5340  -3.9082  -3.4372  -3.4167  -3.0509  -3.0156
    -2.7729  -2.7125  -2.5896  -2.5638  -0.6171   0.6827   8.2395   9.4819
    11.7042  12.2110  12.7448  12.8649  13.2003  14.4632  14.9821  15.2382
    15.6235  15.6579  25.0923  25.4675  26.3944  26.5160  29.9115  30.1479
    31.2600  31.6566  33.1481  33.8404  34.3863  35.5570  37.0790  37.5649
    37.7685  38.4721  39.1399  39.1794  39.3579  41.5729  42.3347  43.9666
    44.0685  44.2171  47.3069  48.8007  48.8878  48.9279  49.4619  50.4092
    50.7028  52.9719  53.0831  54.2090  55.0703  55.7805  56.3020  58.0242
    58.2739  59.1407  59.3115  59.7790  59.9799  60.5074  60.8805  61.3871
    62.3600  63.1519  63.6226

          k = 0.2000 0.4000 0.3103 (  1424 PWs)   bands (ev):

    -5.9564  -5.7022  -5.2802  -5.0866  -3.2903  -3.1694  -2.9008  -2.8577
    -2.7444  -2.6734  -2.5179  -1.7744   0.1885   1.2021   8.2190   9.0879
    10.7052  10.7753  12.1228  12.6537  13.8095  14.1631  14.4867  14.8705
    15.4631  15.5444  26.0409  26.8455  27.6829  28.0257  29.3042  30.1739
    30.3052  30.8516  31.9859  32.6672  33.3158  34.3218  35.3815  37.4236
    39.1792  39.1804  39.5214  40.3490  40.9209  41.0878  43.0461  43.7840
    44.9318  45.8518  46.4350  47.4478  48.7026  48.7531  50.5915  52.4408
    52.6821  53.3880  54.1812  55.0240  55.5625  56.1139  56.6295  56.9284
    57.6537  58.5591  58.8759  59.6563  59.9363  60.8858  61.1794  62.1045
    62.4507  62.8428  64.6391

          k = 0.2000 0.4000 0.6207 (  1435 PWs)   bands (ev):

    -6.3913  -6.2270  -4.7459  -4.1158  -3.1438  -3.1148  -2.8702  -2.6797
    -2.6508  -2.6360  -2.3995  -1.6477   1.7037   2.0891   7.2208   7.7809
     9.7574  10.0586  10.6150  11.7439  13.9286  14.0973  14.4698  14.5942
    15.2417  15.9638  26.2653  26.6194  28.0881  28.1894  29.9906  30.5746
    30.9995  31.2567  31.7220  32.0739  32.3747  32.7870  34.8743  36.8488
    39.1786  39.1809  39.9512  40.5480  41.2685  42.1523  44.6785  45.4128
    45.6889  46.2434  47.1542  47.8996  49.7902  50.2635  50.8161  51.5348
    51.9786  53.4801  53.8017  54.5287  54.8777  56.3880  56.4694  57.6305
    58.5709  58.8484  59.9594  60.4696  60.8905  61.5403  62.1891  62.4242
    63.8867  64.7948  65.2835

          k = 0.4000 0.4000 0.0000 (  1444 PWs)   bands (ev):

    -6.4982  -6.3953  -3.9378  -3.5700  -3.4524  -3.4403  -3.0114  -2.9295
    -2.7413  -2.7266  -2.5627  -2.5474  -1.0557  -0.3664   9.5391  10.5465
    11.3432  12.2544  12.4017  12.6528  13.1653  13.8896  14.7462  14.8473
    15.6220  15.6389  25.8272  25.9670  26.8268  26.9068  29.2595  29.4825
    30.9997  31.2287  33.1312  33.6386  34.3935  35.0534  37.2926  37.3707
    37.8700  38.5216  39.1726  39.1788  40.1694  42.3573  42.8076  43.1916
    43.2168  45.1409  47.2439  47.5893  48.1446  48.1789  49.3539  49.6661
    51.5496  52.8227  53.8786  54.3477  55.7684  56.6154  57.0480  59.5990
    59.6078  59.8074  59.8950  60.2307  60.8080  60.8621  61.2051  62.1447
    62.3817  62.7151  62.8011

          k = 0.4000 0.4000 0.3103 (  1425 PWs)   bands (ev):

    -5.9878  -5.8948  -5.1220  -5.0533  -3.2952  -3.2458  -2.8373  -2.8343
    -2.7282  -2.6983  -1.8955  -1.0656  -0.7174   0.2212   8.9436   9.1487
    11.0734  11.3377  12.1059  12.1395  13.4915  14.2061  14.4404  14.7324
    15.3661  15.5247  26.4291  26.7461  27.8335  27.9795  29.3920  29.9138
    30.3951  30.6203  30.9539  31.6837  35.0871  35.4709  35.6211  37.4793
    38.3833  38.4933  39.1809  39.1817  41.3495  41.3988  43.2793  43.7093
    44.7201  45.1946  47.6312  47.7820  48.5553  49.2693  50.3597  51.1859
    52.6661  53.0347  55.0567  55.6013  56.2505  56.9656  57.2312  58.0939
    58.6992  58.8213  59.3062  59.8158  60.4481  60.8161  61.2355  61.2476
    61.5288  62.0568  62.6945

          k = 0.4000 0.4000 0.6207 (  1446 PWs)   bands (ev):

    -6.2409  -6.0964  -5.0610  -4.7470  -3.1095  -3.0918  -2.6590  -2.6451
    -2.6446  -2.6430  -1.7154  -1.2371   1.3585   1.6724   6.7354   6.9023
     9.7582   9.8003  11.9337  13.1921  13.8481  14.4418  14.6080  14.6140
    15.0235  15.3060  25.6026  25.8069  27.2950  27.3148  30.6371  31.0725
    31.2715  31.4931  31.6133  31.8419  33.5298  33.6821  35.4582  37.6879
    38.4136  39.1632  39.1802  39.2433  40.0563  40.9599  45.0300  45.8919
    46.6872  46.7387  48.3707  48.8544  49.7223  50.8487  51.0774  51.1650
    52.8997  53.1346  53.2379  53.9876  55.5668  56.3085  56.3110  57.5092
    57.7288  59.0528  59.4694  60.0578  60.1234  61.0671  61.8643  62.6455
    64.1897  64.3431  64.9024

 ------ SPIN DOWN ----------


          k = 0.0000 0.0000 0.0000 (  1447 PWs)   bands (ev):

    -6.6132  -6.4743  -3.9502  -3.5582  -3.4423  -3.4423  -3.0379  -2.7185
    -2.5817  -2.5817  -2.5767  -2.5501  -2.5501   2.2197   7.2963  10.3417
    10.3417  11.2740  11.4427  13.8219  14.8830  14.8830  15.2309  15.7447
    15.7447  16.1005  22.5518  25.1138  25.1138  26.4448  28.5231  31.5082
    31.6308  32.8064  33.0438  33.0438  35.1491  38.9022  39.1750  39.1799
    39.2507  39.2507  39.5372  41.0111  41.0934  41.0934  41.1335  41.1335
    43.0751  43.5240  43.6368  44.0974  48.7661  48.7661  49.6003  50.8835
    50.8835  50.9757  54.0076  54.1298  54.1298  54.2195  57.6983  58.1793
    58.1793  58.5480  59.1637  60.8060  61.0633  61.0633  61.3654  61.3654
    61.8713  61.9151  62.6721

          k = 0.0000 0.0000 0.3103 (  1423 PWs)   bands (ev):

    -6.1711  -5.7736  -4.9751  -4.9751  -3.8023  -3.2840  -2.9491  -2.7955
    -2.7955  -2.7001  -2.5768  -0.5191  -0.5191   1.6918   6.6893  11.0406
    11.0406  11.2545  11.7442  11.8875  13.6109  13.6109  14.6148  15.2386
    15.2386  15.4906  24.3243  27.1063  27.1063  27.8133  27.8310  31.4275
    31.4325  31.5042  32.6508  32.6508  33.1873  36.7187  36.7187  37.4173
    39.1798  39.1810  39.8319  40.6984  40.6984  40.9150  41.6631  45.2654
    45.2654  46.4966  47.2175  47.4494  47.9030  47.9030  48.0648  49.8481
    49.8481  51.6568  53.2475  54.9592  55.7274  55.7274  57.0023  57.3779
    57.7817  58.0016  58.0016  59.4613  60.1597  60.1597  62.2579  62.8937
    63.1857  63.1857  65.6514

          k = 0.0000 0.0000 0.6207 (  1426 PWs)   bands (ev):

    -6.0345  -6.0345  -5.2577  -4.7536  -3.0615  -3.0615  -2.8859  -2.7610
    -2.7534  -2.6194  -2.5675  -0.2972   1.5312   1.5312   6.6840   8.7635
    10.7563  10.7563  11.7122  12.6561  12.9833  13.0991  13.0991  14.0718
    14.7032  14.7032  27.0876  27.5766  28.4622  29.3220  29.8196  29.8196
    31.1706  31.2323  31.2323  31.5569  32.3293  34.2957  35.7690  35.7690
    39.1807  39.1810  41.5969  41.5969  41.9239  42.6226  43.1793  45.1399
    45.7361  45.7361  45.7961  48.1179  48.1179  48.4559  51.6110  51.6110
    52.9267  53.2799  53.3891  54.3625  54.3625  55.7892  56.0423  57.2629
    57.2629  57.3157  57.6569  59.7311  59.7311  61.6543  61.7161  63.9159
    63.9160  65.2684  65.5542

          k = 0.0000 0.2000 0.0000 (  1438 PWs)   bands (ev):

    -6.5247  -6.3398  -4.3601  -3.7263  -3.4323  -3.4315  -3.0268  -2.9972
    -2.7570  -2.6122  -2.5656  -2.5645  -1.5965   2.0398   7.1943   9.8630
    10.9313  11.5095  11.8809  13.5919  14.2408  14.9864  15.2779  15.6835
    15.7195  15.8063  23.2692  25.1525  25.3596  26.5088  29.3810  31.1210
    32.0871  32.4991  32.5371  32.8203  35.5752  36.6430  37.9488  38.5631
    39.1799  39.1808  39.2880  39.7495  40.6174  41.3702  41.3757  41.4746
    43.4421  45.6765  46.0360  46.6892  47.0645  47.7092  49.8870  50.5678
    50.7783  51.7342  53.9672  54.9017  55.2578  55.6617  56.0534  56.7904
    57.7319  58.4971  58.6391  59.4312  59.9287  60.7093  61.1611  62.0190
    62.8232  63.9040  64.5916

          k = 0.0000 0.2000 0.3103 (  1422 PWs)   bands (ev):

    -6.1032  -5.6607  -5.1801  -5.0132  -3.6117  -3.2589  -2.9215  -2.9018
    -2.7833  -2.6705  -2.5988  -1.1371  -0.1513   1.8801   6.9318  10.1771
    10.4387  11.4593  11.8488  12.7011  13.6275  13.8068  14.2219  15.2078
    15.2891  15.7162  24.7724  26.9398  27.2506  27.9065  28.7044  30.9710
    31.2153  31.3648  32.2287  32.2752  33.9187  35.1614  35.2140  39.1277
    39.1787  39.1803  39.4778  40.4938  40.9173  41.2583  42.0411  44.3057
    44.6368  45.6912  46.7602  47.5185  48.7941  49.3800  50.0619  50.3582
    50.7481  52.1491  52.1837  54.2471  55.4663  56.3577  56.6927  57.0104
    57.6849  57.7601  57.8895  59.9536  60.6899  61.4911  61.9101  61.9842
    63.4821  63.8997  65.6316

          k = 0.0000 0.2000 0.6207 (  1427 PWs)   bands (ev):

    -6.2115  -6.1980  -4.9223  -4.3436  -3.2174  -3.1009  -2.9627  -2.7412
    -2.7141  -2.6210  -2.5459  -0.9443   1.6984   1.8720   7.0617   8.6633
     9.9975  10.7206  11.2527  11.3651  13.0429  13.8003  14.2096  14.2233
    14.6648  15.3764  27.0565  27.7674  28.3921  28.7199  29.7503  30.2471
    30.8512  30.9731  31.4482  31.8610  32.2231  33.2848  35.3216  36.1605
    39.1806  39.1807  41.3415  41.5152  42.4246  42.6354  44.1274  44.4779
    45.2377  45.4487  46.5341  48.2799  48.7096  48.7405  49.9558  52.0723
    52.6023  52.6790  53.7088  54.7111  55.9186  56.1683  56.5754  56.6629
    57.5807  58.2346  59.1293  59.5419  60.4118  61.0393  61.8206  63.6888
    64.1142  64.8139  64.8403

          k = 0.0000 0.4000 0.0000 (  1418 PWs)   bands (ev):

    -6.2950  -6.1445  -4.6968  -4.2928  -3.4146  -3.4138  -3.0509  -3.0487
    -2.8097  -2.7061  -2.5905  -2.5893  -0.1995   1.1731   7.6952   8.7878
    11.8507  12.1400  12.9461  12.9981  13.1829  14.5822  15.2358  15.4833
    15.6294  15.6616  24.7252  25.6449  25.6954  26.3268  30.3197  30.5469
    31.4590  32.0209  32.7821  33.6229  34.1530  35.7360  36.7619  38.1594
    38.3222  39.0642  39.1791  39.1804  40.7885  41.3430  41.5619  41.7407
    42.5727  44.3625  48.4854  48.8103  49.1093  50.1281  50.4179  50.6857
    51.8584  51.9474  53.4535  53.9052  55.3786  55.9193  56.2314  56.3442
    57.0813  57.2115  58.0943  59.3242  59.4182  60.5314  60.7435  61.2758
    62.0330  63.7417  64.8718

          k = 0.0000 0.4000 0.3103 (  1425 PWs)   bands (ev):

    -5.8982  -5.5717  -5.3888  -5.1477  -3.2194  -3.1973  -2.9617  -2.8678
    -2.7351  -2.6833  -2.6481  -2.1450   0.7176   1.5922   7.7975   9.1344
    10.0915  10.6657  12.2648  12.9736  13.9867  14.2068  14.4175  15.0905
    15.2106  15.6145  25.9058  27.0633  27.3433  27.9460  29.8113  29.9892
    30.9548  31.2172  31.6410  32.5273  32.9933  33.8105  35.3335  37.3818
    39.1790  39.1800  40.5830  40.6561  41.5543  41.7696  42.5079  43.2660
    44.6230  44.7288  45.9104  47.6423  48.8344  49.7070  50.9451  51.5303
    53.0169  53.1174  53.5110  55.6820  55.7032  56.2653  56.5123  56.7795
    57.7036  57.9871  58.4712  58.6071  59.7699  60.7537  61.9704  62.3018
    62.5478  63.3622  65.0776

          k = 0.0000 0.4000 0.6207 (  1432 PWs)   bands (ev):

    -6.3880  -6.3818  -4.3031  -3.7045  -3.4249  -3.1400  -3.0792  -2.7525
    -2.6673  -2.6362  -2.4903  -2.0450   2.0317   2.1611   8.0818   8.5755
     9.0336   9.6415  10.7159  10.8690  13.7028  13.8882  14.3628  14.3663
    15.7074  16.1151  27.1106  27.7243  28.1253  28.2853  29.7146  30.1781
    31.0832  31.1985  31.3785  31.5966  32.0832  32.2091  35.2498  36.0863
    39.1800  39.1805  41.6294  41.8652  42.6923  42.7777  43.5082  44.4019
    44.5482  45.5022  46.4816  46.5424  50.0282  50.3866  50.7022  51.7757
    52.8816  53.5430  53.9419  54.7587  55.9400  56.0759  56.3971  57.3682
    58.4479  58.7072  59.9879  60.7183  61.2055  61.6552  62.5239  62.5525
    63.7690  64.5194  64.8237

          k = 0.2000 0.2000 0.0000 (  1425 PWs)   bands (ev):

    -6.5471  -6.1867  -4.6466  -3.5946  -3.4458  -3.4131  -3.0362  -3.0041
    -2.6551  -2.6154  -2.5903  -2.5489  -1.5534   1.7104   7.3624  10.3704
    10.7359  11.6995  12.0940  13.3959  13.9126  14.8445  15.2070  15.5778
    15.6465  15.7040  23.8771  24.9883  25.9671  26.5600  29.8074  30.6550
    32.0661  32.3419  32.5679  32.6996  35.9763  36.2627  37.2232  37.5789
    38.3177  38.8622  39.1799  39.2067  39.4895  41.4286  43.0391  43.0841
    44.4484  45.7227  46.1733  47.1353  47.8464  47.9624  48.8165  49.0870
    51.6156  52.0121  54.6606  54.8042  55.0615  55.3987  55.9692  57.0275
    57.4418  58.8882  59.3115  59.6703  60.2358  60.9072  61.5779  62.1164
    62.3175  63.6267  64.8934

          k = 0.2000 0.2000 0.3103 (  1426 PWs)   bands (ev):

    -6.0806  -5.5386  -5.3690  -5.0062  -3.4774  -3.2050  -2.9542  -2.8993
    -2.7803  -2.6741  -2.6190  -0.8886  -0.5935   1.8254   7.2708   9.4803
    11.1391  11.2323  11.9951  12.6870  13.4000  13.7001  14.3917  14.9650
    15.6483  15.6792  25.1309  26.7775  27.7064  27.9534  28.7374  30.6653
    31.1948  31.5453  31.5710  32.4369  34.0471  34.1345  35.5553  38.6299
    39.0549  39.1809  39.1824  40.6408  40.7854  41.3172  42.4219  44.4947
    44.5725  46.0570  46.2706  47.4857  48.8525  49.0910  50.4750  51.1177
    51.8668  52.2217  53.3613  53.8400  55.5135  55.9814  56.1802  57.0656
    57.1891  57.8358  58.0451  60.3524  60.5725  61.6684  61.9816  62.6439
    63.0823  64.1992  65.5689

          k = 0.2000 0.2000 0.6207 (  1424 PWs)   bands (ev):

    -6.3811  -6.0587  -5.0821  -3.7906  -3.4371  -3.1108  -3.0860  -2.7131
    -2.6715  -2.6225  -2.5192  -1.0315   1.4637   2.1264   7.0726   8.7455
     9.3588  10.2918  10.6875  12.8744  12.9894  13.5748  14.2631  14.3487
    14.8341  15.7457  26.6226  27.2234  28.4234  29.2106  29.2948  30.3040
    30.5951  31.2747  31.6271  32.2582  32.3390  32.9924  34.5076  36.9714
    39.1799  39.1810  40.3710  40.7183  41.7985  43.6708  43.8190  45.3995
    45.4033  45.6903  47.5215  47.9567  48.9577  49.4992  49.8926  50.5514
    51.6883  53.4067  54.3949  54.9847  55.7556  56.2045  56.5772  56.9602
    57.7431  58.9644  59.2909  60.0124  60.0956  61.1471  62.5188  63.3157
    63.8102  64.9449  64.9453

          k = 0.2000 0.4000 0.0000 (  1425 PWs)   bands (ev):

    -6.4247  -6.1975  -4.5342  -3.9081  -3.4367  -3.4162  -3.0504  -3.0155
    -2.7726  -2.7119  -2.5891  -2.5633  -0.6175   0.6821   8.2398   9.4819
    11.7040  12.2099  12.7443  12.8635  13.1995  14.4619  14.9805  15.2366
    15.6216  15.6560  25.0928  25.4699  26.3966  26.5186  29.9147  30.1510
    31.2613  31.6579  33.1513  33.8427  34.3898  35.5590  37.0824  37.5685
    37.7719  38.4751  39.1401  39.1789  39.3603  41.5759  42.3379  43.9703
    44.0717  44.2208  47.3099  48.8042  48.8910  48.9310  49.4646  50.4123
    50.7057  52.9755  53.0852  54.2122  55.0730  55.7832  56.3049  58.0266
    58.2769  59.1434  59.3142  59.7807  59.9818  60.5098  60.8820  61.3900
    62.3621  63.1537  63.6250

          k = 0.2000 0.4000 0.3103 (  1424 PWs)   bands (ev):

    -5.9565  -5.7023  -5.2804  -5.0868  -3.2897  -3.1689  -2.9002  -2.8571
    -2.7438  -2.6728  -2.5175  -1.7744   0.1879   1.2013   8.2191   9.0879
    10.7050  10.7750  12.1226  12.6532  13.8081  14.1621  14.4852  14.8690
    15.4614  15.5426  26.0411  26.8467  27.6845  28.0274  29.3065  30.1773
    30.3078  30.8543  31.9881  32.6698  33.3185  34.3251  35.3846  37.4266
    39.1787  39.1799  39.5246  40.3523  40.9236  41.0904  43.0490  43.7868
    44.9350  45.8552  46.4387  47.4511  48.7059  48.7562  50.5947  52.4435
    52.6852  53.3904  54.1839  55.0268  55.5650  56.1170  56.6318  56.9311
    57.6561  58.5615  58.8785  59.6585  59.9381  60.8890  61.1817  62.1075
    62.4530  62.8453  64.6417

          k = 0.2000 0.4000 0.6207 (  1435 PWs)   bands (ev):

    -6.3915  -6.2272  -4.7461  -4.1159  -3.1431  -3.1142  -2.8701  -2.6791
    -2.6502  -2.6355  -2.3992  -1.6479   1.7030   2.0884   7.2213   7.7814
     9.7575  10.0587  10.6149  11.7434  13.9276  14.0963  14.4686  14.5929
    15.2401  15.9619  26.2673  26.6208  28.0893  28.1916  29.9922  30.5766
    31.0016  31.2600  31.7234  32.0752  32.3775  32.7903  34.8773  36.8517
    39.1781  39.1804  39.9545  40.5505  41.2710  42.1557  44.6814  45.4155
    45.6916  46.2462  47.1574  47.9029  49.7933  50.2666  50.8187  51.5379
    51.9815  53.4826  53.8046  54.5316  54.8801  56.3908  56.4717  57.6329
    58.5736  58.8505  59.9626  60.4726  60.8932  61.5433  62.1915  62.4272
    63.8899  64.7978  65.2867

          k = 0.4000 0.4000 0.0000 (  1444 PWs)   bands (ev):

    -6.4982  -6.3953  -3.9377  -3.5694  -3.4519  -3.4398  -3.0113  -2.9300
    -2.7408  -2.7264  -2.5622  -2.5469  -1.0556  -0.3666   9.5390  10.5465
    11.3426  12.2539  12.4005  12.6514  13.1645  13.8883  14.7448  14.8460
    15.6202  15.6371  25.8283  25.9681  26.8288  26.9087  29.2636  29.4864
    31.0011  31.2304  33.1346  33.6420  34.3956  35.0553  37.2958  37.3737
    37.8732  38.5246  39.1722  39.1783  40.1724  42.3607  42.8106  43.1944
    43.2202  45.1439  47.2473  47.5927  48.1477  48.1823  49.3576  49.6697
    51.5517  52.8246  53.8815  54.3506  55.7721  56.6187  57.0519  59.6010
    59.6096  59.8096  59.8971  60.2326  60.8111  60.8638  61.2072  62.1462
    62.3842  62.7167  62.8031

          k = 0.4000 0.4000 0.3103 (  1425 PWs)   bands (ev):

    -5.9879  -5.8949  -5.1221  -5.0534  -3.2945  -3.2452  -2.8368  -2.8337
    -2.7276  -2.6977  -1.8954  -1.0655  -0.7179   0.2207   8.9435   9.1487
    11.0731  11.3376  12.1052  12.1391  13.4902  14.2046  14.4393  14.7310
    15.3644  15.5229  26.4294  26.7468  27.8353  27.9810  29.3948  29.9173
    30.3981  30.6229  30.9567  31.6863  35.0904  35.4746  35.6238  37.4816
    38.3864  38.4960  39.1804  39.1812  41.3524  41.4014  43.2823  43.7123
    44.7228  45.1973  47.6345  47.7853  48.5587  49.2730  50.3625  51.1890
    52.6689  53.0373  55.0591  55.6032  56.2543  56.9683  57.2337  58.0968
    58.7015  58.8244  59.3089  59.8176  60.4502  60.8198  61.2378  61.2499
    61.5315  62.0587  62.6972

          k = 0.4000 0.4000 0.6207 (  1446 PWs)   bands (ev):

    -6.2411  -6.0966  -5.0612  -4.7472  -3.1088  -3.0911  -2.6584  -2.6445
    -2.6441  -2.6425  -1.7156  -1.2374   1.3577   1.6717   6.7361   6.9030
     9.7586   9.8007  11.9330  13.1912  13.8469  14.4406  14.6065  14.6126
    15.0218  15.3044  25.6046  25.8084  27.2980  27.3172  30.6384  31.0736
    31.2740  31.4969  31.6146  31.8426  33.5336  33.6858  35.4608  37.6905
    38.4161  39.1634  39.1798  39.2451  40.0591  40.9629  45.0329  45.8947
    46.6891  46.7406  48.3738  48.8574  49.7256  50.8520  51.0803  51.1681
    52.9027  53.1379  53.2406  53.9904  55.5691  56.3106  56.3132  57.5121
    57.7313  59.0561  59.4722  60.0604  60.1263  61.0700  61.8677  62.6488
    64.1934  64.3467  64.9059

     the Fermi energy is    20.4180 ev

!    total energy              =    -454.62565198 Ry
     Harris-Foulkes estimate   =    -454.62565171 Ry
     estimated scf accuracy    <       0.00000094 Ry

     The total energy is the sum of the following terms:

     one-electron contribution =     -73.25245977 Ry
     hartree contribution      =      91.69930091 Ry
     xc contribution           =    -127.03199471 Ry
     ewald contribution        =    -346.04049841 Ry
     smearing contrib. (-TS)   =       0.00000000 Ry

     total magnetization       =     0.00 Bohr mag/cell
     absolute magnetization    =     0.00 Bohr mag/cell

     convergence has been achieved in   6 iterations

     Forces acting on atoms (Ry/au):

     atom    1 type  1   force =     0.00000000    0.00000000    0.00000000
     atom    2 type  1   force =     0.00000000    0.00000000    0.00000000
     atom    3 type  2   force =    -0.09806281   -0.09806281   -0.00000000
     atom    4 type  2   force =     0.09806281    0.09806281    0.00000000
     atom    5 type  2   force =    -0.09806281    0.09806281   -0.00000000
     atom    6 type  2   force =     0.09806281   -0.09806281    0.00000000

     Total force =     0.277364     Total SCF correction =     0.000094


     entering subroutine stress ...

          total   stress  (Ry/bohr**3)                   (kbar)     P= 2118.77
   0.01259718   0.00000000   0.00000000       1853.11      0.00      0.00
   0.00000000   0.01259718   0.00000000          0.00   1853.11      0.00
   0.00000000   0.00000000   0.01801490          0.00      0.00   2650.08

     Volume is kept fixed: isostatic pressure set to zero

     BFGS Geometry Optimization

     number of scf cycles    =   1
     number of bfgs steps    =   0

     enthalpy new            =    -454.6256519833 Ry

     new trust radius        =       0.3303959714 bohr
     new conv_thr            =       0.0000010000 Ry

     new unit-cell volume =    334.71740 a.u.^3 (    49.60000 Ang^3 )

CELL_PARAMETERS (alat=  8.03830103)
   0.956747509   0.000000000   0.000000000
   0.000000000   0.956747509   0.000000000
   0.000000000   0.000000000   0.704029413

ATOMIC_POSITIONS (crystal)
Sn0      0.000000000   0.000000000   0.000000000    0   0   0
Sn0      0.500000000   0.500000000   0.500000000    0   0   0
O1       0.292800556   0.292800556   0.000000000    1   1   0
O1      -0.292800556  -0.292800556   0.000000000    1   1   0
O1       0.792800556   0.207199444   0.500000000    1   1   0
O1       0.207199444   0.792800556   0.500000000    1   1   0


     NEW-OLD atomic charge density approx. for the potential
     NEW k-points:
        k(    1) = (   0.0000000   0.0000000   0.0000000), wk =   0.0080000
        k(    2) = (   0.0000000   0.0000000   0.2840790), wk =   0.0160000
        k(    3) = (   0.0000000   0.0000000   0.5681581), wk =   0.0160000
        k(    4) = (   0.0000000   0.2090416   0.0000000), wk =   0.0320000
        k(    5) = (   0.0000000   0.2090416   0.2840790), wk =   0.0640000
        k(    6) = (   0.0000000   0.2090416   0.5681581), wk =   0.0640000
        k(    7) = (   0.0000000   0.4180831   0.0000000), wk =   0.0320000
        k(    8) = (   0.0000000   0.4180831   0.2840790), wk =   0.0640000
        k(    9) = (   0.0000000   0.4180831   0.5681581), wk =   0.0640000
        k(   10) = (   0.2090416   0.2090416   0.0000000), wk =   0.0320000
        k(   11) = (   0.2090416   0.2090416   0.2840790), wk =   0.0640000
        k(   12) = (   0.2090416   0.2090416   0.5681581), wk =   0.0640000
        k(   13) = (   0.2090416   0.4180831   0.0000000), wk =   0.0640000
        k(   14) = (   0.2090416   0.4180831   0.2840790), wk =   0.1280000
        k(   15) = (   0.2090416   0.4180831   0.5681581), wk =   0.1280000
        k(   16) = (   0.4180831   0.4180831   0.0000000), wk =   0.0320000
        k(   17) = (   0.4180831   0.4180831   0.2840790), wk =   0.0640000
        k(   18) = (   0.4180831   0.4180831   0.5681581), wk =   0.0640000
        k(   19) = (   0.0000000   0.0000000   0.0000000), wk =   0.0080000
        k(   20) = (   0.0000000   0.0000000   0.2840790), wk =   0.0160000
        k(   21) = (   0.0000000   0.0000000   0.5681581), wk =   0.0160000
        k(   22) = (   0.0000000   0.2090416   0.0000000), wk =   0.0320000
        k(   23) = (   0.0000000   0.2090416   0.2840790), wk =   0.0640000
        k(   24) = (   0.0000000   0.2090416   0.5681581), wk =   0.0640000
        k(   25) = (   0.0000000   0.4180831   0.0000000), wk =   0.0320000
        k(   26) = (   0.0000000   0.4180831   0.2840790), wk =   0.0640000
        k(   27) = (   0.0000000   0.4180831   0.5681581), wk =   0.0640000
        k(   28) = (   0.2090416   0.2090416   0.0000000), wk =   0.0320000
        k(   29) = (   0.2090416   0.2090416   0.2840790), wk =   0.0640000
        k(   30) = (   0.2090416   0.2090416   0.5681581), wk =   0.0640000
        k(   31) = (   0.2090416   0.4180831   0.0000000), wk =   0.0640000
        k(   32) = (   0.2090416   0.4180831   0.2840790), wk =   0.1280000
        k(   33) = (   0.2090416   0.4180831   0.5681581), wk =   0.1280000
        k(   34) = (   0.4180831   0.4180831   0.0000000), wk =   0.0320000
        k(   35) = (   0.4180831   0.4180831   0.2840790), wk =   0.0640000
        k(   36) = (   0.4180831   0.4180831   0.5681581), wk =   0.0640000

     Check: negative/imaginary core charge=   -0.000003    0.000000

     total cpu time spent up to now is      157.2 secs

     per-process dynamical memory:    40.1 Mb

     Self-consistent Calculation

     iteration #  1     ecut=    40.00 Ry     beta=0.70
     Davidson diagonalization with overlap
     ethr =  1.00E-06,  avg # of iterations =  8.4

     total cpu time spent up to now is      204.1 secs

     total energy              =    -454.59390652 Ry
     Harris-Foulkes estimate   =    -454.60825993 Ry
     estimated scf accuracy    <       0.02558637 Ry

     total magnetization       =    -0.00 Bohr mag/cell
     absolute magnetization    =     0.00 Bohr mag/cell

     iteration #  2     ecut=    40.00 Ry     beta=0.70
     Davidson diagonalization with overlap
     ethr =  4.92E-05,  avg # of iterations =  1.9

     total cpu time spent up to now is      218.8 secs

     total energy              =    -454.59816807 Ry
     Harris-Foulkes estimate   =    -454.59823374 Ry
     estimated scf accuracy    <       0.00064985 Ry

     total magnetization       =     0.00 Bohr mag/cell
     absolute magnetization    =     0.00 Bohr mag/cell

     iteration #  3     ecut=    40.00 Ry     beta=0.70
     Davidson diagonalization with overlap
     ethr =  1.25E-06,  avg # of iterations =  3.2

     total cpu time spent up to now is      236.6 secs

     total energy              =    -454.59826875 Ry
     Harris-Foulkes estimate   =    -454.59829411 Ry
     estimated scf accuracy    <       0.00009541 Ry

     total magnetization       =    -0.00 Bohr mag/cell
     absolute magnetization    =     0.00 Bohr mag/cell

     iteration #  4     ecut=    40.00 Ry     beta=0.70
     Davidson diagonalization with overlap
     ethr =  1.83E-07,  avg # of iterations =  2.0

     total cpu time spent up to now is      251.5 secs

     total energy              =    -454.59829086 Ry
     Harris-Foulkes estimate   =    -454.59829953 Ry
     estimated scf accuracy    <       0.00002289 Ry

     total magnetization       =    -0.00 Bohr mag/cell
     absolute magnetization    =     0.00 Bohr mag/cell

     iteration #  5     ecut=    40.00 Ry     beta=0.70
     Davidson diagonalization with overlap
     ethr =  4.40E-08,  avg # of iterations =  1.5

     total cpu time spent up to now is      265.4 secs

     End of self-consistent calculation

 ------ SPIN UP ------------


          k = 0.0000 0.0000 0.0000 (  1447 PWs)   bands (ev):

    -6.6958  -6.3891  -3.9604  -3.3550  -3.2598  -3.2598  -3.1445  -2.6359
    -2.5927  -2.5927  -2.5212  -2.2890  -2.2890   3.2567   7.1847  10.3081
    11.0871  11.0871  11.5344  14.0990  15.0685  15.0685  15.0763  15.0763
    16.0045  16.0322  22.3243  23.6444  23.6444  24.9333  28.6820  28.7046
    32.5176  32.8027  33.4121  34.8762  34.8762  37.1153  39.0859  39.0930
    39.8330  39.8330  39.9649  40.5860  40.5860  41.7319  42.0053  43.4866
    43.4866  43.9525  44.0771  44.8311  48.7553  48.7553  50.1669  50.6612
    50.6612  50.7054  52.7824  54.2928  55.4097  55.4097  55.7489  57.0067
    57.0067  57.8836  58.2798  61.3149  61.7464  61.7464  62.6561  62.9840
    63.9974  64.0927  64.0927

          k = 0.0000 0.0000 0.2841 (  1423 PWs)   bands (ev):

    -6.5215  -6.1852  -4.2120  -4.2120  -3.5515  -3.1558  -3.0753  -2.8203
    -2.8203  -2.6638  -2.5061  -0.8794  -0.8794   2.5165   6.6640  11.0153
    11.5223  11.5223  11.8195  12.3078  13.5784  13.5784  15.1269  15.1269
    15.3462  15.3994  23.8112  25.4590  25.4590  26.1519  27.8487  30.3693
    32.1398  32.4661  32.5904  34.2086  34.2086  36.2757  37.2906  37.2906
    38.2382  39.0924  39.0969  41.5523  42.6803  43.0158  43.0158  45.0476
    45.0476  45.2594  46.3824  47.2158  47.2158  48.5261  48.8439  50.1002
    50.9985  51.0908  51.0908  55.1059  55.6125  55.6125  55.6247  56.4074
    57.9308  57.9308  59.7849  59.9671  59.9671  60.0436  60.3086  62.9946
    62.9946  65.2756  65.8198

          k = 0.0000 0.0000 0.5682 (  1426 PWs)   bands (ev):

    -6.1701  -5.9894  -4.9709  -4.9709  -2.9529  -2.9529  -2.9144  -2.7798
    -2.7572  -2.6342  -1.9912   0.3075   0.4777   0.4777   7.2163   9.3826
    11.3780  11.3780  12.1804  12.6743  13.0244  13.0244  13.6746  14.0085
    14.5783  14.5783  26.3317  27.5120  28.2669  28.2669  28.5459  30.4305
    31.9039  32.0671  32.1558  32.8027  32.8027  33.9943  36.3677  36.3677
    38.5240  39.0922  39.0927  42.5270  42.5270  43.0501  43.6413  44.5878
    45.8655  46.4747  46.4747  46.8751  49.0584  49.0584  50.3030  51.0707
    51.0707  53.1609  55.0386  55.0386  55.1716  55.1948  55.4090  55.4105
    55.4105  57.1789  57.9272  59.0721  59.0721  59.6699  60.7135  63.2470
    63.2470  63.6011  64.4007

          k = 0.0000 0.2090 0.0000 (  1438 PWs)   bands (ev):

    -6.5792  -6.1975  -4.4854  -3.5691  -3.2311  -3.2271  -3.1035  -2.7656
    -2.6694  -2.6355  -2.6303  -2.5206  -1.2151   3.0926   7.1218  10.5373
    10.6357  11.5334  11.9474  13.7623  14.3990  14.9469  15.0465  15.2038
    15.5857  16.0200  23.1403  24.0372  24.0722  25.2504  29.4021  29.4327
    32.3560  33.0248  33.0346  34.3061  34.3903  35.9831  37.2097  38.2348
    39.0821  39.0929  39.2559  40.2761  40.3178  41.5078  42.6863  43.3192
    44.2357  44.7859  46.2716  47.4449  48.4796  48.5439  48.7143  50.4473
    51.2161  51.8799  53.7955  54.1417  55.6088  55.6494  56.2031  56.5789
    57.4235  58.1263  58.8326  59.5621  61.1603  61.1750  62.1087  62.1659
    63.0157  63.2972  63.6707

          k = 0.0000 0.2090 0.2841 (  1422 PWs)   bands (ev):

    -6.4528  -6.1179  -4.3408  -4.2282  -3.5229  -3.1393  -3.0383  -2.8735
    -2.8215  -2.6823  -2.5517  -1.4218  -0.3083   2.6128   6.9630  10.0510
    10.9020  11.7346  11.8485  13.0015  13.3912  13.8104  14.4594  15.1389
    15.3717  16.0556  24.3671  25.6861  25.7758  26.4398  28.4675  30.6832
    31.9209  32.0166  32.3009  33.3053  34.6248  34.7612  35.7134  37.9868
    39.0918  39.0940  39.6185  40.9184  41.6286  42.6822  42.9995  43.5522
    44.5981  45.4606  46.9632  47.1441  48.7785  49.5092  50.1480  50.7752
    51.4534  51.4772  52.0101  53.8307  54.7280  55.5531  55.9937  56.8334
    57.1359  57.6662  59.2033  59.5278  60.6734  61.0603  61.6487  62.7489
    63.7836  63.9559  64.8489

          k = 0.0000 0.2090 0.5682 (  1427 PWs)   bands (ev):

    -6.2848  -6.1767  -4.6697  -4.5353  -3.0301  -3.0295  -2.8619  -2.7457
    -2.7318  -2.6300  -2.3288  -0.9204   0.8931   1.4537   7.5068   9.1723
    10.1940  11.1995  11.5310  11.6282  13.2653  13.9724  14.2668  14.4685
    14.5288  15.5931  26.5430  27.6438  28.4355  28.5095  28.6965  30.1543
    31.3784  31.7043  31.8138  32.6700  33.0444  33.3211  35.8522  36.5473
    39.0923  39.0924  39.5208  41.6846  42.2901  43.2741  43.9045  44.7725
    45.1540  46.4234  46.5429  47.2943  47.9203  49.4918  50.4498  51.0155
    51.6612  52.5019  52.7545  54.1943  55.0673  55.3472  56.0228  57.0582
    57.3896  58.1609  58.2738  58.9809  60.2222  60.9506  62.3017  62.9231
    63.3305  63.7121  64.5881

          k = 0.0000 0.4181 0.0000 (  1418 PWs)   bands (ev):

    -6.2469  -5.9157  -4.9344  -4.3078  -3.1714  -3.1660  -2.9812  -2.8526
    -2.7321  -2.7167  -2.7117  -2.7052   0.4032   2.0407   7.8655   9.2554
    11.5308  12.1524  12.7340  13.1621  13.2113  14.5225  14.9031  14.9716
    15.5347  15.8725  24.5776  24.8145  25.0434  25.6357  30.8779  31.2101
    31.5732  32.3186  32.5850  33.4993  33.5627  34.4289  34.4891  36.4406
    39.0880  39.0924  39.2765  39.8873  41.2357  41.5412  42.5717  42.8186
    43.5255  43.6919  47.5256  48.6253  49.5546  49.9612  50.4836  51.2665
    51.9603  53.0712  54.0711  54.8896  55.3023  55.8570  56.4078  56.5845
    57.1261  57.2545  58.2065  58.5691  60.8025  62.1734  62.4859  62.6195
    62.7344  63.0268  65.1301

          k = 0.0000 0.4181 0.2841 (  1425 PWs)   bands (ev):

    -6.2711  -6.0968  -4.4237  -4.3053  -3.3348  -3.1352  -2.9652  -2.9319
    -2.7959  -2.7372  -2.6158  -2.3107   0.9122   2.1120   7.9737   9.4814
     9.9300  10.6881  12.0816  12.6541  14.2292  14.3862  14.4898  15.1367
    15.3357  15.9979  25.6293  26.3242  26.4368  26.8109  29.7661  31.0201
    31.1576  31.6114  31.8037  32.0031  32.9927  33.0853  36.1531  37.4944
    39.0921  39.0932  40.3061  40.6772  41.8569  42.8820  43.0864  43.3380
    43.6514  43.9450  45.6736  47.6677  49.3143  49.6373  51.3107  51.3591
    51.5834  52.6203  54.5517  55.1263  55.2756  55.6075  56.6686  56.8067
    57.4267  58.5706  58.7572  58.7981  60.9717  61.4228  61.9999  62.2491
    62.7396  63.4730  64.9521

          k = 0.0000 0.4181 0.5682 (  1432 PWs)   bands (ev):

    -6.4108  -6.3792  -4.0151  -3.6460  -3.2470  -3.0832  -2.9757  -2.8139
    -2.7445  -2.7167  -2.5359  -2.1912   1.6238   1.9344   8.3632   8.8352
     9.0607   9.7386  11.0965  11.2054  13.9344  14.0079  14.4164  14.5145
    16.0441  16.4925  27.2188  28.0720  28.2676  28.6141  29.1974  30.1926
    31.0104  31.1258  31.3497  31.6436  32.0293  32.2673  36.5918  37.3438
    39.0920  39.0924  40.7397  41.1943  42.2240  42.8882  44.0085  44.2525
    45.1765  45.5408  46.2846  46.5056  48.0220  49.0839  49.4726  50.6588
    51.4536  51.8849  53.8548  54.1918  55.8050  56.8744  57.1946  58.2202
    58.5907  59.2340  59.9018  60.3744  61.0079  61.3027  61.5266  62.9304
    64.0937  64.1497  64.9588

          k = 0.2090 0.2090 0.0000 (  1425 PWs)   bands (ev):

    -6.5830  -5.9761  -4.8699  -3.3984  -3.2699  -3.1645  -3.0806  -2.8022
    -2.7110  -2.6970  -2.5879  -2.3953  -1.1961   2.6899   7.3893  10.9040
    11.1585  11.2584  11.9847  13.4581  14.0238  14.9077  14.9992  15.1003
    15.5069  15.6812  23.8035  24.2361  24.7780  25.4339  29.8446  29.9930
    31.9028  32.5629  33.5176  33.8081  34.3011  35.1959  36.5900  37.9127
    38.2718  38.8083  39.0824  39.0935  39.8944  40.1914  44.2478  45.1210
    45.4853  45.7933  46.1476  47.1563  47.3697  48.7258  49.2775  50.1160
    50.5919  53.0815  53.3453  54.5878  55.7669  56.1596  56.9137  56.9380
    57.9761  58.2160  58.3394  60.0071  60.3465  60.5372  61.2511  62.5928
    62.8725  64.0996  65.3262

          k = 0.2090 0.2090 0.2841 (  1426 PWs)   bands (ev):

    -6.4263  -6.0798  -4.4127  -4.2653  -3.4333  -3.1193  -3.0070  -2.8996
    -2.8153  -2.6961  -2.6152  -0.9717  -0.7632   2.4740   7.3494   9.3158
    11.4805  11.7178  11.7882  12.9561  13.0940  13.7234  14.5758  15.0439
    15.6140  16.1142  24.7736  25.8172  26.2825  26.6063  28.6467  30.8100
    31.2074  31.7535  32.4578  33.3866  33.9053  34.4513  36.0798  37.7205
    38.9141  39.0936  39.0951  40.7860  41.0430  41.5792  41.9894  45.0457
    45.2591  46.0086  46.6588  47.4587  48.9002  49.7628  50.2693  51.0009
    51.0726  52.3301  53.3823  53.9351  54.8267  55.7209  56.3160  56.3858
    56.5245  57.6932  58.4733  58.5297  61.0715  62.0614  62.0939  63.3583
    63.6390  64.0049  65.4177

          k = 0.2090 0.2090 0.5682 (  1424 PWs)   bands (ev):

    -6.4030  -6.0566  -5.0187  -3.7704  -3.1187  -3.0183  -3.0170  -2.8302
    -2.7345  -2.6650  -2.5239  -0.5347   0.3976   1.8462   7.4013   8.9530
     9.6853  10.5331  10.9178  12.9693  13.6339  13.8039  14.4679  14.4684
    14.8764  15.9666  26.4203  27.7375  27.9657  28.6163  28.7811  30.1462
    30.7138  31.4297  32.2256  32.4711  33.5765  33.7379  34.9740  36.8644
    39.0922  39.0926  40.2104  41.2799  41.3379  42.6287  43.7592  44.4129
    45.3626  46.7098  46.9548  47.7387  48.6177  48.8354  50.2571  50.2814
    51.8423  52.1317  53.8583  54.0838  55.3482  55.4061  56.5321  57.0084
    57.3254  58.4999  59.3538  59.3738  60.3887  61.6650  61.9424  62.9692
    63.3149  63.5371  64.3981

          k = 0.2090 0.4181 0.0000 (  1425 PWs)   bands (ev):

    -6.4083  -6.0471  -4.6772  -3.8256  -3.2438  -3.1759  -2.9641  -2.8450
    -2.7450  -2.7039  -2.6702  -2.6252  -0.1157   1.4217   8.5463  10.0524
    11.6386  11.9985  12.6194  12.6327  13.3659  14.5510  14.8877  14.9342
    15.2648  15.4711  25.0287  25.1710  25.5290  25.7853  30.4395  30.9877
    31.4868  31.9416  32.4291  33.3955  33.8692  34.6738  34.8681  36.6115
    38.0996  38.2786  39.0893  39.0941  40.4013  41.2276  43.1384  43.1795
    45.1041  45.5657  47.2372  48.0516  49.1832  49.2163  49.7013  50.4783
    51.8033  52.7328  54.9856  55.2219  55.6366  56.3079  56.9033  57.3050
    57.4783  57.9222  58.0658  59.2676  61.3525  62.0563  62.2581  62.9604
    63.3616  64.0443  65.1517

          k = 0.2090 0.4181 0.2841 (  1424 PWs)   bands (ev):

    -6.3086  -6.1367  -4.4095  -4.3177  -3.2427  -3.1165  -2.9469  -2.9224
    -2.7998  -2.7429  -2.5138  -1.8776   0.3415   1.6375   8.3456   8.9999
    10.8946  11.1035  11.7569  12.2270  14.1890  14.3864  14.6363  15.1434
    15.4598  15.7647  25.7341  26.3449  26.8714  26.9925  29.1542  30.2106
    30.6517  31.1264  32.3335  32.7013  33.3885  34.2828  35.8064  37.1140
    39.0923  39.0931  39.3590  40.0596  40.9075  41.0697  42.9204  43.7960
    44.8890  45.5219  47.1543  47.4187  48.6640  49.7902  51.3918  51.6010
    52.0147  52.3331  53.8762  54.6000  55.6461  56.2096  56.5774  56.9075
    57.3533  58.2526  58.4751  59.7295  60.1356  61.4895  62.0317  62.4406
    64.0511  64.5637  65.2576

          k = 0.2090 0.4181 0.5682 (  1435 PWs)   bands (ev):

    -6.3916  -6.2128  -4.6829  -3.9479  -3.0717  -3.0413  -2.8187  -2.7798
    -2.7428  -2.6634  -2.3981  -1.3760   1.1187   1.8332   7.3397   7.7822
     9.9009  10.1536  10.9354  12.0982  14.2009  14.3783  14.6871  14.8336
    15.6305  16.3359  26.4645  27.0519  27.8393  28.4189  29.2821  29.8320
    31.0028  31.2090  31.8762  32.2628  32.9090  33.3121  36.1493  37.8255
    39.0909  39.0920  40.4091  40.8163  41.0716  41.7642  43.1026  43.8855
    45.9797  46.3440  46.4647  47.3807  48.2524  48.3627  49.8944  51.0043
    52.7153  53.2593  53.9056  54.4798  54.9883  56.0031  56.9633  57.8584
    58.4669  58.5114  59.6972  60.5423  60.8655  61.5792  62.0093  63.1348
    63.4781  64.2773  64.7060

          k = 0.4181 0.4181 0.0000 (  1444 PWs)   bands (ev):

    -6.4977  -6.3552  -3.8793  -3.3653  -3.2867  -3.2530  -2.9028  -2.8035
    -2.7910  -2.6403  -2.6203  -2.5801  -0.6572   0.1536  10.1206  11.4996
    11.5095  11.9313  12.3109  12.4192  12.6283  13.7885  14.8644  14.8782
    15.1409  15.1609  25.7426  25.9667  26.2337  26.2956  29.8904  30.0889
    31.6607  32.1471  32.2174  32.8788  33.0431  33.6505  35.8269  36.6462
    37.7292  37.8421  39.0909  39.0927  41.1897  41.3347  42.1888  44.1707
    44.7701  45.9447  46.4349  46.5373  48.3672  48.9503  50.3676  51.4979
    52.1326  52.1659  55.3790  55.7871  56.0754  56.1889  57.7879  58.1746
    58.4225  58.4722  60.0160  60.8075  60.8373  62.0481  62.3226  62.9500
    63.4896  63.8826  64.5779

          k = 0.4181 0.4181 0.2841 (  1425 PWs)   bands (ev):

    -6.3239  -6.2476  -4.3688  -4.3409  -3.1429  -3.1073  -2.8912  -2.8857
    -2.7952  -2.7679  -1.9411  -1.1255  -0.5640   0.4863   8.8695   8.9448
    11.2810  11.4782  11.6306  12.2575  14.0027  14.6553  14.8084  15.1185
    15.1469  15.4501  26.0333  26.3434  27.4732  27.4812  28.8243  29.3779
    30.3296  30.6826  32.1204  32.3718  35.1074  35.2716  35.9688  36.1883
    37.4622  38.1803  39.0932  39.0945  41.6099  41.7509  44.0482  44.1031
    44.5533  44.8818  46.6919  46.7943  49.5093  50.5879  50.9707  51.3933
    52.3707  52.5239  53.4282  54.0754  55.9494  56.2521  57.2726  57.6724
    58.6704  58.8623  59.7907  59.9126  60.5614  61.6843  62.4531  62.4838
    63.4099  63.7728  63.9366

          k = 0.4181 0.4181 0.5682 (  1446 PWs)   bands (ev):

    -6.2051  -6.0322  -5.0905  -4.7220  -3.0187  -3.0041  -2.7710  -2.7513
    -2.6864  -2.6678  -1.3324  -0.3249   0.2723   1.1715   6.7395   6.8531
     9.7023   9.7540  12.2928  13.2473  14.7545  14.8198  15.0128  15.1229
    15.2268  15.7647  25.6578  25.8540  27.2380  27.4453  29.8599  30.0954
    31.1336  31.2095  32.2039  32.4188  34.0990  34.3599  36.6750  38.7546
    38.9867  39.0842  39.0920  39.3398  40.4463  41.3642  42.6167  43.5521
    45.9906  46.0401  46.8754  46.9490  48.5372  49.0476  51.6856  51.7282
    52.0970  53.8585  53.8809  54.2712  56.1146  56.6018  56.7788  56.9291
    58.5700  59.6515  60.3419  60.4139  60.8139  61.1083  61.6185  62.7611
    62.7848  62.9999  63.5175

 ------ SPIN DOWN ----------


          k = 0.0000 0.0000 0.0000 (  1447 PWs)   bands (ev):

    -6.6958  -6.3892  -3.9604  -3.3550  -3.2597  -3.2597  -3.1445  -2.6359
    -2.5927  -2.5927  -2.5212  -2.2890  -2.2890   3.2567   7.1847  10.3081
    11.0871  11.0871  11.5344  14.0990  15.0685  15.0685  15.0762  15.0762
    16.0045  16.0322  22.3243  23.6444  23.6444  24.9334  28.6820  28.7046
    32.5177  32.8027  33.4121  34.8762  34.8762  37.1153  39.0860  39.0930
    39.8330  39.8330  39.9650  40.5860  40.5860  41.7320  42.0053  43.4866
    43.4866  43.9525  44.0771  44.8312  48.7553  48.7553  50.1669  50.6612
    50.6612  50.7054  52.7824  54.2928  55.4097  55.4097  55.7489  57.0068
    57.0068  57.8836  58.2798  61.3150  61.7464  61.7464  62.6562  62.9840
    63.9974  64.0927  64.0927

          k = 0.0000 0.0000 0.2841 (  1423 PWs)   bands (ev):

    -6.5215  -6.1852  -4.2121  -4.2121  -3.5515  -3.1558  -3.0753  -2.8203
    -2.8203  -2.6638  -2.5061  -0.8794  -0.8794   2.5165   6.6640  11.0153
    11.5223  11.5223  11.8195  12.3078  13.5784  13.5784  15.1269  15.1269
    15.3461  15.3994  23.8112  25.4590  25.4590  26.1519  27.8488  30.3693
    32.1398  32.4661  32.5904  34.2086  34.2086  36.2757  37.2906  37.2906
    38.2382  39.0924  39.0969  41.5523  42.6804  43.0158  43.0158  45.0476
    45.0476  45.2595  46.3825  47.2158  47.2158  48.5261  48.8439  50.1002
    50.9985  51.0908  51.0908  55.1059  55.6125  55.6125  55.6248  56.4074
    57.9309  57.9309  59.7849  59.9671  59.9671  60.0436  60.3086  62.9947
    62.9947  65.2757  65.8198

          k = 0.0000 0.0000 0.5682 (  1426 PWs)   bands (ev):

    -6.1701  -5.9894  -4.9709  -4.9709  -2.9529  -2.9529  -2.9144  -2.7798
    -2.7572  -2.6342  -1.9912   0.3075   0.4777   0.4777   7.2163   9.3826
    11.3780  11.3780  12.1804  12.6743  13.0243  13.0243  13.6746  14.0085
    14.5783  14.5783  26.3317  27.5120  28.2669  28.2669  28.5459  30.4306
    31.9039  32.0671  32.1558  32.8027  32.8027  33.9943  36.3677  36.3677
    38.5240  39.0922  39.0927  42.5270  42.5270  43.0502  43.6413  44.5878
    45.8656  46.4747  46.4747  46.8751  49.0585  49.0585  50.3030  51.0707
    51.0707  53.1609  55.0386  55.0386  55.1716  55.1949  55.4091  55.4105
    55.4105  57.1789  57.9272  59.0722  59.0722  59.6699  60.7135  63.2470
    63.2470  63.6011  64.4008

          k = 0.0000 0.2090 0.0000 (  1438 PWs)   bands (ev):

    -6.5792  -6.1975  -4.4854  -3.5691  -3.2311  -3.2270  -3.1035  -2.7656
    -2.6694  -2.6355  -2.6303  -2.5206  -1.2152   3.0926   7.1218  10.5373
    10.6357  11.5333  11.9473  13.7623  14.3989  14.9468  15.0465  15.2038
    15.5856  16.0200  23.1403  24.0373  24.0722  25.2505  29.4021  29.4327
    32.3560  33.0248  33.0346  34.3061  34.3903  35.9831  37.2097  38.2348
    39.0821  39.0929  39.2560  40.2761  40.3179  41.5078  42.6863  43.3192
    44.2357  44.7859  46.2716  47.4449  48.4796  48.5440  48.7143  50.4474
    51.2161  51.8799  53.7955  54.1417  55.6089  55.6494  56.2031  56.5789
    57.4236  58.1263  58.8327  59.5622  61.1603  61.1750  62.1087  62.1659
    63.0157  63.2972  63.6707

          k = 0.0000 0.2090 0.2841 (  1422 PWs)   bands (ev):

    -6.4528  -6.1179  -4.3408  -4.2282  -3.5229  -3.1393  -3.0383  -2.8735
    -2.8215  -2.6823  -2.5517  -1.4218  -0.3083   2.6127   6.9630  10.0509
    10.9020  11.7346  11.8485  13.0014  13.3912  13.8104  14.4594  15.1389
    15.3717  16.0556  24.3671  25.6861  25.7758  26.4398  28.4676  30.6832
    31.9209  32.0166  32.3009  33.3053  34.6248  34.7613  35.7135  37.9869
    39.0918  39.0940  39.6185  40.9184  41.6286  42.6822  42.9995  43.5523
    44.5981  45.4606  46.9632  47.1441  48.7786  49.5092  50.1480  50.7753
    51.4535  51.4772  52.0102  53.8307  54.7280  55.5531  55.9937  56.8335
    57.1359  57.6663  59.2033  59.5279  60.6734  61.0603  61.6487  62.7490
    63.7836  63.9559  64.8489

          k = 0.0000 0.2090 0.5682 (  1427 PWs)   bands (ev):

    -6.2848  -6.1767  -4.6697  -4.5353  -3.0301  -3.0295  -2.8619  -2.7457
    -2.7318  -2.6300  -2.3288  -0.9204   0.8931   1.4537   7.5068   9.1723
    10.1940  11.1995  11.5310  11.6282  13.2653  13.9723  14.2667  14.4684
    14.5287  15.5930  26.5430  27.6438  28.4355  28.5095  28.6965  30.1544
    31.3784  31.7043  31.8139  32.6700  33.0444  33.3211  35.8522  36.5473
    39.0923  39.0924  39.5209  41.6846  42.2901  43.2741  43.9045  44.7725
    45.1540  46.4234  46.5429  47.2943  47.9203  49.4918  50.4499  51.0155
    51.6612  52.5020  52.7545  54.1944  55.0674  55.3472  56.0228  57.0582
    57.3896  58.1609  58.2738  58.9809  60.2223  60.9507  62.3017  62.9232
    63.3305  63.7121  64.5881

          k = 0.0000 0.4181 0.0000 (  1418 PWs)   bands (ev):

    -6.2469  -5.9157  -4.9344  -4.3078  -3.1714  -3.1660  -2.9812  -2.8526
    -2.7321  -2.7167  -2.7117  -2.7052   0.4032   2.0407   7.8655   9.2554
    11.5308  12.1524  12.7340  13.1621  13.2113  14.5225  14.9030  14.9716
    15.5347  15.8725  24.5776  24.8146  25.0434  25.6357  30.8779  31.2101
    31.5733  32.3186  32.5850  33.4993  33.5627  34.4289  34.4892  36.4407
    39.0880  39.0924  39.2766  39.8873  41.2357  41.5413  42.5717  42.8187
    43.5255  43.6920  47.5257  48.6253  49.5546  49.9612  50.4836  51.2665
    51.9603  53.0712  54.0711  54.8896  55.3023  55.8570  56.4078  56.5845
    57.1261  57.2545  58.2065  58.5691  60.8026  62.1734  62.4859  62.6195
    62.7344  63.0268  65.1301

          k = 0.0000 0.4181 0.2841 (  1425 PWs)   bands (ev):

    -6.2711  -6.0968  -4.4237  -4.3053  -3.3348  -3.1352  -2.9652  -2.9319
    -2.7959  -2.7372  -2.6158  -2.3107   0.9122   2.1120   7.9737   9.4814
     9.9300  10.6881  12.0816  12.6541  14.2291  14.3862  14.4898  15.1367
    15.3356  15.9979  25.6293  26.3243  26.4368  26.8109  29.7661  31.0201
    31.1576  31.6115  31.8037  32.0032  32.9928  33.0853  36.1531  37.4944
    39.0921  39.0932  40.3061  40.6772  41.8570  42.8820  43.0864  43.3380
    43.6515  43.9450  45.6736  47.6678  49.3143  49.6373  51.3107  51.3591
    51.5834  52.6203  54.5517  55.1263  55.2756  55.6075  56.6686  56.8068
    57.4268  58.5706  58.7572  58.7981  60.9717  61.4229  61.9999  62.2491
    62.7397  63.4730  64.9522

          k = 0.0000 0.4181 0.5682 (  1432 PWs)   bands (ev):

    -6.4108  -6.3792  -4.0151  -3.6460  -3.2470  -3.0832  -2.9757  -2.8139
    -2.7445  -2.7167  -2.5359  -2.1912   1.6237   1.9344   8.3632   8.8352
     9.0606   9.7386  11.0965  11.2054  13.9344  14.0079  14.4163  14.5145
    16.0441  16.4924  27.2188  28.0720  28.2676  28.6141  29.1974  30.1926
    31.0104  31.1258  31.3497  31.6436  32.0293  32.2673  36.5918  37.3438
    39.0920  39.0924  40.7397  41.1944  42.2240  42.8882  44.0085  44.2526
    45.1765  45.5408  46.2847  46.5056  48.0220  49.0840  49.4727  50.6589
    51.4536  51.8849  53.8548  54.1918  55.8050  56.8744  57.1946  58.2202
    58.5907  59.2340  59.9018  60.3744  61.0079  61.3027  61.5266  62.9304
    64.0938  64.1497  64.9588

          k = 0.2090 0.2090 0.0000 (  1425 PWs)   bands (ev):

    -6.5830  -5.9761  -4.8699  -3.3984  -3.2699  -3.1645  -3.0806  -2.8022
    -2.7110  -2.6970  -2.5879  -2.3953  -1.1961   2.6898   7.3893  10.9040
    11.1585  11.2584  11.9847  13.4580  14.0238  14.9077  14.9991  15.1002
    15.5068  15.6811  23.8035  24.2362  24.7780  25.4339  29.8446  29.9930
    31.9029  32.5629  33.5177  33.8081  34.3012  35.1959  36.5900  37.9127
    38.2719  38.8084  39.0825  39.0935  39.8945  40.1915  44.2479  45.1210
    45.4854  45.7933  46.1476  47.1563  47.3697  48.7259  49.2776  50.1161
    50.5919  53.0815  53.3453  54.5878  55.7669  56.1596  56.9137  56.9380
    57.9761  58.2160  58.3394  60.0071  60.3465  60.5372  61.2511  62.5928
    62.8725  64.0996  65.3262

          k = 0.2090 0.2090 0.2841 (  1426 PWs)   bands (ev):

    -6.4264  -6.0798  -4.4127  -4.2653  -3.4333  -3.1193  -3.0070  -2.8996
    -2.8153  -2.6961  -2.6152  -0.9717  -0.7632   2.4740   7.3494   9.3158
    11.4805  11.7178  11.7882  12.9561  13.0940  13.7233  14.5758  15.0439
    15.6139  16.1142  24.7736  25.8173  26.2825  26.6063  28.6467  30.8100
    31.2074  31.7535  32.4578  33.3866  33.9053  34.4513  36.0798  37.7205
    38.9141  39.0936  39.0951  40.7860  41.0430  41.5793  41.9894  45.0458
    45.2591  46.0086  46.6588  47.4587  48.9002  49.7629  50.2694  51.0009
    51.0727  52.3302  53.3824  53.9351  54.8267  55.7210  56.3160  56.3859
    56.5246  57.6932  58.4733  58.5297  61.0716  62.0615  62.0939  63.3583
    63.6390  64.0049  65.4177

          k = 0.2090 0.2090 0.5682 (  1424 PWs)   bands (ev):

    -6.4030  -6.0566  -5.0187  -3.7704  -3.1187  -3.0183  -3.0170  -2.8302
    -2.7345  -2.6650  -2.5239  -0.5347   0.3976   1.8462   7.4013   8.9530
     9.6853  10.5331  10.9178  12.9693  13.6338  13.8038  14.4679  14.4684
    14.8764  15.9666  26.4203  27.7375  27.9657  28.6163  28.7811  30.1462
    30.7139  31.4298  32.2257  32.4711  33.5766  33.7379  34.9740  36.8644
    39.0922  39.0926  40.2104  41.2799  41.3379  42.6288  43.7593  44.4129
    45.3626  46.7098  46.9548  47.7388  48.6178  48.8354  50.2571  50.2814
    51.8423  52.1318  53.8583  54.0838  55.3482  55.4061  56.5321  57.0084
    57.3254  58.4999  59.3538  59.3738  60.3887  61.6650  61.9424  62.9692
    63.3149  63.5371  64.3981

          k = 0.2090 0.4181 0.0000 (  1425 PWs)   bands (ev):

    -6.4083  -6.0471  -4.6772  -3.8257  -3.2438  -3.1759  -2.9641  -2.8450
    -2.7450  -2.7039  -2.6702  -2.6252  -0.1157   1.4217   8.5463  10.0524
    11.6386  11.9985  12.6194  12.6327  13.3659  14.5509  14.8877  14.9341
    15.2647  15.4710  25.0287  25.1710  25.5291  25.7853  30.4396  30.9877
    31.4868  31.9416  32.4291  33.3955  33.8692  34.6738  34.8681  36.6115
    38.0996  38.2787  39.0893  39.0941  40.4014  41.2277  43.1384  43.1795
    45.1041  45.5657  47.2373  48.0517  49.1832  49.2163  49.7013  50.4783
    51.8033  52.7329  54.9857  55.2219  55.6367  56.3079  56.9033  57.3050
    57.4783  57.9223  58.0659  59.2677  61.3525  62.0563  62.2582  62.9605
    63.3617  64.0443  65.1518

          k = 0.2090 0.4181 0.2841 (  1424 PWs)   bands (ev):

    -6.3086  -6.1368  -4.4095  -4.3177  -3.2427  -3.1165  -2.9469  -2.9224
    -2.7998  -2.7429  -2.5138  -1.8776   0.3415   1.6375   8.3456   8.9999
    10.8946  11.1035  11.7569  12.2270  14.1890  14.3864  14.6362  15.1434
    15.4597  15.7647  25.7340  26.3449  26.8714  26.9925  29.1542  30.2106
    30.6517  31.1264  32.3335  32.7013  33.3885  34.2828  35.8065  37.1140
    39.0923  39.0931  39.3590  40.0596  40.9075  41.0698  42.9204  43.7961
    44.8890  45.5219  47.1543  47.4188  48.6640  49.7903  51.3918  51.6010
    52.0148  52.3331  53.8763  54.6001  55.6462  56.2096  56.5774  56.9075
    57.3533  58.2526  58.4751  59.7295  60.1356  61.4896  62.0317  62.4406
    64.0511  64.5637  65.2576

          k = 0.2090 0.4181 0.5682 (  1435 PWs)   bands (ev):

    -6.3916  -6.2128  -4.6829  -3.9479  -3.0717  -3.0413  -2.8187  -2.7798
    -2.7428  -2.6634  -2.3981  -1.3760   1.1187   1.8332   7.3397   7.7822
     9.9009  10.1536  10.9354  12.0982  14.2009  14.3783  14.6870  14.8336
    15.6305  16.3358  26.4645  27.0519  27.8393  28.4189  29.2821  29.8320
    31.0028  31.2090  31.8762  32.2628  32.9090  33.3121  36.1493  37.8256
    39.0909  39.0920  40.4091  40.8163  41.0716  41.7642  43.1026  43.8855
    45.9797  46.3440  46.4647  47.3807  48.2524  48.3627  49.8945  51.0044
    52.7153  53.2594  53.9057  54.4798  54.9884  56.0031  56.9633  57.8585
    58.4669  58.5114  59.6973  60.5423  60.8656  61.5792  62.0093  63.1349
    63.4781  64.2773  64.7060

          k = 0.4181 0.4181 0.0000 (  1444 PWs)   bands (ev):

    -6.4977  -6.3552  -3.8793  -3.3653  -3.2867  -3.2530  -2.9028  -2.8035
    -2.7910  -2.6403  -2.6203  -2.5801  -0.6572   0.1535  10.1206  11.4996
    11.5094  11.9313  12.3109  12.4192  12.6282  13.7885  14.8644  14.8781
    15.1408  15.1609  25.7426  25.9667  26.2337  26.2956  29.8905  30.0889
    31.6607  32.1471  32.2174  32.8788  33.0431  33.6505  35.8269  36.6463
    37.7292  37.8421  39.0909  39.0927  41.1897  41.3348  42.1889  44.1707
    44.7702  45.9447  46.4350  46.5373  48.3672  48.9504  50.3676  51.4979
    52.1326  52.1659  55.3790  55.7871  56.0754  56.1889  57.7879  58.1746
    58.4225  58.4722  60.0160  60.8075  60.8373  62.0482  62.3226  62.9501
    63.4896  63.8826  64.5779

          k = 0.4181 0.4181 0.2841 (  1425 PWs)   bands (ev):

    -6.3239  -6.2476  -4.3689  -4.3409  -3.1429  -3.1073  -2.8911  -2.8857
    -2.7952  -2.7679  -1.9411  -1.1255  -0.5640   0.4863   8.8695   8.9447
    11.2810  11.4782  11.6305  12.2574  14.0027  14.6553  14.8084  15.1185
    15.1469  15.4501  26.0333  26.3434  27.4732  27.4812  28.8243  29.3780
    30.3296  30.6827  32.1205  32.3718  35.1075  35.2717  35.9689  36.1884
    37.4622  38.1804  39.0932  39.0945  41.6100  41.7510  44.0483  44.1032
    44.5534  44.8818  46.6919  46.7944  49.5093  50.5879  50.9708  51.3934
    52.3707  52.5239  53.4282  54.0754  55.9494  56.2521  57.2726  57.6725
    58.6705  58.8623  59.7907  59.9127  60.5615  61.6844  62.4531  62.4838
    63.4099  63.7728  63.9367

          k = 0.4181 0.4181 0.5682 (  1446 PWs)   bands (ev):

    -6.2051  -6.0322  -5.0906  -4.7220  -3.0187  -3.0041  -2.7710  -2.7513
    -2.6864  -2.6678  -1.3324  -0.3249   0.2723   1.1715   6.7395   6.8531
     9.7023   9.7540  12.2928  13.2473  14.7545  14.8198  15.0128  15.1229
    15.2268  15.7647  25.6578  25.8540  27.2381  27.4454  29.8599  30.0954
    31.1336  31.2095  32.2039  32.4189  34.0990  34.3600  36.6751  38.7547
    38.9868  39.0842  39.0920  39.3398  40.4463  41.3643  42.6167  43.5521
    45.9907  46.0401  46.8754  46.9490  48.5373  49.0476  51.6856  51.7282
    52.0970  53.8585  53.8810  54.2712  56.1146  56.6018  56.7788  56.9291
    58.5701  59.6515  60.3419  60.4140  60.8139  61.1083  61.6185  62.7611
    62.7848  62.9999  63.5175

     the Fermi energy is    20.4295 ev

!    total energy              =    -454.59829537 Ry
     Harris-Foulkes estimate   =    -454.59829525 Ry
     estimated scf accuracy    <       0.00000008 Ry

     The total energy is the sum of the following terms:

     one-electron contribution =     -65.56613487 Ry
     hartree contribution      =      87.95435819 Ry
     xc contribution           =    -126.92580148 Ry
     ewald contribution        =    -350.06071720 Ry
     smearing contrib. (-TS)   =       0.00000000 Ry

     total magnetization       =     0.00 Bohr mag/cell
     absolute magnetization    =     0.00 Bohr mag/cell

     convergence has been achieved in   5 iterations

     Forces acting on atoms (Ry/au):

     atom    1 type  1   force =     0.00000000    0.00000000    0.00000000
     atom    2 type  1   force =     0.00000000    0.00000000    0.00000000
     atom    3 type  2   force =     0.21798719    0.21798719    0.00000000
     atom    4 type  2   force =    -0.21798719   -0.21798719    0.00000000
     atom    5 type  2   force =     0.21798719   -0.21798719    0.00000000
     atom    6 type  2   force =    -0.21798719    0.21798719    0.00000000

     Total force =     0.616561     Total SCF correction =     0.000052


     entering subroutine stress ...

          total   stress  (Ry/bohr**3)                   (kbar)     P= 2076.60
   0.01557059   0.00000000   0.00000000       2290.51      0.00      0.00
   0.00000000   0.01557059   0.00000000          0.00   2290.51      0.00
   0.00000000   0.00000000   0.01120825          0.00      0.00   1648.79

     Volume is kept fixed: isostatic pressure set to zero

     number of scf cycles    =   2
     number of bfgs steps    =   1

     enthalpy old            =    -454.6256519833 Ry
     enthalpy new            =    -454.5982953664 Ry

     CASE: enthalpy_new > enthalpy_old

     new trust radius        =       0.1390558842 bohr
     new conv_thr            =       0.0000010000 Ry

     new unit-cell volume =    334.71740 a.u.^3 (    49.60000 Ang^3 )

CELL_PARAMETERS (alat=  8.03830103)
   0.980103610   0.000000000   0.000000000
   0.000000000   0.980103610   0.000000000
   0.000000000   0.000000000   0.670874842

ATOMIC_POSITIONS (crystal)
Sn0      0.000000000   0.000000000   0.000000000    0   0   0
Sn0      0.500000000   0.500000000   0.500000000    0   0   0
O1       0.299522097   0.299522097   0.000000000    1   1   0
O1      -0.299522097  -0.299522097   0.000000000    1   1   0
O1       0.799522097   0.200477903   0.500000000    1   1   0
O1       0.200477903   0.799522097   0.500000000    1   1   0


     NEW-OLD atomic charge density approx. for the potential
     NEW k-points:
        k(    1) = (   0.0000000   0.0000000   0.0000000), wk =   0.0080000
        k(    2) = (   0.0000000   0.0000000   0.2981182), wk =   0.0160000
        k(    3) = (   0.0000000   0.0000000   0.5962364), wk =   0.0160000
        k(    4) = (   0.0000000   0.2040601   0.0000000), wk =   0.0320000
        k(    5) = (   0.0000000   0.2040601   0.2981182), wk =   0.0640000
        k(    6) = (   0.0000000   0.2040601   0.5962364), wk =   0.0640000
        k(    7) = (   0.0000000   0.4081201   0.0000000), wk =   0.0320000
        k(    8) = (   0.0000000   0.4081201   0.2981182), wk =   0.0640000
        k(    9) = (   0.0000000   0.4081201   0.5962364), wk =   0.0640000
        k(   10) = (   0.2040601   0.2040601   0.0000000), wk =   0.0320000
        k(   11) = (   0.2040601   0.2040601   0.2981182), wk =   0.0640000
        k(   12) = (   0.2040601   0.2040601   0.5962364), wk =   0.0640000
        k(   13) = (   0.2040601   0.4081201   0.0000000), wk =   0.0640000
        k(   14) = (   0.2040601   0.4081201   0.2981182), wk =   0.1280000
        k(   15) = (   0.2040601   0.4081201   0.5962364), wk =   0.1280000
        k(   16) = (   0.4081201   0.4081201   0.0000000), wk =   0.0320000
        k(   17) = (   0.4081201   0.4081201   0.2981182), wk =   0.0640000
        k(   18) = (   0.4081201   0.4081201   0.5962364), wk =   0.0640000
        k(   19) = (   0.0000000   0.0000000   0.0000000), wk =   0.0080000
        k(   20) = (   0.0000000   0.0000000   0.2981182), wk =   0.0160000
        k(   21) = (   0.0000000   0.0000000   0.5962364), wk =   0.0160000
        k(   22) = (   0.0000000   0.2040601   0.0000000), wk =   0.0320000
        k(   23) = (   0.0000000   0.2040601   0.2981182), wk =   0.0640000
        k(   24) = (   0.0000000   0.2040601   0.5962364), wk =   0.0640000
        k(   25) = (   0.0000000   0.4081201   0.0000000), wk =   0.0320000
        k(   26) = (   0.0000000   0.4081201   0.2981182), wk =   0.0640000
        k(   27) = (   0.0000000   0.4081201   0.5962364), wk =   0.0640000
        k(   28) = (   0.2040601   0.2040601   0.0000000), wk =   0.0320000
        k(   29) = (   0.2040601   0.2040601   0.2981182), wk =   0.0640000
        k(   30) = (   0.2040601   0.2040601   0.5962364), wk =   0.0640000
        k(   31) = (   0.2040601   0.4081201   0.0000000), wk =   0.0640000
        k(   32) = (   0.2040601   0.4081201   0.2981182), wk =   0.1280000
[...]
    62.9614  63.8612  64.6658

          k = 0.4226 0.4226 0.0000 (  1425 PWs)   bands (ev):

    -6.1834  -6.0292  -3.8238  -3.3766  -3.3609  -3.3369  -2.7747  -2.7026
    -2.5199  -2.5147  -2.4894  -2.2819  -0.5593   0.2303  10.3267  11.3609
    11.4131  11.4930  11.8518  12.3047  13.6392  14.3556  15.0696  15.0742
    15.2465  15.3359  24.7511  24.9138  25.8266  26.1039  29.6499  29.6784
    32.0352  32.2597  32.4851  33.1800  34.6866  34.8907  35.1664  35.5349
    37.9799  38.1071  39.0424  39.0440  40.7975  41.7941  41.8343  44.7018
    45.6411  46.1026  46.8283  47.1017  47.3246  48.3573  48.5655  49.7522
    52.9610  53.1696  55.6708  56.7304  56.7779  56.7908  57.7926  58.1018
    58.2291  58.5296  59.6411  60.8502  61.2537  61.9821  62.4015  62.6506
    63.4027  63.4840  63.9886

          k = 0.4226 0.4226 0.2780 (  1420 PWs)   bands (ev):

    -5.8851  -5.7654  -4.4809  -4.3586  -3.1913  -3.1557  -2.7654  -2.7297
    -2.6975  -2.6637  -1.7157  -0.7704  -0.6076   0.5207   8.6737   8.7116
    11.2697  11.3794  11.9515  12.8709  13.6755  14.6000  14.8947  15.2714
    15.5151  15.6340  25.5503  25.7306  26.9194  27.1751  28.7436  29.0700
    31.0103  31.1176  31.9774  32.6550  35.2891  35.7881  36.1712  37.2762
    37.7468  37.8442  39.0433  39.0456  41.2233  41.5722  43.9120  43.9693
    44.4150  44.9573  46.4707  46.5600  48.8332  49.7238  51.1939  51.5412
    52.6416  53.0213  53.6782  54.8306  55.3621  55.9417  57.4684  57.7786
    58.2287  58.9894  59.6604  60.1065  61.3039  61.4425  61.9903  62.2490
    64.0947  64.2766  64.8678

          k = 0.4226 0.4226 0.5560 (  1441 PWs)   bands (ev):

    -5.6761  -5.3711  -5.1318  -4.6610  -2.8789  -2.8630  -2.7056  -2.6998
    -2.6809  -2.6594  -1.4482  -0.8293   0.8220   1.3075   6.5376   6.7247
     9.7573   9.8454  12.3909  13.7574  14.4290  14.8658  14.9361  15.1141
    15.2381  15.8826  26.2495  26.5636  27.0810  27.1762  29.0950  29.5172
    31.0412  31.2010  32.6135  32.9728  34.5352  34.8578  36.7523  38.5390
    38.9321  39.0409  39.0465  40.1019  40.4568  40.7311  42.4673  42.9758
    45.2906  45.4269  46.7475  46.9361  48.5209  49.3028  51.4765  51.8288
    52.3733  54.2610  54.8596  55.0677  55.3281  56.0330  57.6952  57.8082
    58.2595  58.9111  59.3032  60.4088  60.4250  61.1496  61.4827  62.3366
    62.5585  62.9834  63.5368

 ------ SPIN DOWN ----------


          k = 0.0000 0.0000 0.0000 (  1419 PWs)   bands (ev):

    -6.3468  -6.1482  -3.8098  -3.3999  -3.3352  -3.3352  -3.0368  -2.5645
    -2.4988  -2.4988  -2.4435  -1.8821  -1.8821   2.8104   7.8480   9.9181
    11.6132  11.6132  11.7646  13.5365  15.0405  15.2807  15.2807  15.3341
    15.3341  16.0124  22.0219  23.7123  23.7123  23.9586  29.2257  29.9721
    32.0766  32.1748  34.1273  34.3009  34.3009  37.0982  38.8191  38.8191
    39.0416  39.0445  39.3897  40.4219  40.6454  40.6454  43.8260  43.8260
    43.8945  45.0444  45.2225  45.9419  48.4226  48.4226  49.8481  50.4035
    51.8381  51.8381  52.5798  54.0774  54.5776  54.5776  57.4333  57.4488
    58.4515  58.4515  59.1382  60.0943  60.9058  60.9058  62.6806  63.1278
    63.1369  64.3363  65.2143

          k = 0.0000 0.0000 0.2780 (  1440 PWs)   bands (ev):

    -6.0818  -5.7377  -4.2463  -4.2463  -3.6428  -3.2140  -2.9718  -2.6750
    -2.6750  -2.5896  -2.4451  -0.4843  -0.4843   1.9781   6.8918  10.9944
    11.4949  12.0232  12.1064  12.1064  13.5513  13.5513  14.8640  15.3945
    15.4997  15.4997  23.5882  25.2494  25.3934  25.3934  28.1144  31.7824
    31.9969  32.1038  32.3406  33.2352  33.2352  36.8978  37.7523  37.7523
    39.0422  39.0438  39.1321  41.2721  42.3461  42.3461  44.0875  45.0482
    45.0482  46.2044  46.7508  47.1296  47.1296  48.6765  49.1868  49.2849
    49.5741  51.9666  51.9666  54.6419  54.6419  56.1854  56.1975  56.4633
    58.7226  58.7226  58.8371  59.9889  60.0044  60.5482  60.5482  62.4772
    62.4772  64.3076  64.8449

          k = 0.0000 0.0000 0.5560 (  1436 PWs)   bands (ev):

    -5.5331  -5.2517  -5.0186  -5.0186  -2.8212  -2.8073  -2.8073  -2.8064
    -2.6943  -2.6750  -2.4124  -0.2939   1.0618   1.0618   6.8994   8.6368
    11.4210  11.4210  12.2980  12.8097  13.5060  13.5060  13.6371  14.0607
    14.8280  14.8280  26.3243  27.1659  27.8504  27.8504  28.1646  29.7601
    31.5410  31.6713  31.7189  31.7189  34.6289  36.8899  37.5076  37.5076
    37.7000  39.0432  39.0437  41.6921  42.2226  42.2226  44.6992  45.3376
    45.9744  45.9744  47.0974  47.3772  49.1216  49.1216  50.1168  50.6766
    50.6766  52.5814  55.0162  55.0162  55.0206  55.0323  55.4495  55.6447
    55.6447  55.8951  57.9783  58.6908  58.9853  58.9853  60.1936  61.3267
    62.9969  62.9969  63.5382

          k = 0.0000 0.2113 0.0000 (  1433 PWs)   bands (ev):

    -6.2222  -5.9265  -4.3350  -3.6111  -3.3165  -3.3134  -2.9952  -2.6048
    -2.5742  -2.5309  -2.5267  -2.1434  -0.9628   2.7320   7.8155  10.2318
    10.9739  11.6119  12.4582  13.1758  14.5270  15.2099  15.2563  15.3052
    15.4469  15.7348  22.8379  23.8923  23.9299  24.4692  29.8829  30.6791
    31.7626  32.5577  33.6656  33.9818  34.0129  36.2039  36.9866  37.3238
    39.0430  39.0436  39.2510  39.4433  40.9192  41.7953  43.0239  43.7718
    44.1433  45.1931  45.6096  48.1277  48.4584  48.9130  49.1612  51.1304
    51.5708  52.7793  53.1071  54.7598  54.9682  55.3956  55.6273  57.2417
    57.3434  58.3606  58.6033  60.5645  61.3394  61.5706  62.3044  62.5440
    63.0285  63.7508  64.3861

          k = 0.0000 0.2113 0.2780 (  1438 PWs)   bands (ev):

    -5.9872  -5.5767  -4.5765  -4.3235  -3.4730  -3.1838  -2.9346  -2.7301
    -2.6783  -2.6018  -2.4552  -1.0758  -0.0078   2.1955   7.2550  10.1337
    10.9878  11.4251  12.0082  13.2728  13.5581  13.8479  14.2910  15.3936
    15.4794  16.0073  24.1325  25.4385  25.4683  25.7812  28.8193  31.5442
    31.5532  32.0425  32.2358  32.8086  34.0122  35.7125  36.3810  37.6876
    39.0414  39.0433  40.3783  40.6241  41.5629  42.1351  42.9828  44.4876
    44.5588  45.7194  46.9586  47.4615  48.5839  49.2725  49.7510  50.5960
    50.9805  51.8800  52.7301  53.7047  54.8573  55.4577  56.0053  56.1691
    57.7959  58.1425  59.4712  59.9261  60.6546  61.0470  61.7140  61.9562
    63.3007  64.3751  64.7570

          k = 0.0000 0.2113 0.5560 (  1426 PWs)   bands (ev):

    -5.7314  -5.6172  -4.6585  -4.4238  -2.9438  -2.9197  -2.7915  -2.7770
    -2.7044  -2.6597  -2.4529  -0.9893   1.2988   1.4962   7.2654   8.5586
    10.5038  11.2655  11.5684  11.8004  13.3529  13.9527  14.3398  14.4557
    15.1090  15.8878  26.4362  27.2877  27.8573  27.9932  28.7304  29.8334
    30.8823  31.2036  31.8321  32.2825  34.2977  35.2376  36.7957  37.1908
    39.0431  39.0435  39.2650  41.5023  42.3482  42.4792  44.6256  44.7842
    44.8810  46.7362  46.8970  47.6174  47.7652  49.3768  50.1701  50.4747
    51.6223  52.3232  53.0186  54.4324  54.5640  55.4595  55.6575  56.2333
    57.2835  58.0661  58.4798  58.8606  59.6108  60.5762  61.8349  61.8463
    61.9528  63.2015  64.0434

          k = 0.0000 0.4226 0.0000 (  1430 PWs)   bands (ev):

    -5.8560  -5.4554  -4.9679  -4.3106  -3.2803  -3.2769  -2.8727  -2.7247
    -2.5829  -2.5783  -2.5614  -2.4485   0.5377   1.9616   8.4075   9.6689
    11.0837  12.1428  12.2109  13.2020  13.5703  14.6716  15.1640  15.2014
    15.6567  15.7256  24.2122  24.4694  24.5983  25.0210  31.1273  31.5333
    31.5710  32.4437  32.7527  33.7280  33.9081  34.0384  35.2211  35.6259
    39.0354  39.0424  39.3762  40.5088  40.8815  41.6225  42.6025  42.7999
    43.6183  44.0139  46.2543  48.2342  49.1535  50.5400  51.2018  51.6951
    52.0329  53.0246  54.2724  54.5136  55.0179  56.1827  56.3065  56.4199
    57.0934  57.5435  57.8510  60.5882  62.1031  62.1781  62.5555  63.0589
    63.1519  63.3467  66.0060

          k = 0.0000 0.4226 0.2780 (  1435 PWs)   bands (ev):

    -5.7112  -5.3686  -4.9067  -4.5764  -3.2328  -3.1410  -2.8503  -2.7835
    -2.6628  -2.6294  -2.4499  -2.0001   1.0357   1.9746   8.3228   9.7218
     9.8423  10.2028  12.2710  12.9233  14.2220  14.2337  14.5438  15.1738
    15.6505  16.0965  25.3101  25.9189  25.9756  26.0979  30.1866  30.8259
    31.2025  31.4346  32.0480  32.0552  34.3255  34.3388  35.6747  37.0726
    39.0412  39.0424  40.0753  40.6319  41.5284  42.7490  43.2469  43.6239
    43.9091  44.2778  45.7992  47.3611  49.3587  49.6478  50.5956  50.9789
    51.4146  52.5214  54.3864  55.0280  55.6024  55.8434  56.4631  56.5400
    57.2013  58.4409  59.2417  59.9210  60.8619  61.1758  62.4552  62.5433
    62.7052  63.6603  65.2214

          k = 0.0000 0.4226 0.5560 (  1431 PWs)   bands (ev):

    -5.8936  -5.8608  -4.0420  -3.5907  -3.3348  -3.0033  -2.8872  -2.7738
    -2.6510  -2.6469  -2.4656  -2.0749   1.7369   1.8695   8.2752   8.5626
     9.2556   9.9225  11.0962  11.1518  13.9308  13.9658  14.4561  14.6259
    16.4020  16.7592  26.9533  27.6376  27.8606  28.1203  29.3081  30.0334
    30.7330  30.7795  31.4082  31.7887  33.7859  33.8087  36.6230  37.2250
    39.0430  39.0434  40.2160  40.7378  42.7507  43.1028  44.5292  44.5622
    44.8739  45.3891  46.3510  46.5180  47.5912  48.2286  49.4993  50.5973
    51.3729  51.6508  53.9807  54.6195  56.0616  56.5101  57.3035  57.9763
    58.3086  58.4229  58.9055  59.4139  60.3657  60.9852  61.8568  62.6005
    63.2765  64.1433  64.7456

          k = 0.2113 0.2113 0.0000 (  1437 PWs)   bands (ev):

    -6.2530  -5.5972  -4.8208  -3.4287  -3.3449  -3.2753  -2.9633  -2.6195
    -2.6042  -2.5821  -2.4954  -2.0082  -0.9999   2.4553   8.0247  10.4917
    11.2652  11.3776  12.6637  12.8890  14.0879  15.1848  15.1970  15.2782
    15.3736  15.5809  23.4674  23.8315  24.5508  24.7893  30.4364  30.7150
    31.3390  32.9872  33.2616  33.4898  34.4570  35.3987  36.6812  37.4229
    37.9308  39.0426  39.0453  39.3155  39.5250  40.5286  44.4685  44.8660
    44.8709  44.9889  47.1730  47.1857  47.7072  48.6607  50.6283  51.0191
    51.1770  52.5781  53.6738  53.8923  55.5407  56.3324  56.3904  56.8440
    57.1038  58.6158  58.8742  60.7852  60.9423  61.7084  61.7191  62.2399
    62.7706  64.9432  65.2878

          k = 0.2113 0.2113 0.2780 (  1434 PWs)   bands (ev):

    -5.9746  -5.4037  -4.8473  -4.2926  -3.3740  -3.1496  -2.9013  -2.7483
    -2.6845  -2.6088  -2.4779  -0.6183  -0.5913   2.1805   7.6476   9.3437
    10.8398  11.7292  12.4903  12.9872  13.2960  13.7947  14.4116  15.3020
    15.7073  16.1131  24.5222  25.4236  25.7678  26.1974  28.9650  30.7648
    31.4297  31.8491  32.2713  33.5903  34.0514  34.9884  36.4593  37.5607
    39.0159  39.0427  39.1723  40.6779  41.2370  41.3965  41.8688  45.0799
    45.5516  45.6353  47.1039  47.4282  48.8075  49.3786  49.7336  51.3467
    51.8399  52.0328  53.4041  53.9592  55.1204  55.1738  55.6405  56.4662
    57.2953  57.7948  58.5590  59.6867  60.8594  60.9570  62.7047  63.1279
    63.5419  63.8273  65.2071

          k = 0.2113 0.2113 0.5560 (  1435 PWs)   bands (ev):

    -5.8816  -5.3839  -5.0640  -3.7486  -3.2085  -2.9306  -2.8857  -2.7324
    -2.7083  -2.6432  -2.4702  -0.9004   0.9685   1.8236   7.1071   8.8943
     9.5107  10.5905  11.0946  13.2736  13.5216  13.9872  14.4159  14.5563
    14.9940  16.3921  26.3892  27.4116  27.8784  28.0495  28.4093  29.6884
    30.6508  31.7496  31.8543  32.8836  33.9129  34.7317  36.1749  37.2849
    39.0426  39.0433  39.7842  41.3727  41.5026  42.5481  43.3971  44.1944
    45.9788  46.4008  46.8305  47.3192  48.3919  49.1196  50.1500  51.2344
    51.8061  52.1405  53.2623  53.6651  54.8835  55.1052  57.2417  57.3326
    57.3907  58.5207  58.8036  58.9335  59.8891  60.1600  61.9081  61.9110
    62.3409  62.6957  64.2475

          k = 0.2113 0.4226 0.0000 (  1425 PWs)   bands (ev):

    -6.0726  -5.6498  -4.6529  -3.8007  -3.3284  -3.2845  -2.8483  -2.7121
    -2.5778  -2.5640  -2.5234  -2.3779   0.0162   1.4167   8.9924  10.3074
    11.1963  11.9203  12.1185  12.8206  13.7408  14.7456  15.1307  15.1478
    15.4241  15.4902  24.4525  24.5793  25.0005  25.4039  30.5708  30.6051
    31.8224  32.3789  32.4810  33.6039  34.2011  34.8656  35.6671  35.7905
    38.5204  38.7811  39.0427  39.0518  40.4155  40.5953  42.4537  43.5158
    45.4160  45.8309  46.7830  47.4553  49.1520  49.5988  49.6887  50.9128
    51.3384  53.2140  54.5023  55.3233  55.7762  56.6346  56.7088  57.5013
    57.6103  58.0911  58.4262  59.7353  62.1343  62.3806  62.4887  62.6916
    63.3481  64.3102  65.2052

          k = 0.2113 0.4226 0.2780 (  1419 PWs)   bands (ev):

    -5.8217  -5.5056  -4.7674  -4.4345  -3.2253  -3.1334  -2.8270  -2.7703
    -2.6790  -2.6384  -2.3013  -1.6185   0.4568   1.5762   8.5026   8.8892
    10.5958  11.2976  11.9012  12.4042  14.1633  14.4836  14.6881  15.2192
    15.6469  15.9191  25.3914  25.7604  26.2817  26.5720  29.3673  29.9360
    30.9615  31.3883  32.2700  33.2257  34.1974  34.7962  35.9572  37.1690
    39.0351  39.0419  39.2559  39.8167  40.8912  41.1809  42.7939  43.9045
    44.6450  45.3043  47.1171  47.3906  48.5849  49.5856  50.6767  51.6325
    52.0209  52.8796  53.9555  54.7270  55.7574  55.9455  56.5801  56.8621
    57.3328  57.9503  59.3689  59.6176  60.1975  61.3886  61.9952  62.2235
    64.2846  64.9874  65.3378

          k = 0.2113 0.4226 0.5560 (  1439 PWs)   bands (ev):

    -5.8789  -5.6728  -4.6267  -3.9578  -2.9557  -2.9350  -2.8390  -2.7182
    -2.6753  -2.6389  -2.3095  -1.4830   1.3254   1.8113   7.1305   7.7629
     9.9971  10.3377  10.8060  12.1599  14.2651  14.3155  14.7730  14.8142
    15.8109  16.6190  26.6056  27.2699  27.6017  28.0335  28.6453  29.3212
    31.0591  31.3538  32.2447  32.8175  33.3699  34.1928  36.4180  37.7679
    39.0419  39.0425  40.1424  40.2962  41.3039  42.2445  43.1112  43.7432
    45.4787  46.0750  46.2214  46.8871  48.3776  48.5292  50.0299  50.8840
    53.0520  53.3410  54.0705  54.1685  55.1704  56.5848  56.7578  57.5906
    58.1538  58.3599  58.8994  60.1759  60.5340  61.0150  61.4815  62.4192
    62.9615  63.8613  64.6659

          k = 0.4226 0.4226 0.0000 (  1425 PWs)   bands (ev):

    -6.1834  -6.0292  -3.8238  -3.3766  -3.3609  -3.3369  -2.7747  -2.7026
    -2.5199  -2.5147  -2.4894  -2.2819  -0.5593   0.2303  10.3267  11.3609
    11.4132  11.4930  11.8518  12.3047  13.6392  14.3556  15.0697  15.0742
    15.2465  15.3359  24.7511  24.9138  25.8266  26.1039  29.6500  29.6786
    32.0352  32.2597  32.4851  33.1799  34.6867  34.8909  35.1665  35.5351
    37.9800  38.1072  39.0424  39.0440  40.7976  41.7942  41.8344  44.7019
    45.6412  46.1027  46.8284  47.1018  47.3247  48.3574  48.5656  49.7522
    52.9611  53.1696  55.6708  56.7304  56.7779  56.7909  57.7927  58.1019
    58.2292  58.5296  59.6412  60.8503  61.2538  61.9822  62.4016  62.6507
    63.4028  63.4840  63.9886

          k = 0.4226 0.4226 0.2780 (  1420 PWs)   bands (ev):

    -5.8851  -5.7654  -4.4809  -4.3586  -3.1913  -3.1557  -2.7654  -2.7297
    -2.6975  -2.6637  -1.7157  -0.7704  -0.6076   0.5208   8.6737   8.7117
    11.2698  11.3794  11.9515  12.8710  13.6755  14.6000  14.8947  15.2714
    15.5151  15.6340  25.5503  25.7306  26.9195  27.1751  28.7437  29.0701
    31.0103  31.1177  31.9775  32.6551  35.2892  35.7882  36.1713  37.2762
    37.7469  37.8443  39.0433  39.0455  41.2233  41.5722  43.9121  43.9694
    44.4151  44.9574  46.4708  46.5601  48.8333  49.7239  51.1940  51.5412
    52.6416  53.0213  53.6782  54.8306  55.3622  55.9418  57.4685  57.7787
    58.2287  58.9895  59.6605  60.1065  61.3040  61.4425  61.9904  62.2490
    64.0948  64.2767  64.8678

          k = 0.4226 0.4226 0.5560 (  1441 PWs)   bands (ev):

    -5.6761  -5.3711  -5.1318  -4.6610  -2.8789  -2.8630  -2.7056  -2.6998
    -2.6809  -2.6594  -1.4482  -0.8292   0.8220   1.3075   6.5377   6.7247
     9.7574   9.8454  12.3909  13.7574  14.4290  14.8658  14.9361  15.1141
    15.2381  15.8826  26.2495  26.5636  27.0811  27.1763  29.0950  29.5172
    31.0412  31.2011  32.6137  32.9729  34.5352  34.8579  36.7524  38.5390
    38.9322  39.0409  39.0465  40.1019  40.4569  40.7312  42.4674  42.9758
    45.2907  45.4270  46.7476  46.9361  48.5210  49.3028  51.4766  51.8289
    52.3734  54.2611  54.8597  55.0678  55.3282  56.0331  57.6952  57.8083
    58.2596  58.9112  59.3032  60.4089  60.4251  61.1496  61.4828  62.3367
    62.5586  62.9835  63.5369

     the Fermi energy is    20.7175 ev

!    total energy              =    -454.70592680 Ry
     Harris-Foulkes estimate   =    -454.70592680 Ry
     estimated scf accuracy    <          5.0E-10 Ry

     The total energy is the sum of the following terms:

     one-electron contribution =     -64.11746592 Ry
     hartree contribution      =      87.35330442 Ry
     xc contribution           =    -126.83727152 Ry
     ewald contribution        =    -351.10449378 Ry
     smearing contrib. (-TS)   =       0.00000000 Ry

     total magnetization       =     0.00 Bohr mag/cell
     absolute magnetization    =     0.00 Bohr mag/cell

     convergence has been achieved in   8 iterations

     Forces acting on atoms (Ry/au):

     atom    1 type  1   force =     0.00000000    0.00000000    0.00000000
     atom    2 type  1   force =     0.00000000    0.00000000    0.00000000
     atom    3 type  2   force =     0.00014705    0.00014705   -0.00000000
     atom    4 type  2   force =    -0.00014705   -0.00014705    0.00000000
     atom    5 type  2   force =     0.00014705   -0.00014705   -0.00000000
     atom    6 type  2   force =    -0.00014705    0.00014705    0.00000000

     Total force =     0.000416     Total SCF correction =     0.000018


     entering subroutine stress ...

          total   stress  (Ry/bohr**3)                   (kbar)     P= 1936.49
   0.01316419   0.00000000   0.00000000       1936.52      0.00      0.00
   0.00000000   0.01316419   0.00000000          0.00   1936.52      0.00
   0.00000000   0.00000000   0.01316359          0.00      0.00   1936.43


     init_run     :     14.28s CPU     14.66s WALL (       2 calls)
     electrons    :   1074.10s CPU   1104.88s WALL (      10 calls)
     update_pot   :     26.29s CPU     26.56s WALL (       8 calls)
     forces       :     60.24s CPU     60.33s WALL (      10 calls)
     stress       :    133.76s CPU    133.91s WALL (      10 calls)

     Called by init_run:
     wfcinit      :     10.89s CPU     11.20s WALL (       3 calls)
     potinit      :      2.25s CPU      2.28s WALL (       3 calls)

     Called by electrons:
     c_bands      :    908.34s CPU    935.56s WALL (      54 calls)
     sum_band     :    109.25s CPU    110.89s WALL (      54 calls)
     v_of_rho     :     11.49s CPU     11.55s WALL (      63 calls)
     newd         :     53.74s CPU     53.80s WALL (      63 calls)
     mix_rho      :      0.97s CPU      1.01s WALL (      54 calls)

     Called by c_bands:
     init_us_2    :      4.29s CPU      4.34s WALL (    4716 calls)
     cegterg      :    895.75s CPU    922.89s WALL (    1944 calls)

     Called by *egterg:
     h_psi        :    363.65s CPU    374.35s WALL (    7858 calls)
     s_psi        :     26.24s CPU     26.27s WALL (    7858 calls)
     g_psi        :      2.21s CPU      2.23s WALL (    5806 calls)
     cdiaghg      :    322.73s CPU    323.93s WALL (    7426 calls)

     Called by h_psi:
     add_vuspsi   :     26.06s CPU     26.29s WALL (    7858 calls)

     General routines
     calbec       :     47.74s CPU     50.96s WALL (   10522 calls)
     fft          :      9.39s CPU      9.47s WALL (    2301 calls)
     ffts         :      0.15s CPU      0.15s WALL (     234 calls)
     fftw         :    304.93s CPU    309.80s WALL (  909690 calls)
     interpolate  :      1.17s CPU      1.19s WALL (     234 calls)

     Parallel routines
     fft_scatter  :     94.31s CPU     93.13s WALL (  912225 calls)

     PWSCF        : 22m 1.73s CPU    22m33.62s WALL


   This run was terminated on:  20:56:34  23Jan2014            

=------------------------------------------------------------------------------=
   JOB DONE.
=------------------------------------------------------------------------------=
