
     Program PWSCF v.5.0.2 (svn rev. 9656) starts on 30Apr2014 at 21:27:57 

     This program is part of the open-source Quantum ESPRESSO suite
     for quantum simulation of materials; please cite
         "P. Giannozzi et al., J. Phys.:Condens. Matter 21 395502 (2009);
          URL http://www.quantum-espresso.org", 
     in publications or presentations arising from this work. More details at
     http://www.quantum-espresso.org/quote.php

     Parallel version (MPI), running on    16 processors
     K-points division:     npool     =       4
     R & G space division:  proc/nbgrp/npool/nimage =       4

     Current dimensions of program PWSCF are:
     Max number of different atomic species (ntypx) = 10
     Max number of k-points (npk) =  40000
     Max angular momentum in pseudopotentials (lmaxx) =  3
     Reading input from pwscf.in
Warning: card &CELL ignored
Warning: card / ignored

     Subspace diagonalization in iterative solution of the eigenvalue problem:
     a serial algorithm will be used


     Parallelization info
     --------------------
     sticks:   dense  smooth     PW     G-vecs:    dense   smooth      PW
     Min        1467     469    131               355494    64365    9519
     Max        1469     470    132               355497    64388    9524
     Sum        5871    1877    527              1421981   257505   38087



     bravais-lattice index     =            0
     lattice parameter (alat)  =      11.1872  a.u.
     unit-cell volume          =    7531.8600 (a.u.)^3
     number of atoms/cell      =           31
     number of atomic types    =            3
     number of electrons       =       222.00
     number of Kohn-Sham states=          333
     kinetic-energy cutoff     =      40.0000  Ry
     charge density cutoff     =     500.0000  Ry
     convergence threshold     =      1.0E-06
     mixing beta               =       0.7000
     number of iterations used =            8  plain     mixing
     Exchange-correlation      = SLA  PW   PBE  PBE ( 1 4 3 4 0)
     EXX-fraction              =        0.00
     nstep                     =           50


     celldm(1)=  11.187179  celldm(2)=   0.000000  celldm(3)=   0.000000
     celldm(4)=   0.000000  celldm(5)=   0.000000  celldm(6)=   0.000000

     crystal axes: (cart. coord. in units of alat)
               a(1) = (   1.000000   0.000000   0.000000 )  
               a(2) = (   0.000000   1.180104   0.000000 )  
               a(3) = (   0.000000   0.000000   4.558482 )  

     reciprocal axes: (cart. coord. in units 2 pi/alat)
               b(1) = (  1.000000  0.000000  0.000000 )  
               b(2) = (  0.000000  0.847383  0.000000 )  
               b(3) = (  0.000000  0.000000  0.219371 )  


     PseudoPot. # 1 for O  read from file:
     /home/camp/zhonxu/pseudo/o_pbe_v1.01.uspp.F.UPF
     MD5 check sum: 2bcb18d16ea4b960afae9ec6d52f22d2
     Pseudo is Ultrasoft + core correction, Zval =  6.0
     Generated by new atomic code, or converted to UPF format
     Using radial grid of  737 points,  5 beta functions with: 
                l(1) =   0
                l(2) =   0
                l(3) =   1
                l(4) =   1
                l(5) =   2
     Q(r) pseudized with  8 coefficients,  rinner =    0.900   0.900   0.900
                                                       0.900   0.900

     PseudoPot. # 2 for Nb read from file:
     /home/camp/zhonxu/pseudo/nb_pbe_v1.uspp.F.UPF
     MD5 check sum: 573aab8a2fa660278ed4a62cd769473f
     Pseudo is Ultrasoft + core correction, Zval = 13.0
     Generated by new atomic code, or converted to UPF format
     Using radial grid of  887 points,  6 beta functions with: 
                l(1) =   0
                l(2) =   0
                l(3) =   1
                l(4) =   1
                l(5) =   2
                l(6) =   2
     Q(r) pseudized with  6 coefficients,  rinner =    1.000   1.000   1.000
                                                       1.000   1.000

     PseudoPot. # 3 for H  read from file:
     /home/camp/zhonxu/pseudo/h_pbe_v1.uspp.F.UPF
     MD5 check sum: 3408e3ff4ec8b0a4e358431e7e038a48
     Pseudo is Ultrasoft, Zval =  1.0
     Generated by new atomic code, or converted to UPF format
     Using radial grid of  615 points,  2 beta functions with: 
                l(1) =   0
                l(2) =   0
     Q(r) pseudized with  8 coefficients,  rinner =    0.700

     atomic species   valence    mass     pseudopotential
        O0             6.00    15.99940     O ( 1.00)
        Nb1           13.00    92.90640     Nb( 1.00)
        H2             1.00     1.00794     H ( 1.00)


     Simplified LDA+U calculation (l_max = 2) with parameters (eV):
     atomic species    L          U    alpha       J0     beta
        Nb1            2     3.5000   0.0000   0.0000   0.0000



     No symmetry found



   Cartesian axes

     site n.     atom                  positions (alat units)
         1           O0  tau(   1) = (   0.0000000   0.0000000   1.6934306  )
         2           O0  tau(   2) = (   0.0000000   0.5900519   1.7719732  )
         3           Nb1 tau(   3) = (   0.2500000   0.5900519   2.0266100  )
         4           Nb1 tau(   4) = (   0.0000000   0.0000000   2.0234647  )
         5           O0  tau(   5) = (   0.2500000   0.9322821   2.0339492  )
         6           O0  tau(   6) = (   0.2500000   0.2478218   2.0339492  )
         7           O0  tau(   7) = (   0.0000000   0.5900519   2.2822497  )
         8           O0  tau(   8) = (   0.0000000   0.0000000   2.3837671  )
         9           Nb1 tau(   9) = (   0.2500000   0.0000000   2.6303810  )
        10           Nb1 tau(  10) = (   0.0000000   0.5900519   2.5986084  )
        11           O0  tau(  11) = (   0.2500000   0.8378738   2.6271901  )
        12           O0  tau(  12) = (   0.2500000   0.3422301   2.6272357  )
        13           O0  tau(  13) = (   0.0000000   0.0000000   2.8322306  )
        14           O0  tau(  14) = (   0.5000000   0.0000000   1.6959377  )
        15           O0  tau(  15) = (   0.5000000   0.5900519   1.7815005  )
        16           Nb1 tau(  16) = (   0.7500000   0.5900519   2.0269291  )
        17           Nb1 tau(  17) = (   0.5000000   0.0000000   2.0281143  )
        18           O0  tau(  18) = (   0.7500000   0.9322821   2.0339492  )
        19           O0  tau(  19) = (   0.7500000   0.2478218   2.0339492  )
        20           O0  tau(  20) = (   0.5000000   0.5900519   2.2572692  )
        21           O0  tau(  21) = (   0.5000000   0.0000000   2.3822628  )
        22           Nb1 tau(  22) = (   0.7500000   0.0000000   2.6309736  )
        23           Nb1 tau(  23) = (   0.5000000   0.5900519   2.6831227  )
        24           O0  tau(  24) = (   0.7500000   0.8378738   2.6265975  )
        25           O0  tau(  25) = (   0.7500000   0.3422301   2.6265975  )
        26           O0  tau(  26) = (   0.5000000   0.0000000   2.8320027  )
        27           H2  tau(  27) = (  -0.0004900   0.5918693   1.6065459  )
        28           H2  tau(  28) = (   0.4994900   0.5917631   1.6163466  )
        29           H2  tau(  29) = (   0.1504600   0.0004366   1.6207228  )
        30           H2  tau(  30) = (   0.6496400   0.0004366   1.6219536  )
        31           O0  tau(  31) = (   0.5000300   0.5900519   2.9731333  )

     number of k points=    10  Methfessel-Paxton smearing, width (Ry)=  0.0100
                       cart. coord. in units 2pi/alat
        k(    1) = (   0.0000000   0.0000000   0.0000000), wk =   0.1250000
        k(    2) = (   0.0000000   0.2118458   0.0000000), wk =   0.2500000
        k(    3) = (   0.0000000  -0.4236915   0.0000000), wk =   0.1250000
        k(    4) = (   0.2500000   0.0000000   0.0000000), wk =   0.2500000
        k(    5) = (   0.2500000   0.2118458   0.0000000), wk =   0.2500000
        k(    6) = (   0.2500000  -0.4236915   0.0000000), wk =   0.2500000
        k(    7) = (  -0.5000000   0.0000000   0.0000000), wk =   0.1250000
        k(    8) = (  -0.5000000   0.2118458   0.0000000), wk =   0.2500000
        k(    9) = (  -0.5000000  -0.4236915   0.0000000), wk =   0.1250000
        k(   10) = (  -0.2500000   0.2118458   0.0000000), wk =   0.2500000

     Dense  grid:  1421981 G-vectors     FFT dimensions: (  80,  96, 375)

     Smooth grid:   257505 G-vectors     FFT dimensions: (  45,  54, 216)

     Largest allocated arrays     est. size (Mb)     dimensions
        Kohn-Sham Wavefunctions        41.09 Mb     (   8086,  333)
        Atomic wavefunctions           22.70 Mb     (   8086,  184)
        NL pseudopotentials            49.23 Mb     (   8086,  399)
        Each V/rho on FFT grid         11.02 Mb     ( 721920)
        Each G-vector array             2.71 Mb     ( 355495)
        G-vector shells                 1.17 Mb     ( 153576)
     Largest temporary arrays     est. size (Mb)     dimensions
        Auxiliary wavefunctions       164.35 Mb     (   8086, 1332)
        Each subspace H/S matrix       27.07 Mb     (1332,1332)
        Each <psi_i|beta_j> matrix      2.03 Mb     (    399,  333)
        Arrays for rho mixing          88.13 Mb     ( 721920,   8)

     Check: negative/imaginary core charge=   -0.000003    0.000000

     Initial potential from superposition of free atoms
     Check: negative starting charge=   -0.003810

     starting charge  221.97807, renormalised to  222.00000

     negative rho (up, down):  0.381E-02 0.000E+00
     Number of +U iterations with fixed ns =  0
     Starting occupations:
 --- enter write_ns ---
 LDA+U parameters:
U( 2)     =  3.50000000
alpha( 2) =  0.00000000
atom    3   Tr[ns(na)] =   3.00000
    eigenvalues: 
  0.300  0.300  0.300  0.300  0.300
    eigenvectors:
  1.000  0.000  0.000  0.000  0.000
  0.000  1.000  0.000  0.000  0.000
  0.000  0.000  1.000  0.000  0.000
  0.000  0.000  0.000  1.000  0.000
  0.000  0.000  0.000  0.000  1.000
    occupations:
  0.300  0.000  0.000  0.000  0.000
  0.000  0.300  0.000  0.000  0.000
  0.000  0.000  0.300  0.000  0.000
  0.000  0.000  0.000  0.300  0.000
  0.000  0.000  0.000  0.000  0.300
atom    4   Tr[ns(na)] =   3.00000
    eigenvalues: 
  0.300  0.300  0.300  0.300  0.300
    eigenvectors:
  1.000  0.000  0.000  0.000  0.000
  0.000  1.000  0.000  0.000  0.000
  0.000  0.000  1.000  0.000  0.000
  0.000  0.000  0.000  1.000  0.000
  0.000  0.000  0.000  0.000  1.000
    occupations:
  0.300  0.000  0.000  0.000  0.000
  0.000  0.300  0.000  0.000  0.000
  0.000  0.000  0.300  0.000  0.000
  0.000  0.000  0.000  0.300  0.000
  0.000  0.000  0.000  0.000  0.300
atom    9   Tr[ns(na)] =   3.00000
    eigenvalues: 
  0.300  0.300  0.300  0.300  0.300
    eigenvectors:
  1.000  0.000  0.000  0.000  0.000
  0.000  1.000  0.000  0.000  0.000
  0.000  0.000  1.000  0.000  0.000
  0.000  0.000  0.000  1.000  0.000
  0.000  0.000  0.000  0.000  1.000
    occupations:
  0.300  0.000  0.000  0.000  0.000
  0.000  0.300  0.000  0.000  0.000
  0.000  0.000  0.300  0.000  0.000
  0.000  0.000  0.000  0.300  0.000
  0.000  0.000  0.000  0.000  0.300
atom   10   Tr[ns(na)] =   3.00000
    eigenvalues: 
  0.300  0.300  0.300  0.300  0.300
    eigenvectors:
  1.000  0.000  0.000  0.000  0.000
  0.000  1.000  0.000  0.000  0.000
  0.000  0.000  1.000  0.000  0.000
  0.000  0.000  0.000  1.000  0.000
  0.000  0.000  0.000  0.000  1.000
    occupations:
  0.300  0.000  0.000  0.000  0.000
  0.000  0.300  0.000  0.000  0.000
  0.000  0.000  0.300  0.000  0.000
  0.000  0.000  0.000  0.300  0.000
  0.000  0.000  0.000  0.000  0.300
atom   16   Tr[ns(na)] =   3.00000
    eigenvalues: 
  0.300  0.300  0.300  0.300  0.300
    eigenvectors:
  1.000  0.000  0.000  0.000  0.000
  0.000  1.000  0.000  0.000  0.000
  0.000  0.000  1.000  0.000  0.000
  0.000  0.000  0.000  1.000  0.000
  0.000  0.000  0.000  0.000  1.000
    occupations:
  0.300  0.000  0.000  0.000  0.000
  0.000  0.300  0.000  0.000  0.000
  0.000  0.000  0.300  0.000  0.000
  0.000  0.000  0.000  0.300  0.000
  0.000  0.000  0.000  0.000  0.300
atom   17   Tr[ns(na)] =   3.00000
    eigenvalues: 
  0.300  0.300  0.300  0.300  0.300
    eigenvectors:
  1.000  0.000  0.000  0.000  0.000
  0.000  1.000  0.000  0.000  0.000
  0.000  0.000  1.000  0.000  0.000
  0.000  0.000  0.000  1.000  0.000
  0.000  0.000  0.000  0.000  1.000
    occupations:
  0.300  0.000  0.000  0.000  0.000
  0.000  0.300  0.000  0.000  0.000
  0.000  0.000  0.300  0.000  0.000
  0.000  0.000  0.000  0.300  0.000
  0.000  0.000  0.000  0.000  0.300
atom   22   Tr[ns(na)] =   3.00000
    eigenvalues: 
  0.300  0.300  0.300  0.300  0.300
    eigenvectors:
  1.000  0.000  0.000  0.000  0.000
  0.000  1.000  0.000  0.000  0.000
  0.000  0.000  1.000  0.000  0.000
  0.000  0.000  0.000  1.000  0.000
  0.000  0.000  0.000  0.000  1.000
    occupations:
  0.300  0.000  0.000  0.000  0.000
  0.000  0.300  0.000  0.000  0.000
  0.000  0.000  0.300  0.000  0.000
  0.000  0.000  0.000  0.300  0.000
  0.000  0.000  0.000  0.000  0.300
atom   23   Tr[ns(na)] =   3.00000
    eigenvalues: 
  0.300  0.300  0.300  0.300  0.300
    eigenvectors:
  1.000  0.000  0.000  0.000  0.000
  0.000  1.000  0.000  0.000  0.000
  0.000  0.000  1.000  0.000  0.000
  0.000  0.000  0.000  1.000  0.000
  0.000  0.000  0.000  0.000  1.000
    occupations:
  0.300  0.000  0.000  0.000  0.000
  0.000  0.300  0.000  0.000  0.000
  0.000  0.000  0.300  0.000  0.000
  0.000  0.000  0.000  0.300  0.000
  0.000  0.000  0.000  0.000  0.300
N of occupied +U levels =  24.0000000
 --- exit write_ns ---
 Atomic wfc used for LDA+U Projector are NOT orthogonalized
     Starting wfc are  184 randomized atomic wfcs

     total cpu time spent up to now is      114.3 secs

     per-process dynamical memory:   403.5 Mb

     Self-consistent Calculation

     iteration #  1     ecut=    40.00 Ry     beta=0.70
     Davidson diagonalization with overlap
     ethr =  1.00E-02,  avg # of iterations =  6.0
 --- enter write_ns ---
 LDA+U parameters:
U( 2)     =  3.50000000
alpha( 2) =  0.00000000
atom    3   Tr[ns(na)] =   3.92606
    eigenvalues: 
  0.251  0.273  0.418  0.450  0.572
    eigenvectors:
  0.000  0.000  0.037  0.502  0.461
  0.000  0.000  0.936  0.064  0.000
  0.130  0.870  0.000  0.000  0.000
  0.000  0.000  0.027  0.434  0.539
  0.870  0.130  0.000  0.000  0.000
    occupations:
  0.505 -0.007  0.000 -0.062 -0.000
 -0.007  0.420 -0.000 -0.004  0.000
  0.000 -0.000  0.270 -0.000 -0.007
 -0.062 -0.004 -0.000  0.515  0.000
 -0.000  0.000 -0.007  0.000  0.254
atom    4   Tr[ns(na)] =   4.06088
    eigenvalues: 
  0.227  0.381  0.422  0.446  0.554
    eigenvectors:
  0.000  0.001  0.000  0.973  0.026
  0.000  0.999  0.000  0.001  0.000
  1.000  0.000  0.000  0.000  0.000
  0.000  0.000  0.000  0.026  0.974
  0.000  0.000  1.000  0.000  0.000
    occupations:
  0.449  0.002  0.000 -0.017 -0.000
  0.002  0.381  0.000 -0.002 -0.000
  0.000  0.000  0.227 -0.000  0.001
 -0.017 -0.002 -0.000  0.551  0.000
 -0.000 -0.000  0.001  0.000  0.422
atom    9   Tr[ns(na)] =   3.52441
    eigenvalues: 
  0.242  0.274  0.284  0.480  0.482
    eigenvectors:
  0.000  0.881  0.000  0.016  0.102
  0.000  0.000  0.000  0.865  0.135
  1.000  0.000  0.000  0.000  0.000
  0.000  0.119  0.000  0.119  0.763
  0.000  0.000  1.000  0.000  0.000
    occupations:
  0.298 -0.000  0.000  0.067 -0.000
 -0.000  0.480 -0.000 -0.001 -0.000
  0.000 -0.000  0.242  0.000  0.001
  0.067 -0.001  0.000  0.457 -0.000
 -0.000 -0.000  0.001 -0.000  0.284
atom   10   Tr[ns(na)] =   3.49167
    eigenvalues: 
  0.205  0.243  0.372  0.416  0.511
    eigenvectors:
  0.000  0.000  1.000  0.000  0.000
  0.000  1.000  0.000  0.000  0.000
  1.000  0.000  0.000  0.000  0.000
  0.000  0.000  0.000  0.000  1.000
  0.000  0.000  0.000  1.000  0.000
    occupations:
  0.372  0.000  0.000  0.000 -0.000
  0.000  0.243  0.000  0.001  0.000
  0.000  0.000  0.205 -0.000 -0.000
  0.000  0.001 -0.000  0.511  0.000
 -0.000  0.000 -0.000  0.000  0.416
atom   16   Tr[ns(na)] =   3.92666
    eigenvalues: 
  0.253  0.271  0.418  0.450  0.571
    eigenvectors:
  0.000  0.000  0.037  0.503  0.460
  0.000  0.000  0.935  0.064  0.000
  0.048  0.952  0.000  0.000  0.000
  0.000  0.000  0.027  0.433  0.540
  0.952  0.048  0.000  0.000  0.000
    occupations:
  0.505  0.007  0.000 -0.061  0.000
  0.007  0.420  0.000  0.004  0.000
  0.000  0.000  0.270 -0.000  0.004
 -0.061  0.004 -0.000  0.515 -0.000
  0.000  0.000  0.004 -0.000  0.254
atom   17   Tr[ns(na)] =   4.04649
    eigenvalues: 
  0.228  0.385  0.422  0.449  0.538
    eigenvectors:
  0.000  0.001  0.000  0.965  0.034
  0.000  0.999  0.000  0.001  0.000
  1.000  0.000  0.000  0.000  0.000
  0.000  0.000  0.000  0.034  0.965
  0.000  0.000  1.000  0.000  0.000
    occupations:
  0.452  0.002  0.000 -0.016  0.000
  0.002  0.385  0.000 -0.002 -0.000
  0.000  0.000  0.228 -0.000  0.001
 -0.016 -0.002 -0.000  0.535  0.000
  0.000 -0.000  0.001  0.000  0.422
atom   22   Tr[ns(na)] =   3.52647
    eigenvalues: 
  0.242  0.274  0.284  0.480  0.482
    eigenvectors:
  0.000  0.882  0.000  0.017  0.101
  0.000  0.000  0.000  0.861  0.139
  1.000  0.000  0.000  0.000  0.000
  0.000  0.118  0.000  0.122  0.760
  0.000  0.000  1.000  0.000  0.000
    occupations:
  0.299  0.000  0.000  0.067 -0.000
  0.000  0.480 -0.000  0.001  0.000
  0.000 -0.000  0.242  0.000 -0.001
  0.067  0.001  0.000  0.457  0.000
 -0.000  0.000 -0.001  0.000  0.284
atom   23   Tr[ns(na)] =   4.00218
    eigenvalues: 
  0.289  0.312  0.394  0.468  0.538
    eigenvectors:
  0.000  0.000  0.000  0.958  0.042
  0.000  1.000  0.000  0.000  0.000
  1.000  0.000  0.000  0.000  0.000
  0.000  0.000  0.000  0.042  0.958
  0.000  0.000  1.000  0.000  0.000
    occupations:
  0.471 -0.000 -0.000 -0.014 -0.000
 -0.000  0.312  0.000 -0.001  0.000
 -0.000  0.000  0.289 -0.000  0.000
 -0.014 -0.001 -0.000  0.535 -0.000
 -0.000  0.000  0.000 -0.000  0.394
N of occupied +U levels =  30.5048190
 --- exit write_ns ---

     negative rho (up, down):  0.339E-02 0.000E+00

     total cpu time spent up to now is      468.3 secs

     total energy              =   -1551.58788175 Ry
     Harris-Foulkes estimate   =   -1563.78928152 Ry
     estimated scf accuracy    <      15.70673371 Ry

     iteration #  2     ecut=    40.00 Ry     beta=0.70
     Davidson diagonalization with overlap
     ethr =  7.08E-03,  avg # of iterations =  2.0

     negative rho (up, down):  0.127E-01 0.000E+00

     total cpu time spent up to now is      654.7 secs

     total energy              =   -1536.77056771 Ry
     Harris-Foulkes estimate   =   -1574.26379682 Ry
     estimated scf accuracy    <     138.07784064 Ry

     iteration #  3     ecut=    40.00 Ry     beta=0.70
     Davidson diagonalization with overlap
     ethr =  7.08E-03,  avg # of iterations =  4.0

     negative rho (up, down):  0.425E-02 0.000E+00

     total cpu time spent up to now is      872.8 secs

     total energy              =   -1529.19986480 Ry
     Harris-Foulkes estimate   =   -1574.95244940 Ry
     estimated scf accuracy    <     782.68524268 Ry

     iteration #  4     ecut=    40.00 Ry     beta=0.70
     Davidson diagonalization with overlap
     ethr =  7.08E-03,  avg # of iterations =  3.9

     negative rho (up, down):  0.204E-02 0.000E+00

     total cpu time spent up to now is     1088.5 secs

     total energy              =   -1559.16160205 Ry
     Harris-Foulkes estimate   =   -1561.53473005 Ry
     estimated scf accuracy    <      15.14230658 Ry

     iteration #  5     ecut=    40.00 Ry     beta=0.70
     Davidson diagonalization with overlap
     ethr =  6.82E-03,  avg # of iterations =  2.1

     negative rho (up, down):  0.199E-02 0.000E+00

     total cpu time spent up to now is     1265.9 secs

     total energy              =   -1560.08281405 Ry
     Harris-Foulkes estimate   =   -1560.57323069 Ry
     estimated scf accuracy    <       2.62718097 Ry

     iteration #  6     ecut=    40.00 Ry     beta=0.70
     Davidson diagonalization with overlap
     ethr =  1.18E-03,  avg # of iterations =  3.1

     negative rho (up, down):  0.188E-02 0.000E+00

     total cpu time spent up to now is     1449.9 secs

     total energy              =   -1560.10519274 Ry
     Harris-Foulkes estimate   =   -1560.29269537 Ry
     estimated scf accuracy    <       1.33630755 Ry

     iteration #  7     ecut=    40.00 Ry     beta=0.70
     Davidson diagonalization with overlap
     ethr =  6.02E-04,  avg # of iterations =  2.1

     negative rho (up, down):  0.174E-02 0.000E+00

     total cpu time spent up to now is     1632.8 secs

     total energy              =   -1560.06258997 Ry
     Harris-Foulkes estimate   =   -1560.18424405 Ry
     estimated scf accuracy    <       0.54874219 Ry

     iteration #  8     ecut=    40.00 Ry     beta=0.70
     Davidson diagonalization with overlap
     ethr =  2.47E-04,  avg # of iterations =  4.8

     negative rho (up, down):  0.235E-02 0.000E+00

     total cpu time spent up to now is     1825.8 secs

     total energy              =   -1560.02986349 Ry
     Harris-Foulkes estimate   =   -1560.10962929 Ry
     estimated scf accuracy    <       0.38528053 Ry

     iteration #  9     ecut=    40.00 Ry     beta=0.70
     Davidson diagonalization with overlap
     ethr =  1.74E-04,  avg # of iterations =  4.7

     negative rho (up, down):  0.352E-02 0.000E+00

     total cpu time spent up to now is     2019.0 secs

     total energy              =   -1560.03964602 Ry
     Harris-Foulkes estimate   =   -1560.07137261 Ry
     estimated scf accuracy    <       0.18348379 Ry

     iteration # 10     ecut=    40.00 Ry     beta=0.70
     Davidson diagonalization with overlap
     ethr =  8.27E-05,  avg # of iterations =  4.3

     negative rho (up, down):  0.299E-02 0.000E+00

     total cpu time spent up to now is     2204.7 secs

     total energy              =   -1560.05330629 Ry
     Harris-Foulkes estimate   =   -1560.06187936 Ry
     estimated scf accuracy    <       0.13408010 Ry

     iteration # 11     ecut=    40.00 Ry     beta=0.70
     Davidson diagonalization with overlap
     ethr =  6.04E-05,  avg # of iterations =  1.6

     negative rho (up, down):  0.230E-02 0.000E+00

     total cpu time spent up to now is     2377.3 secs

     total energy              =   -1560.05358557 Ry
     Harris-Foulkes estimate   =   -1560.05665914 Ry
     estimated scf accuracy    <       0.06908627 Ry

     iteration # 12     ecut=    40.00 Ry     beta=0.70
     Davidson diagonalization with overlap
     ethr =  3.11E-05,  avg # of iterations =  4.4

     negative rho (up, down):  0.207E-02 0.000E+00

     total cpu time spent up to now is     2563.6 secs

     total energy              =   -1560.02956840 Ry
     Harris-Foulkes estimate   =   -1560.05517961 Ry
     estimated scf accuracy    <       0.05522038 Ry

     iteration # 13     ecut=    40.00 Ry     beta=0.70
     Davidson diagonalization with overlap
     ethr =  2.49E-05,  avg # of iterations =  7.6

     negative rho (up, down):  0.219E-02 0.000E+00

     total cpu time spent up to now is     2798.5 secs

     total energy              =   -1560.02194066 Ry
     Harris-Foulkes estimate   =   -1560.07836545 Ry
     estimated scf accuracy    <       0.42501853 Ry

     iteration # 14     ecut=    40.00 Ry     beta=0.70
     Davidson diagonalization with overlap
     ethr =  2.49E-05,  avg # of iterations =  6.5

     negative rho (up, down):  0.226E-02 0.000E+00

     total cpu time spent up to now is     3016.5 secs

     total energy              =   -1560.04681260 Ry
     Harris-Foulkes estimate   =   -1560.04945571 Ry
     estimated scf accuracy    <       0.01167753 Ry

     iteration # 15     ecut=    40.00 Ry     beta=0.70
     Davidson diagonalization with overlap
     ethr =  5.26E-06,  avg # of iterations =  5.1

     negative rho (up, down):  0.250E-02 0.000E+00

     total cpu time spent up to now is     3222.7 secs

     total energy              =   -1560.04773708 Ry
     Harris-Foulkes estimate   =   -1560.04937568 Ry
     estimated scf accuracy    <       0.00619246 Ry

     iteration # 16     ecut=    40.00 Ry     beta=0.70
     Davidson diagonalization with overlap
     ethr =  2.79E-06,  avg # of iterations =  5.5

     negative rho (up, down):  0.272E-02 0.000E+00

     total cpu time spent up to now is     3417.9 secs

     total energy              =   -1560.04833445 Ry
     Harris-Foulkes estimate   =   -1560.04891133 Ry
     estimated scf accuracy    <       0.00180644 Ry

     iteration # 17     ecut=    40.00 Ry     beta=0.70
     Davidson diagonalization with overlap
     ethr =  8.14E-07,  avg # of iterations =  3.8

     negative rho (up, down):  0.313E-02 0.000E+00

     total cpu time spent up to now is     3606.1 secs

     total energy              =   -1560.04857756 Ry
     Harris-Foulkes estimate   =   -1560.04875747 Ry
     estimated scf accuracy    <       0.00053610 Ry

     iteration # 18     ecut=    40.00 Ry     beta=0.70
     Davidson diagonalization with overlap
     ethr =  2.41E-07,  avg # of iterations =  1.2

     negative rho (up, down):  0.341E-02 0.000E+00

     total cpu time spent up to now is     3778.3 secs

     total energy              =   -1560.04863547 Ry
     Harris-Foulkes estimate   =   -1560.04871488 Ry
     estimated scf accuracy    <       0.00068550 Ry

     iteration # 19     ecut=    40.00 Ry     beta=0.70
     Davidson diagonalization with overlap
     ethr =  2.41E-07,  avg # of iterations =  1.0

     negative rho (up, down):  0.349E-02 0.000E+00

     total cpu time spent up to now is     3952.2 secs

     total energy              =   -1560.04865183 Ry
     Harris-Foulkes estimate   =   -1560.04869563 Ry
     estimated scf accuracy    <       0.00012501 Ry

     iteration # 20     ecut=    40.00 Ry     beta=0.70
     Davidson diagonalization with overlap
     ethr =  5.63E-08,  avg # of iterations =  2.0

     negative rho (up, down):  0.349E-02 0.000E+00

     total cpu time spent up to now is     4130.6 secs

     total energy              =   -1560.04866561 Ry
     Harris-Foulkes estimate   =   -1560.04869496 Ry
     estimated scf accuracy    <       0.00010957 Ry

     iteration # 21     ecut=    40.00 Ry     beta=0.70
     Davidson diagonalization with overlap
     ethr =  4.94E-08,  avg # of iterations =  1.0

     negative rho (up, down):  0.350E-02 0.000E+00

     total cpu time spent up to now is     4307.2 secs

     total energy              =   -1560.04867846 Ry
     Harris-Foulkes estimate   =   -1560.04868397 Ry
     estimated scf accuracy    <       0.00003823 Ry

     iteration # 22     ecut=    40.00 Ry     beta=0.70
     Davidson diagonalization with overlap
     ethr =  1.72E-08,  avg # of iterations =  1.0

     negative rho (up, down):  0.361E-02 0.000E+00

     total cpu time spent up to now is     4485.4 secs

     total energy              =   -1560.04867908 Ry
     Harris-Foulkes estimate   =   -1560.04868368 Ry
     estimated scf accuracy    <       0.00002198 Ry

     iteration # 23     ecut=    40.00 Ry     beta=0.70
     Davidson diagonalization with overlap
     ethr =  9.90E-09,  avg # of iterations =  1.1

     negative rho (up, down):  0.353E-02 0.000E+00

     total cpu time spent up to now is     4666.4 secs

     total energy              =   -1560.04868095 Ry
     Harris-Foulkes estimate   =   -1560.04868320 Ry
     estimated scf accuracy    <       0.00000883 Ry

     iteration # 24     ecut=    40.00 Ry     beta=0.70
     Davidson diagonalization with overlap
     ethr =  3.98E-09,  avg # of iterations =  1.0

     negative rho (up, down):  0.351E-02 0.000E+00

     total cpu time spent up to now is     4852.8 secs

     total energy              =   -1560.04868230 Ry
     Harris-Foulkes estimate   =   -1560.04868250 Ry
     estimated scf accuracy    <       0.00000281 Ry

     iteration # 25     ecut=    40.00 Ry     beta=0.70
     Davidson diagonalization with overlap
     ethr =  1.27E-09,  avg # of iterations =  1.1

     negative rho (up, down):  0.351E-02 0.000E+00

     total cpu time spent up to now is     5036.5 secs

     total energy              =   -1560.04868220 Ry
     Harris-Foulkes estimate   =   -1560.04868279 Ry
     estimated scf accuracy    <       0.00000398 Ry

     iteration # 26     ecut=    40.00 Ry     beta=0.70
     Davidson diagonalization with overlap
     ethr =  1.27E-09,  avg # of iterations =  1.0

     negative rho (up, down):  0.349E-02 0.000E+00

     total cpu time spent up to now is     5214.9 secs

     End of self-consistent calculation
 --- enter write_ns ---
 LDA+U parameters:
U( 2)     =  3.50000000
alpha( 2) =  0.00000000
atom    3   Tr[ns(na)] =   5.22374
    eigenvalues: 
  0.372  0.424  0.539  0.589  0.688
    eigenvectors:
  0.000  0.000  0.042  0.386  0.571
  0.000  0.000  0.928  0.070  0.002
  0.240  0.760  0.000  0.000  0.000
  0.000  0.000  0.030  0.543  0.427
  0.760  0.240  0.000  0.000  0.000
    occupations:
  0.643 -0.013  0.000 -0.051 -0.000
 -0.013  0.543 -0.000 -0.006  0.000
  0.000 -0.000  0.411 -0.000 -0.022
 -0.051 -0.006 -0.000  0.630  0.000
 -0.000  0.000 -0.022  0.000  0.385
atom    4   Tr[ns(na)] =   5.22553
    eigenvalues: 
  0.398  0.429  0.555  0.586  0.645
    eigenvectors:
  0.000  0.005  0.000  0.993  0.002
  0.000  0.994  0.000  0.005  0.001
  1.000  0.000  0.000  0.000  0.000
  0.000  0.001  0.000  0.002  0.997
  0.000  0.000  1.000  0.000  0.000
    occupations:
  0.586  0.011  0.000  0.003 -0.000
  0.011  0.430 -0.000 -0.006  0.000
  0.000 -0.000  0.398  0.000  0.001
  0.003 -0.006  0.000  0.644  0.000
 -0.000  0.000  0.001  0.000  0.555
atom    9   Tr[ns(na)] =   5.25788
    eigenvalues: 
  0.453  0.458  0.486  0.615  0.618
    eigenvectors:
  0.000  0.873  0.000  0.111  0.015
  0.000  0.000  0.000  0.117  0.883
  0.717  0.000  0.283  0.000  0.000
  0.000  0.127  0.000  0.772  0.101
  0.283  0.000  0.717  0.000  0.000
    occupations:
  0.478 -0.001 -0.000  0.052 -0.000
 -0.001  0.617 -0.000 -0.001 -0.000
 -0.000 -0.000  0.462  0.000  0.015
  0.052 -0.001  0.000  0.595 -0.000
 -0.000 -0.000  0.015 -0.000  0.477
atom   10   Tr[ns(na)] =   5.06426
    eigenvalues: 
  0.351  0.456  0.512  0.551  0.662
    eigenvectors:
  0.000  0.000  0.976  0.000  0.024
  0.000  1.000  0.000  0.000  0.000
  1.000  0.000  0.000  0.000  0.000
  0.000  0.000  0.024  0.000  0.975
  0.000  0.000  0.000  1.000  0.000
    occupations:
  0.516  0.000  0.000  0.023 -0.000
  0.000  0.456  0.000  0.003  0.000
  0.000  0.000  0.351 -0.000 -0.000
  0.023  0.003 -0.000  0.658  0.000
 -0.000  0.000 -0.000  0.000  0.551
atom   16   Tr[ns(na)] =   5.22431
    eigenvalues: 
  0.376  0.422  0.539  0.589  0.687
    eigenvectors:
  0.000  0.000  0.043  0.387  0.571
  0.000  0.000  0.927  0.072  0.002
  0.203  0.797  0.000  0.000  0.000
  0.000  0.000  0.031  0.542  0.427
  0.797  0.203  0.000  0.000  0.000
    occupations:
  0.643  0.013  0.000 -0.050  0.000
  0.013  0.543  0.000  0.006  0.000
  0.000  0.000  0.413 -0.000  0.019
 -0.050  0.006 -0.000  0.629 -0.000
  0.000  0.000  0.019 -0.000  0.385
atom   17   Tr[ns(na)] =   5.22992
    eigenvalues: 
  0.400  0.427  0.552  0.588  0.648
    eigenvectors:
  0.000  0.004  0.000  0.996  0.000
  0.000  0.995  0.000  0.004  0.001
  1.000  0.000  0.000  0.000  0.000
  0.000  0.001  0.000  0.000  0.999
  0.000  0.000  1.000  0.000  0.000
    occupations:
  0.588  0.011  0.000  0.001 -0.000
  0.011  0.428 -0.000 -0.006 -0.000
  0.000 -0.000  0.400  0.000  0.001
  0.001 -0.006  0.000  0.647  0.000
 -0.000 -0.000  0.001  0.000  0.552
atom   22   Tr[ns(na)] =   5.25876
    eigenvalues: 
  0.453  0.458  0.486  0.615  0.618
    eigenvectors:
  0.000  0.875  0.000  0.112  0.014
  0.000  0.000  0.000  0.105  0.895
  0.719  0.000  0.281  0.000  0.000
  0.000  0.125  0.000  0.783  0.091
  0.281  0.000  0.719  0.000  0.000
    occupations:
  0.478  0.001  0.000  0.052 -0.000
  0.001  0.617  0.000  0.001  0.000
  0.000  0.000  0.462 -0.000 -0.015
  0.052  0.001 -0.000  0.595  0.000
 -0.000  0.000 -0.015  0.000  0.477
atom   23   Tr[ns(na)] =   5.34940
    eigenvalues: 
  0.489  0.512  0.521  0.545  0.607
    eigenvectors:
  0.000  0.000  0.000  0.002  0.998
  0.000  0.000  1.000  0.000  0.000
  1.000  0.000  0.000  0.000  0.000
  0.000  0.000  0.000  0.997  0.002
  0.000  1.000  0.000  0.000  0.000
    occupations:
  0.607 -0.000 -0.000 -0.003 -0.000
 -0.000  0.521 -0.000 -0.000  0.000
 -0.000 -0.000  0.489 -0.000  0.000
 -0.003 -0.000 -0.000  0.545 -0.000
 -0.000  0.000  0.000 -0.000  0.512
N of occupied +U levels =  41.8337910
 --- exit write_ns ---

          k = 0.0000 0.0000 0.0000 ( 32167 PWs)   bands (ev):

   -56.8687 -56.7732 -56.4124 -56.3420 -56.3334 -56.3118 -56.2555 -55.5216
   -33.7516 -33.0876 -32.9587 -32.9558 -32.9071 -32.8587 -32.8372 -32.8244
   -32.7663 -32.7327 -32.7046 -32.6453 -32.6407 -32.5345 -32.3728 -32.3162
   -32.2419 -32.2021 -32.1354 -32.1185 -32.0531 -31.9606 -31.5524 -31.5485
   -21.0529 -20.6156 -19.9621 -19.6954 -19.6639 -19.5741 -19.4705 -19.3310
   -19.3017 -19.0875 -18.8151 -18.7582 -18.6348 -18.3233 -18.2151 -18.1861
   -18.1029 -18.0290 -16.8361  -9.6147  -8.8896  -8.2541  -8.0989  -7.7913
    -7.4181  -6.9686  -6.7727  -6.6916  -6.6742  -6.6680  -6.6126  -6.4215
    -6.3821  -6.2797  -6.1621  -6.1006  -5.9543  -5.7798  -5.6600  -5.6517
    -5.6407  -5.5622  -5.5203  -5.4828  -5.2488  -5.2133  -4.9199  -4.7582
    -4.5975  -4.5852  -4.4180  -4.2433  -4.2292  -4.1014  -4.1001  -4.0703
    -3.8638  -3.8237  -3.7797  -3.7689  -3.6896  -3.6228  -3.4844  -3.4265
    -3.4020  -3.3862  -3.2433  -3.2137  -3.1978  -3.1238  -3.1186  -3.0311
    -2.9624  -2.6621  -2.6571  -2.3220  -1.1474  -0.8419  -0.6888   0.9693
     1.0498   1.0786   1.1105   1.2640   1.2724   1.3853   1.5343   1.5523
     1.7998   1.9451   2.1449   2.1705   2.3359   2.3510   2.4051   2.7059
     2.8071   2.8622   3.0987   3.1705   3.2232   3.8262   3.8777   3.8988
     4.3210   4.4476   4.5311   4.6527   4.7444   5.0255   5.0639   5.2581
     5.5212   5.6055   5.6430   5.6497   5.6853   5.7259   5.7642   5.8733
     6.0584   6.1732   6.3794   6.5133   6.5995   6.6355   6.8253   7.0303
     7.0524   7.3775   7.5322   7.5548   7.7901   7.8008   7.9917   8.0472
     8.1527   8.1745   8.3252   8.4122   8.4806   8.4964   8.7066   8.7512
     8.8135   8.8624   8.8978   8.9321   9.1302   9.2003   9.3572   9.4708
     9.4728   9.5640   9.5929   9.6619   9.7936   9.7966   9.8479   9.8827
     9.9461  10.0626  10.3111  10.3230  10.6046  10.6995  10.8236  10.9022
    10.9842  11.1408  11.1556  11.1980  11.2616  11.2668  11.2825  11.3576
    11.3684  11.4852  11.6225  11.7131  11.7213  11.7828  11.7872  11.9294
    11.9964  12.0013  12.1380  12.1579  12.2281  12.3132  12.4023  12.4499
    12.4718  12.5084  12.5966  12.7100  12.8724  12.8819  12.9493  12.9680
    13.0529  13.1906  13.2408  13.3671  13.5588  13.6483  13.6745  13.6823
    13.8324  13.9011  13.9266  14.0284  14.0561  14.0929  14.1794  14.2040
    14.2604  14.2749  14.6582  14.7552  14.8265  14.8748  15.0223  15.0750
    15.1138  15.1393  15.2714  15.2884  15.3509  15.4253  15.5331  15.5754
    15.6761  15.6869  15.8049  15.8172  15.9781  16.1514  16.1522  16.1647
    16.2884  16.4731  16.4988  16.6981  16.7067  16.7691  16.8196  16.8661
    16.9169  16.9433  17.0167  17.1265  17.1702  17.2920  17.3511  17.3861
    17.4067  17.5421  17.5704  17.5933  17.8690  17.8771  18.1037  18.1533
    18.1715  18.2301  18.2411  18.3152  18.3504  18.3642  18.4389  18.5055
    18.6353  18.7057  18.7298  18.7537  18.8515  18.9252  18.9733  19.0827
    19.1988  19.2586  19.3033  19.3965  19.4339  19.4938  19.5093  19.6071
    19.6403  19.7510  19.8652  19.9032  19.9688  20.0222  20.1021  20.1602
    20.2029  20.2582  20.2600  20.2779  20.3965

          k = 0.0000 0.2118 0.0000 ( 32193 PWs)   bands (ev):

   -56.8665 -56.7736 -56.4103 -56.3393 -56.3319 -56.3104 -56.2562 -55.5204
   -33.7508 -33.0870 -32.9603 -32.9474 -32.9198 -32.8677 -32.8367 -32.8246
   -32.7468 -32.7320 -32.7046 -32.6407 -32.6281 -32.5224 -32.3984 -32.3157
   -32.2507 -32.2031 -32.1353 -32.1182 -32.0527 -31.9611 -31.5518 -31.5517
   -21.0502 -20.6139 -19.9472 -19.6629 -19.5563 -19.5157 -19.4048 -19.3708
   -19.3301 -19.2600 -19.1599 -18.5323 -18.3991 -18.3893 -18.2582 -18.2116
   -18.0965 -18.0297 -16.8357  -9.6132  -8.8854  -8.2532  -7.7191  -7.5172
    -7.2884  -7.1364  -7.0288  -7.0007  -6.8141  -6.7294  -6.6867  -6.6190
    -6.5079  -6.3690  -6.2648  -6.0105  -5.7053  -5.6757  -5.5914  -5.5520
    -5.5299  -5.3592  -5.3217  -5.3034  -5.0922  -5.0612  -4.9566  -4.7672
    -4.7521  -4.7165  -4.5234  -4.4584  -4.4004  -4.1694  -4.1260  -3.9452
    -3.9296  -3.8556  -3.8413  -3.6861  -3.6110  -3.6062  -3.5820  -3.5102
    -3.4704  -3.4346  -3.3266  -3.2693  -3.2483  -3.1855  -3.1221  -3.0361
    -3.0011  -2.7510  -2.7347  -2.4311  -0.8481  -0.6860  -0.2654   0.4682
     0.6525   0.9795   1.0803   1.2611   1.3745   1.7675   1.8416   1.8518
     1.9670   2.1214   2.1513   2.2183   2.2521   2.3667   2.4185   2.7297
     2.7982   2.8969   3.0268   3.2375   3.2548   3.7073   3.8774   4.1109
     4.3418   4.4725   4.4785   4.6960   4.7092   4.8264   4.8669   5.0386
     5.2875   5.3532   5.3545   5.4125   5.4187   5.6834   6.0466   6.2738
     6.2949   6.4574   6.4725   6.5841   6.6036   6.6977   6.7497   6.8520
     6.8762   7.0442   7.1793   7.5359   7.6737   7.7161   7.7974   7.9464
     8.1418   8.3353   8.5250   8.6643   8.6897   8.7204   8.7348   8.9350
     8.9506   9.0641   9.0916   9.2017   9.2898   9.3512   9.3752   9.4618
     9.6140   9.7245   9.7495   9.8127   9.8190   9.9022   9.9782   9.9928
    10.0768  10.1350  10.3310  10.3969  10.4794  10.5723  10.6788  10.7591
    10.7793  10.7872  10.8670  10.9931  11.0426  11.1071  11.1135  11.2937
    11.3396  11.4384  11.5597  11.6402  11.6595  11.8600  11.9143  11.9243
    12.1338  12.2457  12.2966  12.3072  12.4683  12.5660  12.6024  12.6558
    12.6907  12.7144  12.7695  12.8217  12.8910  13.0087  13.0400  13.1956
    13.2496  13.3128  13.4433  13.4526  13.5351  13.5966  13.6290  13.7038
    13.8095  13.8634  13.9070  13.9376  14.0788  14.1122  14.1604  14.1836
    14.3242  14.3692  14.3867  14.3925  14.5284  14.7044  14.7973  14.8062
    14.9186  14.9618  15.1609  15.1754  15.2479  15.2848  15.2972  15.3398
    15.4622  15.5347  15.6835  15.7702  16.0229  16.0596  16.1282  16.1774
    16.2717  16.3088  16.4769  16.4875  16.4931  16.5784  16.6891  16.7247
    16.7460  16.8138  16.9185  17.0179  17.1130  17.2002  17.2986  17.3986
    17.5019  17.6144  17.6823  17.6973  17.7891  17.8427  17.9062  17.9536
    17.9734  18.0662  18.1239  18.2013  18.2465  18.2885  18.3363  18.3756
    18.4339  18.6541  18.6715  18.7082  18.7548  18.8540  18.8563  18.9185
    18.9521  19.0300  19.0803  19.1318  19.1705  19.2151  19.3813  19.4416
    19.5240  19.6583  19.6678  19.6908  19.8181  19.8762  19.9595  20.0322
    20.0774  20.1108  20.1664  20.1781  20.2060

          k = 0.0000-0.4237 0.0000 ( 32162 PWs)   bands (ev):

   -56.8643 -56.7739 -56.4082 -56.3366 -56.3305 -56.3090 -56.2569 -55.5192
   -33.7500 -33.0863 -32.9604 -32.9405 -32.9311 -32.8762 -32.8362 -32.8248
   -32.7326 -32.7226 -32.7045 -32.6406 -32.6124 -32.5110 -32.4275 -32.3152
   -32.2597 -32.2040 -32.1353 -32.1179 -32.0523 -31.9616 -31.5549 -31.5512
   -21.0476 -20.6121 -19.9386 -19.6616 -19.5760 -19.5300 -19.3418 -19.3303
   -19.3246 -19.1999 -18.9647 -18.8863 -18.7643 -18.2090 -18.1879 -18.0918
   -18.0580 -18.0306 -16.8354  -9.6117  -8.8811  -8.2520  -7.4993  -7.3570
    -7.2180  -7.1853  -7.0804  -7.0072  -6.8522  -6.6879  -6.6354  -6.6275
    -6.4735  -6.4683  -6.0208  -6.0084  -5.9471  -5.8850  -5.7699  -5.6835
    -5.5669  -5.5121  -5.2700  -5.2172  -5.0359  -5.0011  -4.9834  -4.7487
    -4.6553  -4.4922  -4.4637  -4.4281  -4.3958  -4.2142  -4.1166  -4.0818
    -4.0089  -3.8391  -3.7766  -3.7718  -3.7404  -3.7152  -3.6993  -3.6460
    -3.5587  -3.3808  -3.2743  -3.2552  -3.1840  -3.1746  -3.1084  -2.9338
    -2.9306  -2.8387  -2.7332  -2.7011  -0.8329  -0.3673   0.0614   0.1817
     0.3022   0.8728   1.0792   1.2447   1.7151   1.8975   1.9302   2.0375
     2.0668   2.1635   2.2699   2.3109   2.3256   2.4368   2.4707   2.7457
     2.7815   2.9204   2.9593   3.3337   3.4059   3.4666   3.5276   4.0901
     4.2212   4.4958   4.5406   4.6271   4.8662   4.9151   5.0008   5.0066
     5.1217   5.2761   5.2886   5.3542   5.5139   5.5289   5.8018   5.8348
     6.1732   6.3220   6.6022   6.6346   6.6532   6.7981   6.8820   6.8835
     6.9589   7.0040   7.1457   7.2736   7.3523   7.8979   7.9237   8.1240
     8.1330   8.1768   8.5892   8.6340   8.6420   8.7757   8.7978   8.8544
     8.9186   9.1139   9.3169   9.3751   9.4724   9.4851   9.5629   9.5654
     9.6194   9.6695   9.7515   9.7743   9.8422   9.9360   9.9816  10.3274
    10.3503  10.3652  10.4229  10.4699  10.5779  10.6925  10.8591  10.8910
    10.9582  11.0321  11.1545  11.1763  11.2280  11.3207  11.3263  11.3678
    11.3884  11.4448  11.4462  11.4946  11.6473  11.6798  11.7130  11.7182
    11.8438  11.9491  12.0827  12.1159  12.1691  12.1810  12.2655  12.2726
    12.5278  12.6571  12.7558  12.8675  12.9327  12.9411  13.0215  13.0800
    13.1391  13.2521  13.2923  13.5233  13.5302  13.6514  13.6890  13.8015
    13.8771  13.9655  13.9884  14.0471  14.0704  14.1701  14.2205  14.4445
    14.5923  14.6527  14.7571  14.7804  14.8685  14.8714  14.9016  14.9240
    14.9669  15.0435  15.1514  15.2436  15.2509  15.4178  15.4354  15.5647
    15.5837  15.6289  15.6781  15.7309  15.7692  15.8971  15.9632  16.0710
    16.1443  16.1763  16.1930  16.2176  16.2700  16.3931  16.5387  16.5841
    16.6803  16.7324  16.7477  16.7495  16.8373  16.8670  16.9077  17.1453
    17.1782  17.2141  17.3674  17.4483  17.5222  17.5384  17.5706  17.6380
    17.7259  17.7471  17.7529  17.9142  17.9715  18.1040  18.1441  18.2410
    18.3170  18.4140  18.4204  18.4702  18.5062  18.5227  18.5744  18.5844
    18.7260  18.8473  18.8527  19.1225  19.1357  19.1696  19.3066  19.4204
    19.4496  19.5499  19.5707  19.5849  19.6351  19.7012  19.7050  19.7133
    19.8510  20.2325  20.2743  20.2806  20.3071

          k = 0.2500 0.0000 0.0000 ( 32181 PWs)   bands (ev):

   -56.8535 -56.7860 -56.3952 -56.3298 -56.3187 -56.3139 -56.2576 -55.5170
   -33.6150 -33.0639 -32.9415 -32.9415 -32.8897 -32.8727 -32.8425 -32.7938
   -32.7464 -32.7439 -32.7213 -32.6607 -32.6455 -32.4716 -32.3529 -32.2862
   -32.2373 -32.2272 -32.2049 -32.1877 -32.1118 -32.0729 -31.6382 -31.5558
   -21.0079 -20.5886 -19.8721 -19.6153 -19.5639 -19.4281 -19.3300 -19.2767
   -19.2479 -18.9742 -18.8902 -18.7639 -18.7250 -18.4335 -18.4140 -18.2751
   -18.2450 -18.1128 -16.8352  -9.5054  -8.9275  -8.0612  -7.8255  -7.6145
    -7.3963  -6.9375  -6.6870  -6.6709  -6.6382  -6.5970  -6.4447  -6.3993
    -6.3650  -6.2749  -6.2444  -6.0843  -6.0367  -5.9530  -5.9211  -5.8108
    -5.7333  -5.4524  -5.2766  -5.1388  -5.0970  -4.9986  -4.9539  -4.7970
    -4.6033  -4.4817  -4.4636  -4.3460  -4.2976  -4.2717  -4.2280  -4.0862
    -3.9951  -3.9324  -3.9032  -3.8193  -3.7537  -3.7014  -3.6716  -3.6058
    -3.5602  -3.4484  -3.3519  -3.3135  -3.2493  -3.1506  -3.1169  -3.0244
    -2.9844  -2.7063  -2.6999  -2.3966  -0.6738  -0.4599  -0.2287   0.8300
     1.0765   1.1169   1.1730   1.2434   1.2685   1.4025   1.5179   1.6913
     1.7717   1.8143   1.8973   2.0606   2.1180   2.2187   2.2969   2.3225
     2.4664   2.6959   2.7133   3.1069   3.1449   3.7901   4.0150   4.0925
     4.2486   4.6849   4.7200   4.8629   4.9743   5.0976   5.2395   5.4526
     5.4726   5.4852   5.4898   5.5164   5.5793   5.6317   5.8457   5.9585
     5.9972   6.0057   6.2901   6.3684   6.5062   6.6630   6.9031   7.0428
     7.2055   7.2655   7.2876   7.3628   7.6876   7.7563   7.7586   7.8253
     7.8523   8.0159   8.0332   8.2799   8.3969   8.5066   8.5352   8.6415
     8.7126   8.8999   9.1231   9.1447   9.1622   9.2417   9.2676   9.4054
     9.4531   9.4921   9.7028   9.8291   9.8678   9.8995   9.9498  10.0414
    10.1172  10.1555  10.2351  10.4703  10.5684  10.6178  10.6213  10.8568
    10.9132  10.9583  11.0509  11.0586  11.0897  11.2312  11.3162  11.4854
    11.5555  11.5959  11.7025  11.7639  11.7663  11.8201  11.8628  11.9651
    12.2300  12.3061  12.3797  12.4999  12.5353  12.5752  12.6296  12.6456
    12.7474  12.9141  13.0945  13.1328  13.2436  13.3072  13.3351  13.4147
    13.4377  13.6474  13.6923  13.7659  13.7990  13.8484  14.0213  14.0988
    14.1330  14.1946  14.2282  14.2702  14.3019  14.3903  14.5373  14.6420
    14.7133  14.7656  14.8211  14.8918  14.9461  14.9839  15.1345  15.1450
    15.3034  15.3309  15.3613  15.4370  15.5460  15.5835  15.6484  15.7634
    15.7933  15.8581  15.8904  15.9261  16.0058  16.1634  16.2482  16.3417
    16.3932  16.4371  16.6116  16.6149  16.7279  16.7740  16.7915  16.8577
    16.9001  16.9099  16.9818  17.0912  17.1361  17.2053  17.2291  17.2832
    17.3735  17.4529  17.5067  17.5495  17.5909  17.7587  17.7831  17.8054
    17.8540  17.9067  18.0327  18.1066  18.1254  18.1854  18.2182  18.3024
    18.3830  18.4883  18.5647  18.6058  18.6893  18.7005  18.7899  18.7997
    18.8583  18.8806  18.9476  18.9663  19.0612  19.0946  19.2311  19.2815
    19.3427  19.3464  19.3852  19.4379  19.5120  19.5343  19.6915  19.7252
    19.7259  19.8010  19.8091  19.9193  19.9460

          k = 0.2500 0.2118 0.0000 ( 32165 PWs)   bands (ev):

   -56.8517 -56.7860 -56.3932 -56.3284 -56.3165 -56.3122 -56.2580 -55.5158
   -33.6142 -33.0633 -32.9447 -32.9333 -32.8896 -32.8774 -32.8429 -32.8127
   -32.7446 -32.7307 -32.7207 -32.6454 -32.6338 -32.4629 -32.3754 -32.2859
   -32.2456 -32.2316 -32.2025 -32.1876 -32.1115 -32.0730 -31.6368 -31.5597
   -21.0058 -20.5869 -19.8631 -19.6134 -19.4410 -19.3500 -19.3243 -19.3079
   -19.2599 -19.1813 -19.1020 -18.6102 -18.5137 -18.4497 -18.4094 -18.3625
   -18.2413 -18.1079 -16.8349  -9.5037  -8.9242  -8.0596  -7.5832  -7.3984
    -7.1826  -7.0359  -7.0002  -6.8471  -6.7238  -6.6783  -6.6340  -6.3980
    -6.3631  -6.3512  -6.2000  -6.0767  -6.0410  -5.9191  -5.8349  -5.6140
    -5.5016  -5.3636  -5.2719  -5.0614  -4.9562  -4.9075  -4.7886  -4.7262
    -4.6621  -4.6217  -4.4924  -4.4780  -4.4340  -4.3773  -4.3343  -4.2852
    -4.1103  -4.0668  -4.0024  -3.9099  -3.8750  -3.7654  -3.6934  -3.6305
    -3.5169  -3.4225  -3.3669  -3.2857  -3.2601  -3.1688  -3.0599  -2.9764
    -2.9442  -2.7783  -2.6945  -2.4419  -0.5101  -0.2339   0.1237   0.6152
     0.6385   0.9976   1.2294   1.3020   1.3999   1.6566   1.6776   1.7672
     1.8671   1.9178   2.0441   2.0918   2.2127   2.2351   2.3443   2.3640
     2.5832   2.6241   2.8194   2.9455   3.2812   3.6538   4.0654   4.1337
     4.3669   4.5399   4.6026   4.6290   4.8925   4.9530   4.9966   5.0914
     5.2046   5.2573   5.4032   5.5831   5.6240   5.7279   5.9583   6.0291
     6.1729   6.1989   6.4972   6.5385   6.5711   6.5981   6.7726   6.8640
     6.8886   7.0594   7.1923   7.2753   7.4318   7.4895   7.7939   7.9191
     8.0032   8.0327   8.1159   8.1814   8.2531   8.5184   8.6336   8.6939
     8.8124   8.8875   9.0058   9.0792   9.1652   9.2625   9.2739   9.4748
     9.5395   9.5984   9.7465   9.8617   9.9068  10.0065  10.0719  10.1510
    10.2593  10.3782  10.5676  10.7197  10.7603  10.9041  10.9675  10.9989
    11.1208  11.1486  11.2144  11.2832  11.3983  11.4408  11.5017  11.5453
    11.6478  11.7585  11.8946  11.9007  12.0057  12.1096  12.1373  12.1981
    12.2659  12.3565  12.3884  12.4681  12.6115  12.6653  12.6938  12.7368
    12.7625  12.8622  12.9552  12.9898  13.0406  13.0948  13.2282  13.2757
    13.3536  13.3895  13.5154  13.6207  13.7060  13.7440  13.7883  13.8537
    13.9188  13.9468  14.0045  14.1263  14.1541  14.2861  14.3784  14.3993
    14.4785  14.5871  14.6624  14.7770  14.9109  14.9241  15.0271  15.1031
    15.1944  15.2545  15.2886  15.3220  15.3862  15.4447  15.5240  15.5715
    15.6470  15.6913  15.7919  15.8638  15.9097  15.9929  16.0363  16.0781
    16.2047  16.2699  16.3613  16.3940  16.4646  16.4929  16.5698  16.6742
    16.7201  16.7714  16.8572  16.9397  17.0150  17.1056  17.1381  17.2126
    17.2827  17.3447  17.3669  17.4233  17.4693  17.5727  17.6154  17.7084
    17.7513  17.8542  17.9494  17.9716  18.0798  18.1405  18.1925  18.3824
    18.3884  18.4329  18.4679  18.5357  18.6164  18.6553  18.6947  18.7763
    18.8565  18.9214  18.9705  19.0838  19.1384  19.1725  19.2250  19.3245
    19.3588  19.3987  19.4897  19.5228  19.5928  19.6461  19.6583  19.6917
    19.7576  19.8820  19.9067  19.9952  20.0678

          k = 0.2500-0.4237 0.0000 ( 32188 PWs)   bands (ev):

   -56.8499 -56.7860 -56.3912 -56.3270 -56.3142 -56.3105 -56.2583 -55.5145
   -33.6135 -33.0628 -32.9451 -32.9279 -32.8895 -32.8818 -32.8441 -32.8266
   -32.7446 -32.7215 -32.7117 -32.6452 -32.6118 -32.4544 -32.3996 -32.2856
   -32.2539 -32.2361 -32.1998 -32.1883 -32.1112 -32.0731 -31.6354 -31.5637
   -21.0037 -20.5852 -19.8572 -19.6113 -19.4783 -19.3584 -19.3188 -19.2593
   -19.2432 -19.0419 -18.9830 -18.8405 -18.8328 -18.4085 -18.3343 -18.2381
   -18.2024 -18.0981 -16.8346  -9.5020  -8.9208  -8.0574  -7.5195  -7.2034
    -7.0537  -7.0452  -6.8816  -6.8574  -6.8125  -6.5627  -6.5619  -6.4780
    -6.4311  -6.3709  -6.3204  -6.2772  -6.1096  -6.0608  -5.6943  -5.6898
    -5.3082  -5.1710  -5.1385  -5.0732  -4.9420  -4.8563  -4.8379  -4.7883
    -4.7211  -4.6639  -4.6083  -4.5606  -4.4571  -4.4219  -4.4197  -4.3064
    -4.2278  -4.1442  -4.0372  -4.0053  -3.9699  -3.8031  -3.7572  -3.6353
    -3.5552  -3.4070  -3.3509  -3.3416  -3.1800  -3.1776  -3.0353  -2.9345
    -2.7790  -2.7778  -2.6409  -2.6087  -0.4998   0.0413   0.3369   0.3637
     0.4560   0.9489   1.2372   1.3743   1.5402   1.6666   1.8084   1.9884
     2.0092   2.1065   2.1230   2.1473   2.1481   2.3729   2.4869   2.5036
     2.5369   2.6790   2.8972   2.9633   3.4297   3.5011   3.7637   3.9607
     4.0762   4.1906   4.5114   4.6425   4.7772   4.8963   5.0390   5.0627
     5.1699   5.3197   5.5352   5.5905   5.7253   5.7861   5.8770   5.8988
     5.9713   6.1129   6.2900   6.5149   6.5154   6.6293   6.7561   7.0595
     7.1165   7.1574   7.1639   7.2518   7.3540   7.4641   7.6508   7.7577
     7.8369   8.0241   8.1995   8.2324   8.3301   8.3708   8.4290   8.4670
     8.5180   8.8099   8.8358   8.8765   9.0428   9.2750   9.2923   9.5117
     9.7876   9.8756  10.0296  10.1153  10.1803  10.2608  10.4217  10.4423
    10.6464  10.8438  10.8710  10.9474  10.9716  11.2532  11.2686  11.2807
    11.3388  11.4139  11.4377  11.4926  11.5526  11.6001  11.6543  11.7852
    11.8308  11.8452  11.9110  11.9359  11.9995  12.0448  12.1247  12.2215
    12.2326  12.3081  12.4149  12.4207  12.5383  12.5920  12.6718  12.7572
    12.7663  12.8452  12.8892  12.9209  13.0289  13.0461  13.1720  13.2819
    13.3211  13.3586  13.4284  13.5139  13.5393  13.6500  13.6728  13.6781
    13.7288  13.7728  13.8371  13.9317  13.9662  14.0129  14.0257  14.2255
    14.2483  14.3256  14.4258  14.4809  14.5685  14.7207  14.7234  14.8338
    14.9214  15.1007  15.1106  15.1711  15.1797  15.2578  15.3200  15.3975
    15.4442  15.5275  15.6638  15.7136  15.7511  15.8758  16.0229  16.0549
    16.1620  16.2835  16.2866  16.4271  16.4437  16.5169  16.6825  16.6938
    16.7758  16.8210  16.8608  16.8946  17.0119  17.0291  17.1362  17.2023
    17.2232  17.2784  17.4200  17.4294  17.5684  17.5717  17.6198  17.6831
    17.7338  17.8340  17.8952  17.9537  17.9634  18.0961  18.1005  18.1849
    18.3703  18.4044  18.4593  18.4786  18.5126  18.5720  18.6910  18.7405
    18.7434  18.8207  18.8785  18.8855  18.9798  19.0804  19.1230  19.2330
    19.2867  19.3052  19.3316  19.4096  19.4617  19.4849  19.5534  19.6532
    19.6750  19.7505  19.7782  19.8774  19.8970

          k =-0.5000 0.0000 0.0000 ( 32166 PWs)   bands (ev):

   -56.8213 -56.8156 -56.3755 -56.3262 -56.3185 -56.2788 -56.2764 -55.5125
   -33.2815 -33.2649 -32.9609 -32.9392 -32.9334 -32.9106 -32.9033 -32.7115
   -32.7024 -32.6999 -32.6527 -32.5355 -32.4973 -32.4843 -32.4394 -32.3973
   -32.3181 -32.2674 -32.2326 -32.2185 -32.1887 -32.0955 -31.7437 -31.5631
   -20.9629 -20.5612 -19.7381 -19.6759 -19.4143 -19.2185 -19.1982 -19.0808
   -19.0587 -18.8832 -18.8699 -18.7690 -18.7450 -18.7047 -18.7001 -18.5470
   -18.4517 -18.1305 -16.8344  -9.3931  -8.9644  -7.7198  -7.6763  -7.1807
    -7.1036  -7.0799  -6.9527  -6.9213  -6.6578  -6.5872  -6.5019  -6.4917
    -6.3827  -6.3685  -6.2842  -5.8040  -5.7260  -5.6684  -5.6118  -5.5437
    -5.4200  -5.3376  -5.3014  -5.1841  -5.1273  -5.1176  -5.1034  -4.9606
    -4.8415  -4.8195  -4.5306  -4.5056  -4.4855  -4.4234  -4.4114  -4.2621
    -4.1977  -4.0877  -3.9779  -3.8749  -3.8536  -3.7494  -3.6941  -3.6763
    -3.6741  -3.4088  -3.3099  -3.2625  -3.1983  -3.1610  -3.0860  -2.9710
    -2.8536  -2.7482  -2.7354  -2.5054  -0.0059   0.4589   0.5452   0.6036
     0.7429   0.7819   0.9493   0.9805   1.2194   1.2239   1.2371   1.5664
     1.6254   1.6316   1.7296   1.8694   1.9239   1.9460   2.1093   2.5126
     2.6904   2.7219   2.9478   2.9943   3.1459   3.2429   3.6763   4.6482
     4.6626   4.8342   4.8455   5.1226   5.2247   5.3017   5.3449   5.3828
     5.4048   5.4089   5.4234   5.4767   5.4801   5.6216   5.6425   5.7571
     5.8010   6.2083   6.2924   6.3875   6.4304   6.5051   6.6606   6.6875
     6.7808   7.0259   7.3030   7.3230   7.3828   7.5017   7.9775   7.9866
     8.0446   8.0521   8.1335   8.2830   8.4857   8.5993   8.6610   8.6632
     8.6982   8.7511   8.8382   8.9298   8.9728   9.1042   9.1354   9.2204
     9.4195   9.5469   9.6534   9.7040   9.8070   9.8505   9.9445  10.0423
    10.0939  10.1276  10.2972  10.3872  10.4396  10.5385  10.5953  10.7166
    10.8791  11.0172  11.0961  11.2025  11.2574  11.3794  11.3830  11.4006
    11.5456  11.7342  11.8971  12.1669  12.2131  12.3773  12.3865  12.4717
    12.5399  12.6843  12.7020  12.7210  12.7355  12.7610  13.0821  13.0855
    13.1179  13.1758  13.2132  13.2810  13.4380  13.6867  13.7118  13.7277
    13.7888  13.9202  13.9440  14.0333  14.1156  14.1967  14.2634  14.3242
    14.3430  14.4684  14.4906  14.4998  14.5407  14.6564  14.6953  14.7897
    14.8464  14.8497  14.9426  14.9820  15.1452  15.3277  15.3851  15.4829
    15.5857  15.6001  15.6458  15.7723  15.7865  15.8234  15.8916  15.9140
    16.0584  16.0633  16.1249  16.1434  16.1576  16.2295  16.3214  16.3808
    16.4211  16.5363  16.6354  16.7754  16.7940  16.8236  16.8868  16.9030
    16.9621  17.0257  17.0764  17.0919  17.1378  17.1708  17.1895  17.2400
    17.2930  17.3219  17.3560  17.3807  17.5388  17.5591  17.5871  17.6411
    17.6758  17.7403  17.7586  17.8112  17.8532  17.8831  17.9325  17.9577
    17.9659  17.9699  18.0318  18.1690  18.2012  18.2306  18.2386  18.3506
    18.4098  18.4308  18.4557  18.6454  18.6793  18.7191  18.7316  18.8518
    18.9406  18.9589  18.9836  18.9955  19.0685  19.1336  19.1620  19.1975
    19.2136  19.4037  19.4302  19.4606  19.4829

          k =-0.5000 0.2118 0.0000 ( 32144 PWs)   bands (ev):

   -56.8204 -56.8148 -56.3735 -56.3248 -56.3166 -56.2780 -56.2755 -55.5111
   -33.2813 -33.2642 -32.9600 -32.9391 -32.9354 -32.9076 -32.9023 -32.7119
   -32.7028 -32.6994 -32.6525 -32.5211 -32.4989 -32.4728 -32.4422 -32.3917
   -32.3297 -32.2792 -32.2403 -32.2180 -32.1884 -32.0954 -31.7408 -31.5679
   -20.9613 -20.5595 -19.7353 -19.6725 -19.4068 -19.2242 -19.2028 -19.0779
   -19.0479 -18.8851 -18.8713 -18.7742 -18.7545 -18.6824 -18.6804 -18.5247
   -18.4874 -18.1247 -16.8341  -9.3910  -8.9616  -7.7084  -7.6638  -7.1032
    -7.0805  -7.0573  -6.9859  -6.9207  -6.6626  -6.6485  -6.4132  -6.3627
    -6.2314  -6.2060  -6.1714  -5.7864  -5.6815  -5.6548  -5.6058  -5.5791
    -5.4712  -5.4166  -5.3804  -5.3553  -5.3479  -5.2549  -5.1481  -4.9957
    -4.9573  -4.7404  -4.6212  -4.5201  -4.4374  -4.4123  -4.3720  -4.2740
    -4.2321  -4.1446  -4.0995  -4.0251  -3.8688  -3.8407  -3.7983  -3.6152
    -3.5092  -3.4606  -3.3687  -3.2873  -3.2233  -3.1642  -3.0192  -2.9214
    -2.9082  -2.7440  -2.6071  -2.5238   0.0438   0.5624   0.6339   0.7399
     0.8171   0.9497   0.9513   1.0268   1.0822   1.2684   1.4028   1.6092
     1.6766   1.7670   1.8136   1.8674   2.0335   2.0703   2.2517   2.3812
     2.6578   2.6933   2.7650   3.2316   3.2528   3.3554   3.5825   4.5578
     4.5659   4.6106   4.6483   4.7246   4.7439   5.0541   5.0775   5.3044
     5.3144   5.4500   5.4527   5.5836   5.6249   5.8796   5.8888   5.9881
     5.9984   6.0736   6.0871   6.3780   6.5232   6.5915   6.6074   6.7297
     6.7773   6.9370   7.2880   7.3780   7.3904   7.5158   7.5435   7.5851
     7.6906   7.7822   7.8390   7.8524   8.0867   8.2062   8.5332   8.6767
     8.7965   8.8635   8.9301   8.9606   9.0516   9.0837   9.5590   9.6319
     9.6582   9.7971   9.8824  10.0092  10.1327  10.1886  10.2272  10.2423
    10.3327  10.3973  10.4942  10.5943  10.6381  10.7577  10.8840  10.9029
    11.1491  11.2948  11.3289  11.4720  11.4726  11.5179  11.5846  11.7482
    11.8250  11.8594  12.0821  12.1593  12.2590  12.3843  12.5034  12.5680
    12.6101  12.7622  12.7903  12.8205  12.8688  12.9632  13.1414  13.2242
    13.2731  13.3122  13.3525  13.4131  13.4747  13.5301  13.6003  13.6892
    13.7471  13.7896  13.8637  13.9043  13.9318  13.9689  14.1208  14.1594
    14.1689  14.3068  14.3126  14.4089  14.4411  14.5399  14.5630  14.6418
    14.7237  14.7363  14.8300  14.8678  14.9142  14.9988  15.0372  15.0595
    15.0817  15.1087  15.2553  15.2772  15.3178  15.4302  15.5080  15.5581
    15.6166  15.6451  15.7947  15.8172  15.8545  15.9320  15.9495  15.9557
    16.0202  16.0953  16.1251  16.2481  16.2728  16.3325  16.3603  16.4107
    16.4651  16.6372  16.6958  16.8072  16.8600  16.8613  16.9387  16.9817
    17.1161  17.1326  17.1625  17.3480  17.3656  17.3683  17.5223  17.5438
    17.5933  17.6419  17.7099  17.7394  17.7920  17.8251  17.9227  18.0124
    18.0356  18.1201  18.1672  18.3185  18.4207  18.4715  18.4873  18.6660
    18.6949  18.8349  18.8518  18.8765  18.9227  19.0112  19.0328  19.1663
    19.1772  19.2339  19.2463  19.3815  19.4018  19.4371  19.5370  19.6412
    19.7100  19.7691  19.8344  19.8918  19.9424

          k =-0.5000-0.4237 0.0000 ( 32256 PWs)   bands (ev):

   -56.8196 -56.8140 -56.3715 -56.3234 -56.3146 -56.2772 -56.2746 -55.5098
   -33.2810 -33.2635 -32.9590 -32.9389 -32.9370 -32.9079 -32.8987 -32.7122
   -32.7045 -32.6973 -32.6523 -32.5043 -32.5019 -32.4592 -32.4451 -32.3861
   -32.3434 -32.2922 -32.2480 -32.2177 -32.1882 -32.0953 -31.7381 -31.5727
   -20.9598 -20.5578 -19.7325 -19.6692 -19.3998 -19.2299 -19.2075 -19.0954
   -19.0103 -18.8864 -18.8723 -18.7763 -18.7597 -18.6646 -18.6632 -18.5289
   -18.5039 -18.1185 -16.8337  -9.3890  -8.9590  -7.6981  -7.6517  -7.0501
    -7.0398  -7.0120  -6.9604  -6.8446  -6.6711  -6.6057  -6.4458  -6.3459
    -6.1080  -6.0880  -6.0639  -5.7755  -5.7549  -5.7179  -5.5828  -5.5713
    -5.5521  -5.5138  -5.4728  -5.4286  -5.4121  -5.3916  -5.0300  -4.8834
    -4.8544  -4.6630  -4.6078  -4.6021  -4.5408  -4.5382  -4.4976  -4.3608
    -4.2866  -4.2392  -4.2208  -4.1927  -4.0620  -3.8355  -3.7840  -3.6514
    -3.4283  -3.4255  -3.3822  -3.3342  -3.2017  -3.1965  -2.8784  -2.8697
    -2.7989  -2.7786  -2.5592  -2.5456   0.0639   0.4610   0.6395   0.8410
     0.8764   0.8995   0.9488   0.9521   1.4056   1.4656   1.5943   1.8024
     1.8296   1.8387   1.9147   1.9636   2.1840   2.2376   2.2758   2.4473
     2.5422   2.5861   2.7744   3.3899   3.3971   3.4759   3.5091   4.0184
     4.0692   4.0721   4.2271   4.5092   4.5253   5.0826   5.1514   5.3268
     5.3744   5.6296   5.6340   5.7286   5.7762   5.8913   5.9086   5.9334
     6.0969   6.3479   6.4316   6.4399   6.4840   6.4847   6.5257   6.5874
     6.6336   6.8291   6.8896   6.9636   7.0843   7.2370   7.2425   7.3491
     7.7483   8.0359   8.0364   8.0817   8.1543   8.2230   8.2916   8.3120
     8.7520   8.8417   9.0401   9.1278   9.1515   9.2531   9.3028   9.3743
     9.4244   9.5172   9.6706   9.7154  10.4983  10.6591  10.7229  10.7858
    10.8099  10.8400  10.8834  10.8944  11.0064  11.1936  11.5884  11.6015
    11.6111  11.7415  11.8180  11.8282  11.8978  11.9935  12.0281  12.0470
    12.1282  12.2104  12.2933  12.4455  12.4633  12.5333  12.5739  12.5923
    12.6023  12.6668  12.6803  12.8089  12.8262  12.9121  13.0102  13.0279
    13.0426  13.1179  13.1639  13.1920  13.3575  13.3960  13.4013  13.4270
    13.4827  13.5065  13.5352  13.5722  13.8277  13.8934  13.9204  13.9297
    14.0446  14.0471  14.0696  14.0721  14.2428  14.2784  14.2933  14.3100
    14.3611  14.6136  14.6364  14.6708  14.6758  14.7046  14.7530  14.7668
    14.7745  14.8625  14.9664  15.0617  15.0958  15.1135  15.2283  15.2554
    15.4404  15.4437  15.4603  15.4963  15.5740  15.6399  15.7190  15.7747
    15.8370  15.8824  15.8848  15.9206  16.0128  16.0482  16.0915  16.0997
    16.3313  16.3637  16.6233  16.6615  16.7440  16.7680  16.8217  16.9230
    17.0201  17.0596  17.1902  17.2880  17.3157  17.4009  17.5148  17.5443
    17.5460  17.5663  17.6268  17.6581  17.7286  17.7787  17.8075  18.0061
    18.0625  18.2272  18.3197  18.3534  18.4074  18.5598  18.6299  18.6386
    18.6482  18.9304  18.9626  18.9893  18.9900  19.1225  19.2282  19.5273
    19.5344  19.5406  19.5645  19.6032  19.6231  19.6633  19.7249  19.8943
    19.9111  19.9348  20.2215  20.2423  20.3252

          k =-0.2500 0.2118 0.0000 ( 32165 PWs)   bands (ev):

   -56.8517 -56.7860 -56.3932 -56.3284 -56.3165 -56.3122 -56.2580 -55.5158
   -33.6142 -33.0633 -32.9447 -32.9333 -32.8896 -32.8774 -32.8429 -32.8127
   -32.7446 -32.7308 -32.7207 -32.6454 -32.6339 -32.4629 -32.3753 -32.2859
   -32.2456 -32.2316 -32.2025 -32.1877 -32.1115 -32.0730 -31.6368 -31.5597
   -21.0058 -20.5869 -19.8631 -19.6134 -19.4410 -19.3500 -19.3243 -19.3079
   -19.2599 -19.1813 -19.1020 -18.6102 -18.5137 -18.4497 -18.4094 -18.3625
   -18.2413 -18.1079 -16.8349  -9.5037  -8.9242  -8.0596  -7.5833  -7.3984
    -7.1827  -7.0359  -7.0001  -6.8471  -6.7238  -6.6784  -6.6340  -6.3980
    -6.3631  -6.3513  -6.1998  -6.0767  -6.0411  -5.9190  -5.8347  -5.6139
    -5.5014  -5.3634  -5.2719  -5.0620  -4.9561  -4.9082  -4.7888  -4.7252
    -4.6622  -4.6217  -4.4924  -4.4778  -4.4345  -4.3773  -4.3340  -4.2857
    -4.1103  -4.0672  -4.0020  -3.9096  -3.8749  -3.7652  -3.6935  -3.6307
    -3.5168  -3.4227  -3.3668  -3.2850  -3.2608  -3.1691  -3.0597  -2.9758
    -2.9441  -2.7785  -2.6947  -2.4421  -0.5101  -0.2340   0.1237   0.6156
     0.6385   0.9975   1.2295   1.3019   1.3997   1.6564   1.6774   1.7670
     1.8674   1.9179   2.0441   2.0917   2.2126   2.2353   2.3444   2.3642
     2.5833   2.6240   2.8194   2.9453   3.2812   3.6537   4.0655   4.1338
     4.3669   4.5399   4.6026   4.6290   4.8927   4.9529   4.9965   5.0914
     5.2046   5.2573   5.4031   5.5831   5.6239   5.7279   5.9582   6.0293
     6.1730   6.1985   6.4970   6.5386   6.5712   6.5981   6.7725   6.8638
     6.8886   7.0593   7.1924   7.2755   7.4314   7.4896   7.7942   7.9193
     8.0031   8.0327   8.1166   8.1817   8.2533   8.5182   8.6328   8.6943
     8.8124   8.8872   9.0063   9.0797   9.1650   9.2635   9.2732   9.4737
     9.5404   9.5974   9.7465   9.8612   9.9074  10.0054  10.0722  10.1513
    10.2600  10.3779  10.5673  10.7197  10.7600  10.9044  10.9673  10.9988
    11.1206  11.1489  11.2143  11.2833  11.3985  11.4401  11.5019  11.5457
    11.6481  11.7588  11.8958  11.8999  12.0056  12.1096  12.1375  12.1981
    12.2663  12.3566  12.3888  12.4685  12.6107  12.6664  12.6939  12.7369
    12.7628  12.8622  12.9554  12.9898  13.0392  13.0948  13.2281  13.2767
    13.3529  13.3895  13.5149  13.6208  13.7056  13.7445  13.7886  13.8535
    13.9187  13.9480  14.0038  14.1258  14.1543  14.2862  14.3782  14.3991
    14.4796  14.5862  14.6628  14.7769  14.9104  14.9247  15.0268  15.1030
    15.1944  15.2545  15.2901  15.3204  15.3864  15.4441  15.5242  15.5706
    15.6473  15.6917  15.7911  15.8641  15.9096  15.9927  16.0359  16.0784
    16.2045  16.2690  16.3614  16.3919  16.4638  16.4941  16.5700  16.6741
    16.7202  16.7716  16.8581  16.9371  17.0150  17.1045  17.1390  17.2142
    17.2828  17.3445  17.3666  17.4229  17.4691  17.5750  17.6175  17.7075
    17.7506  17.8533  17.9494  17.9719  18.0794  18.1406  18.1926  18.3823
    18.3872  18.4325  18.4707  18.5372  18.6153  18.6557  18.6954  18.7754
    18.8558  18.9221  18.9704  19.0841  19.1402  19.1724  19.2243  19.3247
    19.3587  19.3991  19.4893  19.5237  19.5916  19.6468  19.6577  19.6920
    19.7579  19.8812  19.9076  19.9951  20.0677

     the Fermi energy is     0.4867 ev

!    total energy              =   -1560.04868209 Ry
     Harris-Foulkes estimate   =   -1560.04868262 Ry
     estimated scf accuracy    <       0.00000065 Ry

     The total energy is the sum of the following terms:

     one-electron contribution =  -18846.10926360 Ry
     hartree contribution      =    9448.66306468 Ry
     xc contribution           =    -286.84681345 Ry
     ewald contribution        =    8121.76342360 Ry
     Hubbard energy            =       2.48062049 Ry
     smearing contrib. (-TS)   =       0.00028618 Ry

     convergence has been achieved in  26 iterations

     Forces acting on atoms (Ry/au):


     negative rho (up, down):  0.349E-02 0.000E+00
     atom    1 type  1   force =     0.00334778   -0.00005123   -0.00104821
     atom    2 type  1   force =    -0.00039886    0.00030287   -0.00961784
     atom    3 type  2   force =    -0.04602983   -0.00020036    0.00607454
     atom    4 type  2   force =    -0.00418310    0.00004335    0.00499560
     atom    5 type  1   force =    -0.00623892   -0.00635290   -0.00121439
     atom    6 type  1   force =    -0.00626164    0.00634562   -0.00121408
     atom    7 type  1   force =    -0.00016681    0.00002561    0.00343783
     atom    8 type  1   force =     0.00191844    0.00001040    0.00172437
     atom    9 type  2   force =    -0.00121674   -0.00000093   -0.00128318
     atom   10 type  2   force =    -0.00041853   -0.00000543    0.00403379
     atom   11 type  1   force =    -0.01570713   -0.01138050    0.00195691
     atom   12 type  1   force =    -0.01571967    0.01138608    0.00191249
     atom   13 type  1   force =     0.00056887   -0.00000842   -0.00306294
     atom   14 type  1   force =     0.00184589   -0.00005919   -0.00014625
     atom   15 type  1   force =    -0.00013022    0.00012543   -0.00441251
     atom   16 type  2   force =     0.04643376   -0.00019624    0.00547199
     atom   17 type  2   force =    -0.00436290    0.00005261   -0.00113761
     atom   18 type  1   force =     0.00733064   -0.00624486   -0.00117575
     atom   19 type  1   force =     0.00723355    0.00623644   -0.00117507
     atom   20 type  1   force =     0.00015320    0.00007209   -0.00373486
     atom   21 type  1   force =     0.00162008    0.00000735    0.00481489
     atom   22 type  2   force =     0.00094886    0.00000540   -0.00092384
     atom   23 type  2   force =     0.00102052   -0.00000040   -0.00457031
     atom   24 type  1   force =     0.01555708   -0.01119099    0.00149474
     atom   25 type  1   force =     0.01554920    0.01118681    0.00149334
     atom   26 type  1   force =    -0.00005952   -0.00000562   -0.00332811
     atom   27 type  3   force =     0.00000111   -0.00008590    0.00119566
     atom   28 type  3   force =     0.00002901   -0.00003458    0.00211564
     atom   29 type  3   force =    -0.00119335    0.00000462    0.00094345
     atom   30 type  3   force =    -0.00143801    0.00000609    0.00083587
     atom   31 type  1   force =    -0.00003277    0.00000677   -0.00445618

     Total force =     0.019151     Total SCF correction =     0.002754
     SCF correction compared to forces is large: reduce conv_thr to get better values

     BFGS Geometry Optimization

     number of scf cycles    =   1
     number of bfgs steps    =   0

     energy   new            =   -1560.0486820910 Ry

     new trust radius        =       0.0096178362 bohr
     new conv_thr            =       0.0000010000 Ry


ATOMIC_POSITIONS (crystal)
O0       0.000000000   0.000000000   0.371469445    0   0   1
O0       0.000000000   0.500000000   0.388531402    0   0   1
Nb1      0.250000000   0.500000000   0.444699117    0   0   1
Nb1      0.000000000   0.000000000   0.443987960    0   0   1
O0       0.250000000   0.790000000   0.446166187    0   0   1
O0       0.250000000   0.210000000   0.446166193    0   0   1
O0       0.000000000   0.500000000   0.500727413    0   0   1
O0       0.000000000   0.000000000   0.522963813    0   0   1
Nb1      0.250000000   0.000000000   0.577004838    0   0   1
Nb1      0.000000000   0.500000000   0.570139099    0   0   1
O0       0.250000000   0.710000000   0.576368373    0   0   1
O0       0.250000000   0.290000000   0.576377502    0   0   1
O0       0.000000000   0.000000000   0.621249938    0   0   1
O0       0.500000000   0.000000000   0.372037132    0   0   1
O0       0.500000000   0.500000000   0.390723474    0   0   1
Nb1      0.750000000   0.500000000   0.444757301    0   0   1
Nb1      0.500000000   0.000000000   0.444887692    0   0   1
O0       0.750000000   0.790000000   0.446166945    0   0   1
O0       0.750000000   0.210000000   0.446166958    0   0   1
O0       0.500000000   0.500000000   0.495106763    0   0   1
O0       0.500000000   0.000000000   0.522694416    0   0   1
Nb1      0.750000000   0.000000000   0.577141884    0   0   1
Nb1      0.500000000   0.500000000   0.588510380    0   0   1
O0       0.750000000   0.710000000   0.576229311    0   0   1
O0       0.750000000   0.290000000   0.576229283    0   0   1
O0       0.500000000   0.000000000   0.621194739    0   0   1
H2      -0.000489901   0.501533494   0.352453446
H2       0.499492594   0.501447381   0.354621486
H2       0.150353329   0.000370350   0.355558500
H2       0.649511459   0.000370461   0.355826391
O0       0.500027070   0.500000512   0.652132618


     Check: negative starting charge=   -0.003810
     NEW-OLD atomic charge density approx. for the potential

     Check: negative/imaginary core charge=   -0.000003    0.000000
     Check: negative starting charge=   -0.003809

     negative rho (up, down):  0.349E-02 0.000E+00
 Atomic wfc used for LDA+U Projector are NOT orthogonalized

     total cpu time spent up to now is     5422.7 secs

     per-process dynamical memory:   420.6 Mb

     Self-consistent Calculation

     iteration #  1     ecut=    40.00 Ry     beta=0.70
     Davidson diagonalization with overlap
     ethr =  1.00E-06,  avg # of iterations =  3.0
 --- enter write_ns ---
 LDA+U parameters:
U( 2)     =  3.50000000
alpha( 2) =  0.00000000
atom    3   Tr[ns(na)] =   5.22049
    eigenvalues: 
  0.372  0.423  0.538  0.589  0.688
    eigenvectors:
  0.000  0.000  0.041  0.389  0.570
  0.000  0.000  0.929  0.069  0.002
  0.238  0.762  0.000  0.000  0.000
  0.000  0.000  0.030  0.542  0.428
  0.762  0.238  0.000  0.000  0.000
    occupations:
  0.643 -0.013  0.000 -0.051 -0.000
 -0.013  0.542 -0.000 -0.006  0.000
  0.000 -0.000  0.411 -0.000 -0.022
 -0.051 -0.006 -0.000  0.630  0.000
 -0.000  0.000 -0.022  0.000  0.384
atom    4   Tr[ns(na)] =   5.22978
    eigenvalues: 
  0.397  0.430  0.556  0.586  0.646
    eigenvectors:
  0.000  0.005  0.000  0.993  0.002
  0.000  0.994  0.000  0.005  0.001
  1.000  0.000  0.000  0.000  0.000
  0.000  0.001  0.000  0.002  0.997
  0.000  0.000  1.000  0.000  0.000
    occupations:
  0.586  0.011  0.000  0.003 -0.000
  0.011  0.431 -0.000 -0.006  0.000
  0.000 -0.000  0.397  0.000  0.001
  0.003 -0.006  0.000  0.646  0.000
 -0.000  0.000  0.001  0.000  0.556
atom    9   Tr[ns(na)] =   5.25809
    eigenvalues: 
  0.452  0.458  0.486  0.615  0.618
    eigenvectors:
  0.000  0.874  0.000  0.114  0.012
  0.000  0.000  0.000  0.092  0.908
  0.728  0.000  0.272  0.000  0.000
  0.000  0.126  0.000  0.794  0.080
  0.272  0.000  0.728  0.000  0.000
    occupations:
  0.478 -0.001 -0.000  0.052 -0.000
 -0.001  0.618 -0.000 -0.001 -0.000
 -0.000 -0.000  0.461  0.000  0.015
  0.052 -0.001  0.000  0.595 -0.000
 -0.000 -0.000  0.015 -0.000  0.477
atom   10   Tr[ns(na)] =   5.06131
    eigenvalues: 
  0.351  0.454  0.512  0.551  0.663
    eigenvectors:
  0.000  0.000  0.976  0.000  0.024
  0.000  1.000  0.000  0.000  0.000
  1.000  0.000  0.000  0.000  0.000
  0.000  0.000  0.024  0.000  0.976
  0.000  0.000  0.000  1.000  0.000
    occupations:
  0.516  0.000  0.000  0.023 -0.000
  0.000  0.454  0.000  0.003  0.000
  0.000  0.000  0.351 -0.000 -0.000
  0.023  0.003 -0.000  0.659 -0.000
 -0.000  0.000 -0.000 -0.000  0.551
atom   16   Tr[ns(na)] =   5.22137
    eigenvalues: 
  0.375  0.422  0.538  0.589  0.687
    eigenvectors:
  0.000  0.000  0.042  0.389  0.570
  0.000  0.000  0.928  0.070  0.002
  0.200  0.800  0.000  0.000  0.000
  0.000  0.000  0.031  0.541  0.429
  0.800  0.200  0.000  0.000  0.000
    occupations:
  0.643  0.013  0.000 -0.050  0.000
  0.013  0.542  0.000  0.006  0.000
  0.000  0.000  0.412 -0.000  0.019
 -0.050  0.006 -0.000  0.629 -0.000
  0.000  0.000  0.019 -0.000  0.384
atom   17   Tr[ns(na)] =   5.22852
    eigenvalues: 
  0.400  0.427  0.552  0.588  0.648
    eigenvectors:
  0.000  0.004  0.000  0.996  0.000
  0.000  0.995  0.000  0.004  0.001
  1.000  0.000  0.000  0.000  0.000
  0.000  0.001  0.000  0.000  0.999
  0.000  0.000  1.000  0.000  0.000
    occupations:
  0.587  0.011  0.000  0.001 -0.000
  0.011  0.428 -0.000 -0.006 -0.000
  0.000 -0.000  0.400  0.000  0.001
  0.001 -0.006  0.000  0.648  0.000
 -0.000 -0.000  0.001  0.000  0.552
atom   22   Tr[ns(na)] =   5.25914
    eigenvalues: 
  0.453  0.459  0.485  0.615  0.618
    eigenvectors:
  0.000  0.875  0.000  0.114  0.011
  0.000  0.000  0.000  0.081  0.919
  0.730  0.000  0.270  0.000  0.000
  0.000  0.125  0.000  0.805  0.071
  0.270  0.000  0.730  0.000  0.000
    occupations:
  0.478  0.001  0.000  0.052 -0.000
  0.001  0.618  0.000  0.001  0.000
  0.000  0.000  0.462 -0.000 -0.014
  0.052  0.001 -0.000  0.596  0.000
 -0.000  0.000 -0.014  0.000  0.477
atom   23   Tr[ns(na)] =   5.35096
    eigenvalues: 
  0.490  0.513  0.521  0.545  0.607
    eigenvectors:
  0.000  0.000  0.000  0.002  0.998
  0.000  0.000  1.000  0.000  0.000
  1.000  0.000  0.000  0.000  0.000
  0.000  0.000  0.000  0.998  0.002
  0.000  1.000  0.000  0.000  0.000
    occupations:
  0.607 -0.000 -0.000 -0.003 -0.000
 -0.000  0.521 -0.000 -0.001  0.000
 -0.000 -0.000  0.490 -0.000  0.000
 -0.003 -0.001 -0.000  0.545 -0.000
 -0.000  0.000  0.000 -0.000  0.513
N of occupied +U levels =  41.8296681
 --- exit write_ns ---

     negative rho (up, down):  0.349E-02 0.000E+00

     total cpu time spent up to now is     5663.6 secs

     total energy              =   -1560.04866668 Ry
     Harris-Foulkes estimate   =   -1560.04891547 Ry
     estimated scf accuracy    <       0.00031433 Ry

     iteration #  2     ecut=    40.00 Ry     beta=0.70
     Davidson diagonalization with overlap
     ethr =  1.42E-07,  avg # of iterations =  5.2

     negative rho (up, down):  0.350E-02 0.000E+00

     total cpu time spent up to now is     5883.3 secs

     total energy              =   -1560.04775893 Ry
     Harris-Foulkes estimate   =   -1560.04987258 Ry
     estimated scf accuracy    <       0.01797325 Ry

     iteration #  3     ecut=    40.00 Ry     beta=0.70
     Davidson diagonalization with overlap
     ethr =  1.42E-07,  avg # of iterations =  4.7

     negative rho (up, down):  0.350E-02 0.000E+00

     total cpu time spent up to now is     6098.4 secs

     total energy              =   -1560.04871921 Ry
     Harris-Foulkes estimate   =   -1560.04901280 Ry
     estimated scf accuracy    <       0.00185384 Ry

     iteration #  4     ecut=    40.00 Ry     beta=0.70
     Davidson diagonalization with overlap
     ethr =  1.42E-07,  avg # of iterations =  2.7

     negative rho (up, down):  0.349E-02 0.000E+00

     total cpu time spent up to now is     6292.8 secs

     total energy              =   -1560.04885454 Ry
     Harris-Foulkes estimate   =   -1560.04887517 Ry
     estimated scf accuracy    <       0.00006359 Ry

     iteration #  5     ecut=    40.00 Ry     beta=0.70
     Davidson diagonalization with overlap
     ethr =  2.86E-08,  avg # of iterations =  1.2

     negative rho (up, down):  0.349E-02 0.000E+00

     total cpu time spent up to now is     6479.6 secs

     total energy              =   -1560.04886329 Ry
     Harris-Foulkes estimate   =   -1560.04887253 Ry
     estimated scf accuracy    <       0.00004074 Ry

     iteration #  6     ecut=    40.00 Ry     beta=0.70
     Davidson diagonalization with overlap
     ethr =  1.84E-08,  avg # of iterations =  1.1

     negative rho (up, down):  0.349E-02 0.000E+00

     total cpu time spent up to now is     6660.9 secs

     total energy              =   -1560.04886704 Ry
     Harris-Foulkes estimate   =   -1560.04886892 Ry
     estimated scf accuracy    <       0.00000568 Ry

     iteration #  7     ecut=    40.00 Ry     beta=0.70
     Davidson diagonalization with overlap
     ethr =  2.56E-09,  avg # of iterations =  1.1

     negative rho (up, down):  0.349E-02 0.000E+00

     total cpu time spent up to now is     6838.9 secs

     total energy              =   -1560.04886790 Ry
     Harris-Foulkes estimate   =   -1560.04886837 Ry
     estimated scf accuracy    <       0.00000179 Ry

     iteration #  8     ecut=    40.00 Ry     beta=0.70
     Davidson diagonalization with overlap
     ethr =  8.08E-10,  avg # of iterations =  1.0

     negative rho (up, down):  0.349E-02 0.000E+00

     total cpu time spent up to now is     7028.6 secs

     End of self-consistent calculation
 --- enter write_ns ---
 LDA+U parameters:
U( 2)     =  3.50000000
alpha( 2) =  0.00000000
atom    3   Tr[ns(na)] =   5.22248
    eigenvalues: 
  0.372  0.423  0.538  0.589  0.688
    eigenvectors:
  0.000  0.000  0.041  0.387  0.572
  0.000  0.000  0.929  0.069  0.002
  0.241  0.759  0.000  0.000  0.000
  0.000  0.000  0.030  0.544  0.426
  0.759  0.241  0.000  0.000  0.000
    occupations:
  0.644 -0.013  0.000 -0.051 -0.000
 -0.013  0.542 -0.000 -0.006  0.000
  0.000 -0.000  0.411 -0.000 -0.022
 -0.051 -0.006 -0.000  0.630  0.000
 -0.000  0.000 -0.022  0.000  0.384
atom    4   Tr[ns(na)] =   5.22522
    eigenvalues: 
  0.397  0.429  0.555  0.586  0.645
    eigenvectors:
  0.000  0.005  0.000  0.993  0.002
  0.000  0.994  0.000  0.005  0.001
  1.000  0.000  0.000  0.000  0.000
  0.000  0.001  0.000  0.002  0.997
  0.000  0.000  1.000  0.000  0.000
    occupations:
  0.586  0.011  0.000  0.003 -0.000
  0.011  0.430 -0.000 -0.006  0.000
  0.000 -0.000  0.397  0.000  0.001
  0.003 -0.006  0.000  0.644  0.000
 -0.000  0.000  0.001  0.000  0.555
atom    9   Tr[ns(na)] =   5.25938
    eigenvalues: 
  0.453  0.458  0.486  0.615  0.618
    eigenvectors:
  0.000  0.874  0.000  0.114  0.012
  0.000  0.000  0.000  0.091  0.909
  0.721  0.000  0.279  0.000  0.000
  0.000  0.126  0.000  0.795  0.079
  0.279  0.000  0.721  0.000  0.000
    occupations:
  0.478 -0.001 -0.000  0.052 -0.000
 -0.001  0.618 -0.000 -0.001 -0.000
 -0.000 -0.000  0.462  0.000  0.015
  0.052 -0.001  0.000  0.595 -0.000
 -0.000 -0.000  0.015 -0.000  0.477
atom   10   Tr[ns(na)] =   5.06420
    eigenvalues: 
  0.351  0.454  0.512  0.551  0.664
    eigenvectors:
  0.000  0.000  0.977  0.000  0.023
  0.000  1.000  0.000  0.000  0.000
  1.000  0.000  0.000  0.000  0.000
  0.000  0.000  0.023  0.000  0.976
  0.000  0.000  0.000  1.000  0.000
    occupations:
  0.516  0.000  0.000  0.023 -0.000
  0.000  0.455  0.000  0.003  0.000
  0.000  0.000  0.351 -0.000 -0.000
  0.023  0.003 -0.000  0.660 -0.000
 -0.000  0.000 -0.000 -0.000  0.551
atom   16   Tr[ns(na)] =   5.22301
    eigenvalues: 
  0.375  0.422  0.538  0.589  0.687
    eigenvectors:
  0.000  0.000  0.042  0.387  0.571
  0.000  0.000  0.928  0.070  0.002
  0.203  0.797  0.000  0.000  0.000
  0.000  0.000  0.030  0.542  0.427
  0.797  0.203  0.000  0.000  0.000
    occupations:
[...]
   -18.4571 -18.1669 -16.9090  -9.3627  -8.8870  -7.6912  -7.6443  -7.1655
    -7.0843  -7.0447  -6.9786  -6.8785  -6.7094  -6.5443  -6.5185  -6.4948
    -6.3711  -6.3589  -6.3167  -5.7997  -5.7803  -5.7186  -5.5288  -5.5193
    -5.3652  -5.3506  -5.2894  -5.1685  -5.1413  -5.1208  -5.0818  -4.9693
    -4.9184  -4.8199  -4.5836  -4.5185  -4.4553  -4.4072  -4.4031  -4.3020
    -4.1546  -4.1261  -3.9856  -3.8742  -3.8454  -3.7158  -3.6984  -3.6764
    -3.6234  -3.4377  -3.3161  -3.2556  -3.2282  -3.1850  -3.0482  -3.0210
    -2.8593  -2.7508  -2.7470  -2.5147  -0.0176   0.4899   0.5492   0.5858
     0.7723   0.8176   0.9303   0.9666   1.2201   1.2584   1.2771   1.5876
     1.5915   1.6394   1.7416   1.8013   1.9011   2.0638   2.1265   2.5293
     2.6699   2.7363   2.9247   2.9300   3.1795   3.2682   3.5520   4.6527
     4.6686   4.8353   4.8565   5.1050   5.1919   5.2675   5.3101   5.3325
     5.3803   5.4001   5.4399   5.4652   5.4793   5.6148   5.6518   5.7496
     5.8227   6.1866   6.2809   6.3834   6.4324   6.5473   6.6948   6.7275
     6.7928   7.0536   7.2625   7.3090   7.3870   7.4909   7.9887   8.0018
     8.0573   8.0662   8.1294   8.2560   8.4788   8.5851   8.6551   8.6595
     8.6958   8.7537   8.8348   8.9317   8.9713   9.0834   9.0959   9.2382
     9.4058   9.5464   9.6681   9.6839   9.8204   9.8421   9.9415  10.0414
    10.0784  10.1357  10.2609  10.3748  10.4567  10.5528  10.5906  10.6675
    10.9596  10.9972  11.0732  11.2036  11.2646  11.3648  11.3834  11.3897
    11.5408  11.7199  11.8945  12.1311  12.2103  12.3904  12.4177  12.4748
    12.5239  12.6341  12.6688  12.7481  12.7666  12.7747  13.0713  13.0723
    13.1076  13.1989  13.2200  13.2989  13.4398  13.6976  13.7197  13.7784
    13.7819  13.9389  13.9510  14.0339  14.1192  14.2177  14.2542  14.3325
    14.3356  14.4637  14.4880  14.5126  14.5527  14.6483  14.7530  14.8094
    14.8465  14.8553  14.9461  15.0072  15.1750  15.3158  15.3841  15.4830
    15.5913  15.6211  15.6509  15.7649  15.7939  15.8039  15.8867  15.9470
    16.0534  16.0848  16.1570  16.1596  16.1746  16.2509  16.3301  16.3906
    16.4345  16.5316  16.6590  16.7897  16.8019  16.8260  16.8749  16.8832
    16.9407  17.0477  17.0913  17.1095  17.1376  17.1649  17.1990  17.2583
    17.2854  17.3224  17.3672  17.3769  17.5296  17.5378  17.5885  17.6294
    17.6720  17.7409  17.7567  17.8018  17.8524  17.8625  17.9195  17.9525
    17.9745  17.9776  18.0677  18.1637  18.1939  18.2192  18.2358  18.3527
    18.3910  18.4287  18.4674  18.6331  18.6463  18.7236  18.7330  18.8322
    18.9246  18.9637  18.9706  18.9845  19.0504  19.1552  19.1767  19.1902
    19.2176  19.3821  19.4120  19.4611  19.4893

          k =-0.5000 0.2118 0.0000 ( 32144 PWs)   bands (ev):

   -56.9418 -56.7156 -56.3292 -56.3281 -56.2698 -56.2551 -56.2463 -55.6655
   -33.3235 -33.2599 -33.0419 -33.0359 -33.0021 -32.8788 -32.8040 -32.6774
   -32.6677 -32.6647 -32.6113 -32.4824 -32.4666 -32.4263 -32.4134 -32.3398
   -32.2906 -32.2590 -32.2365 -32.1977 -32.1889 -32.1562 -31.8993 -31.7347
   -20.9342 -20.4859 -19.6949 -19.6617 -19.3933 -19.2003 -19.1736 -19.1563
   -19.0100 -18.9190 -18.8473 -18.7638 -18.7385 -18.6658 -18.6484 -18.6246
   -18.4705 -18.1607 -16.9086  -9.3606  -8.8842  -7.6794  -7.6322  -7.0908
    -7.0665  -7.0307  -6.9983  -6.8896  -6.7440  -6.5782  -6.4367  -6.3597
    -6.2350  -6.1878  -6.1669  -5.8272  -5.7415  -5.6229  -5.5840  -5.5466
    -5.5084  -5.4262  -5.3627  -5.3464  -5.3230  -5.2508  -5.1575  -4.9917
    -4.9568  -4.7673  -4.6104  -4.5087  -4.4250  -4.3973  -4.3815  -4.2576
    -4.2280  -4.1588  -4.0773  -4.0606  -3.8653  -3.8527  -3.7695  -3.6077
    -3.5426  -3.4948  -3.3610  -3.3122  -3.2116  -3.1668  -3.0097  -2.9557
    -2.8903  -2.7450  -2.6200  -2.5395   0.0291   0.4667   0.6711   0.7565
     0.8935   0.9343   0.9718   1.0512   1.1138   1.2316   1.3722   1.5891
     1.6802   1.7630   1.8195   1.9471   2.0748   2.1307   2.2098   2.4037
     2.6702   2.7002   2.7308   3.1598   3.2857   3.3820   3.4600   4.5352
     4.5835   4.5990   4.6519   4.6714   4.7657   5.0679   5.0835   5.2932
     5.3207   5.4611   5.4641   5.5648   5.6396   5.8337   5.8862   5.9418
     5.9967   6.0721   6.0990   6.3588   6.5110   6.5806   6.6279   6.7371
     6.7874   6.9379   7.2552   7.3676   7.3768   7.4923   7.5347   7.5902
     7.6871   7.7702   7.8686   7.8844   8.0763   8.2006   8.5305   8.6649
     8.7806   8.8394   8.8702   8.9636   9.0630   9.1009   9.5826   9.6465
     9.6727   9.8046   9.8873   9.9948  10.1299  10.2002  10.2160  10.2565
    10.3277  10.3964  10.4867  10.5978  10.6469  10.7467  10.8727  10.8950
    11.1545  11.3134  11.3290  11.4218  11.4924  11.5143  11.5895  11.7463
    11.8300  11.8692  12.0542  12.1829  12.2133  12.3914  12.5015  12.5657
    12.6010  12.7436  12.7721  12.8400  12.8855  12.9692  13.1208  13.2450
    13.2634  13.3333  13.3702  13.4186  13.4850  13.5223  13.5971  13.7097
    13.7366  13.7867  13.8782  13.9194  13.9525  13.9991  14.1231  14.1705
    14.1755  14.3187  14.3236  14.4140  14.4455  14.5365  14.5663  14.6442
    14.7212  14.7551  14.8414  14.8905  14.9266  14.9943  15.0382  15.0528
    15.0835  15.1194  15.2473  15.2764  15.3241  15.4263  15.5013  15.5568
    15.6187  15.6485  15.8007  15.8194  15.8559  15.9119  15.9410  15.9575
    15.9963  16.1071  16.1568  16.2495  16.2573  16.3105  16.3828  16.4215
    16.4638  16.6281  16.6845  16.7938  16.8333  16.9284  16.9388  16.9945
    17.1080  17.1365  17.1674  17.3390  17.3671  17.3804  17.5096  17.5475
    17.6186  17.6406  17.7232  17.7507  17.8065  17.8269  17.9525  18.0063
    18.0358  18.1113  18.1759  18.3394  18.4280  18.4855  18.4933  18.6698
    18.7010  18.8225  18.8411  18.8667  18.9116  19.0051  19.0363  19.1566
    19.1751  19.2352  19.2452  19.3656  19.4145  19.4229  19.5451  19.6367
    19.7266  19.7607  19.8360  19.8939  19.9032

          k =-0.5000-0.4237 0.0000 ( 32256 PWs)   bands (ev):

   -56.9411 -56.7150 -56.3272 -56.3269 -56.2677 -56.2544 -56.2454 -55.6642
   -33.3232 -33.2594 -33.0410 -33.0402 -32.9965 -32.8786 -32.8023 -32.6776
   -32.6679 -32.6632 -32.6111 -32.4766 -32.4595 -32.4195 -32.4098 -32.3362
   -32.3041 -32.2667 -32.2493 -32.1968 -32.1886 -32.1559 -31.8964 -31.7399
   -20.9326 -20.4842 -19.6918 -19.6585 -19.3852 -19.2058 -19.1772 -19.1558
   -19.0031 -18.9163 -18.8512 -18.7645 -18.7420 -18.6477 -18.6317 -18.6290
   -18.4818 -18.1545 -16.9082  -9.3586  -8.8815  -7.6688  -7.6207  -7.0221
    -7.0074  -6.9970  -6.9800  -6.8393  -6.7375  -6.5574  -6.4746  -6.3258
    -6.1462  -6.0547  -6.0354  -5.8343  -5.8026  -5.6987  -5.6358  -5.6241
    -5.5462  -5.4952  -5.4452  -5.4000  -5.3589  -5.3348  -5.0226  -4.9007
    -4.8430  -4.6677  -4.5946  -4.5863  -4.5145  -4.5091  -4.4723  -4.3930
    -4.2879  -4.2728  -4.2420  -4.1902  -4.0897  -3.8536  -3.7542  -3.6249
    -3.4592  -3.4273  -3.4230  -3.3414  -3.2045  -3.1794  -2.9153  -2.8306
    -2.7965  -2.7827  -2.5884  -2.5537   0.0483   0.3672   0.6629   0.8516
     0.9243   0.9301   0.9784   1.0771   1.1563   1.4676   1.6360   1.6928
     1.7659   1.9285   2.0330   2.0993   2.1796   2.2624   2.2857   2.4400
     2.5566   2.6008   2.7489   3.3078   3.3541   3.4222   3.5383   4.0095
     4.0510   4.1094   4.1691   4.5466   4.5544   5.0724   5.1421   5.3261
     5.3853   5.6267   5.6493   5.7021   5.7959   5.8992   5.9155   5.9311
     6.0973   6.3218   6.4217   6.4386   6.4805   6.4933   6.5414   6.5663
     6.5796   6.8254   6.8488   6.9404   7.0734   7.2154   7.2425   7.3214
     7.7334   7.9801   8.0225   8.1107   8.1313   8.1702   8.2899   8.2920
     8.7752   8.8632   9.0500   9.1582   9.1725   9.2449   9.3267   9.3556
     9.4361   9.5134   9.6738   9.7275  10.5088  10.6619  10.7115  10.7870
    10.7906  10.8341  10.8901  10.9248  11.0369  11.2134  11.6110  11.6143
    11.6255  11.7451  11.8232  11.8476  11.9124  11.9663  11.9953  12.0660
    12.1137  12.1811  12.3072  12.4438  12.4667  12.5233  12.5710  12.5937
    12.5966  12.6463  12.6716  12.7786  12.8177  12.9291  13.0096  13.0252
    13.0264  13.1026  13.1681  13.1982  13.3461  13.3639  13.4100  13.4133
    13.5049  13.5064  13.5821  13.5876  13.8390  13.8763  13.9292  13.9368
    14.0470  14.0535  14.0923  14.1012  14.2512  14.2867  14.2971  14.3297
    14.3790  14.5980  14.6201  14.6777  14.6989  14.7110  14.7507  14.7714
    14.7870  14.8483  14.9569  15.0682  15.0820  15.0984  15.2078  15.2667
    15.4397  15.4532  15.4737  15.5053  15.5764  15.6285  15.7219  15.7563
    15.8440  15.8785  15.8803  15.9101  16.0183  16.0395  16.0844  16.1031
    16.3358  16.3475  16.6210  16.6794  16.7287  16.7968  16.8235  16.9132
    17.0185  17.0788  17.2045  17.2487  17.3535  17.3748  17.5043  17.5466
    17.5714  17.5867  17.6178  17.6893  17.7386  17.7938  17.8210  18.0099
    18.0725  18.1708  18.3381  18.3885  18.4165  18.5675  18.6015  18.6324
    18.6850  18.9243  18.9615  18.9831  18.9851  19.1054  19.3064  19.5151
    19.5398  19.5585  19.5752  19.5935  19.6393  19.6667  19.7293  19.9159
    19.9169  19.9552  20.2145  20.2429  20.3525

          k =-0.2500 0.2118 0.0000 ( 32165 PWs)   bands (ev):

   -56.9482 -56.7118 -56.3483 -56.3316 -56.2908 -56.2657 -56.2318 -55.6713
   -33.6249 -33.1236 -33.0415 -33.0087 -32.8841 -32.8365 -32.8013 -32.7685
   -32.7222 -32.7011 -32.6778 -32.6037 -32.6017 -32.4176 -32.3355 -32.2661
   -32.2611 -32.2326 -32.1897 -32.1727 -32.1397 -32.0470 -31.7590 -31.7250
   -20.9771 -20.5132 -19.8371 -19.5966 -19.4255 -19.3401 -19.3263 -19.2855
   -19.2564 -19.2061 -19.1045 -18.5845 -18.5050 -18.4848 -18.4139 -18.3698
   -18.2353 -18.1430 -16.9096  -9.4704  -8.8526  -8.0323  -7.5610  -7.3825
    -7.2027  -7.0298  -6.9811  -6.8355  -6.7158  -6.6787  -6.6171  -6.4050
    -6.3735  -6.3335  -6.1928  -6.0680  -6.0267  -5.9635  -5.8373  -5.6206
    -5.5003  -5.3561  -5.2635  -5.0569  -4.9646  -4.9171  -4.7772  -4.7249
    -4.6616  -4.6170  -4.4870  -4.4674  -4.4362  -4.3970  -4.3252  -4.2963
    -4.1177  -4.0578  -4.0020  -3.9210  -3.8534  -3.7536  -3.6722  -3.6457
    -3.5186  -3.4385  -3.3923  -3.2929  -3.2635  -3.1640  -3.0492  -2.9999
    -2.9640  -2.7892  -2.6961  -2.4536  -0.5204  -0.2026  -0.0297   0.6452
     0.7822   0.9968   1.2022   1.2417   1.4617   1.6654   1.6773   1.7887
     1.8889   1.9307   2.0672   2.1272   2.2379   2.2491   2.3597   2.3917
     2.5613   2.6541   2.7726   2.9371   3.2138   3.5295   4.0907   4.1615
     4.3772   4.5409   4.5904   4.6380   4.8290   4.9506   5.0045   5.0844
     5.2025   5.2632   5.3813   5.5867   5.6232   5.7307   5.9609   6.0151
     6.1768   6.2197   6.4554   6.5344   6.5560   6.5823   6.7670   6.8616
     6.8847   7.0333   7.1972   7.2808   7.4198   7.4898   7.8004   7.9114
     8.0067   8.0315   8.1279   8.1727   8.2367   8.5122   8.6212   8.7005
     8.8125   8.9000   9.0138   9.0842   9.1639   9.2562   9.2934   9.4838
     9.5359   9.5970   9.7476   9.8489   9.9071  10.0076  10.0639  10.1525
    10.2604  10.3804  10.5661  10.7275  10.7641  10.8867  10.9707  11.0004
    11.1103  11.1520  11.2257  11.2810  11.3870  11.4381  11.5139  11.5413
    11.6514  11.7521  11.8881  11.9133  12.0036  12.1134  12.1357  12.2125
    12.2752  12.3324  12.3973  12.4728  12.6078  12.6554  12.6991  12.7344
    12.7669  12.8593  12.9597  12.9950  13.0509  13.0895  13.2210  13.2928
    13.3421  13.4053  13.5162  13.6247  13.6994  13.7485  13.7978  13.8521
    13.9263  13.9517  14.0017  14.1300  14.1697  14.2906  14.3607  14.4167
    14.4699  14.5865  14.6573  14.7718  14.9045  14.9243  15.0309  15.0994
    15.1979  15.2381  15.2822  15.3374  15.3892  15.4553  15.5193  15.5815
    15.6596  15.6930  15.7906  15.8660  15.9085  15.9740  16.0455  16.0968
    16.1947  16.2830  16.3797  16.3891  16.4623  16.4902  16.5638  16.6716
    16.7303  16.7649  16.8592  16.9285  17.0396  17.0895  17.1578  17.2144
    17.2873  17.3379  17.3591  17.4463  17.4685  17.5789  17.6235  17.7142
    17.7437  17.8636  17.9564  17.9875  18.0777  18.1381  18.1931  18.3591
    18.3858  18.4430  18.4724  18.5384  18.6162  18.6540  18.7006  18.7847
    18.8615  18.9198  18.9796  19.0737  19.1391  19.1767  19.2110  19.3346
    19.3601  19.4011  19.4789  19.5289  19.5967  19.6400  19.6570  19.6983
    19.7569  19.8803  19.9228  19.9962  20.0649

     the Fermi energy is     0.5309 ev

!    total energy              =   -1560.05121767 Ry
     Harris-Foulkes estimate   =   -1560.05121767 Ry
     estimated scf accuracy    <          2.1E-09 Ry

     The total energy is the sum of the following terms:

     one-electron contribution =  -18842.58016136 Ry
     hartree contribution      =    9446.91216058 Ry
     xc contribution           =    -286.84990576 Ry
     ewald contribution        =    8119.99389678 Ry
     Hubbard energy            =       2.47260756 Ry
     smearing contrib. (-TS)   =       0.00018453 Ry

     convergence has been achieved in  10 iterations

     Forces acting on atoms (Ry/au):


     negative rho (up, down):  0.356E-02 0.000E+00
     atom    1 type  1   force =     0.00217746    0.00004182    0.00068608
     atom    2 type  1   force =    -0.00058459    0.00004791   -0.00021434
     atom    3 type  2   force =    -0.04825093   -0.00007369   -0.00012776
     atom    4 type  2   force =    -0.00662623   -0.00002644   -0.00046562
     atom    5 type  1   force =    -0.00613913   -0.00828696   -0.00023150
     atom    6 type  1   force =    -0.00622278    0.00832838   -0.00022935
     atom    7 type  1   force =    -0.00166176   -0.00004462    0.00002978
     atom    8 type  1   force =     0.01322500    0.00000560    0.00005380
     atom    9 type  2   force =     0.00274304   -0.00000178   -0.00042941
     atom   10 type  2   force =    -0.01949338   -0.00000835   -0.00014777
     atom   11 type  1   force =    -0.01962244   -0.01389580   -0.00009778
     atom   12 type  1   force =    -0.01962616    0.01390279   -0.00009499
     atom   13 type  1   force =     0.00537159   -0.00000002   -0.00006417
     atom   14 type  1   force =     0.00070075   -0.00004108    0.00018078
     atom   15 type  1   force =    -0.00101345    0.00005681    0.00022262
     atom   16 type  2   force =     0.05148577   -0.00005567   -0.00001838
     atom   17 type  2   force =    -0.00130065    0.00000383    0.00076382
     atom   18 type  1   force =     0.00736291   -0.00773946   -0.00029902
     atom   19 type  1   force =     0.00734228    0.00777409   -0.00029893
     atom   20 type  1   force =    -0.00351422    0.00005189    0.00061318
     atom   21 type  1   force =    -0.00907921    0.00000284    0.00051932
     atom   22 type  2   force =     0.00445228   -0.00000396    0.00012038
     atom   23 type  2   force =     0.04082648   -0.00000128   -0.00027695
     atom   24 type  1   force =     0.00971886   -0.00378826    0.00000148
     atom   25 type  1   force =     0.00972254    0.00379095    0.00000066
     atom   26 type  1   force =    -0.01189570    0.00000127   -0.00041583
     atom   27 type  3   force =     0.00000018   -0.00003947    0.00018611
     atom   28 type  3   force =    -0.00000022    0.00004127    0.00011104
     atom   29 type  3   force =    -0.00054051   -0.00002783   -0.00003565
     atom   30 type  3   force =    -0.00015527   -0.00001492   -0.00023161
     atom   31 type  1   force =     0.00059752    0.00000013    0.00018998

     Total force =     0.001913     Total SCF correction =     0.000078

     bfgs converged in  34 scf cycles and  32 bfgs steps
     (criteria: energy < 0.10E-03, force < 0.10E-02)

     End of BFGS Geometry Optimization

     Final energy   =   -1560.0512176652 Ry
Begin final coordinates

ATOMIC_POSITIONS (crystal)
O0       0.000000000   0.000000000   0.371638617    0   0   1
O0       0.000000000   0.500000000   0.388118668    0   0   1
Nb1      0.250000000   0.500000000   0.444454251    0   0   1
Nb1      0.000000000   0.000000000   0.444118570    0   0   1
O0       0.250000000   0.790000000   0.446191874    0   0   1
O0       0.250000000   0.210000000   0.446193200    0   0   1
O0       0.000000000   0.500000000   0.500909567    0   0   1
O0       0.000000000   0.000000000   0.523247838    0   0   1
Nb1      0.250000000   0.000000000   0.574995690    0   0   1
Nb1      0.000000000   0.500000000   0.570147621    0   0   1
O0       0.250000000   0.710000000   0.580524174    0   0   1
O0       0.250000000   0.290000000   0.580524635    0   0   1
O0       0.000000000   0.000000000   0.621543504    0   0   1
O0       0.500000000   0.000000000   0.371942127    0   0   1
O0       0.500000000   0.500000000   0.390619801    0   0   1
Nb1      0.750000000   0.500000000   0.444529662    0   0   1
Nb1      0.500000000   0.000000000   0.444691643    0   0   1
O0       0.750000000   0.790000000   0.446172655    0   0   1
O0       0.750000000   0.210000000   0.446171649    0   0   1
O0       0.500000000   0.500000000   0.495030562    0   0   1
O0       0.500000000   0.000000000   0.522936624    0   0   1
Nb1      0.750000000   0.000000000   0.579503032    0   0   1
Nb1      0.500000000   0.500000000   0.587424296    0   0   1
O0       0.750000000   0.710000000   0.573086091    0   0   1
O0       0.750000000   0.290000000   0.573085615    0   0   1
O0       0.500000000   0.000000000   0.621417011    0   0   1
H2      -0.000355758   0.500086267   0.351863270
H2       0.499477552   0.501467747   0.354429741
H2       0.150755685   0.000292015   0.355868447
H2       0.650218519   0.000353796   0.356001054
O0       0.509757013   0.500001681   0.650908510
End final coordinates



     init_run     :    109.35s CPU    113.86s WALL (       1 calls)
     electrons    :  88073.07s CPU  90648.68s WALL (      34 calls)
     update_pot   :    720.90s CPU    737.11s WALL (      33 calls)
     forces       :   4465.66s CPU   4544.21s WALL (      34 calls)

     Called by init_run:
     wfcinit      :     40.18s CPU     43.17s WALL (       1 calls)
     potinit      :      7.99s CPU      8.09s WALL (       1 calls)

     Called by electrons:
     c_bands      :  46990.36s CPU  48526.08s WALL (     486 calls)
     sum_band     :  17965.94s CPU  18454.84s WALL (     486 calls)
     v_of_rho     :    537.78s CPU    573.76s WALL (     496 calls)
     newd         :  23873.18s CPU  24013.51s WALL (     496 calls)
     mix_rho      :     94.39s CPU     96.73s WALL (     486 calls)

     Called by c_bands:
     init_us_2    :    114.02s CPU    115.05s WALL (    3225 calls)
     cegterg      :  46438.56s CPU  47871.98s WALL (    1458 calls)

     Called by *egterg:
     h_psi        :  27828.10s CPU  28756.73s WALL (    4156 calls)
     s_psi        :   2852.93s CPU   2892.65s WALL (    4360 calls)
     g_psi        :     60.68s CPU     60.93s WALL (    2695 calls)
     cdiaghg      :   3642.04s CPU   3660.37s WALL (    3982 calls)

     Called by h_psi:
     add_vuspsi   :   2725.21s CPU   2765.12s WALL (    4156 calls)
     vhpsi        :   2760.36s CPU   2810.59s WALL (    4156 calls)

     General routines
     calbec       :   7078.67s CPU   7189.34s WALL (   40094 calls)
     fft          :    642.90s CPU    759.40s WALL (    8303 calls)
     ffts         :      9.02s CPU      9.26s WALL (     982 calls)
     fftw         :  15753.06s CPU  16722.69s WALL ( 2511580 calls)
     interpolate  :     79.79s CPU     81.16s WALL (     982 calls)
     davcio       :      0.35s CPU     54.81s WALL (    3327 calls)

     Parallel routines
     fft_scatter  :   5942.95s CPU   6971.72s WALL ( 2520865 calls)
     Hubbard U routines
     new_ns       :    651.00s CPU    684.21s WALL (     486 calls)
     vhpsi        :   2760.36s CPU   2810.59s WALL (    4156 calls)
     force_hub    :   1274.82s CPU   1312.43s WALL (      34 calls)

     PWSCF        :     1d    2h25m CPU        1d    3h10m WALL


   This run was terminated on:   0:38:56   2May2014            

=------------------------------------------------------------------------------=
   JOB DONE.
=------------------------------------------------------------------------------=
