
     Program PWSCF v.5.0.2 (svn rev. 9656) starts on 28Apr2014 at  2: 3:49 

     This program is part of the open-source Quantum ESPRESSO suite
     for quantum simulation of materials; please cite
         "P. Giannozzi et al., J. Phys.:Condens. Matter 21 395502 (2009);
          URL http://www.quantum-espresso.org", 
     in publications or presentations arising from this work. More details at
     http://www.quantum-espresso.org/quote.php

     Parallel version (MPI), running on    16 processors
     K-points division:     npool     =       4
     R & G space division:  proc/nbgrp/npool/nimage =       4

     Current dimensions of program PWSCF are:
     Max number of different atomic species (ntypx) = 10
     Max number of k-points (npk) =  40000
     Max angular momentum in pseudopotentials (lmaxx) =  3
     Reading input from pwscf.in
Warning: card &CELL ignored
Warning: card / ignored

     Subspace diagonalization in iterative solution of the eigenvalue problem:
     a serial algorithm will be used


     Parallelization info
     --------------------
     sticks:   dense  smooth     PW     G-vecs:    dense   smooth      PW
     Min        1491     475    132               353925    64028    9441
     Max        1492     476    134               353934    64061    9444
     Sum        5965    1901    531              1415713   256153   37769



     bravais-lattice index     =            0
     lattice parameter (alat)  =      12.2076  a.u.
     unit-cell volume          =    7496.5096 (a.u.)^3
     number of atoms/cell      =           31
     number of atomic types    =            3
     number of electrons       =       246.00
     number of Kohn-Sham states=          369
     kinetic-energy cutoff     =      40.0000  Ry
     charge density cutoff     =     500.0000  Ry
     convergence threshold     =      1.0E-06
     mixing beta               =       0.7000
     number of iterations used =            8  plain     mixing
     Exchange-correlation      = SLA  PW   PBE  PBE ( 1 4 3 4 0)
     EXX-fraction              =        0.00
     nstep                     =           50


     celldm(1)=  12.207631  celldm(2)=   0.000000  celldm(3)=   0.000000
     celldm(4)=   0.000000  celldm(5)=   0.000000  celldm(6)=   0.000000

     crystal axes: (cart. coord. in units of alat)
               a(1) = (   1.000000   0.000000   0.000000 )  
               a(2) = (   0.000000   1.004836   0.000000 )  
               a(3) = (   0.000000   0.000000   4.100811 )  

     reciprocal axes: (cart. coord. in units 2 pi/alat)
               b(1) = (  1.000000  0.000000  0.000000 )  
               b(2) = (  0.000000  0.995187  0.000000 )  
               b(3) = (  0.000000  0.000000  0.243854 )  


     PseudoPot. # 1 for O  read from file:
     /home/camp/zhonxu/pseudo/o_pbe_v1.01.uspp.F.UPF
     MD5 check sum: 2bcb18d16ea4b960afae9ec6d52f22d2
     Pseudo is Ultrasoft + core correction, Zval =  6.0
     Generated by new atomic code, or converted to UPF format
     Using radial grid of  737 points,  5 beta functions with: 
                l(1) =   0
                l(2) =   0
                l(3) =   1
                l(4) =   1
                l(5) =   2
     Q(r) pseudized with  8 coefficients,  rinner =    0.900   0.900   0.900
                                                       0.900   0.900

     PseudoPot. # 2 for Pt read from file:
     /home/camp/zhonxu/pseudo/pt_pbe_v1.uspp.F.UPF
     MD5 check sum: 4c71d6ad5ef119f1eb26a4d0b7884226
     Pseudo is Ultrasoft + core correction, Zval = 16.0
     Generated by new atomic code, or converted to UPF format
     Using radial grid of  985 points,  6 beta functions with: 
                l(1) =   0
                l(2) =   0
                l(3) =   1
                l(4) =   1
                l(5) =   2
                l(6) =   2
     Q(r) pseudized with  8 coefficients,  rinner =    1.300   1.300   1.300
                                                       1.300   1.300

     PseudoPot. # 3 for H  read from file:
     /home/camp/zhonxu/pseudo/h_pbe_v1.uspp.F.UPF
     MD5 check sum: 3408e3ff4ec8b0a4e358431e7e038a48
     Pseudo is Ultrasoft, Zval =  1.0
     Generated by new atomic code, or converted to UPF format
     Using radial grid of  615 points,  2 beta functions with: 
                l(1) =   0
                l(2) =   0
     Q(r) pseudized with  8 coefficients,  rinner =    0.700

     atomic species   valence    mass     pseudopotential
        O0             6.00    15.99940     O ( 1.00)
        Pt1           16.00   195.08000     Pt( 1.00)
        H2             1.00     1.00794     H ( 1.00)


     Simplified LDA+U calculation (l_max = 2) with parameters (eV):
     atomic species    L          U    alpha       J0     beta
        Pt1            2     1.0000   0.0000   0.0000   0.0000



     No symmetry found



   Cartesian axes

     site n.     atom                  positions (alat units)
         1           O0  tau(   1) = (   0.0000000   0.0000000   1.5489174  )
         2           O0  tau(   2) = (   0.0000000   0.5024180   1.6470088  )
         3           Pt1 tau(   3) = (   0.2500000   0.5024180   1.8504500  )
         4           Pt1 tau(   4) = (   0.0000000   0.0000000   1.8564782  )
         5           O0  tau(   5) = (   0.2500000   0.8139171   1.8182587  )
         6           O0  tau(   6) = (   0.2500000   0.1909188   1.8867012  )
         7           O0  tau(   7) = (   0.0000000   0.5024180   2.0373240  )
         8           O0  tau(   8) = (   0.0000000   0.0000000   2.1721997  )
         9           Pt1 tau(   9) = (   0.2500000   0.0000000   2.3623543  )
        10           Pt1 tau(  10) = (   0.0000000   0.5024180   2.3594017  )
        11           O0  tau(  11) = (   0.2500000   0.6933368   2.3215512  )
        12           O0  tau(  12) = (   0.2500000   0.3114991   2.4021322  )
        13           O0  tau(  13) = (   0.0000000   0.0000000   2.5481621  )
        14           O0  tau(  14) = (   0.5000000   0.0000000   1.5492455  )
        15           O0  tau(  15) = (   0.5000000   0.5024180   1.6439332  )
        16           Pt1 tau(  16) = (   0.7500000   0.5024180   1.8504910  )
        17           Pt1 tau(  17) = (   0.5000000   0.0000000   1.8565192  )
        18           O0  tau(  18) = (   0.7500000   0.8139171   1.8184227  )
        19           O0  tau(  19) = (   0.7500000   0.1909188   1.8866602  )
        20           O0  tau(  20) = (   0.5000000   0.5024180   2.0431061  )
        21           O0  tau(  21) = (   0.5000000   0.0000000   2.1716256  )
        22           Pt1 tau(  22) = (   0.7500000   0.0000000   2.3623953  )
        23           Pt1 tau(  23) = (   0.5000000   0.5024180   2.3697358  )
        24           O0  tau(  24) = (   0.7500000   0.6933368   2.3215102  )
        25           O0  tau(  25) = (   0.7500000   0.3114991   2.4021732  )
        26           O0  tau(  26) = (   0.5000000   0.0000000   2.5480390  )
        27           H2  tau(  27) = (   0.0001100   0.6425926   1.5814778  )
        28           H2  tau(  28) = (   0.5001800   0.6431151   1.5801656  )
        29           H2  tau(  29) = (   0.1426600   0.0364956   1.5073762  )
        30           H2  tau(  30) = (   0.6419200   0.0388771   1.5073762  )
        31           O0  tau(  31) = (   0.5000900   0.5753691   2.6428088  )

     number of k points=    10  Methfessel-Paxton smearing, width (Ry)=  0.0100
                       cart. coord. in units 2pi/alat
        k(    1) = (   0.0000000   0.0000000   0.0000000), wk =   0.1250000
        k(    2) = (   0.0000000   0.2487968   0.0000000), wk =   0.2500000
        k(    3) = (   0.0000000  -0.4975937   0.0000000), wk =   0.1250000
        k(    4) = (   0.2500000   0.0000000   0.0000000), wk =   0.2500000
        k(    5) = (   0.2500000   0.2487968   0.0000000), wk =   0.2500000
        k(    6) = (   0.2500000  -0.4975937   0.0000000), wk =   0.2500000
        k(    7) = (  -0.5000000   0.0000000   0.0000000), wk =   0.1250000
        k(    8) = (  -0.5000000   0.2487968   0.0000000), wk =   0.2500000
        k(    9) = (  -0.5000000  -0.4975937   0.0000000), wk =   0.1250000
        k(   10) = (  -0.2500000   0.2487968   0.0000000), wk =   0.2500000

     Dense  grid:  1415713 G-vectors     FFT dimensions: (  90,  90, 360)

     Smooth grid:   256153 G-vectors     FFT dimensions: (  50,  50, 216)

     Largest allocated arrays     est. size (Mb)     dimensions
        Kohn-Sham Wavefunctions        45.60 Mb     (   8098,  369)
        Atomic wavefunctions           21.75 Mb     (   8098,  176)
        NL pseudopotentials            49.30 Mb     (   8098,  399)
        Each V/rho on FFT grid         11.12 Mb     ( 729000)
        Each G-vector array             2.70 Mb     ( 353934)
        G-vector shells                 1.17 Mb     ( 153301)
     Largest temporary arrays     est. size (Mb)     dimensions
        Auxiliary wavefunctions       182.38 Mb     (   8098, 1476)
        Each subspace H/S matrix       33.24 Mb     (1476,1476)
        Each <psi_i|beta_j> matrix      2.25 Mb     (    399,  369)
        Arrays for rho mixing          88.99 Mb     ( 729000,   8)

     Check: negative/imaginary core charge=   -0.000003    0.000000

     Initial potential from superposition of free atoms
     Check: negative starting charge=   -1.533958

     starting charge  241.99985, renormalised to  246.00000

     negative rho (up, down):  0.156E+01 0.000E+00
     Number of +U iterations with fixed ns =  0
     Starting occupations:
 --- enter write_ns ---
 LDA+U parameters:
U( 2)     =  1.00000000
alpha( 2) =  0.00000000
atom    3   Tr[ns(na)] =   8.00000
    eigenvalues: 
  0.800  0.800  0.800  0.800  0.800
    eigenvectors:
  1.000  0.000  0.000  0.000  0.000
  0.000  1.000  0.000  0.000  0.000
  0.000  0.000  1.000  0.000  0.000
  0.000  0.000  0.000  1.000  0.000
  0.000  0.000  0.000  0.000  1.000
    occupations:
  0.800  0.000  0.000  0.000  0.000
  0.000  0.800  0.000  0.000  0.000
  0.000  0.000  0.800  0.000  0.000
  0.000  0.000  0.000  0.800  0.000
  0.000  0.000  0.000  0.000  0.800
atom    4   Tr[ns(na)] =   8.00000
    eigenvalues: 
  0.800  0.800  0.800  0.800  0.800
    eigenvectors:
  1.000  0.000  0.000  0.000  0.000
  0.000  1.000  0.000  0.000  0.000
  0.000  0.000  1.000  0.000  0.000
  0.000  0.000  0.000  1.000  0.000
  0.000  0.000  0.000  0.000  1.000
    occupations:
  0.800  0.000  0.000  0.000  0.000
  0.000  0.800  0.000  0.000  0.000
  0.000  0.000  0.800  0.000  0.000
  0.000  0.000  0.000  0.800  0.000
  0.000  0.000  0.000  0.000  0.800
atom    9   Tr[ns(na)] =   8.00000
    eigenvalues: 
  0.800  0.800  0.800  0.800  0.800
    eigenvectors:
  1.000  0.000  0.000  0.000  0.000
  0.000  1.000  0.000  0.000  0.000
  0.000  0.000  1.000  0.000  0.000
  0.000  0.000  0.000  1.000  0.000
  0.000  0.000  0.000  0.000  1.000
    occupations:
  0.800  0.000  0.000  0.000  0.000
  0.000  0.800  0.000  0.000  0.000
  0.000  0.000  0.800  0.000  0.000
  0.000  0.000  0.000  0.800  0.000
  0.000  0.000  0.000  0.000  0.800
atom   10   Tr[ns(na)] =   8.00000
    eigenvalues: 
  0.800  0.800  0.800  0.800  0.800
    eigenvectors:
  1.000  0.000  0.000  0.000  0.000
  0.000  1.000  0.000  0.000  0.000
  0.000  0.000  1.000  0.000  0.000
  0.000  0.000  0.000  1.000  0.000
  0.000  0.000  0.000  0.000  1.000
    occupations:
  0.800  0.000  0.000  0.000  0.000
  0.000  0.800  0.000  0.000  0.000
  0.000  0.000  0.800  0.000  0.000
  0.000  0.000  0.000  0.800  0.000
  0.000  0.000  0.000  0.000  0.800
atom   16   Tr[ns(na)] =   8.00000
    eigenvalues: 
  0.800  0.800  0.800  0.800  0.800
    eigenvectors:
  1.000  0.000  0.000  0.000  0.000
  0.000  1.000  0.000  0.000  0.000
  0.000  0.000  1.000  0.000  0.000
  0.000  0.000  0.000  1.000  0.000
  0.000  0.000  0.000  0.000  1.000
    occupations:
  0.800  0.000  0.000  0.000  0.000
  0.000  0.800  0.000  0.000  0.000
  0.000  0.000  0.800  0.000  0.000
  0.000  0.000  0.000  0.800  0.000
  0.000  0.000  0.000  0.000  0.800
atom   17   Tr[ns(na)] =   8.00000
    eigenvalues: 
  0.800  0.800  0.800  0.800  0.800
    eigenvectors:
  1.000  0.000  0.000  0.000  0.000
  0.000  1.000  0.000  0.000  0.000
  0.000  0.000  1.000  0.000  0.000
  0.000  0.000  0.000  1.000  0.000
  0.000  0.000  0.000  0.000  1.000
    occupations:
  0.800  0.000  0.000  0.000  0.000
  0.000  0.800  0.000  0.000  0.000
  0.000  0.000  0.800  0.000  0.000
  0.000  0.000  0.000  0.800  0.000
  0.000  0.000  0.000  0.000  0.800
atom   22   Tr[ns(na)] =   8.00000
    eigenvalues: 
  0.800  0.800  0.800  0.800  0.800
    eigenvectors:
  1.000  0.000  0.000  0.000  0.000
  0.000  1.000  0.000  0.000  0.000
  0.000  0.000  1.000  0.000  0.000
  0.000  0.000  0.000  1.000  0.000
  0.000  0.000  0.000  0.000  1.000
    occupations:
  0.800  0.000  0.000  0.000  0.000
  0.000  0.800  0.000  0.000  0.000
  0.000  0.000  0.800  0.000  0.000
  0.000  0.000  0.000  0.800  0.000
  0.000  0.000  0.000  0.000  0.800
atom   23   Tr[ns(na)] =   8.00000
    eigenvalues: 
  0.800  0.800  0.800  0.800  0.800
    eigenvectors:
  1.000  0.000  0.000  0.000  0.000
  0.000  1.000  0.000  0.000  0.000
  0.000  0.000  1.000  0.000  0.000
  0.000  0.000  0.000  1.000  0.000
  0.000  0.000  0.000  0.000  1.000
    occupations:
  0.800  0.000  0.000  0.000  0.000
  0.000  0.800  0.000  0.000  0.000
  0.000  0.000  0.800  0.000  0.000
  0.000  0.000  0.000  0.800  0.000
  0.000  0.000  0.000  0.000  0.800
N of occupied +U levels =  64.0000000
 --- exit write_ns ---
 Atomic wfc used for LDA+U Projector are NOT orthogonalized
     Starting wfc are  176 randomized atomic wfcs

     total cpu time spent up to now is      112.2 secs

     per-process dynamical memory:   437.2 Mb

     Self-consistent Calculation

     iteration #  1     ecut=    40.00 Ry     beta=0.70
     Davidson diagonalization with overlap
     ethr =  1.00E-02,  avg # of iterations =  5.2
 --- enter write_ns ---
 LDA+U parameters:
U( 2)     =  1.00000000
alpha( 2) =  0.00000000
atom    3   Tr[ns(na)] =   6.99788
    eigenvalues: 
  0.407  0.448  0.746  0.943  0.956
    eigenvectors:
  0.002  0.144  0.043  0.796  0.016
  0.989  0.011  0.000  0.000  0.000
  0.000  0.023  0.951  0.024  0.002
  0.008  0.822  0.006  0.160  0.003
  0.000  0.000  0.000  0.021  0.979
    occupations:
  0.862  0.005 -0.011 -0.176 -0.001
  0.005  0.407 -0.000  0.002 -0.005
 -0.011 -0.000  0.744  0.054  0.004
 -0.176  0.002  0.054  0.530  0.001
 -0.001 -0.005  0.004  0.001  0.956
atom    4   Tr[ns(na)] =   6.89013
    eigenvalues: 
  0.426  0.448  0.781  0.835  0.956
    eigenvectors:
  0.000  0.974  0.008  0.001  0.017
  0.032  0.000  0.082  0.885  0.000
  0.000  0.012  0.897  0.083  0.008
  0.000  0.014  0.009  0.001  0.976
  0.968  0.000  0.003  0.029  0.000
    occupations:
  0.460 -0.004 -0.039  0.061 -0.001
 -0.004  0.817  0.014  0.001  0.071
 -0.039  0.014  0.783 -0.010  0.002
  0.061  0.001 -0.010  0.947  0.000
 -0.001  0.071  0.002  0.000  0.439
atom    9   Tr[ns(na)] =   7.61016
    eigenvalues: 
  0.443  0.463  0.958  0.969  0.973
    eigenvectors:
  0.000  0.134  0.266  0.082  0.518
  1.000  0.000  0.000  0.000  0.000
  0.000  0.019  0.623  0.017  0.341
  0.000  0.846  0.105  0.009  0.039
  0.000  0.000  0.006  0.892  0.102
    occupations:
  0.900 -0.000 -0.032 -0.169  0.001
 -0.000  0.443  0.000 -0.000 -0.001
 -0.032  0.000  0.954 -0.062 -0.001
 -0.169 -0.000 -0.062  0.539  0.001
  0.001 -0.001 -0.001  0.001  0.969
atom   10   Tr[ns(na)] =   8.32944
    eigenvalues: 
  0.430  0.802  0.971  0.979  0.983
    eigenvectors:
  0.000  0.899  0.096  0.005  0.000
  0.036  0.000  0.000  0.000  0.964
  0.000  0.023  0.401  0.576  0.000
  0.000  0.078  0.503  0.419  0.000
  0.964  0.000  0.000  0.000  0.036
    occupations:
  0.819  0.000  0.024  0.045 -0.000
  0.000  0.964  0.000 -0.000 -0.102
  0.024  0.000  0.971 -0.011  0.000
  0.045 -0.000 -0.011  0.961 -0.000
 -0.000 -0.102  0.000 -0.000  0.450
atom   16   Tr[ns(na)] =   6.99721
    eigenvalues: 
  0.407  0.448  0.745  0.943  0.956
    eigenvectors:
  0.002  0.144  0.043  0.790  0.022
  0.989  0.011  0.000  0.000  0.000
  0.000  0.023  0.951  0.024  0.001
  0.009  0.822  0.006  0.159  0.005
  0.000  0.000  0.000  0.027  0.972
    occupations:
  0.863 -0.005 -0.011 -0.176  0.002
 -0.005  0.407  0.001 -0.002 -0.005
 -0.011  0.001  0.743  0.054 -0.001
 -0.176 -0.002  0.054  0.530 -0.001
  0.002 -0.005 -0.001 -0.001  0.956
atom   17   Tr[ns(na)] =   6.87746
    eigenvalues: 
  0.426  0.449  0.782  0.828  0.955
    eigenvectors:
  0.000  0.973  0.008  0.002  0.016
  0.032  0.000  0.134  0.833  0.000
  0.000  0.012  0.844  0.136  0.008
  0.000  0.014  0.008  0.002  0.976
  0.967  0.000  0.005  0.028  0.000
    occupations:
  0.460 -0.004 -0.039  0.061 -0.001
 -0.004  0.809  0.015  0.001  0.070
 -0.039  0.015  0.785 -0.010  0.002
  0.061  0.001 -0.010  0.946  0.000
 -0.001  0.070  0.002  0.000  0.438
atom   22   Tr[ns(na)] =   7.61032
    eigenvalues: 
  0.443  0.463  0.958  0.969  0.972
    eigenvectors:
  0.000  0.134  0.271  0.028  0.567
  0.999  0.001  0.000  0.000  0.000
  0.000  0.019  0.616  0.001  0.364
  0.001  0.845  0.106  0.004  0.043
  0.000  0.000  0.006  0.967  0.026
    occupations:
  0.900  0.001 -0.032 -0.169 -0.000
  0.001  0.443  0.001  0.000 -0.001
 -0.032  0.001  0.954 -0.062  0.001
 -0.169  0.000 -0.062  0.539 -0.001
 -0.000 -0.001  0.001 -0.001  0.969
atom   23   Tr[ns(na)] =   7.60436
    eigenvalues: 
  0.425  0.486  0.953  0.968  0.970
    eigenvectors:
  0.000  0.907  0.083  0.010  0.000
  0.032  0.000  0.000  0.000  0.968
  0.000  0.073  0.903  0.024  0.000
  0.000  0.020  0.014  0.966  0.000
  0.968  0.000  0.000  0.000  0.032
    occupations:
  0.530  0.000  0.120  0.065 -0.000
  0.000  0.953 -0.000 -0.000 -0.095
  0.120 -0.000  0.919 -0.020  0.000
  0.065 -0.000 -0.020  0.959 -0.000
 -0.000 -0.095  0.000 -0.000  0.442
N of occupied +U levels =  58.9169610
 --- exit write_ns ---

     negative rho (up, down):  0.151E+01 0.000E+00

     total cpu time spent up to now is      481.9 secs

     total energy              =   -2261.73768926 Ry
     Harris-Foulkes estimate   =   -2286.60040420 Ry
     estimated scf accuracy    <      29.82477965 Ry

     iteration #  2     ecut=    40.00 Ry     beta=0.70
     Davidson diagonalization with overlap
     ethr =  1.00E-02,  avg # of iterations =  4.9

     negative rho (up, down):  0.127E+01 0.000E+00

     total cpu time spent up to now is      829.0 secs

     total energy              =   -2186.32323968 Ry
     Harris-Foulkes estimate   =   -2363.79579652 Ry
     estimated scf accuracy    <    1565.86166097 Ry

     iteration #  3     ecut=    40.00 Ry     beta=0.70
     Davidson diagonalization with overlap
     ethr =  1.00E-02,  avg # of iterations =  5.0

     negative rho (up, down):  0.676E+00 0.000E+00

     total cpu time spent up to now is     1190.2 secs

     total energy              =   -2242.55755798 Ry
     Harris-Foulkes estimate   =   -2314.41428722 Ry
     estimated scf accuracy    <     631.51432038 Ry

     iteration #  4     ecut=    40.00 Ry     beta=0.70
     Davidson diagonalization with overlap
     ethr =  1.00E-02,  avg # of iterations =  4.0

     negative rho (up, down):  0.807E+00 0.000E+00

     total cpu time spent up to now is     1421.8 secs

     total energy              =   -2277.83520424 Ry
     Harris-Foulkes estimate   =   -2282.61032181 Ry
     estimated scf accuracy    <      15.52383168 Ry

     iteration #  5     ecut=    40.00 Ry     beta=0.70
     Davidson diagonalization with overlap
     ethr =  6.31E-03,  avg # of iterations =  1.3

     negative rho (up, down):  0.968E+00 0.000E+00

     total cpu time spent up to now is     1603.8 secs

     total energy              =   -2279.82138104 Ry
     Harris-Foulkes estimate   =   -2282.38992738 Ry
     estimated scf accuracy    <      17.93860601 Ry

     iteration #  6     ecut=    40.00 Ry     beta=0.70
     Davidson diagonalization with overlap
     ethr =  6.31E-03,  avg # of iterations =  1.1

     negative rho (up, down):  0.104E+01 0.000E+00

     total cpu time spent up to now is     1784.6 secs

     total energy              =   -2280.43303823 Ry
     Harris-Foulkes estimate   =   -2281.43243360 Ry
     estimated scf accuracy    <       4.49399946 Ry

     iteration #  7     ecut=    40.00 Ry     beta=0.70
     Davidson diagonalization with overlap
     ethr =  1.83E-03,  avg # of iterations =  2.7

     negative rho (up, down):  0.107E+01 0.000E+00

     total cpu time spent up to now is     1972.9 secs

     total energy              =   -2280.63977759 Ry
     Harris-Foulkes estimate   =   -2280.96090974 Ry
     estimated scf accuracy    <       2.10253803 Ry

     iteration #  8     ecut=    40.00 Ry     beta=0.70
     Davidson diagonalization with overlap
     ethr =  8.55E-04,  avg # of iterations =  4.0

     negative rho (up, down):  0.111E+01 0.000E+00

     total cpu time spent up to now is     2176.7 secs

     total energy              =   -2280.64268608 Ry
     Harris-Foulkes estimate   =   -2280.87267819 Ry
     estimated scf accuracy    <       2.92947629 Ry

     iteration #  9     ecut=    40.00 Ry     beta=0.70
     Davidson diagonalization with overlap
     ethr =  8.55E-04,  avg # of iterations =  1.0

     negative rho (up, down):  0.116E+01 0.000E+00

     total cpu time spent up to now is     2355.0 secs

     total energy              =   -2280.59471293 Ry
     Harris-Foulkes estimate   =   -2280.82159174 Ry
     estimated scf accuracy    <       1.90953672 Ry

     iteration # 10     ecut=    40.00 Ry     beta=0.70
     Davidson diagonalization with overlap
     ethr =  7.76E-04,  avg # of iterations =  1.0

     negative rho (up, down):  0.130E+01 0.000E+00

     total cpu time spent up to now is     2529.6 secs

     total energy              =   -2280.54742740 Ry
     Harris-Foulkes estimate   =   -2280.74944496 Ry
     estimated scf accuracy    <       0.98243917 Ry

     iteration # 11     ecut=    40.00 Ry     beta=0.70
     Davidson diagonalization with overlap
     ethr =  3.99E-04,  avg # of iterations =  4.8

     negative rho (up, down):  0.147E+01 0.000E+00

     total cpu time spent up to now is     2736.3 secs

     total energy              =   -2280.51845062 Ry
     Harris-Foulkes estimate   =   -2280.64355442 Ry
     estimated scf accuracy    <       0.48912306 Ry

     iteration # 12     ecut=    40.00 Ry     beta=0.70
     Davidson diagonalization with overlap
     ethr =  1.99E-04,  avg # of iterations =  5.2

     negative rho (up, down):  0.155E+01 0.000E+00

     total cpu time spent up to now is     2987.0 secs

     total energy              =   -2280.29550895 Ry
     Harris-Foulkes estimate   =   -2280.71256400 Ry
     estimated scf accuracy    <       2.14225766 Ry

     iteration # 13     ecut=    40.00 Ry     beta=0.70
     Davidson diagonalization with overlap
     ethr =  1.99E-04,  avg # of iterations =  5.0

     negative rho (up, down):  0.150E+01 0.000E+00

     total cpu time spent up to now is     3206.4 secs

     total energy              =   -2279.93814265 Ry
     Harris-Foulkes estimate   =   -2281.00672819 Ry
     estimated scf accuracy    <      16.44664713 Ry

     iteration # 14     ecut=    40.00 Ry     beta=0.70
     Davidson diagonalization with overlap
     ethr =  1.99E-04,  avg # of iterations =  4.8

     negative rho (up, down):  0.155E+01 0.000E+00

     total cpu time spent up to now is     3416.9 secs

     total energy              =   -2280.52544791 Ry
     Harris-Foulkes estimate   =   -2280.59707197 Ry
     estimated scf accuracy    <       0.25442894 Ry

     iteration # 15     ecut=    40.00 Ry     beta=0.70
     Davidson diagonalization with overlap
     ethr =  1.03E-04,  avg # of iterations =  1.7

     negative rho (up, down):  0.155E+01 0.000E+00

     total cpu time spent up to now is     3599.9 secs

     total energy              =   -2280.51973228 Ry
     Harris-Foulkes estimate   =   -2280.58345666 Ry
     estimated scf accuracy    <       0.31746828 Ry

     iteration # 16     ecut=    40.00 Ry     beta=0.70
     Davidson diagonalization with overlap
     ethr =  1.03E-04,  avg # of iterations =  1.1

     negative rho (up, down):  0.157E+01 0.000E+00

     total cpu time spent up to now is     3780.0 secs

     total energy              =   -2280.54048712 Ry
     Harris-Foulkes estimate   =   -2280.57259177 Ry
     estimated scf accuracy    <       0.43254745 Ry

     iteration # 17     ecut=    40.00 Ry     beta=0.70
     Davidson diagonalization with overlap
     ethr =  1.03E-04,  avg # of iterations =  1.0

     negative rho (up, down):  0.157E+01 0.000E+00

     total cpu time spent up to now is     3959.6 secs

     total energy              =   -2280.55315543 Ry
     Harris-Foulkes estimate   =   -2280.56103489 Ry
     estimated scf accuracy    <       0.05704438 Ry

     iteration # 18     ecut=    40.00 Ry     beta=0.70
     Davidson diagonalization with overlap
     ethr =  2.32E-05,  avg # of iterations =  1.3

     negative rho (up, down):  0.157E+01 0.000E+00

     total cpu time spent up to now is     4140.2 secs

     total energy              =   -2280.54933810 Ry
     Harris-Foulkes estimate   =   -2280.56082545 Ry
     estimated scf accuracy    <       0.10340262 Ry

     iteration # 19     ecut=    40.00 Ry     beta=0.70
     Davidson diagonalization with overlap
     ethr =  2.32E-05,  avg # of iterations =  1.0

     negative rho (up, down):  0.157E+01 0.000E+00

     total cpu time spent up to now is     4321.2 secs

     total energy              =   -2280.54508003 Ry
     Harris-Foulkes estimate   =   -2280.56924254 Ry
     estimated scf accuracy    <       0.30418674 Ry

     iteration # 20     ecut=    40.00 Ry     beta=0.70
     Davidson diagonalization with overlap
     ethr =  2.32E-05,  avg # of iterations =  1.0

     negative rho (up, down):  0.158E+01 0.000E+00

     total cpu time spent up to now is     4500.1 secs

     total energy              =   -2280.55577174 Ry
     Harris-Foulkes estimate   =   -2280.55701886 Ry
     estimated scf accuracy    <       0.01382251 Ry

     iteration # 21     ecut=    40.00 Ry     beta=0.70
     Davidson diagonalization with overlap
     ethr =  5.62E-06,  avg # of iterations =  4.7

     negative rho (up, down):  0.158E+01 0.000E+00

     total cpu time spent up to now is     4701.2 secs

     total energy              =   -2280.55592971 Ry
     Harris-Foulkes estimate   =   -2280.55642882 Ry
     estimated scf accuracy    <       0.00800517 Ry

     iteration # 22     ecut=    40.00 Ry     beta=0.70
     Davidson diagonalization with overlap
     ethr =  3.25E-06,  avg # of iterations =  3.5

     negative rho (up, down):  0.158E+01 0.000E+00

     total cpu time spent up to now is     4888.0 secs

     total energy              =   -2280.55381051 Ry
     Harris-Foulkes estimate   =   -2280.55619128 Ry
     estimated scf accuracy    <       0.00532464 Ry

     iteration # 23     ecut=    40.00 Ry     beta=0.70
     Davidson diagonalization with overlap
     ethr =  2.16E-06,  avg # of iterations =  5.6

     negative rho (up, down):  0.158E+01 0.000E+00

     total cpu time spent up to now is     5130.3 secs

     total energy              =   -2280.55272597 Ry
     Harris-Foulkes estimate   =   -2280.55833988 Ry
     estimated scf accuracy    <       0.04701311 Ry

     iteration # 24     ecut=    40.00 Ry     beta=0.70
     Davidson diagonalization with overlap
     ethr =  2.16E-06,  avg # of iterations =  4.8

     negative rho (up, down):  0.158E+01 0.000E+00

     total cpu time spent up to now is     5349.3 secs

     total energy              =   -2280.55545735 Ry
     Harris-Foulkes estimate   =   -2280.55575467 Ry
     estimated scf accuracy    <       0.00117322 Ry

     iteration # 25     ecut=    40.00 Ry     beta=0.70
     Davidson diagonalization with overlap
     ethr =  4.77E-07,  avg # of iterations =  1.0

     negative rho (up, down):  0.158E+01 0.000E+00

     total cpu time spent up to now is     5548.2 secs

     total energy              =   -2280.55559385 Ry
     Harris-Foulkes estimate   =   -2280.55562927 Ry
     estimated scf accuracy    <       0.00015742 Ry

     iteration # 26     ecut=    40.00 Ry     beta=0.70
     Davidson diagonalization with overlap
     ethr =  6.40E-08,  avg # of iterations =  1.0

     negative rho (up, down):  0.158E+01 0.000E+00

     total cpu time spent up to now is     5737.7 secs

     total energy              =   -2280.55559956 Ry
     Harris-Foulkes estimate   =   -2280.55562141 Ry
     estimated scf accuracy    <       0.00010373 Ry

     iteration # 27     ecut=    40.00 Ry     beta=0.70
     Davidson diagonalization with overlap
     ethr =  4.22E-08,  avg # of iterations =  1.0

     negative rho (up, down):  0.158E+01 0.000E+00

     total cpu time spent up to now is     5924.1 secs

     total energy              =   -2280.55559371 Ry
     Harris-Foulkes estimate   =   -2280.55562829 Ry
     estimated scf accuracy    <       0.00030203 Ry

     iteration # 28     ecut=    40.00 Ry     beta=0.70
     Davidson diagonalization with overlap
     ethr =  4.22E-08,  avg # of iterations =  1.0

     negative rho (up, down):  0.158E+01 0.000E+00

     total cpu time spent up to now is     6105.2 secs

     total energy              =   -2280.55559494 Ry
     Harris-Foulkes estimate   =   -2280.55563077 Ry
     estimated scf accuracy    <       0.00038133 Ry

     iteration # 29     ecut=    40.00 Ry     beta=0.70
     Davidson diagonalization with overlap
     ethr =  4.22E-08,  avg # of iterations =  1.0

     negative rho (up, down):  0.158E+01 0.000E+00

     total cpu time spent up to now is     6283.9 secs

     total energy              =   -2280.55561218 Ry
     Harris-Foulkes estimate   =   -2280.55561293 Ry
     estimated scf accuracy    <       0.00000512 Ry

     iteration # 30     ecut=    40.00 Ry     beta=0.70
     Davidson diagonalization with overlap
     ethr =  2.08E-09,  avg # of iterations =  1.0

     negative rho (up, down):  0.158E+01 0.000E+00

     total cpu time spent up to now is     6462.4 secs

     total energy              =   -2280.55561235 Ry
     Harris-Foulkes estimate   =   -2280.55561292 Ry
     estimated scf accuracy    <       0.00000491 Ry

     iteration # 31     ecut=    40.00 Ry     beta=0.70
     Davidson diagonalization with overlap
     ethr =  2.00E-09,  avg # of iterations =  1.0

     negative rho (up, down):  0.158E+01 0.000E+00

     total cpu time spent up to now is     6640.7 secs

     total energy              =   -2280.55561229 Ry
     Harris-Foulkes estimate   =   -2280.55561308 Ry
     estimated scf accuracy    <       0.00000507 Ry

     iteration # 32     ecut=    40.00 Ry     beta=0.70
     Davidson diagonalization with overlap
     ethr =  2.00E-09,  avg # of iterations =  1.0

     negative rho (up, down):  0.158E+01 0.000E+00

     total cpu time spent up to now is     6824.7 secs

     End of self-consistent calculation
 --- enter write_ns ---
 LDA+U parameters:
U( 2)     =  1.00000000
alpha( 2) =  0.00000000
atom    3   Tr[ns(na)] =   8.66297
    eigenvalues: 
  0.684  0.697  0.982  0.983  0.986
    eigenvectors:
  0.046  0.131  0.482  0.324  0.018
  0.750  0.249  0.000  0.000  0.000
  0.000  0.003  0.005  0.122  0.870
  0.203  0.617  0.106  0.059  0.015
  0.000  0.000  0.407  0.496  0.097
    occupations:
  0.931  0.004  0.007 -0.110 -0.000
  0.004  0.688  0.002  0.004 -0.004
  0.007  0.002  0.984  0.016  0.001
 -0.110  0.004  0.016  0.746  0.001
 -0.000 -0.004  0.001  0.001  0.983
atom    4   Tr[ns(na)] =   8.65059
    eigenvalues: 
  0.683  0.702  0.977  0.981  0.983
    eigenvectors:
  0.000  0.987  0.005  0.002  0.005
  0.008  0.000  0.089  0.894  0.009
  0.000  0.004  0.868  0.073  0.056
  0.000  0.009  0.037  0.024  0.930
  0.992  0.000  0.001  0.007  0.000
    occupations:
  0.706 -0.005 -0.018  0.026 -0.001
 -0.005  0.978  0.001  0.000  0.026
 -0.018  0.001  0.976  0.003  0.000
  0.026  0.000  0.003  0.980  0.000
 -0.001  0.026  0.000  0.000  0.685
atom    9   Tr[ns(na)] =   8.61994
    eigenvalues: 
  0.704  0.717  0.949  0.957  0.983
    eigenvectors:
  0.002  0.135  0.001  0.010  0.853
  0.985  0.014  0.000  0.000  0.000
  0.000  0.010  0.011  0.975  0.004
  0.012  0.841  0.001  0.005  0.142
  0.000  0.000  0.987  0.010  0.002
    occupations:
  0.947  0.001 -0.008 -0.091  0.001
  0.001  0.704  0.001  0.001 -0.004
 -0.008  0.001  0.954 -0.023  0.001
 -0.091  0.001 -0.023  0.755 -0.000
  0.001 -0.004  0.001 -0.000  0.950
atom   10   Tr[ns(na)] =   8.69688
    eigenvalues: 
  0.661  0.751  0.972  0.980  0.984
    eigenvectors:
  0.000  0.981  0.000  0.006  0.013
  0.010  0.000  0.990  0.000  0.000
  0.000  0.001  0.000  0.420  0.579
  0.000  0.018  0.000  0.574  0.408
  0.990  0.000  0.010  0.000  0.000
    occupations:
  0.755  0.000 -0.009  0.031  0.000
  0.000  0.969  0.000 -0.000 -0.031
 -0.009  0.000  0.982 -0.001 -0.000
  0.031 -0.000 -0.001  0.978 -0.000
  0.000 -0.031 -0.000 -0.000  0.665
atom   16   Tr[ns(na)] =   8.66305
    eigenvalues: 
  0.684  0.697  0.982  0.983  0.986
    eigenvectors:
  0.046  0.131  0.491  0.313  0.020
  0.750  0.249  0.000  0.000  0.000
  0.000  0.003  0.003  0.119  0.874
  0.203  0.617  0.107  0.057  0.016
  0.000  0.000  0.399  0.511  0.090
    occupations:
  0.931 -0.004  0.007 -0.110  0.001
 -0.004  0.688 -0.002 -0.005 -0.004
  0.007 -0.002  0.984  0.016 -0.001
 -0.110 -0.005  0.016  0.746 -0.001
  0.001 -0.004 -0.001 -0.001  0.983
atom   17   Tr[ns(na)] =   8.64906
    eigenvalues: 
  0.684  0.703  0.973  0.981  0.983
    eigenvectors:
  0.000  0.987  0.005  0.001  0.007
  0.008  0.000  0.039  0.949  0.004
  0.000  0.004  0.943  0.035  0.018
  0.000  0.009  0.013  0.008  0.971
  0.992  0.000  0.000  0.007  0.000
    occupations:
  0.707 -0.005 -0.018  0.026 -0.001
 -0.005  0.978  0.001  0.000  0.026
 -0.018  0.001  0.973  0.003  0.000
  0.026  0.000  0.003  0.981  0.000
 -0.001  0.026  0.000  0.000  0.686
atom   22   Tr[ns(na)] =   8.61990
    eigenvalues: 
  0.704  0.716  0.949  0.957  0.983
    eigenvectors:
  0.000  0.136  0.001  0.010  0.852
  0.997  0.003  0.000  0.000  0.000
  0.000  0.010  0.017  0.969  0.004
  0.002  0.851  0.001  0.005  0.142
  0.000  0.000  0.982  0.016  0.002
    occupations:
  0.947  0.000 -0.007 -0.091 -0.001
  0.000  0.704 -0.001 -0.001 -0.004
 -0.007 -0.001  0.954 -0.023 -0.001
 -0.091 -0.001 -0.023  0.755  0.001
 -0.001 -0.004 -0.001  0.001  0.950
atom   23   Tr[ns(na)] =   8.59788
    eigenvalues: 
  0.713  0.735  0.914  0.951  0.986
    eigenvectors:
  0.000  0.897  0.097  0.000  0.006
  0.014  0.000  0.000  0.986  0.000
  0.000  0.089  0.891  0.000  0.020
  0.000  0.014  0.012  0.000  0.974
  0.986  0.000  0.000  0.014  0.000
    occupations:
  0.754  0.000  0.050  0.026 -0.000
  0.000  0.948 -0.000  0.000 -0.028
  0.050 -0.000  0.900 -0.016 -0.000
  0.026  0.000 -0.016  0.981 -0.000
 -0.000 -0.028 -0.000 -0.000  0.716
N of occupied +U levels =  69.1602669
 --- exit write_ns ---

          k = 0.0000 0.0000 0.0000 ( 32157 PWs)   bands (ev):

   -56.3187 -56.2232 -56.1003 -55.9380 -55.8823 -55.8463 -55.7936 -55.7866
   -55.7861 -55.7831 -55.7259 -55.6673 -55.6614 -55.5789 -55.5368 -55.5015
   -55.4940 -55.4926 -55.4869 -55.4839 -55.4483 -55.1496 -54.8964 -54.5914
   -22.2059 -21.8241 -21.4647 -21.2953 -20.6655 -20.6243 -20.5484 -20.4509
   -20.4212 -20.3815 -20.3297 -20.2980 -20.2243 -20.0025 -19.9472 -19.8521
   -19.2718 -19.0210 -18.9034 -10.7722 -10.6452 -10.3802  -9.7033  -9.5383
    -9.3830  -9.3381  -9.2703  -9.2516  -9.1380  -9.0625  -8.9930  -8.9533
    -8.8788  -8.8461  -8.7653  -8.6503  -8.5154  -8.1573  -8.0425  -7.9380
    -7.8805  -7.7494  -7.7104  -7.2260  -7.1314  -7.0704  -6.7142  -6.5841
    -6.5496  -6.2654  -6.2182  -6.1510  -6.1282  -6.0980  -5.9237  -5.9088
    -5.6878  -5.5622  -5.5215  -5.4171  -5.4006  -5.3790  -5.2800  -5.2199
    -5.1835  -5.1736  -5.1099  -5.0791  -5.0007  -4.9687  -4.8849  -4.8172
    -4.7913  -4.7760  -4.7444  -4.6429  -4.5548  -4.4946  -4.4334  -4.3485
    -4.2094  -4.0859  -3.8756  -3.6455  -3.4517  -3.2524  -3.1160  -3.0392
    -3.0110  -2.9471  -2.6633  -2.6005  -2.4473  -2.3389  -2.3167  -2.1756
    -1.9284  -1.8146  -1.6885  -1.5699  -1.4413  -1.0135  -0.6263  -0.5995
    -0.5939  -0.5689  -0.2231   0.0399   0.3764   0.7375   0.9489   1.2206
     1.2427   1.2513   1.7785   1.9471   2.2968   3.3102   4.1821   4.6701
     4.8729   5.4865   5.5995   5.6974   5.8220   6.3386   6.4218   6.5659
     6.7659   6.8151   6.8283   6.9476   7.2302   7.3566   7.4089   7.4809
     7.5462   7.6395   7.7051   7.7394   7.8748   7.9529   8.1966   8.1979
     8.2150   8.2384   8.3151   8.3878   8.5264   8.5607   8.5730   8.7670
     8.9004   8.9329   8.9977   9.1002   9.1727   9.1936   9.4357   9.4776
     9.5923   9.7809   9.7903   9.8931   9.9595   9.9878  10.0725  10.2475
    10.4268  10.4880  10.6374  10.7291  10.8283  10.8433  10.8622  10.9450
    10.9953  11.0841  11.2268  11.2538  11.3522  11.4192  11.5247  11.5367
    11.5901  11.6984  11.8169  11.9099  11.9887  12.0219  12.0569  12.1034
    12.1957  12.2312  12.2449  12.2733  12.3794  12.4060  12.6155  12.6333
    12.6964  12.7836  12.7958  12.9964  13.1135  13.1745  13.2741  13.3788
    13.3891  13.5671  13.6351  13.6853  13.7265  13.8364  13.9486  14.0514
    14.0666  14.1999  14.2573  14.3196  14.4296  14.4604  14.5138  14.6148
    14.6805  14.8331  14.8698  15.0519  15.1604  15.3168  15.3298  15.3608
    15.4444  15.4875  15.5512  15.6337  15.7149  15.7949  15.8365  15.8413
    15.9573  15.9763  16.0578  16.2788  16.3355  16.3427  16.3990  16.4622
    16.4744  16.4946  16.5459  16.5663  16.6292  16.6796  16.8037  16.8121
    16.8813  16.9128  17.0626  17.1825  17.1913  17.2748  17.3106  17.3739
    17.4543  17.5802  17.6612  17.8187  17.8525  17.8986  17.9849  18.0525
    18.1294  18.2106  18.2461  18.3370  18.3461  18.3802  18.4289  18.5858
    18.6307  18.6579  18.7014  18.7572  18.7609  18.8515  18.9636  19.0294
    19.0720  19.0859  19.1084  19.2020  19.2903  19.3382  19.3818  19.4437
    19.4518  19.5180  19.5599  19.6145  19.6901  19.7214  19.8169  19.8641
    19.9469  19.9893  20.0290  20.1071  20.1398  20.1846  20.3032  20.3741
    20.5398  20.5911  20.6286  20.8075  20.8839  20.9275  20.9548  20.9807
    21.0140  21.0798  21.1827  21.2527  21.3554  21.4418  21.4932  21.5402
    21.5594  21.5976  21.6284  21.6887  21.7044  21.7363  21.7423  21.7859
    21.8810  21.8959  21.9305  21.9814  22.0271  22.0663  22.1497  22.2570
    22.2863

          k = 0.0000 0.2488 0.0000 ( 32033 PWs)   bands (ev):

   -56.3187 -56.2232 -56.1002 -55.9379 -55.8823 -55.8462 -55.7936 -55.7867
   -55.7861 -55.7830 -55.7260 -55.6671 -55.6612 -55.5790 -55.5368 -55.5015
   -55.4939 -55.4919 -55.4877 -55.4839 -55.4484 -55.1496 -54.8964 -54.5914
   -22.1844 -21.8195 -21.3782 -21.2082 -20.7207 -20.6924 -20.6271 -20.4549
   -20.3939 -20.3375 -20.3109 -20.2562 -20.2435 -20.0337 -20.0023 -19.9647
   -19.2699 -19.0236 -18.9030 -10.4782 -10.2475 -10.1866  -9.9417  -9.5371
    -9.4403  -9.3984  -9.3131  -9.2782  -9.1822  -9.0684  -9.0467  -8.9664
    -8.8692  -8.8265  -8.6659  -8.6277  -8.1716  -7.9857  -7.9652  -7.8569
    -7.7561  -7.6982  -7.3707  -7.2369  -7.0763  -7.0325  -6.9961  -6.8274
    -6.7671  -6.6880  -6.4406  -6.3268  -6.2721  -6.2169  -6.1289  -6.0602
    -6.0323  -5.9974  -5.8658  -5.7047  -5.6256  -5.4927  -5.2664  -5.2189
    -5.1705  -5.0001  -4.9131  -4.8781  -4.8534  -4.7936  -4.7684  -4.7333
    -4.6762  -4.6170  -4.5131  -4.4470  -4.3982  -4.2814  -4.2339  -4.1750
    -4.1218  -4.0180  -3.8853  -3.7242  -3.6270  -3.5038  -3.4579  -3.2374
    -3.0529  -2.9680  -2.7101  -2.4727  -2.4440  -2.3145  -2.2214  -2.1708
    -1.9399  -1.8658  -1.7858  -1.5991  -1.4820  -1.3273  -1.1982  -0.8135
    -0.5680  -0.2400   0.1414   0.7275   0.8808   0.9230   1.0010   1.0231
     1.2467   1.3098   1.7767   1.7841   2.6751   3.5314   4.3854   4.8163
     4.8849   5.0964   5.5394   5.8376   5.8755   5.9484   6.2109   6.3917
     6.5278   6.6961   6.8111   6.9774   7.0610   7.2004   7.2499   7.3229
     7.4433   7.5291   7.6183   7.6618   7.7561   7.8948   8.0279   8.1543
     8.2741   8.3430   8.4111   8.4630   8.5408   8.5569   8.6840   8.8592
     8.9292   9.0205   9.0686   9.1652   9.2740   9.4178   9.5018   9.5311
     9.8223   9.8415   9.9678  10.0113  10.0820  10.1271  10.1679  10.1834
    10.3654  10.3858  10.4361  10.5873  10.6255  10.6490  10.8579  10.9052
    10.9176  11.0066  11.0423  11.2102  11.3238  11.3572  11.4622  11.5520
    11.5886  11.7560  11.8239  11.8904  12.0819  12.1502  12.2206  12.2778
    12.3027  12.4055  12.4245  12.5122  12.5856  12.6706  12.7380  12.8844
    13.0256  13.2125  13.2810  13.3632  13.4467  13.5251  13.5895  13.6110
    13.6995  13.7398  13.7491  13.8218  13.8993  14.0772  14.1501  14.2336
    14.2638  14.3667  14.3999  14.5525  14.5723  14.6419  14.6807  14.7457
    14.8175  14.8987  14.9608  15.1438  15.2334  15.2889  15.3385  15.3945
    15.4655  15.5566  15.6308  15.6811  15.7122  15.7452  15.8270  15.8522
    15.8863  15.9612  16.0141  16.0725  16.1414  16.2226  16.2448  16.3046
    16.3659  16.3863  16.4429  16.4603  16.5343  16.5434  16.5654  16.6158
    16.6499  16.6895  16.7598  16.7887  16.9040  16.9929  17.0833  17.1408
    17.2533  17.2784  17.3554  17.4145  17.5214  17.6580  17.7025  17.7778
    17.9596  18.0114  18.0573  18.1830  18.1976  18.2917  18.3675  18.4186
    18.4572  18.5261  18.5650  18.5952  18.6239  18.6800  18.7921  18.8552
    18.9511  18.9824  19.0102  19.0320  19.0928  19.1267  19.1747  19.1951
    19.3038  19.3359  19.3479  19.4449  19.4991  19.5110  19.6103  19.6399
    19.6517  19.6954  19.7806  19.8233  19.8580  19.9323  20.0781  20.1833
    20.2094  20.2446  20.3017  20.3650  20.3964  20.4303  20.4751  20.5400
    20.6233  20.7715  20.8124  20.8263  20.8555  20.9119  20.9794  21.0205
    21.0722  21.1391  21.2169  21.2445  21.2643  21.3718  21.4220  21.4638
    21.4737  21.4988  21.5870  21.6621  21.6857  21.7465  21.8687  21.9224
    21.9423

          k = 0.0000-0.4976 0.0000 ( 31948 PWs)   bands (ev):

   -56.3187 -56.2232 -56.1002 -55.9378 -55.8823 -55.8461 -55.7936 -55.7869
   -55.7862 -55.7829 -55.7260 -55.6668 -55.6609 -55.5791 -55.5368 -55.5015
   -55.4939 -55.4905 -55.4892 -55.4838 -55.4485 -55.1495 -54.8964 -54.5914
   -22.1638 -21.8150 -21.2624 -21.0700 -20.8306 -20.7410 -20.6790 -20.4876
   -20.3903 -20.3423 -20.2845 -20.2728 -20.2034 -20.1101 -20.0632 -20.0019
   -19.2678 -19.0255 -18.9036 -10.4214 -10.1061  -9.6519  -9.6060  -9.5430
    -9.4778  -9.4690  -9.3192  -9.1951  -9.1707  -9.0387  -8.9894  -8.9484
    -8.8319  -8.7899  -8.6695  -8.5252  -8.1622  -8.0612  -7.9951  -7.9863
    -7.9007  -7.7380  -7.5582  -7.4073  -7.0739  -6.9321  -6.8264  -6.8202
    -6.7788  -6.7664  -6.7104  -6.6707  -6.6322  -6.3736  -6.1404  -6.1112
    -6.0971  -6.0374  -5.9232  -5.6592  -5.6228  -5.5854  -5.4182  -5.2795
    -5.1633  -5.0173  -4.9288  -4.8407  -4.8257  -4.7907  -4.7561  -4.7100
    -4.6158  -4.5277  -4.5117  -4.3981  -4.3239  -4.2174  -4.1347  -3.9931
    -3.9815  -3.8745  -3.7851  -3.7366  -3.6768  -3.6378  -3.5331  -3.1368
    -3.0279  -3.0140  -2.7406  -2.5506  -2.5254  -2.4914  -2.3933  -2.2938
    -2.0221  -1.9251  -1.8987  -1.6189  -1.5321  -1.4176  -1.2560  -0.7128
    -0.5495   0.2284   0.4354   0.7068   0.8181   0.8348   1.1483   1.2730
     1.3672   1.4317   1.6795   1.7795   3.4999   3.8501   4.0478   4.7342
     4.9391   5.1976   5.4074   5.6667   5.7284   5.7369   6.0549   6.2164
     6.3703   6.5179   6.7044   6.7232   6.9925   7.0320   7.3153   7.4439
     7.4571   7.5436   7.6009   7.7124   7.9374   7.9936   8.0486   8.0684
     8.2389   8.3655   8.3709   8.5770   8.6460   8.7089   8.7878   8.8252
     8.8581   8.8937   9.0133   9.1228   9.1657   9.2044   9.2352   9.4537
     9.5456   9.5696   9.7073   9.7996   9.9737   9.9989  10.0254  10.0611
    10.2427  10.7098  10.7671  10.8361  10.8964  10.9427  11.0112  11.0882
    11.1458  11.2388  11.2813  11.3689  11.5128  11.5527  11.6097  11.6702
    12.0061  12.0134  12.0733  12.1052  12.1961  12.3027  12.3604  12.3796
    12.4924  12.5384  12.7115  12.7785  12.8166  12.8755  12.9252  12.9369
    12.9663  13.0183  13.0398  13.1448  13.2757  13.2924  13.5310  13.6408
    13.6993  13.8306  13.9155  14.1093  14.1370  14.2469  14.2980  14.3200
    14.3828  14.5419  14.5770  14.6605  14.8206  14.8962  14.9311  14.9475
    15.0549  15.0954  15.1263  15.1467  15.1861  15.4475  15.5529  15.6091
    15.6211  15.6408  15.7221  15.7543  15.8339  15.8792  15.9244  15.9586
    16.0363  16.0443  16.1366  16.1856  16.2296  16.2728  16.3247  16.3355
    16.3441  16.3676  16.3716  16.4343  16.4856  16.5031  16.5123  16.5250
    16.5433  16.5774  16.6612  16.7000  16.7761  16.7825  16.8237  16.8586
    17.0209  17.0789  17.1904  17.2200  17.2984  17.3460  17.4009  17.4356
    17.5090  17.5365  17.6275  17.7473  17.7648  17.8105  17.8456  17.9181
    18.0022  18.0135  18.1360  18.1580  18.2314  18.3397  18.3757  18.4598
    18.5344  18.6241  18.6394  18.7546  18.7841  18.9204  18.9514  19.0288
    19.1349  19.1516  19.2328  19.2405  19.3171  19.3320  19.4607  19.5338
    19.5733  19.6602  19.7197  19.7490  19.7709  19.8786  19.8988  19.9434
    19.9828  20.0398  20.1214  20.2017  20.2494  20.2700  20.2998  20.3569
    20.3974  20.4400  20.4671  20.4983  20.5364  20.6106  20.6590  20.6862
    20.7062  20.7934  20.8423  20.8693  20.8718  20.9657  21.0131  21.2152
    21.2572  21.2810  21.3157  21.4470  21.5204  21.5607  21.6695  21.7801
    21.7862

          k = 0.2500 0.0000 0.0000 ( 32013 PWs)   bands (ev):

   -56.3187 -56.2232 -56.1003 -55.9302 -55.8908 -55.8389 -55.8016 -55.7861
   -55.7837 -55.7794 -55.7331 -55.6666 -55.6622 -55.5789 -55.5369 -55.5005
   -55.4951 -55.4919 -55.4871 -55.4845 -55.4484 -55.1503 -54.8964 -54.5914
   -22.1439 -21.8404 -21.3660 -21.1951 -20.8064 -20.6645 -20.5901 -20.4419
   -20.3781 -20.3556 -20.3243 -20.2410 -20.2106 -20.0233 -20.0113 -19.9193
   -19.3046 -19.0812 -18.9094 -10.5961 -10.4637 -10.2449  -9.7983  -9.5105
    -9.5001  -9.4077  -9.2683  -9.2029  -9.1788  -9.0959  -8.8709  -8.7739
    -8.6954  -8.6779  -8.6138  -8.5039  -8.3676  -8.3545  -8.1543  -7.8699
    -7.7750  -7.7370  -7.5470  -7.2718  -7.0896  -7.0567  -6.9293  -6.8137
    -6.6524  -6.6398  -6.5981  -6.4112  -6.3201  -6.2900  -6.2123  -6.1094
    -6.0123  -5.8533  -5.7685  -5.7367  -5.6773  -5.5506  -5.5044  -5.4307
    -5.3021  -5.1978  -5.1712  -5.1098  -5.0412  -4.8993  -4.7779  -4.7076
    -4.6221  -4.5535  -4.4917  -4.4244  -4.3153  -4.2448  -4.0759  -3.9802
    -3.8431  -3.6572  -3.6403  -3.5206  -3.4840  -3.1268  -3.0501  -2.9051
    -2.8307  -2.7521  -2.7055  -2.6154  -2.4819  -2.4034  -2.2757  -2.1919
    -2.0096  -1.8408  -1.7631  -1.6587  -1.5072  -0.8680  -0.5024  -0.4728
    -0.3979  -0.3165  -0.1648   0.0292   0.3504   0.3967   0.8605   0.9047
     0.9863   1.2299   1.3388   1.8248   2.7039   3.6108   4.3961   4.8188
     4.8632   5.1000   5.5584   5.8253   5.9725   6.0542   6.1949   6.4767
     6.6488   6.7371   6.8506   6.9499   7.1027   7.1263   7.2478   7.3064
     7.4690   7.5535   7.6422   7.7114   7.8760   7.9461   8.0827   8.1244
     8.4266   8.4395   8.4679   8.6022   8.6474   8.7159   8.7678   8.8724
     8.9129   9.0564   9.1879   9.2720   9.3257   9.4210   9.6530   9.7075
     9.7661   9.8019   9.9663   9.9850  10.0255  10.1401  10.1537  10.2230
    10.2599  10.3476  10.3667  10.4373  10.5954  10.7254  10.7800  10.8775
    10.8843  10.9188  10.9542  11.0725  11.1812  11.2170  11.2956  11.4046
    11.5489  11.6075  11.7340  11.8153  12.0040  12.1206  12.1562  12.2442
    12.2804  12.3160  12.4606  12.5653  12.7113  12.7784  12.8117  12.9299
    13.0534  13.1110  13.2034  13.3083  13.4398  13.4916  13.5278  13.6168
    13.6439  13.6739  13.7204  13.7462  13.8072  13.9127  13.9501  14.0723
    14.0950  14.2049  14.2346  14.2504  14.3579  14.4526  14.5123  14.6119
    14.7400  14.8265  14.8967  15.0133  15.1621  15.2328  15.2958  15.4022
    15.4272  15.4336  15.4896  15.5962  15.6838  15.7909  15.8485  15.9084
    15.9250  15.9616  15.9752  16.1241  16.1781  16.3015  16.3391  16.3462
    16.3804  16.4022  16.5144  16.5185  16.5330  16.5662  16.5818  16.6541
    16.8263  16.8761  16.9214  17.0146  17.0921  17.1595  17.1840  17.2954
    17.3546  17.4629  17.5705  17.5952  17.6213  17.6979  17.8068  17.8662
    17.9284  18.0375  18.1142  18.2508  18.3549  18.3849  18.4435  18.5567
    18.5985  18.6580  18.6788  18.7489  18.8034  18.8568  18.8786  18.9019
    18.9464  18.9939  19.0428  19.0518  19.1155  19.1971  19.2176  19.2570
    19.3311  19.3697  19.4130  19.4736  19.5238  19.5542  19.6150  19.6627
    19.7077  19.7543  19.8094  19.8524  19.9105  20.0000  20.0121  20.0718
    20.1201  20.1574  20.2561  20.3357  20.4035  20.4648  20.5055  20.5426
    20.5881  20.6802  20.7205  20.7677  20.9107  20.9293  21.0111  21.0402
    21.1376  21.1733  21.1966  21.2282  21.2885  21.3426  21.3818  21.4583
    21.5351  21.5457  21.6274  21.6872  21.7949  21.8753  21.9364  21.9725
    22.0118

          k = 0.2500 0.2488 0.0000 ( 32025 PWs)   bands (ev):

   -56.3187 -56.2232 -56.1002 -55.9301 -55.8908 -55.8388 -55.8016 -55.7862
   -55.7837 -55.7795 -55.7332 -55.6664 -55.6620 -55.5789 -55.5369 -55.5005
   -55.4951 -55.4912 -55.4876 -55.4847 -55.4485 -55.1502 -54.8964 -54.5914
   -22.1285 -21.8354 -21.2786 -21.1039 -20.7700 -20.6536 -20.6442 -20.4738
   -20.4500 -20.3724 -20.2923 -20.2525 -20.2271 -20.0810 -20.0259 -20.0189
   -19.3038 -19.0821 -18.9091 -10.3308 -10.0946 -10.0377  -9.8880  -9.5067
    -9.4236  -9.3849  -9.1948  -9.1730  -9.1423  -9.0401  -9.0187  -8.8177
    -8.6917  -8.6633  -8.6319  -8.4509  -8.3894  -8.0887  -7.9315  -7.8683
    -7.8092  -7.7739  -7.6229  -7.2592  -7.1182  -7.0288  -6.9827  -6.9019
    -6.8278  -6.7663  -6.6877  -6.6660  -6.5611  -6.5105  -6.4435  -6.3053
    -6.1912  -6.1214  -6.0393  -5.8701  -5.8007  -5.6258  -5.5744  -5.3622
    -5.3271  -5.2391  -5.1013  -5.0589  -4.9281  -4.8459  -4.7771  -4.5532
    -4.4388  -4.4089  -4.3624  -4.1922  -4.0812  -3.9358  -3.8898  -3.8368
    -3.7463  -3.6956  -3.6272  -3.5640  -3.5081  -3.3938  -3.2366  -3.1880
    -3.0103  -2.7622  -2.6620  -2.5041  -2.4286  -2.3364  -2.2731  -2.1924
    -2.0166  -1.8886  -1.7820  -1.6842  -1.5532  -1.1420  -1.0453  -0.6910
    -0.3666  -0.1874   0.0915   0.3681   0.6059   0.7497   0.7804   0.9275
     1.1137   1.3130   1.3442   1.7411   3.0585   3.8171   4.6005   5.0029
     5.0320   5.0892   5.3268   5.6537   6.0644   6.1614   6.1864   6.3678
     6.4609   6.5502   6.6985   6.8584   6.9498   7.0102   7.1183   7.2202
     7.3639   7.4760   7.5163   7.5697   7.6737   7.8723   7.9090   7.9771
     8.1395   8.2318   8.2926   8.4578   8.5564   8.6379   8.6657   8.7582
     8.8689   8.9917   9.0957   9.2777   9.3415   9.4641   9.5168   9.6043
     9.6942   9.9235  10.0108  10.0774  10.2048  10.2611  10.3306  10.3744
    10.5244  10.6168  10.6736  10.7736  10.8083  10.9105  11.0353  11.0738
    11.1647  11.2034  11.3379  11.4616  11.4904  11.7005  11.7215  11.7675
    11.8451  11.9325  11.9640  12.0609  12.1120  12.1958  12.2441  12.3108
    12.4041  12.4763  12.4989  12.5380  12.6137  12.7375  12.8123  12.8413
    12.9134  12.9888  13.1530  13.1738  13.2327  13.4454  13.4886  13.5547
    13.6710  13.6998  13.7444  13.8643  13.8978  13.9591  14.0287  14.1085
    14.1861  14.2824  14.4224  14.4827  14.5598  14.6333  14.7004  14.8141
    14.8648  14.9942  15.0890  15.2399  15.3001  15.3419  15.3844  15.4329
    15.5281  15.5612  15.6267  15.6794  15.7351  15.7754  15.7965  15.8696
    15.9345  15.9798  16.0362  16.0978  16.1405  16.1871  16.2624  16.3149
    16.3437  16.3563  16.4330  16.5077  16.5143  16.5280  16.5478  16.5740
    16.6093  16.7172  16.7561  16.8424  16.9121  16.9356  16.9727  17.0866
    17.1360  17.1575  17.1911  17.2101  17.2583  17.3389  17.4313  17.4491
    17.4834  17.5472  17.5717  17.6170  17.7009  17.7679  17.8992  17.9388
    18.0266  18.0723  18.1199  18.2065  18.2739  18.3377  18.4305  18.4987
    18.5376  18.5862  18.6242  18.7108  18.7577  18.8283  18.8725  18.9532
    19.0139  19.1442  19.1930  19.2407  19.3166  19.3937  19.4414  19.4968
    19.6174  19.7448  19.8039  19.8930  19.9158  19.9478  19.9979  20.0628
    20.1120  20.2047  20.2538  20.2944  20.3274  20.3792  20.4276  20.4715
    20.6213  20.6996  20.8271  20.8942  20.9309  20.9699  21.0170  21.0790
    21.1701  21.2212  21.2692  21.3016  21.4210  21.4353  21.5003  21.5619
    21.6131  21.6580  21.7671  21.8111  21.8617  21.9519  22.0059  22.0558
    22.1304

          k = 0.2500-0.4976 0.0000 ( 32026 PWs)   bands (ev):

   -56.3187 -56.2232 -56.1002 -55.9300 -55.8908 -55.8388 -55.8015 -55.7863
   -55.7836 -55.7796 -55.7333 -55.6661 -55.6618 -55.5790 -55.5369 -55.5005
   -55.4951 -55.4896 -55.4891 -55.4848 -55.4486 -55.1502 -54.8964 -54.5914
   -22.1139 -21.8304 -21.1505 -20.9702 -20.7469 -20.7051 -20.6654 -20.5224
   -20.5086 -20.4225 -20.2878 -20.2777 -20.2417 -20.1364 -20.0991 -20.0235
   -19.3029 -19.0828 -18.9093 -10.2781  -9.9433  -9.5180  -9.4171  -9.3793
    -9.3388  -9.2887  -9.2713  -9.2238  -9.1367  -9.0468  -8.9938  -8.8961
    -8.7085  -8.6821  -8.5642  -8.4891  -8.3039  -8.0126  -7.9632  -7.7488
    -7.7330  -7.7089  -7.6447  -7.5678  -7.5536  -7.3819  -7.2869  -7.1223
    -6.9629  -6.8528  -6.7886  -6.7424  -6.5918  -6.5113  -6.4935  -6.3804
    -6.3054  -6.2716  -6.1154  -5.9152  -5.7963  -5.7041  -5.6423  -5.5646
    -5.4737  -5.0813  -4.9770  -4.9048  -4.8414  -4.7370  -4.6646  -4.4294
    -4.4154  -4.2410  -4.2082  -4.1850  -4.0258  -3.9507  -3.9097  -3.8578
    -3.7933  -3.5673  -3.5053  -3.4424  -3.4080  -3.3952  -3.2765  -3.1726
    -3.1090  -2.8412  -2.6337  -2.5497  -2.5078  -2.4004  -2.3455  -2.2253
    -2.0486  -1.9837  -1.8253  -1.7221  -1.5954  -1.3977  -1.2684  -0.6190
    -0.3584   0.0578   0.1350   0.3828   0.4764   0.6824   1.1814   1.2147
     1.2320   1.3583   1.4259   1.5910   3.7981   4.1166   4.2643   5.0475
     5.1855   5.3754   5.4468   5.6267   5.9050   5.9296   5.9655   5.9881
     6.2333   6.5977   6.6597   6.8006   6.8477   6.9298   6.9866   7.1996
     7.3416   7.4765   7.5111   7.6246   7.6529   7.7014   7.8172   7.8999
     7.9415   8.0695   8.1962   8.2992   8.4381   8.4793   8.5662   8.6582
     8.7035   8.8260   8.8680   9.0512   9.0774   9.3177   9.3464   9.6062
     9.7992   9.9626   9.9893  10.1045  10.2542  10.6093  10.6787  10.7374
    10.7751  10.9316  11.0090  11.0774  11.1297  11.2605  11.3298  11.3401
    11.4354  11.4900  11.5347  11.6462  11.6558  11.7548  11.8278  11.9785
    12.0474  12.1229  12.1901  12.2492  12.2999  12.3830  12.4597  12.5228
    12.5771  12.6999  12.8283  12.8623  12.9030  12.9526  13.0275  13.0603
    13.1321  13.1525  13.2375  13.3938  13.4686  13.5567  13.6334  13.6484
    13.6950  13.7927  13.8223  13.9321  13.9777  14.0502  14.0950  14.1234
    14.2255  14.2760  14.3130  14.4062  14.5054  14.5936  14.6173  14.6566
    14.7299  14.7766  14.8068  14.9224  14.9983  15.0392  15.1458  15.1866
    15.2692  15.3801  15.4228  15.5267  15.6605  15.6999  15.7697  15.7843
    15.8415  15.8698  15.9522  16.0002  16.0221  16.1113  16.1463  16.1925
    16.2551  16.3294  16.3640  16.3741  16.4298  16.4696  16.4925  16.5054
    16.5363  16.5595  16.5880  16.6144  16.6800  16.6988  16.7248  16.7807
    16.8954  16.9745  16.9987  17.1328  17.1549  17.1878  17.2878  17.3113
    17.3517  17.4550  17.4958  17.5628  17.6633  17.7185  17.7596  17.8238
    17.8920  18.0033  18.0869  18.1411  18.1582  18.2237  18.2883  18.3400
    18.3743  18.4004  18.4225  18.5050  18.6182  18.6577  18.6911  18.8198
    18.8693  18.9133  18.9902  19.0201  19.0592  19.1447  19.1944  19.2654
    19.3111  19.3760  19.4222  19.4853  19.5610  19.6132  19.7071  19.8038
    19.9494  20.0505  20.0699  20.1406  20.2242  20.2730  20.3270  20.3957
    20.4541  20.4998  20.5674  20.6399  20.6999  20.7797  20.8429  20.8547
    20.9397  21.0094  21.1777  21.2153  21.2968  21.4011  21.4496  21.4759
    21.5388  21.6116  21.6571  21.8303  21.8365  21.9805  22.0062  22.1172
    22.1466

          k =-0.5000 0.0000 0.0000 ( 31984 PWs)   bands (ev):

   -56.3187 -56.2232 -56.1003 -55.9111 -55.9105 -55.8212 -55.8198 -55.7851
   -55.7848 -55.7697 -55.7435 -55.6654 -55.6636 -55.5788 -55.5370 -55.4982
   -55.4975 -55.4909 -55.4875 -55.4850 -55.4484 -55.1510 -54.8965 -54.5914
   -22.0626 -21.8745 -21.1161 -21.1109 -20.9482 -20.9293 -20.4812 -20.4414
   -20.4020 -20.3312 -20.2295 -20.2233 -20.1285 -20.1054 -20.0550 -20.0483
   -19.3233 -19.1576 -18.9133 -10.1697 -10.1281 -10.0424  -9.9705  -9.9122
    -9.8702  -9.3049  -9.2863  -9.0926  -9.0452  -8.9878  -8.9791  -8.8736
    -8.8297  -8.3746  -8.3645  -8.1095  -8.0957  -7.9641  -7.9386  -7.7083
    -7.6604  -7.6424  -7.5588  -7.5235  -7.3965  -7.3122  -7.2665  -7.0781
    -7.0551  -6.9662  -6.8968  -6.6181  -6.4727  -6.4382  -6.3633  -6.3027
    -6.2795  -6.1997  -6.0421  -5.9456  -5.7540  -5.6974  -5.5530  -5.5440
    -5.2252  -5.1770  -5.0567  -5.0129  -4.9282  -4.8884  -4.8133  -4.6193
    -4.5788  -4.5564  -4.3934  -4.2342  -4.1257  -4.0715  -3.8686  -3.6869
    -3.5997  -3.5811  -3.5208  -3.2315  -3.1810  -3.0923  -2.8859  -2.8096
    -2.7584  -2.7031  -2.6901  -2.5410  -2.4637  -2.4486  -2.2259  -2.1424
    -2.0881  -2.0510  -1.9405  -1.6722  -1.5281  -0.5135  -0.3133  -0.3004
    -0.1783  -0.0836   0.0581   0.1567   0.1577   0.2690   0.3087   0.4029
     0.4894   1.1955   1.3255   1.5603   3.6707   3.6749   4.1519   4.7767
     5.0152   5.2144   5.4702   5.6847   5.7250   5.7969   6.1746   6.3643
     6.3912   6.5741   6.6471   6.7391   6.9781   7.1194   7.4117   7.4285
     7.5211   7.6986   7.7283   7.9432   7.9540   8.0752   8.1870   8.3181
     8.3765   8.5743   8.6138   8.7190   8.7362   8.8649   8.9131   9.0001
     9.0350   9.1161   9.1678   9.1961   9.2683   9.3339   9.3795   9.4042
     9.4796   9.5752   9.6334   9.7321   9.8336   9.8592  10.1071  10.1448
    10.2926  10.3630  10.6359  10.6891  10.7718  10.7775  10.8163  10.8400
    11.1753  11.2044  11.2973  11.4378  11.5025  11.5157  11.5503  11.5633
    11.7597  11.7997  11.9058  11.9189  12.0100  12.1115  12.2633  12.4011
    12.4433  12.4844  12.5195  12.5382  12.7026  12.7278  12.8679  12.8793
    12.8998  12.9372  13.0057  13.0433  13.0966  13.1311  13.2745  13.3096
    13.5156  13.5877  13.6826  13.7673  13.8124  13.9180  14.0130  14.1219
    14.2149  14.2375  14.3286  14.4248  14.5537  14.5882  14.6746  14.7730
    15.0199  15.0383  15.1051  15.2821  15.4023  15.5286  15.5351  15.6195
    15.6559  15.6765  15.7774  15.7856  15.8586  15.9235  15.9804  16.0595
    16.1430  16.1526  16.1665  16.2153  16.2790  16.3107  16.3480  16.3632
    16.3723  16.3735  16.4243  16.4518  16.5085  16.5332  16.5366  16.5464
    16.5709  16.6662  16.6845  16.8220  16.8398  16.9371  17.0918  17.1371
    17.2023  17.2242  17.2545  17.3355  17.3814  17.5482  17.6140  17.6354
    17.7640  17.8012  17.8357  17.9139  17.9553  17.9989  18.0679  18.1740
    18.2122  18.3147  18.3388  18.4090  18.4411  18.4809  18.6055  18.6448
    18.7613  18.7870  18.8176  18.8320  18.8561  18.9720  19.0857  19.1089
    19.1562  19.2664  19.3104  19.3500  19.4208  19.4699  19.5428  19.5592
    19.5784  19.5936  19.6604  19.7569  19.8131  19.8365  19.9300  19.9595
    19.9884  20.0389  20.0929  20.1617  20.2448  20.2826  20.3308  20.3909
    20.4187  20.4396  20.5062  20.5261  20.5825  20.5989  20.6386  20.6736
    20.7383  20.7561  20.8485  20.8520  20.9413  21.1505  21.1659  21.2831
    21.3172  21.3676  21.4251  21.4359  21.6283  21.6730  21.7091  21.8112
    21.8431

          k =-0.5000 0.2488 0.0000 ( 32052 PWs)   bands (ev):

   -56.3187 -56.2232 -56.1003 -55.9111 -55.9105 -55.8212 -55.8198 -55.7851
   -55.7849 -55.7698 -55.7436 -55.6652 -55.6633 -55.5789 -55.5370 -55.4982
   -55.4975 -55.4902 -55.4875 -55.4857 -55.4486 -55.1509 -54.8965 -54.5914
   -22.0565 -21.8664 -21.0316 -21.0277 -20.8596 -20.8409 -20.5493 -20.5136
   -20.4222 -20.3822 -20.2773 -20.2594 -20.2056 -20.1441 -20.0814 -20.0707
   -19.3227 -19.1569 -18.9128 -10.0679  -9.9389  -9.7480  -9.7306  -9.7038
    -9.6562  -9.2956  -9.2752  -9.0411  -8.9813  -8.8957  -8.8733  -8.7829
    -8.7518  -8.4561  -8.4364  -8.1782  -8.1484  -8.0765  -8.0537  -7.9447
    -7.9335  -7.7275  -7.6746  -7.5606  -7.5019  -7.3156  -7.2664  -7.1123
    -7.0772  -6.8985  -6.8655  -6.7287  -6.5457  -6.5344  -6.4459  -6.3841
    -6.3444  -6.2922  -6.2157  -6.1182  -5.9926  -5.8607  -5.6517  -5.5664
    -5.5204  -5.4028  -5.1832  -5.0820  -4.9911  -4.8830  -4.7120  -4.4267
    -4.2058  -4.1440  -4.1011  -3.9588  -3.9430  -3.7869  -3.6780  -3.6304
    -3.6115  -3.5556  -3.4906  -3.4380  -3.3042  -3.1727  -3.0164  -2.8737
    -2.7967  -2.7383  -2.5854  -2.5636  -2.4229  -2.3868  -2.3074  -2.2112
    -2.1061  -2.0667  -2.0043  -1.6966  -1.5047  -0.6432  -0.6002  -0.4922
    -0.3315  -0.2316  -0.1738   0.1421   0.1767   0.4872   0.5769   0.8045
     0.8267   1.1464   1.3625   1.6241   3.9383   3.9530   4.2712   5.0181
     5.2361   5.4251   5.6333   5.6725   5.7320   5.9494   5.9682   6.0208
     6.2984   6.6349   6.6939   6.7424   6.7941   6.8987   7.0824   7.1766
     7.3109   7.5411   7.5704   7.6279   7.6766   7.7872   7.8618   7.9722
     8.0680   8.1687   8.1900   8.4076   8.4614   8.5500   8.5845   8.7493
     8.8244   9.0343   9.1827   9.2025   9.3377   9.4098   9.5403   9.5600
     9.6915   9.8942  10.0068  10.0277  10.3703  10.4615  10.5342  10.5648
    10.7748  10.7856  10.9341  10.9469  11.0185  11.0434  11.1532  11.2223
    11.3298  11.3951  11.5259  11.5688  11.6835  11.7719  11.8133  11.8625
    12.0646  12.0961  12.1544  12.2044  12.2715  12.3870  12.5039  12.5554
    12.6010  12.6652  12.7017  12.7541  12.8733  12.8781  12.9353  13.0077
    13.0884  13.1389  13.2318  13.2795  13.3110  13.3691  13.4028  13.5154
    13.5384  13.6263  13.7490  13.8707  13.9298  14.0179  14.0565  14.0728
    14.1686  14.2528  14.2787  14.3659  14.4413  14.4912  14.5424  14.5552
    14.6031  14.7312  14.7927  14.8852  14.9287  15.0052  15.1319  15.2352
    15.2833  15.3214  15.5539  15.6188  15.7016  15.7303  15.7606  15.8263
    15.8832  15.9194  15.9939  16.0409  16.0924  16.1524  16.2149  16.2522
    16.2898  16.3279  16.3314  16.3631  16.4293  16.4855  16.5006  16.5282
    16.5414  16.5701  16.5816  16.6395  16.6564  16.7099  16.8204  16.8607
    17.0019  17.0839  17.1139  17.1540  17.2422  17.2953  17.3429  17.3588
    17.3874  17.4691  17.5709  17.5989  17.6444  17.8087  17.8850  17.9454
    18.0239  18.0374  18.0967  18.1154  18.1784  18.2303  18.2541  18.3761
    18.4077  18.4758  18.5106  18.6070  18.6169  18.7415  18.7782  18.8536
    18.9010  18.9356  19.0335  19.0655  19.2213  19.2517  19.3029  19.3358
    19.3888  19.4832  19.5263  19.6163  19.6568  19.7230  19.8024  19.8482
    19.8839  19.9486  20.0030  20.1075  20.2724  20.3202  20.3449  20.4787
    20.5390  20.5904  20.6895  20.7597  20.8021  20.8878  20.9729  21.0252
    21.0534  21.0984  21.1350  21.2523  21.2835  21.4131  21.4872  21.5477
    21.6893  21.7131  21.7418  21.7921  21.8585  21.8935  21.9544  22.0236
    22.0759

          k =-0.5000-0.4976 0.0000 ( 31956 PWs)   bands (ev):

   -56.3187 -56.2232 -56.1002 -55.9110 -55.9104 -55.8211 -55.8197 -55.7851
   -55.7849 -55.7699 -55.7438 -55.6649 -55.6630 -55.5790 -55.5371 -55.4981
   -55.4975 -55.4890 -55.4877 -55.4867 -55.4487 -55.1509 -54.8964 -54.5914
   -22.0506 -21.8586 -20.8765 -20.8710 -20.7439 -20.7431 -20.6127 -20.5990
   -20.5541 -20.5504 -20.3198 -20.2935 -20.2640 -20.1747 -20.0952 -20.0803
   -19.3218 -19.1563 -18.9126 -10.0342  -9.8869  -9.3666  -9.3557  -9.3123
    -9.2023  -9.1941  -9.1399  -8.9493  -8.9407  -8.7697  -8.7026  -8.6625
    -8.6301  -8.6191  -8.5687  -8.5468  -8.4464  -8.4209  -8.3325  -8.0672
    -7.8867  -7.7245  -7.6957  -7.5199  -7.4442  -7.2986  -7.2875  -7.1923
    -7.1148  -7.0699  -7.0224  -7.0020  -6.8793  -6.8533  -6.7242  -6.5961
    -6.5654  -6.5361  -6.2376  -6.1062  -5.9206  -5.8625  -5.7132  -5.5342
    -5.4917  -5.2812  -5.1635  -5.0393  -4.9359  -4.8119  -4.6009  -4.3624
    -4.1051  -4.0496  -3.8895  -3.7704  -3.7110  -3.6496  -3.6257  -3.5985
    -3.5624  -3.4587  -3.4047  -3.3514  -3.3219  -3.2837  -3.2086  -2.8892
    -2.8025  -2.7975  -2.5602  -2.5467  -2.4146  -2.3280  -2.3135  -2.2840
    -2.1686  -2.1512  -2.0073  -1.7263  -1.4960  -0.9902  -0.8574  -0.8349
    -0.5308  -0.3295  -0.1350   0.2027   0.2221   0.7912   0.9091   0.9449
     1.0213   1.3424   1.3786   1.4756   4.3926   4.5069   4.5134   4.9153
     4.9381   5.6192   5.7740   5.8657   5.8871   6.0609   6.1284   6.1739
     6.3117   6.5042   6.5164   6.6090   6.6327   6.6401   6.6519   6.7484
     7.0640   7.1798   7.2897   7.3474   7.4605   7.5207   7.5692   7.5752
     7.8944   8.0338   8.2729   8.3263   8.3410   8.5355   8.5435   8.8563
     8.8667   8.9670   8.9957   9.2748   9.3105   9.3683   9.4105   9.5012
     9.6052   9.7480  10.1228  10.2175  10.3585  10.5907  10.6417  10.6579
    10.7689  10.8023  11.2157  11.2609  11.4367  11.5539  11.6704  11.7007
    11.8685  11.9243  11.9299  11.9792  12.1088  12.1695  12.3301  12.3628
    12.5361  12.6070  12.6320  12.7303  12.7975  12.8050  12.8721  12.8767
    13.0814  13.1098  13.1210  13.1373  13.2051  13.2641  13.2842  13.3102
    13.3292  13.3432  13.5256  13.5416  13.5708  13.5922  13.6368  13.6477
    13.6781  13.7311  13.7664  13.7997  13.8299  13.8355  13.8594  13.9104
    13.9599  13.9788  14.0231  14.0619  14.2838  14.3292  14.3859  14.4642
    14.5048  14.6287  14.6726  14.7079  14.7158  14.7728  14.8016  14.8260
    14.8919  14.8999  14.9529  14.9728  15.0219  15.0859  15.2309  15.2539
    15.2943  15.3305  15.4246  15.4411  15.5166  15.5695  15.6290  15.7389
    15.7640  15.7883  15.9231  16.1103  16.1797  16.3022  16.3162  16.3667
    16.3880  16.4419  16.4686  16.4956  16.5179  16.5279  16.5503  16.5709
    16.5821  16.6053  16.6430  16.6956  16.7845  17.0255  17.0974  17.1917
    17.2703  17.3604  17.4012  17.5391  17.6102  17.6718  17.7589  17.8073
    17.8839  17.9263  17.9663  17.9804  18.1463  18.2707  18.3785  18.4790
    18.5406  18.5908  18.6260  18.7768  18.8389  18.8952  18.9397  18.9781
    19.1216  19.1952  19.2614  19.3405  19.3726  19.5115  19.6125  19.6873
    19.7032  19.7715  19.8519  19.9350  19.9848  20.0360  20.1149  20.1848
    20.2614  20.3304  20.4379  20.4951  20.5127  20.5160  20.5680  20.6657
    20.6748  20.7258  20.7912  20.8256  20.8620  20.8845  21.0043  21.0373
    21.0580  21.1019  21.1457  21.1732  21.2441  21.2581  21.2954  21.2995
    21.3581  21.3999  21.4354  21.4980  21.5221  21.6266  21.6523  21.7110
    21.7351

          k =-0.2500 0.2488 0.0000 ( 32025 PWs)   bands (ev):

   -56.3187 -56.2232 -56.1002 -55.9301 -55.8908 -55.8388 -55.8016 -55.7862
   -55.7837 -55.7795 -55.7332 -55.6664 -55.6620 -55.5789 -55.5369 -55.5005
   -55.4951 -55.4911 -55.4877 -55.4847 -55.4485 -55.1502 -54.8964 -54.5914
   -22.1285 -21.8354 -21.2785 -21.1036 -20.7723 -20.6528 -20.6454 -20.4688
   -20.4454 -20.3734 -20.2999 -20.2534 -20.2261 -20.0837 -20.0227 -20.0179
   -19.3039 -19.0821 -18.9091 -10.3301 -10.0934 -10.0378  -9.8814  -9.5074
    -9.4503  -9.3878  -9.1985  -9.1561  -9.1202  -9.0296  -9.0101  -8.8557
    -8.6970  -8.6802  -8.6156  -8.4515  -8.4030  -8.1142  -7.9271  -7.8757
    -7.7728  -7.7325  -7.5830  -7.2432  -7.1474  -7.0760  -6.9929  -6.8907
    -6.8501  -6.7922  -6.7260  -6.5922  -6.5498  -6.5065  -6.4586  -6.2500
    -6.2284  -6.1318  -6.0267  -5.8710  -5.7930  -5.6853  -5.5747  -5.4092
    -5.3129  -5.1957  -5.0982  -5.0159  -4.9491  -4.8596  -4.7526  -4.5097
    -4.4635  -4.4080  -4.3731  -4.1889  -4.0803  -3.9464  -3.8748  -3.8189
    -3.7474  -3.7033  -3.6346  -3.5670  -3.5045  -3.4671  -3.2010  -3.1750
    -3.0223  -2.7657  -2.6487  -2.4984  -2.4337  -2.3526  -2.2776  -2.1604
    -2.0185  -1.8889  -1.7814  -1.6867  -1.5540  -1.1512  -1.0455  -0.6909
    -0.3686  -0.1846   0.0911   0.3676   0.6036   0.7521   0.7832   0.9274
     1.1141   1.3114   1.3445   1.7413   3.0566   3.8159   4.6023   5.0144
     5.0448   5.1207   5.3297   5.6528   6.0631   6.1583   6.1827   6.3131
     6.4431   6.5346   6.6783   6.8500   6.9560   7.0061   7.1059   7.2123
     7.3672   7.4776   7.5466   7.5875   7.6756   7.8638   7.9252   8.0177
     8.1421   8.2374   8.2929   8.4361   8.5479   8.6428   8.6681   8.7510
     8.8433   8.9830   9.1322   9.2916   9.3480   9.4630   9.5284   9.5876
     9.7024   9.8671  10.0024  10.1191  10.1986  10.2604  10.3203  10.3819
    10.5272  10.5826  10.6561  10.7756  10.8067  10.9463  11.0463  11.0782
    11.1746  11.2070  11.3592  11.4510  11.4807  11.7038  11.7220  11.7742
    11.8487  11.9426  11.9817  12.0592  12.1295  12.2128  12.2556  12.3247
    12.4025  12.4504  12.5085  12.5666  12.6336  12.7314  12.8170  12.8761
    12.9236  13.0194  13.1474  13.1666  13.2163  13.4108  13.4976  13.5370
    13.6145  13.6902  13.7562  13.8476  13.8922  13.9541  14.0225  14.1136
    14.1749  14.2685  14.4070  14.4761  14.5363  14.6238  14.7321  14.8045
    14.8619  14.9318  15.0619  15.2019  15.2342  15.3200  15.4003  15.4426
    15.5193  15.5721  15.6221  15.6623  15.7457  15.7579  15.8143  15.8439
    15.9054  15.9983  16.0461  16.0885  16.1469  16.1860  16.2365  16.3257
    16.3499  16.3561  16.4324  16.4893  16.5099  16.5249  16.5302  16.5726
    16.5989  16.7382  16.7968  16.8534  16.9050  16.9189  17.0142  17.0998
    17.1308  17.1841  17.2017  17.2346  17.2606  17.3321  17.4299  17.4646
    17.5033  17.5505  17.5844  17.6130  17.7260  17.7705  17.8845  17.9456
    18.0448  18.0819  18.1265  18.2132  18.2669  18.3693  18.4628  18.5049
    18.5871  18.6137  18.6912  18.7111  18.8061  18.8329  18.8950  19.0113
    19.0335  19.1455  19.1707  19.1996  19.3160  19.3577  19.4265  19.4430
    19.6362  19.7547  19.8203  19.8802  19.9384  19.9514  19.9829  20.0577
    20.1113  20.1996  20.2343  20.2953  20.3556  20.3661  20.4918  20.5685
    20.6431  20.6848  20.7565  20.8299  20.9132  20.9734  21.0143  21.0694
    21.0806  21.2266  21.2683  21.3756  21.4165  21.4695  21.5161  21.5578
    21.6073  21.6563  21.7255  21.7832  21.8242  21.8866  21.9847  22.0944
    22.1244

     the Fermi energy is    -1.7355 ev

!    total energy              =   -2280.55561191 Ry
     Harris-Foulkes estimate   =   -2280.55561278 Ry
     estimated scf accuracy    <       0.00000095 Ry

     The total energy is the sum of the following terms:

     one-electron contribution =  -23636.76990337 Ry
     hartree contribution      =   11858.79471127 Ry
     xc contribution           =    -572.02442972 Ry
     ewald contribution        =   10069.15257164 Ry
     Hubbard energy            =       0.29171337 Ry
     smearing contrib. (-TS)   =      -0.00027510 Ry

     convergence has been achieved in  32 iterations

     Forces acting on atoms (Ry/au):


     negative rho (up, down):  0.158E+01 0.000E+00
     atom    1 type  1   force =    -0.00870514   -0.00467686   -0.00010243
     atom    2 type  1   force =     0.00014280    0.00387869    0.00080519
     atom    3 type  2   force =     0.01449667    0.00697452   -0.00028687
     atom    4 type  2   force =     0.01091878    0.00456092   -0.00043686
     atom    5 type  1   force =     0.00113611   -0.00451620   -0.00059846
     atom    6 type  1   force =    -0.00027107   -0.00209483    0.00049770
     atom    7 type  1   force =     0.00011403   -0.00035917    0.00041509
     atom    8 type  1   force =    -0.00420714    0.00260717    0.00142491
     atom    9 type  2   force =     0.00529838   -0.00443402   -0.00115797
     atom   10 type  2   force =    -0.00001699   -0.01727735   -0.00248409
     atom   11 type  1   force =    -0.00520699    0.00179168   -0.00071750
     atom   12 type  1   force =    -0.00953886    0.01278728    0.00044413
     atom   13 type  1   force =    -0.00111308   -0.00797284    0.00072431
     atom   14 type  1   force =    -0.00914818   -0.00353882   -0.00027422
     atom   15 type  1   force =     0.00025405    0.00113497    0.00138700
     atom   16 type  2   force =    -0.01522092    0.00691299   -0.00043507
     atom   17 type  2   force =     0.01086451    0.00483462   -0.00051976
     atom   18 type  1   force =     0.00124751   -0.00447483   -0.00058534
     atom   19 type  1   force =     0.00015562   -0.00202454    0.00049878
     atom   20 type  1   force =     0.00008111   -0.00328644    0.00038360
     atom   21 type  1   force =    -0.00401308    0.00266452    0.00141600
     atom   22 type  2   force =    -0.00146832   -0.00431420   -0.00135750
     atom   23 type  2   force =    -0.00023575    0.01068019   -0.00479924
     atom   24 type  1   force =     0.00531762    0.00183662   -0.00072784
     atom   25 type  1   force =     0.00968641    0.01276103    0.00045401
     atom   26 type  1   force =    -0.00113083   -0.01486899    0.00095981
     atom   27 type  3   force =    -0.00000278   -0.00015729    0.00065636
     atom   28 type  3   force =    -0.00002123    0.00044817    0.00030623
     atom   29 type  3   force =     0.00019450   -0.00039972    0.00038630
     atom   30 type  3   force =     0.00036907   -0.00069601    0.00040921
     atom   31 type  1   force =     0.00002317    0.00121876    0.00331451

     Total force =     0.007654     Total SCF correction =     0.002117
     SCF correction compared to forces is large: reduce conv_thr to get better values

     BFGS Geometry Optimization

     number of scf cycles    =   1
     number of bfgs steps    =   0

     energy   new            =   -2280.5556119087 Ry

     new trust radius        =       0.0047992449 bohr
     new conv_thr            =       0.0000010000 Ry


ATOMIC_POSITIONS (crystal)
O0       0.000000000   0.000000000   0.377707954    0   0   1
O0       0.000000000   0.500000000   0.401646084    0   0   1
Pt1      0.250000000   0.500000000   0.451234270    0   0   1
Pt1      0.000000000   0.000000000   0.452701274    0   0   1
O0       0.250000000   0.810000000   0.443378045    0   0   1
O0       0.250000000   0.190000000   0.460089942    0   0   1
O0       0.000000000   0.500000000   0.496818292    0   0   1
O0       0.000000000   0.000000000   0.529728463    0   0   1
Pt1      0.250000000   0.000000000   0.576046869    0   0   1
Pt1      0.000000000   0.500000000   0.575300379    0   0   1
O0       0.250000000   0.690000000   0.566105667    0   0   1
O0       0.250000000   0.310000000   0.585778872    0   0   1
O0       0.000000000   0.000000000   0.621394469    0   0   1
O0       0.500000000   0.000000000   0.377784522    0   0   1
O0       0.500000000   0.500000000   0.400907706    0   0   1
Pt1      0.750000000   0.500000000   0.451241309    0   0   1
Pt1      0.500000000   0.000000000   0.452709618    0   0   1
O0       0.750000000   0.810000000   0.443418307    0   0   1
O0       0.750000000   0.190000000   0.460079963    0   0   1
O0       0.500000000   0.500000000   0.498227663    0   0   1
O0       0.500000000   0.000000000   0.529588285    0   0   1
Pt1      0.750000000   0.000000000   0.576052883    0   0   1
Pt1      0.500000000   0.500000000   0.577774132    0   0   1
O0       0.750000000   0.690000000   0.566095461    0   0   1
O0       0.750000000   0.310000000   0.585789069    0   0   1
O0       0.500000000   0.000000000   0.621369173    0   0   1
H2       0.000109772   0.639487178   0.385663111
H2       0.500178261   0.640056535   0.385336117
H2       0.142675933   0.036287414   0.367587717
H2       0.641950233   0.038633260   0.367588174
O0       0.500091898   0.572699355   0.644526209


     Check: negative starting charge=   -1.533958
     NEW-OLD atomic charge density approx. for the potential

     Check: negative/imaginary core charge=   -0.000003    0.000000
     Check: negative starting charge=   -1.533987

     negative rho (up, down):  0.158E+01 0.000E+00
 Atomic wfc used for LDA+U Projector are NOT orthogonalized

     total cpu time spent up to now is     7036.1 secs

     per-process dynamical memory:   464.7 Mb

     Self-consistent Calculation

     iteration #  1     ecut=    40.00 Ry     beta=0.70
     Davidson diagonalization with overlap
     ethr =  1.00E-06,  avg # of iterations =  3.0
 --- enter write_ns ---
 LDA+U parameters:
U( 2)     =  1.00000000
alpha( 2) =  0.00000000
atom    3   Tr[ns(na)] =   8.66357
    eigenvalues: 
  0.684  0.697  0.982  0.983  0.986
    eigenvectors:
  0.046  0.130  0.466  0.339  0.018
  0.746  0.254  0.000  0.000  0.000
  0.000  0.003  0.006  0.121  0.870
  0.207  0.613  0.103  0.062  0.015
  0.000  0.000  0.426  0.478  0.097
    occupations:
  0.931  0.004  0.007 -0.110 -0.000
  0.004  0.688  0.002  0.005 -0.004
  0.007  0.002  0.984  0.016  0.001
 -0.110  0.005  0.016  0.746  0.001
 -0.000 -0.004  0.001  0.001  0.983
atom    4   Tr[ns(na)] =   8.65211
    eigenvalues: 
  0.683  0.702  0.977  0.981  0.983
    eigenvectors:
  0.000  0.987  0.005  0.003  0.005
  0.008  0.000  0.099  0.883  0.010
  0.000  0.004  0.853  0.079  0.063
  0.000  0.009  0.041  0.028  0.922
  0.992  0.000  0.001  0.007  0.000
    occupations:
  0.706 -0.005 -0.018  0.026 -0.001
 -0.005  0.978  0.001  0.000  0.026
 -0.018  0.001  0.977  0.003  0.000
  0.026  0.000  0.003  0.980  0.000
 -0.001  0.026  0.000  0.000  0.685
atom    9   Tr[ns(na)] =   8.61944
    eigenvalues: 
  0.704  0.716  0.949  0.956  0.983
    eigenvectors:
  0.002  0.134  0.001  0.010  0.853
  0.983  0.016  0.000  0.000  0.000
  0.000  0.010  0.006  0.980  0.004
  0.014  0.839  0.000  0.005  0.142
  0.000  0.000  0.993  0.005  0.002
    occupations:
  0.947  0.001 -0.008 -0.091  0.001
  0.001  0.704  0.001  0.001 -0.004
 -0.008  0.001  0.954 -0.023  0.001
 -0.091  0.001 -0.023  0.755 -0.000
  0.001 -0.004  0.001 -0.000  0.949
atom   10   Tr[ns(na)] =   8.70015
    eigenvalues: 
  0.662  0.752  0.973  0.980  0.985
    eigenvectors:
  0.000  0.981  0.000  0.006  0.013
  0.010  0.000  0.990  0.000  0.000
  0.000  0.001  0.000  0.414  0.585
  0.000  0.018  0.000  0.580  0.402
  0.990  0.000  0.010  0.000  0.000
    occupations:
  0.756  0.000 -0.008  0.030  0.000
  0.000  0.969  0.000 -0.000 -0.031
 -0.008  0.000  0.982 -0.001 -0.000
  0.030 -0.000 -0.001  0.978 -0.000
  0.000 -0.031 -0.000 -0.000  0.665
atom   16   Tr[ns(na)] =   8.66368
    eigenvalues: 
  0.684  0.697  0.982  0.983  0.986
    eigenvectors:
  0.047  0.130  0.474  0.329  0.020
  0.745  0.254  0.000  0.000  0.000
  0.000  0.003  0.004  0.118  0.875
  0.207  0.613  0.104  0.060  0.016
  0.000  0.000  0.418  0.492  0.090
    occupations:
  0.931 -0.004  0.007 -0.110  0.001
 -0.004  0.688 -0.002 -0.005 -0.004
  0.007 -0.002  0.985  0.016 -0.001
 -0.110 -0.005  0.016  0.746 -0.001
  0.001 -0.004 -0.001 -0.001  0.983
atom   17   Tr[ns(na)] =   8.64902
    eigenvalues: 
  0.684  0.703  0.973  0.981  0.983
    eigenvectors:
  0.000  0.987  0.005  0.001  0.007
  0.008  0.000  0.039  0.949  0.005
  0.000  0.004  0.943  0.034  0.019
  0.000  0.009  0.013  0.008  0.970
  0.992  0.000  0.000  0.007  0.000
    occupations:
  0.707 -0.005 -0.018  0.026 -0.001
 -0.005  0.978  0.001  0.000  0.026
 -0.018  0.001  0.973  0.003  0.000
  0.026  0.000  0.003  0.981  0.000
 -0.001  0.026  0.000  0.000  0.686
atom   22   Tr[ns(na)] =   8.61961
    eigenvalues: 
  0.704  0.716  0.949  0.956  0.983
    eigenvectors:
  0.000  0.136  0.001  0.010  0.852
  0.996  0.004  0.000  0.000  0.000
  0.000  0.010  0.010  0.975  0.004
  0.003  0.850  0.000  0.005  0.142
  0.000  0.000  0.988  0.010  0.002
    occupations:
  0.947  0.000 -0.007 -0.091 -0.001
  0.000  0.704 -0.001 -0.001 -0.004
 -0.007 -0.001  0.954 -0.023 -0.001
 -0.091 -0.001 -0.023  0.755  0.001
 -0.001 -0.004 -0.001  0.001  0.949
atom   23   Tr[ns(na)] =   8.59803
    eigenvalues: 
[...]
    15.6544  15.6760  15.7772  15.7856  15.8664  15.9237  15.9816  16.0608
    16.1438  16.1540  16.1679  16.2171  16.2792  16.3113  16.3481  16.3633
    16.3727  16.3742  16.4248  16.4528  16.5074  16.5309  16.5327  16.5456
    16.5697  16.6674  16.6858  16.8232  16.8411  16.9364  17.0920  17.1351
    17.2030  17.2247  17.2541  17.3300  17.3733  17.5482  17.6134  17.6345
    17.7639  17.8007  17.8348  17.9131  17.9557  17.9989  18.0685  18.1728
    18.2115  18.3137  18.3369  18.4091  18.4422  18.4794  18.6054  18.6445
    18.7604  18.7856  18.8184  18.8312  18.8556  18.9727  19.0864  19.1081
    19.1562  19.2651  19.3101  19.3490  19.4199  19.4705  19.5417  19.5589
    19.5781  19.5929  19.6590  19.7574  19.8134  19.8366  19.9301  19.9611
    19.9891  20.0390  20.0933  20.1625  20.2457  20.2831  20.3302  20.3899
    20.4180  20.4397  20.5071  20.5269  20.5827  20.5989  20.6392  20.6734
    20.7392  20.7566  20.8493  20.8525  20.9424  21.1532  21.1684  21.2842
    21.3176  21.3674  21.4242  21.4358  21.6282  21.6727  21.7088  21.8101
    21.8424

          k =-0.5000 0.2488 0.0000 ( 32052 PWs)   bands (ev):

   -56.3033 -56.2150 -56.0919 -55.9114 -55.9108 -55.8277 -55.8263 -55.7856
   -55.7853 -55.7710 -55.7455 -55.6711 -55.6692 -55.5798 -55.5385 -55.4981
   -55.4974 -55.4937 -55.4927 -55.4879 -55.4489 -55.1625 -54.9093 -54.6089
   -22.0682 -21.8781 -21.0342 -21.0316 -20.8607 -20.8423 -20.5599 -20.5171
   -20.4277 -20.3868 -20.2824 -20.2631 -20.2085 -20.1489 -20.0841 -20.0739
   -19.3185 -19.1539 -18.8855 -10.0802  -9.9504  -9.7516  -9.7351  -9.7020
    -9.6558  -9.2933  -9.2732  -9.0509  -8.9939  -8.9001  -8.8779  -8.7876
    -8.7540  -8.4597  -8.4393  -8.1840  -8.1532  -8.0811  -8.0563  -7.9487
    -7.9376  -7.7306  -7.6798  -7.5668  -7.5056  -7.3165  -7.2690  -7.1112
    -7.0760  -6.8981  -6.8667  -6.7269  -6.5464  -6.5360  -6.4487  -6.3868
    -6.3463  -6.2951  -6.2169  -6.1185  -5.9944  -5.8615  -5.6595  -5.5672
    -5.5232  -5.4042  -5.1860  -5.0821  -4.9917  -4.8839  -4.7179  -4.4293
    -4.2040  -4.1436  -4.1016  -3.9621  -3.9462  -3.7924  -3.6833  -3.6339
    -3.6138  -3.5586  -3.4926  -3.4378  -3.3050  -3.1754  -3.0195  -2.8766
    -2.8013  -2.7411  -2.5891  -2.5677  -2.4274  -2.3917  -2.3100  -2.2137
    -2.1091  -2.0674  -2.0066  -1.6978  -1.5026  -0.6423  -0.6037  -0.4952
    -0.3364  -0.2360  -0.1749   0.1398   0.1746   0.4846   0.5742   0.8000
     0.8261   1.1409   1.3562   1.6184   3.9346   3.9486   4.2712   5.0163
     5.2345   5.4241   5.6306   5.6708   5.7297   5.9491   5.9689   6.0222
     6.2980   6.6307   6.6936   6.7406   6.7939   6.8978   7.0807   7.1754
     7.3087   7.5403   7.5697   7.6269   7.6765   7.7863   7.8615   7.9704
     8.0649   8.1671   8.1880   8.4070   8.4598   8.5476   8.5834   8.7463
     8.8218   9.0304   9.1816   9.2008   9.3364   9.4093   9.5391   9.5568
     9.6911   9.8941  10.0058  10.0261  10.3702  10.4617  10.5326  10.5632
    10.7742  10.7853  10.9331  10.9463  11.0178  11.0425  11.1527  11.2224
    11.3297  11.3949  11.5253  11.5676  11.6833  11.7715  11.8119  11.8616
    12.0640  12.0953  12.1541  12.2030  12.2709  12.3857  12.5024  12.5551
    12.5991  12.6643  12.7019  12.7544  12.8727  12.8780  12.9350  13.0069
    13.0880  13.1383  13.2320  13.2792  13.3111  13.3688  13.4023  13.5157
    13.5385  13.6256  13.7495  13.8704  13.9304  14.0183  14.0562  14.0723
    14.1675  14.2523  14.2782  14.3653  14.4407  14.4912  14.5426  14.5551
    14.6050  14.7316  14.7925  14.8865  14.9297  15.0073  15.1333  15.2361
    15.2834  15.3222  15.5548  15.6192  15.7019  15.7315  15.7618  15.8314
    15.8853  15.9191  15.9947  16.0416  16.0936  16.1523  16.2152  16.2521
    16.2897  16.3278  16.3314  16.3634  16.4294  16.4845  16.4988  16.5264
    16.5405  16.5690  16.5807  16.6406  16.6557  16.7102  16.8208  16.8616
    17.0022  17.0835  17.1144  17.1547  17.2423  17.2937  17.3350  17.3553
    17.3874  17.4691  17.5718  17.5991  17.6430  17.8092  17.8833  17.9448
    18.0238  18.0368  18.0967  18.1151  18.1789  18.2303  18.2540  18.3759
    18.4075  18.4748  18.5117  18.6068  18.6159  18.7419  18.7785  18.8539
    18.9001  18.9355  19.0335  19.0659  19.2216  19.2525  19.3039  19.3366
    19.3891  19.4826  19.5262  19.6157  19.6564  19.7222  19.8023  19.8472
    19.8839  19.9474  20.0021  20.1077  20.2717  20.3182  20.3455  20.4780
    20.5378  20.5906  20.6891  20.7588  20.8007  20.8865  20.9715  21.0231
    21.0536  21.0977  21.1352  21.2506  21.2823  21.4127  21.4861  21.5471
    21.6889  21.7135  21.7420  21.7909  21.8567  21.8933  21.9531  22.0224
    22.0753

          k =-0.5000-0.4976 0.0000 ( 31956 PWs)   bands (ev):

   -56.3032 -56.2150 -56.0918 -55.9114 -55.9107 -55.8277 -55.8262 -55.7856
   -55.7853 -55.7711 -55.7456 -55.6708 -55.6689 -55.5798 -55.5385 -55.4980
   -55.4974 -55.4933 -55.4923 -55.4887 -55.4490 -55.1625 -54.9093 -54.6089
   -22.0624 -21.8704 -20.8793 -20.8743 -20.7510 -20.7455 -20.6152 -20.6011
   -20.5571 -20.5538 -20.3293 -20.2960 -20.2676 -20.1816 -20.0982 -20.0837
   -19.3177 -19.1534 -18.8853 -10.0473  -9.9002  -9.3676  -9.3571  -9.3113
    -9.2032  -9.1949  -9.1465  -8.9552  -8.9534  -8.7698  -8.7078  -8.6653
    -8.6343  -8.6236  -8.5693  -8.5496  -8.4494  -8.4230  -8.3335  -8.0727
    -7.8983  -7.7292  -7.7005  -7.5235  -7.4491  -7.3033  -7.2892  -7.1858
    -7.1164  -7.0686  -7.0239  -7.0049  -6.8802  -6.8542  -6.7211  -6.5960
    -6.5713  -6.5384  -6.2454  -6.1036  -5.9210  -5.8589  -5.7161  -5.5401
    -5.4932  -5.2840  -5.1675  -5.0401  -4.9379  -4.8118  -4.6051  -4.3641
    -4.1057  -4.0500  -3.8857  -3.7758  -3.7131  -3.6520  -3.6292  -3.6017
    -3.5665  -3.4568  -3.4124  -3.3552  -3.3235  -3.2862  -3.2134  -2.8881
    -2.8070  -2.8001  -2.5636  -2.5512  -2.4188  -2.3325  -2.3171  -2.2878
    -2.1716  -2.1542  -2.0083  -1.7274  -1.4946  -0.9872  -0.8607  -0.8376
    -0.5362  -0.3336  -0.1360   0.2008   0.2214   0.7854   0.9078   0.9412
     1.0170   1.3374   1.3736   1.4700   4.3912   4.5013   4.5110   4.9125
     4.9349   5.6174   5.7710   5.8615   5.8852   6.0595   6.1286   6.1737
     6.3104   6.5036   6.5165   6.6090   6.6336   6.6415   6.6528   6.7489
     7.0635   7.1793   7.2894   7.3444   7.4593   7.5207   7.5681   7.5756
     7.8917   8.0296   8.2709   8.3255   8.3398   8.5329   8.5418   8.8547
     8.8651   8.9652   8.9944   9.2694   9.3056   9.3651   9.4085   9.4993
     9.6047   9.7466  10.1235  10.2158  10.3565  10.5876  10.6404  10.6583
    10.7681  10.8011  11.2123  11.2583  11.4355  11.5510  11.6696  11.6998
    11.8671  11.9226  11.9294  11.9782  12.1067  12.1689  12.3296  12.3619
    12.5368  12.6053  12.6312  12.7300  12.7952  12.8028  12.8711  12.8763
    13.0816  13.1104  13.1204  13.1370  13.2052  13.2650  13.2839  13.3101
    13.3297  13.3443  13.5265  13.5411  13.5718  13.5931  13.6378  13.6486
    13.6789  13.7307  13.7671  13.7998  13.8313  13.8356  13.8605  13.9118
    13.9612  13.9798  14.0231  14.0623  14.2846  14.3295  14.3868  14.4654
    14.5043  14.6278  14.6732  14.7090  14.7172  14.7736  14.8021  14.8271
    14.8929  14.9005  14.9531  14.9732  15.0218  15.0866  15.2321  15.2545
    15.2939  15.3317  15.4256  15.4417  15.5172  15.5697  15.6287  15.7403
    15.7648  15.7905  15.9301  16.1119  16.1817  16.3022  16.3164  16.3664
    16.3883  16.4418  16.4701  16.4923  16.5171  16.5274  16.5494  16.5699
    16.5825  16.6060  16.6431  16.6955  16.7844  17.0268  17.0978  17.1912
    17.2693  17.3471  17.4012  17.5384  17.6116  17.6721  17.7592  17.8080
    17.8841  17.9249  17.9675  17.9805  18.1480  18.2702  18.3771  18.4799
    18.5406  18.5904  18.6269  18.7748  18.8388  18.8946  18.9386  18.9767
    19.1216  19.1929  19.2624  19.3395  19.3710  19.5096  19.6108  19.6873
    19.7041  19.7697  19.8509  19.9328  19.9828  20.0344  20.1137  20.1833
    20.2602  20.3299  20.4363  20.4946  20.5111  20.5148  20.5680  20.6659
    20.6751  20.7242  20.7931  20.8258  20.8617  20.8840  21.0023  21.0385
    21.0586  21.1028  21.1460  21.1728  21.2430  21.2571  21.2935  21.2983
    21.3582  21.3999  21.4358  21.4978  21.5225  21.6259  21.6508  21.7100
    21.7335

          k =-0.2500 0.2488 0.0000 ( 32025 PWs)   bands (ev):

   -56.3032 -56.2150 -56.0919 -55.9305 -55.8911 -55.8454 -55.8080 -55.7867
   -55.7841 -55.7809 -55.7349 -55.6723 -55.6679 -55.5798 -55.5384 -55.5004
   -55.4956 -55.4950 -55.4907 -55.4881 -55.4488 -55.1619 -54.9093 -54.6088
   -22.1405 -21.8470 -21.2813 -21.1050 -20.7764 -20.6536 -20.6490 -20.4797
   -20.4504 -20.3784 -20.3037 -20.2576 -20.2305 -20.0878 -20.0258 -20.0205
   -19.2998 -19.0784 -18.8823 -10.3423 -10.0987 -10.0369  -9.8919  -9.5069
    -9.4529  -9.3885  -9.2029  -9.1628  -9.1256  -9.0308  -9.0129  -8.8592
    -8.7007  -8.6846  -8.6215  -8.4628  -8.4109  -8.1159  -7.9300  -7.8794
    -7.7754  -7.7318  -7.5837  -7.2411  -7.1513  -7.0774  -6.9974  -6.8915
    -6.8535  -6.7931  -6.7291  -6.5924  -6.5507  -6.5076  -6.4613  -6.2527
    -6.2307  -6.1337  -6.0280  -5.8708  -5.7949  -5.6899  -5.5761  -5.4136
    -5.3146  -5.1981  -5.0986  -5.0175  -4.9499  -4.8616  -4.7538  -4.5120
    -4.4655  -4.4089  -4.3750  -4.1942  -4.0835  -3.9504  -3.8767  -3.8221
    -3.7495  -3.7062  -3.6363  -3.5697  -3.5073  -3.4696  -3.2048  -3.1767
    -3.0261  -2.7700  -2.6528  -2.5006  -2.4364  -2.3559  -2.2820  -2.1654
    -2.0200  -1.8915  -1.7828  -1.6876  -1.5540  -1.1537  -1.0458  -0.6944
    -0.3673  -0.1882   0.0888   0.3661   0.5991   0.7484   0.7785   0.9221
     1.1114   1.3047   1.3444   1.7362   3.0524   3.8150   4.6013   5.0127
     5.0413   5.1176   5.3307   5.6532   6.0607   6.1577   6.1807   6.3101
     6.4408   6.5332   6.6770   6.8495   6.9559   7.0065   7.1040   7.2098
     7.3646   7.4763   7.5449   7.5862   7.6734   7.8626   7.9226   8.0157
     8.1398   8.2337   8.2912   8.4354   8.5460   8.6428   8.6682   8.7497
     8.8419   8.9810   9.1315   9.2908   9.3481   9.4617   9.5271   9.5856
     9.6998   9.8661  10.0031  10.1179  10.1980  10.2605  10.3204  10.3816
    10.5267  10.5827  10.6571  10.7756  10.8075  10.9457  11.0449  11.0772
    11.1737  11.2065  11.3585  11.4499  11.4806  11.7030  11.7224  11.7737
    11.8477  11.9436  11.9811  12.0594  12.1299  12.2113  12.2555  12.3248
    12.4020  12.4505  12.5095  12.5656  12.6341  12.7318  12.8165  12.8747
    12.9229  13.0192  13.1480  13.1673  13.2161  13.4105  13.4962  13.5358
    13.6136  13.6895  13.7560  13.8474  13.8913  13.9528  14.0205  14.1138
    14.1740  14.2685  14.4076  14.4753  14.5355  14.6232  14.7316  14.8049
    14.8624  14.9314  15.0617  15.2012  15.2340  15.3207  15.4004  15.4424
    15.5196  15.5721  15.6225  15.6624  15.7470  15.7590  15.8150  15.8485
    15.9093  15.9989  16.0463  16.0889  16.1481  16.1871  16.2371  16.3259
    16.3498  16.3562  16.4331  16.4894  16.5060  16.5221  16.5282  16.5717
    16.5986  16.7380  16.7974  16.8535  16.9050  16.9181  17.0144  17.0987
    17.1312  17.1850  17.2016  17.2327  17.2586  17.3278  17.4251  17.4638
    17.5031  17.5503  17.5845  17.6132  17.7260  17.7714  17.8843  17.9455
    18.0447  18.0816  18.1267  18.2133  18.2667  18.3691  18.4636  18.5057
    18.5873  18.6147  18.6920  18.7107  18.8059  18.8331  18.8950  19.0115
    19.0328  19.1453  19.1698  19.1999  19.3147  19.3571  19.4259  19.4425
    19.6354  19.7541  19.8194  19.8791  19.9373  19.9504  19.9811  20.0568
    20.1095  20.2001  20.2338  20.2953  20.3561  20.3661  20.4904  20.5677
    20.6413  20.6844  20.7550  20.8292  20.9122  20.9727  21.0146  21.0697
    21.0804  21.2257  21.2677  21.3748  21.4169  21.4699  21.5161  21.5574
    21.6067  21.6559  21.7246  21.7826  21.8233  21.8860  21.9832  22.0932
    22.1234

     the Fermi energy is    -1.7367 ev

!    total energy              =   -2280.55566986 Ry
     Harris-Foulkes estimate   =   -2280.55566986 Ry
     estimated scf accuracy    <          1.8E-09 Ry

     The total energy is the sum of the following terms:

     one-electron contribution =  -23640.44329096 Ry
     hartree contribution      =   11860.60461398 Ry
     xc contribution           =    -572.02392588 Ry
     ewald contribution        =   10071.01555349 Ry
     Hubbard energy            =       0.29164525 Ry
     smearing contrib. (-TS)   =      -0.00026574 Ry

     convergence has been achieved in  15 iterations

     Forces acting on atoms (Ry/au):


     negative rho (up, down):  0.158E+01 0.000E+00
     atom    1 type  1   force =    -0.00862072   -0.00463504    0.00003362
     atom    2 type  1   force =     0.00015815    0.00368842    0.00023914
     atom    3 type  2   force =     0.01468407    0.00690484    0.00017416
     atom    4 type  2   force =     0.01082711    0.00458071    0.00009651
     atom    5 type  1   force =     0.00118366   -0.00450323   -0.00046528
     atom    6 type  1   force =    -0.00022662   -0.00218715    0.00044917
     atom    7 type  1   force =     0.00008887   -0.00038141   -0.00037693
     atom    8 type  1   force =    -0.00415436    0.00260246   -0.00017708
     atom    9 type  2   force =     0.00528849   -0.00432045    0.00036387
     atom   10 type  2   force =    -0.00001956   -0.01786093   -0.00044151
     atom   11 type  1   force =    -0.00489217    0.00194291   -0.00090605
     atom   12 type  1   force =    -0.00969090    0.01295394    0.00003729
     atom   13 type  1   force =    -0.00112979   -0.00805582    0.00006083
     atom   14 type  1   force =    -0.00889877   -0.00348152    0.00002243
     atom   15 type  1   force =     0.00022641    0.00174046    0.00026320
     atom   16 type  2   force =    -0.01540687    0.00681989    0.00021453
     atom   17 type  2   force =     0.01073342    0.00481191    0.00009849
     atom   18 type  1   force =     0.00119689   -0.00445057   -0.00047598
     atom   19 type  1   force =     0.00011022   -0.00210414    0.00044491
     atom   20 type  1   force =     0.00009402   -0.00324218   -0.00007330
     atom   21 type  1   force =    -0.00402664    0.00268127   -0.00011203
     atom   22 type  2   force =    -0.00149712   -0.00419126    0.00042109
     atom   23 type  2   force =    -0.00023380    0.01171750    0.00035050
     atom   24 type  1   force =     0.00499716    0.00196880   -0.00093042
     atom   25 type  1   force =     0.00983862    0.01291397    0.00002764
     atom   26 type  1   force =    -0.00109905   -0.01506069    0.00011156
     atom   27 type  3   force =    -0.00000052    0.00009530    0.00044371
     atom   28 type  3   force =    -0.00002649   -0.00009583    0.00052499
     atom   29 type  3   force =     0.00019060   -0.00037831    0.00021290
     atom   30 type  3   force =     0.00029112   -0.00068572    0.00022676
     atom   31 type  1   force =     0.00001458    0.00021186   -0.00085873

     Total force =     0.002386     Total SCF correction =     0.000190

     bfgs converged in   4 scf cycles and   3 bfgs steps
     (criteria: energy < 0.10E-03, force < 0.10E-02)

     End of BFGS Geometry Optimization

     Final energy   =   -2280.5556698599 Ry
Begin final coordinates

ATOMIC_POSITIONS (crystal)
O0       0.000000000   0.000000000   0.377698355    0   0   1
O0       0.000000000   0.500000000   0.401686209    0   0   1
Pt1      0.250000000   0.500000000   0.451242422    0   0   1
Pt1      0.000000000   0.000000000   0.452703937    0   0   1
O0       0.250000000   0.810000000   0.443337779    0   0   1
O0       0.250000000   0.190000000   0.460125004    0   0   1
O0       0.000000000   0.500000000   0.496807402    0   0   1
O0       0.000000000   0.000000000   0.529753683    0   0   1
Pt1      0.250000000   0.000000000   0.576060436    0   0   1
Pt1      0.000000000   0.500000000   0.575182422    0   0   1
O0       0.250000000   0.690000000   0.566039029    0   0   1
O0       0.250000000   0.310000000   0.585792089    0   0   1
O0       0.000000000   0.000000000   0.621398183    0   0   1
O0       0.500000000   0.000000000   0.377768680    0   0   1
O0       0.500000000   0.500000000   0.400959377    0   0   1
Pt1      0.750000000   0.500000000   0.451245416    0   0   1
Pt1      0.500000000   0.000000000   0.452709216    0   0   1
O0       0.750000000   0.810000000   0.443378282    0   0   1
O0       0.750000000   0.190000000   0.460114827    0   0   1
O0       0.500000000   0.500000000   0.498212418    0   0   1
O0       0.500000000   0.000000000   0.529611328    0   0   1
Pt1      0.750000000   0.000000000   0.576061403    0   0   1
Pt1      0.500000000   0.500000000   0.577761676    0   0   1
O0       0.750000000   0.690000000   0.566027369    0   0   1
O0       0.750000000   0.310000000   0.585802397    0   0   1
O0       0.500000000   0.000000000   0.621390458    0   0   1
H2       0.000109487   0.639468270   0.385704811
H2       0.500171246   0.640024838   0.385376413
H2       0.142743463   0.036175116   0.367610537
H2       0.642060839   0.038432781   0.367612296
O0       0.500097420   0.572778238   0.644496149
End final coordinates



     init_run     :    109.26s CPU    110.92s WALL (       1 calls)
     electrons    :  13775.80s CPU  14086.11s WALL (       4 calls)
     update_pot   :     63.86s CPU     65.55s WALL (       3 calls)
     forces       :    516.04s CPU    524.73s WALL (       4 calls)

     Called by init_run:
     wfcinit      :     38.79s CPU     39.51s WALL (       1 calls)
     potinit      :      7.60s CPU      7.71s WALL (       1 calls)

     Called by electrons:
     c_bands      :   7774.51s CPU   7958.69s WALL (      72 calls)
     sum_band     :   2622.92s CPU   2672.06s WALL (      72 calls)
     v_of_rho     :     83.78s CPU     92.67s WALL (      73 calls)
     newd         :   3440.54s CPU   3454.51s WALL (      73 calls)
     mix_rho      :     14.60s CPU     14.84s WALL (      72 calls)

     Called by c_bands:
     init_us_2    :     18.57s CPU     18.73s WALL (     471 calls)
     cegterg      :   7677.26s CPU   7833.12s WALL (     216 calls)

     Called by *egterg:
     h_psi        :   4317.20s CPU   4390.96s WALL (     654 calls)
     s_psi        :    434.78s CPU    440.24s WALL (     678 calls)
     g_psi        :      9.52s CPU      9.53s WALL (     435 calls)
     cdiaghg      :    793.90s CPU    797.76s WALL (     633 calls)

     Called by h_psi:
     add_vuspsi   :    421.91s CPU    427.60s WALL (     654 calls)
     vhpsi        :    469.05s CPU    472.42s WALL (     654 calls)

     General routines
     calbec       :   1024.55s CPU   1032.63s WALL (    5136 calls)
     fft          :     96.18s CPU    111.51s WALL (    1211 calls)
     ffts         :      1.27s CPU      1.31s WALL (     145 calls)
     fftw         :   2402.70s CPU   2477.99s WALL (  423084 calls)
     interpolate  :     12.27s CPU     12.44s WALL (     145 calls)
     davcio       :      0.04s CPU      7.98s WALL (     483 calls)

     Parallel routines
     fft_scatter  :    841.17s CPU    926.67s WALL (  424440 calls)
     Hubbard U routines
     new_ns       :     94.53s CPU     99.57s WALL (      72 calls)
     vhpsi        :    469.05s CPU    472.42s WALL (     654 calls)
     force_hub    :    148.06s CPU    151.47s WALL (       4 calls)

     PWSCF        :     4h 3m CPU        4h 9m WALL


   This run was terminated on:   6:13: 7  28Apr2014            

=------------------------------------------------------------------------------=
   JOB DONE.
=------------------------------------------------------------------------------=
---------------------------------------
Running PBS batch system epilogue script
Job id: 340469.audhumbla.fysik.dtu.dk
Username: zhonxu
Groupname: campgst
Jobname: PtO2/Eads-2-layers/O-U-1.0
Sessionid: 26742
Resources limits: neednodes=2:ppn=8:xeon8,nodes=2:ppn=8:xeon8,walltime=48:00:00
Resources used: cput=66:25:33,mem=18755676kb,vmem=22496240kb,walltime=04:09:19
Queuename: verylong
Accounting:
This job has allocated the following 16 nodes:
b081 b081 b081 b081 b081 b081 b081 b081 b065 b065 b065 b065 b065 b065 b065 b065
Finished epilogue job 340469.audhumbla.fysik.dtu.dk for zhonxu
