
     Program PWSCF v.5.0.2 (svn rev. 9656) starts on 16Apr2014 at 15:12:47 

     This program is part of the open-source Quantum ESPRESSO suite
     for quantum simulation of materials; please cite
         "P. Giannozzi et al., J. Phys.:Condens. Matter 21 395502 (2009);
          URL http://www.quantum-espresso.org", 
     in publications or presentations arising from this work. More details at
     http://www.quantum-espresso.org/quote.php

     Parallel version (MPI), running on    16 processors
     R & G space division:  proc/nbgrp/npool/nimage =      16

     Current dimensions of program PWSCF are:
     Max number of different atomic species (ntypx) = 10
     Max number of k-points (npk) =  40000
     Max angular momentum in pseudopotentials (lmaxx) =  3
     Reading input from pwscf.in
Warning: card &CELL ignored
Warning: card / ignored

     Subspace diagonalization in iterative solution of the eigenvalue problem:
     a serial algorithm will be used


     Parallelization info
     --------------------
     sticks:   dense  smooth     PW     G-vecs:    dense   smooth      PW
     Min         346     110     31                82658    14945    2221
     Max         347     111     32                82677    14980    2230
     Sum        5547    1771    497              1322643   239441   35575



     bravais-lattice index     =            0
     lattice parameter (alat)  =      11.2250  a.u.
     unit-cell volume          =    7005.5484 (a.u.)^3
     number of atoms/cell      =           31
     number of atomic types    =            3
     number of electrons       =       214.00
     number of Kohn-Sham states=          309
     kinetic-energy cutoff     =      40.0000  Ry
     charge density cutoff     =     500.0000  Ry
     convergence threshold     =      1.0E-06
     mixing beta               =       0.3000
     number of iterations used =            8  plain     mixing
     Exchange-correlation      = SLA  PW   PBE  PBE ( 1 4 3 4 0)
     EXX-fraction              =        0.00
     nstep                     =           50


     celldm(1)=  11.224973  celldm(2)=   0.000000  celldm(3)=   0.000000
     celldm(4)=   0.000000  celldm(5)=   0.000000  celldm(6)=   0.000000

     crystal axes: (cart. coord. in units of alat)
               a(1) = (   1.000000   0.000000   0.000000 )  
               a(2) = (   0.000000   1.107086   0.000000 )  
               a(3) = (   0.000000   0.000000   4.474090 )  

     reciprocal axes: (cart. coord. in units 2 pi/alat)
               b(1) = (  1.000000  0.000000  0.000000 )  
               b(2) = (  0.000000  0.903272  0.000000 )  
               b(3) = (  0.000000  0.000000  0.223509 )  


     PseudoPot. # 1 for O  read from file:
     /home/camp/zhonxu/pseudo/o_pbe_v1.01.uspp.F.UPF
     MD5 check sum: 2bcb18d16ea4b960afae9ec6d52f22d2
     Pseudo is Ultrasoft + core correction, Zval =  6.0
     Generated by new atomic code, or converted to UPF format
     Using radial grid of  737 points,  5 beta functions with: 
                l(1) =   0
                l(2) =   0
                l(3) =   1
                l(4) =   1
                l(5) =   2
     Q(r) pseudized with  8 coefficients,  rinner =    0.900   0.900   0.900
                                                       0.900   0.900

     PseudoPot. # 2 for Ti read from file:
     /home/camp/zhonxu/pseudo/ti_pbe_v1.uspp.F.UPF
     MD5 check sum: bcc8f6961b3b91f0cac3ca967d22d0fb
     Pseudo is Ultrasoft + core correction, Zval = 12.0
     Generated by new atomic code, or converted to UPF format
     Using radial grid of  851 points,  6 beta functions with: 
                l(1) =   0
                l(2) =   0
                l(3) =   1
                l(4) =   1
                l(5) =   2
                l(6) =   2
     Q(r) pseudized with  6 coefficients,  rinner =    1.000   1.000   1.000
                                                       1.000   1.000

     PseudoPot. # 3 for H  read from file:
     /home/camp/zhonxu/pseudo/h_pbe_v1.uspp.F.UPF
     MD5 check sum: 3408e3ff4ec8b0a4e358431e7e038a48
     Pseudo is Ultrasoft, Zval =  1.0
     Generated by new atomic code, or converted to UPF format
     Using radial grid of  615 points,  2 beta functions with: 
                l(1) =   0
                l(2) =   0
     Q(r) pseudized with  8 coefficients,  rinner =    0.700

     atomic species   valence    mass     pseudopotential
        O0             6.00    15.99940     O ( 1.00)
        Ti1           12.00    47.88000     Ti( 1.00)
        H2             1.00     1.00794     H ( 1.00)

     No symmetry found



   Cartesian axes

     site n.     atom                  positions (alat units)
         1           O0  tau(   1) = (   0.0000000   0.0000000   1.6916981  )
         2           O0  tau(   2) = (   0.0000000   0.5535432   1.7793455  )
         3           Ti1 tau(   3) = (   0.2500000   0.5535432   2.0135193  )
         4           Ti1 tau(   4) = (   0.0000000   0.0000000   2.0249730  )
         5           O0  tau(   5) = (   0.2500000   0.8967400   2.0128482  )
         6           O0  tau(   6) = (   0.2500000   0.2103464   2.0156222  )
         7           O0  tau(   7) = (   0.0000000   0.5535432   2.2215645  )
         8           O0  tau(   8) = (   0.0000000   0.0000000   2.3494787  )
         9           Ti1 tau(   9) = (   0.2500000   0.0000000   2.6002962  )
        10           Ti1 tau(  10) = (   0.0000000   0.5535432   2.5369431  )
        11           O0  tau(  11) = (   0.2500000   0.7638896   2.5922876  )
        12           O0  tau(  12) = (   0.2500000   0.3431968   2.5913480  )
        13           O0  tau(  13) = (   0.0000000   0.0000000   2.7827496  )
        14           O0  tau(  14) = (   0.5000000   0.0000000   1.6981408  )
        15           O0  tau(  15) = (   0.5000000   0.5535432   1.7778690  )
        16           Ti1 tau(  16) = (   0.7500000   0.5535432   2.0135641  )
        17           Ti1 tau(  17) = (   0.5000000   0.0000000   2.0312815  )
        18           O0  tau(  18) = (   0.7500000   0.8967400   2.0121324  )
        19           O0  tau(  19) = (   0.7500000   0.2103464   2.0164275  )
        20           O0  tau(  20) = (   0.5000000   0.5535432   2.2018785  )
        21           O0  tau(  21) = (   0.5000000   0.0000000   2.3534159  )
        22           Ti1 tau(  22) = (   0.7500000   0.0000000   2.6002515  )
        23           Ti1 tau(  23) = (   0.5000000   0.5535432   2.6684813  )
        24           O0  tau(  24) = (   0.7500000   0.7638896   2.5918849  )
        25           O0  tau(  25) = (   0.7500000   0.3431968   2.5918849  )
        26           O0  tau(  26) = (   0.5000000   0.0000000   2.7810494  )
        27           H2  tau(  27) = (  -0.0007500   0.6909437   1.6851659  )
        28           H2  tau(  28) = (   0.4991700   0.6890395   1.6816761  )
        29           H2  tau(  29) = (   0.1493000   0.0317512   1.6251684  )
        30           H2  tau(  30) = (   0.6485500   0.0323491   1.6306267  )
        31           O0  tau(  31) = (   0.4997200   0.5535432   2.9491410  )

     number of k points=    10  Methfessel-Paxton smearing, width (Ry)=  0.0100
                       cart. coord. in units 2pi/alat
        k(    1) = (   0.0000000   0.0000000   0.0000000), wk =   0.1250000
        k(    2) = (   0.0000000   0.2258180   0.0000000), wk =   0.2500000
        k(    3) = (   0.0000000  -0.4516359   0.0000000), wk =   0.1250000
        k(    4) = (   0.2500000   0.0000000   0.0000000), wk =   0.2500000
        k(    5) = (   0.2500000   0.2258180   0.0000000), wk =   0.2500000
        k(    6) = (   0.2500000  -0.4516359   0.0000000), wk =   0.2500000
        k(    7) = (  -0.5000000   0.0000000   0.0000000), wk =   0.1250000
        k(    8) = (  -0.5000000   0.2258180   0.0000000), wk =   0.2500000
        k(    9) = (  -0.5000000  -0.4516359   0.0000000), wk =   0.1250000
        k(   10) = (  -0.2500000   0.2258180   0.0000000), wk =   0.2500000

     Dense  grid:  1322643 G-vectors     FFT dimensions: (  80,  90, 360)

     Smooth grid:   239441 G-vectors     FFT dimensions: (  45,  54, 216)

     Largest allocated arrays     est. size (Mb)     dimensions
        Kohn-Sham Wavefunctions         8.91 Mb     (   1890,  309)
        NL pseudopotentials            11.51 Mb     (   1890,  399)
        Each V/rho on FFT grid          2.53 Mb     ( 165600)
        Each G-vector array             0.63 Mb     (  82677)
        G-vector shells                 0.31 Mb     (  40971)
     Largest temporary arrays     est. size (Mb)     dimensions
        Auxiliary wavefunctions        35.65 Mb     (   1890, 1236)
        Each subspace H/S matrix       23.31 Mb     (1236,1236)
        Each <psi_i|beta_j> matrix      1.88 Mb     (    399,  309)
        Arrays for rho mixing          20.21 Mb     ( 165600,   8)

     Check: negative/imaginary core charge=   -0.000006    0.000000

     Initial potential from superposition of free atoms
     Check: negative starting charge=   -0.102580

     starting charge  205.99958, renormalised to  214.00000

     negative rho (up, down):  0.107E+00 0.000E+00
     Starting wfc are  160 randomized atomic wfcs

     total cpu time spent up to now is       65.4 secs

     per-process dynamical memory:   157.4 Mb

     Self-consistent Calculation

     iteration #  1     ecut=    40.00 Ry     beta=0.30
     Davidson diagonalization with overlap
     ethr =  1.00E-02,  avg # of iterations =  6.0

     negative rho (up, down):  0.106E+00 0.000E+00

     total cpu time spent up to now is      504.3 secs

     total energy              =   -1554.07782577 Ry
     Harris-Foulkes estimate   =   -1568.89975560 Ry
     estimated scf accuracy    <      30.15909267 Ry

     iteration #  2     ecut=    40.00 Ry     beta=0.30
     Davidson diagonalization with overlap
     ethr =  1.00E-02,  avg # of iterations =  4.0

     negative rho (up, down):  0.104E+00 0.000E+00

     total cpu time spent up to now is      776.7 secs

     total energy              =   -1516.87410725 Ry
     Harris-Foulkes estimate   =   -1612.32830777 Ry
     estimated scf accuracy    <    1374.62662320 Ry

     iteration #  3     ecut=    40.00 Ry     beta=0.30
     Davidson diagonalization with overlap
     ethr =  1.00E-02,  avg # of iterations =  4.3

     negative rho (up, down):  0.106E+00 0.000E+00

     total cpu time spent up to now is     1039.2 secs

     total energy              =   -1567.50656729 Ry
     Harris-Foulkes estimate   =   -1569.12009544 Ry
     estimated scf accuracy    <       8.93702432 Ry

     iteration #  4     ecut=    40.00 Ry     beta=0.30
     Davidson diagonalization with overlap
     ethr =  4.18E-03,  avg # of iterations =  1.0

     negative rho (up, down):  0.106E+00 0.000E+00

     total cpu time spent up to now is     1189.0 secs

     total energy              =   -1567.21868889 Ry
     Harris-Foulkes estimate   =   -1567.74517278 Ry
     estimated scf accuracy    <       4.17723137 Ry

     iteration #  5     ecut=    40.00 Ry     beta=0.30
     Davidson diagonalization with overlap
     ethr =  1.95E-03,  avg # of iterations =  1.0

     negative rho (up, down):  0.106E+00 0.000E+00

     total cpu time spent up to now is     1338.2 secs

     total energy              =   -1566.96213260 Ry
     Harris-Foulkes estimate   =   -1567.33896554 Ry
     estimated scf accuracy    <       2.35185163 Ry

     iteration #  6     ecut=    40.00 Ry     beta=0.30
     Davidson diagonalization with overlap
     ethr =  1.10E-03,  avg # of iterations =  1.6

     negative rho (up, down):  0.104E+00 0.000E+00

     total cpu time spent up to now is     1492.8 secs

     total energy              =   -1567.00657195 Ry
     Harris-Foulkes estimate   =   -1567.14659828 Ry
     estimated scf accuracy    <       2.16311823 Ry

     iteration #  7     ecut=    40.00 Ry     beta=0.30
     Davidson diagonalization with overlap
     ethr =  1.01E-03,  avg # of iterations =  2.1

     negative rho (up, down):  0.103E+00 0.000E+00

     total cpu time spent up to now is     1651.6 secs

     total energy              =   -1566.96809927 Ry
     Harris-Foulkes estimate   =   -1567.03851254 Ry
     estimated scf accuracy    <       1.14809637 Ry

     iteration #  8     ecut=    40.00 Ry     beta=0.30
     Davidson diagonalization with overlap
     ethr =  5.36E-04,  avg # of iterations =  4.2

     negative rho (up, down):  0.103E+00 0.000E+00

     total cpu time spent up to now is     1833.4 secs

     total energy              =   -1567.00916557 Ry
     Harris-Foulkes estimate   =   -1567.03670203 Ry
     estimated scf accuracy    <       0.49790710 Ry

     iteration #  9     ecut=    40.00 Ry     beta=0.30
     Davidson diagonalization with overlap
     ethr =  2.33E-04,  avg # of iterations =  2.7

     negative rho (up, down):  0.102E+00 0.000E+00

     total cpu time spent up to now is     1998.3 secs

     total energy              =   -1566.97991690 Ry
     Harris-Foulkes estimate   =   -1567.02100323 Ry
     estimated scf accuracy    <       0.54729624 Ry

     iteration # 10     ecut=    40.00 Ry     beta=0.30
     Davidson diagonalization with overlap
     ethr =  2.33E-04,  avg # of iterations =  2.9

     negative rho (up, down):  0.101E+00 0.000E+00

     total cpu time spent up to now is     2164.2 secs

     total energy              =   -1566.95125760 Ry
     Harris-Foulkes estimate   =   -1567.01766673 Ry
     estimated scf accuracy    <       1.13239608 Ry

     iteration # 11     ecut=    40.00 Ry     beta=0.30
     Davidson diagonalization with overlap
     ethr =  2.33E-04,  avg # of iterations =  5.2

     negative rho (up, down):  0.101E+00 0.000E+00

     total cpu time spent up to now is     2358.2 secs

     total energy              =   -1566.94107376 Ry
     Harris-Foulkes estimate   =   -1566.96606054 Ry
     estimated scf accuracy    <       0.60663366 Ry

     iteration # 12     ecut=    40.00 Ry     beta=0.30
     Davidson diagonalization with overlap
     ethr =  2.33E-04,  avg # of iterations =  1.4

     negative rho (up, down):  0.101E+00 0.000E+00

     total cpu time spent up to now is     2511.0 secs

     total energy              =   -1566.93737353 Ry
     Harris-Foulkes estimate   =   -1566.94770278 Ry
     estimated scf accuracy    <       0.14887240 Ry

     iteration # 13     ecut=    40.00 Ry     beta=0.30
     Davidson diagonalization with overlap
     ethr =  6.96E-05,  avg # of iterations =  2.8

     negative rho (up, down):  0.101E+00 0.000E+00

     total cpu time spent up to now is     2676.5 secs

     total energy              =   -1566.94223417 Ry
     Harris-Foulkes estimate   =   -1566.94677036 Ry
     estimated scf accuracy    <       0.21645615 Ry

     iteration # 14     ecut=    40.00 Ry     beta=0.30
     Davidson diagonalization with overlap
     ethr =  6.96E-05,  avg # of iterations =  4.8

     negative rho (up, down):  0.101E+00 0.000E+00

     total cpu time spent up to now is     2863.4 secs

     total energy              =   -1566.93554273 Ry
     Harris-Foulkes estimate   =   -1566.94501896 Ry
     estimated scf accuracy    <       0.15640460 Ry

     iteration # 15     ecut=    40.00 Ry     beta=0.30
     Davidson diagonalization with overlap
     ethr =  6.96E-05,  avg # of iterations =  3.1

     negative rho (up, down):  0.101E+00 0.000E+00

     total cpu time spent up to now is     3034.8 secs

     total energy              =   -1566.94163356 Ry
     Harris-Foulkes estimate   =   -1566.94449804 Ry
     estimated scf accuracy    <       0.08459491 Ry

     iteration # 16     ecut=    40.00 Ry     beta=0.30
     Davidson diagonalization with overlap
     ethr =  3.95E-05,  avg # of iterations =  2.3

     negative rho (up, down):  0.101E+00 0.000E+00

     total cpu time spent up to now is     3197.9 secs

     total energy              =   -1566.94229662 Ry
     Harris-Foulkes estimate   =   -1566.94283839 Ry
     estimated scf accuracy    <       0.01068260 Ry

     iteration # 17     ecut=    40.00 Ry     beta=0.30
     Davidson diagonalization with overlap
     ethr =  4.99E-06,  avg # of iterations =  7.1

     negative rho (up, down):  0.101E+00 0.000E+00

     total cpu time spent up to now is     3419.6 secs

     total energy              =   -1566.94244565 Ry
     Harris-Foulkes estimate   =   -1566.94260424 Ry
     estimated scf accuracy    <       0.00287652 Ry

     iteration # 18     ecut=    40.00 Ry     beta=0.30
     Davidson diagonalization with overlap
     ethr =  1.34E-06,  avg # of iterations =  1.7

     negative rho (up, down):  0.102E+00 0.000E+00

     total cpu time spent up to now is     3577.6 secs

     total energy              =   -1566.94251405 Ry
     Harris-Foulkes estimate   =   -1566.94253633 Ry
     estimated scf accuracy    <       0.00025993 Ry

     iteration # 19     ecut=    40.00 Ry     beta=0.30
     Davidson diagonalization with overlap
     ethr =  1.21E-07,  avg # of iterations =  2.7

     negative rho (up, down):  0.102E+00 0.000E+00

     total cpu time spent up to now is     3746.1 secs

     total energy              =   -1566.94253510 Ry
     Harris-Foulkes estimate   =   -1566.94254873 Ry
     estimated scf accuracy    <       0.00026829 Ry

     iteration # 20     ecut=    40.00 Ry     beta=0.30
     Davidson diagonalization with overlap
     ethr =  1.21E-07,  avg # of iterations =  1.0

     negative rho (up, down):  0.102E+00 0.000E+00

     total cpu time spent up to now is     3898.0 secs

     total energy              =   -1566.94254464 Ry
     Harris-Foulkes estimate   =   -1566.94254490 Ry
     estimated scf accuracy    <       0.00002992 Ry

     iteration # 21     ecut=    40.00 Ry     beta=0.30
     Davidson diagonalization with overlap
     ethr =  1.40E-08,  avg # of iterations =  1.0

     negative rho (up, down):  0.102E+00 0.000E+00

     total cpu time spent up to now is     4050.0 secs

     total energy              =   -1566.94254553 Ry
     Harris-Foulkes estimate   =   -1566.94254652 Ry
     estimated scf accuracy    <       0.00000922 Ry

     iteration # 22     ecut=    40.00 Ry     beta=0.30
     Davidson diagonalization with overlap
     ethr =  4.31E-09,  avg # of iterations =  1.0

     negative rho (up, down):  0.102E+00 0.000E+00

     total cpu time spent up to now is     4203.8 secs

     total energy              =   -1566.94254617 Ry
     Harris-Foulkes estimate   =   -1566.94254660 Ry
     estimated scf accuracy    <       0.00000589 Ry

     iteration # 23     ecut=    40.00 Ry     beta=0.30
     Davidson diagonalization with overlap
     ethr =  2.75E-09,  avg # of iterations =  1.0

     negative rho (up, down):  0.102E+00 0.000E+00

     total cpu time spent up to now is     4357.9 secs

     total energy              =   -1566.94254616 Ry
     Harris-Foulkes estimate   =   -1566.94254690 Ry
     estimated scf accuracy    <       0.00000983 Ry

     iteration # 24     ecut=    40.00 Ry     beta=0.30
     Davidson diagonalization with overlap
     ethr =  2.75E-09,  avg # of iterations =  1.0

     negative rho (up, down):  0.102E+00 0.000E+00

     total cpu time spent up to now is     4517.0 secs

     total energy              =   -1566.94254651 Ry
     Harris-Foulkes estimate   =   -1566.94254661 Ry
     estimated scf accuracy    <       0.00000111 Ry

     iteration # 25     ecut=    40.00 Ry     beta=0.30
     Davidson diagonalization with overlap
     ethr =  5.19E-10,  avg # of iterations =  1.0

     negative rho (up, down):  0.102E+00 0.000E+00

     total cpu time spent up to now is     4673.6 secs

     End of self-consistent calculation

          k = 0.0000 0.0000 0.0000 ( 29975 PWs)   bands (ev):

   -60.5289 -60.4893 -60.2044 -59.7049 -59.6622 -59.3046 -59.2630 -58.5634
   -37.0923 -36.8032 -36.7176 -36.7092 -36.6773 -36.6272 -36.5698 -36.4518
   -36.3888 -36.3364 -36.0342 -35.9319 -35.8805 -35.8693 -35.8577 -35.8133
   -35.5849 -35.5835 -35.5492 -35.4853 -35.3702 -35.0043 -34.9331 -34.8886
   -22.0681 -21.7314 -21.1275 -20.9417 -20.4695 -20.3904 -20.1627 -20.1566
   -19.9444 -19.9086 -19.6953 -19.6433 -19.6298 -19.6192 -19.3134 -19.2962
   -18.8807 -18.7760 -17.9799  -9.8495  -9.4340  -8.7972  -8.7497  -8.1115
    -8.0566  -8.0216  -7.6905  -7.5247  -7.4263  -7.3443  -7.3278  -7.2499
    -7.0989  -7.0559  -6.9739  -6.9314  -6.8808  -6.8609  -6.6021  -6.5814
    -6.4306  -6.2485  -6.1134  -5.9758  -5.9657  -5.8425  -5.6086  -5.5307
    -5.4160  -5.3800  -5.3582  -5.2890  -5.1249  -5.1085  -5.0796  -4.9055
    -4.8238  -4.6946  -4.6125  -4.4637  -4.4218  -4.4191  -4.3811  -4.3566
    -4.2833  -4.1261  -4.0929  -4.0427  -3.8487  -3.8217  -3.7357  -3.6320
    -3.5960  -3.5708  -3.4046  -3.2503  -1.2777  -1.0875  -0.9511  -0.9414
    -0.8681  -0.7307  -0.5057  -0.2054  -0.1978  -0.1264  -0.0882   0.1447
     0.1686   0.1940   0.1972   0.4152   0.4177   0.6037   0.7431   0.7931
     1.0130   1.2115   1.2831   1.7662   1.7819   1.9686   1.9961   2.1324
     2.2485   2.4329   2.5547   2.6975   2.8994   3.0094   3.0903   3.4268
     3.5733   3.5928   3.6965   3.8447   3.8963   3.9869   4.2337   4.2985
     4.6906   5.1327   5.5600   5.6258   5.7011   6.0810   6.1671   6.6996
     6.9575   7.1205   7.1702   7.3149   7.3827   7.5327   7.5586   7.7361
     7.8117   7.8558   7.9488   8.1078   8.2087   8.2203   8.2884   8.4340
     8.5368   8.5789   8.6508   8.7580   8.8523   8.8677   8.9606   9.0307
     9.0779   9.2335   9.3555   9.4145   9.4274   9.6213   9.7927   9.8717
     9.9429  10.0818  10.3595  10.4835  10.5847  10.6272  10.7112  10.7186
    10.8207  10.9539  10.9760  11.0579  11.1256  11.1435  11.2432  11.2937
    11.3269  11.3662  11.3957  11.4855  11.5517  11.6424  11.7088  11.7479
    11.8730  11.9471  11.9682  12.0509  12.1391  12.1655  12.2355  12.3016
    12.3535  12.4261  12.5017  12.5399  12.6287  12.6665  12.8049  12.8441
    12.9578  13.0160  13.1186  13.2876  13.2991  13.3373  13.4003  13.6056
    13.6174  13.7074  13.7776  13.8008  13.9248  14.0055  14.0322  14.0953
    14.2138  14.4119  14.4995  14.5551  14.6758  14.7257  14.8214  14.8686
    14.8803  15.0462  15.0745  15.1306  15.2658  15.3715  15.4641  15.5482
    15.5803  15.6487  15.8785  16.0837  16.0900  16.2632  16.2961  16.3557
    16.4104  16.4324  16.5642  16.5859  16.7458  16.8728  16.9133  17.0705
    17.1506  17.2109  17.4073  17.4942  17.5324  17.5786  17.6013  17.6357
    17.6967  17.7389  17.8850  17.9096  18.0375  18.1107  18.1389  18.1712
    18.2196  18.2565  18.2817  18.3613  18.4274  18.5370  18.6298  18.7144
    18.7563  18.8673  18.9035  18.9895  19.0822

          k = 0.0000 0.2258 0.0000 ( 29933 PWs)   bands (ev):

   -60.5289 -60.4893 -60.2044 -59.7049 -59.6622 -59.3046 -59.2630 -58.5634
   -37.0925 -36.8032 -36.7141 -36.7092 -36.6815 -36.6271 -36.5698 -36.4526
   -36.3877 -36.3318 -36.0385 -35.9317 -35.8805 -35.8693 -35.8577 -35.8133
   -35.5850 -35.5837 -35.5490 -35.4853 -35.3702 -35.0042 -34.9321 -34.8903
   -22.0562 -21.7307 -21.1076 -20.9221 -20.3789 -20.3615 -20.2813 -20.1597
   -19.9790 -19.7942 -19.7833 -19.7610 -19.7054 -19.4769 -19.3340 -19.3082
   -18.8785 -18.7747 -17.9799  -9.8477  -9.4473  -8.7830  -8.5068  -8.0601
    -8.0192  -7.9012  -7.8108  -7.5409  -7.4309  -7.4000  -7.2882  -7.2646
    -7.0570  -6.9969  -6.9218  -6.7922  -6.7540  -6.5740  -6.5609  -6.4981
    -6.4741  -6.2504  -6.1732  -6.0719  -5.9386  -5.8182  -5.6719  -5.6266
    -5.5246  -5.5029  -5.4486  -5.3395  -5.1977  -5.1029  -5.0840  -4.8600
    -4.8189  -4.7844  -4.6898  -4.6765  -4.5702  -4.5192  -4.4282  -4.2348
    -4.2170  -4.1436  -4.0534  -4.0313  -4.0267  -3.8883  -3.8615  -3.6867
    -3.6230  -3.5892  -3.5358  -3.3373  -1.2034  -1.1874  -0.9306  -0.8930
    -0.6397  -0.5451  -0.5114  -0.4428  -0.2086  -0.1059   0.1037   0.1088
     0.1722   0.2009   0.3594   0.3962   0.5459   0.6377   0.7082   0.8078
     1.0311   1.2128   1.2497   1.5583   1.9328   1.9628   2.0135   2.0631
     2.2602   2.4620   2.5037   2.6712   2.9474   3.3477   3.4316   3.4547
     3.4798   3.6650   3.7613   3.8565   3.9364   4.1696   4.2412   4.3691
     4.5840   4.9292   5.5216   5.6731   5.7464   5.8853   6.0408   6.2877
     6.2957   6.6514   6.9655   7.1088   7.1496   7.3380   7.4540   7.7260
     7.7760   8.0549   8.2255   8.2929   8.3794   8.4254   8.6251   8.6620
     8.7106   8.7642   8.8692   8.9124   8.9250   9.0190   9.1187   9.2250
     9.4018   9.4412   9.4922   9.5664   9.6884   9.7220   9.8244   9.8860
     9.9120  10.0324  10.1036  10.2520  10.2847  10.3871  10.4797  10.5037
    10.5895  10.6937  10.7940  10.8492  10.9431  11.0414  11.0761  11.1261
    11.1879  11.2068  11.3818  11.5176  11.5668  11.6387  11.7626  11.8429
    11.8906  12.1020  12.2405  12.2823  12.3608  12.3928  12.4961  12.5667
    12.5881  12.6343  12.7249  12.8089  12.9786  12.9840  13.1037  13.1943
    13.2925  13.3246  13.4343  13.4778  13.5428  13.5776  13.7096  13.7757
    13.8105  13.8226  13.8912  13.9212  13.9765  14.0903  14.1108  14.1803
    14.3228  14.3876  14.4033  14.5370  14.5492  14.6295  14.7122  14.7920
    14.8893  14.9501  15.0358  15.0936  15.1606  15.2389  15.3682  15.4245
    15.4360  15.5315  15.5907  15.6942  15.7879  15.8865  16.0405  16.0998
    16.1629  16.3604  16.4027  16.4335  16.5445  16.6052  16.6592  16.7420
    16.7969  16.9067  16.9847  17.1276  17.1523  17.1756  17.5006  17.6296
    17.6407  17.6830  17.7097  17.7989  17.8765  17.9990  18.0915  18.1616
    18.2106  18.2708  18.3046  18.4067  18.4202  18.5435  18.6132  18.6638
    18.7448  18.8173  18.9079  18.9344  19.0214

          k = 0.0000-0.4516 0.0000 ( 29906 PWs)   bands (ev):

   -60.5289 -60.4893 -60.2044 -59.7049 -59.6622 -59.3046 -59.2630 -58.5634
   -37.0927 -36.8032 -36.7105 -36.7092 -36.6856 -36.6271 -36.5698 -36.4533
   -36.3865 -36.3273 -36.0428 -35.9315 -35.8806 -35.8693 -35.8577 -35.8133
   -35.5849 -35.5840 -35.5488 -35.4853 -35.3702 -35.0041 -34.9312 -34.8919
   -22.0445 -21.7299 -21.0897 -20.8972 -20.3587 -20.3281 -20.2200 -20.1608
   -20.0086 -19.9704 -19.8368 -19.7572 -19.6967 -19.4159 -19.3562 -19.3098
   -18.8768 -18.7736 -17.9800  -9.8439  -9.4613  -8.7689  -8.2739  -8.0599
    -8.0166  -7.9081  -7.6119  -7.5385  -7.4779  -7.3912  -7.1334  -7.1052
    -7.0920  -7.0123  -6.8312  -6.6990  -6.6406  -6.5876  -6.4822  -6.3118
    -6.2550  -6.2361  -6.1939  -6.0847  -6.0362  -6.0261  -5.8666  -5.7803
    -5.7293  -5.6438  -5.5010  -5.4970  -5.3366  -5.0485  -5.0224  -4.9257
    -4.8901  -4.7874  -4.7222  -4.6388  -4.6360  -4.5825  -4.4529  -4.3231
    -4.2836  -4.2249  -4.1464  -4.0528  -3.9722  -3.8622  -3.8234  -3.7001
    -3.6900  -3.6616  -3.5555  -3.4102  -1.4200  -1.1600  -0.9589  -0.7111
    -0.7045  -0.4812  -0.3756  -0.3571  -0.1876  -0.0538   0.0410   0.1762
     0.2068   0.2886   0.3394   0.4811   0.6020   0.6151   0.6881   0.9030
     1.0218   1.2130   1.2655   1.3982   1.8348   1.9915   2.0297   2.1562
     2.2388   2.4867   2.6616   2.6814   3.0602   3.3440   3.3620   3.4665
     3.6278   3.7739   3.8523   3.8861   3.9797   4.2465   4.4020   4.5744
     4.7023   4.9953   5.1199   5.3530   5.5519   5.7967   5.8065   6.2529
     6.3587   6.5482   6.5822   6.6921   6.7424   7.2647   7.7148   7.7959
     7.9462   8.0154   8.2895   8.3055   8.3892   8.4907   8.6741   8.7949
     8.8843   8.9136   8.9357   8.9919   9.0144   9.1690   9.2112   9.2666
     9.3266   9.3749   9.4766   9.4806   9.5894   9.6132   9.7902   9.8759
     9.9550  10.0437  10.0641  10.1755  10.3659  10.5618  10.6184  10.6622
    10.7107  10.8434  10.9887  11.0172  11.0701  11.1291  11.1730  11.2586
    11.4265  11.4341  11.5467  11.7288  11.7752  11.8272  11.8504  11.9006
    11.9103  12.0208  12.0445  12.0715  12.2346  12.3441  12.4422  12.4665
    12.6916  12.6997  12.7518  12.8795  12.9170  12.9648  13.0078  13.0896
    13.1806  13.1964  13.2693  13.4698  13.4920  13.5731  13.6530  13.6865
    13.7631  13.7981  13.9271  13.9578  14.0690  14.1502  14.2163  14.4834
    14.6280  14.6636  14.6785  14.7221  14.7604  14.7869  14.8369  14.8615
    15.1774  15.2141  15.2198  15.2596  15.3187  15.4112  15.4241  15.5457
    15.6082  15.6475  15.6886  15.7816  15.8132  15.8988  16.0127  16.0880
    16.1158  16.1276  16.2842  16.3598  16.4125  16.4921  16.6008  16.6463
    16.7013  16.8532  16.8794  16.9523  17.0084  17.0572  17.1593  17.1987
    17.3263  17.3334  17.5272  17.5635  17.6035  17.6688  17.7299  17.7644
    17.7762  17.8155  17.9609  17.9940  18.0087  18.0237  18.1010  18.1420
    18.1905  18.5239  18.5581  18.6450  18.6789

          k = 0.2500 0.0000 0.0000 ( 29937 PWs)   bands (ev):

   -60.5232 -60.4951 -60.2044 -59.6993 -59.6678 -59.2986 -59.2691 -58.5635
   -37.0307 -36.7916 -36.7385 -36.7117 -36.6833 -36.6772 -36.5686 -36.4449
   -36.3883 -36.2714 -36.0198 -35.9471 -35.9462 -35.8613 -35.8336 -35.7829
   -35.5789 -35.5761 -35.5541 -35.4977 -35.4382 -35.0035 -34.9424 -34.8892
   -21.9861 -21.7390 -21.1488 -20.8443 -20.3651 -20.3313 -20.2789 -20.0873
   -20.0316 -19.9166 -19.7422 -19.7189 -19.5858 -19.5827 -19.3432 -19.2832
   -18.9444 -18.8519 -17.9790  -9.7866  -9.5019  -8.5906  -8.5607  -8.1554
    -7.9542  -7.8690  -7.7297  -7.6298  -7.5368  -7.4448  -7.3146  -7.1703
    -7.0722  -7.0156  -6.9556  -6.9421  -6.9005  -6.7161  -6.6893  -6.5553
    -6.3104  -6.2236  -6.1200  -6.0172  -5.8017  -5.7061  -5.6606  -5.5615
    -5.5177  -5.4462  -5.3438  -5.2782  -5.1116  -5.0397  -4.9978  -4.9675
    -4.9174  -4.8477  -4.7966  -4.6550  -4.6327  -4.5563  -4.4868  -4.3148
    -4.2428  -4.1914  -4.0837  -4.0261  -3.9483  -3.8040  -3.7753  -3.6752
    -3.6052  -3.5839  -3.5346  -3.3367  -1.1481  -1.0311  -0.9649  -0.8638
    -0.7716  -0.6114  -0.4397  -0.2635  -0.2589  -0.1425  -0.0085   0.0351
     0.0865   0.1376   0.2993   0.4309   0.4767   0.7718   0.7860   0.8525
     1.0201   1.1360   1.1974   1.8294   1.8376   1.9056   2.0196   2.1062
     2.2834   2.5853   2.6274   2.7271   2.9651   2.9715   3.1203   3.3532
     3.4553   3.4899   3.8138   3.8276   3.8535   3.9516   4.2874   4.5699
     4.6041   4.9552   5.4076   5.8419   5.8943   5.9822   6.3189   6.3380
     6.5497   6.8305   7.0396   7.2333   7.3310   7.4252   7.4415   7.5768
     7.6955   7.7660   7.8212   8.0157   8.0808   8.1964   8.2243   8.3250
     8.4621   8.6612   8.8434   8.8960   8.9443   9.0805   9.0989   9.1732
     9.2738   9.4580   9.4888   9.5587   9.6000   9.7008   9.8647   9.9588
    10.0118  10.0536  10.1482  10.2963  10.3295  10.4869  10.5255  10.6180
    10.7000  10.7988  10.8389  10.8787  10.9628  11.0333  11.0469  11.1956
    11.2608  11.3654  11.4191  11.4700  11.5980  11.6045  11.6976  11.7382
    11.9101  11.9844  12.0969  12.1964  12.2285  12.4217  12.5224  12.5329
    12.6644  12.7181  12.7814  12.8790  12.9578  13.0410  13.1237  13.2768
    13.3443  13.4131  13.5176  13.5800  13.7032  13.7190  13.8196  13.8778
    13.9789  14.0571  14.1312  14.2253  14.2940  14.3646  14.4253  14.4896
    14.5297  14.6324  14.6892  14.7427  14.7699  14.8424  14.9608  15.0359
    15.1253  15.1515  15.2795  15.3357  15.3643  15.4064  15.5765  15.6221
    15.6714  15.7447  15.8461  15.8775  15.9822  16.0549  16.1434  16.2824
    16.3411  16.4924  16.5800  16.6392  16.6791  16.7847  16.8305  16.8793
    16.9878  17.0745  17.1373  17.1801  17.3005  17.3802  17.4369  17.4673
    17.5376  17.5793  17.7076  17.8079  17.8622  17.8892  17.9191  18.0252
    18.0940  18.1689  18.2233  18.3058  18.3397  18.4108  18.4714  18.5337
    18.5810  18.6966  18.7732  18.8350  18.9001

          k = 0.2500 0.2258 0.0000 ( 29912 PWs)   bands (ev):

   -60.5231 -60.4951 -60.2044 -59.6993 -59.6678 -59.2986 -59.2691 -58.5635
   -37.0308 -36.7915 -36.7385 -36.7089 -36.6858 -36.6772 -36.5686 -36.4457
   -36.3872 -36.2680 -36.0235 -35.9476 -35.9458 -35.8613 -35.8336 -35.7829
   -35.5789 -35.5761 -35.5542 -35.4977 -35.4382 -35.0034 -34.9413 -34.8908
   -21.9774 -21.7380 -21.1389 -20.8135 -20.3243 -20.2879 -20.2569 -20.1956
   -19.9943 -19.8731 -19.7844 -19.7670 -19.6844 -19.5525 -19.3584 -19.2815
   -18.9426 -18.8512 -17.9788  -9.7823  -9.4979  -8.5805  -8.3342  -8.1153
    -7.8862  -7.7739  -7.7079  -7.6188  -7.4132  -7.3561  -7.2803  -7.2193
    -7.0901  -7.0053  -6.9110  -6.8962  -6.8118  -6.7028  -6.5892  -6.5294
    -6.3551  -6.2435  -6.1216  -5.9993  -5.8422  -5.7429  -5.6977  -5.5778
    -5.5513  -5.4900  -5.4277  -5.3170  -5.2667  -5.2050  -5.1412  -5.0637
    -5.0090  -4.9153  -4.8552  -4.7400  -4.6831  -4.5619  -4.5130  -4.3122
    -4.2744  -4.1741  -4.1405  -4.0373  -3.9884  -3.9209  -3.7831  -3.7001
    -3.6367  -3.5587  -3.5228  -3.3656  -1.1389  -1.0951  -0.9852  -0.8575
    -0.5512  -0.4786  -0.4210  -0.3694  -0.2438  -0.0615   0.0083   0.1039
     0.1444   0.1973   0.4097   0.4716   0.5837   0.7013   0.8408   0.8908
     1.0202   1.1281   1.1569   1.6292   1.9205   1.9445   2.0384   2.0532
     2.2445   2.3248   2.6651   2.8189   2.9931   3.1943   3.2368   3.2708
     3.4637   3.6003   3.8301   3.9013   3.9487   4.0663   4.4688   4.6214
     4.7006   4.8738   5.2330   5.7854   5.9383   6.0023   6.1743   6.2968
     6.3714   6.5485   6.7329   6.8869   7.0044   7.2608   7.2964   7.4425
     7.6301   7.6907   7.7573   7.9004   7.9402   8.0406   8.2096   8.3215
     8.5059   8.6544   8.7474   8.8374   8.9960   9.1528   9.2308   9.2745
     9.3878   9.5029   9.6013   9.6368   9.7212   9.8660   9.9448   9.9966
    10.0635  10.2597  10.3609  10.4831  10.5810  10.6989  10.7952  10.8214
    10.9210  11.0121  11.0730  11.1365  11.1627  11.2864  11.3695  11.3980
    11.4541  11.5276  11.6840  11.7161  11.7989  11.8745  11.9496  12.0309
    12.0562  12.0989  12.1774  12.2878  12.3917  12.4664  12.5083  12.5386
    12.6232  12.7621  12.8451  12.9241  12.9818  13.0454  13.0890  13.2233
    13.3413  13.4128  13.4287  13.5468  13.6090  13.6687  13.7396  13.8125
    13.8546  13.9103  14.0030  14.0654  14.1434  14.2017  14.3177  14.3712
    14.4654  14.5700  14.6079  14.6579  14.7100  14.7720  14.8636  15.0215
    15.0988  15.1729  15.2240  15.2978  15.3937  15.4577  15.5071  15.5837
    15.6395  15.7354  15.7690  15.8567  15.9164  16.0516  16.0810  16.1109
    16.2112  16.2338  16.3554  16.3960  16.4559  16.6154  16.6881  16.7330
    16.7682  16.8683  16.8841  16.9312  16.9742  17.0581  17.1285  17.1823
    17.2636  17.3347  17.3993  17.4599  17.5078  17.5967  17.6436  17.7106
    17.7836  17.8455  17.9790  18.0335  18.0948  18.2011  18.2559  18.3186
    18.4030  18.4927  18.5720  18.6124  18.6587

          k = 0.2500-0.4516 0.0000 ( 29882 PWs)   bands (ev):

   -60.5231 -60.4951 -60.2044 -59.6993 -59.6678 -59.2986 -59.2691 -58.5635
   -37.0310 -36.7915 -36.7385 -36.7062 -36.6882 -36.6773 -36.5687 -36.4464
   -36.3860 -36.2647 -36.0268 -35.9479 -35.9456 -35.8613 -35.8336 -35.7829
   -35.5791 -35.5761 -35.5540 -35.4977 -35.4382 -35.0032 -34.9402 -34.8925
   -21.9689 -21.7370 -21.1299 -20.7782 -20.3050 -20.2610 -20.2501 -20.1444
   -20.0065 -19.8810 -19.8296 -19.8155 -19.7877 -19.5287 -19.3662 -19.2806
   -18.9414 -18.8507 -17.9787  -9.7765  -9.4963  -8.5690  -8.2036  -7.9547
    -7.8916  -7.7529  -7.6219  -7.3875  -7.3339  -7.2674  -7.2551  -7.2181
    -7.1038  -6.9976  -6.8571  -6.7806  -6.6783  -6.6249  -6.5817  -6.4159
    -6.3234  -6.2874  -6.1708  -6.1123  -5.9400  -5.8575  -5.8032  -5.7110
    -5.6527  -5.5819  -5.5062  -5.4406  -5.4216  -5.3859  -5.2437  -5.2021
    -5.0442  -4.9571  -4.8720  -4.8572  -4.7503  -4.5006  -4.3686  -4.3177
    -4.2320  -4.1876  -4.1826  -4.1210  -4.0374  -3.9567  -3.8203  -3.6911
    -3.6002  -3.5324  -3.5064  -3.4234  -1.3014  -1.0755  -0.9792  -0.7853
    -0.6912  -0.4082  -0.2910  -0.2724  -0.1504  -0.0020   0.0575   0.1515
     0.2248   0.2526   0.4387   0.5611   0.6327   0.6767   0.8916   0.9446
     0.9867   1.1229   1.1905   1.4171   1.7940   1.9762   2.0153   2.0988
     2.2469   2.3547   2.6861   2.8086   2.9471   3.0467   3.3874   3.4332
     3.6203   3.7265   3.7975   3.9181   3.9805   4.0717   4.6763   4.8508
     4.8842   4.9845   5.2687   5.3969   5.6327   5.7770   5.8426   6.1104
     6.5223   6.6461   6.7029   6.8837   6.9262   6.9928   7.1972   7.3174
     7.3829   7.6083   7.6568   7.7196   7.9927   8.0269   8.0995   8.1198
     8.2804   8.4570   8.5585   8.6048   8.8113   8.9395   9.2115   9.3249
     9.3770   9.6674   9.8060   9.8474   9.8971   9.9762  10.1957  10.2592
    10.3966  10.8023  10.8302  10.9029  10.9400  11.0129  11.0352  11.0962
    11.2665  11.2770  11.3213  11.3919  11.4428  11.4952  11.5903  11.6335
    11.6993  11.7363  11.8177  11.8979  11.9685  12.0030  12.0462  12.1427
    12.1931  12.2144  12.2847  12.3327  12.3998  12.5293  12.6244  12.6611
    12.6979  12.8219  12.8773  12.9374  13.0613  13.1016  13.1521  13.1777
    13.3125  13.3535  13.3920  13.4892  13.5223  13.5555  13.6154  13.7227
    13.7801  13.8282  13.9051  13.9579  14.0352  14.0712  14.1435  14.1715
    14.2952  14.3161  14.3877  14.5398  14.6448  14.6962  14.7493  14.7975
    14.8404  14.8899  14.9861  15.0436  15.1177  15.1801  15.2307  15.2691
    15.3279  15.4233  15.5778  15.5976  15.6620  15.7053  15.8157  15.9041
    15.9750  16.0858  16.1933  16.4433  16.4719  16.5531  16.5714  16.6156
    16.7067  16.7969  16.8742  16.9229  16.9663  17.0885  17.1579  17.1976
    17.2963  17.3740  17.4243  17.4578  17.5542  17.6061  17.6238  17.6995
    17.7282  17.8884  17.9173  18.0724  18.1078  18.1737  18.2126  18.2329
    18.3441  18.4076  18.4383  18.4838  18.5932

          k =-0.5000 0.0000 0.0000 ( 29982 PWs)   bands (ev):

   -60.5096 -60.5087 -60.2043 -59.6898 -59.6773 -59.2842 -59.2835 -58.5635
   -36.8850 -36.8794 -36.7459 -36.7337 -36.6975 -36.6972 -36.5677 -36.4381
   -36.3878 -36.1177 -36.1049 -35.9852 -35.9817 -35.8548 -35.8346 -35.6328
   -35.6324 -35.5698 -35.5635 -35.5225 -35.5185 -35.0023 -34.9521 -34.8897
   -21.8549 -21.7898 -21.1864 -20.6017 -20.5406 -20.2363 -20.1651 -20.0751
   -20.0702 -19.9097 -19.8959 -19.8894 -19.4924 -19.4336 -19.3663 -19.3347
   -19.0334 -18.9321 -17.9782  -9.6963  -9.5930  -8.2436  -8.1976  -8.1511
    -7.9207  -7.9043  -7.8182  -7.7921  -7.6833  -7.5719  -7.4835  -7.1130
    -7.1007  -6.9464  -6.9150  -6.7773  -6.7084  -6.5562  -6.4456  -6.4314
    -6.2069  -6.1526  -6.0950  -6.0103  -5.9791  -5.9508  -5.7652  -5.5906
    -5.5433  -5.5214  -5.4278  -5.3774  -5.2502  -5.1180  -5.0231  -4.9670
    -4.8985  -4.8647  -4.8491  -4.8238  -4.7536  -4.5363  -4.4755  -4.3782
    -4.3338  -4.2939  -4.1531  -4.0737  -3.8113  -3.7696  -3.7567  -3.6687
    -3.6656  -3.6037  -3.5921  -3.4742  -1.1304  -0.9658  -0.9437  -0.8128
    -0.4956  -0.4847  -0.4003  -0.3926  -0.3190  -0.1760  -0.0509   0.0200
     0.1095   0.1149   0.1367   0.5425   0.7157   0.7343   0.8571   0.9501
     0.9619   1.0142   1.1435   1.8198   1.8595   1.9805   2.0234   2.0723
     2.2130   2.6512   2.9799   3.0018   3.0412   3.0423   3.0519   3.1680
     3.2633   3.4342   3.4444   3.7176   3.9152   3.9486   4.6197   4.6368
     5.0048   5.1590   5.2511   5.5010   5.6734   5.7997   6.1237   6.2204
     6.5776   6.6741   6.7920   6.9389   7.0786   7.0937   7.5275   7.8770
     7.8918   7.9254   8.0963   8.1337   8.2148   8.2198   8.4366   8.4785
     8.5541   8.6573   8.6876   8.7600   8.8174   8.8572   8.9102   9.0509
     9.0826   9.2992   9.4431   9.6179   9.6559   9.6850   9.7482   9.7568
     9.8216   9.8790   9.9545  10.0728  10.0939  10.3320  10.4013  10.5155
    10.5464  10.7356  10.7820  10.9776  11.0273  11.1156  11.3552  11.3821
    11.5633  11.6541  11.6585  11.7759  11.7861  11.8407  11.9254  12.1266
    12.1748  12.2768  12.3248  12.5070  12.5477  12.6721  12.7962  12.8069
    12.9069  12.9312  12.9980  13.1002  13.2306  13.2778  13.3743  13.4340
    13.4810  13.6728  13.7149  13.7459  13.8935  13.9241  14.0890  14.1127
    14.1327  14.1636  14.2163  14.3386  14.3609  14.4529  14.4598  14.5315
    14.5823  14.7124  14.9127  15.0382  15.0803  15.1109  15.1767  15.2404
    15.2961  15.3999  15.4282  15.5089  15.5950  15.6395  15.7536  15.8353
    15.8691  15.8882  15.9972  16.0633  16.1304  16.2223  16.2680  16.3025
    16.4706  16.4778  16.5832  16.6803  16.7094  16.7594  16.8314  16.8963
    16.9047  16.9697  16.9974  17.0632  17.0860  17.2265  17.2469  17.3597
    17.3987  17.4905  17.6163  17.6374  17.7397  17.8656  17.8918  17.9121
    17.9211  17.9645  18.0075  18.0925  18.1129  18.2680  18.2826  18.3475
    18.3693  18.3826  18.3954  18.4987  18.5499

          k =-0.5000 0.2258 0.0000 ( 29954 PWs)   bands (ev):

   -60.5096 -60.5087 -60.2043 -59.6898 -59.6773 -59.2842 -59.2835 -58.5635
   -36.8851 -36.8795 -36.7459 -36.7337 -36.6970 -36.6967 -36.5677 -36.4387
   -36.3867 -36.1162 -36.1034 -35.9870 -35.9836 -35.8548 -35.8346 -35.6329
   -35.6323 -35.5674 -35.5660 -35.5225 -35.5185 -35.0022 -34.9508 -34.8914
   -21.8518 -21.7868 -21.1809 -20.5625 -20.5167 -20.2372 -20.1492 -20.0321
   -19.9982 -19.9648 -19.9540 -19.8620 -19.5864 -19.5559 -19.3466 -19.3050
   -19.0295 -18.9307 -17.9778  -9.6863  -9.5823  -8.2013  -8.1478  -8.0801
    -7.8310  -7.7801  -7.7598  -7.6871  -7.4879  -7.4521  -7.2771  -7.0950
    -7.0281  -6.9746  -6.8934  -6.7040  -6.6696  -6.6410  -6.5826  -6.4043
    -6.3560  -6.2188  -6.1213  -6.0737  -6.0154  -6.0041  -5.8999  -5.6735
    -5.6375  -5.5369  -5.4594  -5.4324  -5.2262  -5.2145  -5.1582  -5.1330
    -5.0460  -4.9830  -4.8580  -4.7959  -4.7641  -4.6917  -4.6376  -4.3448
    -4.2521  -4.2384  -4.1312  -4.0997  -3.9142  -3.8202  -3.7632  -3.7220
    -3.6378  -3.5881  -3.4681  -3.4664  -1.1152  -1.0187  -0.9665  -0.8572
    -0.5633  -0.3443  -0.3387  -0.2994  -0.1514  -0.0842  -0.0696   0.0260
     0.1189   0.2716   0.3010   0.6499   0.6882   0.7951   0.9144   0.9270
     0.9807   1.0294   1.0396   1.8542   1.8618   1.8901   1.9803   2.0083
     2.2351   2.3320   2.8007   2.8769   2.8994   3.1348   3.1555   3.3144
     3.4942   3.5984   3.6208   3.7510   3.9354   3.9805   4.7923   4.8057
     5.1523   5.2227   5.2713   5.5155   5.6203   5.8181   6.0208   6.1706
     6.5163   6.6003   6.7151   6.7990   6.9270   6.9563   7.0431   7.2211
     7.2825   7.4657   7.5987   7.8037   7.8917   8.0651   8.1195   8.2750
     8.3273   8.4417   8.5512   8.6417   8.7487   8.8913   9.2575   9.5070
     9.5560   9.6980   9.7330   9.8233   9.9014   9.9325  10.0106  10.1202
    10.2196  10.2942  10.3299  10.5200  10.6416  10.6806  10.7937  10.8466
    10.8703  10.9972  11.0881  11.2356  11.3104  11.3675  11.4491  11.5772
    11.6981  11.8025  11.8656  11.9236  12.0093  12.0622  12.1186  12.1837
    12.2677  12.3887  12.5633  12.5918  12.7279  12.8069  12.8633  12.9667
    13.0663  13.0976  13.2051  13.2408  13.3194  13.3592  13.4032  13.4747
    13.5089  13.5441  13.6535  13.6907  13.8967  13.9938  14.0291  14.0471
    14.0850  14.1071  14.1609  14.2707  14.3090  14.3864  14.4075  14.4617
    14.5520  14.8148  14.8464  14.9040  14.9257  14.9450  14.9910  15.0287
    15.1672  15.1833  15.2852  15.3202  15.3415  15.3568  15.4151  15.5337
    15.5490  15.5955  15.6128  15.7149  15.7393  15.8212  15.8480  15.8817
    15.9633  15.9845  16.0156  16.1134  16.2755  16.3110  16.3650  16.4343
    16.5001  16.5559  16.5808  16.6682  16.7311  16.8022  16.8598  16.9091
    16.9397  17.0175  17.1912  17.2084  17.2455  17.3266  17.3630  17.4997
    17.5478  17.6101  17.6738  17.7671  17.9451  17.9868  18.1559  18.2291
    18.2408  18.2791  18.3145  18.3932  18.4395

          k =-0.5000-0.4516 0.0000 ( 29868 PWs)   bands (ev):

   -60.5096 -60.5087 -60.2043 -59.6898 -59.6773 -59.2842 -59.2835 -58.5635
   -36.8852 -36.8796 -36.7459 -36.7337 -36.6966 -36.6962 -36.5678 -36.4394
   -36.3855 -36.1147 -36.1019 -35.9890 -35.9856 -35.8548 -35.8346 -35.6330
   -35.6322 -35.5686 -35.5649 -35.5225 -35.5184 -35.0021 -34.9495 -34.8932
   -21.8487 -21.7838 -21.1755 -20.5149 -20.4893 -20.2401 -20.1000 -20.0568
   -20.0522 -19.9411 -19.8333 -19.7881 -19.7465 -19.7390 -19.3359 -19.2923
   -19.0262 -18.9294 -17.9774  -9.6761  -9.5715  -8.1908  -8.1379  -8.0531
    -7.8412  -7.5838  -7.4707  -7.3956  -7.3201  -7.1957  -7.1007  -7.0807
    -6.9506  -6.9397  -6.9097  -6.8364  -6.7529  -6.5710  -6.5321  -6.5132
    -6.4196  -6.2961  -6.2960  -6.2172  -6.1425  -6.0230  -5.8275  -5.7417
    -5.7027  -5.6966  -5.6504  -5.6084  -5.3886  -5.3862  -5.3246  -5.2365
    -5.1475  -4.9931  -4.9554  -4.7957  -4.7018  -4.6564  -4.6166  -4.3941
    -4.2369  -4.2116  -4.1787  -4.0726  -4.0196  -3.7762  -3.7555  -3.7192
    -3.5664  -3.5400  -3.4832  -3.4207  -1.0985  -1.0587  -1.0027  -0.8789
    -0.6590  -0.3575  -0.3093  -0.2618  -0.0648   0.0698   0.1353   0.1470
     0.1893   0.4163   0.4377   0.5671   0.6853   0.8721   0.9187   1.0046
     1.0069   1.0324   1.0375   1.6645   1.6787   1.7748   1.9200   2.1308
     2.2357   2.2545   2.5148   2.9581   2.9979   3.0445   3.1043   3.4594
     3.5707   3.7985   3.8337   3.8512   4.0317   4.0348   4.6699   4.6844
     5.4491   5.4601   5.4760   5.6454   5.6489   6.0150   6.0282   6.1245
     6.1491   6.3491   6.3711   6.5000   6.5751   6.7252   6.8802   6.9993
     7.2155   7.3026   7.3945   7.6219   7.6582   7.7114   7.7631   7.8678
     8.1507   8.5140   8.7033   8.8133   8.8742   8.9863   9.0786   9.1349
     9.2108   9.3094   9.8652   9.9669   9.9838  10.3360  10.4216  10.5002
    10.5812  10.5983  10.8412  10.8710  10.9183  10.9625  11.2973  11.5367
    11.5817  11.6240  11.6584  11.7159  11.8672  12.0022  12.0587  12.0662
    12.1020  12.1853  12.1962  12.3087  12.3237  12.4293  12.4851  12.5237
    12.5274  12.6514  12.6610  12.7439  12.7907  12.8850  12.9156  13.0145
    13.0231  13.0835  13.1265  13.1821  13.2098  13.2324  13.3244  13.3390
    13.4898  13.6069  13.6265  13.6590  13.7423  13.7956  13.8003  13.8720
    13.8810  13.9063  13.9962  14.0958  14.1305  14.1376  14.2258  14.2640
    14.4491  14.4632  14.4956  14.5024  14.5712  14.5964  14.6307  14.6489
    14.6779  14.7878  14.8313  14.9981  15.0200  15.0269  15.0397  15.1073
    15.1387  15.1574  15.1689  15.3467  15.4321  15.5134  15.5819  15.6367
    15.7646  15.8011  15.8171  15.8951  15.9794  16.0227  16.0379  16.1036
    16.1224  16.1871  16.2960  16.3829  16.4073  16.4684  16.5205  16.5556
    16.8636  16.9624  17.0292  17.1180  17.1378  17.2009  17.2488  17.2907
    17.3763  17.4284  17.4886  17.5809  17.6095  17.8095  17.9125  17.9420
    17.9948  18.0908  18.1316  18.2168  18.2761

          k =-0.2500 0.2258 0.0000 ( 29912 PWs)   bands (ev):

   -60.5231 -60.4951 -60.2044 -59.6993 -59.6678 -59.2986 -59.2691 -58.5635
   -37.0308 -36.7915 -36.7385 -36.7090 -36.6858 -36.6772 -36.5686 -36.4457
   -36.3872 -36.2681 -36.0231 -35.9475 -35.9460 -35.8613 -35.8336 -35.7829
   -35.5789 -35.5761 -35.5542 -35.4977 -35.4382 -35.0034 -34.9413 -34.8908
   -21.9775 -21.7380 -21.1389 -20.8136 -20.3226 -20.2857 -20.2562 -20.2010
   -19.9948 -19.8715 -19.7842 -19.7676 -19.6851 -19.5517 -19.3582 -19.2816
   -18.9426 -18.8512 -17.9788  -9.7820  -9.5005  -8.5713  -8.3357  -8.1213
    -7.8944  -7.7640  -7.7149  -7.6210  -7.4155  -7.3553  -7.2713  -7.2193
    -7.0816  -6.9898  -6.9520  -6.8893  -6.7992  -6.6678  -6.5881  -6.5417
    -6.3618  -6.2348  -6.1274  -6.0094  -5.8433  -5.7787  -5.7139  -5.5948
    -5.5555  -5.4495  -5.4166  -5.3570  -5.2755  -5.1987  -5.1206  -5.0292
    -4.9889  -4.9319  -4.8727  -4.7716  -4.6847  -4.5352  -4.4810  -4.2994
    -4.2391  -4.1694  -4.1382  -4.0461  -4.0069  -3.9413  -3.7828  -3.7190
    -3.6321  -3.5756  -3.5122  -3.3702  -1.1242  -1.0945  -0.9871  -0.8606
    -0.5526  -0.4780  -0.4219  -0.3709  -0.2542  -0.0636   0.0091   0.1096
     0.1543   0.1903   0.3965   0.4866   0.5837   0.7012   0.8388   0.8923
     1.0167   1.1274   1.1589   1.6289   1.9194   1.9452   2.0375   2.0532
     2.2451   2.3249   2.6645   2.8189   2.9926   3.1956   3.2369   3.2705
     3.4644   3.6049   3.8284   3.9030   3.9507   4.0651   4.4718   4.6305
     4.7061   4.8713   5.2277   5.7916   5.9037   5.9952   6.1765   6.2965
     6.3573   6.5517   6.7341   6.8947   7.0207   7.2604   7.3087   7.4286
     7.6214   7.6912   7.7743   7.9076   7.9337   8.0327   8.2096   8.3396
     8.4896   8.6822   8.7480   8.8261   8.9985   9.1529   9.2248   9.2903
     9.3798   9.4828   9.5896   9.6204   9.7197   9.8486   9.8953  10.0320
    10.1221  10.2634  10.3368  10.4944  10.5820  10.6936  10.8001  10.8357
    10.9369  11.0020  11.0643  11.1309  11.1733  11.2922  11.3678  11.4239
    11.4623  11.5281  11.6890  11.7152  11.8058  11.8849  11.9409  12.0209
    12.0713  12.1100  12.1746  12.3112  12.4058  12.4585  12.5019  12.5773
    12.6142  12.7646  12.8098  12.9132  12.9669  12.9915  13.0930  13.2301
    13.3330  13.3669  13.4368  13.4820  13.5900  13.6656  13.7467  13.8186
    13.8576  13.9233  14.0123  14.0830  14.1663  14.1778  14.3315  14.3918
    14.4677  14.5616  14.6147  14.6520  14.7411  14.7776  14.8951  15.0188
    15.0892  15.1866  15.2380  15.3061  15.3983  15.4679  15.4983  15.5797
    15.6341  15.7094  15.7667  15.8457  15.8748  16.0065  16.0714  16.1028
    16.1653  16.2212  16.3398  16.3835  16.4619  16.6209  16.6792  16.7271
    16.7879  16.8470  16.8869  16.9317  16.9713  17.0952  17.1223  17.1914
    17.2646  17.3256  17.4352  17.4921  17.5443  17.6093  17.6419  17.7181
    17.7606  17.8576  17.9693  18.0316  18.1415  18.2006  18.2546  18.3083
    18.4052  18.4771  18.5821  18.6080  18.6501

     the Fermi energy is    -3.4582 ev

!    total energy              =   -1566.94254624 Ry
     Harris-Foulkes estimate   =   -1566.94254656 Ry
     estimated scf accuracy    <       0.00000037 Ry

     The total energy is the sum of the following terms:

     one-electron contribution =  -18649.31241501 Ry
     hartree contribution      =    9340.54418988 Ry
     xc contribution           =    -276.82437743 Ry
     ewald contribution        =    8018.64981972 Ry
     smearing contrib. (-TS)   =       0.00023659 Ry

     convergence has been achieved in  25 iterations

     Forces acting on atoms (Ry/au):


     negative rho (up, down):  0.102E+00 0.000E+00
     atom    1 type  1   force =    -0.00000931   -0.01222567    0.00009455
     atom    2 type  1   force =     0.00007878    0.01879405    0.00019227
     atom    3 type  2   force =     0.06461833   -0.01244701   -0.00295348
     atom    4 type  2   force =    -0.00324541    0.00587149   -0.00574379
     atom    5 type  1   force =    -0.00240356   -0.06720974   -0.00089635
     atom    6 type  1   force =    -0.00459274    0.06839975   -0.00005490
     atom    7 type  1   force =    -0.00000294    0.00092088    0.00836965
     atom    8 type  1   force =     0.00209036   -0.00134534    0.00524124
     atom    9 type  2   force =     0.00816050    0.00017608    0.00080146
     atom   10 type  2   force =     0.00001350    0.00019911    0.01270610
     atom   11 type  1   force =    -0.03749002    0.00099098   -0.00089994
     atom   12 type  1   force =    -0.03736858   -0.00062280   -0.00027468
     atom   13 type  1   force =     0.00020472    0.00017738    0.00517090
     atom   14 type  1   force =    -0.00185129   -0.01123273   -0.00498722
     atom   15 type  1   force =    -0.00003512    0.01523394   -0.00322682
     atom   16 type  2   force =    -0.06422885   -0.01245495   -0.00295520
     atom   17 type  2   force =    -0.00437314    0.00519038   -0.00681107
     atom   18 type  1   force =     0.00637393   -0.06708198   -0.00050688
     atom   19 type  1   force =     0.00488491    0.06882223   -0.00096647
     atom   20 type  1   force =    -0.00031527    0.00002709   -0.00274945
     atom   21 type  1   force =     0.00223480   -0.00099642   -0.00194913
     atom   22 type  2   force =    -0.00865303   -0.00008291    0.00084017
     atom   23 type  2   force =    -0.00004983   -0.00010284   -0.01338254
     atom   24 type  1   force =     0.03750579    0.00108430   -0.00037472
     atom   25 type  1   force =     0.03727532   -0.00068221   -0.00082609
     atom   26 type  1   force =     0.00020914   -0.00010015    0.00136738
     atom   27 type  3   force =    -0.00007626   -0.00182874   -0.00095894
     atom   28 type  3   force =     0.00005449   -0.00030408   -0.00351410
     atom   29 type  3   force =    -0.00045976    0.00151689    0.00133987
     atom   30 type  3   force =     0.00141012    0.00138094    0.00010359
     atom   31 type  1   force =     0.00004044   -0.00006790    0.01780460

     Total force =     0.030938     Total SCF correction =     0.002532

     BFGS Geometry Optimization

     number of scf cycles    =   1
     number of bfgs steps    =   0

     energy   new            =   -1566.9425462416 Ry

     new trust radius        =       0.0178047743 bohr
     new conv_thr            =       0.0000010000 Ry


ATOMIC_POSITIONS (crystal)
O0       0.000000000   0.000000000   0.378111883    0   0   1
O0       0.000000000   0.500000000   0.397703828    0   0   1
Ti1      0.250000000   0.500000000   0.449981191    0   0   1
Ti1      0.000000000   0.000000000   0.452485631    0   0   1
O0       0.250000000   0.810000000   0.449872152    0   0   1
O0       0.250000000   0.190000000   0.450508907    0   0   1
O0       0.000000000   0.500000000   0.496706655    0   0   1
O0       0.000000000   0.000000000   0.525234362    0   0   1
Ti1      0.250000000   0.000000000   0.581205958    0   0   1
Ti1      0.000000000   0.500000000   0.567283001    0   0   1
O0       0.250000000   0.690000000   0.579382081    0   0   1
O0       0.250000000   0.310000000   0.579184531    0   0   1
O0       0.000000000   0.000000000   0.622072962    0   0   1
O0       0.500000000   0.000000000   0.379450696    0   0   1
O0       0.500000000   0.500000000   0.397305748    0   0   1
Ti1      0.750000000   0.500000000   0.449991157    0   0   1
Ti1      0.500000000   0.000000000   0.453874380    0   0   1
O0       0.750000000   0.810000000   0.449719907    0   0   1
O0       0.750000000   0.190000000   0.450670756    0   0   1
O0       0.500000000   0.500000000   0.492085254    0   0   1
O0       0.500000000   0.000000000   0.525971189    0   0   1
Ti1      0.750000000   0.000000000   0.581196729    0   0   1
Ti1      0.500000000   0.500000000   0.596163530    0   0   1
O0       0.750000000   0.690000000   0.579302539    0   0   1
O0       0.750000000   0.310000000   0.579293551    0   0   1
O0       0.500000000   0.000000000   0.621617227    0   0   1
H2      -0.000756794   0.623962842   0.376630906
H2       0.499174854   0.622365531   0.375800028
H2       0.149259042   0.028802064   0.363266679
H2       0.648675624   0.029331124   0.364462063
O0       0.499723602   0.499994536   0.659514521


     Check: negative starting charge=   -0.102580
     NEW-OLD atomic charge density approx. for the potential

     Check: negative/imaginary core charge=   -0.000006    0.000000
     Check: negative starting charge=   -0.102437

     negative rho (up, down):  0.102E+00 0.000E+00

     total cpu time spent up to now is     4732.7 secs

     per-process dynamical memory:   196.7 Mb

     Self-consistent Calculation

     iteration #  1     ecut=    40.00 Ry     beta=0.30
     Davidson diagonalization with overlap
     ethr =  1.00E-06,  avg # of iterations =  3.3

     negative rho (up, down):  0.102E+00 0.000E+00

     total cpu time spent up to now is     4998.1 secs

     total energy              =   -1566.88796830 Ry
     Harris-Foulkes estimate   =   -1566.94471830 Ry
     estimated scf accuracy    <       0.11525635 Ry

     iteration #  2     ecut=    40.00 Ry     beta=0.30
     Davidson diagonalization with overlap
     ethr =  5.39E-05,  avg # of iterations =  4.7

     negative rho (up, down):  0.102E+00 0.000E+00

     total cpu time spent up to now is     5214.0 secs

     total energy              =   -1566.91209971 Ry
     Harris-Foulkes estimate   =   -1567.12872402 Ry
     estimated scf accuracy    <       2.14662627 Ry

     iteration #  3     ecut=    40.00 Ry     beta=0.30
     Davidson diagonalization with overlap
     ethr =  5.39E-05,  avg # of iterations =  5.1

     negative rho (up, down):  0.102E+00 0.000E+00

     total cpu time spent up to now is     5431.3 secs

     total energy              =   -1566.94343189 Ry
     Harris-Foulkes estimate   =   -1566.96784762 Ry
     estimated scf accuracy    <       0.34549100 Ry

     iteration #  4     ecut=    40.00 Ry     beta=0.30
     Davidson diagonalization with overlap
     ethr =  5.39E-05,  avg # of iterations =  1.1

     negative rho (up, down):  0.102E+00 0.000E+00

     total cpu time spent up to now is     5593.0 secs

     total energy              =   -1566.94038638 Ry
     Harris-Foulkes estimate   =   -1566.94976381 Ry
     estimated scf accuracy    <       0.23866072 Ry

     iteration #  5     ecut=    40.00 Ry     beta=0.30
     Davidson diagonalization with overlap
     ethr =  5.39E-05,  avg # of iterations =  1.0

     negative rho (up, down):  0.102E+00 0.000E+00

     total cpu time spent up to now is     5753.8 secs

     total energy              =   -1566.94330494 Ry
     Harris-Foulkes estimate   =   -1566.94380095 Ry
     estimated scf accuracy    <       0.01130985 Ry

     iteration #  6     ecut=    40.00 Ry     beta=0.30
     Davidson diagonalization with overlap
     ethr =  5.28E-06,  avg # of iterations =  6.6

     negative rho (up, down):  0.102E+00 0.000E+00

     total cpu time spent up to now is     5973.3 secs

     total energy              =   -1566.94321940 Ry
     Harris-Foulkes estimate   =   -1566.94356869 Ry
     estimated scf accuracy    <       0.01776965 Ry

     iteration #  7     ecut=    40.00 Ry     beta=0.30
     Davidson diagonalization with overlap
     ethr =  5.28E-06,  avg # of iterations =  1.0

     negative rho (up, down):  0.102E+00 0.000E+00

     total cpu time spent up to now is     6134.1 secs

     total energy              =   -1566.94301432 Ry
     Harris-Foulkes estimate   =   -1566.94330741 Ry
     estimated scf accuracy    <       0.00851011 Ry

     iteration #  8     ecut=    40.00 Ry     beta=0.30
     Davidson diagonalization with overlap
     ethr =  3.98E-06,  avg # of iterations =  1.0

     negative rho (up, down):  0.102E+00 0.000E+00

     total cpu time spent up to now is     6294.8 secs

     total energy              =   -1566.94315024 Ry
     Harris-Foulkes estimate   =   -1566.94316726 Ry
     estimated scf accuracy    <       0.00020522 Ry

     iteration #  9     ecut=    40.00 Ry     beta=0.30
     Davidson diagonalization with overlap
     ethr =  9.59E-08,  avg # of iterations =  1.0

     negative rho (up, down):  0.102E+00 0.000E+00

     total cpu time spent up to now is     6455.6 secs

     total energy              =   -1566.94314870 Ry
     Harris-Foulkes estimate   =   -1566.94316760 Ry
     estimated scf accuracy    <       0.00050423 Ry

     iteration # 10     ecut=    40.00 Ry     beta=0.30
     Davidson diagonalization with overlap
     ethr =  9.59E-08,  avg # of iterations =  1.0

     negative rho (up, down):  0.102E+00 0.000E+00

     total cpu time spent up to now is     6616.5 secs

     total energy              =   -1566.94315911 Ry
     Harris-Foulkes estimate   =   -1566.94316164 Ry
     estimated scf accuracy    <       0.00006503 Ry

     iteration # 11     ecut=    40.00 Ry     beta=0.30
     Davidson diagonalization with overlap
     ethr =  3.04E-08,  avg # of iterations =  1.0

     negative rho (up, down):  0.102E+00 0.000E+00

     total cpu time spent up to now is     6777.5 secs

     total energy              =   -1566.94316050 Ry
     Harris-Foulkes estimate   =   -1566.94316090 Ry
     estimated scf accuracy    <       0.00000411 Ry

     iteration # 12     ecut=    40.00 Ry     beta=0.30
     Davidson diagonalization with overlap
     ethr =  1.92E-09,  avg # of iterations =  1.0

     negative rho (up, down):  0.102E+00 0.000E+00

     total cpu time spent up to now is     6938.5 secs

     total energy              =   -1566.94316070 Ry
     Harris-Foulkes estimate   =   -1566.94316078 Ry
     estimated scf accuracy    <       0.00000177 Ry

     iteration # 13     ecut=    40.00 Ry     beta=0.30
     Davidson diagonalization with overlap
     ethr =  8.27E-10,  avg # of iterations =  1.0

     negative rho (up, down):  0.102E+00 0.000E+00

     total cpu time spent up to now is     7099.7 secs

     total energy              =   -1566.94316079 Ry
     Harris-Foulkes estimate   =   -1566.94316083 Ry
     estimated scf accuracy    <       0.00000137 Ry

     iteration # 14     ecut=    40.00 Ry     beta=0.30
     Davidson diagonalization with overlap
     ethr =  6.39E-10,  avg # of iterations =  1.0

     negative rho (up, down):  0.102E+00 0.000E+00

     total cpu time spent up to now is     7253.3 secs

     End of self-consistent calculation

          k = 0.0000 0.0000 0.0000 ( 29975 PWs)   bands (ev):

   -60.5292 -60.4896 -60.2121 -59.7017 -59.6601 -59.3009 -59.2593 -58.6434
   -37.0905 -36.8027 -36.7172 -36.7077 -36.6770 -36.6282 -36.5746 -36.4629
   -36.3972 -36.3338 -36.0316 -35.9292 -35.8772 -35.8633 -35.8534 -35.8094
   -35.5824 -35.5797 -35.5476 -35.4801 -35.3650 -35.0465 -35.0122 -34.9674
   -22.0707 -21.7370 -21.1111 -20.9311 -20.4820 -20.3885 -20.1606 -20.1519
   -19.9441 -19.9032 -19.6849 -19.6499 -19.6379 -19.6322 -19.3101 -19.2989
   -18.8664 -18.7652 -18.0181  -9.8518  -9.4394  -8.7966  -8.7461  -8.1064
    -8.0669  -7.9993  -7.6752  -7.5164  -7.4230  -7.3396  -7.3196  -7.2485
    -7.0959  -7.0597  -6.9808  -6.9279  -6.8783  -6.8607  -6.6254  -6.5825
    -6.4283  -6.2345  -6.1046  -5.9774  -5.9605  -5.8347  -5.6032  -5.5296
    -5.4187  -5.3791  -5.3552  -5.3114  -5.1271  -5.1084  -5.0810  -4.9041
    -4.8176  -4.6938  -4.6110  -4.4594  -4.4358  -4.4164  -4.3745  -4.3519
    -4.2663  -4.1420  -4.0867  -4.0367  -3.8399  -3.8144  -3.7292  -3.6257
    -3.5840  -3.5645  -3.4066  -3.2485  -1.2803  -1.0862  -0.9541  -0.9393
    -0.8722  -0.7424  -0.5013  -0.2170  -0.1975  -0.1322  -0.0863   0.1365
     0.1678   0.1961   0.1970   0.3791   0.4211   0.6000   0.7471   0.7961
     0.9929   1.2021   1.2811   1.7437   1.7744   1.8851   1.9943   2.0290
     2.2500   2.4383   2.5539   2.6897   2.8893   3.0141   3.0658   3.3779
     3.5684   3.5986   3.6666   3.7880   3.8941   3.9805   4.2350   4.2980
     4.6895   5.1347   5.5583   5.6250   5.7025   6.0825   6.1710   6.6973
     6.9578   7.1190   7.1717   7.3152   7.3783   7.5320   7.5605   7.7344
     7.8114   7.8579   7.9503   8.1082   8.2074   8.2197   8.2852   8.4380
     8.5371   8.5771   8.6502   8.7615   8.8541   8.8654   8.9641   9.0305
     9.0748   9.2334   9.3594   9.4132   9.4290   9.6168   9.7906   9.8681
     9.9414  10.0821  10.3550  10.4808  10.5778  10.6241  10.7092  10.7163
    10.8188  10.9506  10.9759  11.0577  11.1247  11.1454  11.2391  11.2942
    11.3260  11.3660  11.3962  11.4826  11.5490  11.6384  11.7099  11.7492
    11.8735  11.9474  11.9679  12.0489  12.1380  12.1645  12.2332  12.3011
    12.3542  12.4239  12.4984  12.5398  12.6252  12.6681  12.8054  12.8447
    12.9566  13.0119  13.1167  13.2837  13.2976  13.3343  13.3992  13.6048
    13.6167  13.7046  13.7703  13.7950  13.9240  14.0058  14.0315  14.0947
    14.2122  14.4075  14.4987  14.5517  14.6742  14.7247  14.8163  14.8635
    14.8765  15.0451  15.0729  15.1338  15.2659  15.3708  15.4633  15.5492
    15.5782  15.6455  15.8820  16.0836  16.0843  16.2607  16.2951  16.3553
    16.4093  16.4298  16.5652  16.5827  16.7448  16.8714  16.9114  17.0697
    17.1485  17.2091  17.4069  17.4954  17.5319  17.5807  17.5995  17.6340
    17.6887  17.7378  17.8826  17.9076  18.0349  18.1078  18.1366  18.1675
    18.2192  18.2519  18.2779  18.3548  18.4242  18.5351  18.6295  18.7170
    18.7535  18.8652  18.9002  18.9899  19.0804

          k = 0.0000 0.2258 0.0000 ( 29933 PWs)   bands (ev):

   -60.5292 -60.4896 -60.2121 -59.7017 -59.6601 -59.3009 -59.2593 -58.6434
   -37.0907 -36.8027 -36.7136 -36.7077 -36.6811 -36.6281 -36.5746 -36.4636
   -36.3960 -36.3292 -36.0358 -35.9290 -35.8773 -35.8633 -35.8534 -35.8095
   -35.5825 -35.5797 -35.5476 -35.4801 -35.3650 -35.0464 -35.0111 -34.9692
   -22.0591 -21.7362 -21.0879 -20.9144 -20.3882 -20.3631 -20.2764 -20.1578
   -19.9780 -19.8021 -19.7781 -19.7662 -19.7003 -19.4911 -19.3393 -19.2974
   -18.8643 -18.7640 -18.0182  -9.8500  -9.4524  -8.7827  -8.5014  -8.0452
    -7.9969  -7.8925  -7.8306  -7.5342  -7.4413  -7.3979  -7.2818  -7.2544
    -7.0540  -6.9873  -6.9137  -6.8025  -6.7534  -6.5812  -6.5650  -6.4933
    -6.4804  -6.2358  -6.1698  -6.0689  -5.9338  -5.8187  -5.6683  -5.6270
    -5.5436  -5.5013  -5.4554  -5.3408  -5.1997  -5.1009  -5.0813  -4.8535
    -4.8133  -4.7862  -4.6857  -4.6766  -4.5700  -4.5232  -4.4188  -4.2390
    -4.2075  -4.1521  -4.0504  -4.0293  -4.0225  -3.8785  -3.8475  -3.6838
    -3.6111  -3.5847  -3.5309  -3.3328  -1.2021  -1.1934  -0.9351  -0.8915
    -0.6386  -0.5427  -0.5217  -0.4495  -0.2077  -0.1106   0.0945   0.1115
     0.1714   0.2037   0.3501   0.3642   0.5528   0.6361   0.7066   0.8106
     1.0092   1.2042   1.2460   1.5541   1.9087   1.9178   1.9626   2.0128
     2.1995   2.4672   2.5052   2.6608   2.9439   3.3522   3.4093   3.4230
     3.4847   3.6385   3.7218   3.8177   3.9367   4.1670   4.2422   4.3695
     4.5838   4.9292   5.5229   5.6720   5.7460   5.8863   6.0397   6.2866
     6.2992   6.6513   6.9663   7.1101   7.1490   7.3395   7.4554   7.7280
     7.7747   8.0569   8.2226   8.2880   8.3790   8.4220   8.6263   8.6604
     8.7083   8.7667   8.8709   8.9131   8.9255   9.0177   9.1179   9.2242
     9.4014   9.4421   9.4914   9.5657   9.6909   9.7210   9.8210   9.8855
     9.9118  10.0324  10.1037  10.2535  10.2831  10.3863  10.4780  10.5063
    10.5884  10.6941  10.7917  10.8426  10.9437  11.0397  11.0749  11.1253
    11.1832  11.2040  11.3777  11.5157  11.5647  11.6375  11.7620  11.8402
    11.8895  12.1024  12.2400  12.2793  12.3569  12.3919  12.4945  12.5660
    12.5880  12.6336  12.7236  12.8082  12.9739  12.9828  13.1038  13.1944
    13.2916  13.3213  13.4341  13.4708  13.5428  13.5751  13.7065  13.7719
    13.8098  13.8191  13.8882  13.9155  13.9766  14.0871  14.1145  14.1769
    14.3213  14.3866  14.4034  14.5336  14.5476  14.6301  14.7119  14.7922
    14.8867  14.9502  15.0338  15.0920  15.1601  15.2362  15.3655  15.4214
    15.4340  15.5307  15.5895  15.6912  15.7837  15.8836  16.0395  16.0984
    16.1610  16.3597  16.3990  16.4327  16.5424  16.6041  16.6578  16.7431
    16.7960  16.9049  16.9851  17.1247  17.1507  17.1733  17.4990  17.6241
    17.6442  17.6809  17.7062  17.7969  17.8758  17.9988  18.0867  18.1602
    18.2104  18.2719  18.3046  18.4066  18.4191  18.5476  18.6141  18.6645
    18.7392  18.8162  18.9084  18.9350  19.0217

          k = 0.0000-0.4516 0.0000 ( 29906 PWs)   bands (ev):

   -60.5292 -60.4896 -60.2121 -59.7017 -59.6601 -59.3009 -59.2593 -58.6434
   -37.0908 -36.8026 -36.7100 -36.7077 -36.6852 -36.6281 -36.5747 -36.4644
   -36.3949 -36.3247 -36.0401 -35.9288 -35.8773 -35.8633 -35.8534 -35.8094
   -35.5825 -35.5797 -35.5475 -35.4801 -35.3650 -35.0462 -35.0101 -34.9711
   -22.0477 -21.7354 -21.0667 -20.8924 -20.3538 -20.3262 -20.2341 -20.1590
   -20.0108 -19.9639 -19.8560 -19.7534 -19.6915 -19.4291 -19.3584 -19.2976
   -18.8627 -18.7628 -18.0183  -9.8461  -9.4659  -8.7689  -8.2631  -8.0504
    -7.9942  -7.8979  -7.6240  -7.5320  -7.4978  -7.3895  -7.1204  -7.0971
    -7.0878  -7.0095  -6.8267  -6.6888  -6.6588  -6.5922  -6.4719  -6.3080
    -6.2470  -6.2316  -6.2124  -6.0802  -6.0339  -6.0317  -5.8678  -5.7836
    -5.7335  -5.6403  -5.5044  -5.4976  -5.3390  -5.0506  -5.0167  -4.9277
    -4.8936  -4.7852  -4.7131  -4.6444  -4.6322  -4.5791  -4.4487  -4.3169
    -4.2753  -4.2235  -4.1514  -4.0457  -3.9713  -3.8551  -3.8267  -3.6834
    -3.6748  -3.6569  -3.5505  -3.4059  -1.4198  -1.1668  -0.9637  -0.7158
    -0.7029  -0.4808  -0.3725  -0.3669  -0.1857  -0.0536   0.0260   0.1748
     0.2097   0.2926   0.3186   0.4677   0.6058   0.6097   0.6880   0.9052
     1.0010   1.2085   1.2539   1.3957   1.8307   1.8788   2.0261   2.1252
     2.1507   2.4925   2.6507   2.6807   3.0598   3.3392   3.3501   3.4658
     3.6315   3.6497   3.8522   3.8771   3.9805   4.2474   4.4038   4.5760
     4.6958   4.9953   5.1196   5.3522   5.5527   5.7967   5.8060   6.2540
     6.3596   6.5502   6.5857   6.6933   6.7448   7.2627   7.7159   7.7947
     7.9432   8.0174   8.2836   8.3024   8.3909   8.4928   8.6757   8.7963
     8.8828   8.9134   8.9344   8.9905   9.0131   9.1653   9.2079   9.2676
     9.3264   9.3763   9.4764   9.4812   9.5882   9.6143   9.7877   9.8751
     9.9565  10.0452  10.0663  10.1735  10.3642  10.5603  10.6184  10.6626
    10.7114  10.8392  10.9890  11.0201  11.0728  11.1266  11.1707  11.2561
    11.4248  11.4344  11.5463  11.7287  11.7739  11.8266  11.8481  11.8914
    11.9062  12.0204  12.0429  12.0712  12.2332  12.3383  12.4415  12.4657
    12.6906  12.6999  12.7534  12.8762  12.9114  12.9638  13.0047  13.0853
    13.1784  13.1951  13.2665  13.4600  13.4988  13.5721  13.6518  13.6843
    13.7620  13.7967  13.9275  13.9559  14.0680  14.1482  14.2130  14.4799
    14.6247  14.6629  14.6804  14.7198  14.7563  14.7851  14.8267  14.8564
    15.1744  15.2140  15.2180  15.2597  15.3167  15.4037  15.4189  15.5464
    15.6087  15.6459  15.6774  15.7803  15.8109  15.8995  16.0108  16.0897
    16.1163  16.1283  16.2856  16.3609  16.4137  16.4922  16.5934  16.6462
    16.7009  16.8541  16.8789  16.9528  17.0071  17.0565  17.1586  17.1953
    17.3235  17.3329  17.5281  17.5621  17.6008  17.6674  17.7306  17.7622
    17.7773  17.8173  17.9633  17.9930  18.0058  18.0221  18.1036  18.1424
    18.1949  18.5237  18.5619  18.6461  18.6786

          k = 0.2500 0.0000 0.0000 ( 29937 PWs)   bands (ev):

   -60.5234 -60.4954 -60.2121 -59.6959 -59.6660 -59.2949 -59.2654 -58.6435
   -37.0289 -36.7909 -36.7368 -36.7112 -36.6830 -36.6783 -36.5734 -36.4554
   -36.3966 -36.2688 -36.0171 -35.9445 -35.9437 -35.8555 -35.8302 -35.7773
   -35.5777 -35.5709 -35.5526 -35.4925 -35.4330 -35.0459 -35.0218 -34.9680
   -21.9906 -21.7449 -21.1260 -20.8374 -20.3760 -20.3313 -20.2759 -20.0827
   -20.0297 -19.9147 -19.7548 -19.7136 -19.6019 -19.5743 -19.3581 -19.2683
   -18.9301 -18.8421 -18.0173  -9.7903  -9.5057  -8.5884  -8.5579  -8.1363
    -7.9699  -7.8491  -7.7142  -7.6240  -7.5321  -7.4429  -7.3160  -7.1753
    -7.0777  -7.0172  -6.9506  -6.9383  -6.8945  -6.7270  -6.6967  -6.5530
    -6.3071  -6.2180  -6.1102  -6.0086  -5.8067  -5.7052  -5.6581  -5.5580
    -5.5138  -5.4461  -5.3420  -5.2767  -5.1231  -5.0377  -4.9987  -4.9673
    -4.9231  -4.8524  -4.8002  -4.6470  -4.6277  -4.5532  -4.4872  -4.3033
    -4.2318  -4.1886  -4.0972  -4.0203  -3.9431  -3.8043  -3.7670  -3.6716
    -3.5942  -3.5771  -3.5315  -3.3336  -1.1510  -1.0336  -0.9623  -0.8657
    -0.7713  -0.6200  -0.4371  -0.2727  -0.2605  -0.1411  -0.0179   0.0377
     0.0867   0.1362   0.3039   0.4289   0.4342   0.7671   0.7871   0.8553
     1.0053   1.1361   1.1894   1.7614   1.8330   1.8803   1.9995   2.0035
     2.2812   2.5836   2.6303   2.7248   2.9594   2.9700   3.0993   3.3583
     3.4062   3.4567   3.7578   3.8239   3.8464   3.9471   4.2870   4.5694
     4.6034   4.9555   5.4098   5.8429   5.8939   5.9841   6.3207   6.3397
     6.5468   6.8306   7.0410   7.2336   7.3320   7.4253   7.4421   7.5722
     7.6957   7.7695   7.8215   8.0151   8.0802   8.1971   8.2265   8.3251
     8.4616   8.6589   8.8451   8.8928   8.9430   9.0787   9.1042   9.1734
     9.2721   9.4577   9.4884   9.5538   9.5993   9.6983   9.8655   9.9601
    10.0121  10.0510  10.1491  10.2976  10.3298  10.4865  10.5234  10.6142
    10.7000  10.7919  10.8379  10.8760  10.9631  11.0319  11.0451  11.1944
    11.2595  11.3618  11.4184  11.4700  11.5947  11.6033  11.6955  11.7360
    11.9073  11.9847  12.0965  12.1959  12.2270  12.4182  12.5202  12.5301
    12.6611  12.7155  12.7813  12.8766  12.9540  13.0390  13.1251  13.2774
    13.3419  13.4128  13.5174  13.5788  13.7020  13.7177  13.8165  13.8728
    13.9772  14.0555  14.1313  14.2196  14.2924  14.3623  14.4224  14.4894
    14.5293  14.6317  14.6879  14.7370  14.7674  14.8377  14.9587  15.0356
    15.1253  15.1509  15.2751  15.3354  15.3639  15.4070  15.5760  15.6218
    15.6703  15.7420  15.8464  15.8746  15.9816  16.0508  16.1449  16.2795
    16.3387  16.4913  16.5788  16.6346  16.6760  16.7829  16.8249  16.8773
    16.9848  17.0728  17.1349  17.1787  17.2981  17.3784  17.4356  17.4659
    17.5363  17.5780  17.7074  17.8077  17.8597  17.8867  17.9132  18.0259
    18.0937  18.1670  18.2220  18.3031  18.3374  18.4079  18.4704  18.5326
    18.5792  18.6960  18.7733  18.8333  18.9002

          k = 0.2500 0.2258 0.0000 ( 29912 PWs)   bands (ev):

   -60.5234 -60.4954 -60.2121 -59.6959 -59.6660 -59.2949 -59.2654 -58.6435
   -37.0291 -36.7909 -36.7368 -36.7085 -36.6854 -36.6784 -36.5735 -36.4561
   -36.3955 -36.2654 -36.0208 -35.9449 -35.9432 -35.8555 -35.8302 -35.7773
   -35.5775 -35.5709 -35.5528 -35.4925 -35.4330 -35.0458 -35.0206 -34.9699
   -21.9822 -21.7439 -21.1148 -20.8078 -20.3251 -20.2855 -20.2651 -20.1925
   -19.9939 -19.8689 -19.7943 -19.7678 -19.6813 -19.5683 -19.3642 -19.2673
   -18.9285 -18.8415 -18.0171  -9.7859  -9.5017  -8.5791  -8.3274  -8.0979
    -7.8678  -7.7618  -7.7181  -7.6176  -7.4068  -7.3528  -7.2813  -7.2281
    -7.0907  -7.0071  -6.9099  -6.8900  -6.8090  -6.7065  -6.5963  -6.5264
    -6.3518  -6.2448  -6.1112  -5.9928  -5.8407  -5.7459  -5.6945  -5.5773
    -5.5524  -5.4894  -5.4281  -5.3181  -5.2693  -5.2048  -5.1407  -5.0622
    -5.0150  -4.9198  -4.8554  -4.7362  -4.6855  -4.5546  -4.5097  -4.3046
    -4.2658  -4.1703  -4.1502  -4.0294  -3.9842  -3.9155  -3.7825  -3.6916
    -3.6316  -3.5503  -3.5162  -3.3604  -1.1376  -1.0996  -0.9886  -0.8580
    -0.5545  -0.4769  -0.4286  -0.3683  -0.2444  -0.0635   0.0033   0.1040
     0.1451   0.1917   0.4026   0.4758   0.5566   0.6993   0.8363   0.8923
     1.0044   1.1217   1.1496   1.6257   1.8733   1.9176   1.9444   2.0349
     2.2053   2.3142   2.6680   2.8173   2.9805   3.1888   3.2348   3.2696
     3.4361   3.5605   3.7586   3.9008   3.9469   4.0668   4.4677   4.6212
     4.7006   4.8734   5.2337   5.7865   5.9402   6.0013   6.1766   6.2958
     6.3741   6.5476   6.7315   6.8869   7.0037   7.2622   7.2976   7.4420
     7.6306   7.6937   7.7593   7.9015   7.9421   8.0397   8.2087   8.3189
     8.5058   8.6547   8.7456   8.8335   8.9938   9.1534   9.2306   9.2754
     9.3873   9.5034   9.5978   9.6340   9.7196   9.8642   9.9441   9.9972
    10.0632  10.2597  10.3629  10.4814  10.5791  10.6975  10.7946  10.8198
    10.9179  11.0123  11.0707  11.1361  11.1639  11.2835  11.3687  11.3983
    11.4552  11.5263  11.6840  11.7147  11.7978  11.8729  11.9490  12.0289
    12.0562  12.0988  12.1751  12.2861  12.3894  12.4638  12.5045  12.5379
    12.6211  12.7589  12.8418  12.9221  12.9782  13.0459  13.0873  13.2232
    13.3379  13.4083  13.4280  13.5446  13.6046  13.6671  13.7388  13.8074
    13.8536  13.9102  14.0010  14.0645  14.1418  14.2003  14.3156  14.3700
    14.4613  14.5677  14.6070  14.6579  14.7086  14.7697  14.8622  15.0198
    15.0982  15.1716  15.2235  15.2962  15.3919  15.4568  15.5036  15.5789
    15.6374  15.7348  15.7676  15.8536  15.9104  16.0490  16.0777  16.1061
    16.2090  16.2330  16.3538  16.3938  16.4566  16.6134  16.6900  16.7318
    16.7669  16.8682  16.8847  16.9318  16.9731  17.0569  17.1274  17.1823
    17.2636  17.3340  17.3982  17.4572  17.5061  17.5935  17.6434  17.7080
    17.7817  17.8433  17.9756  18.0320  18.0917  18.1993  18.2553  18.3180
    18.4032  18.4916  18.5711  18.6106  18.6583

          k = 0.2500-0.4516 0.0000 ( 29882 PWs)   bands (ev):

   -60.5234 -60.4954 -60.2121 -59.6959 -59.6660 -59.2949 -59.2654 -58.6435
   -37.0292 -36.7909 -36.7368 -36.7058 -36.6878 -36.6784 -36.5735 -36.4569
   -36.3944 -36.2621 -36.0241 -35.9453 -35.9430 -35.8555 -35.8302 -35.7773
   -35.5776 -35.5709 -35.5527 -35.4925 -35.4329 -35.0456 -35.0193 -34.9718
   -21.9739 -21.7428 -21.1044 -20.7736 -20.3011 -20.2572 -20.2494 -20.1517
   -20.0130 -19.8791 -19.8346 -19.8131 -19.7948 -19.5426 -19.3667 -19.2665
   -18.9274 -18.8410 -18.0170  -9.7801  -9.5000  -8.5678  -8.1865  -7.9425
    -7.8737  -7.7429  -7.6161  -7.4009  -7.3436  -7.2668  -7.2515  -7.2183
    -7.1009  -6.9888  -6.8635  -6.7811  -6.6727  -6.6225  -6.5800  -6.4230
    -6.3296  -6.2892  -6.1690  -6.1013  -5.9353  -5.8584  -5.8052  -5.7107
    -5.6535  -5.5790  -5.5126  -5.4393  -5.4214  -5.3862  -5.2490  -5.2057
    -5.0407  -4.9572  -4.8716  -4.8570  -4.7503  -4.4901  -4.3646  -4.3156
    -4.2276  -4.1862  -4.1815  -4.1132  -4.0302  -3.9484  -3.8222  -3.6897
    -3.5919  -3.5237  -3.4980  -3.4178  -1.3008  -1.0812  -0.9825  -0.7845
    -0.6963  -0.4071  -0.2987  -0.2723  -0.1446   0.0004   0.0452   0.1471
     0.2269   0.2533   0.4313   0.5677   0.6247   0.6593   0.8914   0.9457
     0.9690   1.1158   1.1754   1.4135   1.7731   1.9183   1.9619   2.0842
     2.1516   2.3492   2.6884   2.8039   2.9314   3.0432   3.3852   3.4315
     3.6198   3.6794   3.7180   3.9195   3.9787   4.0723   4.6780   4.8524
     4.8835   4.9775   5.2687   5.3967   5.6323   5.7808   5.8435   6.1107
     6.5222   6.6493   6.7048   6.8847   6.9281   6.9950   7.1946   7.3156
     7.3826   7.6079   7.6568   7.7207   7.9933   8.0281   8.0990   8.1201
     8.2791   8.4578   8.5571   8.6064   8.8078   8.9379   9.2109   9.3245
     9.3750   9.6645   9.8042   9.8456   9.8946   9.9747  10.1968  10.2564
    10.3935  10.8030  10.8288  10.9036  10.9410  11.0111  11.0356  11.0956
    11.2658  11.2791  11.3192  11.3934  11.4396  11.4956  11.5905  11.6342
    11.7000  11.7366  11.8166  11.8988  11.9675  12.0028  12.0453  12.1430
    12.1910  12.2130  12.2855  12.3331  12.3998  12.5276  12.6208  12.6590
    12.6973  12.8044  12.8747  12.9381  13.0614  13.0995  13.1510  13.1758
    13.3061  13.3515  13.3892  13.4880  13.5215  13.5550  13.6155  13.7210
    13.7790  13.8257  13.9032  13.9537  14.0305  14.0693  14.1412  14.1700
    14.2942  14.3156  14.3851  14.5373  14.6425  14.6946  14.7497  14.7976
    14.8397  14.8884  14.9835  15.0438  15.1181  15.1773  15.2273  15.2644
    15.3232  15.4240  15.5770  15.5954  15.6616  15.7015  15.8111  15.8980
    15.9665  16.0852  16.1887  16.4408  16.4705  16.5540  16.5705  16.6138
    16.7061  16.7966  16.8735  16.9231  16.9646  17.0876  17.1547  17.1976
    17.2925  17.3734  17.4233  17.4578  17.5538  17.6061  17.6242  17.6993
    17.7285  17.8882  17.9175  18.0700  18.1069  18.1727  18.2133  18.2317
    18.3464  18.4084  18.4381  18.4820  18.5908

          k =-0.5000 0.0000 0.0000 ( 29982 PWs)   bands (ev):

   -60.5100 -60.5089 -60.2120 -59.6850 -59.6769 -59.2805 -59.2799 -58.6435
   -36.8819 -36.8792 -36.7455 -36.7344 -36.6971 -36.6968 -36.5725 -36.4479
   -36.3961 -36.1131 -36.1043 -35.9810 -35.9805 -35.8483 -35.8323 -35.6274
   -35.6262 -35.5687 -35.5619 -35.5171 -35.5137 -35.0445 -35.0324 -34.9685
   -21.8656 -21.7923 -21.1590 -20.5966 -20.5370 -20.2348 -20.1633 -20.0879
   -20.0782 -19.9097 -19.8914 -19.8873 -19.5093 -19.4507 -19.3510 -19.3222
   -19.0189 -18.9236 -18.0165  -9.7044  -9.5924  -8.2357  -8.1932  -8.1363
    -7.9183  -7.8990  -7.7989  -7.7787  -7.6942  -7.5713  -7.4996  -7.1156
    -7.1078  -6.9350  -6.9026  -6.7753  -6.7194  -6.5619  -6.4454  -6.4263
    -6.2004  -6.1455  -6.0856  -6.0108  -5.9754  -5.9518  -5.7688  -5.5945
    -5.5474  -5.5262  -5.4295  -5.3664  -5.2478  -5.1177  -5.0196  -4.9625
    -4.8936  -4.8628  -4.8444  -4.8201  -4.7562  -4.5403  -4.4838  -4.3693
    -4.3269  -4.2878  -4.1550  -4.0917  -3.8024  -3.7670  -3.7508  -3.6641
    -3.6596  -3.6024  -3.5776  -3.4672  -1.1331  -0.9624  -0.9497  -0.8133
    -0.5007  -0.4855  -0.3975  -0.3902  -0.3207  -0.1806  -0.0549   0.0169
     0.1104   0.1184   0.1359   0.4922   0.7138   0.7331   0.8411   0.9544
     0.9619   1.0158   1.1409   1.7269   1.8462   1.9630   1.9747   2.0229
     2.2060   2.6496   2.9700   3.0080   3.0396   3.0424   3.0535   3.1478
[...]
    17.2752  17.3821  17.4241  17.4580  17.5574  17.5921  17.6253  17.6839
    17.7174  17.8743  17.9187  18.0613  18.0916  18.1766  18.2059  18.2288
    18.3533  18.4219  18.4412  18.4826  18.5851

          k =-0.5000 0.0000 0.0000 ( 29982 PWs)   bands (ev):

   -60.4989 -60.4973 -60.1919 -59.6857 -59.6754 -59.2595 -59.2589 -58.6048
   -36.8717 -36.8600 -36.7313 -36.7235 -36.6832 -36.6823 -36.5466 -36.4268
   -36.3779 -36.1153 -36.0990 -35.9801 -35.9789 -35.8340 -35.8270 -35.6054
   -35.5964 -35.5495 -35.5430 -35.4927 -35.4889 -35.0136 -34.9901 -34.9293
   -21.8623 -21.7530 -21.0628 -20.5668 -20.5253 -20.2279 -20.1467 -20.0730
   -20.0569 -19.9060 -19.8757 -19.8709 -19.4926 -19.4226 -19.2986 -19.2480
   -18.9891 -18.8991 -17.9660  -9.7390  -9.6090  -8.1947  -8.1862  -8.0624
    -7.8958  -7.8714  -7.7343  -7.7055  -7.6693  -7.5563  -7.4725  -7.0892
    -7.0783  -6.8748  -6.8414  -6.7266  -6.6757  -6.5461  -6.4190  -6.3885
    -6.1493  -6.0962  -6.0392  -5.9970  -5.9461  -5.9289  -5.7405  -5.5740
    -5.5433  -5.5027  -5.4036  -5.3197  -5.2063  -5.0893  -4.9819  -4.9369
    -4.8685  -4.8470  -4.8294  -4.8048  -4.7201  -4.5262  -4.4562  -4.3321
    -4.3096  -4.2705  -4.1387  -4.0682  -3.7795  -3.7561  -3.7406  -3.6515
    -3.6435  -3.5708  -3.5535  -3.4278  -1.1370  -0.9527  -0.9422  -0.8023
    -0.4791  -0.4685  -0.3752  -0.3645  -0.2917  -0.1621  -0.0546   0.0386
     0.1164   0.1201   0.1853   0.5018   0.7057   0.7326   0.8338   0.9438
     0.9511   1.0364   1.1337   1.7912   1.7962   1.9627   2.0245   2.0460
     2.2170   2.6801   2.9455   3.0348   3.0412   3.0463   3.0483   3.1530
     3.1884   3.3987   3.4221   3.6147   3.9011   3.9096   4.6026   4.6206
     5.0162   5.1588   5.2499   5.5045   5.6678   5.7905   6.0925   6.1802
     6.5620   6.6627   6.7698   6.9405   7.0607   7.0691   7.5320   7.8965
     7.9055   7.9351   8.0682   8.1251   8.2047   8.2054   8.4384   8.4780
     8.5693   8.6481   8.6735   8.7532   8.8086   8.8548   8.9113   9.0532
     9.1062   9.3161   9.4336   9.6139   9.6452   9.6854   9.7202   9.7634
     9.8242   9.8699   9.9349  10.0514  10.0724  10.3308  10.3966  10.4896
    10.5475  10.7428  10.7827  10.9602  11.0321  11.1066  11.3353  11.3697
    11.5346  11.6435  11.6600  11.7749  11.7770  11.8435  11.9410  12.1220
    12.1630  12.2698  12.2882  12.5057  12.5525  12.6548  12.7790  12.7923
    12.9110  12.9389  12.9807  13.0995  13.2097  13.2667  13.3675  13.4341
    13.4726  13.6608  13.7126  13.7675  13.8760  13.8901  14.0605  14.1171
    14.1346  14.1589  14.2102  14.3355  14.3633  14.4444  14.4579  14.4849
    14.5644  14.7075  14.8733  15.0026  15.0459  15.0915  15.1556  15.2427
    15.2823  15.3885  15.3951  15.4910  15.5843  15.6343  15.7208  15.8306
    15.8662  15.8765  15.9757  16.0672  16.1338  16.1846  16.2505  16.2808
    16.4556  16.4721  16.5851  16.6506  16.7048  16.7377  16.8256  16.8848
    16.8929  16.9613  17.0063  17.0519  17.0846  17.2320  17.2369  17.3636
    17.4006  17.4936  17.6203  17.6280  17.7325  17.8724  17.8898  17.9081
    17.9360  17.9715  18.0053  18.0948  18.1186  18.2503  18.2712  18.3342
    18.3551  18.3629  18.3799  18.5047  18.5592

          k =-0.5000 0.2258 0.0000 ( 29954 PWs)   bands (ev):

   -60.4989 -60.4973 -60.1919 -59.6857 -59.6754 -59.2595 -59.2589 -58.6048
   -36.8718 -36.8601 -36.7313 -36.7235 -36.6827 -36.6818 -36.5466 -36.4275
   -36.3768 -36.1138 -36.0975 -35.9821 -35.9808 -35.8340 -35.8270 -35.6055
   -35.5963 -35.5470 -35.5456 -35.4926 -35.4888 -35.0135 -34.9888 -34.9311
   -21.8594 -21.7500 -21.0558 -20.5268 -20.5050 -20.2263 -20.1289 -20.0224
   -19.9957 -19.9450 -19.9334 -19.8585 -19.5794 -19.5433 -19.2722 -19.2353
   -18.9851 -18.8979 -17.9655  -9.7302  -9.6001  -8.1292  -8.1022  -8.0436
    -7.7504  -7.7344  -7.7127  -7.6279  -7.4717  -7.4420  -7.2605  -7.0565
    -7.0062  -6.9219  -6.8327  -6.6693  -6.6323  -6.6017  -6.5426  -6.3756
    -6.3231  -6.1816  -6.0773  -6.0626  -5.9766  -5.9671  -5.8631  -5.6485
    -5.5988  -5.5051  -5.4306  -5.4074  -5.2053  -5.1854  -5.1062  -5.1008
    -5.0225  -4.9745  -4.8341  -4.7781  -4.7351  -4.6881  -4.6441  -4.2799
    -4.2468  -4.1942  -4.1012  -4.0730  -3.8817  -3.7876  -3.7355  -3.7057
    -3.6206  -3.5744  -3.4381  -3.4302  -1.1265  -0.9955  -0.9639  -0.8581
    -0.5380  -0.3232  -0.3131  -0.2674  -0.1188  -0.0622  -0.0577   0.0151
     0.1406   0.2727   0.3257   0.6530   0.6620   0.7601   0.8956   0.9221
     0.9640   1.0291   1.0499   1.8006   1.8439   1.9082   1.9373   1.9839
     2.2450   2.3488   2.7572   2.8679   2.8769   3.1434   3.1551   3.3242
     3.4542   3.5601   3.6035   3.6471   3.9265   3.9372   4.7715   4.7864
     5.1522   5.2023   5.2544   5.5049   5.6087   5.8131   6.0216   6.1678
     6.5131   6.5793   6.7115   6.7788   6.9157   6.9698   7.0465   7.2162
     7.2738   7.4607   7.6090   7.8012   7.8895   8.0585   8.1163   8.2572
     8.3168   8.4414   8.5408   8.6423   8.7566   8.8835   9.2827   9.4901
     9.5502   9.6830   9.7306   9.8263   9.8941   9.9186  10.0060  10.0897
    10.2248  10.2876  10.3164  10.5142  10.6326  10.6712  10.7759  10.8418
    10.8704  10.9955  11.0833  11.2128  11.2953  11.3627  11.4465  11.5754
    11.6742  11.7922  11.8573  11.9287  12.0105  12.0557  12.1306  12.1771
    12.2709  12.3862  12.5615  12.5900  12.7083  12.8048  12.8589  12.9572
    13.0845  13.1069  13.1915  13.2456  13.2836  13.3404  13.3924  13.4614
    13.4995  13.5361  13.6434  13.6824  13.8841  13.9734  14.0115  14.0289
    14.0647  14.0753  14.1364  14.2568  14.2920  14.3652  14.4011  14.4546
    14.5349  14.7949  14.8317  14.8985  14.9305  14.9474  14.9849  15.0194
    15.1483  15.1742  15.2569  15.2932  15.3221  15.3397  15.4022  15.5200
    15.5303  15.5756  15.5984  15.6996  15.7316  15.8128  15.8458  15.8722
    15.9546  15.9835  16.0123  16.1132  16.2614  16.3099  16.3583  16.4213
    16.4852  16.5315  16.5650  16.6757  16.7383  16.8016  16.8498  16.9238
    16.9363  17.0166  17.1838  17.1993  17.2423  17.3291  17.3624  17.5023
    17.5517  17.6086  17.6553  17.7759  17.9492  17.9862  18.1412  18.2194
    18.2470  18.2730  18.3126  18.3895  18.4328

          k =-0.5000-0.4516 0.0000 ( 29868 PWs)   bands (ev):

   -60.4989 -60.4973 -60.1919 -59.6857 -59.6754 -59.2595 -59.2589 -58.6048
   -36.8719 -36.8602 -36.7313 -36.7235 -36.6823 -36.6814 -36.5466 -36.4282
   -36.3756 -36.1123 -36.0960 -35.9840 -35.9828 -35.8340 -35.8270 -35.6057
   -35.5962 -35.5483 -35.5445 -35.4926 -35.4888 -35.0134 -34.9874 -34.9330
   -21.8566 -21.7470 -21.0489 -20.4825 -20.4777 -20.2230 -20.0752 -20.0495
   -20.0322 -19.9288 -19.8344 -19.7744 -19.7376 -19.7306 -19.2598 -19.2264
   -18.9816 -18.8969 -17.9651  -9.7213  -9.5910  -8.1042  -8.0913  -8.0249
    -7.7269  -7.5172  -7.4380  -7.3740  -7.3025  -7.1740  -7.0753  -7.0346
    -6.9163  -6.9044  -6.8768  -6.8169  -6.7107  -6.5516  -6.5122  -6.4415
    -6.3951  -6.2780  -6.2718  -6.1870  -6.0771  -5.9843  -5.7703  -5.7221
    -5.6801  -5.6719  -5.6079  -5.5648  -5.3769  -5.3585  -5.2884  -5.2191
    -5.1249  -4.9868  -4.9736  -4.7520  -4.6862  -4.6420  -4.5859  -4.3376
    -4.2240  -4.1797  -4.1455  -4.0078  -3.9960  -3.7623  -3.7238  -3.6899
    -3.5424  -3.5269  -3.4606  -3.3944  -1.1177  -1.0336  -0.9901  -0.8866
    -0.6298  -0.3238  -0.2720  -0.2312  -0.0751   0.0681   0.1701   0.1817
     0.2127   0.4128   0.4420   0.5662   0.6597   0.8614   0.8884   0.9768
     0.9985   1.0187   1.0551   1.6703   1.6815   1.7716   1.8555   2.1200
     2.1981   2.2700   2.4638   2.9547   2.9594   3.0581   3.1038   3.4834
     3.5365   3.6784   3.8129   3.8459   3.9843   4.0052   4.6373   4.6431
     5.4334   5.4452   5.4827   5.6261   5.6278   6.0235   6.0302   6.1289
     6.1468   6.3510   6.3760   6.4934   6.5821   6.7191   6.8778   6.9879
     7.2168   7.2991   7.3891   7.6029   7.6661   7.7042   7.7495   7.8560
     8.1705   8.5361   8.7000   8.8304   8.8551   8.9819   9.0390   9.1336
     9.2082   9.3093   9.8432   9.9101   9.9789  10.3396  10.4114  10.5041
    10.5898  10.6008  10.8132  10.8274  10.9228  10.9771  11.2949  11.5408
    11.5848  11.6216  11.6490  11.7099  11.8791  11.9715  12.0760  12.0841
    12.1045  12.1828  12.2051  12.2943  12.3090  12.4224  12.4634  12.5036
    12.5078  12.6424  12.6534  12.7310  12.7855  12.8808  12.9003  13.0007
    13.0119  13.0645  13.1201  13.1734  13.2094  13.2323  13.3167  13.3235
    13.4817  13.5938  13.6225  13.6364  13.7171  13.7762  13.7884  13.8513
    13.8697  13.8911  13.9747  14.0705  14.1257  14.1269  14.2255  14.2629
    14.4169  14.4368  14.4784  14.4897  14.5725  14.5848  14.6113  14.6351
    14.6657  14.7714  14.8298  14.9857  15.0116  15.0237  15.0336  15.1055
    15.1377  15.1718  15.1854  15.3421  15.4214  15.5147  15.5780  15.6218
    15.7535  15.7846  15.8199  15.8985  15.9633  16.0154  16.0259  16.0964
    16.1113  16.1926  16.2858  16.3610  16.4021  16.4421  16.4890  16.5264
    16.8489  16.9437  17.0291  17.1240  17.1311  17.1921  17.2611  17.2996
    17.4012  17.4308  17.4885  17.5838  17.5913  17.7624  17.9106  17.9420
    17.9905  18.0970  18.1518  18.2239  18.2967

          k =-0.2500 0.2258 0.0000 ( 29912 PWs)   bands (ev):

   -60.5120 -60.4841 -60.1920 -59.6959 -59.6652 -59.2738 -59.2445 -58.6047
   -37.0150 -36.7756 -36.7178 -36.6943 -36.6726 -36.6711 -36.5473 -36.4345
   -36.3773 -36.2640 -36.0194 -35.9441 -35.9411 -35.8433 -35.8208 -35.7525
   -35.5584 -35.5457 -35.5339 -35.4676 -35.4088 -35.0148 -34.9791 -34.9306
   -21.9615 -21.7157 -21.0282 -20.7819 -20.3117 -20.2663 -20.2430 -20.1820
   -19.9929 -19.8496 -19.7738 -19.7520 -19.6400 -19.5490 -19.3324 -19.2068
   -18.8858 -18.8192 -17.9665  -9.8093  -9.5278  -8.5531  -8.2993  -8.0226
    -7.8056  -7.7069  -7.6740  -7.5937  -7.3769  -7.3334  -7.2483  -7.1984
    -7.0546  -6.9683  -6.9064  -6.8426  -6.7596  -6.6307  -6.5562  -6.4908
    -6.3132  -6.2054  -6.0772  -5.9708  -5.8161  -5.7609  -5.6777  -5.5752
    -5.5233  -5.4348  -5.4039  -5.3260  -5.2506  -5.1807  -5.0843  -5.0056
    -4.9650  -4.9183  -4.8410  -4.7564  -4.6657  -4.5049  -4.4538  -4.2525
    -4.1904  -4.1373  -4.1260  -4.0303  -3.9695  -3.9061  -3.7417  -3.6981
    -3.6181  -3.5487  -3.4854  -3.3455  -1.1161  -1.0902  -0.9757  -0.8482
    -0.5236  -0.4606  -0.4042  -0.3490  -0.2228  -0.0705   0.0104   0.1319
     0.1424   0.2041   0.4027   0.5062   0.5574   0.6984   0.8344   0.9062
     0.9920   1.1105   1.1612   1.6293   1.8735   1.9270   1.9974   2.0420
     2.2404   2.3100   2.6642   2.7994   2.9787   3.1813   3.2489   3.2721
     3.4356   3.5466   3.7439   3.8839   3.9462   4.0496   4.4667   4.6092
     4.6679   4.8559   5.2263   5.7776   5.8810   5.9965   6.1561   6.3020
     6.3320   6.5472   6.7354   6.8940   7.0168   7.2626   7.3127   7.4126
     7.6101   7.6912   7.7621   7.8924   7.9233   8.0374   8.2079   8.3396
     8.4852   8.6865   8.7447   8.8155   8.9963   9.1401   9.2047   9.2952
     9.3746   9.4750   9.5841   9.6064   9.7138   9.8410   9.8836  10.0297
    10.1026  10.2676  10.3320  10.4796  10.5800  10.6933  10.7984  10.8386
    10.9383  11.0081  11.0673  11.1263  11.1621  11.2845  11.3725  11.4051
    11.4593  11.5247  11.6810  11.7068  11.8014  11.8752  11.9348  12.0126
    12.0668  12.1115  12.1847  12.2969  12.4080  12.4186  12.4963  12.5471
    12.6073  12.7377  12.8050  12.9063  12.9483  12.9884  13.0793  13.2125
    13.3250  13.3534  13.4242  13.4661  13.5750  13.6573  13.7344  13.8035
    13.8462  13.9074  13.9992  14.0809  14.1396  14.1774  14.3127  14.3760
    14.4431  14.5448  14.5967  14.6386  14.7311  14.7730  14.8764  14.9973
    15.0867  15.1869  15.2324  15.2954  15.3888  15.4599  15.4909  15.5849
    15.6191  15.6997  15.7573  15.8467  15.8704  15.9906  16.0521  16.0886
    16.1633  16.2087  16.3144  16.3665  16.4689  16.6134  16.7010  16.7099
    16.7780  16.8452  16.8821  16.9289  16.9642  17.0907  17.1145  17.1943
    17.2686  17.3353  17.4239  17.4798  17.5497  17.6120  17.6413  17.7041
    17.7771  17.8409  17.9597  18.0360  18.1292  18.2063  18.2499  18.3089
    18.4011  18.4863  18.5800  18.5982  18.6577

     the Fermi energy is    -3.4297 ev

!    total energy              =   -1566.94467505 Ry
     Harris-Foulkes estimate   =   -1566.94467505 Ry
     estimated scf accuracy    <          5.2E-09 Ry

     The total energy is the sum of the following terms:

     one-electron contribution =  -18547.22028514 Ry
     hartree contribution      =    9289.63412045 Ry
     xc contribution           =    -276.75007324 Ry
     ewald contribution        =    7967.39144876 Ry
     smearing contrib. (-TS)   =       0.00011412 Ry

     convergence has been achieved in  11 iterations

     Forces acting on atoms (Ry/au):


     negative rho (up, down):  0.102E+00 0.000E+00
     atom    1 type  1   force =    -0.00074704   -0.00998136    0.00024032
     atom    2 type  1   force =     0.00012766    0.01510623    0.00013321
     atom    3 type  2   force =     0.05817715   -0.01083557   -0.00020483
     atom    4 type  2   force =    -0.00369314    0.00449080   -0.00088513
     atom    5 type  1   force =    -0.00278827   -0.06612823    0.00061174
     atom    6 type  1   force =    -0.00574977    0.06836440    0.00054705
     atom    7 type  1   force =    -0.00003194    0.00085241   -0.00056921
     atom    8 type  1   force =     0.00199733   -0.00115059   -0.00030338
     atom    9 type  2   force =     0.00800741    0.00012441   -0.00006516
     atom   10 type  2   force =     0.00005046    0.00024153   -0.00069188
     atom   11 type  1   force =    -0.03395462   -0.00132260    0.00022346
     atom   12 type  1   force =    -0.03434619    0.00166796    0.00001487
     atom   13 type  1   force =     0.00014921    0.00015163    0.00025595
     atom   14 type  1   force =    -0.00013594   -0.00917925   -0.00043775
     atom   15 type  1   force =     0.00007401    0.01176335   -0.00059197
     atom   16 type  2   force =    -0.05778197   -0.00974045   -0.00018894
     atom   17 type  2   force =    -0.00408763    0.00394054    0.00036172
     atom   18 type  1   force =     0.00770996   -0.06625060    0.00057228
     atom   19 type  1   force =     0.00511807    0.06817851    0.00064944
     atom   20 type  1   force =    -0.00026375   -0.00018023    0.00015883
     atom   21 type  1   force =     0.00209666   -0.00086628   -0.00013116
     atom   22 type  2   force =    -0.00841509   -0.00002010   -0.00007244
     atom   23 type  2   force =     0.00001320   -0.00011773    0.00012555
     atom   24 type  1   force =     0.03446940   -0.00120489    0.00003377
     atom   25 type  1   force =     0.03370419    0.00154863    0.00019978
     atom   26 type  1   force =     0.00022108   -0.00009944   -0.00029431
     atom   27 type  3   force =     0.00004980    0.00023079    0.00045521
     atom   28 type  3   force =    -0.00004086    0.00020407   -0.00057281
     atom   29 type  3   force =    -0.00004963    0.00013683    0.00023891
     atom   30 type  3   force =     0.00010469    0.00006748   -0.00031438
     atom   31 type  1   force =     0.00001554    0.00000773    0.00050125

     Total force =     0.002306     Total SCF correction =     0.000128

     bfgs converged in  14 scf cycles and  13 bfgs steps
     (criteria: energy < 0.10E-03, force < 0.10E-02)

     End of BFGS Geometry Optimization

     Final energy   =   -1566.9446750452 Ry
Begin final coordinates

ATOMIC_POSITIONS (crystal)
O0       0.000000000   0.000000000   0.378011260    0   0   1
O0       0.000000000   0.500000000   0.397870568    0   0   1
Ti1      0.250000000   0.500000000   0.450083602    0   0   1
Ti1      0.000000000   0.000000000   0.452761091    0   0   1
O0       0.250000000   0.810000000   0.449286505    0   0   1
O0       0.250000000   0.190000000   0.450154506    0   0   1
O0       0.000000000   0.500000000   0.497626727    0   0   1
O0       0.000000000   0.000000000   0.525491008    0   0   1
Ti1      0.250000000   0.000000000   0.581060793    0   0   1
Ti1      0.000000000   0.500000000   0.568467680    0   0   1
O0       0.250000000   0.690000000   0.580444533    0   0   1
O0       0.250000000   0.310000000   0.580459493    0   0   1
O0       0.000000000   0.000000000   0.622301378    0   0   1
O0       0.500000000   0.000000000   0.377852356    0   0   1
O0       0.500000000   0.500000000   0.397127802    0   0   1
Ti1      0.750000000   0.500000000   0.450084316    0   0   1
Ti1      0.500000000   0.000000000   0.451587439    0   0   1
O0       0.750000000   0.810000000   0.449343890    0   0   1
O0       0.750000000   0.190000000   0.450018008    0   0   1
O0       0.500000000   0.500000000   0.491752934    0   0   1
O0       0.500000000   0.000000000   0.525286470    0   0   1
Ti1      0.750000000   0.000000000   0.581053225    0   0   1
Ti1      0.500000000   0.500000000   0.598243594    0   0   1
O0       0.750000000   0.690000000   0.580547868    0   0   1
O0       0.750000000   0.310000000   0.580350289    0   0   1
O0       0.500000000   0.000000000   0.621508736    0   0   1
H2      -0.000735470   0.619772655   0.375445283
H2       0.499420849   0.615758104   0.373555118
H2       0.148662775   0.034072147   0.363543729
H2       0.648927488   0.032826902   0.363359789
O0       0.499993951   0.499858687   0.661370010
End final coordinates



     init_run     :     49.88s CPU     65.02s WALL (       1 calls)
     electrons    :  27855.89s CPU  36777.54s WALL (      14 calls)
     update_pot   :     73.74s CPU     83.86s WALL (      13 calls)
     forces       :    446.47s CPU    488.40s WALL (      14 calls)

     Called by init_run:
     wfcinit      :     34.05s CPU     48.23s WALL (       1 calls)
     potinit      :      2.24s CPU      2.72s WALL (       1 calls)

     Called by electrons:
     c_bands      :  20465.19s CPU  27258.63s WALL (     209 calls)
     sum_band     :   4391.85s CPU   6041.24s WALL (     209 calls)
     v_of_rho     :    114.17s CPU    185.08s WALL (     223 calls)
     newd         :   3024.81s CPU   3366.67s WALL (     223 calls)
     mix_rho      :     21.96s CPU     37.41s WALL (     209 calls)

     Called by c_bands:
     init_us_2    :     32.31s CPU     32.56s WALL (    4330 calls)
     cegterg      :  20327.28s CPU  27120.17s WALL (    2090 calls)

     Called by *egterg:
     h_psi        :  11503.02s CPU  17588.25s WALL (    5962 calls)
     s_psi        :    802.78s CPU    803.38s WALL (    5962 calls)
     g_psi        :     17.50s CPU     17.54s WALL (    3862 calls)
     cdiaghg      :   4147.67s CPU   4287.32s WALL (    5822 calls)

     Called by h_psi:
     add_vuspsi   :    809.27s CPU    813.08s WALL (    5962 calls)

     General routines
     calbec       :   1307.60s CPU   1441.56s WALL (    8192 calls)
     fft          :    288.47s CPU    538.55s WALL (    3679 calls)
     ffts         :      3.38s CPU      6.42s WALL (     432 calls)
     fftw         :  10648.48s CPU  18087.45s WALL ( 3371364 calls)
     interpolate  :     24.04s CPU     44.03s WALL (     432 calls)

     Parallel routines
     fft_scatter  :   7906.89s CPU  15553.71s WALL ( 3375475 calls)

     PWSCF        :     7h56m CPU       10h26m WALL


   This run was terminated on:   1:39:44  17Apr2014            

=------------------------------------------------------------------------------=
   JOB DONE.
=------------------------------------------------------------------------------=
---------------------------------------
Running PBS batch system epilogue script
Job id: 335001.audhumbla.fysik.dtu.dk
Username: zhonxu
Groupname: campgst
Jobname: TiO2/Eads-2-layers/O-relax-surf
Sessionid: 6457
Resources limits: neednodes=2:ppn=8:xeon8,nodes=2:ppn=8:xeon8,walltime=48:00:00
Resources used: cput=167:04:24,mem=6560532kb,vmem=10009768kb,walltime=10:26:59
Queuename: verylong
Accounting:
This job has allocated the following 16 nodes:
a105 a105 a105 a105 a105 a105 a105 a105 a104 a104 a104 a104 a104 a104 a104 a104
Finished epilogue job 335001.audhumbla.fysik.dtu.dk for zhonxu
