
     Program PWSCF v.5.0.2 (svn rev. 9656) starts on 24Feb2014 at 20:27: 5 

     This program is part of the open-source Quantum ESPRESSO suite
     for quantum simulation of materials; please cite
         "P. Giannozzi et al., J. Phys.:Condens. Matter 21 395502 (2009);
          URL http://www.quantum-espresso.org", 
     in publications or presentations arising from this work. More details at
     http://www.quantum-espresso.org/quote.php

     Parallel version (MPI), running on    24 processors
     R & G space division:  proc/nbgrp/npool/nimage =      24

     Current dimensions of program PWSCF are:
     Max number of different atomic species (ntypx) = 10
     Max number of k-points (npk) =  40000
     Max angular momentum in pseudopotentials (lmaxx) =  3
     Reading input from slab-relax.in
Warning: card &CELL ignored
Warning: card / ignored

     Subspace diagonalization in iterative solution of the eigenvalue problem:
     a serial algorithm will be used

     Found symmetry operation: I + ( -0.5000  0.0000  0.0000)
     This is a supercell, fractional translations are disabled

     Parallelization info
     --------------------
     sticks:   dense  smooth     PW     G-vecs:    dense   smooth      PW
     Min         231      73     20                75391    13626    2020
     Max         233      74     21                75409    13664    2037
     Sum        5547    1771    497              1809691   327639   48711



     bravais-lattice index     =            0
     lattice parameter (alat)  =      11.2250  a.u.
     unit-cell volume          =    9585.4248 (a.u.)^3
     number of atoms/cell      =           48
     number of atomic types    =            2
     number of electrons       =       384.00
     number of Kohn-Sham states=          552
     kinetic-energy cutoff     =      40.0000  Ry
     charge density cutoff     =     500.0000  Ry
     convergence threshold     =      1.0E-06
     mixing beta               =       0.7000
     number of iterations used =            8  plain     mixing
     Exchange-correlation      = SLA  PW   PBE  PBE ( 1 4 3 4 0)
     EXX-fraction              =        0.00
     nstep                     =           50


     celldm(1)=  11.224973  celldm(2)=   0.000000  celldm(3)=   0.000000
     celldm(4)=   0.000000  celldm(5)=   0.000000  celldm(6)=   0.000000

     crystal axes: (cart. coord. in units of alat)
               a(1) = (   1.000000   0.000000   0.000000 )  
               a(2) = (   0.000000   1.107086   0.000000 )  
               a(3) = (   0.000000   0.000000   6.121726 )  

     reciprocal axes: (cart. coord. in units 2 pi/alat)
               b(1) = (  1.000000  0.000000  0.000000 )  
               b(2) = (  0.000000  0.903272  0.000000 )  
               b(3) = (  0.000000  0.000000  0.163353 )  


     PseudoPot. # 1 for O  read from file:
     /home/camp/zhonxu/pseudo/o_pbe_v1.01.uspp.F.UPF
     MD5 check sum: 2bcb18d16ea4b960afae9ec6d52f22d2
     Pseudo is Ultrasoft + core correction, Zval =  6.0
     Generated by new atomic code, or converted to UPF format
     Using radial grid of  737 points,  5 beta functions with: 
                l(1) =   0
                l(2) =   0
                l(3) =   1
                l(4) =   1
                l(5) =   2
     Q(r) pseudized with  8 coefficients,  rinner =    0.900   0.900   0.900
                                                       0.900   0.900

     PseudoPot. # 2 for Ti read from file:
     /home/camp/zhonxu/pseudo/ti_pbe_v1.uspp.F.UPF
     MD5 check sum: bcc8f6961b3b91f0cac3ca967d22d0fb
     Pseudo is Ultrasoft + core correction, Zval = 12.0
     Generated by new atomic code, or converted to UPF format
     Using radial grid of  851 points,  6 beta functions with: 
                l(1) =   0
                l(2) =   0
                l(3) =   1
                l(4) =   1
                l(5) =   2
                l(6) =   2
     Q(r) pseudized with  6 coefficients,  rinner =    1.000   1.000   1.000
                                                       1.000   1.000

     atomic species   valence    mass     pseudopotential
        O0             6.00    15.99940     O ( 1.00)
        Ti1           12.00    47.88000     Ti( 1.00)

      4 Sym. Ops. (no inversion) found



   Cartesian axes

     site n.     atom                  positions (alat units)
         1           O0  tau(   1) = (   0.0000000   0.5535432   2.0202309  )
         2           Ti1 tau(   2) = (   0.2500000   0.5535432   2.2305735  )
         3           Ti1 tau(   3) = (   0.0000000   0.0000000   2.2305735  )
         4           O0  tau(   4) = (   0.2500000   0.8967400   2.2305735  )
         5           O0  tau(   5) = (   0.2500000   0.2103464   2.2305735  )
         6           O0  tau(   6) = (   0.0000000   0.5535432   2.4409160  )
         7           O0  tau(   7) = (   0.0000000   0.0000000   2.5737574  )
         8           Ti1 tau(   8) = (   0.2500000   0.0000000   2.7841000  )
         9           Ti1 tau(   9) = (   0.0000000   0.5535432   2.7841000  )
        10           O0  tau(  10) = (   0.2500000   0.7638896   2.7841000  )
        11           O0  tau(  11) = (   0.2500000   0.3431968   2.7841000  )
        12           O0  tau(  12) = (   0.0000000   0.0000000   2.9944425  )
        13           O0  tau(  13) = (   0.0000000   0.5535432   3.1272839  )
        14           Ti1 tau(  14) = (   0.2500000   0.5535432   3.3376265  )
        15           Ti1 tau(  15) = (   0.0000000   0.0000000   3.3376265  )
        16           O0  tau(  16) = (   0.2500000   0.8967400   3.3376265  )
        17           O0  tau(  17) = (   0.2500000   0.2103464   3.3376265  )
        18           O0  tau(  18) = (   0.0000000   0.5535432   3.5479690  )
        19           O0  tau(  19) = (   0.0000000   0.0000000   3.6808104  )
        20           Ti1 tau(  20) = (   0.2500000   0.0000000   3.8911530  )
        21           Ti1 tau(  21) = (   0.0000000   0.5535432   3.8911530  )
        22           O0  tau(  22) = (   0.2500000   0.7638896   3.8911530  )
        23           O0  tau(  23) = (   0.2500000   0.3431968   3.8911530  )
        24           O0  tau(  24) = (   0.0000000   0.0000000   4.1014955  )
        25           O0  tau(  25) = (   0.5000000   0.5535432   2.0202309  )
        26           Ti1 tau(  26) = (   0.7500000   0.5535432   2.2305735  )
        27           Ti1 tau(  27) = (   0.5000000   0.0000000   2.2305735  )
        28           O0  tau(  28) = (   0.7500000   0.8967400   2.2305735  )
        29           O0  tau(  29) = (   0.7500000   0.2103464   2.2305735  )
        30           O0  tau(  30) = (   0.5000000   0.5535432   2.4409160  )
        31           O0  tau(  31) = (   0.5000000   0.0000000   2.5737574  )
        32           Ti1 tau(  32) = (   0.7500000   0.0000000   2.7841000  )
        33           Ti1 tau(  33) = (   0.5000000   0.5535432   2.7841000  )
        34           O0  tau(  34) = (   0.7500000   0.7638896   2.7841000  )
        35           O0  tau(  35) = (   0.7500000   0.3431968   2.7841000  )
        36           O0  tau(  36) = (   0.5000000   0.0000000   2.9944425  )
        37           O0  tau(  37) = (   0.5000000   0.5535432   3.1272839  )
        38           Ti1 tau(  38) = (   0.7500000   0.5535432   3.3376265  )
        39           Ti1 tau(  39) = (   0.5000000   0.0000000   3.3376265  )
        40           O0  tau(  40) = (   0.7500000   0.8967400   3.3376265  )
        41           O0  tau(  41) = (   0.7500000   0.2103464   3.3376265  )
        42           O0  tau(  42) = (   0.5000000   0.5535432   3.5479690  )
        43           O0  tau(  43) = (   0.5000000   0.0000000   3.6808104  )
        44           Ti1 tau(  44) = (   0.7500000   0.0000000   3.8911530  )
        45           Ti1 tau(  45) = (   0.5000000   0.5535432   3.8911530  )
        46           O0  tau(  46) = (   0.7500000   0.7638896   3.8911530  )
        47           O0  tau(  47) = (   0.7500000   0.3431968   3.8911530  )
        48           O0  tau(  48) = (   0.5000000   0.0000000   4.1014955  )

     number of k points=     9  Methfessel-Paxton smearing, width (Ry)=  0.0100
                       cart. coord. in units 2pi/alat
        k(    1) = (   0.0000000   0.0000000   0.0000000), wk =   0.1250000
        k(    2) = (   0.0000000   0.2258180   0.0000000), wk =   0.2500000
        k(    3) = (   0.0000000  -0.4516359   0.0000000), wk =   0.1250000
        k(    4) = (   0.2500000   0.0000000   0.0000000), wk =   0.2500000
        k(    5) = (   0.2500000   0.2258180   0.0000000), wk =   0.5000000
        k(    6) = (   0.2500000  -0.4516359   0.0000000), wk =   0.2500000
        k(    7) = (  -0.5000000   0.0000000   0.0000000), wk =   0.1250000
        k(    8) = (  -0.5000000   0.2258180   0.0000000), wk =   0.2500000
        k(    9) = (  -0.5000000  -0.4516359   0.0000000), wk =   0.1250000

     Dense  grid:  1809691 G-vectors     FFT dimensions: (  80,  90, 500)

     Smooth grid:   327639 G-vectors     FFT dimensions: (  45,  54, 288)

     Largest allocated arrays     est. size (Mb)     dimensions
        Kohn-Sham Wavefunctions        15.24 Mb     (   1809,  552)
        NL pseudopotentials            19.43 Mb     (   1809,  704)
        Each V/rho on FFT grid          2.31 Mb     ( 151200)
        Each G-vector array             0.58 Mb     (  75407)
        G-vector shells                 0.28 Mb     (  36961)
     Largest temporary arrays     est. size (Mb)     dimensions
        Auxiliary wavefunctions        60.95 Mb     (   1809, 2208)
        Each subspace H/S matrix       74.39 Mb     (2208,2208)
        Each <psi_i|beta_j> matrix      5.93 Mb     (    704,  552)
        Arrays for rho mixing          18.46 Mb     ( 151200,   8)

     Check: negative/imaginary core charge=   -0.000007    0.000000

     Initial potential from superposition of free atoms
     Check: negative starting charge=   -0.203397

     starting charge  367.99925, renormalised to  384.00000

     negative rho (up, down):  0.212E+00 0.000E+00
     Starting wfc are  288 randomized atomic wfcs

     total cpu time spent up to now is      131.6 secs

     per-process dynamical memory:   236.7 Mb

     Self-consistent Calculation

     iteration #  1     ecut=    40.00 Ry     beta=0.70
     Davidson diagonalization with overlap
     ethr =  1.00E-02,  avg # of iterations =  6.6

     negative rho (up, down):  0.238E+00 0.000E+00

     total cpu time spent up to now is     1413.2 secs

     total energy              =   -2925.82493930 Ry
     Harris-Foulkes estimate   =   -2933.83065304 Ry
     estimated scf accuracy    <      10.01929197 Ry

     iteration #  2     ecut=    40.00 Ry     beta=0.70
     Davidson diagonalization with overlap
     ethr =  2.61E-03,  avg # of iterations =  2.4

     negative rho (up, down):  0.209E+00 0.000E+00

     total cpu time spent up to now is     1853.0 secs

     total energy              =   -2898.80204194 Ry
     Harris-Foulkes estimate   =   -2952.18057604 Ry
     estimated scf accuracy    <     290.05261200 Ry

     iteration #  3     ecut=    40.00 Ry     beta=0.70
     Davidson diagonalization with overlap
     ethr =  2.61E-03,  avg # of iterations =  5.2

     negative rho (up, down):  0.199E+00 0.000E+00

     total cpu time spent up to now is     2433.6 secs

     total energy              =   -2926.89643134 Ry
     Harris-Foulkes estimate   =   -2933.63357776 Ry
     estimated scf accuracy    <      50.70884480 Ry

     iteration #  4     ecut=    40.00 Ry     beta=0.70
     Davidson diagonalization with overlap
     ethr =  2.61E-03,  avg # of iterations =  3.9

     negative rho (up, down):  0.187E+00 0.000E+00

     total cpu time spent up to now is     2902.5 secs

     total energy              =   -2931.82940325 Ry
     Harris-Foulkes estimate   =   -2932.55889979 Ry
     estimated scf accuracy    <       4.24957393 Ry

     iteration #  5     ecut=    40.00 Ry     beta=0.70
     Davidson diagonalization with overlap
     ethr =  1.11E-03,  avg # of iterations =  3.9

     negative rho (up, down):  0.188E+00 0.000E+00

     total cpu time spent up to now is     3330.8 secs

     total energy              =   -2931.69695866 Ry
     Harris-Foulkes estimate   =   -2932.07002077 Ry
     estimated scf accuracy    <       2.55565852 Ry

     iteration #  6     ecut=    40.00 Ry     beta=0.70
     Davidson diagonalization with overlap
     ethr =  6.66E-04,  avg # of iterations =  1.3

     negative rho (up, down):  0.191E+00 0.000E+00

     total cpu time spent up to now is     3660.4 secs

     total energy              =   -2931.58587762 Ry
     Harris-Foulkes estimate   =   -2931.77389783 Ry
     estimated scf accuracy    <       1.29062215 Ry

     iteration #  7     ecut=    40.00 Ry     beta=0.70
     Davidson diagonalization with overlap
     ethr =  3.36E-04,  avg # of iterations =  1.7

     negative rho (up, down):  0.196E+00 0.000E+00

     total cpu time spent up to now is     4002.2 secs

     total energy              =   -2931.51237939 Ry
     Harris-Foulkes estimate   =   -2931.62499114 Ry
     estimated scf accuracy    <       0.54919832 Ry

     iteration #  8     ecut=    40.00 Ry     beta=0.70
     Davidson diagonalization with overlap
     ethr =  1.43E-04,  avg # of iterations =  6.3

     negative rho (up, down):  0.198E+00 0.000E+00

     total cpu time spent up to now is     4526.6 secs

     total energy              =   -2931.52022735 Ry
     Harris-Foulkes estimate   =   -2931.54211077 Ry
     estimated scf accuracy    <       0.14494783 Ry

     iteration #  9     ecut=    40.00 Ry     beta=0.70
     Davidson diagonalization with overlap
     ethr =  3.77E-05,  avg # of iterations =  6.1

     negative rho (up, down):  0.201E+00 0.000E+00

     total cpu time spent up to now is     5056.6 secs

     total energy              =   -2931.51447178 Ry
     Harris-Foulkes estimate   =   -2931.52658951 Ry
     estimated scf accuracy    <       0.07311160 Ry

     iteration # 10     ecut=    40.00 Ry     beta=0.70
     Davidson diagonalization with overlap
     ethr =  1.90E-05,  avg # of iterations =  6.3

     negative rho (up, down):  0.202E+00 0.000E+00

     total cpu time spent up to now is     5602.7 secs

     total energy              =   -2931.51792267 Ry
     Harris-Foulkes estimate   =   -2931.52103830 Ry
     estimated scf accuracy    <       0.03903491 Ry

     iteration # 11     ecut=    40.00 Ry     beta=0.70
     Davidson diagonalization with overlap
     ethr =  1.02E-05,  avg # of iterations =  4.6

     negative rho (up, down):  0.201E+00 0.000E+00

     total cpu time spent up to now is     6067.2 secs

     total energy              =   -2931.51601089 Ry
     Harris-Foulkes estimate   =   -2931.51884874 Ry
     estimated scf accuracy    <       0.04039358 Ry

     iteration # 12     ecut=    40.00 Ry     beta=0.70
     Davidson diagonalization with overlap
     ethr =  1.02E-05,  avg # of iterations =  6.2

     negative rho (up, down):  0.201E+00 0.000E+00

     total cpu time spent up to now is     6607.6 secs

     total energy              =   -2931.50853836 Ry
     Harris-Foulkes estimate   =   -2931.51750556 Ry
     estimated scf accuracy    <       0.03131609 Ry

     iteration # 13     ecut=    40.00 Ry     beta=0.70
     Davidson diagonalization with overlap
     ethr =  8.16E-06,  avg # of iterations =  6.6

     negative rho (up, down):  0.201E+00 0.000E+00

     total cpu time spent up to now is     7180.0 secs

     total energy              =   -2931.51164761 Ry
     Harris-Foulkes estimate   =   -2931.51625360 Ry
     estimated scf accuracy    <       0.02029564 Ry

     iteration # 14     ecut=    40.00 Ry     beta=0.70
     Davidson diagonalization with overlap
     ethr =  5.29E-06,  avg # of iterations =  1.3

     negative rho (up, down):  0.201E+00 0.000E+00

     total cpu time spent up to now is     7520.5 secs

     total energy              =   -2931.51263650 Ry
     Harris-Foulkes estimate   =   -2931.51386409 Ry
     estimated scf accuracy    <       0.00732983 Ry

     iteration # 15     ecut=    40.00 Ry     beta=0.70
     Davidson diagonalization with overlap
     ethr =  1.91E-06,  avg # of iterations =  5.4

     negative rho (up, down):  0.201E+00 0.000E+00

     total cpu time spent up to now is     8033.3 secs

     total energy              =   -2931.51311879 Ry
     Harris-Foulkes estimate   =   -2931.51360599 Ry
     estimated scf accuracy    <       0.00620725 Ry

     iteration # 16     ecut=    40.00 Ry     beta=0.70
     Davidson diagonalization with overlap
     ethr =  1.62E-06,  avg # of iterations =  2.6

     negative rho (up, down):  0.201E+00 0.000E+00

     total cpu time spent up to now is     8425.2 secs

     total energy              =   -2931.51335741 Ry
     Harris-Foulkes estimate   =   -2931.51341150 Ry
     estimated scf accuracy    <       0.00053545 Ry

     iteration # 17     ecut=    40.00 Ry     beta=0.70
     Davidson diagonalization with overlap
     ethr =  1.39E-07,  avg # of iterations =  1.0

     negative rho (up, down):  0.201E+00 0.000E+00

     total cpu time spent up to now is     8750.1 secs

     total energy              =   -2931.51337475 Ry
     Harris-Foulkes estimate   =   -2931.51339364 Ry
     estimated scf accuracy    <       0.00011963 Ry

     iteration # 18     ecut=    40.00 Ry     beta=0.70
     Davidson diagonalization with overlap
     ethr =  3.12E-08,  avg # of iterations =  1.0

     negative rho (up, down):  0.201E+00 0.000E+00

     total cpu time spent up to now is     9084.9 secs

     total energy              =   -2931.51338219 Ry
     Harris-Foulkes estimate   =   -2931.51338761 Ry
     estimated scf accuracy    <       0.00002113 Ry

     iteration # 19     ecut=    40.00 Ry     beta=0.70
     Davidson diagonalization with overlap
     ethr =  5.50E-09,  avg # of iterations =  1.0

     negative rho (up, down):  0.201E+00 0.000E+00

     total cpu time spent up to now is     9415.0 secs

     total energy              =   -2931.51338415 Ry
     Harris-Foulkes estimate   =   -2931.51338572 Ry
     estimated scf accuracy    <       0.00000491 Ry

     iteration # 20     ecut=    40.00 Ry     beta=0.70
     Davidson diagonalization with overlap
     ethr =  1.28E-09,  avg # of iterations =  2.0

     negative rho (up, down):  0.201E+00 0.000E+00

     total cpu time spent up to now is     9784.3 secs

     total energy              =   -2931.51338416 Ry
     Harris-Foulkes estimate   =   -2931.51338591 Ry
     estimated scf accuracy    <       0.00002167 Ry

     iteration # 21     ecut=    40.00 Ry     beta=0.70
     Davidson diagonalization with overlap
     ethr =  1.28E-09,  avg # of iterations =  1.0

     negative rho (up, down):  0.201E+00 0.000E+00

     total cpu time spent up to now is    10114.9 secs

     total energy              =   -2931.51338486 Ry
     Harris-Foulkes estimate   =   -2931.51338524 Ry
     estimated scf accuracy    <       0.00000436 Ry

     iteration # 22     ecut=    40.00 Ry     beta=0.70
     Davidson diagonalization with overlap
     ethr =  1.14E-09,  avg # of iterations =  1.0

     negative rho (up, down):  0.201E+00 0.000E+00

     total cpu time spent up to now is    10450.0 secs

     total energy              =   -2931.51338495 Ry
     Harris-Foulkes estimate   =   -2931.51338528 Ry
     estimated scf accuracy    <       0.00000320 Ry

     iteration # 23     ecut=    40.00 Ry     beta=0.70
     Davidson diagonalization with overlap
     ethr =  8.34E-10,  avg # of iterations =  1.0

     negative rho (up, down):  0.201E+00 0.000E+00

     total cpu time spent up to now is    10788.2 secs

     End of self-consistent calculation

          k = 0.0000 0.0000 0.0000 ( 40985 PWs)   bands (ev):

   -58.9409 -58.9404 -58.9012 -58.9007 -58.4677 -58.4676 -58.4275 -58.4274
   -58.1977 -58.1976 -58.1576 -58.1575 -57.3029 -57.3026 -57.2629 -57.2626
   -35.4278 -35.4273 -35.2257 -35.2252 -35.1958 -35.1953 -35.1630 -35.1625
   -35.0553 -35.0548 -35.0304 -35.0300 -34.9805 -34.9800 -34.7606 -34.7602
   -34.7536 -34.7509 -34.6677 -34.6634 -34.6444 -34.6437 -34.6043 -34.6035
   -34.5829 -34.5824 -34.4614 -34.4591 -34.3836 -34.3829 -34.3682 -34.3675
   -34.3373 -34.3364 -34.3077 -34.3074 -33.7758 -33.7755 -33.6548 -33.6546
   -33.6255 -33.6253 -33.5475 -33.5472 -33.4428 -33.4426 -33.3222 -33.3220
   -19.5467 -19.4516 -19.2651 -19.0734 -18.8393 -18.6333 -18.6058 -18.6057
   -18.6010 -18.5896 -18.3499 -18.3497 -18.2220 -18.1812 -18.1327 -18.0598
   -18.0596 -18.0465 -18.0056 -17.9879 -17.9824 -17.9311 -17.8768 -17.8479
   -17.7056 -17.6472 -17.5710 -17.5638 -16.1938 -16.1925 -16.1321 -16.1320
    -7.1336  -7.1160  -6.9778  -6.8574  -6.8082  -6.6930  -6.3659  -6.2582
    -5.9864  -5.9461  -5.9432  -5.9281  -5.9209  -5.7629  -5.7062  -5.6992
    -5.6990  -5.6675  -5.6169  -5.5609  -5.4965  -5.4881  -5.4616  -5.4478
    -5.3765  -5.3540  -5.3502  -5.2708  -5.2642  -5.2409  -5.1397  -5.0705
    -5.0452  -5.0329  -5.0235  -4.9069  -4.8149  -4.5982  -4.4209  -4.4168
    -4.3611  -4.3602  -4.2944  -4.2364  -4.2294  -4.0683  -4.0478  -4.0350
    -3.9188  -3.8800  -3.8772  -3.8362  -3.7826  -3.7415  -3.7410  -3.7044
    -3.6779  -3.6524  -3.5955  -3.4656  -3.4142  -3.3976  -3.2293  -3.2167
    -3.1862  -3.1588  -3.1235  -3.0556  -2.9555  -2.9120  -2.8848  -2.8170
    -2.7625  -2.7469  -2.7177  -2.6578  -2.6157  -2.5080  -2.4019  -2.3041
    -2.1929  -2.1801  -2.0731  -2.0650  -1.9371  -1.7624  -1.7623  -1.5871
    -1.4873  -1.4698  -1.3847  -1.3820  -1.3719  -1.3564  -1.3409  -1.3281
     0.1166   0.2068   0.2127   0.2257   0.5167   0.5203   0.5427   0.5587
     0.7282   0.8333   0.9525   0.9602   0.9772   1.0190   1.0419   1.0429
     1.0986   1.1873   1.1889   1.2797   1.3175   1.3318   1.4512   1.4544
     1.5236   1.5478   1.6533   1.7068   1.7095   1.7804   1.7974   1.8541
     1.8562   1.8563   1.8586   1.9619   1.9638   2.0024   2.0382   2.0857
     2.1920   2.2122   2.2437   2.2540   2.4660   2.7555   2.7613   2.7629
     3.1036   3.1300   3.1997   3.2652   3.2959   3.6797   3.7693   3.8108
     3.8332   4.0163   4.1215   4.1219   4.2868   4.2977   4.5018   4.6953
     4.7074   4.7181   4.7272   4.7819   4.8382   4.9204   4.9293   4.9296
     4.9635   4.9675   5.1854   5.2054   5.3553   5.3602   5.5911   5.5982
     5.8911   5.9068   5.9968   6.2899   6.2908   6.4085   6.6996   7.0542
     7.4928   7.7377   7.7445   7.9372   7.9924   7.9946   8.3436   8.3439
     8.3611   8.5552   8.5719   8.6536   8.8756   8.9240   8.9722   9.3159
     9.3742   9.3899   9.4191   9.4363   9.5619   9.6429   9.7491   9.7801
     9.8590   9.8712  10.0088  10.0990  10.1279  10.1921  10.2166  10.2207
    10.3001  10.3655  10.4480  10.5436  10.5544  10.5612  10.6339  10.6811
    10.8290  10.8648  10.9504  11.0253  11.0914  11.0975  11.1768  11.2902
    11.4473  11.5050  11.5823  11.6672  11.7824  11.7826  11.8154  11.8404
    12.0572  12.1077  12.2748  12.4137  12.4672  12.4793  12.5161  12.5606
    12.6244  12.6351  12.7573  12.8638  12.8646  12.8731  12.8798  12.9544
    12.9640  13.0024  13.0474  13.0524  13.0953  13.1214  13.1362  13.1596
    13.1655  13.2089  13.2152  13.2188  13.3265  13.4442  13.5012  13.5041
    13.6329  13.6426  13.6597  13.6609  13.7200  13.7214  13.7567  13.7775
    13.7965  14.0479  14.1215  14.1916  14.2032  14.2503  14.3299  14.3416
    14.3707  14.3785  14.4010  14.4243  14.5875  14.7693  14.7900  14.8121
    14.9742  15.0457  15.0823  15.1214  15.1740  15.2163  15.2367  15.3495
    15.3972  15.4395  15.4791  15.5399  15.7185  15.7394  15.7589  15.9095
    15.9120  15.9716  16.0259  16.0324  16.0743  16.1333  16.1636  16.2733
    16.2899  16.3433  16.3628  16.3973  16.5694  16.6692  16.6811  16.6851
    16.7246  16.7551  16.8407  16.9678  16.9999  17.0314  17.0386  17.1338
    17.2088  17.2130  17.2514  17.3499  17.3654  17.4427  17.4538  17.5337
    17.6922  17.7079  17.7605  17.9423  17.9571  18.0354  18.2281  18.2741
    18.3424  18.3775  18.4627  18.4748  18.4782  18.5318  18.5482  18.5563
    18.7509  18.7740  18.8583  18.8621  18.9916  19.0440  19.0615  19.0730
    19.0971  19.0991  19.2240  19.2353  19.2973  19.3232  19.3695  19.4169
    19.4841  19.5139  19.5280  19.5527  19.5901  19.7754  19.8006  19.9075
    19.9624  19.9671  19.9954  20.0086  20.0863  20.1278  20.1519  20.1559
    20.1959  20.2544  20.3492  20.5096  20.5124  20.5397  20.5778  20.5982
    20.6065  20.6449  20.7463  20.8212  20.8630  20.8719  20.8983  20.9114
    20.9405  20.9683  21.1665  21.2231  21.2965  21.3062  21.3272  21.3345
    21.3747  21.4163  21.4197  21.5567  21.5689  21.6216  21.6869  21.6900
    21.7109  21.7677  21.8929  22.1167  22.1392  22.1813  22.1974  22.2468
    22.3029  22.3091  22.3122  22.3349  22.4061  22.4678  22.4857  22.4951
    22.5175  22.5399  22.7458  22.7799  22.7918  22.8051  22.8133  22.8252
    22.8553  22.9388  22.9418  22.9565  22.9991  23.0049  23.1654  23.2101

          k = 0.0000 0.2258 0.0000 ( 40953 PWs)   bands (ev):

   -58.9409 -58.9404 -58.9012 -58.9007 -58.4677 -58.4676 -58.4275 -58.4274
   -58.1977 -58.1976 -58.1576 -58.1575 -57.3029 -57.3026 -57.2629 -57.2626
   -35.4285 -35.4280 -35.2257 -35.2252 -35.1958 -35.1953 -35.1614 -35.1610
   -35.0555 -35.0550 -35.0306 -35.0303 -34.9805 -34.9800 -34.7692 -34.7690
   -34.7532 -34.7513 -34.6542 -34.6508 -34.6445 -34.6440 -34.5949 -34.5943
   -34.5827 -34.5823 -34.4750 -34.4730 -34.3832 -34.3827 -34.3681 -34.3676
   -34.3371 -34.3365 -34.3078 -34.3076 -33.7756 -33.7753 -33.6571 -33.6569
   -33.6243 -33.6241 -33.5475 -33.5472 -33.4428 -33.4426 -33.3222 -33.3220
   -19.4614 -19.3716 -19.1763 -19.0245 -18.8467 -18.7215 -18.7214 -18.6633
   -18.5986 -18.5904 -18.3360 -18.3244 -18.2362 -18.2346 -18.2237 -18.2227
   -18.1199 -18.0589 -17.9918 -17.9866 -17.8384 -17.8184 -17.8136 -17.7989
   -17.7597 -17.7289 -17.5711 -17.5660 -16.1912 -16.1904 -16.1317 -16.1316
    -6.9300  -6.8811  -6.8384  -6.8297  -6.6013  -6.5525  -6.3455  -6.2948
    -6.2669  -6.2458  -6.1838  -6.0958  -5.8791  -5.8250  -5.6712  -5.6710
    -5.5360  -5.5050  -5.4844  -5.4656  -5.4259  -5.4199  -5.3481  -5.3472
    -5.3105  -5.3002  -5.2919  -5.2702  -5.2327  -5.2100  -5.0887  -5.0725
    -4.8852  -4.8513  -4.7690  -4.7316  -4.7213  -4.6244  -4.5876  -4.4673
    -4.4611  -4.3786  -4.3018  -4.2336  -4.2285  -4.1986  -4.1776  -4.1141
    -4.0583  -4.0449  -3.9882  -3.8445  -3.8183  -3.7780  -3.7479  -3.7456
    -3.7426  -3.6789  -3.5876  -3.4484  -3.4416  -3.3730  -3.2858  -3.2612
    -3.1548  -3.1289  -3.1124  -3.0211  -2.9936  -2.9645  -2.9439  -2.9416
    -2.8886  -2.7875  -2.7482  -2.6751  -2.6132  -2.5688  -2.5618  -2.4947
    -2.4773  -2.3679  -2.1066  -2.0768  -2.0521  -1.7521  -1.7511  -1.7466
    -1.4964  -1.4845  -1.4651  -1.4534  -1.4234  -1.4195  -1.4094  -1.4015
     0.0812   0.1777   0.3107   0.3161   0.5164   0.5184   0.6714   0.7194
     0.7443   0.7798   0.9561   0.9659   0.9994   1.0089   1.0646   1.0667
     1.0952   1.1266   1.1577   1.1601   1.2190   1.3289   1.4505   1.4526
     1.5261   1.5431   1.6995   1.7579   1.7703   1.7917   1.8037   1.8724
     1.8728   2.0234   2.0701   2.0706   2.1283   2.1667   2.2108   2.2523
     2.2563   2.2580   2.3190   2.3252   2.4321   2.6159   2.7531   2.7544
     3.0774   3.0975   3.1630   3.2133   3.4510   3.5123   3.6015   3.6588
     3.6657   3.7436   3.8310   4.0612   4.3057   4.6120   4.6703   4.7581
     4.7586   4.8083   4.8486   4.9005   4.9644   4.9673   5.1315   5.1801
     5.2280   5.2307   5.2878   5.3031   5.3145   5.3647   5.5842   5.7030
     5.9015   5.9132   6.0887   6.2903   6.2908   6.5269   6.8328   6.9114
     6.9776   7.1990   7.2888   7.6047   7.6872   7.8566   7.8611   7.8949
     8.3222   8.3236   8.3972   8.4148   8.6244   8.8993   9.1522   9.2083
     9.4467   9.6024   9.6130   9.6188   9.7621   9.7933   9.8293   9.9513
    10.0557  10.0803  10.2716  10.2985  10.3483  10.3523  10.4908  10.4987
    10.5225  10.5722  10.6793  10.6823  10.6848  10.7075  10.7687  10.7740
    10.9821  10.9850  11.0704  11.1036  11.1930  11.2503  11.2711  11.3612
    11.3743  11.3868  11.4032  11.4709  11.5225  11.6558  11.6982  11.8423
    11.8569  11.8584  11.9435  11.9518  12.1247  12.2408  12.2553  12.2623
    12.3086  12.3367  12.3373  12.4406  12.6244  12.6858  12.7546  12.8210
    12.8632  12.8903  12.8919  13.1045  13.1190  13.1370  13.2006  13.3373
    13.3959  13.4494  13.5416  13.6161  13.6603  13.6635  13.6900  13.7385
    13.7870  13.8368  13.9840  13.9930  14.1118  14.2100  14.2353  14.3130
    14.3169  14.3493  14.3788  14.3885  14.4465  14.4554  14.5834  14.6736
    14.7540  14.7624  14.8314  14.8587  14.9494  15.0296  15.0642  15.0672
    15.1031  15.1601  15.2487  15.2849  15.3426  15.3785  15.4241  15.4346
    15.4653  15.4798  15.4814  15.5855  15.7446  15.7752  15.7963  15.8898
    15.9079  15.9319  16.0098  16.0201  16.0346  16.1815  16.2043  16.2452
    16.3150  16.3162  16.3366  16.3551  16.3717  16.4296  16.4821  16.4930
    16.5226  16.6353  16.6470  16.6925  16.7040  16.8174  16.9163  17.0528
    17.0939  17.1294  17.1314  17.2113  17.2259  17.3590  17.5054  17.5464
    17.5543  17.5875  17.5998  17.6184  17.6693  17.6739  17.6828  17.8046
    17.8334  17.9297  17.9456  18.0634  18.0685  18.2293  18.2554  18.2937
    18.4664  18.4826  18.6043  18.6327  18.6699  18.7435  18.7695  18.8624
    18.9369  18.9495  19.0338  19.0560  19.0897  19.1889  19.1936  19.3055
    19.3684  19.4721  19.5353  19.6402  19.7323  19.8093  19.9411  19.9743
    20.0000  20.0471  20.0482  20.0677  20.0948  20.1262  20.1543  20.1918
    20.2292  20.3221  20.3448  20.3758  20.3928  20.4346  20.4749  20.5493
    20.5799  20.6003  20.6165  20.7111  20.7176  20.8057  20.8205  20.8546
    20.9297  20.9378  20.9733  20.9937  21.0459  21.0550  21.2091  21.2443
    21.2807  21.2978  21.3687  21.4224  21.4267  21.4656  21.5554  21.5750
    21.5850  21.6296  21.6377  21.6748  21.7775  21.8176  21.8453  21.8530
    21.8574  21.8963  21.9047  21.9972  22.0318  22.1502  22.1757  22.3102
    22.3705  22.4288  22.4717  22.4783  22.4836  22.5061  22.6786  22.7231
    22.7387  22.8029  22.8082  22.8554  22.8667  22.8719  22.9822  23.0008

          k = 0.0000-0.4516 0.0000 ( 41010 PWs)   bands (ev):

   -58.9409 -58.9404 -58.9012 -58.9007 -58.4677 -58.4676 -58.4275 -58.4274
   -58.1977 -58.1977 -58.1576 -58.1575 -57.3029 -57.3026 -57.2629 -57.2626
   -35.4292 -35.4287 -35.2257 -35.2252 -35.1958 -35.1953 -35.1599 -35.1594
   -35.0556 -35.0552 -35.0308 -35.0307 -34.9805 -34.9800 -34.7770 -34.7769
   -34.7523 -34.7522 -34.6444 -34.6443 -34.6371 -34.6371 -34.5863 -34.5862
   -34.5825 -34.5824 -34.4901 -34.4900 -34.3826 -34.3826 -34.3679 -34.3679
   -34.3368 -34.3368 -34.3078 -34.3078 -33.7754 -33.7751 -33.6594 -33.6592
   -33.6230 -33.6228 -33.5475 -33.5473 -33.4428 -33.4426 -33.3223 -33.3220
   -19.3132 -19.3131 -19.0391 -19.0391 -18.7968 -18.7967 -18.7577 -18.7577
   -18.5938 -18.5937 -18.4057 -18.4057 -18.4007 -18.4007 -18.1449 -18.1448
   -18.0891 -18.0891 -17.9865 -17.9864 -17.8301 -17.8301 -17.7665 -17.7665
   -17.7454 -17.7453 -17.5699 -17.5698 -16.1887 -16.1886 -16.1313 -16.1312
    -6.8561  -6.8560  -6.5627  -6.5625  -6.3972  -6.3971  -6.3608  -6.3607
    -6.3121  -6.3121  -6.3012  -6.3011  -5.6923  -5.6923  -5.6421  -5.6419
    -5.5378  -5.5378  -5.4753  -5.4752  -5.3265  -5.3264  -5.3044  -5.3042
    -5.1957  -5.1957  -5.1852  -5.1852  -5.1354  -5.1354  -5.0610  -5.0609
    -4.9196  -4.9196  -4.8189  -4.8188  -4.5932  -4.5931  -4.4575  -4.4574
    -4.3529  -4.3528  -4.3169  -4.3169  -4.2470  -4.2469  -4.2290  -4.2288
    -4.1248  -4.1248  -4.0552  -4.0552  -3.9872  -3.9871  -3.7704  -3.7703
    -3.7061  -3.7061  -3.4375  -3.4375  -3.4283  -3.4283  -3.3979  -3.3978
    -3.3254  -3.3253  -3.1040  -3.1040  -3.0800  -3.0800  -3.0241  -3.0241
    -2.8940  -2.8940  -2.8287  -2.8287  -2.6750  -2.6750  -2.4950  -2.4950
    -2.3399  -2.3399  -2.0785  -2.0784  -2.0650  -2.0650  -1.7379  -1.7378
    -1.5347  -1.5347  -1.5179  -1.5179  -1.4469  -1.4468  -1.4286  -1.4285
     0.0878   0.0882   0.3547   0.3550   0.4949   0.4950   0.5165   0.5169
     0.6712   0.6714   0.8553   0.8555   1.0092   1.0092   1.0868   1.0872
     1.2809   1.2809   1.3612   1.3612   1.3800   1.3803   1.4505   1.4505
     1.5344   1.5344   1.7897   1.7899   1.8042   1.8042   1.8892   1.8895
     1.9532   1.9532   2.0559   2.0560   2.2496   2.2498   2.3062   2.3064
     2.3531   2.3531   2.4657   2.4657   2.5345   2.5346   2.7416   2.7418
     3.0594   3.0596   3.1213   3.1214   3.3399   3.3399   3.4161   3.4163
     3.8250   3.8250   3.9232   3.9233   4.5612   4.5616   4.6122   4.6122
     4.8469   4.8469   4.9657   4.9658   5.0919   5.0920   5.1052   5.1053
     5.3320   5.3321   5.4804   5.4805   5.6787   5.6787   5.9158   5.9159
     5.9688   5.9688   6.1235   6.1235   6.2904   6.2906   6.4139   6.4139
     6.8253   6.8253   7.3299   7.3299   7.7821   7.7821   7.9904   7.9905
     8.0945   8.0945   8.2803   8.2804   8.3699   8.3699   8.9795   8.9795
     9.1828   9.1828   9.8859   9.8859  10.0980  10.0981  10.1001  10.1002
    10.2184  10.2184  10.2870  10.2870  10.3058  10.3059  10.4829  10.4829
    10.5229  10.5229  10.5703  10.5703  10.7345  10.7345  10.9413  10.9413
    10.9641  10.9641  11.0568  11.0568  11.1987  11.1987  11.2341  11.2341
    11.3943  11.3943  11.6569  11.6569  11.8398  11.8399  11.9426  11.9427
    11.9660  11.9660  12.1852  12.1852  12.3024  12.3025  12.3791  12.3792
    12.5036  12.5036  12.6067  12.6068  12.6759  12.6759  12.8664  12.8664
    12.9980  12.9980  13.0418  13.0419  13.1076  13.1076  13.1656  13.1656
    13.3478  13.3478  13.4311  13.4311  13.6550  13.6550  13.7190  13.7190
    13.8864  13.8864  14.1454  14.1454  14.2117  14.2117  14.2385  14.2385
    14.3091  14.3091  14.3160  14.3160  14.3606  14.3607  14.4552  14.4552
    14.7529  14.7529  14.9056  14.9056  15.0073  15.0073  15.0416  15.0416
    15.1265  15.1266  15.4441  15.4441  15.4762  15.4762  15.4912  15.4912
    15.7112  15.7112  15.7601  15.7602  15.8342  15.8342  15.9167  15.9168
    16.0309  16.0309  16.1750  16.1750  16.3058  16.3058  16.3773  16.3774
    16.4974  16.4974  16.5665  16.5665  16.7360  16.7361  16.7389  16.7389
    16.7711  16.7711  16.7936  16.7936  16.9703  16.9703  16.9750  16.9750
    17.0203  17.0203  17.2396  17.2396  17.2430  17.2430  17.3596  17.3596
    17.4677  17.4677  17.4851  17.4851  17.5357  17.5357  17.8289  17.8289
    17.8484  17.8484  18.0085  18.0085  18.0509  18.0509  18.1459  18.1459
    18.2348  18.2349  18.3485  18.3485  18.3645  18.3645  18.3819  18.3819
    18.6856  18.6856  18.8937  18.8937  18.9451  18.9452  19.0041  19.0041
    19.0074  19.0075  19.0137  19.0137  19.2385  19.2385  19.3678  19.3678
    19.4497  19.4497  19.6586  19.6587  19.7532  19.7532  19.7588  19.7588
    19.7652  19.7652  19.9324  19.9324  19.9737  19.9738  20.3493  20.3493
    20.4150  20.4150  20.4801  20.4802  20.5444  20.5444  20.6261  20.6261
    20.8482  20.8482  20.8707  20.8708  20.8975  20.8975  21.1119  21.1119
    21.2856  21.2856  21.2979  21.2979  21.3701  21.3701  21.4911  21.4911
    21.5661  21.5661  21.6584  21.6584  21.7248  21.7248  21.7276  21.7276
    21.8226  21.8227  22.0862  22.0862  22.3106  22.3106  22.4096  22.4096
    22.4533  22.4533  22.5094  22.5094  22.5307  22.5307  22.5622  22.5622
    22.6878  22.6878  22.8921  22.8921  22.9428  22.9429  23.0598  23.0600

          k = 0.2500 0.0000 0.0000 ( 41017 PWs)   bands (ev):

   -58.9351 -58.9346 -58.9071 -58.9066 -58.4619 -58.4617 -58.4334 -58.4333
   -58.1918 -58.1918 -58.1635 -58.1634 -57.2970 -57.2968 -57.2688 -57.2685
   -35.3644 -35.3639 -35.2209 -35.2204 -35.1990 -35.1985 -35.1474 -35.1470
   -35.0713 -35.0709 -35.0483 -35.0478 -34.9682 -34.9678 -34.7381 -34.7357
   -34.6981 -34.6977 -34.6591 -34.6582 -34.6577 -34.6539 -34.6514 -34.6509
   -34.6129 -34.6116 -34.4509 -34.4490 -34.3956 -34.3953 -34.3762 -34.3759
   -34.3631 -34.3626 -34.3413 -34.3407 -33.7117 -33.7114 -33.6505 -33.6503
   -33.6298 -33.6295 -33.5324 -33.5322 -33.4583 -33.4581 -33.3910 -33.3907
   -19.3892 -19.3061 -19.1232 -18.9390 -18.7096 -18.6164 -18.6056 -18.5365
   -18.5270 -18.5269 -18.4662 -18.4422 -18.3714 -18.1678 -18.1470 -18.1409
   -18.1407 -18.1040 -18.0688 -18.0616 -18.0476 -17.9842 -17.7941 -17.7818
   -17.7740 -17.7264 -17.5666 -17.5606 -16.2283 -16.2275 -16.1914 -16.1913
    -6.9245  -6.9132  -6.7658  -6.6634  -6.6214  -6.5119  -6.1419  -6.0427
    -6.0032  -5.9872  -5.9338  -5.8825  -5.8233  -5.8213  -5.7714  -5.7601
    -5.7453  -5.7309  -5.7077  -5.6403  -5.6386  -5.5989  -5.5986  -5.5759
    -5.5664  -5.5372  -5.4984  -5.3737  -5.3671  -5.2991  -5.2374  -5.1327
    -4.9799  -4.9394  -4.8185  -4.7725  -4.6283  -4.4492  -4.4029  -4.3891
    -4.3317  -4.1504  -4.1017  -4.0403  -4.0308  -4.0297  -4.0028  -3.9351
    -3.9030  -3.8718  -3.8632  -3.8441  -3.7955  -3.6790  -3.6590  -3.6520
    -3.6466  -3.6321  -3.6130  -3.5443  -3.4971  -3.4490  -3.4390  -3.4254
    -3.3697  -3.2113  -3.1353  -3.0413  -3.0191  -3.0163  -2.9485  -2.9109
    -2.8359  -2.8049  -2.7900  -2.7177  -2.6179  -2.6031  -2.5122  -2.5024
    -2.5023  -2.2954  -2.2858  -2.2698  -2.0787  -1.9766  -1.9713  -1.7485
    -1.4848  -1.4793  -1.4687  -1.4437  -1.4114  -1.3958  -1.2903  -1.2776
     0.2729   0.2885   0.4548   0.4558   0.6002   0.6015   0.8336   0.8388
     0.8496   0.9214   0.9309   0.9478   0.9803   1.0064   1.0182   1.0364
     1.0453   1.1834   1.1918   1.2838   1.3242   1.3560   1.4042   1.4751
     1.4968   1.5381   1.6135   1.6926   1.6928   1.8445   1.8618   1.8691
     1.8731   1.8991   1.9472   1.9573   2.0551   2.0770   2.0883   2.1277
     2.2601   2.2636   2.3433   2.4437   2.4896   2.6349   2.8163   2.8256
     2.9418   2.9695   3.1202   3.1522   3.3600   3.7367   3.8702   3.8922
     3.9553   4.0808   4.1342   4.1345   4.3911   4.4371   4.4975   4.6625
     4.6639   4.6701   4.6745   4.6862   4.6865   4.7114   4.7596   4.7991
     4.8499   5.0634   5.1084   5.1096   5.3116   5.3749   5.5157   5.7348
     5.7460   5.7563   6.0252   6.0317   6.1853   6.6431   6.6640   6.6716
     7.1254   7.3199   7.5524   7.7771   7.8175   8.1453   8.2125   8.2447
     8.2468   8.6117   8.6240   8.8442   8.8563   8.9197   9.1429   9.1625
     9.1915   9.2386   9.4080   9.4399   9.5868   9.6376   9.6963   9.8430
     9.8607   9.9700  10.0213  10.0321  10.0392  10.1462  10.3773  10.4247
    10.4256  10.5386  10.5586  10.6392  10.6831  10.8494  10.8784  10.9335
    10.9552  11.0281  11.0461  11.1002  11.1697  11.2108  11.2129  11.3993
    11.4562  11.5670  11.6375  11.6432  11.6974  11.7082  11.7801  11.7973
    11.9612  11.9849  12.0644  12.0880  12.1986  12.2544  12.3280  12.3303
    12.4171  12.4557  12.6349  12.6782  12.7192  12.7746  12.7817  12.8226
    13.0166  13.0486  13.1038  13.1082  13.1406  13.2115  13.2200  13.2262
    13.2973  13.3249  13.3473  13.4265  13.5501  13.5594  13.6547  13.6941
    13.7910  13.8022  13.8126  13.9173  13.9559  14.0004  14.1000  14.1856
    14.2647  14.2678  14.3136  14.3176  14.3499  14.3573  14.3713  14.7923
    15.0107  15.0112  15.0187  15.0799  15.1107  15.1177  15.2398  15.2835
    15.2937  15.3847  15.4332  15.4610  15.5128  15.5246  15.5637  15.6369
    15.7263  15.7356  15.7970  15.8003  15.8309  15.9315  16.0612  16.0968
    16.1214  16.1312  16.1701  16.2342  16.2733  16.2746  16.2909  16.3131
    16.3425  16.3642  16.4353  16.4668  16.4862  16.5160  16.6645  16.6950
    16.7687  16.7782  16.8068  16.9419  17.0403  17.0462  17.0780  17.1038
    17.1147  17.2233  17.2577  17.3043  17.3242  17.3924  17.4678  17.5182
    17.6332  17.6813  17.7460  17.8249  17.8703  17.9050  18.0271  18.0774
    18.1117  18.1765  18.2252  18.3533  18.3779  18.3930  18.4303  18.4666
    18.4826  18.5720  18.5853  18.6680  18.6763  18.7299  18.8321  18.8395
    18.9747  19.0725  19.1068  19.1098  19.1368  19.1510  19.2003  19.2378
    19.2670  19.3598  19.4107  19.4112  19.4261  19.4677  19.5706  19.6350
    19.6959  19.7148  19.7203  19.8533  19.8973  19.9386  19.9394  19.9482
    20.0713  20.1118  20.1398  20.2094  20.3036  20.3368  20.4209  20.4590
    20.4817  20.4928  20.6523  20.7112  20.8053  20.8792  20.8856  20.8940
    21.0056  21.0320  21.0572  21.1324  21.1842  21.1864  21.1951  21.2612
    21.2664  21.4011  21.4074  21.4490  21.4760  21.4955  21.5486  21.6384
    21.6461  21.6490  21.6713  21.6920  21.6944  21.7492  21.7770  21.8066
    21.8848  21.8861  21.9264  21.9873  22.0334  22.0434  22.0682  22.0991
    22.1332  22.1489  22.1587  22.2268  22.2589  22.2610  22.3177  22.3508
    22.3622  22.4133  22.4545  22.4565  22.5233  22.5686  22.5846  22.6847

          k = 0.2500 0.2258 0.0000 ( 40958 PWs)   bands (ev):

   -58.9351 -58.9346 -58.9071 -58.9066 -58.4618 -58.4617 -58.4334 -58.4333
   -58.1919 -58.1918 -58.1635 -58.1634 -57.2970 -57.2968 -57.2688 -57.2685
   -35.3650 -35.3646 -35.2209 -35.2204 -35.1990 -35.1985 -35.1461 -35.1457
   -35.0712 -35.0707 -35.0484 -35.0479 -34.9684 -34.9681 -34.7378 -34.7361
   -34.7100 -34.7099 -34.6598 -34.6592 -34.6518 -34.6516 -34.6465 -34.6437
   -34.5977 -34.5968 -34.4623 -34.4607 -34.3970 -34.3968 -34.3751 -34.3750
   -34.3631 -34.3627 -34.3412 -34.3408 -33.7115 -33.7113 -33.6522 -33.6520
   -33.6290 -33.6288 -33.5324 -33.5322 -33.4583 -33.4581 -33.3910 -33.3907
   -19.3089 -19.2294 -19.0386 -18.8969 -18.7122 -18.6761 -18.6742 -18.5709
   -18.5657 -18.5620 -18.4147 -18.3432 -18.3227 -18.2897 -18.2751 -18.2730
   -18.1529 -18.1454 -18.0546 -18.0513 -17.9567 -17.9144 -17.8360 -17.8165
   -17.7506 -17.7451 -17.5649 -17.5602 -16.2264 -16.2258 -16.1917 -16.1916
    -6.7192  -6.6764  -6.6360  -6.6353  -6.4098  -6.3653  -6.1153  -6.0980
    -6.0681  -5.9854  -5.9405  -5.9334  -5.8574  -5.8239  -5.8105  -5.7499
    -5.7229  -5.7009  -5.6551  -5.5979  -5.5803  -5.5682  -5.5450  -5.5379
    -5.4978  -5.4373  -5.4307  -5.3256  -5.2304  -5.2233  -5.1514  -5.0089
    -4.9844  -4.9275  -4.7881  -4.7666  -4.5779  -4.4675  -4.4601  -4.4117
    -4.3736  -4.2065  -4.1556  -4.1484  -4.1469  -4.1257  -4.0670  -3.9978
    -3.9648  -3.9357  -3.9232  -3.9010  -3.8526  -3.8224  -3.7064  -3.6686
    -3.6647  -3.6203  -3.6149  -3.6126  -3.5469  -3.5462  -3.4659  -3.4226
    -3.3835  -3.3482  -3.3444  -3.1538  -3.0975  -3.0878  -3.0636  -3.0066
    -2.9996  -2.9932  -2.7918  -2.7352  -2.6410  -2.5508  -2.5106  -2.4756
    -2.4270  -2.4070  -2.3849  -2.3183  -2.1318  -2.0147  -1.9749  -1.7936
    -1.5009  -1.4979  -1.4971  -1.4960  -1.4506  -1.4435  -1.2835  -1.2754
     0.2603   0.2787   0.4996   0.5011   0.6879   0.6967   0.7251   0.8833
     0.9314   0.9409   0.9479   0.9748   1.0445   1.0475   1.0885   1.0996
     1.1385   1.2032   1.2824   1.2851   1.3400   1.3840   1.3967   1.4631
     1.4681   1.4989   1.6321   1.7743   1.7789   1.8547   1.8929   1.8963
     1.9359   1.9630   1.9799   2.0469   2.1333   2.1727   2.2033   2.2733
     2.2792   2.3902   2.4239   2.4777   2.4885   2.5282   2.8159   2.8209
     2.9168   2.9349   3.0460   3.0801   3.5359   3.5860   3.6554   3.6799
     3.6823   3.8115   3.8955   4.0753   4.2790   4.3681   4.3969   4.6019
     4.7182   4.7254   4.7730   4.8315   4.8863   4.9090   5.0120   5.0674
     5.0762   5.1043   5.2431   5.2496   5.3595   5.4607   5.6722   5.7480
     5.7618   5.9222   5.9967   6.0141   6.3137   6.7252   6.7306   6.7697
     7.1318   7.2136   7.3569   7.4807   7.5982   7.7616   7.9131   7.9679
     8.0007   8.1910   8.3093   8.6910   8.6928   8.7232   8.9205   9.1094
     9.1893   9.2989   9.4551   9.4711   9.5088   9.5397   9.5580   9.5835
     9.7304   9.8806   9.8833  10.0143  10.0600  10.1467  10.1895  10.3282
    10.4812  10.5348  10.5594  10.6450  10.6742  10.6806  10.8737  10.9713
    11.0108  11.0624  11.1770  11.2156  11.3056  11.3568  11.5553  11.6074
    11.7031  11.7700  11.8523  11.9084  11.9764  11.9991  12.0816  12.1489
    12.2213  12.2341  12.2868  12.3752  12.5064  12.5292  12.5399  12.5946
    12.6552  12.7131  12.7442  12.7869  12.8775  12.8810  13.0094  13.0471
    13.0604  13.2134  13.2145  13.2503  13.3602  13.3876  13.5311  13.5848
    13.6348  13.6399  13.6638  13.7288  13.7711  13.7765  13.8093  13.8118
    13.8309  13.8845  13.9165  13.9620  14.0661  14.1153  14.1657  14.1924
    14.2905  14.3307  14.3667  14.4330  14.4708  14.5042  14.5206  14.5536
    14.6501  14.7847  14.8429  14.8669  14.9293  15.0426  15.0994  15.2234
    15.2449  15.3055  15.3534  15.4396  15.4547  15.5134  15.5217  15.5471
    15.5839  15.7588  15.7764  15.8040  15.8653  15.9064  15.9242  15.9478
    16.0320  16.0618  16.1364  16.1852  16.2001  16.2276  16.2656  16.2670
    16.3096  16.3141  16.3815  16.4506  16.4653  16.5203  16.5203  16.6009
    16.7126  16.7153  16.8187  16.8233  16.8343  16.9134  16.9819  17.0284
    17.0590  17.1012  17.2784  17.2821  17.3239  17.3461  17.3980  17.4210
    17.4889  17.6330  17.6394  17.7002  17.7393  17.7680  17.8298  17.9967
    18.0148  18.0174  18.1075  18.1267  18.1536  18.1705  18.1776  18.2544
    18.3464  18.3876  18.4133  18.4254  18.4332  18.4350  18.5139  18.6275
    18.6348  18.7314  18.8091  18.8208  18.8493  18.8821  18.9164  18.9227
    18.9863  19.0517  19.0659  19.0807  19.2077  19.2642  19.3266  19.4007
    19.4361  19.4827  19.5030  19.5500  19.5784  19.6099  19.6619  19.8116
    19.9517  19.9636  20.0110  20.0433  20.0722  20.1140  20.1413  20.1766
    20.2961  20.3211  20.4407  20.4719  20.4941  20.5125  20.6222  20.6578
    20.7469  20.7470  20.8684  20.8770  20.9266  20.9497  21.0091  21.0281
    21.0771  21.1143  21.1341  21.1829  21.3176  21.3859  21.4160  21.4436
    21.5168  21.5445  21.5641  21.5763  21.6479  21.7022  21.8525  21.8662
    21.8868  21.9164  21.9689  22.0411  22.0756  22.0797  22.1674  22.1678
    22.2717  22.3006  22.3331  22.3673  22.4198  22.4325  22.4463  22.5562
    22.5563  22.5572  22.6910  22.7649  22.7669  22.8672  22.8820  22.9252

          k = 0.2500-0.4516 0.0000 ( 40874 PWs)   bands (ev):

   -58.9351 -58.9346 -58.9071 -58.9065 -58.4618 -58.4617 -58.4334 -58.4333
   -58.1919 -58.1918 -58.1635 -58.1634 -57.2971 -57.2968 -57.2688 -57.2685
   -35.3657 -35.3652 -35.2208 -35.2203 -35.1990 -35.1985 -35.1448 -35.1443
   -35.0711 -35.0706 -35.0486 -35.0481 -34.9686 -34.9685 -34.7369 -34.7369
   -34.7198 -34.7197 -34.6599 -34.6598 -34.6514 -34.6513 -34.6341 -34.6340
   -34.5850 -34.5849 -34.4743 -34.4742 -34.3985 -34.3984 -34.3743 -34.3742
   -34.3629 -34.3629 -34.3411 -34.3410 -33.7113 -33.7111 -33.6540 -33.6537
   -33.6283 -33.6280 -33.5324 -33.5322 -33.4583 -33.4581 -33.3910 -33.3907
   -19.1696 -19.1695 -18.9049 -18.9048 -18.7289 -18.7288 -18.6406 -18.6405
   -18.5742 -18.5740 -18.4221 -18.4221 -18.3916 -18.3916 -18.2744 -18.2743
   -18.1622 -18.1622 -18.0513 -18.0513 -17.8970 -17.8970 -17.8825 -17.8825
   -17.7290 -17.7290 -17.5610 -17.5609 -16.2244 -16.2243 -16.1920 -16.1919
    -6.6590  -6.6589  -6.3381  -6.3379  -6.1155  -6.1154  -6.1015  -6.1014
    -6.0662  -6.0662  -5.9926  -5.9925  -5.8033  -5.8033  -5.7833  -5.7832
    -5.7568  -5.7567  -5.6280  -5.6280  -5.5387  -5.5387  -5.4421  -5.4421
    -5.3754  -5.3754  -5.2392  -5.2392  -5.1233  -5.1233  -4.9493  -4.9492
    -4.8786  -4.8786  -4.7507  -4.7507  -4.7490  -4.7490  -4.3952  -4.3952
    -4.3196  -4.3196  -4.2447  -4.2447  -4.1992  -4.1992  -4.0963  -4.0962
    -4.0548  -4.0547  -4.0023  -4.0022  -3.9480  -3.9480  -3.8713  -3.8712
    -3.8406  -3.8405  -3.6625  -3.6624  -3.6608  -3.6608  -3.5165  -3.5165
    -3.3757  -3.3757  -3.3202  -3.3202  -3.2918  -3.2918  -3.1412  -3.1411
    -3.0321  -3.0320  -2.6653  -2.6653  -2.6455  -2.6455  -2.4289  -2.4289
    -2.3432  -2.3431  -2.3233  -2.3232  -2.0839  -2.0838  -1.9615  -1.9614
    -1.5457  -1.5457  -1.5220  -1.5220  -1.4516  -1.4515  -1.2763  -1.2762
     0.2639   0.2643   0.5181   0.5184   0.6584   0.6584   0.7183   0.7187
     0.7782   0.7783   1.0514   1.0516   1.1553   1.1555   1.1582   1.1585
     1.2576   1.2576   1.2816   1.2817   1.4182   1.4185   1.4821   1.4822
     1.6323   1.6324   1.8036   1.8036   1.8553   1.8554   1.9447   1.9449
     1.9730   1.9731   1.9835   1.9836   2.2097   2.2097   2.4108   2.4109
     2.4201   2.4201   2.5032   2.5032   2.5048   2.5050   2.8172   2.8174
     2.9239   2.9240   2.9992   2.9993   3.3514   3.3514   3.3757   3.3758
     3.8775   3.8776   3.9058   3.9058   4.1304   4.1307   4.4108   4.4108
     4.7505   4.7506   4.7789   4.7789   4.9811   4.9811   5.2862   5.2863
     5.3237   5.3237   5.3665   5.3666   5.5777   5.5778   5.7716   5.7718
     5.9070   5.9071   6.2612   6.2612   6.4195   6.4195   6.7065   6.7065
     6.7887   6.7889   7.1140   7.1141   7.6243   7.6243   8.1278   8.1278
     8.3394   8.3394   8.4505   8.4505   8.4846   8.4846   8.7128   8.7128
     8.7667   8.7667   9.1764   9.1764   9.3058   9.3059   9.5086   9.5086
     9.6185   9.6186   9.7218   9.7218  10.0275  10.0275  10.1801  10.1801
    10.3658  10.3658  10.5439  10.5439  10.5894  10.5894  11.1323  11.1323
    11.2052  11.2052  11.4067  11.4067  11.5483  11.5483  11.8568  11.8568
    12.0600  12.0600  12.2785  12.2786  12.3963  12.3964  12.4987  12.4987
    12.6951  12.6951  12.7554  12.7554  12.7635  12.7635  12.8268  12.8268
    12.9217  12.9217  13.0448  13.0448  13.2508  13.2508  13.2675  13.2675
    13.3037  13.3037  13.3607  13.3607  13.4198  13.4198  13.6066  13.6066
    13.6694  13.6694  13.8159  13.8159  13.8507  13.8507  13.9535  13.9535
    13.9560  13.9560  14.0266  14.0266  14.1911  14.1911  14.3574  14.3574
    14.3835  14.3835  14.5063  14.5063  14.5343  14.5343  14.6372  14.6373
    14.7148  14.7148  14.8543  14.8544  14.9186  14.9186  14.9886  14.9886
    15.1206  15.1206  15.2345  15.2345  15.3601  15.3601  15.3767  15.3768
    15.6282  15.6282  15.6701  15.6702  15.7600  15.7601  15.7938  15.7938
    15.8154  15.8154  15.9577  15.9578  16.0540  16.0540  16.1663  16.1663
    16.2177  16.2178  16.3720  16.3720  16.3752  16.3752  16.4119  16.4119
    16.4821  16.4821  16.5768  16.5768  16.7410  16.7410  16.7680  16.7680
    16.8561  16.8562  17.0127  17.0127  17.0913  17.0913  17.1801  17.1801
    17.2123  17.2124  17.3896  17.3896  17.4197  17.4197  17.4862  17.4863
    17.7620  17.7621  17.9191  17.9191  17.9579  17.9580  18.0879  18.0879
    18.2458  18.2458  18.3483  18.3483  18.5085  18.5085  18.5790  18.5790
    18.8131  18.8131  18.8872  18.8872  19.0366  19.0366  19.0742  19.0742
    19.1090  19.1090  19.3259  19.3259  19.4024  19.4024  19.4675  19.4675
    19.5813  19.5813  19.6976  19.6976  19.7601  19.7601  19.7964  19.7964
    19.8854  19.8854  19.8910  19.8910  20.0107  20.0107  20.1052  20.1052
    20.1471  20.1472  20.1572  20.1572  20.3340  20.3341  20.3901  20.3902
    20.4271  20.4271  20.6205  20.6205  20.6711  20.6712  20.8402  20.8402
    20.8655  20.8656  20.9926  20.9926  21.1187  21.1187  21.1631  21.1631
    21.2278  21.2279  21.3463  21.3463  21.4946  21.4946  21.5510  21.5510
    21.6429  21.6429  21.6667  21.6667  21.8731  21.8731  21.9461  21.9461
    22.0851  22.0851  22.0937  22.0937  22.2131  22.2131  22.2626  22.2626
    22.3795  22.3795  22.4598  22.4598  22.6642  22.6642  22.6709  22.6709

          k =-0.5000 0.0000 0.0000 ( 41034 PWs)   bands (ev):

   -58.9211 -58.9211 -58.9206 -58.9206 -58.4477 -58.4477 -58.4476 -58.4476
   -58.1777 -58.1777 -58.1776 -58.1776 -57.2829 -57.2829 -57.2827 -57.2827
   -35.2098 -35.2098 -35.2093 -35.2093 -35.2081 -35.2081 -35.2076 -35.2076
   -35.1096 -35.1096 -35.1092 -35.1092 -34.8127 -34.8127 -34.8122 -34.8122
   -34.7005 -34.7005 -34.6987 -34.6987 -34.6346 -34.6346 -34.6321 -34.6321
   -34.5377 -34.5377 -34.5377 -34.5377 -34.4240 -34.4240 -34.4232 -34.4232
   -34.3517 -34.3517 -34.3516 -34.3516 -33.6401 -33.6401 -33.6399 -33.6399
   -33.5538 -33.5538 -33.5536 -33.5536 -33.4954 -33.4954 -33.4952 -33.4952
   -18.9933 -18.9933 -18.9485 -18.9485 -18.7698 -18.7698 -18.6236 -18.6236
   -18.4085 -18.4085 -18.3964 -18.3964 -18.3351 -18.3351 -18.3349 -18.3349
   -18.1965 -18.1965 -18.1102 -18.1102 -17.9651 -17.9651 -17.9161 -17.9161
   -17.6357 -17.6357 -17.6204 -17.6204 -16.2591 -16.2591 -16.2590 -16.2590
    -6.4004  -6.4004  -6.3995  -6.3995  -6.2154  -6.2154  -6.1869  -6.1869
    -6.1618  -6.1618  -6.0907  -6.0907  -6.0071  -6.0071  -5.9711  -5.9711
    -5.9302  -5.9302  -5.8252  -5.8252  -5.7421  -5.7421  -5.6096  -5.6096
    -5.2745  -5.2745  -5.2473  -5.2473  -5.2076  -5.2076  -5.0423  -5.0423
    -4.8674  -4.8674  -4.6829  -4.6829  -4.6161  -4.6161  -4.5654  -4.5654
    -4.3017  -4.3017  -4.1957  -4.1957  -4.1280  -4.1280  -4.0675  -4.0675
    -4.0082  -4.0082  -3.8378  -3.8378  -3.6161  -3.6161  -3.5326  -3.5326
    -3.5122  -3.5122  -3.4705  -3.4705  -3.3246  -3.3246  -3.2740  -3.2740
    -3.2299  -3.2299  -3.0726  -3.0726  -3.0148  -3.0148  -3.0106  -3.0106
    -2.9993  -2.9993  -2.9431  -2.9431  -2.8828  -2.8828  -2.6091  -2.6091
    -2.6066  -2.6066  -2.5536  -2.5536  -2.2919  -2.2919  -2.0351  -2.0351
    -1.4759  -1.4759  -1.4679  -1.4679  -1.2778  -1.2778  -1.2700  -1.2700
     0.5745   0.5745   0.6127   0.6127   0.7962   0.7962   0.7967   0.7967
     0.8902   0.8902   0.9465   0.9465   0.9488   0.9488   1.0719   1.0719
     1.1034   1.1034   1.3581   1.3581   1.3706   1.3706   1.3988   1.3988
     1.5994   1.5994   1.6685   1.6685   1.6917   1.6917   1.7100   1.7100
     1.9348   1.9348   1.9843   1.9843   2.0314   2.0314   2.1658   2.1658
     2.5525   2.5525   2.6008   2.6008   2.7315   2.7315   2.7624   2.7624
     2.7652   2.7652   2.7887   2.7887   3.6445   3.6445   4.0405   4.0405
     4.1296   4.1296   4.2377   4.2377   4.3024   4.3024   4.3028   4.3028
     4.5683   4.5683   4.7172   4.7172   4.7544   4.7544   4.7580   4.7580
     4.9156   4.9156   4.9270   4.9270   5.4344   5.4344   5.4586   5.4586
     5.9145   5.9145   5.9280   5.9280   6.2436   6.2436   6.4979   6.4979
     6.8886   6.8886   7.3803   7.3803   7.9602   7.9602   8.2472   8.2472
     8.6240   8.6240   8.9026   8.9026   8.9528   8.9528   8.9569   8.9569
     9.3775   9.3775   9.5800   9.5800   9.6339   9.6339   9.7119   9.7119
     9.8572   9.8572   9.9517   9.9517   9.9749   9.9749  10.2720  10.2720
    10.3836  10.3836  10.4132  10.4132  10.5221  10.5221  10.7668  10.7668
    10.9266  10.9266  11.2303  11.2303  11.2594  11.2594  11.4068  11.4068
    11.5995  11.5995  11.8834  11.8834  11.9621  11.9621  12.0385  12.0385
    12.0417  12.0417  12.1151  12.1151  12.1629  12.1629  12.3968  12.3968
    12.4893  12.4893  12.5813  12.5813  12.7220  12.7220  12.8819  12.8819
    13.0246  13.0246  13.2121  13.2121  13.3181  13.3181  13.5260  13.5260
    13.5846  13.5846  13.6603  13.6603  13.7719  13.7719  13.7800  13.7800
    13.8006  13.8006  13.8942  13.8942  13.9418  13.9418  14.6111  14.6111
    14.6617  14.6617  14.7780  14.7780  14.8611  14.8611  14.9352  14.9352
    14.9606  14.9606  15.2494  15.2494  15.3390  15.3390  15.4484  15.4484
    15.4934  15.4934  15.6146  15.6146  15.7089  15.7089  15.7336  15.7336
    15.8336  15.8336  15.9131  15.9131  15.9416  15.9416  16.0258  16.0258
    16.0821  16.0821  16.2268  16.2268  16.2298  16.2298  16.2734  16.2734
    16.4383  16.4383  16.6328  16.6328  16.8018  16.8018  16.8200  16.8200
    16.8455  16.8455  17.0610  17.0610  17.1396  17.1396  17.1996  17.1996
    17.4174  17.4174  17.4198  17.4198  17.5194  17.5194  17.5435  17.5435
    17.5637  17.5637  18.0129  18.0129  18.0372  18.0372  18.1273  18.1273
    18.1291  18.1291  18.2205  18.2205  18.3512  18.3512  18.3745  18.3745
    18.4140  18.4140  18.6476  18.6476  18.6549  18.6549  18.6864  18.6864
    18.8644  18.8644  18.8884  18.8884  18.9148  18.9148  18.9307  18.9307
    19.1040  19.1040  19.1716  19.1716  19.4081  19.4081  19.4392  19.4392
    19.5587  19.5587  19.6299  19.6299  19.8318  19.8318  19.8328  19.8328
    20.0611  20.0611  20.0862  20.0862  20.1339  20.1339  20.1405  20.1405
    20.1853  20.1853  20.2888  20.2888  20.3620  20.3620  20.3816  20.3816
    20.4384  20.4384  20.5365  20.5365  20.6948  20.6948  20.7199  20.7199
    20.8398  20.8398  20.9136  20.9136  21.1134  21.1134  21.1437  21.1437
    21.1870  21.1870  21.2249  21.2249  21.3229  21.3229  21.3300  21.3300
    21.5503  21.5503  21.6333  21.6333  21.7601  21.7601  21.8408  21.8408
    21.8486  21.8486  22.0082  22.0082  22.1461  22.1461  22.2241  22.2241
    22.2757  22.2757  22.3385  22.3385  22.3442  22.3442  22.4952  22.4952

          k =-0.5000 0.2258 0.0000 ( 40962 PWs)   bands (ev):

   -58.9211 -58.9211 -58.9206 -58.9206 -58.4477 -58.4477 -58.4476 -58.4476
   -58.1777 -58.1777 -58.1776 -58.1776 -57.2829 -57.2829 -57.2827 -57.2827
   -35.2099 -35.2099 -35.2094 -35.2094 -35.2084 -35.2084 -35.2080 -35.2080
   -35.1089 -35.1089 -35.1084 -35.1084 -34.8128 -34.8128 -34.8125 -34.8125
   -34.7003 -34.7003 -34.6990 -34.6990 -34.6356 -34.6356 -34.6339 -34.6339
   -34.5303 -34.5303 -34.5301 -34.5301 -34.4299 -34.4299 -34.4292 -34.4292
   -34.3517 -34.3517 -34.3516 -34.3516 -33.6406 -33.6406 -33.6404 -33.6404
   -33.5537 -33.5537 -33.5535 -33.5535 -33.4955 -33.4955 -33.4952 -33.4952
   -18.9321 -18.9321 -18.8886 -18.8886 -18.7081 -18.7081 -18.6115 -18.6115
   -18.4610 -18.4610 -18.4267 -18.4267 -18.3748 -18.3748 -18.3629 -18.3629
   -18.2040 -18.2040 -18.0983 -18.0983 -17.9947 -17.9947 -17.9877 -17.9877
   -17.6264 -17.6264 -17.6174 -17.6174 -16.2588 -16.2588 -16.2587 -16.2587
    -6.2117  -6.2117  -6.1986  -6.1986  -6.1569  -6.1569  -6.1295  -6.1295
    -6.0048  -6.0048  -5.9530  -5.9530  -5.8951  -5.8951  -5.8709  -5.8709
    -5.8381  -5.8381  -5.7824  -5.7824  -5.7349  -5.7349  -5.5835  -5.5835
    -5.4340  -5.4340  -5.3031  -5.3031  -5.0540  -5.0540  -4.9976  -4.9976
    -4.8660  -4.8660  -4.7848  -4.7848  -4.6819  -4.6819  -4.6070  -4.6070
    -4.5171  -4.5171  -4.5136  -4.5136  -4.1434  -4.1434  -4.1313  -4.1313
    -3.9780  -3.9780  -3.7758  -3.7758  -3.7546  -3.7546  -3.5615  -3.5615
    -3.5578  -3.5578  -3.5409  -3.5409  -3.5236  -3.5236  -3.4634  -3.4634
    -3.3697  -3.3697  -3.3186  -3.3186  -3.2564  -3.2564  -3.1168  -3.1168
    -2.9018  -2.9018  -2.8107  -2.8107  -2.7596  -2.7596  -2.6879  -2.6879
    -2.5058  -2.5058  -2.4929  -2.4929  -2.2506  -2.2506  -2.0426  -2.0426
    -1.5325  -1.5325  -1.5314  -1.5314  -1.2636  -1.2636  -1.2595  -1.2595
     0.6235   0.6235   0.6242   0.6242   0.8212   0.8212   0.8241   0.8241
     0.9506   0.9506   1.0561   1.0561   1.0775   1.0775   1.1291   1.1291
     1.1385   1.1385   1.3531   1.3531   1.4371   1.4371   1.5251   1.5251
     1.6096   1.6096   1.6350   1.6350   1.7839   1.7839   1.8370   1.8370
     1.9456   1.9456   2.0351   2.0351   2.0675   2.0675   2.1893   2.1893
     2.5557   2.5557   2.5758   2.5758   2.7150   2.7150   2.7439   2.7439
     2.7806   2.7806   2.7956   2.7956   3.6688   3.6688   3.8772   3.8772
     3.9013   3.9013   3.9113   3.9113   4.0690   4.0690   4.0915   4.0915
     4.6227   4.6227   4.6617   4.6617   4.9167   4.9167   5.0532   5.0532
     5.1547   5.1547   5.1662   5.1662   5.4951   5.4951   5.5173   5.5173
     5.9085   5.9085   5.9232   5.9232   6.4460   6.4460   6.6816   6.6816
     7.0517   7.0517   7.4996   7.4996   7.8964   7.8964   8.0253   8.0253
     8.2322   8.2322   8.2799   8.2799   8.4681   8.4681   8.7156   8.7156
     8.8042   8.8042   9.0007   9.0007   9.3555   9.3555   9.4654   9.4654
     9.6982   9.6982   9.8335   9.8335  10.0280  10.0280  10.2022  10.2022
    10.4221  10.4221  10.6100  10.6100  10.9719  10.9719  11.1357  11.1357
    11.3407  11.3407  11.4240  11.4240  11.7040  11.7040  11.7586  11.7586
    11.8028  11.8028  12.0512  12.0512  12.1538  12.1538  12.3701  12.3701
    12.4558  12.4558  12.4850  12.4850  12.5667  12.5667  12.6445  12.6445
    12.8024  12.8024  12.9379  12.9379  12.9380  12.9380  13.2130  13.2130
    13.3226  13.3226  13.4615  13.4615  13.4623  13.4623  13.6016  13.6016
    13.6244  13.6244  13.7313  13.7313  13.8345  13.8345  13.8817  13.8817
    13.8995  13.8995  14.1840  14.1840  14.2206  14.2206  14.7549  14.7549
    14.7582  14.7582  14.9074  14.9074  14.9611  14.9611  15.0430  15.0430
    15.0721  15.0721  15.1618  15.1618  15.2154  15.2154  15.2756  15.2756
    15.3517  15.3517  15.4010  15.4010  15.5768  15.5768  15.6792  15.6792
    15.7179  15.7179  15.8194  15.8194  15.9170  15.9170  16.0464  16.0464
    16.2270  16.2270  16.2465  16.2465  16.4068  16.4068  16.4096  16.4096
    16.4724  16.4724  16.5092  16.5092  16.6799  16.6799  16.6927  16.6927
    16.7582  16.7582  16.8244  16.8244  16.8282  16.8282  17.0031  17.0031
    17.0205  17.0205  17.0963  17.0963  17.1669  17.1669  17.2175  17.2175
    17.3845  17.3845  17.3923  17.3923  17.4456  17.4456  17.5122  17.5122
    17.6612  17.6612  17.7432  17.7432  17.7440  17.7440  17.8745  17.8745
    18.1185  18.1185  18.1486  18.1486  18.2037  18.2037  18.2477  18.2477
    18.4624  18.4624  18.5883  18.5883  18.6120  18.6120  18.6925  18.6925
    18.7429  18.7429  18.7999  18.7999  19.0384  19.0384  19.0895  19.0895
    19.2155  19.2155  19.2968  19.2968  19.5366  19.5366  19.7502  19.7502
    19.8088  19.8088  19.9158  19.9158  19.9764  19.9764  20.0012  20.0012
    20.0776  20.0776  20.1853  20.1853  20.1945  20.1945  20.2744  20.2744
    20.5179  20.5179  20.5757  20.5757  20.6706  20.6706  20.7235  20.7235
    20.8501  20.8501  21.0681  21.0681  21.1785  21.1785  21.2346  21.2346
    21.3419  21.3419  21.4015  21.4015  21.5193  21.5193  21.6540  21.6540
    21.6942  21.6942  21.8552  21.8552  22.0445  22.0445  22.0671  22.0671
    22.1724  22.1724  22.2545  22.2545  22.4546  22.4546  22.4996  22.4996
    22.6062  22.6062  22.7110  22.7110  22.7664  22.7664  22.9541  22.9541

          k =-0.5000-0.4516 0.0000 ( 40844 PWs)   bands (ev):

   -58.9211 -58.9211 -58.9206 -58.9206 -58.4476 -58.4476 -58.4476 -58.4476
   -58.1777 -58.1777 -58.1776 -58.1776 -57.2829 -57.2829 -57.2827 -57.2827
   -35.2101 -35.2101 -35.2096 -35.2096 -35.2087 -35.2087 -35.2082 -35.2082
   -35.1081 -35.1081 -35.1077 -35.1077 -34.8129 -34.8129 -34.8129 -34.8129
   -34.6997 -34.6997 -34.6996 -34.6996 -34.6360 -34.6360 -34.6360 -34.6360
   -34.5218 -34.5218 -34.5217 -34.5217 -34.4365 -34.4365 -34.4365 -34.4365
   -34.3517 -34.3517 -34.3516 -34.3516 -33.6410 -33.6410 -33.6408 -33.6408
   -33.5537 -33.5537 -33.5534 -33.5534 -33.4954 -33.4954 -33.4952 -33.4952
   -18.8224 -18.8224 -18.8222 -18.8222 -18.6001 -18.6001 -18.6001 -18.6001
   -18.5601 -18.5601 -18.5601 -18.5601 -18.3780 -18.3780 -18.3780 -18.3780
   -18.1450 -18.1450 -18.1450 -18.1450 -18.0447 -18.0447 -18.0447 -18.0447
   -17.6169 -17.6169 -17.6168 -17.6168 -16.2586 -16.2586 -16.2585 -16.2585
    -6.1736  -6.1736  -6.1735  -6.1735  -5.9331  -5.9331  -5.9331  -5.9331
    -5.8231  -5.8231  -5.8230  -5.8230  -5.7495  -5.7495  -5.7494  -5.7494
    -5.6716  -5.6716  -5.6716  -5.6716  -5.4840  -5.4840  -5.4839  -5.4839
    -5.3866  -5.3866  -5.3866  -5.3866  -5.1218  -5.1218  -5.1217  -5.1217
    -5.0016  -5.0016  -5.0016  -5.0016  -4.9003  -4.9003  -4.9003  -4.9003
    -4.4059  -4.4059  -4.4058  -4.4058  -4.1932  -4.1932  -4.1932  -4.1932
    -4.0335  -4.0335  -4.0334  -4.0334  -3.8409  -3.8409  -3.8408  -3.8408
    -3.6878  -3.6878  -3.6878  -3.6878  -3.5991  -3.5991  -3.5991  -3.5991
    -3.4998  -3.4998  -3.4998  -3.4998  -3.2670  -3.2670  -3.2670  -3.2670
    -2.8105  -2.8105  -2.8105  -2.8105  -2.6460  -2.6460  -2.6459  -2.6459
    -2.3944  -2.3944  -2.3944  -2.3944  -2.1286  -2.1286  -2.1286  -2.1286
    -1.5819  -1.5819  -1.5819  -1.5819  -1.2534  -1.2534  -1.2533  -1.2533
     0.7024   0.7024   0.7026   0.7026   0.8066   0.8066   0.8069   0.8069
     1.0158   1.0158   1.0159   1.0159   1.1209   1.1209   1.1209   1.1209
     1.2928   1.2928   1.2931   1.2931   1.4751   1.4751   1.4752   1.4752
     1.8078   1.8078   1.8078   1.8078   1.9262   1.9262   1.9263   1.9263
     2.0140   2.0140   2.0141   2.0141   2.1764   2.1764   2.1765   2.1765
     2.6113   2.6113   2.6114   2.6114   2.7287   2.7287   2.7288   2.7288
     2.7960   2.7960   2.7962   2.7962   3.5470   3.5470   3.5473   3.5473
     3.5922   3.5922   3.5923   3.5923   4.0450   4.0450   4.0450   4.0450
     4.6775   4.6775   4.6775   4.6775   5.0784   5.0784   5.0785   5.0785
     5.3927   5.3927   5.3928   5.3928   5.6518   5.6518   5.6520   5.6520
     5.8464   5.8464   5.8465   5.8465   7.0404   7.0404   7.0404   7.0404
     7.1930   7.1930   7.1930   7.1930   7.4866   7.4866   7.4866   7.4866
     7.9040   7.9040   7.9040   7.9040   8.4273   8.4273   8.4274   8.4274
     8.9490   8.9490   8.9490   8.9490   9.2207   9.2207   9.2208   9.2208
     9.5277   9.5277   9.5277   9.5277  10.0109  10.0109  10.0110  10.0110
    10.2958  10.2958  10.2958  10.2958  10.8141  10.8141  10.8141  10.8141
    11.3655  11.3655  11.3656  11.3656  12.1307  12.1307  12.1308  12.1308
    12.4237  12.4237  12.4237  12.4237  12.7959  12.7959  12.7959  12.7959
    13.0728  13.0728  13.0728  13.0728  13.3946  13.3946  13.3946  13.3946
    13.5573  13.5573  13.5573  13.5573  13.5661  13.5661  13.5661  13.5661
    13.7868  13.7868  13.7869  13.7869  13.9458  13.9458  13.9458  13.9458
    13.9847  13.9847  13.9848  13.9848  14.0620  14.0620  14.0621  14.0621
    14.1617  14.1617  14.1617  14.1617  14.3118  14.3118  14.3118  14.3118
    14.4311  14.4311  14.4311  14.4311  14.7345  14.7345  14.7345  14.7345
    14.9442  14.9442  14.9442  14.9442  15.1818  15.1818  15.1818  15.1818
    15.3024  15.3024  15.3024  15.3024  15.4804  15.4804  15.4804  15.4804
    15.5962  15.5962  15.5962  15.5962  15.6017  15.6017  15.6017  15.6017
    15.7977  15.7977  15.7977  15.7977  16.0109  16.0109  16.0109  16.0109
    16.1078  16.1078  16.1078  16.1078  16.3178  16.3178  16.3178  16.3178
    16.5396  16.5396  16.5396  16.5396  16.6073  16.6073  16.6074  16.6074
    16.8152  16.8152  16.8152  16.8152  16.9243  16.9243  16.9243  16.9243
    17.2533  17.2533  17.2533  17.2533  17.3680  17.3680  17.3680  17.3680
    17.5083  17.5083  17.5083  17.5083  17.5764  17.5764  17.5764  17.5764
    18.0421  18.0421  18.0421  18.0421  18.1369  18.1369  18.1369  18.1369
    18.1746  18.1746  18.1746  18.1746  18.4118  18.4118  18.4118  18.4118
    18.8762  18.8762  18.8762  18.8762  19.0032  19.0032  19.0032  19.0032
    19.0739  19.0739  19.0739  19.0739  19.4093  19.4093  19.4094  19.4094
    19.4892  19.4892  19.4892  19.4892  19.7741  19.7741  19.7741  19.7741
    19.9755  19.9755  19.9755  19.9755  20.0532  20.0532  20.0533  20.0533
    20.6010  20.6010  20.6010  20.6010  20.8341  20.8341  20.8342  20.8342
    21.0692  21.0692  21.0692  21.0692  21.2947  21.2947  21.2947  21.2947
    21.6711  21.6711  21.6711  21.6711  21.8831  21.8831  21.8831  21.8831
    22.3237  22.3237  22.3237  22.3237  22.4382  22.4382  22.4383  22.4383
    22.5406  22.5406  22.5406  22.5406  22.6104  22.6104  22.6104  22.6104
    22.7704  22.7704  22.7705  22.7705  22.9435  22.9435  22.9435  22.9435

     the Fermi energy is    -1.1647 ev

!    total energy              =   -2931.51338502 Ry
     Harris-Foulkes estimate   =   -2931.51338513 Ry
     estimated scf accuracy    <       0.00000011 Ry

     The total energy is the sum of the following terms:

     one-electron contribution =  -64008.79583673 Ry
     hartree contribution      =   32045.62797169 Ry
     xc contribution           =    -505.39551564 Ry
     ewald contribution        =   29537.04786833 Ry
     smearing contrib. (-TS)   =       0.00212733 Ry

     convergence has been achieved in  23 iterations

     Forces acting on atoms (Ry/au):


     negative rho (up, down):  0.201E+00 0.000E+00
     atom    1 type  1   force =     0.00000000    0.00000000    0.05678974
     atom    2 type  2   force =     0.00000001    0.00000000   -0.12986667
     atom    3 type  2   force =     0.00000000    0.00000000    0.11237535
     atom    4 type  1   force =    -0.00000000    0.03480814   -0.03124255
     atom    5 type  1   force =    -0.00000000   -0.03480814   -0.03124255
     atom    6 type  1   force =     0.00000000    0.00000000    0.08989624
     atom    7 type  1   force =     0.00000000    0.00000000   -0.07457405
     atom    8 type  2   force =     0.00000000    0.00000000    0.02736366
     atom    9 type  2   force =     0.00000000    0.00000000   -0.03802487
     atom   10 type  1   force =    -0.00000000    0.03483500    0.00328073
     atom   11 type  1   force =    -0.00000000   -0.03483500    0.00328073
     atom   12 type  1   force =     0.00000000    0.00000000    0.00231337
     atom   13 type  1   force =     0.00000000    0.00000000   -0.00228622
     atom   14 type  2   force =    -0.00000001    0.00000000   -0.02738460
     atom   15 type  2   force =     0.00000000    0.00000000    0.03799604
     atom   16 type  1   force =     0.00000001   -0.03483276   -0.00325398
     atom   17 type  1   force =     0.00000001    0.03483276   -0.00325398
     atom   18 type  1   force =     0.00000000    0.00000000    0.07458903
     atom   19 type  1   force =     0.00000000    0.00000000   -0.08984609
     atom   20 type  2   force =    -0.00000000    0.00000000    0.12983061
     atom   21 type  2   force =     0.00000000    0.00000000   -0.11239475
     atom   22 type  1   force =    -0.00000000   -0.03478967    0.03125781
     atom   23 type  1   force =    -0.00000000    0.03478967    0.03125781
     atom   24 type  1   force =     0.00000000    0.00000000   -0.05686080
     atom   25 type  1   force =     0.00000000    0.00000000    0.05678971
     atom   26 type  2   force =    -0.00000001    0.00000000   -0.12986667
     atom   27 type  2   force =     0.00000000    0.00000000    0.11237536
     atom   28 type  1   force =     0.00000000    0.03480814   -0.03124255
     atom   29 type  1   force =     0.00000000   -0.03480814   -0.03124255
     atom   30 type  1   force =     0.00000000    0.00000000    0.08989624
     atom   31 type  1   force =     0.00000000    0.00000000   -0.07457406
     atom   32 type  2   force =    -0.00000000    0.00000000    0.02736366
     atom   33 type  2   force =     0.00000000    0.00000000   -0.03802487
     atom   34 type  1   force =     0.00000000    0.03483500    0.00328073
     atom   35 type  1   force =     0.00000000   -0.03483500    0.00328073
     atom   36 type  1   force =     0.00000000    0.00000000    0.00231336
     atom   37 type  1   force =     0.00000000    0.00000000   -0.00228619
     atom   38 type  2   force =     0.00000001    0.00000000   -0.02738460
     atom   39 type  2   force =     0.00000000    0.00000000    0.03799605
     atom   40 type  1   force =    -0.00000001   -0.03483276   -0.00325398
     atom   41 type  1   force =    -0.00000001    0.03483276   -0.00325398
     atom   42 type  1   force =     0.00000000    0.00000000    0.07458902
     atom   43 type  1   force =     0.00000000    0.00000000   -0.08984609
     atom   44 type  2   force =     0.00000000    0.00000000    0.12983061
     atom   45 type  2   force =     0.00000000    0.00000000   -0.11239476
     atom   46 type  1   force =     0.00000000   -0.03478967    0.03125781
     atom   47 type  1   force =     0.00000000    0.03478967    0.03125781
     atom   48 type  1   force =     0.00000000    0.00000000   -0.05686081

     Total force =     0.332803     Total SCF correction =     0.000520

     BFGS Geometry Optimization

     number of scf cycles    =   1
     number of bfgs steps    =   0

     energy   new            =   -2931.5133850224 Ry

     new trust radius        =       0.1298306130 bohr
     new conv_thr            =       0.0000010000 Ry


ATOMIC_POSITIONS (crystal)
O0       0.000000000   0.500000000   0.330010000    0   0   0
Ti1      0.250000000   0.500000000   0.364370000    0   0   0
Ti1      0.000000000   0.000000000   0.364370000    0   0   0
O0       0.250000000   0.810000000   0.364370000    0   0   0
O0       0.250000000   0.190000000   0.364370000    0   0   0
O0       0.000000000   0.500000000   0.398730000    0   0   0
O0       0.000000000   0.000000000   0.420430000    0   0   0
Ti1      0.250000000   0.000000000   0.454790000    0   0   0
Ti1      0.000000000   0.500000000   0.454790000    0   0   0
O0       0.250000000   0.690000000   0.454790000    0   0   0
O0       0.250000000   0.310000000   0.454790000    0   0   0
O0       0.000000000   0.000000000   0.489150000    0   0   0
O0       0.000000000   0.500000000   0.510816730
Ti1      0.249999999   0.500000000   0.544811483
Ti1      0.000000000   0.000000000   0.545762941
O0       0.250000001   0.807197013   0.545162646
O0       0.250000001   0.192802987   0.545162646
O0       0.000000000   0.500000000   0.580655465
O0       0.000000000   0.000000000   0.599962505
Ti1      0.250000000   0.000000000   0.637519374
Ti1      0.000000000   0.500000000   0.633994363
O0       0.250000000   0.687200480   0.636084883
O0       0.250000000   0.312799520   0.636084883
O0       0.000000000   0.000000000   0.669162527
O0       0.500000000   0.500000000   0.330010000    0   0   0
Ti1      0.750000000   0.500000000   0.364370000    0   0   0
Ti1      0.500000000   0.000000000   0.364370000    0   0   0
O0       0.750000000   0.810000000   0.364370000    0   0   0
O0       0.750000000   0.190000000   0.364370000    0   0   0
O0       0.500000000   0.500000000   0.398730000    0   0   0
O0       0.500000000   0.000000000   0.420430000    0   0   0
Ti1      0.750000000   0.000000000   0.454790000    0   0   0
Ti1      0.500000000   0.500000000   0.454790000    0   0   0
O0       0.750000000   0.690000000   0.454790000    0   0   0
O0       0.750000000   0.310000000   0.454790000    0   0   0
O0       0.500000000   0.000000000   0.489150000    0   0   0
O0       0.500000000   0.500000000   0.510816730
Ti1      0.750000001   0.500000000   0.544811483
Ti1      0.500000000   0.000000000   0.545762941
O0       0.749999999   0.807197013   0.545162646
O0       0.749999999   0.192802987   0.545162646
O0       0.500000000   0.500000000   0.580655465
O0       0.500000000   0.000000000   0.599962505
Ti1      0.750000000   0.000000000   0.637519374
Ti1      0.500000000   0.500000000   0.633994363
O0       0.750000000   0.687200480   0.636084883
O0       0.750000000   0.312799520   0.636084883
O0       0.500000000   0.000000000   0.669162527


     Check: negative starting charge=   -0.203397
     NEW-OLD atomic charge density approx. for the potential

     Check: negative/imaginary core charge=   -0.000007    0.000000
     Check: negative starting charge=   -0.203724

     negative rho (up, down):  0.202E+00 0.000E+00

     total cpu time spent up to now is    10863.7 secs

     per-process dynamical memory:   259.8 Mb

     Self-consistent Calculation

     iteration #  1     ecut=    40.00 Ry     beta=0.70
     Davidson diagonalization with overlap
     ethr =  1.00E-06,  avg # of iterations =  6.2

     negative rho (up, down):  0.202E+00 0.000E+00

     total cpu time spent up to now is    11821.0 secs

     total energy              =   -2931.58792903 Ry
     Harris-Foulkes estimate   =   -2931.60991889 Ry
     estimated scf accuracy    <       0.03179289 Ry

     iteration #  2     ecut=    40.00 Ry     beta=0.70
     Davidson diagonalization with overlap
     ethr =  8.28E-06,  avg # of iterations =  5.2

     negative rho (up, down):  0.202E+00 0.000E+00

     total cpu time spent up to now is    12448.4 secs

     total energy              =   -2931.57755627 Ry
     Harris-Foulkes estimate   =   -2931.62172041 Ry
     estimated scf accuracy    <       0.11980688 Ry

     iteration #  3     ecut=    40.00 Ry     beta=0.70
     Davidson diagonalization with overlap
     ethr =  8.28E-06,  avg # of iterations =  6.9

     negative rho (up, down):  0.202E+00 0.000E+00

     total cpu time spent up to now is    13092.5 secs

     total energy              =   -2931.59831519 Ry
     Harris-Foulkes estimate   =   -2931.60572047 Ry
     estimated scf accuracy    <       0.02272322 Ry

     iteration #  4     ecut=    40.00 Ry     beta=0.70
     Davidson diagonalization with overlap
     ethr =  5.92E-06,  avg # of iterations =  5.8

     negative rho (up, down):  0.202E+00 0.000E+00

     total cpu time spent up to now is    13641.0 secs

     total energy              =   -2931.60044008 Ry
     Harris-Foulkes estimate   =   -2931.60307976 Ry
     estimated scf accuracy    <       0.00823643 Ry

     iteration #  5     ecut=    40.00 Ry     beta=0.70
     Davidson diagonalization with overlap
     ethr =  2.14E-06,  avg # of iterations =  7.1

     negative rho (up, down):  0.202E+00 0.000E+00

     total cpu time spent up to now is    14237.7 secs

     total energy              =   -2931.60154609 Ry
     Harris-Foulkes estimate   =   -2931.60222108 Ry
     estimated scf accuracy    <       0.00221771 Ry

     iteration #  6     ecut=    40.00 Ry     beta=0.70
     Davidson diagonalization with overlap
     ethr =  5.78E-07,  avg # of iterations =  4.7

     negative rho (up, down):  0.202E+00 0.000E+00

     total cpu time spent up to now is    14703.5 secs

     total energy              =   -2931.60183420 Ry
     Harris-Foulkes estimate   =   -2931.60196084 Ry
     estimated scf accuracy    <       0.00039282 Ry

     iteration #  7     ecut=    40.00 Ry     beta=0.70
     Davidson diagonalization with overlap
     ethr =  1.02E-07,  avg # of iterations =  1.8

     negative rho (up, down):  0.202E+00 0.000E+00

     total cpu time spent up to now is    15056.1 secs

     total energy              =   -2931.60189476 Ry
     Harris-Foulkes estimate   =   -2931.60192430 Ry
     estimated scf accuracy    <       0.00009406 Ry

     iteration #  8     ecut=    40.00 Ry     beta=0.70
     Davidson diagonalization with overlap
     ethr =  2.45E-08,  avg # of iterations =  1.2

     negative rho (up, down):  0.202E+00 0.000E+00

     total cpu time spent up to now is    15388.8 secs

     total energy              =   -2931.60190690 Ry
     Harris-Foulkes estimate   =   -2931.60191413 Ry
     estimated scf accuracy    <       0.00001897 Ry

     iteration #  9     ecut=    40.00 Ry     beta=0.70
     Davidson diagonalization with overlap
     ethr =  4.94E-09,  avg # of iterations =  1.0

     negative rho (up, down):  0.202E+00 0.000E+00

     total cpu time spent up to now is    15713.5 secs

     total energy              =   -2931.60191043 Ry
     Harris-Foulkes estimate   =   -2931.60191232 Ry
     estimated scf accuracy    <       0.00000582 Ry

     iteration # 10     ecut=    40.00 Ry     beta=0.70
     Davidson diagonalization with overlap
     ethr =  1.52E-09,  avg # of iterations =  1.0

     negative rho (up, down):  0.202E+00 0.000E+00

     total cpu time spent up to now is    16038.4 secs

     total energy              =   -2931.60191119 Ry
     Harris-Foulkes estimate   =   -2931.60191164 Ry
     estimated scf accuracy    <       0.00000126 Ry

     iteration # 11     ecut=    40.00 Ry     beta=0.70
     Davidson diagonalization with overlap
     ethr =  3.27E-10,  avg # of iterations =  1.0

     negative rho (up, down):  0.202E+00 0.000E+00

     total cpu time spent up to now is    16360.7 secs

     End of self-consistent calculation

          k = 0.0000 0.0000 0.0000 ( 40985 PWs)   bands (ev):

   -58.8256 -58.7860 -58.6418 -58.6011 -58.4628 -58.4235 -58.3209 -58.2807
   -58.1140 -58.0739 -58.0487 -58.0094 -57.4557 -57.4154 -57.2061 -57.1661
   -35.3133 -35.1649 -35.1091 -35.0785 -35.0486 -35.0308 -34.9600 -34.9409
   -34.9090 -34.8841 -34.8799 -34.8660 -34.7717 -34.7358 -34.7012 -34.6759
   -34.6396 -34.6348 -34.6041 -34.6040 -34.5902 -34.5836 -34.5345 -34.4962
   -34.4632 -34.4318 -34.3635 -34.3186 -34.2963 -34.2921 -34.2608 -34.2325
   -34.2211 -34.2181 -34.1874 -34.1652 -33.9394 -33.7761 -33.7479 -33.7079
   -33.6800 -33.6061 -33.5565 -33.5272 -33.4803 -33.4512 -33.3465 -33.2263
   -19.4414 -19.3382 -19.1526 -18.9676 -18.7199 -18.5895 -18.5221 -18.4952
[...]
    22.2682  22.2682  22.3076  22.3076  22.3335  22.3335  22.3432  22.3432

          k =-0.5000 0.2258 0.0000 ( 40962 PWs)   bands (ev):

   -58.7398 -58.7398 -58.6962 -58.6962 -58.4711 -58.4711 -58.2591 -58.2591
   -58.1708 -58.1708 -58.1135 -58.1135 -57.8982 -57.8982 -57.1865 -57.1865
   -35.0894 -35.0894 -35.0312 -35.0312 -35.0215 -35.0215 -34.9727 -34.9727
   -34.9314 -34.9314 -34.8652 -34.8652 -34.8345 -34.8345 -34.7738 -34.7738
   -34.6810 -34.6810 -34.6005 -34.6005 -34.5227 -34.5227 -34.4916 -34.4916
   -34.4706 -34.4706 -34.4500 -34.4500 -34.4256 -34.4256 -34.3677 -34.3677
   -34.3530 -34.3530 -34.3031 -34.3031 -34.2446 -34.2446 -34.1669 -34.1669
   -34.1317 -34.1317 -33.5368 -33.5368 -33.4616 -33.4616 -33.4015 -33.4015
   -19.0724 -19.0724 -18.7876 -18.7876 -18.7011 -18.7011 -18.5262 -18.5262
   -18.4486 -18.4486 -18.3950 -18.3950 -18.2728 -18.2728 -18.1583 -18.1583
   -18.1511 -18.1511 -18.0924 -18.0924 -17.9294 -17.9294 -17.8305 -17.8305
   -17.6264 -17.6264 -17.5574 -17.5574 -17.5151 -17.5151 -16.1663 -16.1663
    -6.4677  -6.4677  -6.1659  -6.1659  -6.0241  -6.0241  -6.0105  -6.0105
    -5.9742  -5.9742  -5.9009  -5.9009  -5.8662  -5.8662  -5.7789  -5.7789
    -5.7262  -5.7262  -5.6368  -5.6368  -5.5696  -5.5696  -5.5579  -5.5579
    -5.4945  -5.4945  -5.4187  -5.4187  -5.2496  -5.2496  -4.9534  -4.9534
    -4.8141  -4.8141  -4.6965  -4.6965  -4.6696  -4.6696  -4.5756  -4.5756
    -4.4718  -4.4718  -4.4541  -4.4541  -4.1963  -4.1963  -4.1389  -4.1389
    -4.0573  -4.0573  -4.0156  -4.0156  -3.8490  -3.8490  -3.6980  -3.6980
    -3.6199  -3.6199  -3.5367  -3.5367  -3.4756  -3.4756  -3.4011  -3.4011
    -3.3662  -3.3662  -3.2873  -3.2873  -3.2714  -3.2714  -3.1300  -3.1300
    -3.0763  -3.0763  -2.8707  -2.8707  -2.7176  -2.7176  -2.6669  -2.6669
    -2.6004  -2.6004  -2.5885  -2.5885  -2.5080  -2.5080  -2.3363  -2.3363
    -2.0997  -2.0997  -1.9592  -1.9592  -1.4147  -1.4147  -1.1913  -1.1913
     0.5872   0.5872   0.7004   0.7004   0.7926   0.7926   1.0088   1.0088
     1.0469   1.0469   1.0504   1.0504   1.2700   1.2700   1.3019   1.3019
     1.3372   1.3372   1.3974   1.3974   1.4723   1.4723   1.6820   1.6820
     1.6887   1.6887   1.7377   1.7377   1.8433   1.8433   1.9057   1.9057
     2.0572   2.0572   2.1703   2.1703   2.2206   2.2206   2.3474   2.3474
     2.3809   2.3809   2.4851   2.4851   2.6618   2.6618   2.8318   2.8318
     2.8477   2.8477   3.0098   3.0098   3.5802   3.5802   3.8529   3.8529
     3.9008   3.9008   3.9608   3.9608   4.0522   4.0522   4.1037   4.1037
     4.4584   4.4584   4.6671   4.6671   4.7618   4.7618   4.8355   4.8355
     5.0542   5.0542   5.2568   5.2568   5.2764   5.2764   5.6019   5.6019
     6.0217   6.0217   6.0513   6.0513   6.4628   6.4628   6.7320   6.7320
     7.1186   7.1186   7.5527   7.5527   7.8619   7.8619   8.0390   8.0390
     8.1445   8.1445   8.2788   8.2788   8.4092   8.4092   8.7039   8.7039
     8.8214   8.8214   8.9747   8.9747   9.3645   9.3645   9.5204   9.5204
     9.6410   9.6410   9.7299   9.7299  10.0877  10.0877  10.2457  10.2457
    10.3236  10.3236  10.6892  10.6892  10.9823  10.9823  11.1106  11.1106
    11.2343  11.2343  11.4673  11.4673  11.6995  11.6995  11.7999  11.7999
    11.8626  11.8626  12.0188  12.0188  12.0982  12.0982  12.2499  12.2499
    12.3456  12.3456  12.4501  12.4501  12.5877  12.5877  12.6235  12.6235
    12.7946  12.7946  12.9746  12.9746  13.0386  13.0386  13.2205  13.2205
    13.2691  13.2691  13.4462  13.4462  13.4556  13.4556  13.5601  13.5601
    13.6238  13.6238  13.6828  13.6828  13.7478  13.7478  13.8812  13.8812
    13.9453  13.9453  14.1651  14.1651  14.3203  14.3203  14.5933  14.5933
    14.7310  14.7310  14.8164  14.8164  14.8961  14.8961  14.9812  14.9812
    15.0865  15.0865  15.1248  15.1248  15.2098  15.2098  15.2941  15.2941
    15.3125  15.3125  15.4128  15.4128  15.4884  15.4884  15.5323  15.5323
    15.6180  15.6180  15.6985  15.6985  15.8629  15.8629  15.9958  15.9958
    16.1425  16.1425  16.2483  16.2483  16.3790  16.3790  16.4300  16.4300
    16.4476  16.4476  16.5555  16.5555  16.6341  16.6341  16.6882  16.6882
    16.7514  16.7514  16.8021  16.8021  16.8530  16.8530  16.9335  16.9335
    17.0673  17.0673  17.0862  17.0862  17.1843  17.1843  17.2531  17.2531
    17.2919  17.2919  17.4115  17.4115  17.4560  17.4560  17.5245  17.5245
    17.5435  17.5435  17.7561  17.7561  17.8192  17.8192  17.9909  17.9909
    18.1126  18.1126  18.1443  18.1443  18.1881  18.1881  18.2642  18.2642
    18.3937  18.3937  18.5928  18.5928  18.6621  18.6621  18.7060  18.7060
    18.7132  18.7132  18.8412  18.8412  19.0354  19.0354  19.0708  19.0708
    19.2919  19.2919  19.3419  19.3419  19.5906  19.5906  19.6910  19.6910
    19.8158  19.8158  19.8819  19.8819  19.9727  19.9727  20.0216  20.0216
    20.1445  20.1445  20.1845  20.1845  20.2574  20.2574  20.3165  20.3165
    20.5955  20.5955  20.6352  20.6352  20.6900  20.6900  20.7817  20.7817
    20.8876  20.8876  21.1308  21.1308  21.1446  21.1446  21.2927  21.2927
    21.3679  21.3679  21.4629  21.4629  21.5417  21.5417  21.6396  21.6396
    21.7158  21.7158  21.8946  21.8946  22.0673  22.0673  22.0698  22.0698
    22.0999  22.0999  22.2445  22.2445  22.4248  22.4248  22.5581  22.5581
    22.6099  22.6099  22.6962  22.6962  22.8373  22.8373  22.8452  22.8452

          k =-0.5000-0.4516 0.0000 ( 40844 PWs)   bands (ev):

   -58.7398 -58.7398 -58.6962 -58.6962 -58.4711 -58.4711 -58.2591 -58.2591
   -58.1707 -58.1707 -58.1135 -58.1135 -57.8982 -57.8982 -57.1865 -57.1865
   -35.0895 -35.0895 -35.0316 -35.0316 -35.0215 -35.0215 -34.9727 -34.9727
   -34.9306 -34.9306 -34.8646 -34.8646 -34.8347 -34.8347 -34.7745 -34.7745
   -34.6792 -34.6792 -34.5974 -34.5974 -34.5259 -34.5259 -34.4953 -34.4953
   -34.4718 -34.4718 -34.4507 -34.4507 -34.4129 -34.4129 -34.3674 -34.3674
   -34.3534 -34.3534 -34.3107 -34.3107 -34.2445 -34.2445 -34.1679 -34.1679
   -34.1316 -34.1316 -33.5372 -33.5372 -33.4615 -33.4615 -33.4015 -33.4015
   -19.0466 -19.0466 -18.7602 -18.7602 -18.6105 -18.6105 -18.4221 -18.4221
   -18.4076 -18.4076 -18.3896 -18.3896 -18.3245 -18.3245 -18.2523 -18.2523
   -18.2300 -18.2300 -18.1543 -18.1543 -18.0098 -18.0098 -17.8139 -17.8139
   -17.6150 -17.6150 -17.5544 -17.5544 -17.5141 -17.5141 -16.1660 -16.1660
    -6.4700  -6.4700  -6.1453  -6.1453  -5.8855  -5.8855  -5.7921  -5.7921
    -5.6927  -5.6927  -5.6787  -5.6787  -5.6563  -5.6563  -5.6372  -5.6372
    -5.6121  -5.6121  -5.5889  -5.5889  -5.5692  -5.5692  -5.4202  -5.4202
    -5.3891  -5.3891  -5.3140  -5.3140  -5.2268  -5.2268  -5.0702  -5.0702
    -4.9884  -4.9884  -4.8848  -4.8848  -4.8798  -4.8798  -4.8255  -4.8255
    -4.4598  -4.4598  -4.4069  -4.4069  -4.3021  -4.3021  -4.2446  -4.2446
    -4.0771  -4.0771  -4.0284  -4.0284  -3.9987  -3.9987  -3.8928  -3.8928
    -3.7724  -3.7724  -3.7548  -3.7548  -3.6893  -3.6893  -3.5943  -3.5943
    -3.5857  -3.5857  -3.4549  -3.4549  -3.3736  -3.3736  -3.1677  -3.1677
    -3.0547  -3.0547  -2.7966  -2.7966  -2.7115  -2.7115  -2.5032  -2.5032
    -2.4919  -2.4919  -2.4867  -2.4867  -2.4035  -2.4035  -2.2520  -2.2520
    -2.0836  -2.0836  -2.0319  -2.0319  -1.4638  -1.4638  -1.1829  -1.1829
     0.5918   0.5918   0.6360   0.6360   0.8898   0.8898   0.9630   0.9630
     0.9908   0.9908   1.1248   1.1248   1.2641   1.2641   1.2897   1.2897
     1.4126   1.4126   1.4804   1.4804   1.5764   1.5764   1.7174   1.7174
     1.7371   1.7371   1.9125   1.9125   1.9551   1.9551   2.0160   2.0160
     2.1095   2.1095   2.2271   2.2271   2.2506   2.2506   2.3007   2.3007
     2.3672   2.3672   2.5221   2.5221   2.7114   2.7114   2.8327   2.8327
     2.8605   2.8605   3.0960   3.0960   3.3701   3.3701   3.5749   3.5749
     3.7063   3.7063   3.7525   3.7525   3.8784   3.8784   4.0354   4.0354
     4.4676   4.4676   4.8142   4.8142   4.8288   4.8288   4.9386   4.9386
     5.1423   5.1423   5.3266   5.3266   5.5016   5.5016   5.7277   5.7277
     5.9807   5.9807   6.3337   6.3337   6.9346   6.9346   7.0656   7.0656
     7.1628   7.1628   7.2279   7.2279   7.4607   7.4607   7.5386   7.5386
     7.8928   7.8928   7.9663   7.9663   8.4312   8.4312   8.4815   8.4815
     8.7862   8.7862   8.8324   8.8324   9.1854   9.1854   9.2535   9.2535
     9.4162   9.4162   9.4743   9.4743   9.9898   9.9898  10.0464  10.0464
    10.2945  10.2945  10.2988  10.2988  10.8207  10.8207  10.9349  10.9349
    11.4371  11.4371  11.4496  11.4496  12.0428  12.0428  12.2405  12.2405
    12.3449  12.3449  12.4333  12.4333  12.8371  12.8371  12.9569  12.9569
    13.0816  13.0816  13.1750  13.1750  13.2187  13.2187  13.3308  13.3308
    13.3542  13.3542  13.4450  13.4450  13.4948  13.4948  13.5722  13.5722
    13.6791  13.6791  13.7098  13.7098  13.8927  13.8927  13.9166  13.9166
    13.9324  13.9324  14.0067  14.0067  14.0216  14.0216  14.0453  14.0453
    14.0481  14.0481  14.2734  14.2734  14.2798  14.2798  14.3293  14.3293
    14.3526  14.3526  14.5339  14.5339  14.6831  14.6831  14.7671  14.7671
    14.8286  14.8286  14.9667  14.9667  15.0646  15.0646  15.0806  15.0806
    15.2623  15.2623  15.3797  15.3797  15.4074  15.4074  15.4574  15.4574
    15.5182  15.5182  15.5767  15.5767  15.6184  15.6184  15.6217  15.6217
    15.7463  15.7463  15.7988  15.7988  15.8260  15.8260  15.9827  15.9827
    16.0319  16.0319  16.0894  16.0894  16.3035  16.3035  16.3527  16.3527
    16.5091  16.5091  16.5536  16.5536  16.5550  16.5550  16.5969  16.5969
    16.7088  16.7088  16.8257  16.8257  16.9483  16.9483  16.9992  16.9992
    17.1412  17.1412  17.2472  17.2472  17.3249  17.3249  17.4097  17.4097
    17.4803  17.4803  17.5277  17.5277  17.5355  17.5355  17.5583  17.5583
    17.9256  17.9256  17.9929  17.9929  18.1152  18.1152  18.1738  18.1738
    18.2053  18.2053  18.2798  18.2798  18.4177  18.4177  18.4405  18.4405
    18.8306  18.8306  18.8474  18.8474  18.9434  18.9434  18.9616  18.9616
    19.0356  19.0356  19.1261  19.1261  19.3013  19.3013  19.5076  19.5076
    19.5557  19.5557  19.5731  19.5731  19.7886  19.7886  19.8556  19.8556
    19.9558  19.9558  20.0811  20.0811  20.1698  20.1698  20.2138  20.2138
    20.6777  20.6777  20.6818  20.6818  20.9444  20.9444  21.0072  21.0072
    21.0619  21.0619  21.1963  21.1963  21.3591  21.3591  21.3642  21.3642
    21.7354  21.7354  21.7372  21.7372  21.9116  21.9116  21.9756  21.9756
    22.0998  22.0998  22.3819  22.3819  22.3824  22.3824  22.4626  22.4626
    22.5362  22.5362  22.5779  22.5779  22.6256  22.6256  22.6878  22.6878
    22.7026  22.7026  22.7775  22.7775  22.9637  22.9637  22.9800  22.9800

     the Fermi energy is    -1.1073 ev

!    total energy              =   -2931.67390693 Ry
     Harris-Foulkes estimate   =   -2931.67390694 Ry
     estimated scf accuracy    <          4.6E-09 Ry

     The total energy is the sum of the following terms:

     one-electron contribution =  -63318.34173746 Ry
     hartree contribution      =   31700.10611288 Ry
     xc contribution           =    -505.42153624 Ry
     ewald contribution        =   29191.98176171 Ry
     smearing contrib. (-TS)   =       0.00149217 Ry

     convergence has been achieved in   8 iterations

     Forces acting on atoms (Ry/au):


     negative rho (up, down):  0.202E+00 0.000E+00
     atom    1 type  1   force =     0.00000000    0.00000000    0.05888174
     atom    2 type  2   force =    -0.00000000    0.00000000   -0.13292060
     atom    3 type  2   force =     0.00000000    0.00000000    0.11732505
     atom    4 type  1   force =     0.00000000    0.03289148   -0.03171107
     atom    5 type  1   force =     0.00000000   -0.03289148   -0.03171107
     atom    6 type  1   force =     0.00000000    0.00000000    0.09599187
     atom    7 type  1   force =     0.00000000    0.00000000   -0.08672575
     atom    8 type  2   force =    -0.00000000    0.00000000    0.05784050
     atom    9 type  2   force =     0.00000000    0.00000000   -0.06635462
     atom   10 type  1   force =     0.00000000    0.02075375    0.00771405
     atom   11 type  1   force =     0.00000000   -0.02075375    0.00771405
     atom   12 type  1   force =     0.00000000    0.00000000    0.00389535
     atom   13 type  1   force =     0.00000000    0.00000000    0.00018226
     atom   14 type  2   force =    -0.00000000    0.00000000   -0.00005160
     atom   15 type  2   force =     0.00000000    0.00000000   -0.00043102
     atom   16 type  1   force =    -0.00000000   -0.00009636    0.00010855
     atom   17 type  1   force =    -0.00000000    0.00009636    0.00010855
     atom   18 type  1   force =     0.00000000    0.00000000   -0.00036724
     atom   19 type  1   force =     0.00000000    0.00000000   -0.00040514
     atom   20 type  2   force =     0.00000000    0.00000000   -0.00046640
     atom   21 type  2   force =     0.00000000    0.00000000    0.00040832
     atom   22 type  1   force =    -0.00000000    0.00079252    0.00029348
     atom   23 type  1   force =    -0.00000000   -0.00079252    0.00029348
     atom   24 type  1   force =     0.00000000    0.00000000    0.00038727
     atom   25 type  1   force =     0.00000000    0.00000000    0.05888174
     atom   26 type  2   force =     0.00000000    0.00000000   -0.13292060
     atom   27 type  2   force =     0.00000000    0.00000000    0.11732505
     atom   28 type  1   force =    -0.00000000    0.03289148   -0.03171107
     atom   29 type  1   force =    -0.00000000   -0.03289148   -0.03171107
     atom   30 type  1   force =     0.00000000    0.00000000    0.09599187
     atom   31 type  1   force =     0.00000000    0.00000000   -0.08672575
     atom   32 type  2   force =     0.00000000    0.00000000    0.05784050
     atom   33 type  2   force =     0.00000000    0.00000000   -0.06635462
     atom   34 type  1   force =    -0.00000000    0.02075375    0.00771405
     atom   35 type  1   force =    -0.00000000   -0.02075375    0.00771405
     atom   36 type  1   force =     0.00000000    0.00000000    0.00389535
     atom   37 type  1   force =     0.00000000    0.00000000    0.00018226
     atom   38 type  2   force =     0.00000000    0.00000000   -0.00005160
     atom   39 type  2   force =     0.00000000    0.00000000   -0.00043102
     atom   40 type  1   force =     0.00000000   -0.00009636    0.00010855
     atom   41 type  1   force =     0.00000000    0.00009636    0.00010855
     atom   42 type  1   force =     0.00000000    0.00000000   -0.00036724
     atom   43 type  1   force =     0.00000000    0.00000000   -0.00040514
     atom   44 type  2   force =    -0.00000000    0.00000000   -0.00046640
     atom   45 type  2   force =     0.00000000    0.00000000    0.00040832
     atom   46 type  1   force =     0.00000000    0.00079252    0.00029348
     atom   47 type  1   force =     0.00000000   -0.00079252    0.00029348
     atom   48 type  1   force =     0.00000000    0.00000000    0.00038727

     Total force =     0.002247     Total SCF correction =     0.000206

     bfgs converged in  20 scf cycles and  19 bfgs steps
     (criteria: energy < 0.10E-03, force < 0.10E-02)

     End of BFGS Geometry Optimization

     Final energy   =   -2931.6739069341 Ry
Begin final coordinates

ATOMIC_POSITIONS (crystal)
O0       0.000000000   0.500000000   0.330010000    0   0   0
Ti1      0.250000000   0.500000000   0.364370000    0   0   0
Ti1      0.000000000   0.000000000   0.364370000    0   0   0
O0       0.250000000   0.810000000   0.364370000    0   0   0
O0       0.250000000   0.190000000   0.364370000    0   0   0
O0       0.000000000   0.500000000   0.398730000    0   0   0
O0       0.000000000   0.000000000   0.420430000    0   0   0
Ti1      0.250000000   0.000000000   0.454790000    0   0   0
Ti1      0.000000000   0.500000000   0.454790000    0   0   0
O0       0.250000000   0.690000000   0.454790000    0   0   0
O0       0.250000000   0.310000000   0.454790000    0   0   0
O0       0.000000000   0.000000000   0.489150000    0   0   0
O0       0.000000000   0.500000000   0.511615085
Ti1      0.250000000   0.500000000   0.543768457
Ti1      0.000000000   0.000000000   0.550052440
O0       0.250000000   0.801556927   0.546210690
O0       0.250000000   0.198443073   0.546210690
O0       0.000000000   0.500000000   0.582218523
O0       0.000000000   0.000000000   0.601140855
Ti1      0.250000000   0.000000000   0.642535952
Ti1      0.000000000   0.500000000   0.632093949
O0       0.250000000   0.687239577   0.641306251
O0       0.250000000   0.312760423   0.641306251
O0       0.000000000   0.000000000   0.671943580
O0       0.500000000   0.500000000   0.330010000    0   0   0
Ti1      0.750000000   0.500000000   0.364370000    0   0   0
Ti1      0.500000000   0.000000000   0.364370000    0   0   0
O0       0.750000000   0.810000000   0.364370000    0   0   0
O0       0.750000000   0.190000000   0.364370000    0   0   0
O0       0.500000000   0.500000000   0.398730000    0   0   0
O0       0.500000000   0.000000000   0.420430000    0   0   0
Ti1      0.750000000   0.000000000   0.454790000    0   0   0
Ti1      0.500000000   0.500000000   0.454790000    0   0   0
O0       0.750000000   0.690000000   0.454790000    0   0   0
O0       0.750000000   0.310000000   0.454790000    0   0   0
O0       0.500000000   0.000000000   0.489150000    0   0   0
O0       0.500000000   0.500000000   0.511615085
Ti1      0.750000000   0.500000000   0.543768457
Ti1      0.500000000   0.000000000   0.550052440
O0       0.750000000   0.801556927   0.546210690
O0       0.750000000   0.198443073   0.546210690
O0       0.500000000   0.500000000   0.582218523
O0       0.500000000   0.000000000   0.601140855
Ti1      0.750000000   0.000000000   0.642535952
Ti1      0.500000000   0.500000000   0.632093949
O0       0.750000000   0.687239577   0.641306251
O0       0.750000000   0.312760423   0.641306251
O0       0.500000000   0.000000000   0.671943580
End final coordinates



     init_run     :     98.89s CPU    131.01s WALL (       1 calls)
     electrons    :  84861.91s CPU 103652.73s WALL (      20 calls)
     update_pot   :     91.19s CPU    114.39s WALL (      19 calls)
     forces       :    964.43s CPU    992.09s WALL (      20 calls)

     Called by init_run:
     wfcinit      :     77.00s CPU    106.91s WALL (       1 calls)
     potinit      :      2.38s CPU      3.46s WALL (       1 calls)

     Called by electrons:
     c_bands      :  72569.86s CPU  87598.84s WALL (     217 calls)
     sum_band     :   7626.72s CPU  10855.03s WALL (     217 calls)
     v_of_rho     :    185.05s CPU    320.35s WALL (     235 calls)
     newd         :   4746.95s CPU   5039.08s WALL (     235 calls)
     mix_rho      :     32.45s CPU     58.10s WALL (     217 calls)

     Called by c_bands:
     init_us_2    :     39.95s CPU     40.73s WALL (    4095 calls)
     cegterg      :  72373.59s CPU  87401.08s WALL (    1953 calls)

     Called by *egterg:
     h_psi        :  22269.22s CPU  34788.43s WALL (    8022 calls)
     s_psi        :   2245.08s CPU   2246.48s WALL (    8022 calls)
     g_psi        :     29.14s CPU     29.23s WALL (    6060 calls)
     cdiaghg      :  36376.17s CPU  37028.67s WALL (    7824 calls)

     Called by h_psi:
     add_vuspsi   :   2261.11s CPU   2262.75s WALL (    8022 calls)

     General routines
     calbec       :   3665.94s CPU   4036.46s WALL (   10155 calls)
     fft          :    433.12s CPU    802.19s WALL (    3927 calls)
     ffts         :      4.14s CPU      8.00s WALL (     452 calls)
     fftw         :  19159.69s CPU  34295.48s WALL ( 5837014 calls)
     interpolate  :     29.89s CPU     55.67s WALL (     452 calls)

     Parallel routines
     fft_scatter  :  15076.86s CPU  30534.70s WALL ( 5841393 calls)

     PWSCF        :     0d   23h59m CPU        1d    5h13m WALL


   This run was terminated on:   1:40:50  26Feb2014            

=------------------------------------------------------------------------------=
   JOB DONE.
=------------------------------------------------------------------------------=
