
     Program PWSCF v.5.0.2 (svn rev. 9656) starts on  4May2014 at 21:35:18 

     This program is part of the open-source Quantum ESPRESSO suite
     for quantum simulation of materials; please cite
         "P. Giannozzi et al., J. Phys.:Condens. Matter 21 395502 (2009);
          URL http://www.quantum-espresso.org", 
     in publications or presentations arising from this work. More details at
     http://www.quantum-espresso.org/quote.php

     Parallel version (MPI), running on    16 processors
     K-points division:     npool     =       4
     R & G space division:  proc/nbgrp/npool/nimage =       4

     Current dimensions of program PWSCF are:
     Max number of different atomic species (ntypx) = 10
     Max number of k-points (npk) =  40000
     Max angular momentum in pseudopotentials (lmaxx) =  3
     Reading input from pwscf.in
Warning: card &CELL ignored
Warning: card / ignored

     Subspace diagonalization in iterative solution of the eigenvalue problem:
     a serial algorithm will be used


     Parallelization info
     --------------------
     sticks:   dense  smooth     PW     G-vecs:    dense   smooth      PW
     Min        1274     408    116               299662    54238    8133
     Max        1275     409    117               299663    54251    8135
     Sum        5097    1635    467              1198649   216969   32535



     bravais-lattice index     =            0
     lattice parameter (alat)  =      10.9604  a.u.
     unit-cell volume          =    6350.6732 (a.u.)^3
     number of atoms/cell      =           31
     number of atomic types    =            3
     number of electrons       =       230.00 (up: 122.00, down: 108.00)
     number of Kohn-Sham states=          333
     kinetic-energy cutoff     =      40.0000  Ry
     charge density cutoff     =     500.0000  Ry
     convergence threshold     =      1.0E-06
     mixing beta               =       0.7000
     number of iterations used =            8  plain     mixing
     Exchange-correlation      = SLA  PW   PBE  PBE ( 1 4 3 4 0)
     EXX-fraction              =        0.00
     nstep                     =           50


     celldm(1)=  10.960412  celldm(2)=   0.000000  celldm(3)=   0.000000
     celldm(4)=   0.000000  celldm(5)=   0.000000  celldm(6)=   0.000000

     crystal axes: (cart. coord. in units of alat)
               a(1) = (   1.000000   0.000000   0.000000 )  
               a(2) = (   0.000000   1.067975   0.000000 )  
               a(3) = (   0.000000   0.000000   4.516251 )  

     reciprocal axes: (cart. coord. in units 2 pi/alat)
               b(1) = (  1.000000  0.000000  0.000000 )  
               b(2) = (  0.000000  0.936351  0.000000 )  
               b(3) = (  0.000000  0.000000  0.221423 )  


     PseudoPot. # 1 for O  read from file:
     /home/camp/zhonxu/pseudo/o_pbe_v1.01.uspp.F.UPF
     MD5 check sum: 2bcb18d16ea4b960afae9ec6d52f22d2
     Pseudo is Ultrasoft + core correction, Zval =  6.0
     Generated by new atomic code, or converted to UPF format
     Using radial grid of  737 points,  5 beta functions with: 
                l(1) =   0
                l(2) =   0
                l(3) =   1
                l(4) =   1
                l(5) =   2
     Q(r) pseudized with  8 coefficients,  rinner =    0.900   0.900   0.900
                                                       0.900   0.900

     PseudoPot. # 2 for Cr read from file:
     /home/camp/zhonxu/pseudo/cr_pbe_v1.uspp.F.UPF
     MD5 check sum: 68b6f918d1762dccfb11451fe85b0e0e
     Pseudo is Ultrasoft + core correction, Zval = 14.0
     Generated by new atomic code, or converted to UPF format
     Using radial grid of  857 points,  6 beta functions with: 
                l(1) =   0
                l(2) =   0
                l(3) =   1
                l(4) =   1
                l(5) =   2
                l(6) =   2
     Q(r) pseudized with  6 coefficients,  rinner =    1.000   1.000   1.000
                                                       1.000   1.000

     PseudoPot. # 3 for H  read from file:
     /home/camp/zhonxu/pseudo/h_pbe_v1.uspp.F.UPF
     MD5 check sum: 3408e3ff4ec8b0a4e358431e7e038a48
     Pseudo is Ultrasoft, Zval =  1.0
     Generated by new atomic code, or converted to UPF format
     Using radial grid of  615 points,  2 beta functions with: 
                l(1) =   0
                l(2) =   0
     Q(r) pseudized with  8 coefficients,  rinner =    0.700

     atomic species   valence    mass     pseudopotential
        O0             6.00    15.99940     O ( 1.00)
        Cr1           14.00    51.99600     Cr( 1.00)
        H2             1.00     1.00794     H ( 1.00)

     Starting magnetic structure 
     atomic species   magnetization
        O0           0.000
        Cr1          0.600
        H2           0.000


     Simplified LDA+U calculation (l_max = 2) with parameters (eV):
     atomic species    L          U    alpha       J0     beta
        Cr1            2     3.5000   0.0000   0.0000   0.0000



     No symmetry found



   Cartesian axes

     site n.     atom                  positions (alat units)
         1           O0  tau(   1) = (   0.0000000   0.0000000   1.7030331  )
         2           O0  tau(   2) = (   0.0000000   0.5339875   1.8028422  )
         3           Cr1 tau(   3) = (   0.2500000   0.5339875   2.0350227  )
         4           Cr1 tau(   4) = (   0.0000000   0.0000000   2.0223320  )
         5           O0  tau(   5) = (   0.2500000   0.8543801   2.0287902  )
         6           O0  tau(   6) = (   0.2500000   0.2135950   2.0292419  )
         7           O0  tau(   7) = (   0.0000000   0.5339875   2.2445767  )
         8           O0  tau(   8) = (   0.0000000   0.0000000   2.3628573  )
         9           Cr1 tau(   9) = (   0.2500000   0.0000000   2.5580045  )
        10           Cr1 tau(  10) = (   0.0000000   0.5339875   2.5485656  )
        11           O0  tau(  11) = (   0.2500000   0.7475825   2.5953991  )
        12           O0  tau(  12) = (   0.2500000   0.3203925   2.5951281  )
        13           O0  tau(  13) = (   0.0000000   0.0000000   2.7889204  )
        14           O0  tau(  14) = (   0.5000000   0.0000000   1.7055170  )
        15           O0  tau(  15) = (   0.5000000   0.5339875   1.8012615  )
        16           Cr1 tau(  16) = (   0.7500000   0.5339875   2.0359259  )
        17           Cr1 tau(  17) = (   0.5000000   0.0000000   2.0265773  )
        18           O0  tau(  18) = (   0.7500000   0.8543801   2.0288354  )
        19           O0  tau(  19) = (   0.7500000   0.2135950   2.0296032  )
        20           O0  tau(  20) = (   0.5000000   0.5339875   2.2364023  )
        21           O0  tau(  21) = (   0.5000000   0.0000000   2.3615024  )
        22           Cr1 tau(  22) = (   0.7500000   0.0000000   2.6337872  )
        23           Cr1 tau(  23) = (   0.5000000   0.5339875   2.6580395  )
        24           O0  tau(  24) = (   0.7500000   0.7475825   2.5992379  )
        25           O0  tau(  25) = (   0.7500000   0.3203925   2.5991024  )
        26           O0  tau(  26) = (   0.5000000   0.0000000   2.7868881  )
        27           H2  tau(  27) = (  -0.0008000   0.6785059   1.7121107  )
        28           H2  tau(  28) = (   0.4997900   0.6815710   1.7150915  )
        29           H2  tau(  29) = (   0.1566700   0.0342393   1.6437347  )
        30           H2  tau(  30) = (   0.6553000   0.0356063   1.6443670  )
        31           O0  tau(  31) = (   0.4989300   0.5335603   2.9283823  )

     number of k points=    20  Methfessel-Paxton smearing, width (Ry)=  0.0100
                       cart. coord. in units 2pi/alat
        k(    1) = (   0.0000000   0.0000000   0.0000000), wk =   0.0625000
        k(    2) = (   0.0000000   0.2340879   0.0000000), wk =   0.1250000
        k(    3) = (   0.0000000  -0.4681757   0.0000000), wk =   0.0625000
        k(    4) = (   0.2500000   0.0000000   0.0000000), wk =   0.1250000
        k(    5) = (   0.2500000   0.2340879   0.0000000), wk =   0.1250000
        k(    6) = (   0.2500000  -0.4681757   0.0000000), wk =   0.1250000
        k(    7) = (  -0.5000000   0.0000000   0.0000000), wk =   0.0625000
        k(    8) = (  -0.5000000   0.2340879   0.0000000), wk =   0.1250000
        k(    9) = (  -0.5000000  -0.4681757   0.0000000), wk =   0.0625000
        k(   10) = (  -0.2500000   0.2340879   0.0000000), wk =   0.1250000
        k(   11) = (   0.0000000   0.0000000   0.0000000), wk =   0.0625000
        k(   12) = (   0.0000000   0.2340879   0.0000000), wk =   0.1250000
        k(   13) = (   0.0000000  -0.4681757   0.0000000), wk =   0.0625000
        k(   14) = (   0.2500000   0.0000000   0.0000000), wk =   0.1250000
        k(   15) = (   0.2500000   0.2340879   0.0000000), wk =   0.1250000
        k(   16) = (   0.2500000  -0.4681757   0.0000000), wk =   0.1250000
        k(   17) = (  -0.5000000   0.0000000   0.0000000), wk =   0.0625000
        k(   18) = (  -0.5000000   0.2340879   0.0000000), wk =   0.1250000
        k(   19) = (  -0.5000000  -0.4681757   0.0000000), wk =   0.0625000
        k(   20) = (  -0.2500000   0.2340879   0.0000000), wk =   0.1250000

     Dense  grid:  1198649 G-vectors     FFT dimensions: (  80,  90, 360)

     Smooth grid:   216969 G-vectors     FFT dimensions: (  45,  48, 200)

     Largest allocated arrays     est. size (Mb)     dimensions
        Kohn-Sham Wavefunctions        34.98 Mb     (   6884,  333)
        Atomic wavefunctions           16.81 Mb     (   6884,  160)
        NL pseudopotentials            41.91 Mb     (   6884,  399)
        Each V/rho on FFT grid         19.78 Mb     ( 648000,   2)
        Each G-vector array             2.29 Mb     ( 299662)
        G-vector shells                 0.99 Mb     ( 129803)
     Largest temporary arrays     est. size (Mb)     dimensions
        Auxiliary wavefunctions       139.92 Mb     (   6884, 1332)
        Each subspace H/S matrix       27.07 Mb     (1332,1332)
        Each <psi_i|beta_j> matrix      2.03 Mb     (    399,  333)
        Arrays for rho mixing          79.10 Mb     ( 648000,   8)

     Check: negative/imaginary core charge=   -0.000012    0.000000

     Initial potential from superposition of free atoms
     Check: negative starting charge=(component1):   -0.001547
     Check: negative starting charge=(component2):   -0.000494

     starting charge  221.99984, renormalised to  230.00000

     negative rho (up, down):  0.160E-02 0.512E-03
     Number of +U iterations with fixed ns =  0
     Starting occupations:
 --- enter write_ns ---
 LDA+U parameters:
U( 2)     =  3.50000000
alpha( 2) =  0.00000000
atom    3   Tr[ns(na)] (up, down, total) =   5.00000  0.00000  5.00000
   spin  1
    eigenvalues: 
  1.000  1.000  1.000  1.000  1.000
    eigenvectors:
  1.000  0.000  0.000  0.000  0.000
  0.000  1.000  0.000  0.000  0.000
  0.000  0.000  1.000  0.000  0.000
  0.000  0.000  0.000  1.000  0.000
  0.000  0.000  0.000  0.000  1.000
    occupations:
  1.000  0.000  0.000  0.000  0.000
  0.000  1.000  0.000  0.000  0.000
  0.000  0.000  1.000  0.000  0.000
  0.000  0.000  0.000  1.000  0.000
  0.000  0.000  0.000  0.000  1.000
   spin  2
    eigenvalues: 
  0.000  0.000  0.000  0.000  0.000
    eigenvectors:
  1.000  0.000  0.000  0.000  0.000
  0.000  1.000  0.000  0.000  0.000
  0.000  0.000  1.000  0.000  0.000
  0.000  0.000  0.000  1.000  0.000
  0.000  0.000  0.000  0.000  1.000
    occupations:
  0.000  0.000  0.000  0.000  0.000
  0.000  0.000  0.000  0.000  0.000
  0.000  0.000  0.000  0.000  0.000
  0.000  0.000  0.000  0.000  0.000
  0.000  0.000  0.000  0.000  0.000
atomic mag. moment =     5.000000
atom    4   Tr[ns(na)] (up, down, total) =   5.00000  0.00000  5.00000
   spin  1
    eigenvalues: 
  1.000  1.000  1.000  1.000  1.000
    eigenvectors:
  1.000  0.000  0.000  0.000  0.000
  0.000  1.000  0.000  0.000  0.000
  0.000  0.000  1.000  0.000  0.000
  0.000  0.000  0.000  1.000  0.000
  0.000  0.000  0.000  0.000  1.000
    occupations:
  1.000  0.000  0.000  0.000  0.000
  0.000  1.000  0.000  0.000  0.000
  0.000  0.000  1.000  0.000  0.000
  0.000  0.000  0.000  1.000  0.000
  0.000  0.000  0.000  0.000  1.000
   spin  2
    eigenvalues: 
  0.000  0.000  0.000  0.000  0.000
    eigenvectors:
  1.000  0.000  0.000  0.000  0.000
  0.000  1.000  0.000  0.000  0.000
  0.000  0.000  1.000  0.000  0.000
  0.000  0.000  0.000  1.000  0.000
  0.000  0.000  0.000  0.000  1.000
    occupations:
  0.000  0.000  0.000  0.000  0.000
  0.000  0.000  0.000  0.000  0.000
  0.000  0.000  0.000  0.000  0.000
  0.000  0.000  0.000  0.000  0.000
  0.000  0.000  0.000  0.000  0.000
atomic mag. moment =     5.000000
atom    9   Tr[ns(na)] (up, down, total) =   5.00000  0.00000  5.00000
   spin  1
    eigenvalues: 
  1.000  1.000  1.000  1.000  1.000
    eigenvectors:
  1.000  0.000  0.000  0.000  0.000
  0.000  1.000  0.000  0.000  0.000
  0.000  0.000  1.000  0.000  0.000
  0.000  0.000  0.000  1.000  0.000
  0.000  0.000  0.000  0.000  1.000
    occupations:
  1.000  0.000  0.000  0.000  0.000
  0.000  1.000  0.000  0.000  0.000
  0.000  0.000  1.000  0.000  0.000
  0.000  0.000  0.000  1.000  0.000
  0.000  0.000  0.000  0.000  1.000
   spin  2
    eigenvalues: 
  0.000  0.000  0.000  0.000  0.000
    eigenvectors:
  1.000  0.000  0.000  0.000  0.000
  0.000  1.000  0.000  0.000  0.000
  0.000  0.000  1.000  0.000  0.000
  0.000  0.000  0.000  1.000  0.000
  0.000  0.000  0.000  0.000  1.000
    occupations:
  0.000  0.000  0.000  0.000  0.000
  0.000  0.000  0.000  0.000  0.000
  0.000  0.000  0.000  0.000  0.000
  0.000  0.000  0.000  0.000  0.000
  0.000  0.000  0.000  0.000  0.000
atomic mag. moment =     5.000000
atom   10   Tr[ns(na)] (up, down, total) =   5.00000  0.00000  5.00000
   spin  1
    eigenvalues: 
  1.000  1.000  1.000  1.000  1.000
    eigenvectors:
  1.000  0.000  0.000  0.000  0.000
  0.000  1.000  0.000  0.000  0.000
  0.000  0.000  1.000  0.000  0.000
  0.000  0.000  0.000  1.000  0.000
  0.000  0.000  0.000  0.000  1.000
    occupations:
  1.000  0.000  0.000  0.000  0.000
  0.000  1.000  0.000  0.000  0.000
  0.000  0.000  1.000  0.000  0.000
  0.000  0.000  0.000  1.000  0.000
  0.000  0.000  0.000  0.000  1.000
   spin  2
    eigenvalues: 
  0.000  0.000  0.000  0.000  0.000
    eigenvectors:
  1.000  0.000  0.000  0.000  0.000
  0.000  1.000  0.000  0.000  0.000
  0.000  0.000  1.000  0.000  0.000
  0.000  0.000  0.000  1.000  0.000
  0.000  0.000  0.000  0.000  1.000
    occupations:
  0.000  0.000  0.000  0.000  0.000
  0.000  0.000  0.000  0.000  0.000
  0.000  0.000  0.000  0.000  0.000
  0.000  0.000  0.000  0.000  0.000
  0.000  0.000  0.000  0.000  0.000
atomic mag. moment =     5.000000
atom   16   Tr[ns(na)] (up, down, total) =   5.00000  0.00000  5.00000
   spin  1
    eigenvalues: 
  1.000  1.000  1.000  1.000  1.000
    eigenvectors:
  1.000  0.000  0.000  0.000  0.000
  0.000  1.000  0.000  0.000  0.000
  0.000  0.000  1.000  0.000  0.000
  0.000  0.000  0.000  1.000  0.000
  0.000  0.000  0.000  0.000  1.000
    occupations:
  1.000  0.000  0.000  0.000  0.000
  0.000  1.000  0.000  0.000  0.000
  0.000  0.000  1.000  0.000  0.000
  0.000  0.000  0.000  1.000  0.000
  0.000  0.000  0.000  0.000  1.000
   spin  2
    eigenvalues: 
  0.000  0.000  0.000  0.000  0.000
    eigenvectors:
  1.000  0.000  0.000  0.000  0.000
  0.000  1.000  0.000  0.000  0.000
  0.000  0.000  1.000  0.000  0.000
  0.000  0.000  0.000  1.000  0.000
  0.000  0.000  0.000  0.000  1.000
    occupations:
  0.000  0.000  0.000  0.000  0.000
  0.000  0.000  0.000  0.000  0.000
  0.000  0.000  0.000  0.000  0.000
  0.000  0.000  0.000  0.000  0.000
  0.000  0.000  0.000  0.000  0.000
atomic mag. moment =     5.000000
atom   17   Tr[ns(na)] (up, down, total) =   5.00000  0.00000  5.00000
   spin  1
    eigenvalues: 
  1.000  1.000  1.000  1.000  1.000
    eigenvectors:
  1.000  0.000  0.000  0.000  0.000
  0.000  1.000  0.000  0.000  0.000
  0.000  0.000  1.000  0.000  0.000
  0.000  0.000  0.000  1.000  0.000
  0.000  0.000  0.000  0.000  1.000
    occupations:
  1.000  0.000  0.000  0.000  0.000
  0.000  1.000  0.000  0.000  0.000
  0.000  0.000  1.000  0.000  0.000
  0.000  0.000  0.000  1.000  0.000
  0.000  0.000  0.000  0.000  1.000
   spin  2
    eigenvalues: 
  0.000  0.000  0.000  0.000  0.000
    eigenvectors:
  1.000  0.000  0.000  0.000  0.000
  0.000  1.000  0.000  0.000  0.000
  0.000  0.000  1.000  0.000  0.000
  0.000  0.000  0.000  1.000  0.000
  0.000  0.000  0.000  0.000  1.000
    occupations:
  0.000  0.000  0.000  0.000  0.000
  0.000  0.000  0.000  0.000  0.000
  0.000  0.000  0.000  0.000  0.000
  0.000  0.000  0.000  0.000  0.000
  0.000  0.000  0.000  0.000  0.000
atomic mag. moment =     5.000000
atom   22   Tr[ns(na)] (up, down, total) =   5.00000  0.00000  5.00000
   spin  1
    eigenvalues: 
  1.000  1.000  1.000  1.000  1.000
    eigenvectors:
  1.000  0.000  0.000  0.000  0.000
  0.000  1.000  0.000  0.000  0.000
  0.000  0.000  1.000  0.000  0.000
  0.000  0.000  0.000  1.000  0.000
  0.000  0.000  0.000  0.000  1.000
    occupations:
  1.000  0.000  0.000  0.000  0.000
  0.000  1.000  0.000  0.000  0.000
  0.000  0.000  1.000  0.000  0.000
  0.000  0.000  0.000  1.000  0.000
  0.000  0.000  0.000  0.000  1.000
   spin  2
    eigenvalues: 
  0.000  0.000  0.000  0.000  0.000
    eigenvectors:
  1.000  0.000  0.000  0.000  0.000
  0.000  1.000  0.000  0.000  0.000
  0.000  0.000  1.000  0.000  0.000
  0.000  0.000  0.000  1.000  0.000
  0.000  0.000  0.000  0.000  1.000
    occupations:
  0.000  0.000  0.000  0.000  0.000
  0.000  0.000  0.000  0.000  0.000
  0.000  0.000  0.000  0.000  0.000
  0.000  0.000  0.000  0.000  0.000
  0.000  0.000  0.000  0.000  0.000
atomic mag. moment =     5.000000
atom   23   Tr[ns(na)] (up, down, total) =   5.00000  0.00000  5.00000
   spin  1
    eigenvalues: 
  1.000  1.000  1.000  1.000  1.000
    eigenvectors:
  1.000  0.000  0.000  0.000  0.000
  0.000  1.000  0.000  0.000  0.000
  0.000  0.000  1.000  0.000  0.000
  0.000  0.000  0.000  1.000  0.000
  0.000  0.000  0.000  0.000  1.000
    occupations:
  1.000  0.000  0.000  0.000  0.000
  0.000  1.000  0.000  0.000  0.000
  0.000  0.000  1.000  0.000  0.000
  0.000  0.000  0.000  1.000  0.000
  0.000  0.000  0.000  0.000  1.000
   spin  2
    eigenvalues: 
  0.000  0.000  0.000  0.000  0.000
    eigenvectors:
  1.000  0.000  0.000  0.000  0.000
  0.000  1.000  0.000  0.000  0.000
  0.000  0.000  1.000  0.000  0.000
  0.000  0.000  0.000  1.000  0.000
  0.000  0.000  0.000  0.000  1.000
    occupations:
  0.000  0.000  0.000  0.000  0.000
  0.000  0.000  0.000  0.000  0.000
  0.000  0.000  0.000  0.000  0.000
  0.000  0.000  0.000  0.000  0.000
  0.000  0.000  0.000  0.000  0.000
atomic mag. moment =     5.000000
N of occupied +U levels =  40.0000000
 --- exit write_ns ---
 Atomic wfc used for LDA+U Projector are NOT orthogonalized
     Starting wfc are  160 randomized atomic wfcs

     total cpu time spent up to now is      118.3 secs

     per-process dynamical memory:   468.6 Mb

     Self-consistent Calculation

     iteration #  1     ecut=    40.00 Ry     beta=0.70
     Davidson diagonalization with overlap
     ethr =  1.00E-02,  avg # of iterations =  5.3
 --- enter write_ns ---
 LDA+U parameters:
U( 2)     =  3.50000000
alpha( 2) =  0.00000000
atom    3   Tr[ns(na)] (up, down, total) =   3.43236  0.60504  4.03740
   spin  1
    eigenvalues: 
  0.580  0.582  0.698  0.767  0.806
    eigenvectors:
  0.310  0.001  0.007  0.681  0.001
  0.035  0.919  0.000  0.011  0.035
  0.016  0.003  0.945  0.036  0.000
  0.638  0.043  0.047  0.272  0.000
  0.001  0.035  0.000  0.000  0.964
    occupations:
  0.709 -0.015  0.019 -0.083  0.004
 -0.015  0.591 -0.004  0.009  0.041
  0.019 -0.004  0.698  0.006  0.003
 -0.083  0.009  0.006  0.636 -0.003
  0.004  0.041  0.003 -0.003  0.798
   spin  2
    eigenvalues: 
  0.062  0.068  0.072  0.192  0.212
    eigenvectors:
  0.546  0.225  0.050  0.013  0.166
  0.000  0.000  0.001  0.942  0.056
  0.315  0.401  0.284  0.000  0.000
  0.124  0.045  0.009  0.044  0.777
  0.015  0.329  0.656  0.001  0.000
    occupations:
  0.090 -0.000 -0.002  0.056  0.000
 -0.000  0.193  0.000 -0.005  0.004
 -0.002  0.000  0.067  0.003 -0.002
  0.056 -0.005  0.003  0.184 -0.000
  0.000  0.004 -0.002 -0.000  0.070
atomic mag. moment =     2.827326
atom    4   Tr[ns(na)] (up, down, total) =   3.51503  0.61593  4.13096
   spin  1
    eigenvalues: 
  0.537  0.576  0.756  0.781  0.866
    eigenvectors:
  0.000  0.813  0.184  0.001  0.002
  0.000  0.178  0.760  0.062  0.000
  0.000  0.007  0.056  0.937  0.000
  0.000  0.002  0.000  0.000  0.997
  1.000  0.000  0.000  0.000  0.000
    occupations:
  0.610  0.068  0.013 -0.013  0.000
  0.068  0.725 -0.012  0.005  0.002
  0.013 -0.012  0.778  0.001  0.000
 -0.013  0.005  0.001  0.866  0.001
  0.000  0.002  0.000  0.001  0.537
   spin  2
    eigenvalues: 
  0.060  0.071  0.080  0.191  0.213
    eigenvectors:
  0.010  0.001  0.000  0.000  0.989
  0.006  0.854  0.138  0.000  0.002
  0.001  0.137  0.862  0.000  0.000
  0.984  0.007  0.000  0.000  0.009
  0.000  0.000  0.000  1.000  0.000
    occupations:
  0.212  0.006  0.002 -0.014  0.000
  0.006  0.072 -0.003  0.000 -0.000
  0.002 -0.003  0.079  0.000  0.000
 -0.014  0.000  0.000  0.062  0.000
  0.000 -0.000  0.000  0.000  0.191
atomic mag. moment =     2.899105
atom    9   Tr[ns(na)] (up, down, total) =   4.22891  0.64782  4.87673
   spin  1
    eigenvalues: 
  0.630  0.664  0.974  0.981  0.981
    eigenvectors:
  0.001  0.176  0.000  0.002  0.820
  0.998  0.002  0.000  0.000  0.000
  0.000  0.000  0.189  0.809  0.002
  0.001  0.821  0.000  0.000  0.177
  0.000  0.000  0.811  0.188  0.001
    occupations:
  0.925 -0.005  0.000 -0.121  0.000
 -0.005  0.630 -0.000  0.001 -0.000
  0.000 -0.000  0.979  0.000  0.003
 -0.121  0.001  0.000  0.720 -0.000
  0.000 -0.000  0.003 -0.000  0.975
   spin  2
    eigenvalues: 
  0.074  0.075  0.081  0.208  0.210
    eigenvectors:
  0.858  0.000  0.000  0.042  0.100
  0.000  0.000  0.000  0.712  0.288
  0.000  0.996  0.004  0.000  0.000
  0.142  0.000  0.000  0.246  0.612
  0.000  0.004  0.996  0.000  0.000
    occupations:
  0.093  0.000 -0.000  0.047  0.000
  0.000  0.209  0.000 -0.001  0.000
 -0.000  0.000  0.075 -0.000  0.000
  0.047 -0.001 -0.000  0.190 -0.000
  0.000  0.000  0.000 -0.000  0.081
atomic mag. moment =     3.581087
atom   10   Tr[ns(na)] (up, down, total) =   4.52755  0.55059  5.07815
   spin  1
    eigenvalues: 
  0.746  0.822  0.984  0.987  0.989
    eigenvectors:
  0.000  0.991  0.006  0.003  0.000
  0.000  0.000  0.248  0.682  0.070
  0.000  0.000  0.000  0.092  0.908
  0.000  0.009  0.746  0.223  0.021
  1.000  0.000  0.000  0.000  0.000
    occupations:
  0.823  0.002  0.001  0.016  0.000
  0.002  0.987  0.000  0.001  0.001
  0.001  0.000  0.988  0.000 -0.002
  0.016  0.001  0.000  0.984  0.000
  0.000  0.001 -0.002  0.000  0.746
   spin  2
    eigenvalues: 
  0.057  0.071  0.077  0.161  0.184
    eigenvectors:
  0.014  0.000  0.000  0.986  0.000
  0.001  0.000  0.999  0.000  0.000
  0.000  1.000  0.000  0.000  0.000
  0.985  0.000  0.001  0.014  0.000
  0.000  0.000  0.000  0.000  1.000
    occupations:
  0.160 -0.000 -0.000 -0.012  0.000
 -0.000  0.077  0.000  0.001 -0.000
 -0.000  0.000  0.071  0.000  0.001
 -0.012  0.001  0.000  0.059 -0.000
  0.000 -0.000  0.001 -0.000  0.184
atomic mag. moment =     3.976957
atom   16   Tr[ns(na)] (up, down, total) =   3.41850  0.60531  4.02380
   spin  1
    eigenvalues: 
  0.578  0.581  0.694  0.758  0.808
    eigenvectors:
  0.223  0.081  0.018  0.676  0.002
  0.397  0.557  0.000  0.013  0.033
  0.010  0.008  0.893  0.053  0.036
  0.356  0.334  0.057  0.254  0.000
  0.015  0.021  0.032  0.004  0.929
    occupations:
  0.702  0.015  0.021 -0.078 -0.004
  0.015  0.590 -0.002 -0.009  0.041
  0.021 -0.002  0.700  0.005 -0.020
 -0.078 -0.009  0.005  0.631 -0.001
 -0.004  0.041 -0.020 -0.001  0.796
   spin  2
    eigenvalues: 
  0.062  0.068  0.072  0.192  0.212
    eigenvectors:
  0.576  0.201  0.044  0.013  0.166
  0.000  0.000  0.001  0.945  0.054
  0.281  0.435  0.283  0.000  0.000
  0.130  0.040  0.008  0.042  0.779
  0.012  0.323  0.664  0.001  0.000
    occupations:
  0.090 -0.000 -0.002  0.056 -0.000
 -0.000  0.193 -0.000  0.005  0.004
 -0.002 -0.000  0.067  0.003  0.002
  0.056  0.005  0.003  0.185  0.000
 -0.000  0.004  0.002  0.000  0.071
atomic mag. moment =     2.813188
atom   17   Tr[ns(na)] (up, down, total) =   3.47505  0.61604  4.09109
   spin  1
    eigenvalues: 
  0.536  0.574  0.749  0.763  0.854
    eigenvectors:
  0.000  0.851  0.141  0.005  0.003
  0.000  0.140  0.705  0.153  0.002
  0.000  0.008  0.151  0.842  0.000
  0.000  0.001  0.004  0.000  0.995
  1.000  0.000  0.000  0.000  0.000
    occupations:
  0.600  0.061  0.013 -0.012  0.000
  0.061  0.727 -0.011 -0.002  0.001
  0.013 -0.011  0.759 -0.000  0.001
 -0.012 -0.002 -0.000  0.854  0.001
  0.000  0.001  0.001  0.001  0.536
   spin  2
    eigenvalues: 
  0.060  0.071  0.080  0.191  0.215
    eigenvectors:
  0.010  0.001  0.000  0.000  0.989
  0.009  0.829  0.160  0.000  0.002
  0.001  0.159  0.840  0.000  0.000
  0.981  0.010  0.000  0.000  0.009
  0.000  0.000  0.000  1.000  0.000
    occupations:
  0.213  0.006  0.002 -0.015  0.000
  0.006  0.072 -0.003  0.000 -0.000
  0.002 -0.003  0.078  0.000  0.000
 -0.015  0.000  0.000  0.061  0.000
  0.000 -0.000  0.000  0.000  0.191
atomic mag. moment =     2.859009
atom   22   Tr[ns(na)] (up, down, total) =   4.17188  0.73540  4.90728
   spin  1
    eigenvalues: 
  0.619  0.642  0.962  0.963  0.986
    eigenvectors:
  0.000  0.043  0.928  0.029  0.000
  0.981  0.019  0.000  0.000  0.000
  0.000  0.000  0.001  0.094  0.905
  0.019  0.939  0.041  0.001  0.000
  0.000  0.000  0.029  0.876  0.095
    occupations:
  0.948  0.004 -0.000 -0.065  0.000
  0.004  0.619 -0.000 -0.004 -0.000
 -0.000 -0.000  0.984  0.000 -0.007
 -0.065 -0.004  0.000  0.655 -0.000
  0.000 -0.000 -0.007 -0.000  0.965
   spin  2
    eigenvalues: 
  0.076  0.106  0.106  0.217  0.231
    eigenvectors:
  0.000  0.976  0.000  0.000  0.024
  0.000  0.000  0.000  0.996  0.004
  1.000  0.000  0.000  0.000  0.000
  0.000  0.024  0.000  0.003  0.972
  0.000  0.000  1.000  0.000  0.000
    occupations:
  0.109 -0.000 -0.000  0.019 -0.000
 -0.000  0.217 -0.000  0.001  0.000
 -0.000 -0.000  0.076 -0.000 -0.000
  0.019  0.001 -0.000  0.228 -0.000
 -0.000  0.000 -0.000 -0.000  0.106
atomic mag. moment =     3.436486
atom   23   Tr[ns(na)] (up, down, total) =   3.85470  0.74794  4.60265
   spin  1
    eigenvalues: 
  0.665  0.701  0.737  0.768  0.983
    eigenvectors:
  0.999  0.000  0.000  0.000  0.001
  0.000  0.000  0.001  0.998  0.000
  0.000  0.055  0.944  0.001  0.000
  0.001  0.000  0.000  0.000  0.999
  0.000  0.945  0.055  0.000  0.000
    occupations:
  0.665  0.001 -0.000  0.009  0.000
  0.001  0.768 -0.001  0.004 -0.000
 -0.000 -0.001  0.735  0.001  0.008
  0.009  0.004  0.001  0.983  0.000
  0.000 -0.000  0.008  0.000  0.703
   spin  2
    eigenvalues: 
  0.052  0.130  0.138  0.171  0.257
    eigenvectors:
  0.004  0.000  0.000  0.000  0.996
  0.000  0.000  1.000  0.000  0.000
  0.000  1.000  0.000  0.000  0.000
  0.996  0.000  0.000  0.000  0.004
  0.000  0.000  0.000  1.000  0.000
    occupations:
  0.256  0.001  0.000 -0.013  0.000
  0.001  0.138  0.000 -0.000  0.000
  0.000  0.000  0.130 -0.000 -0.000
 -0.013 -0.000 -0.000  0.053 -0.000
  0.000  0.000 -0.000 -0.000  0.171
atomic mag. moment =     3.106764
N of occupied +U levels =  35.7480530
 --- exit write_ns ---

     negative rho (up, down):  0.258E-02 0.120E-02

     total cpu time spent up to now is      578.0 secs

     total energy              =   -2001.55569723 Ry
     Harris-Foulkes estimate   =   -2020.44893205 Ry
     estimated scf accuracy    <      31.65357656 Ry

     total magnetization       =    14.00 Bohr mag/cell
     absolute magnetization    =    36.19 Bohr mag/cell

     iteration #  2     ecut=    40.00 Ry     beta=0.70
     Davidson diagonalization with overlap
     ethr =  1.00E-02,  avg # of iterations =  7.0

     negative rho (up, down):  0.127E-01 0.822E-02

     total cpu time spent up to now is     1039.4 secs

     total energy              =   -1839.84879608 Ry
     Harris-Foulkes estimate   =   -2303.72595206 Ry
     estimated scf accuracy    <    5649.60210315 Ry

     total magnetization       =    14.00 Bohr mag/cell
     absolute magnetization    =    14.95 Bohr mag/cell

     iteration #  3     ecut=    40.00 Ry     beta=0.70
     Davidson diagonalization with overlap
     ethr =  1.00E-02,  avg # of iterations =  6.0

     negative rho (up, down):  0.735E-02 0.405E-02

     total cpu time spent up to now is     1535.8 secs

     total energy              =   -2019.65949827 Ry
     Harris-Foulkes estimate   =   -2026.56228037 Ry
     estimated scf accuracy    <      24.30719370 Ry

     total magnetization       =    14.00 Bohr mag/cell
     absolute magnetization    =    33.19 Bohr mag/cell

     iteration #  4     ecut=    40.00 Ry     beta=0.70
     Davidson diagonalization with overlap
     ethr =  1.00E-02,  avg # of iterations =  2.0

     negative rho (up, down):  0.668E-02 0.281E-02

     total cpu time spent up to now is     1758.8 secs

     total energy              =   -2022.13021080 Ry
     Harris-Foulkes estimate   =   -2025.10771493 Ry
     estimated scf accuracy    <      13.81555235 Ry

     total magnetization       =    14.00 Bohr mag/cell
     absolute magnetization    =    25.49 Bohr mag/cell

     iteration #  5     ecut=    40.00 Ry     beta=0.70
     Davidson diagonalization with overlap
     ethr =  6.01E-03,  avg # of iterations =  1.3

     negative rho (up, down):  0.684E-02 0.190E-02

     total cpu time spent up to now is     1977.5 secs

     total energy              =   -2022.72511392 Ry
     Harris-Foulkes estimate   =   -2024.46384053 Ry
     estimated scf accuracy    <       9.10046302 Ry

     total magnetization       =    14.00 Bohr mag/cell
     absolute magnetization    =    28.78 Bohr mag/cell

     iteration #  6     ecut=    40.00 Ry     beta=0.70
     Davidson diagonalization with overlap
     ethr =  3.96E-03,  avg # of iterations =  3.9

     negative rho (up, down):  0.994E-02 0.172E-02

     total cpu time spent up to now is     2224.7 secs

     total energy              =   -2022.51834293 Ry
     Harris-Foulkes estimate   =   -2025.14324325 Ry
     estimated scf accuracy    <      23.42393386 Ry

     total magnetization       =    14.00 Bohr mag/cell
     absolute magnetization    =    25.24 Bohr mag/cell

     iteration #  7     ecut=    40.00 Ry     beta=0.70
     Davidson diagonalization with overlap
     ethr =  3.96E-03,  avg # of iterations =  2.1

     negative rho (up, down):  0.596E-02 0.184E-02

     total cpu time spent up to now is     2462.6 secs

     total energy              =   -2023.48295948 Ry
     Harris-Foulkes estimate   =   -2024.46257231 Ry
     estimated scf accuracy    <       6.28308414 Ry

     total magnetization       =    14.00 Bohr mag/cell
     absolute magnetization    =    27.16 Bohr mag/cell

     iteration #  8     ecut=    40.00 Ry     beta=0.70
     Davidson diagonalization with overlap
     ethr =  2.73E-03,  avg # of iterations =  1.0

     negative rho (up, down):  0.715E-02 0.150E-02

     total cpu time spent up to now is     2679.3 secs

     total energy              =   -2023.88556351 Ry
     Harris-Foulkes estimate   =   -2024.04754413 Ry
     estimated scf accuracy    <       1.07154568 Ry

     total magnetization       =    14.00 Bohr mag/cell
     absolute magnetization    =    25.61 Bohr mag/cell

     iteration #  9     ecut=    40.00 Ry     beta=0.70
     Davidson diagonalization with overlap
     ethr =  4.66E-04,  avg # of iterations =  4.8

     negative rho (up, down):  0.633E-02 0.136E-02

     total cpu time spent up to now is     2925.6 secs

     total energy              =   -2023.92172654 Ry
     Harris-Foulkes estimate   =   -2024.03449452 Ry
     estimated scf accuracy    <       0.96042207 Ry

     total magnetization       =    14.00 Bohr mag/cell
     absolute magnetization    =    25.40 Bohr mag/cell

     iteration # 10     ecut=    40.00 Ry     beta=0.70
     Davidson diagonalization with overlap
     ethr =  4.18E-04,  avg # of iterations =  3.9

     negative rho (up, down):  0.546E-02 0.137E-02

     total cpu time spent up to now is     3184.2 secs

     total energy              =   -2023.95515808 Ry
     Harris-Foulkes estimate   =   -2023.99838287 Ry
     estimated scf accuracy    <       0.27231836 Ry

     total magnetization       =    14.00 Bohr mag/cell
     absolute magnetization    =    25.01 Bohr mag/cell

     iteration # 11     ecut=    40.00 Ry     beta=0.70
     Davidson diagonalization with overlap
     ethr =  1.18E-04,  avg # of iterations =  5.5

     negative rho (up, down):  0.411E-02 0.139E-02

     total cpu time spent up to now is     3454.5 secs

     total energy              =   -2023.94973581 Ry
     Harris-Foulkes estimate   =   -2023.99561701 Ry
     estimated scf accuracy    <       0.22341626 Ry

     total magnetization       =    14.00 Bohr mag/cell
     absolute magnetization    =    24.77 Bohr mag/cell

     iteration # 12     ecut=    40.00 Ry     beta=0.70
     Davidson diagonalization with overlap
     ethr =  9.71E-05,  avg # of iterations =  5.2

     negative rho (up, down):  0.495E-02 0.141E-02

     total cpu time spent up to now is     3729.9 secs

     total energy              =   -2023.94745003 Ry
     Harris-Foulkes estimate   =   -2024.03618586 Ry
     estimated scf accuracy    <       0.88606479 Ry

     total magnetization       =    14.00 Bohr mag/cell
     absolute magnetization    =    23.64 Bohr mag/cell

     iteration # 13     ecut=    40.00 Ry     beta=0.70
     Davidson diagonalization with overlap
     ethr =  9.71E-05,  avg # of iterations =  3.5

     negative rho (up, down):  0.473E-02 0.148E-02

     total cpu time spent up to now is     3976.1 secs

     total energy              =   -2023.96241855 Ry
     Harris-Foulkes estimate   =   -2024.01768358 Ry
     estimated scf accuracy    <       0.32835862 Ry

     total magnetization       =    14.00 Bohr mag/cell
     absolute magnetization    =    23.79 Bohr mag/cell

     iteration # 14     ecut=    40.00 Ry     beta=0.70
     Davidson diagonalization with overlap
     ethr =  9.71E-05,  avg # of iterations =  1.0

     negative rho (up, down):  0.461E-02 0.148E-02

     total cpu time spent up to now is     4204.7 secs

     total energy              =   -2023.98136030 Ry
     Harris-Foulkes estimate   =   -2024.00669142 Ry
     estimated scf accuracy    <       0.13940689 Ry

     total magnetization       =    14.00 Bohr mag/cell
     absolute magnetization    =    23.45 Bohr mag/cell

     iteration # 15     ecut=    40.00 Ry     beta=0.70
     Davidson diagonalization with overlap
     ethr =  6.06E-05,  avg # of iterations =  1.0

     negative rho (up, down):  0.477E-02 0.156E-02

     total cpu time spent up to now is     4421.4 secs

     total energy              =   -2023.99130100 Ry
     Harris-Foulkes estimate   =   -2023.99588281 Ry
     estimated scf accuracy    <       0.03911168 Ry

     total magnetization       =    14.00 Bohr mag/cell
     absolute magnetization    =    23.60 Bohr mag/cell

     iteration # 16     ecut=    40.00 Ry     beta=0.70
     Davidson diagonalization with overlap
     ethr =  1.70E-05,  avg # of iterations =  5.5

     negative rho (up, down):  0.499E-02 0.180E-02

     total cpu time spent up to now is     4680.8 secs

     total energy              =   -2023.99443797 Ry
     Harris-Foulkes estimate   =   -2023.99562679 Ry
     estimated scf accuracy    <       0.01271372 Ry

     total magnetization       =    14.00 Bohr mag/cell
     absolute magnetization    =    23.54 Bohr mag/cell

     iteration # 17     ecut=    40.00 Ry     beta=0.70
     Davidson diagonalization with overlap
     ethr =  5.53E-06,  avg # of iterations =  4.0

     negative rho (up, down):  0.530E-02 0.191E-02

     total cpu time spent up to now is     4936.3 secs

     total energy              =   -2023.99471530 Ry
     Harris-Foulkes estimate   =   -2023.99781241 Ry
     estimated scf accuracy    <       0.01850768 Ry

     total magnetization       =    14.00 Bohr mag/cell
     absolute magnetization    =    23.22 Bohr mag/cell

     iteration # 18     ecut=    40.00 Ry     beta=0.70
     Davidson diagonalization with overlap
     ethr =  5.53E-06,  avg # of iterations =  1.0

     negative rho (up, down):  0.533E-02 0.202E-02

     total cpu time spent up to now is     5153.9 secs

     total energy              =   -2023.99671171 Ry
     Harris-Foulkes estimate   =   -2023.99662879 Ry
     estimated scf accuracy    <       0.00159474 Ry

     total magnetization       =    14.00 Bohr mag/cell
     absolute magnetization    =    23.27 Bohr mag/cell

     iteration # 19     ecut=    40.00 Ry     beta=0.70
     Davidson diagonalization with overlap
     ethr =  6.93E-07,  avg # of iterations =  1.3

     negative rho (up, down):  0.526E-02 0.196E-02

     total cpu time spent up to now is     5372.7 secs

     total energy              =   -2023.99685955 Ry
     Harris-Foulkes estimate   =   -2023.99737996 Ry
     estimated scf accuracy    <       0.00504611 Ry

     total magnetization       =    14.00 Bohr mag/cell
     absolute magnetization    =    23.14 Bohr mag/cell

     iteration # 20     ecut=    40.00 Ry     beta=0.70
     Davidson diagonalization with overlap
     ethr =  6.93E-07,  avg # of iterations =  1.8

     negative rho (up, down):  0.528E-02 0.196E-02

     total cpu time spent up to now is     5594.9 secs

     total energy              =   -2023.99732556 Ry
     Harris-Foulkes estimate   =   -2023.99789659 Ry
     estimated scf accuracy    <       0.00460964 Ry

     total magnetization       =    14.00 Bohr mag/cell
     absolute magnetization    =    23.03 Bohr mag/cell

     iteration # 21     ecut=    40.00 Ry     beta=0.70
     Davidson diagonalization with overlap
     ethr =  6.93E-07,  avg # of iterations =  1.0

     negative rho (up, down):  0.526E-02 0.193E-02

     total cpu time spent up to now is     5807.5 secs

     total energy              =   -2023.99755774 Ry
     Harris-Foulkes estimate   =   -2023.99800178 Ry
     estimated scf accuracy    <       0.00294696 Ry

     total magnetization       =    14.00 Bohr mag/cell
     absolute magnetization    =    22.96 Bohr mag/cell

     iteration # 22     ecut=    40.00 Ry     beta=0.70
     Davidson diagonalization with overlap
     ethr =  6.93E-07,  avg # of iterations =  3.1

     negative rho (up, down):  0.530E-02 0.196E-02

     total cpu time spent up to now is     6033.9 secs

     total energy              =   -2023.99755109 Ry
     Harris-Foulkes estimate   =   -2023.99814532 Ry
     estimated scf accuracy    <       0.00535152 Ry

     total magnetization       =    14.00 Bohr mag/cell
     absolute magnetization    =    22.93 Bohr mag/cell

     iteration # 23     ecut=    40.00 Ry     beta=0.70
     Davidson diagonalization with overlap
     ethr =  6.93E-07,  avg # of iterations =  2.9

     negative rho (up, down):  0.528E-02 0.192E-02

     total cpu time spent up to now is     6257.6 secs

     total energy              =   -2023.99767253 Ry
     Harris-Foulkes estimate   =   -2023.99825909 Ry
     estimated scf accuracy    <       0.00393601 Ry

     total magnetization       =    14.00 Bohr mag/cell
     absolute magnetization    =    22.83 Bohr mag/cell

     iteration # 24     ecut=    40.00 Ry     beta=0.70
     Davidson diagonalization with overlap
     ethr =  6.93E-07,  avg # of iterations =  1.0

     negative rho (up, down):  0.523E-02 0.187E-02

     total cpu time spent up to now is     6470.9 secs

     total energy              =   -2023.99767495 Ry
     Harris-Foulkes estimate   =   -2023.99835477 Ry
     estimated scf accuracy    <       0.00537752 Ry

     total magnetization       =    14.00 Bohr mag/cell
     absolute magnetization    =    22.83 Bohr mag/cell

     iteration # 25     ecut=    40.00 Ry     beta=0.70
     Davidson diagonalization with overlap
     ethr =  6.93E-07,  avg # of iterations =  1.0

     negative rho (up, down):  0.521E-02 0.186E-02

     total cpu time spent up to now is     6684.4 secs

     total energy              =   -2023.99795737 Ry
     Harris-Foulkes estimate   =   -2023.99828382 Ry
     estimated scf accuracy    <       0.00275564 Ry

     total magnetization       =    14.00 Bohr mag/cell
     absolute magnetization    =    22.80 Bohr mag/cell

     iteration # 26     ecut=    40.00 Ry     beta=0.70
     Davidson diagonalization with overlap
     ethr =  6.93E-07,  avg # of iterations =  1.0

     negative rho (up, down):  0.519E-02 0.185E-02

     total cpu time spent up to now is     6916.1 secs

     total energy              =   -2023.99791973 Ry
     Harris-Foulkes estimate   =   -2023.99827697 Ry
     estimated scf accuracy    <       0.00198492 Ry

     total magnetization       =    14.00 Bohr mag/cell
     absolute magnetization    =    22.79 Bohr mag/cell

     iteration # 27     ecut=    40.00 Ry     beta=0.70
     Davidson diagonalization with overlap
     ethr =  6.93E-07,  avg # of iterations =  1.0

     negative rho (up, down):  0.516E-02 0.184E-02

     total cpu time spent up to now is     7144.8 secs

     total energy              =   -2023.99790741 Ry
     Harris-Foulkes estimate   =   -2023.99833881 Ry
     estimated scf accuracy    <       0.00230181 Ry

     total magnetization       =    14.00 Bohr mag/cell
     absolute magnetization    =    22.84 Bohr mag/cell

     iteration # 28     ecut=    40.00 Ry     beta=0.70
     Davidson diagonalization with overlap
     ethr =  6.93E-07,  avg # of iterations =  1.0

     negative rho (up, down):  0.515E-02 0.183E-02

     total cpu time spent up to now is     7374.2 secs

     total energy              =   -2023.99815412 Ry
     Harris-Foulkes estimate   =   -2023.99819528 Ry
     estimated scf accuracy    <       0.00038771 Ry

     total magnetization       =    14.00 Bohr mag/cell
     absolute magnetization    =    22.79 Bohr mag/cell

     iteration # 29     ecut=    40.00 Ry     beta=0.70
     Davidson diagonalization with overlap
     ethr =  1.69E-07,  avg # of iterations =  1.0

     negative rho (up, down):  0.516E-02 0.183E-02

     total cpu time spent up to now is     7602.9 secs

     total energy              =   -2023.99814852 Ry
     Harris-Foulkes estimate   =   -2023.99822063 Ry
     estimated scf accuracy    <       0.00043851 Ry

     total magnetization       =    14.00 Bohr mag/cell
     absolute magnetization    =    22.77 Bohr mag/cell

     iteration # 30     ecut=    40.00 Ry     beta=0.70
     Davidson diagonalization with overlap
     ethr =  1.69E-07,  avg # of iterations =  1.0

     negative rho (up, down):  0.514E-02 0.183E-02

     total cpu time spent up to now is     7821.0 secs

     total energy              =   -2023.99820033 Ry
     Harris-Foulkes estimate   =   -2023.99820590 Ry
     estimated scf accuracy    <       0.00028091 Ry

     total magnetization       =    14.00 Bohr mag/cell
     absolute magnetization    =    22.77 Bohr mag/cell

     iteration # 31     ecut=    40.00 Ry     beta=0.70
     Davidson diagonalization with overlap
     ethr =  1.22E-07,  avg # of iterations =  1.0

     negative rho (up, down):  0.514E-02 0.182E-02

     total cpu time spent up to now is     8034.6 secs

     total energy              =   -2023.99823437 Ry
     Harris-Foulkes estimate   =   -2023.99823141 Ry
     estimated scf accuracy    <       0.00017058 Ry

     total magnetization       =    14.00 Bohr mag/cell
     absolute magnetization    =    22.75 Bohr mag/cell

     iteration # 32     ecut=    40.00 Ry     beta=0.70
     Davidson diagonalization with overlap
     ethr =  7.42E-08,  avg # of iterations =  1.0

     negative rho (up, down):  0.514E-02 0.182E-02

     total cpu time spent up to now is     8248.6 secs

     total energy              =   -2023.99823814 Ry
     Harris-Foulkes estimate   =   -2023.99825204 Ry
     estimated scf accuracy    <       0.00015785 Ry

     total magnetization       =    14.00 Bohr mag/cell
     absolute magnetization    =    22.73 Bohr mag/cell

     iteration # 33     ecut=    40.00 Ry     beta=0.70
     Davidson diagonalization with overlap
     ethr =  6.86E-08,  avg # of iterations =  1.0

     negative rho (up, down):  0.513E-02 0.182E-02

     total cpu time spent up to now is     8468.9 secs

     total energy              =   -2023.99824097 Ry
     Harris-Foulkes estimate   =   -2023.99828313 Ry
     estimated scf accuracy    <       0.00045158 Ry

     total magnetization       =    14.00 Bohr mag/cell
     absolute magnetization    =    22.72 Bohr mag/cell

     iteration # 34     ecut=    40.00 Ry     beta=0.70
     Davidson diagonalization with overlap
     ethr =  6.86E-08,  avg # of iterations =  1.0

     negative rho (up, down):  0.514E-02 0.182E-02

     total cpu time spent up to now is     8681.1 secs

     total energy              =   -2023.99826132 Ry
     Harris-Foulkes estimate   =   -2023.99830253 Ry
     estimated scf accuracy    <       0.00018799 Ry

     total magnetization       =    14.00 Bohr mag/cell
     absolute magnetization    =    22.68 Bohr mag/cell

     iteration # 35     ecut=    40.00 Ry     beta=0.70
     Davidson diagonalization with overlap
     ethr =  6.86E-08,  avg # of iterations =  1.1

     negative rho (up, down):  0.514E-02 0.182E-02

     total cpu time spent up to now is     8898.1 secs

     total energy              =   -2023.99824380 Ry
     Harris-Foulkes estimate   =   -2023.99831844 Ry
     estimated scf accuracy    <       0.00049070 Ry

     total magnetization       =    14.00 Bohr mag/cell
     absolute magnetization    =    22.69 Bohr mag/cell

     iteration # 36     ecut=    40.00 Ry     beta=0.70
     Davidson diagonalization with overlap
     ethr =  6.86E-08,  avg # of iterations =  1.0

     negative rho (up, down):  0.514E-02 0.181E-02

     total cpu time spent up to now is     9112.2 secs

     total energy              =   -2023.99825512 Ry
     Harris-Foulkes estimate   =   -2023.99831711 Ry
     estimated scf accuracy    <       0.00052942 Ry

     total magnetization       =    14.00 Bohr mag/cell
     absolute magnetization    =    22.69 Bohr mag/cell

     iteration # 37     ecut=    40.00 Ry     beta=0.70
     Davidson diagonalization with overlap
     ethr =  6.86E-08,  avg # of iterations =  1.0

     negative rho (up, down):  0.514E-02 0.182E-02

     total cpu time spent up to now is     9324.3 secs

     total energy              =   -2023.99827177 Ry
     Harris-Foulkes estimate   =   -2023.99834314 Ry
     estimated scf accuracy    <       0.00027655 Ry

     total magnetization       =    14.00 Bohr mag/cell
     absolute magnetization    =    22.62 Bohr mag/cell

     iteration # 38     ecut=    40.00 Ry     beta=0.70
     Davidson diagonalization with overlap
     ethr =  6.86E-08,  avg # of iterations =  1.0

     negative rho (up, down):  0.515E-02 0.182E-02

     total cpu time spent up to now is     9539.1 secs

     total energy              =   -2023.99826745 Ry
     Harris-Foulkes estimate   =   -2023.99835883 Ry
     estimated scf accuracy    <       0.00059858 Ry

     total magnetization       =    14.00 Bohr mag/cell
     absolute magnetization    =    22.65 Bohr mag/cell

     iteration # 39     ecut=    40.00 Ry     beta=0.70
     Davidson diagonalization with overlap
     ethr =  6.86E-08,  avg # of iterations =  1.0

     negative rho (up, down):  0.514E-02 0.182E-02

     total cpu time spent up to now is     9752.2 secs

     total energy              =   -2023.99830809 Ry
     Harris-Foulkes estimate   =   -2023.99832495 Ry
     estimated scf accuracy    <       0.00015920 Ry

     total magnetization       =    14.00 Bohr mag/cell
     absolute magnetization    =    22.64 Bohr mag/cell

     iteration # 40     ecut=    40.00 Ry     beta=0.70
     Davidson diagonalization with overlap
     ethr =  6.86E-08,  avg # of iterations =  1.0

     negative rho (up, down):  0.515E-02 0.182E-02

     total cpu time spent up to now is     9964.8 secs

     total energy              =   -2023.99830147 Ry
     Harris-Foulkes estimate   =   -2023.99833182 Ry
     estimated scf accuracy    <       0.00015593 Ry

     total magnetization       =    14.00 Bohr mag/cell
     absolute magnetization    =    22.63 Bohr mag/cell

     iteration # 41     ecut=    40.00 Ry     beta=0.70
     Davidson diagonalization with overlap
     ethr =  6.78E-08,  avg # of iterations =  1.0

     negative rho (up, down):  0.514E-02 0.182E-02

     total cpu time spent up to now is    10178.1 secs

     total energy              =   -2023.99830249 Ry
     Harris-Foulkes estimate   =   -2023.99832853 Ry
     estimated scf accuracy    <       0.00016037 Ry

     total magnetization       =    14.00 Bohr mag/cell
     absolute magnetization    =    22.64 Bohr mag/cell

     iteration # 42     ecut=    40.00 Ry     beta=0.70
     Davidson diagonalization with overlap
     ethr =  6.78E-08,  avg # of iterations =  1.0

     negative rho (up, down):  0.514E-02 0.182E-02

     total cpu time spent up to now is    10397.0 secs

     total energy              =   -2023.99831877 Ry
     Harris-Foulkes estimate   =   -2023.99832012 Ry
     estimated scf accuracy    <       0.00004308 Ry

     total magnetization       =    14.00 Bohr mag/cell
     absolute magnetization    =    22.64 Bohr mag/cell

     iteration # 43     ecut=    40.00 Ry     beta=0.70
     Davidson diagonalization with overlap
     ethr =  1.87E-08,  avg # of iterations =  1.0

     negative rho (up, down):  0.515E-02 0.182E-02

     total cpu time spent up to now is    10610.5 secs

     total energy              =   -2023.99832192 Ry
     Harris-Foulkes estimate   =   -2023.99832832 Ry
     estimated scf accuracy    <       0.00004217 Ry

     total magnetization       =    14.00 Bohr mag/cell
     absolute magnetization    =    22.62 Bohr mag/cell

     iteration # 44     ecut=    40.00 Ry     beta=0.70
     Davidson diagonalization with overlap
     ethr =  1.83E-08,  avg # of iterations =  1.0

     negative rho (up, down):  0.515E-02 0.182E-02

     total cpu time spent up to now is    10824.9 secs

     total energy              =   -2023.99832280 Ry
     Harris-Foulkes estimate   =   -2023.99832576 Ry
     estimated scf accuracy    <       0.00002692 Ry

     total magnetization       =    14.00 Bohr mag/cell
     absolute magnetization    =    22.62 Bohr mag/cell

     iteration # 45     ecut=    40.00 Ry     beta=0.70
     Davidson diagonalization with overlap
     ethr =  1.17E-08,  avg # of iterations =  1.0

     negative rho (up, down):  0.515E-02 0.182E-02

     total cpu time spent up to now is    11043.6 secs

     total energy              =   -2023.99832458 Ry
     Harris-Foulkes estimate   =   -2023.99832543 Ry
     estimated scf accuracy    <       0.00001811 Ry

     total magnetization       =    14.00 Bohr mag/cell
     absolute magnetization    =    22.62 Bohr mag/cell

     iteration # 46     ecut=    40.00 Ry     beta=0.70
     Davidson diagonalization with overlap
     ethr =  7.87E-09,  avg # of iterations =  1.0

     negative rho (up, down):  0.515E-02 0.182E-02

     total cpu time spent up to now is    11273.5 secs

     total energy              =   -2023.99832717 Ry
     Harris-Foulkes estimate   =   -2023.99832648 Ry
     estimated scf accuracy    <       0.00002277 Ry

     total magnetization       =    14.00 Bohr mag/cell
     absolute magnetization    =    22.62 Bohr mag/cell

     iteration # 47     ecut=    40.00 Ry     beta=0.70
     Davidson diagonalization with overlap
     ethr =  7.87E-09,  avg # of iterations =  1.0

     negative rho (up, down):  0.515E-02 0.182E-02

     total cpu time spent up to now is    11503.8 secs

     total energy              =   -2023.99833031 Ry
     Harris-Foulkes estimate   =   -2023.99833015 Ry
     estimated scf accuracy    <       0.00001339 Ry

     total magnetization       =    14.00 Bohr mag/cell
     absolute magnetization    =    22.61 Bohr mag/cell

     iteration # 48     ecut=    40.00 Ry     beta=0.70
     Davidson diagonalization with overlap
     ethr =  5.82E-09,  avg # of iterations =  1.0

     negative rho (up, down):  0.515E-02 0.182E-02

     total cpu time spent up to now is    11734.1 secs

     total energy              =   -2023.99832801 Ry
     Harris-Foulkes estimate   =   -2023.99833265 Ry
     estimated scf accuracy    <       0.00001649 Ry

     total magnetization       =    14.00 Bohr mag/cell
     absolute magnetization    =    22.60 Bohr mag/cell

     iteration # 49     ecut=    40.00 Ry     beta=0.70
     Davidson diagonalization with overlap
     ethr =  5.82E-09,  avg # of iterations =  1.1

     negative rho (up, down):  0.515E-02 0.182E-02

     total cpu time spent up to now is    11961.0 secs

     total energy              =   -2023.99832353 Ry
     Harris-Foulkes estimate   =   -2023.99833762 Ry
     estimated scf accuracy    <       0.00009442 Ry

     total magnetization       =    14.00 Bohr mag/cell
     absolute magnetization    =    22.60 Bohr mag/cell

     iteration # 50     ecut=    40.00 Ry     beta=0.70
     Davidson diagonalization with overlap
     ethr =  5.82E-09,  avg # of iterations =  1.5

     negative rho (up, down):  0.515E-02 0.182E-02

     total cpu time spent up to now is    12193.2 secs

     total energy              =   -2023.99832783 Ry
     Harris-Foulkes estimate   =   -2023.99833729 Ry
     estimated scf accuracy    <       0.00006955 Ry

     total magnetization       =    14.00 Bohr mag/cell
     absolute magnetization    =    22.59 Bohr mag/cell

     iteration # 51     ecut=    40.00 Ry     beta=0.70
     Davidson diagonalization with overlap
     ethr =  5.82E-09,  avg # of iterations =  1.0

     negative rho (up, down):  0.515E-02 0.182E-02

     total cpu time spent up to now is    12436.0 secs

     total energy              =   -2023.99833255 Ry
     Harris-Foulkes estimate   =   -2023.99833550 Ry
     estimated scf accuracy    <       0.00001278 Ry

     total magnetization       =    14.00 Bohr mag/cell
     absolute magnetization    =    22.58 Bohr mag/cell

     iteration # 52     ecut=    40.00 Ry     beta=0.70
     Davidson diagonalization with overlap
     ethr =  5.56E-09,  avg # of iterations =  1.0

     negative rho (up, down):  0.515E-02 0.182E-02

     total cpu time spent up to now is    12664.7 secs

     total energy              =   -2023.99833033 Ry
     Harris-Foulkes estimate   =   -2023.99833574 Ry
     estimated scf accuracy    <       0.00002535 Ry

     total magnetization       =    14.00 Bohr mag/cell
     absolute magnetization    =    22.58 Bohr mag/cell

     iteration # 53     ecut=    40.00 Ry     beta=0.70
     Davidson diagonalization with overlap
     ethr =  5.56E-09,  avg # of iterations =  1.1

     negative rho (up, down):  0.515E-02 0.182E-02

     total cpu time spent up to now is    12896.5 secs

     total energy              =   -2023.99833173 Ry
     Harris-Foulkes estimate   =   -2023.99833819 Ry
     estimated scf accuracy    <       0.00003327 Ry

     total magnetization       =    14.00 Bohr mag/cell
     absolute magnetization    =    22.57 Bohr mag/cell

     iteration # 54     ecut=    40.00 Ry     beta=0.70
     Davidson diagonalization with overlap
     ethr =  5.56E-09,  avg # of iterations =  1.0

     negative rho (up, down):  0.516E-02 0.182E-02

     total cpu time spent up to now is    13130.3 secs

     total energy              =   -2023.99833298 Ry
     Harris-Foulkes estimate   =   -2023.99833563 Ry
     estimated scf accuracy    <       0.00000684 Ry

     total magnetization       =    14.00 Bohr mag/cell
     absolute magnetization    =    22.57 Bohr mag/cell

     iteration # 55     ecut=    40.00 Ry     beta=0.70
     Davidson diagonalization with overlap
     ethr =  2.97E-09,  avg # of iterations =  1.0

     negative rho (up, down):  0.515E-02 0.182E-02

     total cpu time spent up to now is    13358.7 secs

     total energy              =   -2023.99833345 Ry
     Harris-Foulkes estimate   =   -2023.99833544 Ry
     estimated scf accuracy    <       0.00001502 Ry

     total magnetization       =    14.00 Bohr mag/cell
     absolute magnetization    =    22.58 Bohr mag/cell

     iteration # 56     ecut=    40.00 Ry     beta=0.70
     Davidson diagonalization with overlap
     ethr =  2.97E-09,  avg # of iterations =  1.0

     negative rho (up, down):  0.515E-02 0.182E-02

     total cpu time spent up to now is    13590.6 secs

     total energy              =   -2023.99833435 Ry
     Harris-Foulkes estimate   =   -2023.99833549 Ry
     estimated scf accuracy    <       0.00001391 Ry

     total magnetization       =    14.00 Bohr mag/cell
     absolute magnetization    =    22.58 Bohr mag/cell

     iteration # 57     ecut=    40.00 Ry     beta=0.70
     Davidson diagonalization with overlap
     ethr =  2.97E-09,  avg # of iterations =  1.0

     negative rho (up, down):  0.515E-02 0.182E-02

     total cpu time spent up to now is    13822.6 secs

     total energy              =   -2023.99833488 Ry
     Harris-Foulkes estimate   =   -2023.99833513 Ry
     estimated scf accuracy    <       0.00000135 Ry

     total magnetization       =    14.00 Bohr mag/cell
     absolute magnetization    =    22.57 Bohr mag/cell

     iteration # 58     ecut=    40.00 Ry     beta=0.70
     Davidson diagonalization with overlap
     ethr =  5.88E-10,  avg # of iterations =  1.0

     negative rho (up, down):  0.515E-02 0.182E-02

     total cpu time spent up to now is    14053.9 secs

     End of self-consistent calculation
 --- enter write_ns ---
 LDA+U parameters:
U( 2)     =  3.50000000
alpha( 2) =  0.00000000
atom    3   Tr[ns(na)] (up, down, total) =   3.57152  1.08233  4.65385
   spin  1
    eigenvalues: 
  0.475  0.520  0.678  0.914  0.984
    eigenvectors:
  0.037  0.167  0.001  0.000  0.795
  0.880  0.118  0.000  0.000  0.002
  0.000  0.000  0.976  0.022  0.003
  0.083  0.715  0.001  0.000  0.201
  0.000  0.000  0.022  0.978  0.000
    occupations:
  0.887 -0.027  0.015 -0.188 -0.003
 -0.027  0.482 -0.003 -0.003 -0.006
  0.015 -0.003  0.684 -0.005  0.034
 -0.188 -0.003 -0.005  0.609 -0.001
 -0.003 -0.006  0.034 -0.001  0.909
   spin  2
    eigenvalues: 
  0.101  0.116  0.138  0.348  0.379
    eigenvectors:
  0.765  0.007  0.022  0.057  0.149
  0.002  0.002  0.000  0.788  0.208
  0.032  0.114  0.854  0.000  0.000
  0.201  0.001  0.003  0.153  0.642
  0.001  0.877  0.120  0.002  0.000
    occupations:
  0.158  0.004 -0.003  0.108  0.001
  0.004  0.354  0.001 -0.016  0.011
 -0.003  0.001  0.134  0.007 -0.007
  0.108 -0.016  0.007  0.317 -0.001
  0.001  0.011 -0.007 -0.001  0.119
atomic mag. moment =     2.489194
atom    4   Tr[ns(na)] (up, down, total) =   3.53305  1.10690  4.63994
   spin  1
    eigenvalues: 
  0.487  0.534  0.613  0.912  0.988
    eigenvectors:
  0.005  0.989  0.000  0.001  0.005
  0.000  0.001  0.026  0.973  0.000
  0.000  0.000  0.974  0.026  0.000
  0.000  0.005  0.000  0.000  0.995
  0.995  0.005  0.000  0.000  0.000
    occupations:
  0.536 -0.013 -0.001  0.032  0.003
 -0.013  0.904  0.047  0.002  0.000
 -0.001  0.047  0.620  0.002 -0.000
  0.032  0.002  0.002  0.985 -0.000
  0.003  0.000 -0.000 -0.000  0.487
   spin  2
    eigenvalues: 
  0.096  0.119  0.150  0.361  0.380
    eigenvectors:
  0.003  0.002  0.000  0.007  0.988
  0.003  0.924  0.070  0.000  0.003
  0.000  0.070  0.930  0.000  0.000
  0.993  0.004  0.000  0.000  0.003
  0.000  0.000  0.000  0.993  0.007
    occupations:
  0.378  0.013  0.003 -0.015  0.002
  0.013  0.122 -0.008  0.001 -0.000
  0.003 -0.008  0.148  0.000  0.000
 -0.015  0.001  0.000  0.097  0.000
  0.002 -0.000  0.000  0.000  0.362
atomic mag. moment =     2.426147
atom    9   Tr[ns(na)] (up, down, total) =   3.53892  1.14347  4.68239
   spin  1
    eigenvalues: 
  0.505  0.508  0.656  0.886  0.984
    eigenvectors:
  0.067  0.094  0.000  0.000  0.838
  0.585  0.415  0.000  0.000  0.000
  0.000  0.000  0.995  0.005  0.000
  0.348  0.490  0.000  0.000  0.162
  0.000  0.000  0.005  0.995  0.000
    occupations:
  0.907  0.001 -0.000 -0.176 -0.000
  0.001  0.506  0.002  0.002 -0.001
 -0.000  0.002  0.657 -0.001 -0.016
 -0.176  0.002 -0.001  0.584  0.002
 -0.000 -0.001 -0.016  0.002  0.885
   spin  2
    eigenvalues: 
  0.113  0.135  0.152  0.371  0.373
    eigenvectors:
  0.827  0.000  0.000  0.104  0.068
  0.000  0.000  0.000  0.405  0.595
  0.000  0.029  0.971  0.000  0.000
  0.173  0.000  0.000  0.490  0.337
  0.000  0.971  0.029  0.000  0.000
    occupations:
  0.158  0.001 -0.000  0.098 -0.000
  0.001  0.372 -0.000 -0.002  0.000
 -0.000 -0.000  0.151  0.000  0.003
  0.098 -0.002  0.000  0.327 -0.000
 -0.000  0.000  0.003 -0.000  0.136
atomic mag. moment =     2.395451
atom   10   Tr[ns(na)] (up, down, total) =   3.63132  0.98000  4.61132
   spin  1
    eigenvalues: 
  0.468  0.489  0.751  0.939  0.984
    eigenvectors:
  0.000  0.992  0.000  0.000  0.008
  0.000  0.001  0.000  0.965  0.034
  0.001  0.000  0.998  0.000  0.000
  0.000  0.008  0.000  0.035  0.958
  0.999  0.000  0.001  0.000  0.000
    occupations:
  0.493 -0.014 -0.000  0.043 -0.000
 -0.014  0.940 -0.003 -0.007  0.001
 -0.000 -0.003  0.751  0.000  0.010
  0.043 -0.007  0.000  0.979  0.000
 -0.000  0.001  0.010  0.000  0.469
   spin  2
    eigenvalues: 
  0.084  0.133  0.141  0.283  0.339
    eigenvectors:
  0.007  0.000  0.000  0.993  0.000
  0.001  0.999  0.000  0.000  0.000
  0.000  0.000  1.000  0.000  0.000
  0.992  0.001  0.000  0.007  0.000
  0.000  0.000  0.000  0.000  1.000
    occupations:
  0.282  0.001 -0.000 -0.017 -0.000
  0.001  0.133  0.000  0.001 -0.000
 -0.000  0.000  0.141  0.000  0.002
 -0.017  0.001  0.000  0.086  0.000
 -0.000 -0.000  0.002  0.000  0.339
atomic mag. moment =     2.651321
atom   16   Tr[ns(na)] (up, down, total) =   3.56894  1.08603  4.65496
   spin  1
    eigenvalues: 
  0.473  0.522  0.679  0.912  0.983
    eigenvectors:
  0.039  0.167  0.001  0.000  0.793
  0.875  0.122  0.000  0.000  0.002
  0.000  0.000  0.960  0.038  0.002
  0.086  0.710  0.001  0.000  0.203
  0.000  0.000  0.038  0.962  0.000
    occupations:
  0.886  0.028  0.013 -0.188  0.004
  0.028  0.480  0.004  0.003 -0.005
  0.013  0.004  0.689 -0.004 -0.044
 -0.188  0.003 -0.004  0.611 -0.000
  0.004 -0.005 -0.044 -0.000  0.903
   spin  2
    eigenvalues: 
  0.102  0.117  0.138  0.349  0.380
    eigenvectors:
  0.768  0.007  0.020  0.059  0.147
  0.002  0.001  0.000  0.783  0.213
  0.029  0.136  0.834  0.000  0.000
  0.200  0.001  0.003  0.156  0.640
  0.001  0.854  0.143  0.002  0.000
    occupations:
  0.158 -0.004 -0.003  0.108 -0.001
 -0.004  0.355 -0.001  0.016  0.010
 -0.003 -0.001  0.134  0.006  0.008
  0.108  0.016  0.006  0.318  0.001
 -0.001  0.010  0.008  0.001  0.120
atomic mag. moment =     2.482906
atom   17   Tr[ns(na)] (up, down, total) =   3.53563  1.10665  4.64228
   spin  1
    eigenvalues: 
  0.485  0.536  0.626  0.901  0.988
    eigenvectors:
  0.003  0.990  0.000  0.002  0.005
  0.000  0.001  0.025  0.974  0.000
  0.000  0.000  0.975  0.025  0.000
  0.000  0.005  0.000  0.000  0.995
  0.997  0.003  0.000  0.000  0.000
    occupations:
  0.539 -0.014 -0.003  0.031  0.003
 -0.014  0.894  0.043  0.001  0.000
 -0.003  0.043  0.632  0.000  0.001
  0.031  0.001  0.000  0.986 -0.000
  0.003  0.000  0.001 -0.000  0.485
   spin  2
    eigenvalues: 
  0.096  0.120  0.150  0.358  0.383
    eigenvectors:
  0.003  0.003  0.000  0.003  0.991
  0.004  0.923  0.071  0.000  0.003
  0.000  0.070  0.929  0.000  0.000
  0.993  0.004  0.000  0.000  0.003
  0.000  0.000  0.000  0.997  0.003
    occupations:
  0.381  0.015  0.003 -0.015  0.001
  0.015  0.123 -0.008  0.001 -0.000
  0.003 -0.008  0.148  0.000  0.000
 -0.015  0.001  0.000  0.097  0.000
  0.001 -0.000  0.000  0.000  0.358
atomic mag. moment =     2.428977
atom   22   Tr[ns(na)] (up, down, total) =   3.21240  1.58376  4.79616
   spin  1
    eigenvalues: 
  0.512  0.556  0.576  0.653  0.915
    eigenvectors:
  0.913  0.003  0.085  0.000  0.000
  0.004  0.996  0.001  0.000  0.000
  0.000  0.000  0.000  0.049  0.951
  0.084  0.002  0.914  0.000  0.000
  0.000  0.000  0.000  0.951  0.049
    occupations:
  0.518 -0.003  0.001 -0.018  0.001
 -0.003  0.556  0.000 -0.000  0.000
  0.001  0.000  0.902  0.000  0.057
 -0.018 -0.000  0.000  0.571 -0.001
  0.001  0.000  0.057 -0.001  0.665
   spin  2
    eigenvalues: 
  0.177  0.245  0.269  0.445  0.448
    eigenvectors:
  0.000  0.000  0.988  0.000  0.011
  0.000  0.000  0.000  0.996  0.003
  0.994  0.006  0.000  0.000  0.000
  0.000  0.000  0.012  0.003  0.985
  0.006  0.994  0.000  0.000  0.000
    occupations:
  0.271 -0.002 -0.000  0.019 -0.000
 -0.002  0.444 -0.000  0.000 -0.000
 -0.000 -0.000  0.177  0.000 -0.005
  0.019  0.000  0.000  0.446  0.000
 -0.000 -0.000 -0.005  0.000  0.245
atomic mag. moment =     1.628638
atom   23   Tr[ns(na)] (up, down, total) =   3.22050  1.57531  4.79580
   spin  1
    eigenvalues: 
  0.496  0.569  0.571  0.597  0.988
    eigenvectors:
  0.000  0.000  0.000  0.998  0.002
  0.000  0.999  0.001  0.000  0.000
  0.000  0.001  0.999  0.000  0.000
  0.000  0.000  0.000  0.002  0.998
  1.000  0.000  0.000  0.000  0.000
    occupations:
  0.597  0.001 -0.000  0.016 -0.000
  0.001  0.569  0.000  0.002 -0.000
 -0.000  0.000  0.571  0.000  0.000
  0.016  0.002  0.000  0.988 -0.000
 -0.000 -0.000  0.000 -0.000  0.496
   spin  2
    eigenvalues: 
  0.095  0.306  0.314  0.381  0.480
    eigenvectors:
  0.002  0.000  0.000  0.000  0.998
  0.000  0.000  1.000  0.000  0.000
  0.000  0.999  0.000  0.001  0.000
  0.998  0.000  0.000  0.000  0.002
  0.000  0.001  0.000  0.999  0.000
    occupations:
  0.479  0.001  0.000 -0.017 -0.000
  0.001  0.314  0.000 -0.001  0.000
  0.000  0.000  0.306 -0.000 -0.002
 -0.017 -0.001 -0.000  0.096 -0.000
 -0.000  0.000 -0.002 -0.000  0.381
atomic mag. moment =     1.645193
N of occupied +U levels =  37.4767090
 --- exit write_ns ---

 ------ SPIN UP ------------


          k = 0.0000 0.0000 0.0000 ( 27003 PWs)   bands (ev):

   -75.8846 -75.7626 -75.4378 -75.2908 -75.2543 -75.2452 -75.2087 -75.1929
   -47.4399 -47.2009 -47.1261 -47.0768 -47.0345 -47.0033 -46.9291 -46.7115
   -46.6575 -46.6537 -46.6370 -46.6250 -46.6156 -46.5948 -46.5867 -46.5806
   -46.5680 -46.5330 -46.5283 -46.5063 -46.4896 -46.4824 -46.4247 -46.3521
   -21.3493 -20.8815 -20.5210 -20.5167 -20.3595 -20.0281 -19.9081 -19.8054
   -19.7930 -19.6946 -19.5588 -19.5562 -19.4966 -19.4532 -19.2956 -19.2824
   -19.1603 -19.0293 -18.9775  -9.6909  -9.4331  -9.2567  -9.0973  -8.9262
    -8.3476  -8.3056  -8.2849  -8.1557  -8.0617  -8.0018  -7.9663  -7.8839
    -7.5988  -7.3248  -7.2860  -7.2506  -7.2229  -7.1552  -7.1227  -6.9292
    -6.8938  -6.7634  -6.7173  -6.5574  -6.2438  -6.1810  -6.1258  -5.8745
    -5.8135  -5.7968  -5.6703  -5.5457  -5.5311  -5.3677  -5.2308  -5.2229
    -5.1835  -5.0588  -4.9806  -4.8683  -4.7602  -4.6442  -4.6078  -4.5522
    -4.4870  -4.4747  -4.3568  -4.3031  -4.2208  -4.1306  -4.0705  -4.0119
    -4.0027  -3.9092  -3.7732  -3.7255  -3.6959  -3.5743  -3.4772  -3.4233
    -3.3671  -3.2478  -3.2376  -2.9298  -2.8374  -2.5275  -2.4968  -2.4469
    -2.0935  -1.9423  -1.9069  -1.8008  -1.7390  -1.5024  -1.4452  -1.2544
    -1.1483  -1.0471  -0.8502  -0.7686  -0.5269   0.3055   0.4483   0.5649
     0.6726   1.1408   1.3057   1.3157   1.4267   1.6199   1.6469   1.7826
     1.8087   2.0587   2.0891   2.4212   3.1375   3.6938   3.8548   4.3775
     4.8571   5.6350   6.1308   6.2531   6.7807   7.1035   7.1133   7.1674
     7.3945   7.5242   7.6432   7.7285   7.8675   8.0435   8.1272   8.1556
     8.2582   8.2970   8.3956   8.4176   8.5367   8.7804   8.8038   8.9018
     8.9945   9.2284   9.3475   9.4003   9.4088   9.4759   9.5784   9.7011
     9.8600  10.0123  10.0378  10.1136  10.2087  10.2744  10.4764  10.5855
    10.6754  10.8285  10.9437  11.0949  11.1692  11.2932  11.3939  11.4114
    11.4498  11.4733  11.7439  11.7623  11.8233  11.8765  11.9187  12.0861
    12.1567  12.1760  12.1949  12.2757  12.3837  12.4173  12.4802  12.5121
    12.5318  12.5998  12.6501  12.6635  12.7831  12.9321  12.9673  13.0482
    13.0753  13.1042  13.1402  13.2389  13.3024  13.3719  13.4519  13.5999
    13.6411  13.7012  13.7569  13.8493  13.9336  14.0788  14.1527  14.1843
    14.3295  14.4153  14.4918  14.5259  14.5888  14.6133  14.7436  14.8472
    14.8940  15.0427  15.1283  15.1518  15.2238  15.2864  15.3303  15.5017
    15.6074  15.7012  15.8088  15.8537  16.1585  16.1924  16.2342  16.4114
    16.4523  16.5770  16.6656  16.7813  16.8400  16.9857  17.0247  17.0768
    17.1279  17.3169  17.4425  17.5542  17.6116  17.7640  17.7963  17.9060
    18.0082  18.0244  18.0574  18.2053  18.3162  18.3944  18.5784  18.6402
    18.7133  18.8138  18.8478  18.9566  18.9965  19.0390  19.1514  19.1787
    19.2397  19.3816  19.4683  19.5379  19.6097  19.6363  19.7140  19.7746
    19.8620  19.8743  19.9985  20.0561  20.1152  20.1382  20.2454  20.2988
    20.3212  20.4586  20.4984  20.5913  20.6776  20.9118  20.9727  21.0184
    21.0507  21.1365  21.1483  21.2079  21.2886  21.3480  21.3855  21.4787
    21.5118  21.6206  21.6330  21.7331  21.8519

          k = 0.0000 0.2341 0.0000 ( 27088 PWs)   bands (ev):

   -75.8846 -75.7626 -75.4379 -75.2908 -75.2543 -75.2452 -75.2087 -75.1929
   -47.4399 -47.2010 -47.1266 -47.0751 -47.0345 -47.0042 -46.9290 -46.7100
   -46.6609 -46.6476 -46.6354 -46.6257 -46.6178 -46.5988 -46.5881 -46.5800
   -46.5674 -46.5323 -46.5283 -46.5061 -46.4896 -46.4824 -46.4246 -46.3523
   -21.2618 -20.7762 -20.5832 -20.5105 -20.3491 -20.0459 -19.9538 -19.8748
   -19.8115 -19.7405 -19.5784 -19.5557 -19.4616 -19.4229 -19.3937 -19.2835
   -19.1490 -19.0223 -18.9677  -9.5483  -9.2136  -9.1671  -9.0865  -9.0270
    -8.7517  -8.3387  -8.3204  -8.0353  -7.8882  -7.8419  -7.7477  -7.6261
    -7.5076  -7.2929  -7.1916  -7.1579  -7.0938  -7.0412  -6.9405  -6.9230
    -6.8011  -6.7758  -6.6747  -6.5851  -6.3740  -6.2875  -6.1693  -6.0491
    -5.9555  -5.9081  -5.8560  -5.8231  -5.6013  -5.5426  -5.4142  -5.3334
    -5.2595  -5.1978  -5.0768  -4.9331  -4.8920  -4.7895  -4.7405  -4.6327
    -4.5595  -4.3953  -4.3702  -4.3288  -4.1737  -4.0447  -3.9912  -3.8986
    -3.8007  -3.7618  -3.7341  -3.6696  -3.6106  -3.5734  -3.5120  -3.3672
    -3.2423  -3.2002  -2.9829  -2.8942  -2.8411  -2.8161  -2.5998  -2.5809
    -2.4784  -2.0408  -1.8864  -1.8445  -1.6218  -1.4243  -1.3578  -1.2406
    -1.1533  -1.0675  -0.9039  -0.8849  -0.3321  -0.0767   0.3076   0.3605
     0.7242   0.9235   1.3756   1.4370   1.6078   1.7649   1.8360   1.9515
     1.9916   2.0816   2.2960   2.3427   3.4091   3.9411   4.1155   4.6093
     5.0770   5.3204   5.7882   5.9665   6.1723   6.4134   6.6385   6.9626
     7.1466   7.2664   7.4816   7.5980   7.9620   8.1888   8.2202   8.3140
     8.3698   8.5140   8.5356   8.6578   8.7854   8.9878   9.0216   9.0901
     9.2374   9.4781   9.4953   9.5965   9.7136   9.7789   9.8213   9.9479
    10.0344  10.0493  10.1544  10.2573  10.3438  10.3632  10.3768  10.4658
    10.4897  10.6319  10.7100  10.7779  10.8466  10.9464  11.1089  11.1851
    11.2643  11.3947  11.4218  11.5165  11.6064  11.6320  11.6981  11.7566
    11.8090  11.9432  12.1325  12.3505  12.4041  12.4736  12.5706  12.6823
    12.7342  12.7852  12.8861  12.9166  12.9525  13.0391  13.1740  13.2958
    13.3842  13.5700  13.6010  13.7070  13.7356  13.8255  13.8873  14.0158
    14.0923  14.1643  14.2230  14.2662  14.3065  14.3325  14.4438  14.4935
    14.5692  14.5862  14.6016  14.6698  14.8221  14.8744  14.9088  15.0488
    15.0780  15.1096  15.2338  15.2614  15.3527  15.3775  15.4838  15.5262
    15.6267  15.7008  15.8350  15.8747  15.9136  15.9940  16.1029  16.1784
    16.2234  16.3116  16.3756  16.4170  16.5807  16.7158  16.8347  16.8856
    16.9450  17.1300  17.1638  17.2551  17.2942  17.3288  17.4490  17.5131
    17.6597  17.7338  17.8900  17.9734  18.0392  18.1644  18.3059  18.3465
    18.4731  18.5889  18.6389  18.7370  18.8828  18.9232  19.0539  19.0665
    19.1379  19.1867  19.2786  19.3435  19.4652  19.5146  19.5808  19.6991
    19.7243  19.9110  19.9692  20.0097  20.1630  20.1976  20.2493  20.2971
    20.3479  20.3922  20.4491  20.4894  20.5162  20.6569  20.6997  20.7372
    20.8141  20.8745  20.9098  20.9732  21.0281  21.1225  21.1678  21.2284
    21.2973  21.4012  21.4675  21.5096  21.5893

          k = 0.0000-0.4682 0.0000 ( 27136 PWs)   bands (ev):

   -75.8847 -75.7625 -75.4379 -75.2908 -75.2544 -75.2452 -75.2086 -75.1929
   -47.4399 -47.2011 -47.1271 -47.0734 -47.0345 -47.0051 -46.9290 -46.7083
   -46.6642 -46.6408 -46.6341 -46.6261 -46.6160 -46.6076 -46.5908 -46.5794
   -46.5656 -46.5317 -46.5283 -46.5058 -46.4895 -46.4823 -46.4245 -46.3524
   -21.1423 -20.7250 -20.5355 -20.4892 -20.3785 -20.2490 -19.9411 -19.8402
   -19.8237 -19.7741 -19.6138 -19.5642 -19.5390 -19.4276 -19.3654 -19.2850
   -19.1430 -19.0100 -18.9700  -9.4650  -9.3482  -9.0439  -8.9831  -8.8449
    -8.7742  -8.3363  -8.3344  -7.8579  -7.7988  -7.6463  -7.5458  -7.4577
    -7.4377  -7.4172  -7.1550  -7.0162  -6.9770  -6.9334  -6.9147  -6.8578
    -6.7853  -6.7747  -6.6883  -6.5029  -6.4490  -6.4048  -6.3902  -6.2196
    -6.1422  -5.9664  -5.9058  -5.8328  -5.7691  -5.7178  -5.6784  -5.5843
    -5.3515  -5.3308  -5.1621  -5.1039  -4.9993  -4.7771  -4.7473  -4.5983
    -4.4888  -4.4560  -4.3712  -4.1426  -4.1137  -4.0438  -3.9931  -3.8169
    -3.7454  -3.7130  -3.6854  -3.6217  -3.5806  -3.5592  -3.4585  -3.3676
    -3.2652  -3.2498  -3.1291  -3.0249  -2.9796  -2.7181  -2.6413  -2.4743
    -2.4591  -1.9712  -1.8016  -1.7805  -1.7576  -1.5563  -1.3612  -1.3423
    -1.1516  -1.0150  -1.0048  -0.7330  -0.4960  -0.1982  -0.0414   0.2940
     0.9047   1.1426   1.3085   1.5071   1.7058   1.8295   1.8526   1.8802
     2.0015   2.0610   2.3884   2.7500   3.9652   4.3422   4.5364   4.7318
     4.8361   4.9855   5.2926   5.4808   5.8562   6.0985   6.5611   6.8948
     7.1777   7.1895   7.4659   7.6064   7.7602   8.0351   8.0638   8.2184
     8.6306   8.7699   8.8697   8.9001   9.0512   9.1007   9.1866   9.2166
     9.2333   9.2477   9.4517   9.5137   9.5621   9.5999   9.6837   9.7058
     9.8187   9.8790  10.0444  10.0969  10.2032  10.2998  10.4362  10.4852
    10.6642  10.7786  10.8235  10.9214  11.0128  11.0916  11.1667  11.2309
    11.3470  11.5494  11.6051  11.6805  11.7764  12.0300  12.1023  12.1841
    12.2283  12.3367  12.4007  12.4218  12.4651  12.5915  12.6156  12.7574
    12.8203  12.8513  12.9234  13.0772  13.1302  13.1538  13.2284  13.2798
    13.3844  13.4754  13.5576  13.5822  13.6947  13.7332  13.8565  13.9338
    13.9724  14.0539  14.1139  14.2790  14.3240  14.3325  14.3962  14.4393
    14.5421  14.5823  14.6521  14.7452  14.7563  14.9114  14.9599  15.0001
    15.0884  15.2201  15.2821  15.3348  15.4463  15.5703  15.5793  15.6938
    15.7593  15.9431  15.9947  16.0081  16.0970  16.1806  16.3053  16.3928
    16.6602  16.7017  16.7829  16.7917  16.8543  16.9673  16.9880  17.0177
    17.1080  17.1322  17.1913  17.1941  17.2636  17.5026  17.5277  17.6489
    17.6969  17.7495  17.7897  17.8431  17.9155  18.0108  18.1010  18.2103
    18.2694  18.2828  18.3658  18.4573  18.4915  18.5141  18.5177  18.6173
    18.6997  18.7193  18.8256  18.9014  18.9910  19.0586  19.1094  19.1589
    19.1893  19.2695  19.3945  19.4334  19.6207  19.7177  19.9543  19.9700
    20.0719  20.0800  20.1430  20.1737  20.2027  20.3024  20.3701  20.4664
    20.4823  20.6771  20.7315  20.8349  20.8919  20.9639  20.9902  21.0397
    21.1345  21.1405  21.2060  21.2765  21.3278

          k = 0.2500 0.0000 0.0000 ( 27178 PWs)   bands (ev):

   -75.8845 -75.7624 -75.4377 -75.2898 -75.2548 -75.2452 -75.2067 -75.1944
   -47.4401 -47.1976 -47.1228 -47.0765 -47.0342 -47.0034 -46.9285 -46.7118
   -46.6574 -46.6495 -46.6413 -46.6236 -46.6140 -46.5937 -46.5824 -46.5792
   -46.5588 -46.5283 -46.5208 -46.4962 -46.4884 -46.4867 -46.4495 -46.3770
   -21.2272 -20.7704 -20.5980 -20.4525 -20.3846 -20.0820 -19.9938 -19.9238
   -19.7252 -19.6966 -19.5451 -19.5428 -19.4771 -19.4567 -19.3234 -19.3188
   -19.1620 -19.0488 -18.9910  -9.4830  -9.2698  -9.1097  -8.9464  -8.8007
    -8.3544  -8.2755  -8.2437  -8.1770  -8.1133  -8.0143  -7.9600  -7.7544
    -7.6863  -7.5629  -7.4117  -7.3388  -7.2568  -7.1486  -7.0508  -6.9139
    -6.8771  -6.7444  -6.6175  -6.4914  -6.3988  -6.1538  -6.0888  -6.0210
    -5.8604  -5.7413  -5.6551  -5.5901  -5.5257  -5.4654  -5.4204  -5.3780
    -5.3468  -5.2611  -5.0252  -4.9840  -4.8470  -4.8165  -4.7447  -4.6227
    -4.5746  -4.4971  -4.3834  -4.3197  -4.2653  -4.1973  -4.1648  -4.0899
    -3.8485  -3.7733  -3.7026  -3.6452  -3.5892  -3.4965  -3.4779  -3.2771
    -3.1791  -3.0354  -2.9148  -2.8105  -2.7671  -2.5738  -2.5403  -2.3825
    -2.0973  -2.0101  -1.9607  -1.8553  -1.6419  -1.4467  -1.3340  -1.2631
    -1.2329  -1.1286  -0.9524  -0.7743  -0.4277   0.3202   0.5273   0.6047
     0.7463   1.0507   1.2961   1.3111   1.3655   1.4302   1.5532   1.6254
     1.7126   1.8389   1.9606   2.3826   3.4578   3.9893   4.1604   4.6704
     5.1635   5.4976   5.8681   6.2411   6.3592   6.4768   6.6236   6.8688
     7.2798   7.4088   7.5127   7.6963   7.7537   7.8906   7.9388   8.0039
     8.1670   8.3898   8.4868   8.5836   8.8063   8.8395   9.0317   9.1287
     9.2911   9.4031   9.5048   9.6278   9.6831   9.7876   9.8621   9.8968
     9.9917  10.0709  10.1408  10.2015  10.2324  10.3599  10.4315  10.4884
    10.6152  10.6647  10.7823  10.8097  11.0024  11.0481  11.0925  11.1567
    11.3222  11.4045  11.4453  11.5256  11.6415  11.6740  11.7430  11.7744
    11.9766  12.0150  12.2196  12.3240  12.3585  12.4852  12.5434  12.5815
    12.6357  12.7039  12.8040  12.9745  12.9979  13.0947  13.1280  13.2239
    13.2443  13.4071  13.4902  13.5646  13.7374  13.8291  13.9405  13.9580
    14.0520  14.1679  14.2745  14.3078  14.3427  14.4405  14.4949  14.5716
    14.5921  14.6213  14.6849  14.8091  14.8685  14.9099  14.9676  15.1118
    15.2663  15.2992  15.3364  15.4131  15.5972  15.6725  15.7066  15.8090
    15.8468  15.8969  15.9653  16.0436  16.0801  16.2265  16.3294  16.4839
    16.5351  16.5667  16.6258  16.7653  16.8296  16.9487  16.9603  17.1053
    17.1631  17.2310  17.2582  17.3910  17.4265  17.5849  17.6265  17.6391
    17.6967  17.7923  17.9078  17.9634  17.9813  18.0600  18.2331  18.2870
    18.4153  18.5902  18.6602  18.7295  18.8305  18.8880  18.9115  18.9992
    19.0478  19.2083  19.2669  19.4444  19.5191  19.6222  19.6653  19.7089
    19.7403  19.7791  19.8211  19.8961  19.9462  20.0085  20.1338  20.2184
    20.2575  20.3361  20.4186  20.4611  20.4947  20.5576  20.6017  20.7158
    20.8196  20.8716  20.9843  21.0590  21.1161  21.1648  21.2042  21.2637
    21.2848  21.3218  21.4287  21.4600  21.5209

          k = 0.2500 0.2341 0.0000 ( 27132 PWs)   bands (ev):

   -75.8845 -75.7623 -75.4377 -75.2898 -75.2548 -75.2452 -75.2066 -75.1944
   -47.4401 -47.1976 -47.1233 -47.0749 -47.0342 -47.0042 -46.9284 -46.7103
   -46.6614 -46.6441 -46.6392 -46.6237 -46.6094 -46.6020 -46.5881 -46.5796
   -46.5550 -46.5283 -46.5205 -46.4961 -46.4881 -46.4867 -46.4494 -46.3771
   -21.1502 -20.6748 -20.5855 -20.4955 -20.3693 -20.0333 -19.9820 -19.9244
   -19.8741 -19.7298 -19.6273 -19.5324 -19.4957 -19.4425 -19.4110 -19.3014
   -19.1515 -19.0400 -18.9803  -9.3724  -9.0379  -9.0099  -8.9108  -8.8201
    -8.5298  -8.2628  -8.2443  -8.0425  -8.0172  -7.9207  -7.8351  -7.6739
[...]
    -7.0745  -6.9997  -6.9588  -6.6848  -6.5640  -6.5113  -6.4234  -6.3526
    -6.2978  -6.1452  -6.0492  -6.0380  -5.8960  -5.8260  -5.7028  -5.6484
    -5.5734  -5.3915  -5.3104  -5.2311  -5.1458  -5.0316  -4.9642  -4.9185
    -4.8733  -4.8588  -4.8004  -4.7618  -4.7082  -4.6737  -4.4801  -4.3488
    -4.2916  -4.2549  -4.1666  -4.0588  -3.8652  -3.8232  -3.6929  -3.6214
    -3.5634  -3.4996  -3.4415  -3.3640   0.0365   0.1423   0.2709   0.3608
     0.4543   0.6126   0.8839   0.9448   0.9877   1.0203   1.0853   1.1788
     1.2641   1.2954   1.3129   1.3434   1.4228   1.4381   1.5365   1.5764
     1.6141   1.6664   1.7781   1.9004   1.9483   1.9711   2.0479   2.0592
     2.3193   2.4684   2.6193   2.7627   2.8592   2.8756   2.9212   3.1325
     3.1633   3.2596   3.5717   3.6106   4.3477   4.3713   4.7625   4.9079
     5.0151   5.1488   5.4888   5.6550   6.0442   6.2236   6.6723   6.9091
     7.1513   7.3792   7.5654   7.7307   8.1451   8.1656   8.2575   8.2875
     8.4247   8.5422   8.6639   8.7964   8.8090   8.8254   8.8502   8.9592
     8.9876   9.0908   9.2776   9.3557   9.4138   9.5530   9.6123   9.8353
     9.8582  10.0393  10.1385  10.2586  10.3177  10.3786  10.4266  10.5409
    10.6521  10.7638  10.9475  10.9543  11.1728  11.2322  11.2402  11.3702
    11.4171  11.5476  11.7349  11.8063  11.8917  11.9352  12.0630  12.2471
    12.2894  12.4033  12.5786  12.7292  12.7448  12.8309  12.8933  12.9546
    12.9774  13.1089  13.1649  13.3272  13.4090  13.4484  13.4965  13.6070
    13.7684  13.7958  13.8383  13.8775  14.0058  14.0725  14.1149  14.1857
    14.3447  14.3821  14.4588  14.4911  14.7424  14.7691  14.8424  14.8877
    14.9147  14.9881  15.0113  15.0565  15.1025  15.1430  15.2091  15.2752
    15.3796  15.6740  15.7261  15.8109  15.8288  15.8875  15.9791  16.1011
    16.1747  16.2987  16.4085  16.5587  16.6182  16.7290  16.7703  16.8099
    16.8827  17.0624  17.1006  17.1426  17.2068  17.3226  17.4072  17.4444
    17.4674  17.5082  17.6153  17.6266  17.6553  17.7233  17.7637  17.7785
    17.8218  17.9199  17.9494  18.0360  18.0511  18.0754  18.2263  18.2695
    18.3136  18.5658  18.5979  18.6732  18.7011  18.7232  18.8015  18.8934
    19.0404  19.0892  19.1436  19.1857  19.2259  19.2553  19.3060  19.3117
    19.4428  19.5590  19.6599  19.7246  19.7542  19.9902  20.0114  20.0141
    20.0887  20.1678  20.3441  20.3511  20.3910  20.4565  20.5445  20.5962
    20.6065  20.6503  20.6691  20.6843  20.7836  20.8072  20.8175  20.9707
    21.0084  21.0592  21.1411  21.2201  21.2605

          k =-0.5000 0.2341 0.0000 ( 27132 PWs)   bands (ev):

   -74.1229 -73.8806 -72.6946 -72.6647 -72.6415 -72.6114 -72.5403 -72.5242
   -46.1802 -45.6597 -45.1911 -45.1462 -45.0793 -44.8945 -44.3465 -44.2504
   -44.2368 -44.1849 -44.1709 -44.1561 -44.1278 -44.0637 -43.9888 -43.9423
   -43.9367 -43.9259 -43.8073 -43.7681 -43.7593 -43.7404 -43.6144 -43.5986
   -21.0784 -20.9485 -20.6831 -20.6432 -20.5034 -20.4300 -20.4202 -20.1185
   -20.0518 -20.0204 -19.9807 -19.9270 -19.8399 -19.8249 -19.7224 -19.6699
   -19.5201 -19.4748 -19.3844  -8.6213  -8.4866  -7.9181  -7.8878  -7.8672
    -7.7992  -7.6615  -7.5997  -7.4355  -7.3697  -7.3014  -7.2322  -7.1590
    -7.0018  -6.9819  -6.9257  -6.6772  -6.6088  -6.5562  -6.4677  -6.3785
    -6.3122  -6.2077  -6.1246  -6.0157  -6.0125  -5.9133  -5.8277  -5.7131
    -5.5267  -5.4788  -5.3739  -5.3502  -5.3341  -5.2619  -5.2094  -5.1798
    -5.0948  -5.0301  -4.9791  -4.8345  -4.7741  -4.6397  -4.4542  -4.3568
    -4.2691  -4.1212  -4.0701  -3.9404  -3.8941  -3.8389  -3.7458  -3.6397
    -3.5764  -3.5361  -3.3742  -3.2764   0.0803   0.1572   0.2893   0.3764
     0.5456   0.6537   0.7925   0.9244   0.9786   0.9957   1.0937   1.2062
     1.2897   1.3237   1.3741   1.4394   1.4815   1.5198   1.5299   1.6100
     1.7219   1.7876   1.8470   1.8788   1.9254   1.9774   2.0406   2.0989
     2.2984   2.4859   2.6542   2.6914   2.7195   2.7331   2.8583   2.9632
     3.0971   3.3969   3.6516   3.6932   4.5660   4.5907   4.9704   5.1494
     5.2428   5.3865   5.6968   5.8695   6.1454   6.2720   6.4402   6.6262
     6.7980   7.0749   7.1019   7.2322   7.2476   7.4065   7.5882   7.7447
     7.7657   7.9061   8.2274   8.3877   8.5537   8.6450   8.7329   8.9886
     9.0833   9.2992   9.3800   9.5548   9.5892   9.7428   9.9379  10.3186
    10.3677  10.4956  10.5305  10.6491  10.7377  10.8014  10.9085  10.9677
    10.9958  11.0363  11.2718  11.2770  11.5433  11.5666  11.6090  11.7060
    11.7461  11.9271  11.9664  12.0394  12.2010  12.3431  12.3973  12.4870
    12.5348  12.6309  12.7775  12.8151  12.8727  12.9428  13.0762  13.1356
    13.2652  13.3234  13.4697  13.4792  13.5777  13.6497  13.7040  13.7432
    13.8961  13.9791  14.0705  14.1203  14.1572  14.2421  14.3578  14.4164
    14.4778  14.5067  14.5567  14.5926  14.6252  14.7139  14.7790  14.8661
    14.8961  14.9178  14.9744  15.1296  15.1988  15.2617  15.4143  15.4582
    15.5492  15.6294  15.7109  15.7692  15.8203  15.8746  15.9137  15.9641
    16.0181  16.0561  16.1078  16.1463  16.2068  16.2356  16.2616  16.3663
    16.3985  16.5124  16.6164  16.6749  16.7015  16.7508  16.7913  16.8432
    16.8909  16.9507  17.0477  17.1902  17.2222  17.2838  17.3259  17.3759
    17.4296  17.4681  17.5585  17.5677  17.6829  17.7285  17.8602  17.9095
    17.9360  17.9937  18.0434  18.0803  18.3094  18.3985  18.4217  18.4722
    18.5309  18.6104  18.6581  18.9066  18.9480  18.9923  19.1546  19.2076
    19.3056  19.4203  19.4705  19.5704  19.6230  19.7129  19.7741  19.8759
    19.8923  19.9562  19.9679  20.0263  20.0387  20.1078  20.1303  20.1708
    20.2286  20.2780  20.3860  20.4248  20.5321  20.7080  20.7673  20.9111
    20.9638  21.0029  21.0345  21.1769  21.2383

          k =-0.5000-0.4682 0.0000 ( 27168 PWs)   bands (ev):

   -74.1229 -73.8806 -72.6946 -72.6647 -72.6415 -72.6114 -72.5403 -72.5242
   -46.1802 -45.6598 -45.1914 -45.1462 -45.0785 -44.8950 -44.3463 -44.2504
   -44.2368 -44.1849 -44.1629 -44.1490 -44.1402 -44.0676 -43.9889 -43.9423
   -43.9373 -43.9259 -43.8070 -43.7680 -43.7588 -43.7400 -43.6144 -43.5986
   -20.9984 -20.8697 -20.6360 -20.5509 -20.5213 -20.3944 -20.3659 -20.3154
   -20.1605 -20.0334 -19.9795 -19.9448 -19.9200 -19.9059 -19.7251 -19.6430
   -19.5101 -19.4662 -19.3763  -8.5979  -8.4583  -7.8410  -7.7414  -7.5541
    -7.4327  -7.3826  -7.2793  -7.2595  -7.2123  -7.1097  -7.0297  -7.0044
    -6.9797  -6.8914  -6.8606  -6.8304  -6.6810  -6.6681  -6.6185  -6.5258
    -6.5089  -6.3960  -6.3375  -6.2147  -6.0628  -5.9280  -5.9108  -5.8414
    -5.7766  -5.7497  -5.5914  -5.5704  -5.5024  -5.3384  -5.2809  -5.2771
    -5.1910  -5.0997  -5.0048  -4.9116  -4.8258  -4.6497  -4.4942  -4.4122
    -4.0874  -4.0576  -4.0083  -3.9762  -3.8443  -3.7840  -3.7142  -3.6892
    -3.6627  -3.5338  -3.2869  -3.2336   0.1491   0.2196   0.3227   0.3582
     0.4993   0.7381   0.7397   0.9305   0.9371   1.0603   1.0924   1.1366
     1.2494   1.3494   1.3944   1.5116   1.5403   1.6402   1.6799   1.8040
     1.8512   1.8698   1.8986   1.9192   1.9920   1.9967   2.0251   2.0970
     2.1167   2.1980   2.2437   2.5585   2.7502   2.7818   2.9067   2.9870
     3.2639   3.5810   3.5972   3.6054   5.0051   5.0405   5.3961   5.4787
     5.4864   5.8312   5.8636   5.8987   5.9394   6.0671   6.0923   6.1697
     6.3777   6.5615   6.5984   6.7092   6.9413   7.1566   7.2452   7.3816
     7.6525   7.9206   8.0439   8.2054   8.2955   8.4565   8.6299   8.7863
     9.0734   9.2123   9.2303   9.3811   9.4658   9.6888   9.8599   9.9883
    10.1329  10.3915  10.7589  10.9492  10.9981  11.1243  11.1966  11.2273
    11.2881  11.3884  11.8154  11.8298  12.1473  12.2375  12.3246  12.4149
    12.4525  12.5636  12.5765  12.7563  12.8496  12.9453  13.0281  13.1240
    13.1723  13.2054  13.3180  13.4200  13.4375  13.5040  13.5456  13.5941
    13.6232  13.7092  13.7310  13.7518  13.7756  13.8109  13.9484  13.9893
    14.0240  14.0510  14.0619  14.1160  14.2200  14.2850  14.3593  14.4090
    14.4231  14.4451  14.5368  14.6455  14.7066  14.7502  14.7649  14.8061
    14.8097  14.8175  14.8659  14.8992  14.9322  15.0812  15.0876  15.1191
    15.1725  15.2350  15.2521  15.3041  15.3400  15.3460  15.4296  15.4757
    15.5231  15.6037  15.6593  15.6973  15.7388  15.8067  15.8146  15.8726
    15.8949  16.0402  16.0783  16.1013  16.2191  16.3217  16.3964  16.5361
    16.5941  16.6598  16.6919  16.7581  16.8463  16.8726  16.9548  16.9982
    17.0290  17.0698  17.1732  17.1864  17.2448  17.2789  17.4108  17.4484
    17.7125  17.7566  17.8265  17.9272  17.9679  17.9746  18.0129  18.0880
    18.1268  18.2154  18.4270  18.6343  18.6684  18.6971  18.8188  18.8835
    18.9408  18.9742  19.0697  19.0881  19.2612  19.2668  19.3665  19.4168
    19.8277  19.9896  20.0738  20.0807  20.2414  20.2956  20.3028  20.3938
    20.4149  20.6473  20.7840  20.9688  21.0471  21.1328  21.1634  21.2927
    21.4380  21.5279  21.5684  21.5958  21.6696

          k =-0.2500 0.2341 0.0000 ( 27132 PWs)   bands (ev):

   -74.1228 -73.8804 -72.6950 -72.6646 -72.6407 -72.6113 -72.5417 -72.5222
   -46.1801 -45.6618 -45.1929 -45.1464 -45.0795 -44.8946 -44.3464 -44.2509
   -44.2370 -44.1846 -44.1751 -44.1532 -44.1284 -44.0637 -43.9887 -43.9487
   -43.9366 -43.9194 -43.8174 -43.8054 -43.7654 -43.6810 -43.6735 -43.5395
   -21.3075 -20.9034 -20.7186 -20.6793 -20.5412 -20.3195 -20.2247 -20.1747
   -20.1096 -19.9994 -19.9798 -19.8539 -19.8163 -19.7967 -19.7374 -19.6644
   -19.5248 -19.4609 -19.3803  -8.7286  -8.5200  -8.2401  -8.0929  -7.9908
    -7.7224  -7.6211  -7.5385  -7.4646  -7.3714  -7.2510  -7.1643  -7.1283
    -7.0135  -6.9401  -6.9079  -6.7720  -6.7063  -6.5495  -6.4962  -6.4385
    -6.3911  -6.2644  -6.0695  -6.0083  -5.9659  -5.7953  -5.7326  -5.6724
    -5.6013  -5.5040  -5.4727  -5.3698  -5.3672  -5.2400  -5.1676  -5.1066
    -5.0086  -4.8680  -4.7612  -4.6367  -4.5944  -4.4494  -4.3945  -4.3151
    -4.2054  -4.1179  -4.0766  -4.0467  -3.9820  -3.8884  -3.7554  -3.7212
    -3.6125  -3.4835  -3.3717  -3.1948   0.0470   0.1560   0.2509   0.3570
     0.4847   0.6200   0.7697   0.8606   0.9692   1.0379   1.1065   1.1347
     1.2060   1.2539   1.3420   1.3899   1.4402   1.5374   1.5799   1.6560
     1.7407   1.7735   1.8312   1.8810   1.9487   1.9920   2.0340   2.1254
     2.3626   2.4440   2.5863   2.7814   2.8177   2.8714   3.0314   3.1494
     3.1976   3.3828   3.6392   3.7258   3.8272   4.2677   4.4617   4.9516
     5.4372   5.6752   5.7556   6.0854   6.2870   6.4521   6.5211   6.6809
     6.7996   6.9541   7.0458   7.3474   7.4906   7.7919   7.8778   7.9997
     8.3059   8.3499   8.4300   8.5762   8.7222   8.8406   8.9803   9.0743
     9.2371   9.2703   9.4266   9.5608   9.7127   9.7984   9.9244  10.1242
    10.1615  10.2229  10.3148  10.4281  10.4953  10.6497  10.7366  10.8412
    10.9028  11.0097  11.1924  11.2114  11.2937  11.3657  11.5326  11.6099
    11.6589  11.7556  11.8302  11.9029  12.0198  12.0747  12.1827  12.2633
    12.3551  12.4247  12.5204  12.6395  12.7206  12.7942  12.8290  12.9127
    12.9447  12.9938  13.0769  13.1269  13.2122  13.2927  13.3222  13.4090
    13.4728  13.5589  13.6718  13.7493  13.8275  13.9077  13.9678  14.0583
    14.1215  14.2334  14.3161  14.4044  14.4487  14.4983  14.6074  14.6740
    14.7450  14.8112  14.9163  14.9700  15.0226  15.1364  15.2135  15.3261
    15.3780  15.4725  15.5212  15.6356  15.7549  15.8245  15.9538  16.0249
    16.0740  16.1436  16.2016  16.2563  16.3639  16.4238  16.4840  16.5149
    16.6133  16.7438  16.7994  16.8396  16.9158  17.0354  17.0624  17.1030
    17.1821  17.2218  17.3634  17.4400  17.4794  17.5168  17.6049  17.6836
    17.7018  17.7558  17.7989  17.9008  17.9593  18.0249  18.1281  18.2369
    18.2676  18.3147  18.3969  18.4233  18.5801  18.6898  18.7615  18.8102
    18.8680  18.9343  18.9915  19.0273  19.0635  19.2355  19.3342  19.3794
    19.4342  19.5001  19.5926  19.6548  19.6946  19.7697  19.8173  19.8835
    19.9668  20.0396  20.1053  20.1782  20.3014  20.3768  20.4543  20.5262
    20.6268  20.6884  20.7591  20.8368  20.9220  21.0187  21.0901  21.1438
    21.2241  21.2539  21.3364  21.4061  21.4935

     the spin up/dw Fermi energies are    -2.0621   -2.3914 ev

!    total energy              =   -2024.00589700 Ry
     Harris-Foulkes estimate   =   -2024.00589700 Ry
     estimated scf accuracy    <          5.8E-09 Ry

     The total energy is the sum of the following terms:

     one-electron contribution =  -23734.18272494 Ry
     hartree contribution      =   11884.67839888 Ry
     xc contribution           =    -321.93932909 Ry
     ewald contribution        =   10145.70645336 Ry
     Hubbard energy            =       1.73176688 Ry
     smearing contrib. (-TS)   =      -0.00046209 Ry

     total magnetization       =    14.00 Bohr mag/cell
     absolute magnetization    =    23.24 Bohr mag/cell

     convergence has been achieved in  21 iterations

     Forces acting on atoms (Ry/au):


     negative rho (up, down):  0.511E-02 0.183E-02
     atom    1 type  1   force =    -0.00331786   -0.01077934    0.00004998
     atom    2 type  1   force =    -0.00100770    0.00547115    0.00004191
     atom    3 type  2   force =     0.04983549    0.00000452   -0.00041164
     atom    4 type  2   force =     0.00029216    0.00702353   -0.00026142
     atom    5 type  1   force =    -0.00309373    0.00757666   -0.00007076
     atom    6 type  1   force =    -0.00067590   -0.00583828   -0.00010769
     atom    7 type  1   force =     0.00256517   -0.00212143   -0.00010536
     atom    8 type  1   force =    -0.01682978   -0.00092096    0.00050770
     atom    9 type  2   force =     0.01949722    0.00101777   -0.00055370
     atom   10 type  2   force =     0.00092937    0.00001554    0.00021446
     atom   11 type  1   force =    -0.00160369   -0.05635134    0.00011782
     atom   12 type  1   force =    -0.00057428    0.05556681    0.00007235
     atom   13 type  1   force =    -0.03673905    0.00021230   -0.00098285
     atom   14 type  1   force =    -0.00729227   -0.01183409    0.00010566
     atom   15 type  1   force =     0.00026573    0.00574685    0.00010667
     atom   16 type  2   force =    -0.05448130    0.00029102   -0.00038181
     atom   17 type  2   force =     0.00869936    0.00664311   -0.00000157
     atom   18 type  1   force =     0.00285323    0.00785538   -0.00000291
     atom   19 type  1   force =     0.00570762   -0.00638472    0.00002106
     atom   20 type  1   force =     0.00193959   -0.00260502    0.00025472
     atom   21 type  1   force =     0.01319210    0.00026238    0.00071159
     atom   22 type  2   force =     0.01629235   -0.00026725   -0.00060172
     atom   23 type  2   force =    -0.00145209    0.00020757    0.00054431
     atom   24 type  1   force =    -0.00864697   -0.05985591    0.00026303
     atom   25 type  1   force =    -0.00755321    0.06010585    0.00027745
     atom   26 type  1   force =     0.02083805   -0.00023551   -0.00058561
     atom   27 type  3   force =    -0.00004079   -0.00023672   -0.00010231
     atom   28 type  3   force =    -0.00000155   -0.00024599   -0.00004743
     atom   29 type  3   force =    -0.00003033   -0.00018907    0.00022407
     atom   30 type  3   force =    -0.00000746   -0.00014550    0.00029629
     atom   31 type  1   force =     0.00044052    0.00001068    0.00040771

     Total force =     0.002107     Total SCF correction =     0.000158

     bfgs converged in  14 scf cycles and  13 bfgs steps
     (criteria: energy < 0.10E-03, force < 0.10E-02)

     End of BFGS Geometry Optimization

     Final energy   =   -2024.0058969963 Ry
Begin final coordinates

ATOMIC_POSITIONS (crystal)
O0       0.000000000   0.000000000   0.376188863    0   0   1
O0       0.000000000   0.500000000   0.397720152    0   0   1
Cr1      0.250000000   0.500000000   0.449574849    0   0   1
Cr1      0.000000000   0.000000000   0.448176633    0   0   1
O0       0.250000000   0.800000000   0.448672983    0   0   1
O0       0.250000000   0.200000000   0.448768155    0   0   1
O0       0.000000000   0.500000000   0.497099802    0   0   1
O0       0.000000000   0.000000000   0.523130361    0   0   1
Cr1      0.250000000   0.000000000   0.568999986    0   0   1
Cr1      0.000000000   0.500000000   0.565122775    0   0   1
O0       0.250000000   0.700000000   0.574941476    0   0   1
O0       0.250000000   0.300000000   0.574942587    0   0   1
O0       0.000000000   0.000000000   0.618524170    0   0   1
O0       0.500000000   0.000000000   0.376188137    0   0   1
O0       0.500000000   0.500000000   0.397624933    0   0   1
Cr1      0.750000000   0.500000000   0.449754523    0   0   1
Cr1      0.500000000   0.000000000   0.448434502    0   0   1
O0       0.750000000   0.800000000   0.448657278    0   0   1
O0       0.750000000   0.200000000   0.448720092    0   0   1
O0       0.500000000   0.500000000   0.496876716    0   0   1
O0       0.500000000   0.000000000   0.523249226    0   0   1
Cr1      0.750000000   0.000000000   0.582583630    0   0   1
Cr1      0.500000000   0.500000000   0.589475235    0   0   1
O0       0.750000000   0.700000000   0.576799692    0   0   1
O0       0.750000000   0.300000000   0.576815380    0   0   1
O0       0.500000000   0.000000000   0.618468269    0   0   1
H2      -0.000924060   0.635802228   0.377883081
H2       0.499630460   0.638697265   0.378836876
H2       0.158203816   0.029521617   0.363522712
H2       0.657065669   0.031424262   0.363302786
O0       0.494032125   0.499854327   0.649774141
End final coordinates



     init_run     :    114.15s CPU    117.76s WALL (       1 calls)
     electrons    :  80811.51s CPU  84013.86s WALL (      14 calls)
     update_pot   :    230.63s CPU    239.92s WALL (      13 calls)
     forces       :   2745.44s CPU   2848.74s WALL (      14 calls)

     Called by init_run:
     wfcinit      :     49.54s CPU     51.84s WALL (       1 calls)
     potinit      :      7.55s CPU      7.83s WALL (       1 calls)

     Called by electrons:
     c_bands      :  44295.41s CPU  46074.45s WALL (     361 calls)
     sum_band     :  18411.98s CPU  19138.70s WALL (     361 calls)
     v_of_rho     :    791.77s CPU    919.35s WALL (     374 calls)
     newd         :  17435.29s CPU  17501.04s WALL (     374 calls)
     mix_rho      :    134.79s CPU    138.94s WALL (     361 calls)

     Called by c_bands:
     init_us_2    :     98.98s CPU     99.85s WALL (    3825 calls)
     cegterg      :  43015.62s CPU  44066.16s WALL (    1805 calls)

     Called by *egterg:
     h_psi        :  24739.68s CPU  25344.28s WALL (    4652 calls)
     s_psi        :   2681.83s CPU   2717.02s WALL (    4792 calls)
     g_psi        :     58.48s CPU     58.52s WALL (    2842 calls)
     cdiaghg      :   3790.30s CPU   3800.85s WALL (    4577 calls)

     Called by h_psi:
     add_vuspsi   :   2627.39s CPU   2664.80s WALL (    4652 calls)
     vhpsi        :   2725.37s CPU   2778.06s WALL (    4652 calls)

     General routines
     calbec       :   6114.98s CPU   6201.50s WALL (   32724 calls)
     fft          :    803.45s CPU    963.35s WALL (   11728 calls)
     ffts         :     10.04s CPU     10.65s WALL (    1470 calls)
     fftw         :  13871.81s CPU  14519.29s WALL ( 3121831 calls)
     interpolate  :    100.76s CPU    102.32s WALL (    1470 calls)
     davcio       :      0.25s CPU     62.87s WALL (    3895 calls)

     Parallel routines
     fft_scatter  :   5101.16s CPU   5883.27s WALL ( 3135029 calls)
     Hubbard U routines
     new_ns       :    561.03s CPU    596.54s WALL (     361 calls)
     vhpsi        :   2725.37s CPU   2778.06s WALL (    4652 calls)
     force_hub    :    681.92s CPU    695.65s WALL (      14 calls)

     PWSCF        :     0d   23h29m CPU        1d    0h25m WALL


   This run was terminated on:  22: 0:18   5May2014            

=------------------------------------------------------------------------------=
   JOB DONE.
=------------------------------------------------------------------------------=
