
     Program PWSCF v.5.0.2 (svn rev. 9656) starts on  8Feb2014 at 18:20:10 

     This program is part of the open-source Quantum ESPRESSO suite
     for quantum simulation of materials; please cite
         "P. Giannozzi et al., J. Phys.:Condens. Matter 21 395502 (2009);
          URL http://www.quantum-espresso.org", 
     in publications or presentations arising from this work. More details at
     http://www.quantum-espresso.org/quote.php

     Parallel version (MPI), running on    16 processors
     R & G space division:  proc/nbgrp/npool/nimage =      16

     Current dimensions of program PWSCF are:
     Max number of different atomic species (ntypx) = 10
     Max number of k-points (npk) =  40000
     Max angular momentum in pseudopotentials (lmaxx) =  3
     Reading input from TiO2-2-pert.in
Warning: card &IONS ignored
Warning: card / ignored
Warning: card &CELL ignored
Warning: card / ignored

     Subspace diagonalization in iterative solution of the eigenvalue problem:
     a serial algorithm will be used


     Parallelization info
     --------------------
     sticks:   dense  smooth     PW     G-vecs:    dense   smooth      PW
     Min         768     246     68                40906     7394    1102
     Max         769     247     70                40909     7410    1103
     Sum       12289    3937   1101               654519   118453   17643



     bravais-lattice index     =            0
     lattice parameter (alat)  =      17.5745  a.u.
     unit-cell volume          =    3466.9609 (a.u.)^3
     number of atoms/cell      =           48
     number of atomic types    =            3
     number of electrons       =       384.00
     number of Kohn-Sham states=          552
     kinetic-energy cutoff     =      40.0000  Ry
     charge density cutoff     =     500.0000  Ry
     convergence threshold     =      1.0E-06
     mixing beta               =       0.7000
     number of iterations used =            8  plain     mixing
     Exchange-correlation      = SLA  PW   PBE  PBE ( 1 4 3 4 0)
     EXX-fraction              =        0.00

     celldm(1)=  17.574453  celldm(2)=   0.000000  celldm(3)=   0.000000
     celldm(4)=   0.000000  celldm(5)=   0.000000  celldm(6)=   0.000000

     crystal axes: (cart. coord. in units of alat)
               a(1) = (   1.000000   0.000000   0.000000 )  
               a(2) = (   0.000000   1.000000   0.000000 )  
               a(3) = (   0.000000   0.000000   0.638710 )  

     reciprocal axes: (cart. coord. in units 2 pi/alat)
               b(1) = (  1.000000  0.000000  0.000000 )  
               b(2) = (  0.000000  1.000000  0.000000 )  
               b(3) = (  0.000000  0.000000  1.565657 )  


     PseudoPot. # 1 for Ti read from file:
     /home/camp/zhonxu/pseudo/ti_pbe_v1.uspp.F.UPF
     MD5 check sum: bcc8f6961b3b91f0cac3ca967d22d0fb
     Pseudo is Ultrasoft + core correction, Zval = 12.0
     Generated by new atomic code, or converted to UPF format
     Using radial grid of  851 points,  6 beta functions with: 
                l(1) =   0
                l(2) =   0
                l(3) =   1
                l(4) =   1
                l(5) =   2
                l(6) =   2
     Q(r) pseudized with  6 coefficients,  rinner =    1.000   1.000   1.000
                                                       1.000   1.000

     PseudoPot. # 2 for O  read from file:
     /home/camp/zhonxu/pseudo/o_pbe_v1.01.uspp.F.UPF
     MD5 check sum: 2bcb18d16ea4b960afae9ec6d52f22d2
     Pseudo is Ultrasoft + core correction, Zval =  6.0
     Generated by new atomic code, or converted to UPF format
     Using radial grid of  737 points,  5 beta functions with: 
                l(1) =   0
                l(2) =   0
                l(3) =   1
                l(4) =   1
                l(5) =   2
     Q(r) pseudized with  8 coefficients,  rinner =    0.900   0.900   0.900
                                                       0.900   0.900

     PseudoPot. # 3 for O  read from file:
     /home/camp/zhonxu/pseudo/o_pbe_v1.01.uspp.F.UPF
     MD5 check sum: 2bcb18d16ea4b960afae9ec6d52f22d2
     Pseudo is Ultrasoft + core correction, Zval =  6.0
     Generated by new atomic code, or converted to UPF format
     Using radial grid of  737 points,  5 beta functions with: 
                l(1) =   0
                l(2) =   0
                l(3) =   1
                l(4) =   1
                l(5) =   2
     Q(r) pseudized with  8 coefficients,  rinner =    0.900   0.900   0.900
                                                       0.900   0.900

     atomic species   valence    mass     pseudopotential
        Ti0           12.00    47.88000     Ti( 1.00)
        O1             6.00    15.99940     O ( 1.00)
        O2             6.00    15.99940     O ( 1.00)

     Starting magnetic structure 
     atomic species   magnetization
        Ti0          0.000
        O1           0.000
        O2           0.000


     Simplified LDA+U calculation (l_max = 2) with parameters (eV):
     atomic species    L          U    alpha       J0     beta
        Ti0            2     0.0000   0.0000   0.0000   0.0000
        O1             1     0.0000   0.0000   0.0000   0.0000
        O2             1     0.0000   0.0000   0.0000   0.0000



      4 Sym. Ops. (no inversion) found



   Cartesian axes

     site n.     atom                  positions (alat units)
         1           Ti0 tau(   1) = (  -0.1550000  -0.1550000   0.0000000  )
         2           Ti0 tau(   2) = (   0.0950000   0.0950000   0.1596774  )
         3           Ti0 tau(   3) = (  -0.1550000  -0.1550000   0.3193548  )
         4           Ti0 tau(   4) = (   0.0950000   0.0950000   0.4790323  )
         5           Ti0 tau(   5) = (  -0.1550000   0.3450000   0.0000000  )
         6           Ti0 tau(   6) = (   0.0950000   0.5950000   0.1596774  )
         7           Ti0 tau(   7) = (  -0.1550000   0.3450000   0.3193548  )
         8           Ti0 tau(   8) = (   0.0950000   0.5950000   0.4790323  )
         9           Ti0 tau(   9) = (   0.3450000  -0.1550000   0.0000000  )
        10           Ti0 tau(  10) = (   0.5950000   0.0950000   0.1596774  )
        11           Ti0 tau(  11) = (   0.3450000  -0.1550000   0.3193548  )
        12           Ti0 tau(  12) = (   0.5950000   0.0950000   0.4790323  )
        13           Ti0 tau(  13) = (   0.3450000   0.3450000   0.0000000  )
        14           Ti0 tau(  14) = (   0.5950000   0.5950000   0.1596774  )
        15           Ti0 tau(  15) = (   0.3450000   0.3450000   0.3193548  )
        16           Ti0 tau(  16) = (   0.5950000   0.5950000   0.4790323  )
        17           O1  tau(  17) = (   0.0000000   0.0000000   0.0000000  )
        18           O2  tau(  18) = (  -0.3100000  -0.3100000   0.0000000  )
        19           O2  tau(  19) = (   0.2500000  -0.0600000   0.1596774  )
        20           O2  tau(  20) = (  -0.0600000   0.2500000   0.1596774  )
        21           O2  tau(  21) = (   0.0000000   0.0000000   0.3193548  )
        22           O2  tau(  22) = (  -0.3100000  -0.3100000   0.3193548  )
        23           O2  tau(  23) = (   0.2500000  -0.0600000   0.4790323  )
        24           O2  tau(  24) = (  -0.0600000   0.2500000   0.4790323  )
        25           O2  tau(  25) = (   0.0000000   0.5000000   0.0000000  )
        26           O2  tau(  26) = (  -0.3100000   0.1900000   0.0000000  )
        27           O2  tau(  27) = (   0.2500000   0.4400000   0.1596774  )
        28           O2  tau(  28) = (  -0.0600000   0.7500000   0.1596774  )
        29           O2  tau(  29) = (   0.0000000   0.5000000   0.3193548  )
        30           O2  tau(  30) = (  -0.3100000   0.1900000   0.3193548  )
        31           O2  tau(  31) = (   0.2500000   0.4400000   0.4790323  )
        32           O2  tau(  32) = (  -0.0600000   0.7500000   0.4790323  )
        33           O2  tau(  33) = (   0.5000000   0.0000000   0.0000000  )
        34           O2  tau(  34) = (   0.1900000  -0.3100000   0.0000000  )
        35           O2  tau(  35) = (   0.7500000  -0.0600000   0.1596774  )
        36           O2  tau(  36) = (   0.4400000   0.2500000   0.1596774  )
        37           O2  tau(  37) = (   0.5000000   0.0000000   0.3193548  )
        38           O2  tau(  38) = (   0.1900000  -0.3100000   0.3193548  )
        39           O2  tau(  39) = (   0.7500000  -0.0600000   0.4790323  )
        40           O2  tau(  40) = (   0.4400000   0.2500000   0.4790323  )
        41           O2  tau(  41) = (   0.5000000   0.5000000   0.0000000  )
        42           O2  tau(  42) = (   0.1900000   0.1900000   0.0000000  )
        43           O2  tau(  43) = (   0.7500000   0.4400000   0.1596774  )
        44           O2  tau(  44) = (   0.4400000   0.7500000   0.1596774  )
        45           O2  tau(  45) = (   0.5000000   0.5000000   0.3193548  )
        46           O2  tau(  46) = (   0.1900000   0.1900000   0.3193548  )
        47           O2  tau(  47) = (   0.7500000   0.4400000   0.4790323  )
        48           O2  tau(  48) = (   0.4400000   0.7500000   0.4790323  )

     number of k points=    42  Methfessel-Paxton smearing, width (Ry)=  0.0100
                       cart. coord. in units 2pi/alat
        k(    1) = (   0.0000000   0.0000000   0.0000000), wk =   0.0156250
        k(    2) = (   0.0000000   0.0000000   0.3914141), wk =   0.0312500
        k(    3) = (   0.0000000   0.0000000  -0.7828283), wk =   0.0156250
        k(    4) = (   0.0000000   0.2500000   0.0000000), wk =   0.0625000
        k(    5) = (   0.0000000   0.2500000   0.3914141), wk =   0.1250000
        k(    6) = (   0.0000000   0.2500000  -0.7828283), wk =   0.0625000
        k(    7) = (   0.0000000  -0.5000000   0.0000000), wk =   0.0312500
        k(    8) = (   0.0000000  -0.5000000   0.3914141), wk =   0.0625000
        k(    9) = (   0.0000000  -0.5000000  -0.7828283), wk =   0.0312500
        k(   10) = (   0.2500000   0.2500000   0.0000000), wk =   0.0312500
        k(   11) = (   0.2500000   0.2500000   0.3914141), wk =   0.0625000
        k(   12) = (   0.2500000   0.2500000  -0.7828283), wk =   0.0312500
        k(   13) = (   0.2500000  -0.5000000   0.0000000), wk =   0.0625000
        k(   14) = (   0.2500000  -0.5000000   0.3914141), wk =   0.1250000
        k(   15) = (   0.2500000  -0.5000000  -0.7828283), wk =   0.0625000
        k(   16) = (  -0.5000000  -0.5000000   0.0000000), wk =   0.0156250
        k(   17) = (  -0.5000000  -0.5000000   0.3914141), wk =   0.0312500
        k(   18) = (  -0.5000000  -0.5000000  -0.7828283), wk =   0.0156250
        k(   19) = (   0.2500000  -0.2500000   0.0000000), wk =   0.0312500
        k(   20) = (   0.2500000  -0.2500000   0.3914141), wk =   0.0625000
        k(   21) = (   0.2500000  -0.2500000  -0.7828283), wk =   0.0312500
        k(   22) = (   0.0000000   0.0000000   0.0000000), wk =   0.0156250
        k(   23) = (   0.0000000   0.0000000   0.3914141), wk =   0.0312500
        k(   24) = (   0.0000000   0.0000000  -0.7828283), wk =   0.0156250
        k(   25) = (   0.0000000   0.2500000   0.0000000), wk =   0.0625000
        k(   26) = (   0.0000000   0.2500000   0.3914141), wk =   0.1250000
        k(   27) = (   0.0000000   0.2500000  -0.7828283), wk =   0.0625000
        k(   28) = (   0.0000000  -0.5000000   0.0000000), wk =   0.0312500
        k(   29) = (   0.0000000  -0.5000000   0.3914141), wk =   0.0625000
        k(   30) = (   0.0000000  -0.5000000  -0.7828283), wk =   0.0312500
        k(   31) = (   0.2500000   0.2500000   0.0000000), wk =   0.0312500
        k(   32) = (   0.2500000   0.2500000   0.3914141), wk =   0.0625000
        k(   33) = (   0.2500000   0.2500000  -0.7828283), wk =   0.0312500
        k(   34) = (   0.2500000  -0.5000000   0.0000000), wk =   0.0625000
        k(   35) = (   0.2500000  -0.5000000   0.3914141), wk =   0.1250000
        k(   36) = (   0.2500000  -0.5000000  -0.7828283), wk =   0.0625000
        k(   37) = (  -0.5000000  -0.5000000   0.0000000), wk =   0.0156250
        k(   38) = (  -0.5000000  -0.5000000   0.3914141), wk =   0.0312500
        k(   39) = (  -0.5000000  -0.5000000  -0.7828283), wk =   0.0156250
        k(   40) = (   0.2500000  -0.2500000   0.0000000), wk =   0.0312500
        k(   41) = (   0.2500000  -0.2500000   0.3914141), wk =   0.0625000
        k(   42) = (   0.2500000  -0.2500000  -0.7828283), wk =   0.0312500

     Dense  grid:   654519 G-vectors     FFT dimensions: ( 125, 125,  80)

     Smooth grid:   118453 G-vectors     FFT dimensions: (  72,  72,  45)

     Largest allocated arrays     est. size (Mb)     dimensions
        Kohn-Sham Wavefunctions         7.91 Mb     (    939,  552)
        Atomic wavefunctions            4.13 Mb     (    939,  288)
        NL pseudopotentials            10.09 Mb     (    939,  704)
        Each V/rho on FFT grid          2.38 Mb     (  78125,   2)
        Each G-vector array             0.31 Mb     (  40908)
        G-vector shells                 0.11 Mb     (  14623)
     Largest temporary arrays     est. size (Mb)     dimensions
        Auxiliary wavefunctions        31.64 Mb     (    939, 2208)
        Each subspace H/S matrix       74.39 Mb     (2208,2208)
        Each <psi_i|beta_j> matrix      5.93 Mb     (    704,  552)
        Arrays for rho mixing           9.54 Mb     (  78125,   8)

     Check: negative/imaginary core charge=   -0.000014    0.000000

     Initial potential from superposition of free atoms
     Check: negative starting charge=(component1):   -0.099570
     Check: negative starting charge=(component2):   -0.099570

     starting charge  367.99925, renormalised to  384.00000

     negative rho (up, down):  0.104E+00 0.104E+00
     Number of +U iterations with fixed ns =  0
     Starting occupations:
 --- enter write_ns ---
 LDA+U parameters:
U( 1)     =  0.00000000
alpha( 1) =  0.00000000
U( 2)     =  0.00000000
alpha( 2) =  0.00000000
U( 3)     =  0.00000000
alpha( 3) =  0.00000000
atom    1   Tr[ns(na)] (up, down, total) =   1.00000  1.00000  2.00000
   spin  1
    eigenvalues: 
  0.200  0.200  0.200  0.200  0.200
    eigenvectors:
  1.000  0.000  0.000  0.000  0.000
  0.000  1.000  0.000  0.000  0.000
  0.000  0.000  1.000  0.000  0.000
  0.000  0.000  0.000  1.000  0.000
  0.000  0.000  0.000  0.000  1.000
    occupations:
  0.200  0.000  0.000  0.000  0.000
  0.000  0.200  0.000  0.000  0.000
  0.000  0.000  0.200  0.000  0.000
  0.000  0.000  0.000  0.200  0.000
  0.000  0.000  0.000  0.000  0.200
   spin  2
    eigenvalues: 
  0.200  0.200  0.200  0.200  0.200
    eigenvectors:
  1.000  0.000  0.000  0.000  0.000
  0.000  1.000  0.000  0.000  0.000
  0.000  0.000  1.000  0.000  0.000
  0.000  0.000  0.000  1.000  0.000
  0.000  0.000  0.000  0.000  1.000
    occupations:
  0.200  0.000  0.000  0.000  0.000
  0.000  0.200  0.000  0.000  0.000
  0.000  0.000  0.200  0.000  0.000
  0.000  0.000  0.000  0.200  0.000
  0.000  0.000  0.000  0.000  0.200
atomic mag. moment =     0.000000
atom    2   Tr[ns(na)] (up, down, total) =   1.00000  1.00000  2.00000
   spin  1
    eigenvalues: 
  0.200  0.200  0.200  0.200  0.200
    eigenvectors:
  1.000  0.000  0.000  0.000  0.000
  0.000  1.000  0.000  0.000  0.000
  0.000  0.000  1.000  0.000  0.000
  0.000  0.000  0.000  1.000  0.000
  0.000  0.000  0.000  0.000  1.000
    occupations:
  0.200  0.000  0.000  0.000  0.000
  0.000  0.200  0.000  0.000  0.000
  0.000  0.000  0.200  0.000  0.000
  0.000  0.000  0.000  0.200  0.000
  0.000  0.000  0.000  0.000  0.200
   spin  2
    eigenvalues: 
  0.200  0.200  0.200  0.200  0.200
    eigenvectors:
  1.000  0.000  0.000  0.000  0.000
  0.000  1.000  0.000  0.000  0.000
  0.000  0.000  1.000  0.000  0.000
  0.000  0.000  0.000  1.000  0.000
  0.000  0.000  0.000  0.000  1.000
    occupations:
  0.200  0.000  0.000  0.000  0.000
  0.000  0.200  0.000  0.000  0.000
  0.000  0.000  0.200  0.000  0.000
  0.000  0.000  0.000  0.200  0.000
  0.000  0.000  0.000  0.000  0.200
atomic mag. moment =     0.000000
atom    3   Tr[ns(na)] (up, down, total) =   1.00000  1.00000  2.00000
   spin  1
    eigenvalues: 
  0.200  0.200  0.200  0.200  0.200
    eigenvectors:
  1.000  0.000  0.000  0.000  0.000
  0.000  1.000  0.000  0.000  0.000
  0.000  0.000  1.000  0.000  0.000
  0.000  0.000  0.000  1.000  0.000
  0.000  0.000  0.000  0.000  1.000
    occupations:
  0.200  0.000  0.000  0.000  0.000
  0.000  0.200  0.000  0.000  0.000
  0.000  0.000  0.200  0.000  0.000
  0.000  0.000  0.000  0.200  0.000
  0.000  0.000  0.000  0.000  0.200
   spin  2
    eigenvalues: 
  0.200  0.200  0.200  0.200  0.200
    eigenvectors:
  1.000  0.000  0.000  0.000  0.000
  0.000  1.000  0.000  0.000  0.000
  0.000  0.000  1.000  0.000  0.000
  0.000  0.000  0.000  1.000  0.000
  0.000  0.000  0.000  0.000  1.000
    occupations:
  0.200  0.000  0.000  0.000  0.000
  0.000  0.200  0.000  0.000  0.000
  0.000  0.000  0.200  0.000  0.000
  0.000  0.000  0.000  0.200  0.000
  0.000  0.000  0.000  0.000  0.200
atomic mag. moment =     0.000000
atom    4   Tr[ns(na)] (up, down, total) =   1.00000  1.00000  2.00000
   spin  1
    eigenvalues: 
  0.200  0.200  0.200  0.200  0.200
    eigenvectors:
  1.000  0.000  0.000  0.000  0.000
  0.000  1.000  0.000  0.000  0.000
  0.000  0.000  1.000  0.000  0.000
  0.000  0.000  0.000  1.000  0.000
  0.000  0.000  0.000  0.000  1.000
    occupations:
  0.200  0.000  0.000  0.000  0.000
  0.000  0.200  0.000  0.000  0.000
  0.000  0.000  0.200  0.000  0.000
  0.000  0.000  0.000  0.200  0.000
  0.000  0.000  0.000  0.000  0.200
   spin  2
    eigenvalues: 
  0.200  0.200  0.200  0.200  0.200
    eigenvectors:
  1.000  0.000  0.000  0.000  0.000
  0.000  1.000  0.000  0.000  0.000
  0.000  0.000  1.000  0.000  0.000
  0.000  0.000  0.000  1.000  0.000
  0.000  0.000  0.000  0.000  1.000
    occupations:
  0.200  0.000  0.000  0.000  0.000
  0.000  0.200  0.000  0.000  0.000
  0.000  0.000  0.200  0.000  0.000
  0.000  0.000  0.000  0.200  0.000
  0.000  0.000  0.000  0.000  0.200
atomic mag. moment =     0.000000
atom    5   Tr[ns(na)] (up, down, total) =   1.00000  1.00000  2.00000
   spin  1
    eigenvalues: 
  0.200  0.200  0.200  0.200  0.200
    eigenvectors:
  1.000  0.000  0.000  0.000  0.000
  0.000  1.000  0.000  0.000  0.000
  0.000  0.000  1.000  0.000  0.000
  0.000  0.000  0.000  1.000  0.000
  0.000  0.000  0.000  0.000  1.000
    occupations:
  0.200  0.000  0.000  0.000  0.000
  0.000  0.200  0.000  0.000  0.000
  0.000  0.000  0.200  0.000  0.000
  0.000  0.000  0.000  0.200  0.000
  0.000  0.000  0.000  0.000  0.200
   spin  2
    eigenvalues: 
  0.200  0.200  0.200  0.200  0.200
    eigenvectors:
  1.000  0.000  0.000  0.000  0.000
  0.000  1.000  0.000  0.000  0.000
  0.000  0.000  1.000  0.000  0.000
  0.000  0.000  0.000  1.000  0.000
  0.000  0.000  0.000  0.000  1.000
    occupations:
  0.200  0.000  0.000  0.000  0.000
  0.000  0.200  0.000  0.000  0.000
  0.000  0.000  0.200  0.000  0.000
  0.000  0.000  0.000  0.200  0.000
  0.000  0.000  0.000  0.000  0.200
atomic mag. moment =     0.000000
atom    6   Tr[ns(na)] (up, down, total) =   1.00000  1.00000  2.00000
   spin  1
    eigenvalues: 
  0.200  0.200  0.200  0.200  0.200
    eigenvectors:
  1.000  0.000  0.000  0.000  0.000
  0.000  1.000  0.000  0.000  0.000
  0.000  0.000  1.000  0.000  0.000
  0.000  0.000  0.000  1.000  0.000
  0.000  0.000  0.000  0.000  1.000
    occupations:
  0.200  0.000  0.000  0.000  0.000
  0.000  0.200  0.000  0.000  0.000
  0.000  0.000  0.200  0.000  0.000
  0.000  0.000  0.000  0.200  0.000
  0.000  0.000  0.000  0.000  0.200
   spin  2
    eigenvalues: 
  0.200  0.200  0.200  0.200  0.200
    eigenvectors:
  1.000  0.000  0.000  0.000  0.000
  0.000  1.000  0.000  0.000  0.000
  0.000  0.000  1.000  0.000  0.000
  0.000  0.000  0.000  1.000  0.000
  0.000  0.000  0.000  0.000  1.000
    occupations:
  0.200  0.000  0.000  0.000  0.000
  0.000  0.200  0.000  0.000  0.000
  0.000  0.000  0.200  0.000  0.000
  0.000  0.000  0.000  0.200  0.000
  0.000  0.000  0.000  0.000  0.200
atomic mag. moment =     0.000000
atom    7   Tr[ns(na)] (up, down, total) =   1.00000  1.00000  2.00000
   spin  1
    eigenvalues: 
  0.200  0.200  0.200  0.200  0.200
    eigenvectors:
  1.000  0.000  0.000  0.000  0.000
  0.000  1.000  0.000  0.000  0.000
  0.000  0.000  1.000  0.000  0.000
  0.000  0.000  0.000  1.000  0.000
  0.000  0.000  0.000  0.000  1.000
    occupations:
  0.200  0.000  0.000  0.000  0.000
  0.000  0.200  0.000  0.000  0.000
  0.000  0.000  0.200  0.000  0.000
  0.000  0.000  0.000  0.200  0.000
  0.000  0.000  0.000  0.000  0.200
   spin  2
    eigenvalues: 
  0.200  0.200  0.200  0.200  0.200
    eigenvectors:
  1.000  0.000  0.000  0.000  0.000
  0.000  1.000  0.000  0.000  0.000
  0.000  0.000  1.000  0.000  0.000
  0.000  0.000  0.000  1.000  0.000
  0.000  0.000  0.000  0.000  1.000
    occupations:
  0.200  0.000  0.000  0.000  0.000
  0.000  0.200  0.000  0.000  0.000
  0.000  0.000  0.200  0.000  0.000
  0.000  0.000  0.000  0.200  0.000
  0.000  0.000  0.000  0.000  0.200
atomic mag. moment =     0.000000
atom    8   Tr[ns(na)] (up, down, total) =   1.00000  1.00000  2.00000
   spin  1
    eigenvalues: 
  0.200  0.200  0.200  0.200  0.200
    eigenvectors:
  1.000  0.000  0.000  0.000  0.000
  0.000  1.000  0.000  0.000  0.000
  0.000  0.000  1.000  0.000  0.000
  0.000  0.000  0.000  1.000  0.000
  0.000  0.000  0.000  0.000  1.000
    occupations:
  0.200  0.000  0.000  0.000  0.000
  0.000  0.200  0.000  0.000  0.000
  0.000  0.000  0.200  0.000  0.000
  0.000  0.000  0.000  0.200  0.000
  0.000  0.000  0.000  0.000  0.200
   spin  2
    eigenvalues: 
  0.200  0.200  0.200  0.200  0.200
    eigenvectors:
  1.000  0.000  0.000  0.000  0.000
  0.000  1.000  0.000  0.000  0.000
  0.000  0.000  1.000  0.000  0.000
  0.000  0.000  0.000  1.000  0.000
  0.000  0.000  0.000  0.000  1.000
    occupations:
  0.200  0.000  0.000  0.000  0.000
  0.000  0.200  0.000  0.000  0.000
  0.000  0.000  0.200  0.000  0.000
  0.000  0.000  0.000  0.200  0.000
  0.000  0.000  0.000  0.000  0.200
atomic mag. moment =     0.000000
atom    9   Tr[ns(na)] (up, down, total) =   1.00000  1.00000  2.00000
   spin  1
    eigenvalues: 
  0.200  0.200  0.200  0.200  0.200
    eigenvectors:
  1.000  0.000  0.000  0.000  0.000
  0.000  1.000  0.000  0.000  0.000
  0.000  0.000  1.000  0.000  0.000
  0.000  0.000  0.000  1.000  0.000
  0.000  0.000  0.000  0.000  1.000
    occupations:
  0.200  0.000  0.000  0.000  0.000
  0.000  0.200  0.000  0.000  0.000
  0.000  0.000  0.200  0.000  0.000
  0.000  0.000  0.000  0.200  0.000
  0.000  0.000  0.000  0.000  0.200
   spin  2
    eigenvalues: 
  0.200  0.200  0.200  0.200  0.200
    eigenvectors:
  1.000  0.000  0.000  0.000  0.000
  0.000  1.000  0.000  0.000  0.000
  0.000  0.000  1.000  0.000  0.000
  0.000  0.000  0.000  1.000  0.000
  0.000  0.000  0.000  0.000  1.000
    occupations:
  0.200  0.000  0.000  0.000  0.000
  0.000  0.200  0.000  0.000  0.000
  0.000  0.000  0.200  0.000  0.000
  0.000  0.000  0.000  0.200  0.000
  0.000  0.000  0.000  0.000  0.200
atomic mag. moment =     0.000000
atom   10   Tr[ns(na)] (up, down, total) =   1.00000  1.00000  2.00000
   spin  1
    eigenvalues: 
  0.200  0.200  0.200  0.200  0.200
    eigenvectors:
  1.000  0.000  0.000  0.000  0.000
  0.000  1.000  0.000  0.000  0.000
  0.000  0.000  1.000  0.000  0.000
  0.000  0.000  0.000  1.000  0.000
  0.000  0.000  0.000  0.000  1.000
    occupations:
  0.200  0.000  0.000  0.000  0.000
  0.000  0.200  0.000  0.000  0.000
  0.000  0.000  0.200  0.000  0.000
  0.000  0.000  0.000  0.200  0.000
  0.000  0.000  0.000  0.000  0.200
   spin  2
    eigenvalues: 
  0.200  0.200  0.200  0.200  0.200
    eigenvectors:
  1.000  0.000  0.000  0.000  0.000
  0.000  1.000  0.000  0.000  0.000
  0.000  0.000  1.000  0.000  0.000
  0.000  0.000  0.000  1.000  0.000
  0.000  0.000  0.000  0.000  1.000
    occupations:
  0.200  0.000  0.000  0.000  0.000
  0.000  0.200  0.000  0.000  0.000
  0.000  0.000  0.200  0.000  0.000
  0.000  0.000  0.000  0.200  0.000
  0.000  0.000  0.000  0.000  0.200
atomic mag. moment =     0.000000
atom   11   Tr[ns(na)] (up, down, total) =   1.00000  1.00000  2.00000
   spin  1
    eigenvalues: 
  0.200  0.200  0.200  0.200  0.200
    eigenvectors:
  1.000  0.000  0.000  0.000  0.000
  0.000  1.000  0.000  0.000  0.000
  0.000  0.000  1.000  0.000  0.000
  0.000  0.000  0.000  1.000  0.000
  0.000  0.000  0.000  0.000  1.000
    occupations:
  0.200  0.000  0.000  0.000  0.000
  0.000  0.200  0.000  0.000  0.000
  0.000  0.000  0.200  0.000  0.000
  0.000  0.000  0.000  0.200  0.000
  0.000  0.000  0.000  0.000  0.200
   spin  2
    eigenvalues: 
  0.200  0.200  0.200  0.200  0.200
    eigenvectors:
  1.000  0.000  0.000  0.000  0.000
  0.000  1.000  0.000  0.000  0.000
  0.000  0.000  1.000  0.000  0.000
  0.000  0.000  0.000  1.000  0.000
  0.000  0.000  0.000  0.000  1.000
    occupations:
  0.200  0.000  0.000  0.000  0.000
  0.000  0.200  0.000  0.000  0.000
  0.000  0.000  0.200  0.000  0.000
  0.000  0.000  0.000  0.200  0.000
  0.000  0.000  0.000  0.000  0.200
atomic mag. moment =     0.000000
atom   12   Tr[ns(na)] (up, down, total) =   1.00000  1.00000  2.00000
   spin  1
    eigenvalues: 
  0.200  0.200  0.200  0.200  0.200
    eigenvectors:
  1.000  0.000  0.000  0.000  0.000
  0.000  1.000  0.000  0.000  0.000
  0.000  0.000  1.000  0.000  0.000
  0.000  0.000  0.000  1.000  0.000
  0.000  0.000  0.000  0.000  1.000
    occupations:
  0.200  0.000  0.000  0.000  0.000
  0.000  0.200  0.000  0.000  0.000
  0.000  0.000  0.200  0.000  0.000
  0.000  0.000  0.000  0.200  0.000
  0.000  0.000  0.000  0.000  0.200
   spin  2
    eigenvalues: 
  0.200  0.200  0.200  0.200  0.200
    eigenvectors:
  1.000  0.000  0.000  0.000  0.000
  0.000  1.000  0.000  0.000  0.000
  0.000  0.000  1.000  0.000  0.000
  0.000  0.000  0.000  1.000  0.000
  0.000  0.000  0.000  0.000  1.000
    occupations:
  0.200  0.000  0.000  0.000  0.000
  0.000  0.200  0.000  0.000  0.000
  0.000  0.000  0.200  0.000  0.000
  0.000  0.000  0.000  0.200  0.000
  0.000  0.000  0.000  0.000  0.200
atomic mag. moment =     0.000000
atom   13   Tr[ns(na)] (up, down, total) =   1.00000  1.00000  2.00000
   spin  1
    eigenvalues: 
  0.200  0.200  0.200  0.200  0.200
    eigenvectors:
  1.000  0.000  0.000  0.000  0.000
  0.000  1.000  0.000  0.000  0.000
  0.000  0.000  1.000  0.000  0.000
  0.000  0.000  0.000  1.000  0.000
  0.000  0.000  0.000  0.000  1.000
    occupations:
  0.200  0.000  0.000  0.000  0.000
  0.000  0.200  0.000  0.000  0.000
  0.000  0.000  0.200  0.000  0.000
  0.000  0.000  0.000  0.200  0.000
  0.000  0.000  0.000  0.000  0.200
   spin  2
    eigenvalues: 
  0.200  0.200  0.200  0.200  0.200
    eigenvectors:
  1.000  0.000  0.000  0.000  0.000
  0.000  1.000  0.000  0.000  0.000
  0.000  0.000  1.000  0.000  0.000
  0.000  0.000  0.000  1.000  0.000
  0.000  0.000  0.000  0.000  1.000
    occupations:
  0.200  0.000  0.000  0.000  0.000
  0.000  0.200  0.000  0.000  0.000
  0.000  0.000  0.200  0.000  0.000
  0.000  0.000  0.000  0.200  0.000
  0.000  0.000  0.000  0.000  0.200
atomic mag. moment =     0.000000
atom   14   Tr[ns(na)] (up, down, total) =   1.00000  1.00000  2.00000
   spin  1
    eigenvalues: 
  0.200  0.200  0.200  0.200  0.200
    eigenvectors:
  1.000  0.000  0.000  0.000  0.000
  0.000  1.000  0.000  0.000  0.000
  0.000  0.000  1.000  0.000  0.000
  0.000  0.000  0.000  1.000  0.000
  0.000  0.000  0.000  0.000  1.000
    occupations:
  0.200  0.000  0.000  0.000  0.000
  0.000  0.200  0.000  0.000  0.000
  0.000  0.000  0.200  0.000  0.000
  0.000  0.000  0.000  0.200  0.000
  0.000  0.000  0.000  0.000  0.200
   spin  2
    eigenvalues: 
  0.200  0.200  0.200  0.200  0.200
    eigenvectors:
  1.000  0.000  0.000  0.000  0.000
  0.000  1.000  0.000  0.000  0.000
  0.000  0.000  1.000  0.000  0.000
  0.000  0.000  0.000  1.000  0.000
  0.000  0.000  0.000  0.000  1.000
    occupations:
  0.200  0.000  0.000  0.000  0.000
  0.000  0.200  0.000  0.000  0.000
  0.000  0.000  0.200  0.000  0.000
  0.000  0.000  0.000  0.200  0.000
  0.000  0.000  0.000  0.000  0.200
atomic mag. moment =     0.000000
atom   15   Tr[ns(na)] (up, down, total) =   1.00000  1.00000  2.00000
   spin  1
    eigenvalues: 
  0.200  0.200  0.200  0.200  0.200
    eigenvectors:
  1.000  0.000  0.000  0.000  0.000
  0.000  1.000  0.000  0.000  0.000
  0.000  0.000  1.000  0.000  0.000
  0.000  0.000  0.000  1.000  0.000
  0.000  0.000  0.000  0.000  1.000
    occupations:
  0.200  0.000  0.000  0.000  0.000
  0.000  0.200  0.000  0.000  0.000
  0.000  0.000  0.200  0.000  0.000
  0.000  0.000  0.000  0.200  0.000
  0.000  0.000  0.000  0.000  0.200
   spin  2
    eigenvalues: 
  0.200  0.200  0.200  0.200  0.200
    eigenvectors:
  1.000  0.000  0.000  0.000  0.000
  0.000  1.000  0.000  0.000  0.000
  0.000  0.000  1.000  0.000  0.000
  0.000  0.000  0.000  1.000  0.000
  0.000  0.000  0.000  0.000  1.000
    occupations:
  0.200  0.000  0.000  0.000  0.000
  0.000  0.200  0.000  0.000  0.000
  0.000  0.000  0.200  0.000  0.000
  0.000  0.000  0.000  0.200  0.000
  0.000  0.000  0.000  0.000  0.200
atomic mag. moment =     0.000000
atom   16   Tr[ns(na)] (up, down, total) =   1.00000  1.00000  2.00000
   spin  1
    eigenvalues: 
  0.200  0.200  0.200  0.200  0.200
    eigenvectors:
  1.000  0.000  0.000  0.000  0.000
  0.000  1.000  0.000  0.000  0.000
  0.000  0.000  1.000  0.000  0.000
  0.000  0.000  0.000  1.000  0.000
  0.000  0.000  0.000  0.000  1.000
    occupations:
  0.200  0.000  0.000  0.000  0.000
  0.000  0.200  0.000  0.000  0.000
  0.000  0.000  0.200  0.000  0.000
  0.000  0.000  0.000  0.200  0.000
  0.000  0.000  0.000  0.000  0.200
   spin  2
    eigenvalues: 
  0.200  0.200  0.200  0.200  0.200
    eigenvectors:
  1.000  0.000  0.000  0.000  0.000
  0.000  1.000  0.000  0.000  0.000
  0.000  0.000  1.000  0.000  0.000
  0.000  0.000  0.000  1.000  0.000
  0.000  0.000  0.000  0.000  1.000
    occupations:
  0.200  0.000  0.000  0.000  0.000
  0.000  0.200  0.000  0.000  0.000
  0.000  0.000  0.200  0.000  0.000
  0.000  0.000  0.000  0.200  0.000
  0.000  0.000  0.000  0.000  0.200
atomic mag. moment =     0.000000
atom   17   Tr[ns(na)] (up, down, total) =   2.00000  2.00000  4.00000
   spin  1
    eigenvalues: 
  0.667  0.667  0.667
    eigenvectors:
  1.000  0.000  0.000
  0.000  1.000  0.000
  0.000  0.000  1.000
    occupations:
  0.667  0.000  0.000
  0.000  0.667  0.000
  0.000  0.000  0.667
   spin  2
    eigenvalues: 
  0.667  0.667  0.667
    eigenvectors:
  1.000  0.000  0.000
  0.000  1.000  0.000
  0.000  0.000  1.000
    occupations:
  0.667  0.000  0.000
  0.000  0.667  0.000
  0.000  0.000  0.667
atomic mag. moment =     0.000000
atom   18   Tr[ns(na)] (up, down, total) =   2.00000  2.00000  4.00000
   spin  1
    eigenvalues: 
  0.667  0.667  0.667
    eigenvectors:
  1.000  0.000  0.000
  0.000  1.000  0.000
  0.000  0.000  1.000
    occupations:
  0.667  0.000  0.000
  0.000  0.667  0.000
  0.000  0.000  0.667
   spin  2
    eigenvalues: 
  0.667  0.667  0.667
    eigenvectors:
  1.000  0.000  0.000
  0.000  1.000  0.000
  0.000  0.000  1.000
    occupations:
  0.667  0.000  0.000
  0.000  0.667  0.000
  0.000  0.000  0.667
atomic mag. moment =     0.000000
atom   19   Tr[ns(na)] (up, down, total) =   2.00000  2.00000  4.00000
   spin  1
    eigenvalues: 
  0.667  0.667  0.667
    eigenvectors:
  1.000  0.000  0.000
  0.000  1.000  0.000
  0.000  0.000  1.000
    occupations:
  0.667  0.000  0.000
  0.000  0.667  0.000
  0.000  0.000  0.667
   spin  2
    eigenvalues: 
  0.667  0.667  0.667
    eigenvectors:
  1.000  0.000  0.000
  0.000  1.000  0.000
  0.000  0.000  1.000
    occupations:
  0.667  0.000  0.000
  0.000  0.667  0.000
  0.000  0.000  0.667
atomic mag. moment =     0.000000
atom   20   Tr[ns(na)] (up, down, total) =   2.00000  2.00000  4.00000
   spin  1
    eigenvalues: 
  0.667  0.667  0.667
    eigenvectors:
  1.000  0.000  0.000
  0.000  1.000  0.000
  0.000  0.000  1.000
    occupations:
  0.667  0.000  0.000
  0.000  0.667  0.000
  0.000  0.000  0.667
   spin  2
    eigenvalues: 
  0.667  0.667  0.667
    eigenvectors:
  1.000  0.000  0.000
  0.000  1.000  0.000
  0.000  0.000  1.000
    occupations:
  0.667  0.000  0.000
  0.000  0.667  0.000
  0.000  0.000  0.667
atomic mag. moment =     0.000000
atom   21   Tr[ns(na)] (up, down, total) =   2.00000  2.00000  4.00000
   spin  1
    eigenvalues: 
  0.667  0.667  0.667
    eigenvectors:
  1.000  0.000  0.000
  0.000  1.000  0.000
  0.000  0.000  1.000
    occupations:
  0.667  0.000  0.000
  0.000  0.667  0.000
  0.000  0.000  0.667
   spin  2
    eigenvalues: 
  0.667  0.667  0.667
    eigenvectors:
  1.000  0.000  0.000
  0.000  1.000  0.000
  0.000  0.000  1.000
    occupations:
  0.667  0.000  0.000
  0.000  0.667  0.000
  0.000  0.000  0.667
atomic mag. moment =     0.000000
atom   22   Tr[ns(na)] (up, down, total) =   2.00000  2.00000  4.00000
   spin  1
    eigenvalues: 
  0.667  0.667  0.667
    eigenvectors:
  1.000  0.000  0.000
  0.000  1.000  0.000
  0.000  0.000  1.000
    occupations:
  0.667  0.000  0.000
  0.000  0.667  0.000
  0.000  0.000  0.667
   spin  2
    eigenvalues: 
  0.667  0.667  0.667
    eigenvectors:
  1.000  0.000  0.000
  0.000  1.000  0.000
  0.000  0.000  1.000
    occupations:
  0.667  0.000  0.000
  0.000  0.667  0.000
  0.000  0.000  0.667
atomic mag. moment =     0.000000
atom   23   Tr[ns(na)] (up, down, total) =   2.00000  2.00000  4.00000
   spin  1
    eigenvalues: 
  0.667  0.667  0.667
    eigenvectors:
  1.000  0.000  0.000
  0.000  1.000  0.000
  0.000  0.000  1.000
    occupations:
  0.667  0.000  0.000
  0.000  0.667  0.000
  0.000  0.000  0.667
   spin  2
    eigenvalues: 
  0.667  0.667  0.667
    eigenvectors:
  1.000  0.000  0.000
  0.000  1.000  0.000
  0.000  0.000  1.000
    occupations:
  0.667  0.000  0.000
  0.000  0.667  0.000
  0.000  0.000  0.667
atomic mag. moment =     0.000000
atom   24   Tr[ns(na)] (up, down, total) =   2.00000  2.00000  4.00000
   spin  1
    eigenvalues: 
  0.667  0.667  0.667
    eigenvectors:
  1.000  0.000  0.000
  0.000  1.000  0.000
  0.000  0.000  1.000
    occupations:
  0.667  0.000  0.000
  0.000  0.667  0.000
  0.000  0.000  0.667
   spin  2
    eigenvalues: 
  0.667  0.667  0.667
    eigenvectors:
  1.000  0.000  0.000
  0.000  1.000  0.000
  0.000  0.000  1.000
    occupations:
  0.667  0.000  0.000
  0.000  0.667  0.000
  0.000  0.000  0.667
atomic mag. moment =     0.000000
atom   25   Tr[ns(na)] (up, down, total) =   2.00000  2.00000  4.00000
   spin  1
    eigenvalues: 
  0.667  0.667  0.667
    eigenvectors:
  1.000  0.000  0.000
  0.000  1.000  0.000
  0.000  0.000  1.000
    occupations:
  0.667  0.000  0.000
  0.000  0.667  0.000
  0.000  0.000  0.667
   spin  2
    eigenvalues: 
  0.667  0.667  0.667
    eigenvectors:
  1.000  0.000  0.000
  0.000  1.000  0.000
  0.000  0.000  1.000
    occupations:
  0.667  0.000  0.000
  0.000  0.667  0.000
  0.000  0.000  0.667
atomic mag. moment =     0.000000
atom   26   Tr[ns(na)] (up, down, total) =   2.00000  2.00000  4.00000
   spin  1
    eigenvalues: 
  0.667  0.667  0.667
    eigenvectors:
  1.000  0.000  0.000
  0.000  1.000  0.000
  0.000  0.000  1.000
    occupations:
  0.667  0.000  0.000
  0.000  0.667  0.000
  0.000  0.000  0.667
   spin  2
    eigenvalues: 
  0.667  0.667  0.667
    eigenvectors:
  1.000  0.000  0.000
  0.000  1.000  0.000
  0.000  0.000  1.000
    occupations:
  0.667  0.000  0.000
  0.000  0.667  0.000
  0.000  0.000  0.667
atomic mag. moment =     0.000000
atom   27   Tr[ns(na)] (up, down, total) =   2.00000  2.00000  4.00000
   spin  1
    eigenvalues: 
  0.667  0.667  0.667
    eigenvectors:
  1.000  0.000  0.000
  0.000  1.000  0.000
  0.000  0.000  1.000
    occupations:
  0.667  0.000  0.000
  0.000  0.667  0.000
  0.000  0.000  0.667
   spin  2
    eigenvalues: 
  0.667  0.667  0.667
    eigenvectors:
  1.000  0.000  0.000
  0.000  1.000  0.000
  0.000  0.000  1.000
    occupations:
  0.667  0.000  0.000
  0.000  0.667  0.000
  0.000  0.000  0.667
atomic mag. moment =     0.000000
atom   28   Tr[ns(na)] (up, down, total) =   2.00000  2.00000  4.00000
   spin  1
    eigenvalues: 
  0.667  0.667  0.667
    eigenvectors:
  1.000  0.000  0.000
  0.000  1.000  0.000
  0.000  0.000  1.000
    occupations:
  0.667  0.000  0.000
  0.000  0.667  0.000
  0.000  0.000  0.667
   spin  2
    eigenvalues: 
  0.667  0.667  0.667
    eigenvectors:
  1.000  0.000  0.000
  0.000  1.000  0.000
  0.000  0.000  1.000
    occupations:
  0.667  0.000  0.000
  0.000  0.667  0.000
  0.000  0.000  0.667
atomic mag. moment =     0.000000
atom   29   Tr[ns(na)] (up, down, total) =   2.00000  2.00000  4.00000
   spin  1
    eigenvalues: 
  0.667  0.667  0.667
    eigenvectors:
  1.000  0.000  0.000
  0.000  1.000  0.000
  0.000  0.000  1.000
    occupations:
  0.667  0.000  0.000
  0.000  0.667  0.000
  0.000  0.000  0.667
   spin  2
    eigenvalues: 
  0.667  0.667  0.667
    eigenvectors:
  1.000  0.000  0.000
  0.000  1.000  0.000
  0.000  0.000  1.000
    occupations:
  0.667  0.000  0.000
  0.000  0.667  0.000
  0.000  0.000  0.667
atomic mag. moment =     0.000000
atom   30   Tr[ns(na)] (up, down, total) =   2.00000  2.00000  4.00000
   spin  1
    eigenvalues: 
  0.667  0.667  0.667
    eigenvectors:
  1.000  0.000  0.000
  0.000  1.000  0.000
  0.000  0.000  1.000
    occupations:
  0.667  0.000  0.000
  0.000  0.667  0.000
  0.000  0.000  0.667
   spin  2
    eigenvalues: 
  0.667  0.667  0.667
    eigenvectors:
  1.000  0.000  0.000
  0.000  1.000  0.000
  0.000  0.000  1.000
    occupations:
  0.667  0.000  0.000
  0.000  0.667  0.000
  0.000  0.000  0.667
atomic mag. moment =     0.000000
atom   31   Tr[ns(na)] (up, down, total) =   2.00000  2.00000  4.00000
   spin  1
    eigenvalues: 
  0.667  0.667  0.667
    eigenvectors:
  1.000  0.000  0.000
  0.000  1.000  0.000
  0.000  0.000  1.000
    occupations:
  0.667  0.000  0.000
  0.000  0.667  0.000
  0.000  0.000  0.667
   spin  2
    eigenvalues: 
  0.667  0.667  0.667
    eigenvectors:
  1.000  0.000  0.000
  0.000  1.000  0.000
  0.000  0.000  1.000
    occupations:
  0.667  0.000  0.000
  0.000  0.667  0.000
  0.000  0.000  0.667
atomic mag. moment =     0.000000
atom   32   Tr[ns(na)] (up, down, total) =   2.00000  2.00000  4.00000
   spin  1
    eigenvalues: 
  0.667  0.667  0.667
    eigenvectors:
  1.000  0.000  0.000
  0.000  1.000  0.000
  0.000  0.000  1.000
    occupations:
  0.667  0.000  0.000
  0.000  0.667  0.000
  0.000  0.000  0.667
   spin  2
    eigenvalues: 
  0.667  0.667  0.667
    eigenvectors:
  1.000  0.000  0.000
  0.000  1.000  0.000
  0.000  0.000  1.000
    occupations:
  0.667  0.000  0.000
  0.000  0.667  0.000
  0.000  0.000  0.667
atomic mag. moment =     0.000000
atom   33   Tr[ns(na)] (up, down, total) =   2.00000  2.00000  4.00000
   spin  1
    eigenvalues: 
  0.667  0.667  0.667
    eigenvectors:
  1.000  0.000  0.000
  0.000  1.000  0.000
  0.000  0.000  1.000
    occupations:
  0.667  0.000  0.000
  0.000  0.667  0.000
  0.000  0.000  0.667
   spin  2
    eigenvalues: 
  0.667  0.667  0.667
    eigenvectors:
  1.000  0.000  0.000
  0.000  1.000  0.000
  0.000  0.000  1.000
    occupations:
  0.667  0.000  0.000
  0.000  0.667  0.000
  0.000  0.000  0.667
atomic mag. moment =     0.000000
atom   34   Tr[ns(na)] (up, down, total) =   2.00000  2.00000  4.00000
   spin  1
    eigenvalues: 
  0.667  0.667  0.667
    eigenvectors:
  1.000  0.000  0.000
  0.000  1.000  0.000
  0.000  0.000  1.000
    occupations:
  0.667  0.000  0.000
  0.000  0.667  0.000
  0.000  0.000  0.667
   spin  2
    eigenvalues: 
  0.667  0.667  0.667
    eigenvectors:
  1.000  0.000  0.000
  0.000  1.000  0.000
  0.000  0.000  1.000
    occupations:
  0.667  0.000  0.000
  0.000  0.667  0.000
  0.000  0.000  0.667
atomic mag. moment =     0.000000
atom   35   Tr[ns(na)] (up, down, total) =   2.00000  2.00000  4.00000
   spin  1
    eigenvalues: 
  0.667  0.667  0.667
    eigenvectors:
  1.000  0.000  0.000
  0.000  1.000  0.000
  0.000  0.000  1.000
    occupations:
  0.667  0.000  0.000
  0.000  0.667  0.000
  0.000  0.000  0.667
   spin  2
    eigenvalues: 
  0.667  0.667  0.667
    eigenvectors:
  1.000  0.000  0.000
  0.000  1.000  0.000
  0.000  0.000  1.000
    occupations:
  0.667  0.000  0.000
  0.000  0.667  0.000
  0.000  0.000  0.667
atomic mag. moment =     0.000000
atom   36   Tr[ns(na)] (up, down, total) =   2.00000  2.00000  4.00000
   spin  1
    eigenvalues: 
  0.667  0.667  0.667
    eigenvectors:
  1.000  0.000  0.000
  0.000  1.000  0.000
  0.000  0.000  1.000
    occupations:
  0.667  0.000  0.000
  0.000  0.667  0.000
  0.000  0.000  0.667
   spin  2
    eigenvalues: 
  0.667  0.667  0.667
    eigenvectors:
  1.000  0.000  0.000
  0.000  1.000  0.000
  0.000  0.000  1.000
    occupations:
  0.667  0.000  0.000
  0.000  0.667  0.000
  0.000  0.000  0.667
atomic mag. moment =     0.000000
atom   37   Tr[ns(na)] (up, down, total) =   2.00000  2.00000  4.00000
   spin  1
    eigenvalues: 
  0.667  0.667  0.667
    eigenvectors:
  1.000  0.000  0.000
  0.000  1.000  0.000
  0.000  0.000  1.000
    occupations:
  0.667  0.000  0.000
  0.000  0.667  0.000
  0.000  0.000  0.667
   spin  2
    eigenvalues: 
  0.667  0.667  0.667
    eigenvectors:
  1.000  0.000  0.000
  0.000  1.000  0.000
  0.000  0.000  1.000
    occupations:
  0.667  0.000  0.000
  0.000  0.667  0.000
  0.000  0.000  0.667
atomic mag. moment =     0.000000
atom   38   Tr[ns(na)] (up, down, total) =   2.00000  2.00000  4.00000
   spin  1
    eigenvalues: 
  0.667  0.667  0.667
    eigenvectors:
  1.000  0.000  0.000
  0.000  1.000  0.000
  0.000  0.000  1.000
    occupations:
  0.667  0.000  0.000
  0.000  0.667  0.000
  0.000  0.000  0.667
   spin  2
    eigenvalues: 
  0.667  0.667  0.667
    eigenvectors:
  1.000  0.000  0.000
  0.000  1.000  0.000
  0.000  0.000  1.000
    occupations:
  0.667  0.000  0.000
  0.000  0.667  0.000
  0.000  0.000  0.667
atomic mag. moment =     0.000000
atom   39   Tr[ns(na)] (up, down, total) =   2.00000  2.00000  4.00000
   spin  1
    eigenvalues: 
  0.667  0.667  0.667
    eigenvectors:
  1.000  0.000  0.000
  0.000  1.000  0.000
  0.000  0.000  1.000
    occupations:
  0.667  0.000  0.000
  0.000  0.667  0.000
  0.000  0.000  0.667
   spin  2
    eigenvalues: 
  0.667  0.667  0.667
    eigenvectors:
  1.000  0.000  0.000
  0.000  1.000  0.000
  0.000  0.000  1.000
    occupations:
  0.667  0.000  0.000
  0.000  0.667  0.000
  0.000  0.000  0.667
atomic mag. moment =     0.000000
atom   40   Tr[ns(na)] (up, down, total) =   2.00000  2.00000  4.00000
   spin  1
    eigenvalues: 
  0.667  0.667  0.667
    eigenvectors:
  1.000  0.000  0.000
  0.000  1.000  0.000
  0.000  0.000  1.000
    occupations:
  0.667  0.000  0.000
  0.000  0.667  0.000
  0.000  0.000  0.667
   spin  2
    eigenvalues: 
  0.667  0.667  0.667
    eigenvectors:
  1.000  0.000  0.000
  0.000  1.000  0.000
  0.000  0.000  1.000
    occupations:
  0.667  0.000  0.000
  0.000  0.667  0.000
  0.000  0.000  0.667
atomic mag. moment =     0.000000
atom   41   Tr[ns(na)] (up, down, total) =   2.00000  2.00000  4.00000
   spin  1
    eigenvalues: 
  0.667  0.667  0.667
    eigenvectors:
  1.000  0.000  0.000
  0.000  1.000  0.000
  0.000  0.000  1.000
    occupations:
  0.667  0.000  0.000
  0.000  0.667  0.000
  0.000  0.000  0.667
   spin  2
    eigenvalues: 
  0.667  0.667  0.667
    eigenvectors:
  1.000  0.000  0.000
  0.000  1.000  0.000
  0.000  0.000  1.000
    occupations:
  0.667  0.000  0.000
  0.000  0.667  0.000
  0.000  0.000  0.667
atomic mag. moment =     0.000000
atom   42   Tr[ns(na)] (up, down, total) =   2.00000  2.00000  4.00000
   spin  1
    eigenvalues: 
  0.667  0.667  0.667
    eigenvectors:
  1.000  0.000  0.000
  0.000  1.000  0.000
  0.000  0.000  1.000
    occupations:
  0.667  0.000  0.000
  0.000  0.667  0.000
  0.000  0.000  0.667
   spin  2
    eigenvalues: 
  0.667  0.667  0.667
    eigenvectors:
  1.000  0.000  0.000
  0.000  1.000  0.000
  0.000  0.000  1.000
    occupations:
  0.667  0.000  0.000
  0.000  0.667  0.000
  0.000  0.000  0.667
atomic mag. moment =     0.000000
atom   43   Tr[ns(na)] (up, down, total) =   2.00000  2.00000  4.00000
   spin  1
    eigenvalues: 
  0.667  0.667  0.667
    eigenvectors:
  1.000  0.000  0.000
  0.000  1.000  0.000
  0.000  0.000  1.000
    occupations:
  0.667  0.000  0.000
  0.000  0.667  0.000
  0.000  0.000  0.667
   spin  2
    eigenvalues: 
  0.667  0.667  0.667
    eigenvectors:
  1.000  0.000  0.000
  0.000  1.000  0.000
  0.000  0.000  1.000
    occupations:
  0.667  0.000  0.000
  0.000  0.667  0.000
  0.000  0.000  0.667
atomic mag. moment =     0.000000
atom   44   Tr[ns(na)] (up, down, total) =   2.00000  2.00000  4.00000
   spin  1
    eigenvalues: 
  0.667  0.667  0.667
    eigenvectors:
  1.000  0.000  0.000
  0.000  1.000  0.000
  0.000  0.000  1.000
    occupations:
  0.667  0.000  0.000
  0.000  0.667  0.000
  0.000  0.000  0.667
   spin  2
    eigenvalues: 
  0.667  0.667  0.667
    eigenvectors:
  1.000  0.000  0.000
  0.000  1.000  0.000
  0.000  0.000  1.000
    occupations:
  0.667  0.000  0.000
  0.000  0.667  0.000
  0.000  0.000  0.667
atomic mag. moment =     0.000000
atom   45   Tr[ns(na)] (up, down, total) =   2.00000  2.00000  4.00000
   spin  1
    eigenvalues: 
  0.667  0.667  0.667
    eigenvectors:
  1.000  0.000  0.000
  0.000  1.000  0.000
  0.000  0.000  1.000
    occupations:
  0.667  0.000  0.000
  0.000  0.667  0.000
  0.000  0.000  0.667
   spin  2
    eigenvalues: 
  0.667  0.667  0.667
    eigenvectors:
  1.000  0.000  0.000
  0.000  1.000  0.000
  0.000  0.000  1.000
    occupations:
  0.667  0.000  0.000
  0.000  0.667  0.000
  0.000  0.000  0.667
atomic mag. moment =     0.000000
atom   46   Tr[ns(na)] (up, down, total) =   2.00000  2.00000  4.00000
   spin  1
    eigenvalues: 
  0.667  0.667  0.667
    eigenvectors:
  1.000  0.000  0.000
  0.000  1.000  0.000
  0.000  0.000  1.000
    occupations:
  0.667  0.000  0.000
  0.000  0.667  0.000
  0.000  0.000  0.667
   spin  2
    eigenvalues: 
  0.667  0.667  0.667
    eigenvectors:
  1.000  0.000  0.000
  0.000  1.000  0.000
  0.000  0.000  1.000
    occupations:
  0.667  0.000  0.000
  0.000  0.667  0.000
  0.000  0.000  0.667
atomic mag. moment =     0.000000
atom   47   Tr[ns(na)] (up, down, total) =   2.00000  2.00000  4.00000
   spin  1
    eigenvalues: 
  0.667  0.667  0.667
    eigenvectors:
  1.000  0.000  0.000
  0.000  1.000  0.000
  0.000  0.000  1.000
    occupations:
  0.667  0.000  0.000
  0.000  0.667  0.000
  0.000  0.000  0.667
   spin  2
    eigenvalues: 
  0.667  0.667  0.667
    eigenvectors:
  1.000  0.000  0.000
  0.000  1.000  0.000
  0.000  0.000  1.000
    occupations:
  0.667  0.000  0.000
  0.000  0.667  0.000
  0.000  0.000  0.667
atomic mag. moment =     0.000000
atom   48   Tr[ns(na)] (up, down, total) =   2.00000  2.00000  4.00000
   spin  1
    eigenvalues: 
  0.667  0.667  0.667
    eigenvectors:
  1.000  0.000  0.000
  0.000  1.000  0.000
  0.000  0.000  1.000
    occupations:
  0.667  0.000  0.000
  0.000  0.667  0.000
  0.000  0.000  0.667
   spin  2
    eigenvalues: 
  0.667  0.667  0.667
    eigenvectors:
  1.000  0.000  0.000
  0.000  1.000  0.000
  0.000  0.000  1.000
    occupations:
  0.667  0.000  0.000
  0.000  0.667  0.000
  0.000  0.000  0.667
atomic mag. moment =     0.000000
N of occupied +U levels = 160.0000000
 --- exit write_ns ---
 Atomic wfc used for LDA+U Projector are NOT orthogonalized
     Starting wfc are  288 randomized atomic wfcs

     total cpu time spent up to now is      367.7 secs

     per-process dynamical memory:    87.3 Mb

     Self-consistent Calculation

     iteration #  1     ecut=    40.00 Ry     beta=0.70
     Davidson diagonalization with overlap
     ethr =  1.00E-02,  avg # of iterations =  5.7
 --- enter write_ns ---
 LDA+U parameters:
U( 1)     =  0.00000000
alpha( 1) =  0.00000000
U( 2)     =  0.00000000
alpha( 2) =  0.00000000
U( 3)     =  0.00000000
alpha( 3) =  0.00000000
atom    1   Tr[ns(na)] (up, down, total) =   1.04621  1.04621  2.09242
   spin  1
    eigenvalues: 
  0.129  0.140  0.148  0.295  0.334
    eigenvectors:
  0.000  0.622  0.000  0.378  0.000
  0.000  0.000  0.500  0.000  0.500
  0.000  0.000  0.500  0.000  0.500
  1.000  0.000  0.000  0.000  0.000
  0.000  0.378  0.000  0.622  0.000
    occupations:
  0.199 -0.000 -0.000  0.000 -0.075
 -0.000  0.241 -0.093  0.000  0.000
 -0.000 -0.093  0.241  0.000  0.000
  0.000  0.000  0.000  0.129 -0.000
 -0.075  0.000  0.000 -0.000  0.237
   spin  2
    eigenvalues: 
  0.129  0.140  0.148  0.295  0.334
    eigenvectors:
  0.000  0.622  0.000  0.378  0.000
  0.000  0.000  0.500  0.000  0.500
  0.000  0.000  0.500  0.000  0.500
  1.000  0.000  0.000  0.000  0.000
  0.000  0.378  0.000  0.622  0.000
    occupations:
  0.199 -0.000 -0.000  0.000 -0.075
 -0.000  0.241 -0.093  0.000  0.000
 -0.000 -0.093  0.241  0.000  0.000
  0.000  0.000  0.000  0.129 -0.000
 -0.075  0.000  0.000 -0.000  0.237
atomic mag. moment =     0.000001
atom    2   Tr[ns(na)] (up, down, total) =   1.04621  1.04621  2.09241
   spin  1
    eigenvalues: 
  0.129  0.140  0.148  0.295  0.334
    eigenvectors:
  0.000  0.622  0.000  0.378  0.000
  0.000  0.000  0.500  0.000  0.500
  0.000  0.000  0.500  0.000  0.500
  1.000  0.000  0.000  0.000  0.000
  0.000  0.378  0.000  0.622  0.000
    occupations:
  0.199  0.000  0.000 -0.000  0.075
  0.000  0.241  0.093 -0.000  0.000
  0.000  0.093  0.241  0.000  0.000
 -0.000 -0.000  0.000  0.129 -0.000
  0.075  0.000  0.000 -0.000  0.237
   spin  2
    eigenvalues: 
  0.129  0.140  0.148  0.295  0.334
    eigenvectors:
  0.000  0.622  0.000  0.378  0.000
  0.000  0.000  0.500  0.000  0.500
  0.000  0.000  0.500  0.000  0.500
  1.000  0.000  0.000  0.000  0.000
  0.000  0.378  0.000  0.622  0.000
    occupations:
  0.199  0.000  0.000 -0.000  0.075
  0.000  0.241  0.093 -0.000  0.000
  0.000  0.093  0.241  0.000  0.000
 -0.000 -0.000  0.000  0.129 -0.000
  0.075  0.000  0.000 -0.000  0.237
atomic mag. moment =    -0.000000
atom    3   Tr[ns(na)] (up, down, total) =   1.04621  1.04621  2.09241
   spin  1
    eigenvalues: 
  0.129  0.140  0.148  0.295  0.334
    eigenvectors:
  0.000  0.622  0.000  0.378  0.000
  0.000  0.000  0.500  0.000  0.500
  0.000  0.000  0.500  0.000  0.500
  1.000  0.000  0.000  0.000  0.000
  0.000  0.378  0.000  0.622  0.000
    occupations:
  0.199 -0.000 -0.000  0.000 -0.075
 -0.000  0.241 -0.093  0.000  0.000
 -0.000 -0.093  0.241  0.000  0.000
  0.000  0.000  0.000  0.129 -0.000
 -0.075  0.000  0.000 -0.000  0.237
   spin  2
    eigenvalues: 
  0.129  0.140  0.148  0.295  0.334
    eigenvectors:
  0.000  0.622  0.000  0.378  0.000
  0.000  0.000  0.500  0.000  0.500
  0.000  0.000  0.500  0.000  0.500
  1.000  0.000  0.000  0.000  0.000
  0.000  0.378  0.000  0.622  0.000
    occupations:
  0.199 -0.000 -0.000  0.000 -0.075
 -0.000  0.241 -0.093  0.000  0.000
 -0.000 -0.093  0.241  0.000  0.000
  0.000  0.000  0.000  0.129 -0.000
 -0.075  0.000  0.000 -0.000  0.237
atomic mag. moment =    -0.000000
atom    4   Tr[ns(na)] (up, down, total) =   1.04621  1.04621  2.09241
   spin  1
    eigenvalues: 
  0.129  0.140  0.148  0.295  0.334
    eigenvectors:
  0.000  0.622  0.000  0.378  0.000
  0.000  0.000  0.500  0.000  0.500
  0.000  0.000  0.500  0.000  0.500
  1.000  0.000  0.000  0.000  0.000
  0.000  0.378  0.000  0.622  0.000
    occupations:
  0.199 -0.000 -0.000 -0.000  0.075
 -0.000  0.241  0.093  0.000 -0.000
 -0.000  0.093  0.241 -0.000 -0.000
 -0.000  0.000 -0.000  0.129 -0.000
  0.075 -0.000 -0.000 -0.000  0.237
   spin  2
    eigenvalues: 
  0.129  0.140  0.148  0.295  0.334
    eigenvectors:
  0.000  0.622  0.000  0.378  0.000
  0.000  0.000  0.500  0.000  0.500
  0.000  0.000  0.500  0.000  0.500
  1.000  0.000  0.000  0.000  0.000
  0.000  0.378  0.000  0.622  0.000
    occupations:
  0.199 -0.000 -0.000 -0.000  0.075
 -0.000  0.241  0.093  0.000 -0.000
 -0.000  0.093  0.241 -0.000 -0.000
 -0.000  0.000 -0.000  0.129 -0.000
  0.075 -0.000 -0.000 -0.000  0.237
atomic mag. moment =    -0.000000
atom    5   Tr[ns(na)] (up, down, total) =   1.04621  1.04621  2.09241
   spin  1
    eigenvalues: 
  0.129  0.140  0.148  0.295  0.334
    eigenvectors:
  0.000  0.622  0.000  0.378  0.000
  0.000  0.000  0.500  0.000  0.500
  0.000  0.000  0.500  0.000  0.500
  1.000  0.000  0.000  0.000  0.000
  0.000  0.378  0.000  0.622  0.000
    occupations:
  0.199 -0.000 -0.000 -0.000 -0.075
 -0.000  0.241 -0.093  0.000  0.000
 -0.000 -0.093  0.241  0.000  0.000
 -0.000  0.000  0.000  0.129 -0.000
 -0.075  0.000  0.000 -0.000  0.237
   spin  2
    eigenvalues: 
  0.129  0.140  0.148  0.295  0.334
    eigenvectors:
  0.000  0.622  0.000  0.378  0.000
  0.000  0.000  0.500  0.000  0.500
  0.000  0.000  0.500  0.000  0.500
  1.000  0.000  0.000  0.000  0.000
  0.000  0.378  0.000  0.622  0.000
    occupations:
  0.199 -0.000 -0.000  0.000 -0.075
 -0.000  0.241 -0.093  0.000  0.000
 -0.000 -0.093  0.241  0.000  0.000
  0.000  0.000  0.000  0.129  0.000
 -0.075  0.000  0.000  0.000  0.237
atomic mag. moment =     0.000000
atom    6   Tr[ns(na)] (up, down, total) =   1.04621  1.04621  2.09241
   spin  1
    eigenvalues: 
  0.129  0.140  0.148  0.295  0.334
    eigenvectors:
  0.000  0.622  0.000  0.378  0.000
  0.000  0.000  0.500  0.000  0.500
  0.000  0.000  0.500  0.000  0.500
  1.000  0.000  0.000  0.000  0.000
  0.000  0.378  0.000  0.622  0.000
    occupations:
  0.199  0.000 -0.000 -0.000  0.075
  0.000  0.241  0.093  0.000 -0.000
 -0.000  0.093  0.241 -0.000  0.000
 -0.000  0.000 -0.000  0.129  0.000
  0.075 -0.000  0.000  0.000  0.237
   spin  2
    eigenvalues: 
  0.129  0.140  0.148  0.295  0.334
    eigenvectors:
  0.000  0.622  0.000  0.378  0.000
  0.000  0.000  0.500  0.000  0.500
  0.000  0.000  0.500  0.000  0.500
  1.000  0.000  0.000  0.000  0.000
  0.000  0.378  0.000  0.622  0.000
    occupations:
  0.199  0.000  0.000 -0.000  0.075
  0.000  0.241  0.093  0.000  0.000
  0.000  0.093  0.241 -0.000 -0.000
 -0.000  0.000 -0.000  0.129 -0.000
  0.075  0.000 -0.000 -0.000  0.237
atomic mag. moment =     0.000000
atom    7   Tr[ns(na)] (up, down, total) =   1.04621  1.04621  2.09241
   spin  1
    eigenvalues: 
  0.129  0.140  0.148  0.295  0.334
    eigenvectors:
  0.000  0.622  0.000  0.378  0.000
  0.000  0.000  0.500  0.000  0.500
  0.000  0.000  0.500  0.000  0.500
  1.000  0.000  0.000  0.000  0.000
  0.000  0.378  0.000  0.622  0.000
    occupations:
  0.199 -0.000 -0.000  0.000 -0.075
 -0.000  0.241 -0.093  0.000  0.000
 -0.000 -0.093  0.241  0.000  0.000
  0.000  0.000  0.000  0.129 -0.000
 -0.075  0.000  0.000 -0.000  0.237
   spin  2
    eigenvalues: 
  0.129  0.140  0.148  0.295  0.334
    eigenvectors:
  0.000  0.622  0.000  0.378  0.000
  0.000  0.000  0.500  0.000  0.500
  0.000  0.000  0.500  0.000  0.500
  1.000  0.000  0.000  0.000  0.000
  0.000  0.378  0.000  0.622  0.000
    occupations:
  0.199 -0.000 -0.000  0.000 -0.075
 -0.000  0.241 -0.093  0.000  0.000
 -0.000 -0.093  0.241  0.000  0.000
  0.000  0.000  0.000  0.129 -0.000
 -0.075  0.000  0.000 -0.000  0.237
atomic mag. moment =    -0.000001
atom    8   Tr[ns(na)] (up, down, total) =   1.04621  1.04621  2.09241
   spin  1
    eigenvalues: 
  0.129  0.140  0.148  0.295  0.334
    eigenvectors:
  0.000  0.622  0.000  0.378  0.000
  0.000  0.000  0.500  0.000  0.500
  0.000  0.000  0.500  0.000  0.500
  1.000  0.000  0.000  0.000  0.000
  0.000  0.378  0.000  0.622  0.000
    occupations:
  0.199 -0.000  0.000 -0.000  0.075
 -0.000  0.241  0.093 -0.000  0.000
  0.000  0.093  0.241  0.000 -0.000
 -0.000 -0.000  0.000  0.129  0.000
  0.075  0.000 -0.000  0.000  0.237
   spin  2
    eigenvalues: 
  0.129  0.140  0.148  0.295  0.334
    eigenvectors:
  0.000  0.622  0.000  0.378  0.000
  0.000  0.000  0.500  0.000  0.500
  0.000  0.000  0.500  0.000  0.500
  1.000  0.000  0.000  0.000  0.000
  0.000  0.378  0.000  0.622  0.000
    occupations:
  0.199 -0.000 -0.000 -0.000  0.075
 -0.000  0.241  0.093 -0.000 -0.000
 -0.000  0.093  0.241  0.000  0.000
 -0.000 -0.000  0.000  0.129 -0.000
  0.075 -0.000  0.000 -0.000  0.237
atomic mag. moment =     0.000000
atom    9   Tr[ns(na)] (up, down, total) =   1.04621  1.04621  2.09241
   spin  1
    eigenvalues: 
  0.129  0.140  0.148  0.295  0.334
    eigenvectors:
  0.000  0.622  0.000  0.378  0.000
  0.000  0.000  0.500  0.000  0.500
  0.000  0.000  0.500  0.000  0.500
  1.000  0.000  0.000  0.000  0.000
  0.000  0.378  0.000  0.622  0.000
    occupations:
  0.199 -0.000 -0.000  0.000 -0.075
 -0.000  0.241 -0.093  0.000  0.000
 -0.000 -0.093  0.241  0.000  0.000
  0.000  0.000  0.000  0.129  0.000
 -0.075  0.000  0.000  0.000  0.237
   spin  2
    eigenvalues: 
  0.129  0.140  0.148  0.295  0.334
    eigenvectors:
  0.000  0.622  0.000  0.378  0.000
  0.000  0.000  0.500  0.000  0.500
  0.000  0.000  0.500  0.000  0.500
  1.000  0.000  0.000  0.000  0.000
  0.000  0.378  0.000  0.622  0.000
    occupations:
  0.199 -0.000 -0.000 -0.000 -0.075
 -0.000  0.241 -0.093  0.000  0.000
 -0.000 -0.093  0.241  0.000  0.000
 -0.000  0.000  0.000  0.129 -0.000
 -0.075  0.000  0.000 -0.000  0.237
atomic mag. moment =     0.000000
atom   10   Tr[ns(na)] (up, down, total) =   1.04621  1.04621  2.09241
   spin  1
    eigenvalues: 
  0.129  0.140  0.148  0.295  0.334
    eigenvectors:
  0.000  0.622  0.000  0.378  0.000
  0.000  0.000  0.500  0.000  0.500
  0.000  0.000  0.500  0.000  0.500
  1.000  0.000  0.000  0.000  0.000
  0.000  0.378  0.000  0.622  0.000
    occupations:
  0.199 -0.000  0.000  0.000  0.075
 -0.000  0.241  0.093  0.000  0.000
  0.000  0.093  0.241 -0.000 -0.000
  0.000  0.000 -0.000  0.129 -0.000
  0.075  0.000 -0.000 -0.000  0.237
   spin  2
    eigenvalues: 
  0.129  0.140  0.148  0.295  0.334
    eigenvectors:
  0.000  0.622  0.000  0.378  0.000
  0.000  0.000  0.500  0.000  0.500
  0.000  0.000  0.500  0.000  0.500
  1.000  0.000  0.000  0.000  0.000
  0.000  0.378  0.000  0.622  0.000
    occupations:
  0.199  0.000  0.000  0.000  0.075
  0.000  0.241  0.093  0.000 -0.000
  0.000  0.093  0.241 -0.000  0.000
  0.000  0.000 -0.000  0.129  0.000
  0.075 -0.000  0.000  0.000  0.237
atomic mag. moment =     0.000000
atom   11   Tr[ns(na)] (up, down, total) =   1.04621  1.04621  2.09241
   spin  1
    eigenvalues: 
  0.129  0.140  0.148  0.295  0.334
    eigenvectors:
  0.000  0.622  0.000  0.378  0.000
  0.000  0.000  0.500  0.000  0.500
  0.000  0.000  0.500  0.000  0.500
  1.000  0.000  0.000  0.000  0.000
  0.000  0.378  0.000  0.622  0.000
    occupations:
  0.199 -0.000 -0.000 -0.000 -0.075
 -0.000  0.241 -0.093  0.000  0.000
 -0.000 -0.093  0.241  0.000  0.000
 -0.000  0.000  0.000  0.129  0.000
 -0.075  0.000  0.000  0.000  0.237
   spin  2
    eigenvalues: 
  0.129  0.140  0.148  0.295  0.334
    eigenvectors:
  0.000  0.622  0.000  0.378  0.000
  0.000  0.000  0.500  0.000  0.500
  0.000  0.000  0.500  0.000  0.500
  1.000  0.000  0.000  0.000  0.000
  0.000  0.378  0.000  0.622  0.000
    occupations:
  0.199 -0.000 -0.000 -0.000 -0.075
 -0.000  0.241 -0.093  0.000  0.000
 -0.000 -0.093  0.241  0.000  0.000
 -0.000  0.000  0.000  0.129  0.000
 -0.075  0.000  0.000  0.000  0.237
atomic mag. moment =    -0.000001
atom   12   Tr[ns(na)] (up, down, total) =   1.04621  1.04621  2.09241
   spin  1
    eigenvalues: 
  0.129  0.140  0.148  0.295  0.334
    eigenvectors:
  0.000  0.622  0.000  0.378  0.000
  0.000  0.000  0.500  0.000  0.500
  0.000  0.000  0.500  0.000  0.500
  1.000  0.000  0.000  0.000  0.000
  0.000  0.378  0.000  0.622  0.000
    occupations:
  0.199  0.000 -0.000  0.000  0.075
  0.000  0.241  0.093 -0.000 -0.000
 -0.000  0.093  0.241  0.000  0.000
  0.000 -0.000  0.000  0.129 -0.000
  0.075 -0.000  0.000 -0.000  0.237
   spin  2
    eigenvalues: 
  0.129  0.140  0.148  0.295  0.334
    eigenvectors:
  0.000  0.622  0.000  0.378  0.000
  0.000  0.000  0.500  0.000  0.500
  0.000  0.000  0.500  0.000  0.500
  1.000  0.000  0.000  0.000  0.000
  0.000  0.378  0.000  0.622  0.000
    occupations:
  0.199 -0.000 -0.000  0.000  0.075
 -0.000  0.241  0.093 -0.000  0.000
 -0.000  0.093  0.241  0.000 -0.000
  0.000 -0.000  0.000  0.129  0.000
  0.075  0.000 -0.000  0.000  0.237
atomic mag. moment =     0.000000
atom   13   Tr[ns(na)] (up, down, total) =   1.04621  1.04621  2.09241
   spin  1
    eigenvalues: 
  0.129  0.140  0.148  0.295  0.334
    eigenvectors:
  0.000  0.622  0.000  0.378  0.000
  0.000  0.000  0.500  0.000  0.500
  0.000  0.000  0.500  0.000  0.500
  1.000  0.000  0.000  0.000  0.000
  0.000  0.378  0.000  0.622  0.000
    occupations:
  0.199 -0.000 -0.000  0.000 -0.075
 -0.000  0.241 -0.093  0.000  0.000
 -0.000 -0.093  0.241  0.000  0.000
  0.000  0.000  0.000  0.129 -0.000
 -0.075  0.000  0.000 -0.000  0.237
   spin  2
    eigenvalues: 
  0.129  0.140  0.148  0.295  0.334
    eigenvectors:
  0.000  0.622  0.000  0.378  0.000
  0.000  0.000  0.500  0.000  0.500
  0.000  0.000  0.500  0.000  0.500
  1.000  0.000  0.000  0.000  0.000
  0.000  0.378  0.000  0.622  0.000
    occupations:
  0.199 -0.000 -0.000  0.000 -0.075
 -0.000  0.241 -0.093  0.000  0.000
 -0.000 -0.093  0.241  0.000  0.000
  0.000  0.000  0.000  0.129 -0.000
 -0.075  0.000  0.000 -0.000  0.237
atomic mag. moment =     0.000001
atom   14   Tr[ns(na)] (up, down, total) =   1.04621  1.04621  2.09241
   spin  1
    eigenvalues: 
  0.129  0.140  0.148  0.295  0.334
    eigenvectors:
  0.000  0.622  0.000  0.378  0.000
  0.000  0.000  0.500  0.000  0.500
  0.000  0.000  0.500  0.000  0.500
  1.000  0.000  0.000  0.000  0.000
  0.000  0.378  0.000  0.622  0.000
    occupations:
  0.199  0.000  0.000 -0.000  0.075
  0.000  0.241  0.093  0.000  0.000
  0.000  0.093  0.241 -0.000  0.000
 -0.000  0.000 -0.000  0.129 -0.000
  0.075  0.000  0.000 -0.000  0.237
   spin  2
    eigenvalues: 
  0.129  0.140  0.148  0.295  0.334
    eigenvectors:
  0.000  0.622  0.000  0.378  0.000
  0.000  0.000  0.500  0.000  0.500
  0.000  0.000  0.500  0.000  0.500
  1.000  0.000  0.000  0.000  0.000
  0.000  0.378  0.000  0.622  0.000
    occupations:
  0.199  0.000  0.000 -0.000  0.075
  0.000  0.241  0.093 -0.000 -0.000
  0.000  0.093  0.241  0.000 -0.000
 -0.000 -0.000  0.000  0.129 -0.000
  0.075 -0.000 -0.000 -0.000  0.237
atomic mag. moment =     0.000000
atom   15   Tr[ns(na)] (up, down, total) =   1.04621  1.04621  2.09241
   spin  1
    eigenvalues: 
  0.129  0.140  0.148  0.295  0.334
    eigenvectors:
  0.000  0.622  0.000  0.378  0.000
  0.000  0.000  0.500  0.000  0.500
  0.000  0.000  0.500  0.000  0.500
  1.000  0.000  0.000  0.000  0.000
  0.000  0.378  0.000  0.622  0.000
    occupations:
  0.199 -0.000 -0.000  0.000 -0.075
 -0.000  0.241 -0.093  0.000  0.000
 -0.000 -0.093  0.241  0.000  0.000
  0.000  0.000  0.000  0.129 -0.000
 -0.075  0.000  0.000 -0.000  0.237
   spin  2
    eigenvalues: 
  0.129  0.140  0.148  0.295  0.334
    eigenvectors:
  0.000  0.622  0.000  0.378  0.000
  0.000  0.000  0.500  0.000  0.500
  0.000  0.000  0.500  0.000  0.500
  1.000  0.000  0.000  0.000  0.000
  0.000  0.378  0.000  0.622  0.000
    occupations:
  0.199 -0.000 -0.000  0.000 -0.075
 -0.000  0.241 -0.093  0.000  0.000
 -0.000 -0.093  0.241  0.000  0.000
  0.000  0.000  0.000  0.129 -0.000
 -0.075  0.000  0.000 -0.000  0.237
atomic mag. moment =    -0.000000
atom   16   Tr[ns(na)] (up, down, total) =   1.04621  1.04621  2.09241
   spin  1
    eigenvalues: 
  0.129  0.140  0.148  0.295  0.334
    eigenvectors:
  0.000  0.622  0.000  0.378  0.000
  0.000  0.000  0.500  0.000  0.500
  0.000  0.000  0.500  0.000  0.500
  1.000  0.000  0.000  0.000  0.000
  0.000  0.378  0.000  0.622  0.000
    occupations:
  0.199 -0.000 -0.000 -0.000  0.075
 -0.000  0.241  0.093 -0.000 -0.000
 -0.000  0.093  0.241  0.000 -0.000
 -0.000 -0.000  0.000  0.129 -0.000
  0.075 -0.000 -0.000 -0.000  0.237
   spin  2
    eigenvalues: 
  0.129  0.140  0.148  0.295  0.334
    eigenvectors:
  0.000  0.622  0.000  0.378  0.000
  0.000  0.000  0.500  0.000  0.500
  0.000  0.000  0.500  0.000  0.500
  1.000  0.000  0.000  0.000  0.000
  0.000  0.378  0.000  0.622  0.000
    occupations:
  0.199 -0.000 -0.000 -0.000  0.075
 -0.000  0.241  0.093  0.000  0.000
 -0.000  0.093  0.241 -0.000  0.000
 -0.000  0.000 -0.000  0.129 -0.000
  0.075  0.000  0.000 -0.000  0.237
atomic mag. moment =     0.000000
atom   17   Tr[ns(na)] (up, down, total) =   2.85117  2.85117  5.70233
   spin  1
    eigenvalues: 
  0.942  0.951  0.958
    eigenvectors:
  0.000  1.000  0.000
  0.500  0.000  0.500
  0.500  0.000  0.500
    occupations:
  0.951 -0.000 -0.000
 -0.000  0.950 -0.008
 -0.000 -0.008  0.950
   spin  2
    eigenvalues: 
  0.942  0.951  0.958
    eigenvectors:
  0.000  1.000  0.000
  0.500  0.000  0.500
  0.500  0.000  0.500
    occupations:
  0.951 -0.000 -0.000
 -0.000  0.950 -0.008
 -0.000 -0.008  0.950
atomic mag. moment =     0.000000
atom   18   Tr[ns(na)] (up, down, total) =   2.85116  2.85117  5.70233
   spin  1
    eigenvalues: 
  0.942  0.951  0.958
    eigenvectors:
  0.000  1.000  0.000
  0.500  0.000  0.500
  0.500  0.000  0.500
    occupations:
  0.951 -0.000 -0.000
 -0.000  0.950 -0.008
 -0.000 -0.008  0.950
   spin  2
    eigenvalues: 
  0.942  0.951  0.958
    eigenvectors:
  0.000  1.000  0.000
  0.500  0.000  0.500
  0.500  0.000  0.500
    occupations:
  0.951 -0.000 -0.000
 -0.000  0.950 -0.008
 -0.000 -0.008  0.950
atomic mag. moment =    -0.000001
atom   19   Tr[ns(na)] (up, down, total) =   2.85116  2.85117  5.70233
   spin  1
    eigenvalues: 
  0.942  0.951  0.958
    eigenvectors:
  0.000  1.000  0.000
  0.500  0.000  0.500
  0.500  0.000  0.500
    occupations:
  0.951  0.000 -0.000
  0.000  0.950  0.008
 -0.000  0.008  0.950
   spin  2
    eigenvalues: 
  0.942  0.951  0.958
    eigenvectors:
  0.000  1.000  0.000
  0.500  0.000  0.500
  0.500  0.000  0.500
    occupations:
  0.951  0.000 -0.000
  0.000  0.950  0.008
 -0.000  0.008  0.950
atomic mag. moment =    -0.000000
atom   20   Tr[ns(na)] (up, down, total) =   2.85116  2.85117  5.70233
   spin  1
    eigenvalues: 
  0.942  0.951  0.958
    eigenvectors:
  0.000  1.000  0.000
  0.500  0.000  0.500
  0.500  0.000  0.500
    occupations:
  0.951 -0.000  0.000
 -0.000  0.950  0.008
  0.000  0.008  0.950
   spin  2
    eigenvalues: 
  0.942  0.951  0.958
    eigenvectors:
  0.000  1.000  0.000
  0.500  0.000  0.500
  0.500  0.000  0.500
    occupations:
  0.951 -0.000  0.000
 -0.000  0.950  0.008
  0.000  0.008  0.950
atomic mag. moment =    -0.000000
atom   21   Tr[ns(na)] (up, down, total) =   2.85116  2.85117  5.70233
   spin  1
    eigenvalues: 
  0.942  0.951  0.958
    eigenvectors:
  0.000  1.000  0.000
  0.500  0.000  0.500
  0.500  0.000  0.500
    occupations:
  0.951 -0.000 -0.000
 -0.000  0.950 -0.008
 -0.000 -0.008  0.950
   spin  2
    eigenvalues: 
  0.942  0.951  0.958
    eigenvectors:
  0.000  1.000  0.000
  0.500  0.000  0.500
  0.500  0.000  0.500
    occupations:
  0.951 -0.000 -0.000
 -0.000  0.950 -0.008
 -0.000 -0.008  0.950
atomic mag. moment =    -0.000001
atom   22   Tr[ns(na)] (up, down, total) =   2.85117  2.85117  5.70233
   spin  1
    eigenvalues: 
  0.942  0.951  0.958
    eigenvectors:
  0.000  1.000  0.000
  0.500  0.000  0.500
  0.500  0.000  0.500
    occupations:
  0.951 -0.000 -0.000
 -0.000  0.950 -0.008
 -0.000 -0.008  0.950
   spin  2
    eigenvalues: 
  0.942  0.951  0.958
    eigenvectors:
  0.000  1.000  0.000
  0.500  0.000  0.500
  0.500  0.000  0.500
    occupations:
  0.951 -0.000 -0.000
 -0.000  0.950 -0.008
 -0.000 -0.008  0.950
atomic mag. moment =    -0.000000
atom   23   Tr[ns(na)] (up, down, total) =   2.85116  2.85117  5.70233
   spin  1
    eigenvalues: 
  0.942  0.951  0.958
    eigenvectors:
  0.000  1.000  0.000
  0.500  0.000  0.500
  0.500  0.000  0.500
    occupations:
  0.951 -0.000  0.000
 -0.000  0.950  0.008
  0.000  0.008  0.950
   spin  2
    eigenvalues: 
  0.942  0.951  0.958
    eigenvectors:
  0.000  1.000  0.000
  0.500  0.000  0.500
  0.500  0.000  0.500
    occupations:
  0.951 -0.000  0.000
 -0.000  0.950  0.008
  0.000  0.008  0.950
atomic mag. moment =    -0.000000
atom   24   Tr[ns(na)] (up, down, total) =   2.85116  2.85117  5.70233
   spin  1
    eigenvalues: 
  0.942  0.951  0.958
    eigenvectors:
  0.000  1.000  0.000
  0.500  0.000  0.500
  0.500  0.000  0.500
    occupations:
  0.951  0.000 -0.000
  0.000  0.950  0.008
 -0.000  0.008  0.950
   spin  2
    eigenvalues: 
  0.942  0.951  0.958
    eigenvectors:
  0.000  1.000  0.000
  0.500  0.000  0.500
  0.500  0.000  0.500
    occupations:
  0.951  0.000 -0.000
  0.000  0.950  0.008
 -0.000  0.008  0.950
atomic mag. moment =    -0.000000
atom   25   Tr[ns(na)] (up, down, total) =   2.85116  2.85116  5.70233
   spin  1
    eigenvalues: 
  0.942  0.951  0.958
    eigenvectors:
  0.000  1.000  0.000
  0.500  0.000  0.500
  0.500  0.000  0.500
    occupations:
  0.951 -0.000 -0.000
 -0.000  0.950 -0.008
 -0.000 -0.008  0.950
   spin  2
    eigenvalues: 
  0.942  0.951  0.958
    eigenvectors:
  0.000  1.000  0.000
  0.500  0.000  0.500
  0.500  0.000  0.500
    occupations:
  0.951 -0.000 -0.000
 -0.000  0.950 -0.008
 -0.000 -0.008  0.950
atomic mag. moment =     0.000000
atom   26   Tr[ns(na)] (up, down, total) =   2.85117  2.85116  5.70233
   spin  1
    eigenvalues: 
  0.942  0.951  0.958
    eigenvectors:
  0.000  1.000  0.000
  0.500  0.000  0.500
  0.500  0.000  0.500
    occupations:
  0.951 -0.000 -0.000
 -0.000  0.950 -0.008
 -0.000 -0.008  0.950
   spin  2
    eigenvalues: 
  0.942  0.951  0.958
    eigenvectors:
  0.000  1.000  0.000
  0.500  0.000  0.500
  0.500  0.000  0.500
    occupations:
  0.951 -0.000 -0.000
 -0.000  0.950 -0.008
 -0.000 -0.008  0.950
atomic mag. moment =     0.000001
atom   27   Tr[ns(na)] (up, down, total) =   2.85117  2.85116  5.70233
   spin  1
    eigenvalues: 
  0.942  0.951  0.958
    eigenvectors:
  0.000  1.000  0.000
  0.500  0.000  0.500
  0.500  0.000  0.500
    occupations:
  0.951  0.000 -0.000
  0.000  0.950  0.008
 -0.000  0.008  0.950
   spin  2
    eigenvalues: 
  0.942  0.951  0.958
    eigenvectors:
  0.000  1.000  0.000
  0.500  0.000  0.500
  0.500  0.000  0.500
    occupations:
  0.951  0.000 -0.000
  0.000  0.950  0.008
 -0.000  0.008  0.950
atomic mag. moment =     0.000000
atom   28   Tr[ns(na)] (up, down, total) =   2.85117  2.85116  5.70233
   spin  1
    eigenvalues: 
  0.942  0.951  0.958
    eigenvectors:
  0.000  1.000  0.000
  0.500  0.000  0.500
  0.500  0.000  0.500
    occupations:
  0.951  0.000 -0.000
  0.000  0.950  0.008
 -0.000  0.008  0.950
   spin  2
    eigenvalues: 
  0.942  0.951  0.958
    eigenvectors:
  0.000  1.000  0.000
  0.500  0.000  0.500
  0.500  0.000  0.500
    occupations:
  0.951  0.000 -0.000
  0.000  0.950  0.008
 -0.000  0.008  0.950
atomic mag. moment =     0.000001
atom   29   Tr[ns(na)] (up, down, total) =   2.85116  2.85116  5.70233
   spin  1
    eigenvalues: 
  0.942  0.951  0.958
    eigenvectors:
  0.000  1.000  0.000
  0.500  0.000  0.500
  0.500  0.000  0.500
    occupations:
  0.951 -0.000 -0.000
 -0.000  0.950 -0.008
 -0.000 -0.008  0.950
   spin  2
    eigenvalues: 
  0.942  0.951  0.958
    eigenvectors:
  0.000  1.000  0.000
  0.500  0.000  0.500
  0.500  0.000  0.500
    occupations:
  0.951 -0.000 -0.000
 -0.000  0.950 -0.008
 -0.000 -0.008  0.950
atomic mag. moment =     0.000000
atom   30   Tr[ns(na)] (up, down, total) =   2.85117  2.85116  5.70233
   spin  1
    eigenvalues: 
  0.942  0.951  0.958
    eigenvectors:
  0.000  1.000  0.000
  0.500  0.000  0.500
  0.500  0.000  0.500
    occupations:
  0.951 -0.000 -0.000
 -0.000  0.950 -0.008
 -0.000 -0.008  0.950
   spin  2
    eigenvalues: 
  0.942  0.951  0.958
    eigenvectors:
  0.000  1.000  0.000
  0.500  0.000  0.500
  0.500  0.000  0.500
    occupations:
  0.951 -0.000 -0.000
 -0.000  0.950 -0.008
 -0.000 -0.008  0.950
atomic mag. moment =     0.000000
atom   31   Tr[ns(na)] (up, down, total) =   2.85117  2.85116  5.70233
   spin  1
    eigenvalues: 
  0.942  0.951  0.958
    eigenvectors:
  0.000  1.000  0.000
  0.500  0.000  0.500
  0.500  0.000  0.500
    occupations:
  0.951 -0.000  0.000
 -0.000  0.950  0.008
  0.000  0.008  0.950
   spin  2
    eigenvalues: 
  0.942  0.951  0.958
    eigenvectors:
  0.000  1.000  0.000
  0.500  0.000  0.500
  0.500  0.000  0.500
    occupations:
  0.951 -0.000  0.000
 -0.000  0.950  0.008
  0.000  0.008  0.950
atomic mag. moment =     0.000000
atom   32   Tr[ns(na)] (up, down, total) =   2.85117  2.85116  5.70233
   spin  1
    eigenvalues: 
  0.942  0.951  0.958
    eigenvectors:
  0.000  1.000  0.000
  0.500  0.000  0.500
  0.500  0.000  0.500
    occupations:
  0.951 -0.000  0.000
 -0.000  0.950  0.008
  0.000  0.008  0.950
   spin  2
    eigenvalues: 
  0.942  0.951  0.958
    eigenvectors:
  0.000  1.000  0.000
  0.500  0.000  0.500
  0.500  0.000  0.500
    occupations:
  0.951 -0.000  0.000
 -0.000  0.950  0.008
  0.000  0.008  0.950
atomic mag. moment =     0.000001
atom   33   Tr[ns(na)] (up, down, total) =   2.85116  2.85116  5.70233
   spin  1
    eigenvalues: 
  0.942  0.951  0.958
    eigenvectors:
  0.000  1.000  0.000
  0.500  0.000  0.500
  0.500  0.000  0.500
    occupations:
  0.951 -0.000 -0.000
 -0.000  0.950 -0.008
 -0.000 -0.008  0.950
   spin  2
    eigenvalues: 
  0.942  0.951  0.958
    eigenvectors:
  0.000  1.000  0.000
  0.500  0.000  0.500
  0.500  0.000  0.500
    occupations:
  0.951 -0.000 -0.000
 -0.000  0.950 -0.008
 -0.000 -0.008  0.950
atomic mag. moment =     0.000000
atom   34   Tr[ns(na)] (up, down, total) =   2.85117  2.85116  5.70233
   spin  1
    eigenvalues: 
  0.942  0.951  0.958
    eigenvectors:
  0.000  1.000  0.000
  0.500  0.000  0.500
  0.500  0.000  0.500
    occupations:
  0.951 -0.000 -0.000
 -0.000  0.950 -0.008
 -0.000 -0.008  0.950
   spin  2
    eigenvalues: 
  0.942  0.951  0.958
    eigenvectors:
  0.000  1.000  0.000
  0.500  0.000  0.500
  0.500  0.000  0.500
    occupations:
  0.951 -0.000 -0.000
 -0.000  0.950 -0.008
 -0.000 -0.008  0.950
atomic mag. moment =     0.000001
atom   35   Tr[ns(na)] (up, down, total) =   2.85117  2.85116  5.70233
   spin  1
    eigenvalues: 
  0.942  0.951  0.958
    eigenvectors:
  0.000  1.000  0.000
  0.500  0.000  0.500
  0.500  0.000  0.500
    occupations:
  0.951 -0.000  0.000
 -0.000  0.950  0.008
  0.000  0.008  0.950
   spin  2
    eigenvalues: 
  0.942  0.951  0.958
    eigenvectors:
  0.000  1.000  0.000
  0.500  0.000  0.500
  0.500  0.000  0.500
    occupations:
  0.951 -0.000  0.000
 -0.000  0.950  0.008
  0.000  0.008  0.950
atomic mag. moment =     0.000001
atom   36   Tr[ns(na)] (up, down, total) =   2.85117  2.85116  5.70233
   spin  1
    eigenvalues: 
  0.942  0.951  0.958
    eigenvectors:
  0.000  1.000  0.000
  0.500  0.000  0.500
  0.500  0.000  0.500
    occupations:
  0.951 -0.000  0.000
 -0.000  0.950  0.008
  0.000  0.008  0.950
   spin  2
    eigenvalues: 
  0.942  0.951  0.958
    eigenvectors:
  0.000  1.000  0.000
  0.500  0.000  0.500
  0.500  0.000  0.500
    occupations:
  0.951 -0.000  0.000
 -0.000  0.950  0.008
  0.000  0.008  0.950
atomic mag. moment =     0.000000
atom   37   Tr[ns(na)] (up, down, total) =   2.85116  2.85116  5.70233
   spin  1
    eigenvalues: 
  0.942  0.951  0.958
    eigenvectors:
  0.000  1.000  0.000
  0.500  0.000  0.500
  0.500  0.000  0.500
    occupations:
  0.951 -0.000 -0.000
 -0.000  0.950 -0.008
 -0.000 -0.008  0.950
   spin  2
    eigenvalues: 
  0.942  0.951  0.958
    eigenvectors:
  0.000  1.000  0.000
  0.500  0.000  0.500
  0.500  0.000  0.500
    occupations:
  0.951 -0.000 -0.000
 -0.000  0.950 -0.008
 -0.000 -0.008  0.950
atomic mag. moment =     0.000000
atom   38   Tr[ns(na)] (up, down, total) =   2.85117  2.85116  5.70233
   spin  1
    eigenvalues: 
  0.942  0.951  0.958
    eigenvectors:
  0.000  1.000  0.000
  0.500  0.000  0.500
  0.500  0.000  0.500
    occupations:
  0.951 -0.000 -0.000
 -0.000  0.950 -0.008
 -0.000 -0.008  0.950
   spin  2
    eigenvalues: 
  0.942  0.951  0.958
    eigenvectors:
  0.000  1.000  0.000
  0.500  0.000  0.500
  0.500  0.000  0.500
    occupations:
  0.951 -0.000 -0.000
 -0.000  0.950 -0.008
 -0.000 -0.008  0.950
atomic mag. moment =     0.000000
atom   39   Tr[ns(na)] (up, down, total) =   2.85117  2.85116  5.70233
   spin  1
    eigenvalues: 
  0.942  0.951  0.958
    eigenvectors:
  0.000  1.000  0.000
  0.500  0.000  0.500
  0.500  0.000  0.500
    occupations:
  0.951  0.000 -0.000
  0.000  0.950  0.008
 -0.000  0.008  0.950
   spin  2
    eigenvalues: 
  0.942  0.951  0.958
    eigenvectors:
  0.000  1.000  0.000
  0.500  0.000  0.500
  0.500  0.000  0.500
    occupations:
  0.951  0.000 -0.000
  0.000  0.950  0.008
 -0.000  0.008  0.950
atomic mag. moment =     0.000001
atom   40   Tr[ns(na)] (up, down, total) =   2.85117  2.85116  5.70233
   spin  1
    eigenvalues: 
  0.942  0.951  0.958
    eigenvectors:
  0.000  1.000  0.000
  0.500  0.000  0.500
  0.500  0.000  0.500
    occupations:
  0.951  0.000 -0.000
  0.000  0.950  0.008
 -0.000  0.008  0.950
   spin  2
    eigenvalues: 
  0.942  0.951  0.958
    eigenvectors:
  0.000  1.000  0.000
  0.500  0.000  0.500
  0.500  0.000  0.500
    occupations:
  0.951  0.000 -0.000
  0.000  0.950  0.008
 -0.000  0.008  0.950
atomic mag. moment =     0.000000
atom   41   Tr[ns(na)] (up, down, total) =   2.85117  2.85116  5.70233
   spin  1
    eigenvalues: 
  0.942  0.951  0.958
    eigenvectors:
  0.000  1.000  0.000
  0.500  0.000  0.500
  0.500  0.000  0.500
    occupations:
  0.951 -0.000 -0.000
 -0.000  0.950 -0.008
 -0.000 -0.008  0.950
   spin  2
    eigenvalues: 
  0.942  0.951  0.958
    eigenvectors:
  0.000  1.000  0.000
  0.500  0.000  0.500
  0.500  0.000  0.500
    occupations:
  0.951 -0.000 -0.000
 -0.000  0.950 -0.008
 -0.000 -0.008  0.950
atomic mag. moment =     0.000001
atom   42   Tr[ns(na)] (up, down, total) =   2.85117  2.85117  5.70233
   spin  1
    eigenvalues: 
  0.942  0.951  0.958
    eigenvectors:
  0.000  1.000  0.000
  0.500  0.000  0.500
  0.500  0.000  0.500
    occupations:
  0.951 -0.000 -0.000
 -0.000  0.950 -0.008
 -0.000 -0.008  0.950
   spin  2
    eigenvalues: 
  0.942  0.951  0.958
    eigenvectors:
  0.000  1.000  0.000
  0.500  0.000  0.500
  0.500  0.000  0.500
    occupations:
  0.951 -0.000 -0.000
 -0.000  0.950 -0.008
 -0.000 -0.008  0.950
atomic mag. moment =    -0.000000
atom   43   Tr[ns(na)] (up, down, total) =   2.85116  2.85116  5.70233
   spin  1
    eigenvalues: 
  0.942  0.951  0.958
    eigenvectors:
  0.000  1.000  0.000
  0.500  0.000  0.500
  0.500  0.000  0.500
    occupations:
  0.951 -0.000  0.000
 -0.000  0.950  0.008
  0.000  0.008  0.950
   spin  2
    eigenvalues: 
  0.942  0.951  0.958
    eigenvectors:
  0.000  1.000  0.000
  0.500  0.000  0.500
  0.500  0.000  0.500
    occupations:
  0.951  0.000 -0.000
  0.000  0.950  0.008
 -0.000  0.008  0.950
atomic mag. moment =     0.000000
atom   44   Tr[ns(na)] (up, down, total) =   2.85116  2.85116  5.70233
   spin  1
    eigenvalues: 
  0.942  0.951  0.958
    eigenvectors:
  0.000  1.000  0.000
  0.500  0.000  0.500
  0.500  0.000  0.500
    occupations:
  0.951  0.000 -0.000
  0.000  0.950  0.008
 -0.000  0.008  0.950
   spin  2
    eigenvalues: 
  0.942  0.951  0.958
    eigenvectors:
  0.000  1.000  0.000
  0.500  0.000  0.500
  0.500  0.000  0.500
    occupations:
  0.951 -0.000  0.000
 -0.000  0.950  0.008
  0.000  0.008  0.950
atomic mag. moment =     0.000000
[...]
    43.4307  43.4307  43.4307  43.4307  43.4307  43.4307  43.4308  43.4308
    43.7121  43.7121  43.7121  43.7121  43.7121  43.7121  43.7122  43.7122
    44.5854  44.5854  44.5854  44.5854  44.5855  44.5855  44.5855  44.5855
    44.7199  44.7199  44.7199  44.7199  44.7200  44.7200  44.7200  44.7200
    45.8680  45.8680  45.8680  45.8680  45.8681  45.8681  45.8681  45.8681
    46.0994  46.0995  46.0995  46.0995  46.0995  46.0995  46.0996  46.0996
    46.2055  46.2055  46.2056  46.2056  46.2056  46.2056  46.2057  46.2057
    46.6777  46.6777  46.6778  46.6778  46.6778  46.6778  46.6778  46.6778

          k = 0.2500-0.2500 0.0000 ( 14835 PWs)   bands (ev):

   -48.1845 -48.1810 -48.1809 -48.1794 -48.1774 -48.1760 -48.1758 -48.1724
   -48.1388 -48.1388 -48.1387 -48.1383 -48.1383 -48.1382 -48.1382 -48.1382
   -24.7319 -24.7316 -24.7291 -24.7286 -24.7282 -24.7275 -24.7248 -24.7242
   -24.5007 -24.4936 -24.4845 -24.4803 -24.4800 -24.4759 -24.4563 -24.4561
   -24.3745 -24.3740 -24.3526 -24.3506 -24.3502 -24.3500 -24.3497 -24.3497
   -24.3496 -24.3496 -24.3492 -24.3491 -24.3490 -24.3467 -24.3419 -24.3406
   -24.3377 -24.3370 -24.3368 -24.3364 -24.3342 -24.3333 -24.3328 -24.3299
   -24.2874 -24.2798 -24.2797 -24.2765 -24.2720 -24.2690 -24.2689 -24.2614
    -9.2770  -8.9473  -8.9472  -8.8339  -8.6498  -8.5009  -8.5009  -8.2967
    -8.2957  -8.2954  -8.2324  -8.2171  -8.2168  -8.2079  -8.1236  -8.0664
    -7.8863  -7.8143  -7.7394  -7.7233  -7.7230  -7.7088  -7.7085  -7.7001
    -7.6719  -7.6388  -7.6385  -7.6227  -7.6225  -7.6093  -7.6013  -7.5274
     3.1827   3.2874   3.4986   3.4989   3.5301   3.6111   3.8092   3.8095
     3.8239   3.8241   3.8574   3.9894   3.9895   4.1156   4.2141   4.2567
     4.3608   4.4587   4.6280   4.7897   4.8179   4.8451   4.8454   4.8503
     4.8593   4.8716   4.8720   4.8731   4.8946   4.9081   4.9083   4.9514
     4.9515   4.9968   4.9971   5.0652   5.1711   5.1917   5.1917   5.3832
     5.5174   5.7921   5.7924   5.8948   5.8951   5.9653   5.9674   6.0125
     6.0125   6.0344   6.0642   6.0647   6.0793   6.0819   6.1109   6.1111
     6.2376   6.3043   6.3045   6.4999   6.6792   6.6792   6.6848   6.7393
     6.7396   6.8591   6.9364   7.0019   7.0323   7.0383   7.0384   7.1023
     7.1023   7.2250   7.2773   7.2820   7.3848   7.4572   7.4576   7.4577
     7.4742   7.4744   7.4920   7.6492   7.6495   7.6882   7.6883   7.7141
     7.7320   7.8625   7.9417   7.9710   8.0673   8.1173   8.1175   8.5558
    10.6971  10.6974  10.7325  10.7331  10.8509  10.9328  10.9328  11.0611
    11.0613  11.0715  11.1836  11.2153  11.2256  11.2402  11.2733  11.3900
    11.3901  11.4197  11.4200  11.4204  11.4215  11.4268  11.4780  11.6276
    11.6281  11.8198  11.8271  11.8429  11.8434  11.8485  11.8487  11.8566
    11.8609  11.9705  11.9705  11.9813  12.2641  12.3092  12.3616  12.3825
    12.3828  12.5597  12.5913  12.6071  12.6073  12.6174  12.6177  13.0372
    13.0716  13.5152  13.5155  13.6263  13.7805  13.7918  13.7918  13.9072
    13.9074  14.0667  14.0922  14.3117  14.5732  14.7491  14.7649  15.0648
    15.0650  15.1569  15.1571  15.2213  15.2968  15.3004  15.3008  15.3027
    15.3107  15.3109  15.3147  15.4293  15.4363  15.6229  15.6233  15.7701
    16.8570  18.0452  18.0452  19.0200  19.5237  19.5237  19.9008  20.2938
    20.3489  20.4063  20.6021  20.6021  20.7249  20.7988  20.9466  20.9468
    21.0080  21.2006  21.2700  21.2701  21.8980  22.2404  22.3102  22.3102
    22.6943  22.6943  22.9212  22.9213  22.9276  23.1481  23.1906  23.2599
    23.3600  23.5149  23.7218  23.7791  23.7791  24.0126  24.2584  24.2758
    24.4542  24.4543  24.6626  24.6627  24.6725  24.6726  24.7074  25.0050
    25.3751  25.4950  25.4950  25.5189  25.5731  25.9853  26.0124  26.0126
    26.1108  26.1180  26.1180  26.4746  26.4747  26.4895  26.4895  26.5042
    26.5445  26.5553  26.7656  26.9210  27.1236  27.1236  27.2553  27.2553
    27.2984  27.4975  27.5048  27.7282  28.1055  28.1055  28.1599  28.3534
    28.3895  28.3895  28.4363  28.6849  29.4106  29.4107  29.4825  29.4825
    29.6160  30.0379  30.1231  30.1632  30.1774  30.2218  30.5781  30.6677
    30.6677  30.7828  30.8646  30.8916  30.8916  31.0304  31.0305  31.1944
    31.2130  31.2131  31.2433  31.2916  31.3438  31.6770  31.9038  31.9134
    31.9136  31.9369  31.9370  32.0146  32.4399  32.4399  32.6359  32.7904
    33.1508  33.2198  33.2236  33.4038  33.5877  33.5877  33.7482  33.7483
    33.9496  33.9670  33.9883  33.9883  34.0663  34.3569  34.3570  34.5523
    34.8418  34.8923  34.9466  34.9635  34.9635  35.1331  35.1332  35.4821
    35.6622  35.8550  35.9176  36.0365  36.0366  36.2425  36.2426  36.2752
    36.3430  36.3430  36.3664  36.4436  36.4893  36.4893  36.6275  36.6276
    36.7778  36.8964  37.0118  37.2721  37.2721  37.3983  37.6747  37.6747
    37.7121  38.0494  38.3568  38.4887  38.6149  38.6149  38.9386  38.9436
    39.4261  39.4486  39.5003  39.5003  39.5434  39.8247  39.8247  39.8644
    39.9418  40.1115  40.1115  40.1201  40.1994  40.1994  40.2209  40.2548
    40.3600  40.3600  40.3784  40.5219  40.5220  40.5647  40.6008  40.6008
    40.6074  40.6868  40.8420  40.8443  40.9450  40.9503  40.9504  40.9709
    41.2951  41.4945  41.5204  41.6181  41.6181  41.7421  41.7711  42.0390
    42.2372  42.2372  42.3252  42.5843  42.6298  42.8822  42.8822  43.0013
    43.0014  43.0169  43.2600  43.4302  43.4566  43.4567  43.4765  43.4766
    43.5976  43.7094  43.7095  43.7439  43.8235  44.0459  44.0604  44.0605
    44.1349  44.4417  44.4423  44.4423  44.5921  44.7160  44.7160  44.7567
    44.9620  44.9620  45.1204  45.1745  45.1788  45.1789  45.1889  45.2741
    45.3179  45.3485  45.4019  45.5430  45.5886  45.5887  45.6946  45.6947
    45.8836  45.8836  45.9976  46.2501  46.3719  46.3720  46.3842  46.6396
    46.8440  46.9201  46.9888  47.0203  47.0204  47.1073  47.3361  47.5115

          k = 0.2500-0.2500 0.3914 ( 14814 PWs)   bands (ev):

   -48.1782 -48.1750 -48.1749 -48.1735 -48.1716 -48.1703 -48.1702 -48.1670
   -48.1467 -48.1454 -48.1452 -48.1447 -48.1439 -48.1434 -48.1433 -48.1420
   -24.6694 -24.6693 -24.6674 -24.6648 -24.6645 -24.6642 -24.6605 -24.6582
   -24.4833 -24.4766 -24.4686 -24.4647 -24.4644 -24.4605 -24.4417 -24.4414
   -24.3870 -24.3835 -24.3818 -24.3814 -24.3783 -24.3765 -24.3762 -24.3742
   -24.3648 -24.3645 -24.3615 -24.3577 -24.3576 -24.3571 -24.3470 -24.3413
   -24.3379 -24.3374 -24.3341 -24.3340 -24.3316 -24.3313 -24.3307 -24.3306
   -24.3298 -24.3288 -24.3273 -24.3271 -24.3259 -24.3254 -24.3254 -24.3244
    -9.1179  -8.8062  -8.8061  -8.6954  -8.5200  -8.3787  -8.3787  -8.2888
    -8.2747  -8.2744  -8.1897  -8.1867  -8.1615  -8.1612  -8.0489  -7.9972
    -7.9885  -7.9583  -7.8463  -7.8461  -7.8186  -7.7781  -7.7778  -7.7528
    -7.7422  -7.7368  -7.7366  -7.6940  -7.6937  -7.6852  -7.6783  -7.6074
     3.3926   3.4745   3.6928   3.6930   3.7220   3.7987   4.0281   4.0283
     4.0337   4.0816   4.0817   4.1902   4.2213   4.2213   4.3011   4.3558
     4.3609   4.4648   4.4923   4.5191   4.5424   4.5425   4.5662   4.5680
     4.5971   4.5974   4.6596   4.7303   4.7305   4.7739   4.8265   4.8588
     4.8591   5.0513   5.0514   5.1888   5.1894   5.3109   5.3109   5.4311
     5.4665   5.6142   5.6143   5.8184   5.8515   5.9970   5.9971   6.0944
     6.0945   6.1146   6.1616   6.1619   6.3026   6.3335   6.3345   6.4225
     6.4226   6.4401   6.4403   6.5023   6.5030   6.5326   6.6178   6.6519
     6.7466   6.7469   6.7534   6.7902   6.7902   6.9260   7.0052   7.0052
     7.0223   7.0986   7.1163   7.1478   7.1478   7.2024   7.2157   7.3086
     7.3161   7.3596   7.3597   7.6146   7.7144   7.7155   7.7454   7.7456
     7.7918   7.8922   7.8922   7.9071   7.9274   8.0770   8.0771   8.4235
    10.7479  10.7482  10.9080  10.9803  11.0231  11.0260  11.1433  11.2300
    11.2301  11.2607  11.2608  11.3094  11.3308  11.4176  11.4178  11.4234
    11.4815  11.5111  11.5306  11.5306  11.5336  11.5443  11.6021  11.7263
    11.7623  11.7626  11.8056  11.8059  11.8326  11.8674  11.9090  11.9365
    11.9522  11.9523  11.9536  11.9537  12.1441  12.1843  12.2661  12.3100
    12.3102  12.4108  12.4948  12.5036  12.5037  12.5122  12.5124  12.9133
    13.2743  13.5201  13.5204  13.7013  13.8439  13.8440  13.8442  13.9362
    13.9364  14.1241  14.1729  14.3647  14.5133  14.5729  14.5731  14.7223
    14.7372  14.9052  15.0389  15.0393  15.1126  15.1702  15.1705  15.1849
    15.1852  15.1953  15.2121  15.2842  15.2845  15.5155  15.5158  15.6757
    17.3271  18.4530  18.4530  19.3010  19.6507  19.8937  19.8938  20.0428
    20.0429  20.1344  20.1741  20.7050  20.8524  20.9696  21.0649  21.0650
    21.5215  21.7144  21.7144  22.0727  22.2300  22.4865  22.5967  22.5968
    22.6141  23.0278  23.0278  23.0564  23.1907  23.4328  23.4441  23.4441
    23.6959  23.7532  23.9174  23.9174  23.9175  23.9766  23.9981  24.1066
    24.2033  24.2035  24.4797  24.4797  24.5836  24.6411  24.6411  25.0917
    25.2093  25.2094  25.4543  25.6258  25.7674  25.7674  25.8966  26.1922
    26.2062  26.2064  26.2286  26.3707  26.3786  26.4083  26.4084  26.4582
    26.4872  26.6104  26.6329  26.6329  26.9002  27.0151  27.0266  27.0267
    27.3107  27.3107  27.3444  27.4384  27.4385  27.6618  27.8000  27.9476
    28.2822  28.2822  28.2876  28.5473  28.5473  28.7606  28.7621  28.9596
    29.2383  29.2393  29.7473  29.7473  29.8207  30.2187  30.2187  30.6178
    30.7258  30.7258  30.8894  31.0110  31.0111  31.2718  31.3251  31.4004
    31.4610  31.6147  31.6702  31.7663  31.7663  31.9787  31.9787  32.2083
    32.2083  32.3337  32.4023  32.6821  32.7548  32.7548  32.7667  32.7905
    33.2728  33.3190  33.3346  33.4280  33.7953  33.7953  33.8306  34.0509
    34.0509  34.2467  34.2467  34.4421  34.4421  34.5279  34.5752  34.6888
    34.7425  34.7487  34.9232  34.9232  34.9496  35.2244  35.2244  35.4955
    35.4956  35.5825  35.6149  35.6346  35.7911  35.8262  36.0546  36.1904
    36.1904  36.3141  36.3141  36.6989  36.6990  36.7055  36.7183  36.8842
    37.0986  37.0987  37.1517  37.1518  37.3060  37.3966  37.6637  37.6706
    37.7284  37.7284  37.9267  37.9362  37.9362  38.1003  38.1736  38.3602
    38.3658  38.3659  38.4166  38.4167  38.4846  38.6682  39.1440  39.2302
    39.2742  39.4541  39.8338  39.8338  39.8431  39.8431  40.0554  40.2231
    40.3553  40.3554  40.3696  40.5476  40.7501  40.9498  41.0352  41.1643
    41.1643  41.3819  41.3819  41.4953  41.5899  41.5899  41.6738  41.7172
    41.7599  41.7600  41.9145  42.2512  42.3403  42.4606  42.5258  42.6055
    42.6164  42.7579  42.7579  42.8367  42.8862  42.8862  42.9418  43.1386
    43.2297  43.2814  43.2814  43.3694  43.3694  43.4498  43.4983  43.5387
    43.5768  43.5768  43.9867  44.3772  44.5571  44.5572  44.5871  44.6413
    44.6414  44.6816  44.6817  44.7741  44.8331  44.8585  44.9766  44.9766
    45.1361  45.3281  45.3937  45.4210  45.4546  45.4548  45.4981  45.6298
    45.6298  45.7579  45.8020  45.8020  45.9777  46.0002  46.0002  46.0212
    46.2894  46.2894  46.3970  46.4037  46.5604  46.5604  46.5655  46.5729
    46.6361  46.7690  46.7691  46.9024  46.9568  46.9569  47.0653  47.1376

          k = 0.2500-0.2500-0.7828 ( 14778 PWs)   bands (ev):

   -48.1628 -48.1628 -48.1603 -48.1603 -48.1602 -48.1602 -48.1592 -48.1592
   -48.1577 -48.1577 -48.1567 -48.1567 -48.1566 -48.1566 -48.1542 -48.1542
   -24.5169 -24.5169 -24.5168 -24.5168 -24.5160 -24.5159 -24.5093 -24.5093
   -24.5088 -24.5088 -24.5086 -24.5085 -24.5045 -24.5045 -24.4980 -24.4979
   -24.4389 -24.4389 -24.4335 -24.4335 -24.4233 -24.4233 -24.4208 -24.4208
   -24.4205 -24.4204 -24.4174 -24.4174 -24.4016 -24.4016 -24.4014 -24.4014
   -24.3477 -24.3477 -24.3472 -24.3472 -24.3358 -24.3358 -24.3338 -24.3338
   -24.3338 -24.3338 -24.3319 -24.3319 -24.3260 -24.3260 -24.3230 -24.3230
    -8.7145  -8.7145  -8.4741  -8.4741  -8.4739  -8.4739  -8.3614  -8.3614
    -8.2170  -8.2170  -8.1258  -8.1258  -8.1257  -8.1257  -7.9485  -7.9485
    -7.9023  -7.9023  -7.9021  -7.9021  -7.8916  -7.8916  -7.8676  -7.8676
    -7.8574  -7.8574  -7.8468  -7.8468  -7.8465  -7.8465  -7.7990  -7.7990
     3.9200   3.9200   3.9351   3.9351   4.1534   4.1534   4.1537   4.1537
     4.1862   4.1862   4.1939   4.1939   4.2522   4.2522   4.2799   4.2799
     4.3683   4.3683   4.3684   4.3684   4.4287   4.4287   4.4684   4.4684
     4.4686   4.4686   4.6737   4.6737   4.6739   4.6739   4.7253   4.7253
     5.1353   5.1353   5.1780   5.1781   5.1783   5.1783   5.3755   5.3755
     5.5593   5.5593   5.5595   5.5595   5.6667   5.6667   5.9055   5.9055
     5.9056   5.9056   5.9606   5.9606   5.9882   5.9882   6.3532   6.3532
     6.4847   6.4848   6.4849   6.4850   6.7300   6.7300   6.7302   6.7302
     6.7855   6.7855   6.8323   6.8323   6.9158   6.9158   6.9844   6.9844
     7.1316   7.1316   7.1317   7.1317   7.1512   7.1512   7.2517   7.2517
     7.2871   7.2871   7.3646   7.3646   7.5382   7.5382   7.5384   7.5384
     7.6422   7.6422   7.9612   7.9612   7.9612   7.9612   8.2508   8.2508
    10.8845  10.8845  11.0993  11.0993  11.0995  11.0995  11.3504  11.3504
    11.4022  11.4022  11.4173  11.4174  11.5162  11.5162  11.5164  11.5164
    11.6509  11.6509  11.7072  11.7072  11.7075  11.7075  11.7117  11.7117
    11.7225  11.7226  11.8190  11.8190  11.9172  11.9173  11.9326  11.9327
    11.9420  11.9420  11.9422  11.9422  12.1371  12.1371  12.1373  12.1373
    12.1378  12.1378  12.3626  12.3626  12.3628  12.3628  12.5950  12.5950
    13.6508  13.6508  13.7453  13.7453  13.7456  13.7456  14.0538  14.0538
    14.0539  14.0540  14.0765  14.0765  14.3766  14.3766  14.4099  14.4099
    14.8242  14.8242  14.8307  14.8307  14.9274  14.9274  14.9277  14.9277
    15.0598  15.0598  15.3567  15.3567  15.3569  15.3569  15.3570  15.3570
    18.3934  18.3934  19.2511  19.2511  19.2512  19.2512  19.8121  19.8121
    20.5160  20.5160  20.5822  20.5823  20.5823  20.5823  21.8154  21.8154
    22.1482  22.1482  22.2362  22.2362  22.7284  22.7284  22.7284  22.7285
    22.9673  22.9674  23.4941  23.4941  23.5102  23.5102  23.7658  23.7658
    23.7659  23.7659  23.9102  23.9102  23.9102  23.9102  23.9187  23.9187
    24.0069  24.0069  24.2875  24.2875  24.2875  24.2875  25.3286  25.3286
    25.3287  25.3287  25.3369  25.3370  25.5926  25.5926  25.7811  25.7811
    25.9332  25.9332  25.9906  25.9906  25.9906  25.9906  26.4084  26.4084
    26.5841  26.5841  26.5841  26.5841  26.8034  26.8034  27.0568  27.0568
    27.0998  27.0998  27.2106  27.2106  27.7255  27.7255  27.7256  27.7256
    27.9178  27.9178  28.3887  28.3887  28.4457  28.4457  28.4458  28.4458
    29.1458  29.1458  29.3351  29.3351  29.3351  29.3351  30.3277  30.3277
    30.3977  30.3977  30.3978  30.3978  30.9200  30.9200  31.3203  31.3204
    31.8986  31.8986  32.3272  32.3272  32.3272  32.3272  32.7970  32.7970
    33.0427  33.0427  33.0676  33.0676  33.1061  33.1061  33.1112  33.1112
    33.2879  33.2879  33.2879  33.2879  33.8584  33.8584  33.8584  33.8584
    34.0053  34.0053  34.4503  34.4504  34.4504  34.4504  34.4997  34.4997
    35.0133  35.0133  35.0133  35.0133  35.0396  35.0396  35.1797  35.1797
    35.7104  35.7104  35.7105  35.7105  35.7359  35.7359  36.3125  36.3125
    36.3126  36.3126  36.3557  36.3557  36.5302  36.5302  36.8680  36.8680
    36.9286  36.9286  36.9287  36.9287  36.9343  36.9343  37.2858  37.2858
    37.3019  37.3019  37.6736  37.6736  37.8525  37.8525  37.8526  37.8526
    38.0901  38.0901  38.0902  38.0902  38.3816  38.3816  39.2145  39.2145
    39.7463  39.7463  39.7463  39.7463  39.8828  39.8828  40.2584  40.2584
    40.4603  40.4603  40.5380  40.5380  40.5435  40.5435  40.5435  40.5435
    40.8518  40.8518  40.8712  40.8712  41.5253  41.5253  41.5254  41.5254
    42.4388  42.4389  42.4389  42.4389  42.4845  42.4845  42.7277  42.7277
    43.0321  43.0321  43.6631  43.6631  43.7380  43.7380  43.7470  43.7470
    43.7470  43.7470  43.9778  43.9778  43.9778  43.9778  44.0011  44.0011
    44.1281  44.1281  44.1506  44.1506  44.4749  44.4749  44.8327  44.8327
    44.8327  44.8327  45.0057  45.0057  45.0058  45.0058  45.3323  45.3323
    45.4700  45.4700  45.6181  45.6181  45.6181  45.6181  45.7231  45.7232
    45.8192  45.8192  45.9707  45.9707  45.9708  45.9708  46.0243  46.0243
    46.3044  46.3044  46.4798  46.4798  46.4798  46.4799  46.5708  46.5709
    46.5979  46.5980  46.6317  46.6317  46.6317  46.6317  46.8400  46.8400

     the Fermi energy is     8.6570 ev

!    total energy              =   -2931.97779732 Ry
     Harris-Foulkes estimate   =   -2931.97779750 Ry
     estimated scf accuracy    <       0.00000019 Ry

     The total energy is the sum of the following terms:

     one-electron contribution =   -1044.11581967 Ry
     hartree contribution      =     704.64924234 Ry
     xc contribution           =    -505.96827686 Ry
     ewald contribution        =   -2086.54328247 Ry
     Hubbard energy            =       0.00000000 Ry
     smearing contrib. (-TS)   =       0.00033933 Ry

     total magnetization       =     0.00 Bohr mag/cell
     absolute magnetization    =     0.00 Bohr mag/cell

     convergence has been achieved in  11 iterations

     Writing output data file pwscf.save

     init_run     :    271.19s CPU    367.30s WALL (       1 calls)
     electrons    :  13626.04s CPU  16271.58s WALL (       1 calls)

     Called by init_run:
     wfcinit      :    259.20s CPU    354.25s WALL (       1 calls)
     potinit      :      1.35s CPU      1.81s WALL (       1 calls)

     Called by electrons:
     c_bands      :  12661.74s CPU  14769.02s WALL (      11 calls)
     sum_band     :    838.54s CPU   1360.38s WALL (      11 calls)
     v_of_rho     :      6.22s CPU      9.37s WALL (      12 calls)
     newd         :    124.79s CPU    133.72s WALL (      12 calls)
     mix_rho      :      0.99s CPU      1.71s WALL (      11 calls)

     Called by c_bands:
     init_us_2    :      4.99s CPU      5.16s WALL (    1008 calls)
     cegterg      :  12638.15s CPU  14679.38s WALL (     462 calls)

     Called by *egterg:
     h_psi        :   3315.19s CPU   4904.88s WALL (    1576 calls)
     s_psi        :    332.45s CPU    332.98s WALL (    1618 calls)
     g_psi        :      3.97s CPU      3.98s WALL (    1072 calls)
     cdiaghg      :   7471.92s CPU   7599.77s WALL (    1534 calls)

     Called by h_psi:
     add_vuspsi   :    326.59s CPU    327.26s WALL (    1576 calls)
     vhpsi        :    676.12s CPU    876.33s WALL (    1576 calls)

     General routines
     calbec       :   1056.78s CPU   1466.81s WALL (    4118 calls)
     fft          :      9.57s CPU     17.60s WALL (     362 calls)
     ffts         :      0.22s CPU      0.41s WALL (      46 calls)
     fftw         :   2212.43s CPU   3829.28s WALL ( 1412142 calls)
     interpolate  :      1.24s CPU      2.24s WALL (      46 calls)
     davcio       :      1.55s CPU    167.36s WALL (    2940 calls)

     Parallel routines
     fft_scatter  :   1596.38s CPU   3208.14s WALL ( 1412550 calls)
     Hubbard U routines
     new_ns       :    158.56s CPU    353.72s WALL (      11 calls)
     vhpsi        :    676.12s CPU    876.33s WALL (    1576 calls)

     PWSCF        :     3h51m CPU        4h37m WALL


   This run was terminated on:  22:57:33   8Feb2014            

=------------------------------------------------------------------------------=
   JOB DONE.
=------------------------------------------------------------------------------=
---------------------------------------
Running PBS batch system epilogue script
Job id: 266911.audhumbla.fysik.dtu.dk
Username: zhonxu
Groupname: campgst
Jobname: linear-response/TiO2-2-scf
Sessionid: 31066
Resources limits: neednodes=2:ppn=8:xeon8,nodes=2:ppn=8:xeon8,walltime=48:00:00
Resources used: cput=72:42:37,mem=7736804kb,vmem=11109732kb,walltime=04:37:25
Queuename: verylong
Accounting:
This job has allocated the following 16 nodes:
d065 d065 d065 d065 d065 d065 d065 d065 d040 d040 d040 d040 d040 d040 d040 d040
Finished epilogue job 266911.audhumbla.fysik.dtu.dk for zhonxu
