
     Program PWSCF v.5.0.2 (svn rev. 9656) starts on 27Apr2014 at  7:57:54 

     This program is part of the open-source Quantum ESPRESSO suite
     for quantum simulation of materials; please cite
         "P. Giannozzi et al., J. Phys.:Condens. Matter 21 395502 (2009);
          URL http://www.quantum-espresso.org", 
     in publications or presentations arising from this work. More details at
     http://www.quantum-espresso.org/quote.php

     Parallel version (MPI), running on    16 processors
     K-points division:     npool     =       4
     R & G space division:  proc/nbgrp/npool/nimage =       4

     Current dimensions of program PWSCF are:
     Max number of different atomic species (ntypx) = 10
     Max number of k-points (npk) =  40000
     Max angular momentum in pseudopotentials (lmaxx) =  3
     Reading input from pwscf.in
Warning: card &CELL ignored
Warning: card / ignored

     Subspace diagonalization in iterative solution of the eigenvalue problem:
     a serial algorithm will be used


     Parallelization info
     --------------------
     sticks:   dense  smooth     PW     G-vecs:    dense   smooth      PW
     Min        1419     456    126               336167    60843    9016
     Max        1420     457    127               336172    60875    9024
     Sum        5677    1827    505              1344679   243423   36075



     bravais-lattice index     =            0
     lattice parameter (alat)  =      11.7919  a.u.
     unit-cell volume          =    7123.6633 (a.u.)^3
     number of atoms/cell      =           32
     number of atomic types    =            3
     number of electrons       =       247.00
     number of Kohn-Sham states=          358
     kinetic-energy cutoff     =      40.0000  Ry
     charge density cutoff     =     500.0000  Ry
     convergence threshold     =      1.0E-06
     mixing beta               =       0.7000
     number of iterations used =            8  plain     mixing
     Exchange-correlation      = SLA  PW   PBE  PBE ( 1 4 3 4 0)
     EXX-fraction              =        0.00
     nstep                     =           50


     celldm(1)=  11.791891  celldm(2)=   0.000000  celldm(3)=   0.000000
     celldm(4)=   0.000000  celldm(5)=   0.000000  celldm(6)=   0.000000

     crystal axes: (cart. coord. in units of alat)
               a(1) = (   1.000000   0.000000   0.000000 )  
               a(2) = (   0.000000   1.026665   0.000000 )  
               a(3) = (   0.000000   0.000000   4.231793 )  

     reciprocal axes: (cart. coord. in units 2 pi/alat)
               b(1) = (  1.000000  0.000000  0.000000 )  
               b(2) = (  0.000000  0.974028  0.000000 )  
               b(3) = (  0.000000  0.000000  0.236306 )  


     PseudoPot. # 1 for O  read from file:
     /home/camp/zhonxu/pseudo/o_pbe_v1.01.uspp.F.UPF
     MD5 check sum: 2bcb18d16ea4b960afae9ec6d52f22d2
     Pseudo is Ultrasoft + core correction, Zval =  6.0
     Generated by new atomic code, or converted to UPF format
     Using radial grid of  737 points,  5 beta functions with: 
                l(1) =   0
                l(2) =   0
                l(3) =   1
                l(4) =   1
                l(5) =   2
     Q(r) pseudized with  8 coefficients,  rinner =    0.900   0.900   0.900
                                                       0.900   0.900

     PseudoPot. # 2 for Ru read from file:
     /home/camp/zhonxu/pseudo/ru_pbe_v1.uspp.F.UPF
     MD5 check sum: df00be1c11b23341d9806d8f1dfa10cf
     Pseudo is Ultrasoft + core correction, Zval = 16.0
     Generated by new atomic code, or converted to UPF format
     Using radial grid of  967 points,  6 beta functions with: 
                l(1) =   0
                l(2) =   0
                l(3) =   1
                l(4) =   1
                l(5) =   2
                l(6) =   2
     Q(r) pseudized with  8 coefficients,  rinner =    1.300   1.300   1.300
                                                       1.300   1.300

     PseudoPot. # 3 for H  read from file:
     /home/camp/zhonxu/pseudo/h_pbe_v1.uspp.F.UPF
     MD5 check sum: 3408e3ff4ec8b0a4e358431e7e038a48
     Pseudo is Ultrasoft, Zval =  1.0
     Generated by new atomic code, or converted to UPF format
     Using radial grid of  615 points,  2 beta functions with: 
                l(1) =   0
                l(2) =   0
     Q(r) pseudized with  8 coefficients,  rinner =    0.700

     atomic species   valence    mass     pseudopotential
        O0             6.00    15.99940     O ( 1.00)
        Ru1           16.00   101.07000     Ru( 1.00)
        H2             1.00     1.00794     H ( 1.00)


     Simplified LDA+U calculation (l_max = 2) with parameters (eV):
     atomic species    L          U    alpha       J0     beta
        Ru1            2     4.0000   0.0000   0.0000   0.0000



     No symmetry found



   Cartesian axes

     site n.     atom                  positions (alat units)
         1           O0  tau(   1) = (   0.0000000   0.0000000   1.6035109  )
         2           O0  tau(   2) = (   0.0000000   0.5133323   1.7058780  )
         3           Ru1 tau(   3) = (   0.2500000   0.5133323   1.9200491  )
         4           Ru1 tau(   4) = (   0.0000000   0.0000000   1.9171714  )
         5           O0  tau(   5) = (   0.2500000   0.8315984   1.9169175  )
         6           O0  tau(   6) = (   0.2500000   0.1950663   1.9164520  )
         7           O0  tau(   7) = (   0.0000000   0.5133323   2.1053593  )
         8           O0  tau(   8) = (   0.0000000   0.0000000   2.2310435  )
         9           Ru1 tau(   9) = (   0.2500000   0.0000000   2.4441566  )
        10           Ru1 tau(  10) = (   0.0000000   0.5133323   2.4052664  )
        11           O0  tau(  11) = (   0.2500000   0.7083986   2.4364547  )
        12           O0  tau(  12) = (   0.2500000   0.3182660   2.4361585  )
        13           O0  tau(  13) = (   0.0000000   0.0000000   2.6233307  )
        14           O0  tau(  14) = (   0.5000000   0.0000000   1.6045689  )
        15           O0  tau(  15) = (   0.5000000   0.5133323   1.7057934  )
        16           Ru1 tau(  16) = (   0.7500000   0.5133323   1.9200914  )
        17           Ru1 tau(  17) = (   0.5000000   0.0000000   1.9176369  )
        18           O0  tau(  18) = (   0.7500000   0.8315984   1.9167059  )
        19           O0  tau(  19) = (   0.7500000   0.1950663   1.9164520  )
        20           O0  tau(  20) = (   0.5000000   0.5133323   2.1229635  )
        21           O0  tau(  21) = (   0.5000000   0.0000000   2.2303664  )
        22           Ru1 tau(  22) = (   0.7500000   0.0000000   2.4441143  )
        23           Ru1 tau(  23) = (   0.5000000   0.5133323   2.4370472  )
        24           O0  tau(  24) = (   0.7500000   0.7083986   2.4343812  )
        25           O0  tau(  25) = (   0.7500000   0.3182660   2.4338310  )
        26           O0  tau(  26) = (   0.5000000   0.0000000   2.6134283  )
        27           H2  tau(  27) = (  -0.0002400   0.6455975   1.6183222  )
        28           H2  tau(  28) = (   0.4995500   0.6408954   1.6119322  )
        29           H2  tau(  29) = (   0.1457200   0.0328533   1.5514599  )
        30           H2  tau(  30) = (   0.6465200   0.0301223   1.5527294  )
        31           O0  tau(  31) = (   0.5138700   0.5107965   2.7447408  )
        32           H2  tau(  32) = (   0.3716000   0.5093694   2.8125765  )

     number of k points=    10  Methfessel-Paxton smearing, width (Ry)=  0.0100
                       cart. coord. in units 2pi/alat
        k(    1) = (   0.0000000   0.0000000   0.0000000), wk =   0.1250000
        k(    2) = (   0.0000000   0.2435070   0.0000000), wk =   0.2500000
        k(    3) = (   0.0000000  -0.4870139   0.0000000), wk =   0.1250000
        k(    4) = (   0.2500000   0.0000000   0.0000000), wk =   0.2500000
        k(    5) = (   0.2500000   0.2435070   0.0000000), wk =   0.2500000
        k(    6) = (   0.2500000  -0.4870139   0.0000000), wk =   0.2500000
        k(    7) = (  -0.5000000   0.0000000   0.0000000), wk =   0.1250000
        k(    8) = (  -0.5000000   0.2435070   0.0000000), wk =   0.2500000
        k(    9) = (  -0.5000000  -0.4870139   0.0000000), wk =   0.1250000
        k(   10) = (  -0.2500000   0.2435070   0.0000000), wk =   0.2500000

     Dense  grid:  1344679 G-vectors     FFT dimensions: (  90,  90, 360)

     Smooth grid:   243423 G-vectors     FFT dimensions: (  48,  50, 216)

     Largest allocated arrays     est. size (Mb)     dimensions
        Kohn-Sham Wavefunctions        41.69 Mb     (   7632,  358)
        Atomic wavefunctions           21.54 Mb     (   7632,  185)
        NL pseudopotentials            46.70 Mb     (   7632,  401)
        Each V/rho on FFT grid         11.12 Mb     ( 729000)
        Each G-vector array             2.56 Mb     ( 336169)
        G-vector shells                 1.12 Mb     ( 146910)
     Largest temporary arrays     est. size (Mb)     dimensions
        Auxiliary wavefunctions       166.76 Mb     (   7632, 1432)
        Each subspace H/S matrix       31.29 Mb     (1432,1432)
        Each <psi_i|beta_j> matrix      2.19 Mb     (    401,  358)
        Arrays for rho mixing          88.99 Mb     ( 729000,   8)

     Check: negative/imaginary core charge=   -0.000003    0.000000

     Initial potential from superposition of free atoms
     Check: negative starting charge=   -0.522051

     starting charge  238.99980, renormalised to  247.00000

     negative rho (up, down):  0.540E+00 0.000E+00
     Number of +U iterations with fixed ns =  0
     Starting occupations:
 --- enter write_ns ---
 LDA+U parameters:
U( 2)     =  4.00000000
alpha( 2) =  0.00000000
atom    3   Tr[ns(na)] =   6.00000
    eigenvalues: 
  0.600  0.600  0.600  0.600  0.600
    eigenvectors:
  1.000  0.000  0.000  0.000  0.000
  0.000  1.000  0.000  0.000  0.000
  0.000  0.000  1.000  0.000  0.000
  0.000  0.000  0.000  1.000  0.000
  0.000  0.000  0.000  0.000  1.000
    occupations:
  0.600  0.000  0.000  0.000  0.000
  0.000  0.600  0.000  0.000  0.000
  0.000  0.000  0.600  0.000  0.000
  0.000  0.000  0.000  0.600  0.000
  0.000  0.000  0.000  0.000  0.600
atom    4   Tr[ns(na)] =   6.00000
    eigenvalues: 
  0.600  0.600  0.600  0.600  0.600
    eigenvectors:
  1.000  0.000  0.000  0.000  0.000
  0.000  1.000  0.000  0.000  0.000
  0.000  0.000  1.000  0.000  0.000
  0.000  0.000  0.000  1.000  0.000
  0.000  0.000  0.000  0.000  1.000
    occupations:
  0.600  0.000  0.000  0.000  0.000
  0.000  0.600  0.000  0.000  0.000
  0.000  0.000  0.600  0.000  0.000
  0.000  0.000  0.000  0.600  0.000
  0.000  0.000  0.000  0.000  0.600
atom    9   Tr[ns(na)] =   6.00000
    eigenvalues: 
  0.600  0.600  0.600  0.600  0.600
    eigenvectors:
  1.000  0.000  0.000  0.000  0.000
  0.000  1.000  0.000  0.000  0.000
  0.000  0.000  1.000  0.000  0.000
  0.000  0.000  0.000  1.000  0.000
  0.000  0.000  0.000  0.000  1.000
    occupations:
  0.600  0.000  0.000  0.000  0.000
  0.000  0.600  0.000  0.000  0.000
  0.000  0.000  0.600  0.000  0.000
  0.000  0.000  0.000  0.600  0.000
  0.000  0.000  0.000  0.000  0.600
atom   10   Tr[ns(na)] =   6.00000
    eigenvalues: 
  0.600  0.600  0.600  0.600  0.600
    eigenvectors:
  1.000  0.000  0.000  0.000  0.000
  0.000  1.000  0.000  0.000  0.000
  0.000  0.000  1.000  0.000  0.000
  0.000  0.000  0.000  1.000  0.000
  0.000  0.000  0.000  0.000  1.000
    occupations:
  0.600  0.000  0.000  0.000  0.000
  0.000  0.600  0.000  0.000  0.000
  0.000  0.000  0.600  0.000  0.000
  0.000  0.000  0.000  0.600  0.000
  0.000  0.000  0.000  0.000  0.600
atom   16   Tr[ns(na)] =   6.00000
    eigenvalues: 
  0.600  0.600  0.600  0.600  0.600
    eigenvectors:
  1.000  0.000  0.000  0.000  0.000
  0.000  1.000  0.000  0.000  0.000
  0.000  0.000  1.000  0.000  0.000
  0.000  0.000  0.000  1.000  0.000
  0.000  0.000  0.000  0.000  1.000
    occupations:
  0.600  0.000  0.000  0.000  0.000
  0.000  0.600  0.000  0.000  0.000
  0.000  0.000  0.600  0.000  0.000
  0.000  0.000  0.000  0.600  0.000
  0.000  0.000  0.000  0.000  0.600
atom   17   Tr[ns(na)] =   6.00000
    eigenvalues: 
  0.600  0.600  0.600  0.600  0.600
    eigenvectors:
  1.000  0.000  0.000  0.000  0.000
  0.000  1.000  0.000  0.000  0.000
  0.000  0.000  1.000  0.000  0.000
  0.000  0.000  0.000  1.000  0.000
  0.000  0.000  0.000  0.000  1.000
    occupations:
  0.600  0.000  0.000  0.000  0.000
  0.000  0.600  0.000  0.000  0.000
  0.000  0.000  0.600  0.000  0.000
  0.000  0.000  0.000  0.600  0.000
  0.000  0.000  0.000  0.000  0.600
atom   22   Tr[ns(na)] =   6.00000
    eigenvalues: 
  0.600  0.600  0.600  0.600  0.600
    eigenvectors:
  1.000  0.000  0.000  0.000  0.000
  0.000  1.000  0.000  0.000  0.000
  0.000  0.000  1.000  0.000  0.000
  0.000  0.000  0.000  1.000  0.000
  0.000  0.000  0.000  0.000  1.000
    occupations:
  0.600  0.000  0.000  0.000  0.000
  0.000  0.600  0.000  0.000  0.000
  0.000  0.000  0.600  0.000  0.000
  0.000  0.000  0.000  0.600  0.000
  0.000  0.000  0.000  0.000  0.600
atom   23   Tr[ns(na)] =   6.00000
    eigenvalues: 
  0.600  0.600  0.600  0.600  0.600
    eigenvectors:
  1.000  0.000  0.000  0.000  0.000
  0.000  1.000  0.000  0.000  0.000
  0.000  0.000  1.000  0.000  0.000
  0.000  0.000  0.000  1.000  0.000
  0.000  0.000  0.000  0.000  1.000
    occupations:
  0.600  0.000  0.000  0.000  0.000
  0.000  0.600  0.000  0.000  0.000
  0.000  0.000  0.600  0.000  0.000
  0.000  0.000  0.000  0.600  0.000
  0.000  0.000  0.000  0.000  0.600
N of occupied +U levels =  48.0000000
 --- exit write_ns ---
 Atomic wfc used for LDA+U Projector are NOT orthogonalized
     Starting wfc are  185 randomized atomic wfcs

     total cpu time spent up to now is      104.2 secs

     per-process dynamical memory:   401.3 Mb

     Self-consistent Calculation

     iteration #  1     ecut=    40.00 Ry     beta=0.70
     Davidson diagonalization with overlap
     ethr =  1.00E-02,  avg # of iterations =  5.9
 --- enter write_ns ---
 LDA+U parameters:
U( 2)     =  4.00000000
alpha( 2) =  0.00000000
atom    3   Tr[ns(na)] =   4.80400
    eigenvalues: 
  0.401  0.425  0.460  0.516  0.599
    eigenvectors:
  0.001  0.134  0.077  0.261  0.528
  0.939  0.043  0.018  0.000  0.000
  0.001  0.000  0.022  0.614  0.362
  0.044  0.823  0.005  0.038  0.090
  0.016  0.000  0.878  0.086  0.020
    occupations:
  0.543 -0.003  0.038 -0.048  0.022
 -0.003  0.404  0.001  0.006  0.007
  0.038  0.001  0.545 -0.017 -0.001
 -0.048  0.006 -0.017  0.443 -0.011
  0.022  0.007 -0.001 -0.011  0.467
atom    4   Tr[ns(na)] =   3.87806
    eigenvalues: 
  0.318  0.328  0.413  0.414  0.466
    eigenvectors:
  0.002  0.008  0.046  0.111  0.833
  0.093  0.878  0.007  0.021  0.001
  0.904  0.096  0.000  0.000  0.001
  0.001  0.019  0.243  0.572  0.165
  0.000  0.000  0.703  0.296  0.000
    occupations:
  0.456  0.010  0.003  0.021  0.000
  0.010  0.330 -0.003 -0.011 -0.001
  0.003 -0.003  0.319  0.001  0.000
  0.021 -0.011  0.001  0.421  0.000
  0.000 -0.001  0.000  0.000  0.414
atom    9   Tr[ns(na)] =   7.46410
    eigenvalues: 
  0.432  0.455  0.933  0.954  0.958
    eigenvectors:
  0.006  0.127  0.000  0.000  0.867
  0.975  0.025  0.000  0.000  0.000
  0.000  0.000  0.047  0.953  0.000
  0.019  0.848  0.000  0.000  0.132
  0.000  0.000  0.953  0.047  0.000
    occupations:
  0.891 -0.012  0.000 -0.171  0.000
 -0.012  0.433 -0.000  0.001 -0.000
  0.000 -0.000  0.953  0.000  0.005
 -0.171  0.001  0.000  0.521 -0.000
  0.000 -0.000  0.005 -0.000  0.934
atom   10   Tr[ns(na)] =   7.70412
    eigenvalues: 
  0.430  0.563  0.934  0.962  0.963
    eigenvectors:
  0.000  0.988  0.000  0.012  0.001
  0.000  0.000  0.000  0.062  0.938
  0.000  0.000  1.000  0.000  0.000
  0.000  0.012  0.000  0.927  0.061
  1.000  0.000  0.000  0.000  0.000
    occupations:
  0.568  0.000 -0.001  0.044  0.000
  0.000  0.963  0.000  0.000  0.001
 -0.001  0.000  0.934  0.000  0.002
  0.044  0.000  0.000  0.957  0.000
  0.000  0.001  0.002  0.000  0.430
atom   16   Tr[ns(na)] =   4.78480
    eigenvalues: 
  0.401  0.425  0.458  0.512  0.597
    eigenvectors:
  0.000  0.135  0.063  0.293  0.509
  0.935  0.043  0.021  0.001  0.000
  0.001  0.000  0.004  0.619  0.376
  0.045  0.822  0.004  0.042  0.086
  0.019  0.000  0.907  0.045  0.029
    occupations:
  0.540  0.003  0.038 -0.046 -0.023
  0.003  0.403 -0.002 -0.006  0.007
  0.038 -0.002  0.544 -0.017 -0.005
 -0.046 -0.006 -0.017  0.442  0.011
 -0.023  0.007 -0.005  0.011  0.463
atom   17   Tr[ns(na)] =   3.83535
    eigenvalues: 
  0.313  0.329  0.401  0.410  0.464
    eigenvectors:
  0.001  0.009  0.072  0.000  0.918
  0.043  0.920  0.035  0.000  0.002
  0.956  0.044  0.000  0.000  0.000
  0.000  0.028  0.893  0.000  0.079
  0.000  0.000  0.000  1.000  0.000
    occupations:
  0.458  0.010  0.003  0.018  0.000
  0.010  0.331 -0.003 -0.011 -0.000
  0.003 -0.003  0.314  0.001  0.001
  0.018 -0.011  0.001  0.404 -0.000
  0.000 -0.000  0.001 -0.000  0.410
atom   22   Tr[ns(na)] =   7.47047
    eigenvalues: 
  0.432  0.455  0.933  0.957  0.958
    eigenvectors:
  0.006  0.127  0.000  0.000  0.867
  0.976  0.023  0.000  0.000  0.000
  0.000  0.000  0.035  0.965  0.000
  0.018  0.850  0.000  0.000  0.132
  0.000  0.000  0.965  0.035  0.000
    occupations:
  0.891  0.011  0.000 -0.171  0.000
  0.011  0.433 -0.000 -0.001 -0.000
  0.000 -0.000  0.956  0.000 -0.004
 -0.171 -0.001  0.000  0.521 -0.000
  0.000 -0.000 -0.004 -0.000  0.934
atom   23   Tr[ns(na)] =   7.39734
    eigenvalues: 
  0.421  0.467  0.899  0.954  0.958
    eigenvectors:
  0.000  0.990  0.000  0.008  0.002
  0.000  0.000  0.000  0.093  0.907
  0.000  0.000  0.999  0.001  0.000
  0.000  0.010  0.001  0.899  0.091
  1.000  0.000  0.000  0.000  0.000
    occupations:
  0.472  0.006 -0.004  0.048  0.000
  0.006  0.958  0.000  0.001 -0.000
 -0.004  0.000  0.899 -0.001 -0.001
  0.048  0.001 -0.001  0.949  0.000
  0.000 -0.000 -0.001  0.000  0.421
N of occupied +U levels =  47.3382332
 --- exit write_ns ---

     negative rho (up, down):  0.624E+00 0.000E+00

     total cpu time spent up to now is      460.2 secs

     total energy              =   -2125.88631840 Ry
     Harris-Foulkes estimate   =   -2165.82351751 Ry
     estimated scf accuracy    <      46.36715904 Ry

     iteration #  2     ecut=    40.00 Ry     beta=0.70
     Davidson diagonalization with overlap
     ethr =  1.00E-02,  avg # of iterations =  6.1

     negative rho (up, down):  0.623E+00 0.000E+00

     total cpu time spent up to now is      798.7 secs

     total energy              =   -2021.86797151 Ry
     Harris-Foulkes estimate   =   -2486.98126027 Ry
     estimated scf accuracy    <    4193.89698726 Ry

     iteration #  3     ecut=    40.00 Ry     beta=0.70
     Davidson diagonalization with overlap
     ethr =  1.00E-02,  avg # of iterations =  6.0

     negative rho (up, down):  0.588E+00 0.000E+00

     total cpu time spent up to now is     1183.1 secs

     total energy              =   -2146.79777930 Ry
     Harris-Foulkes estimate   =   -2191.01534778 Ry
     estimated scf accuracy    <     208.87789369 Ry

     iteration #  4     ecut=    40.00 Ry     beta=0.70
     Davidson diagonalization with overlap
     ethr =  1.00E-02,  avg # of iterations =  4.0

     negative rho (up, down):  0.573E+00 0.000E+00

     total cpu time spent up to now is     1386.4 secs

     total energy              =   -2158.80637963 Ry
     Harris-Foulkes estimate   =   -2167.09865623 Ry
     estimated scf accuracy    <      36.08414826 Ry

     iteration #  5     ecut=    40.00 Ry     beta=0.70
     Davidson diagonalization with overlap
     ethr =  1.00E-02,  avg # of iterations =  1.8

     negative rho (up, down):  0.574E+00 0.000E+00

     total cpu time spent up to now is     1555.6 secs

     total energy              =   -2163.41594917 Ry
     Harris-Foulkes estimate   =   -2164.02202308 Ry
     estimated scf accuracy    <      42.13063582 Ry

     iteration #  6     ecut=    40.00 Ry     beta=0.70
     Davidson diagonalization with overlap
     ethr =  1.00E-02,  avg # of iterations =  1.0

     negative rho (up, down):  0.575E+00 0.000E+00

     total cpu time spent up to now is     1726.6 secs

     total energy              =   -2163.18365837 Ry
     Harris-Foulkes estimate   =   -2163.49367947 Ry
     estimated scf accuracy    <      32.69037266 Ry

     iteration #  7     ecut=    40.00 Ry     beta=0.70
     Davidson diagonalization with overlap
     ethr =  1.00E-02,  avg # of iterations =  1.0

     negative rho (up, down):  0.577E+00 0.000E+00

     total cpu time spent up to now is     1902.4 secs

     total energy              =   -2162.51611789 Ry
     Harris-Foulkes estimate   =   -2163.28437434 Ry
     estimated scf accuracy    <      25.97132896 Ry

     iteration #  8     ecut=    40.00 Ry     beta=0.70
     Davidson diagonalization with overlap
     ethr =  1.00E-02,  avg # of iterations =  1.0

     negative rho (up, down):  0.578E+00 0.000E+00

     total cpu time spent up to now is     2081.7 secs

     total energy              =   -2162.16286811 Ry
     Harris-Foulkes estimate   =   -2162.96724473 Ry
     estimated scf accuracy    <      10.98917270 Ry

     iteration #  9     ecut=    40.00 Ry     beta=0.70
     Davidson diagonalization with overlap
     ethr =  4.45E-03,  avg # of iterations =  1.1

     negative rho (up, down):  0.580E+00 0.000E+00

     total cpu time spent up to now is     2263.7 secs

     total energy              =   -2162.42396382 Ry
     Harris-Foulkes estimate   =   -2162.67819980 Ry
     estimated scf accuracy    <       2.82981608 Ry

     iteration # 10     ecut=    40.00 Ry     beta=0.70
     Davidson diagonalization with overlap
     ethr =  1.15E-03,  avg # of iterations =  5.0

     negative rho (up, down):  0.580E+00 0.000E+00

     total cpu time spent up to now is     2476.8 secs

     total energy              =   -2162.47617137 Ry
     Harris-Foulkes estimate   =   -2162.69379724 Ry
     estimated scf accuracy    <       1.20982936 Ry

     iteration # 11     ecut=    40.00 Ry     beta=0.70
     Davidson diagonalization with overlap
     ethr =  4.90E-04,  avg # of iterations =  2.5

     negative rho (up, down):  0.578E+00 0.000E+00

     total cpu time spent up to now is     2669.3 secs

     total energy              =   -2162.51194601 Ry
     Harris-Foulkes estimate   =   -2162.65923385 Ry
     estimated scf accuracy    <       1.38605824 Ry

     iteration # 12     ecut=    40.00 Ry     beta=0.70
     Davidson diagonalization with overlap
     ethr =  4.90E-04,  avg # of iterations =  1.0

     negative rho (up, down):  0.576E+00 0.000E+00

     total cpu time spent up to now is     2856.8 secs

     total energy              =   -2162.53461676 Ry
     Harris-Foulkes estimate   =   -2162.62422601 Ry
     estimated scf accuracy    <       0.46075356 Ry

     iteration # 13     ecut=    40.00 Ry     beta=0.70
     Davidson diagonalization with overlap
     ethr =  1.87E-04,  avg # of iterations =  5.3

     negative rho (up, down):  0.574E+00 0.000E+00

     total cpu time spent up to now is     3072.7 secs

     total energy              =   -2162.53554953 Ry
     Harris-Foulkes estimate   =   -2162.64506620 Ry
     estimated scf accuracy    <       0.58182729 Ry

     iteration # 14     ecut=    40.00 Ry     beta=0.70
     Davidson diagonalization with overlap
     ethr =  1.87E-04,  avg # of iterations =  3.8

     negative rho (up, down):  0.575E+00 0.000E+00

     total cpu time spent up to now is     3271.9 secs

     total energy              =   -2162.53819105 Ry
     Harris-Foulkes estimate   =   -2162.64727569 Ry
     estimated scf accuracy    <       0.63902892 Ry

     iteration # 15     ecut=    40.00 Ry     beta=0.70
     Davidson diagonalization with overlap
     ethr =  1.87E-04,  avg # of iterations =  1.0

     negative rho (up, down):  0.576E+00 0.000E+00

     total cpu time spent up to now is     3443.2 secs

     total energy              =   -2162.57441169 Ry
     Harris-Foulkes estimate   =   -2162.60570534 Ry
     estimated scf accuracy    <       0.14415017 Ry

     iteration # 16     ecut=    40.00 Ry     beta=0.70
     Davidson diagonalization with overlap
     ethr =  5.84E-05,  avg # of iterations =  3.0

     negative rho (up, down):  0.576E+00 0.000E+00

     total cpu time spent up to now is     3618.4 secs

     total energy              =   -2162.55133983 Ry
     Harris-Foulkes estimate   =   -2162.63604351 Ry
     estimated scf accuracy    <       0.88054697 Ry

     iteration # 17     ecut=    40.00 Ry     beta=0.70
     Davidson diagonalization with overlap
     ethr =  5.84E-05,  avg # of iterations =  2.0

     negative rho (up, down):  0.575E+00 0.000E+00

     total cpu time spent up to now is     3786.0 secs

     total energy              =   -2162.59072823 Ry
     Harris-Foulkes estimate   =   -2162.59970938 Ry
     estimated scf accuracy    <       0.04480453 Ry

     iteration # 18     ecut=    40.00 Ry     beta=0.70
     Davidson diagonalization with overlap
     ethr =  1.81E-05,  avg # of iterations =  2.4

     negative rho (up, down):  0.575E+00 0.000E+00

     total cpu time spent up to now is     3959.9 secs

     total energy              =   -2162.59343610 Ry
     Harris-Foulkes estimate   =   -2162.59784667 Ry
     estimated scf accuracy    <       0.02538283 Ry

     iteration # 19     ecut=    40.00 Ry     beta=0.70
     Davidson diagonalization with overlap
     ethr =  1.03E-05,  avg # of iterations =  4.5

     negative rho (up, down):  0.575E+00 0.000E+00

     total cpu time spent up to now is     4145.1 secs

     total energy              =   -2162.59060166 Ry
     Harris-Foulkes estimate   =   -2162.60143179 Ry
     estimated scf accuracy    <       0.16458700 Ry

     iteration # 20     ecut=    40.00 Ry     beta=0.70
     Davidson diagonalization with overlap
     ethr =  1.03E-05,  avg # of iterations =  2.7

     negative rho (up, down):  0.575E+00 0.000E+00

     total cpu time spent up to now is     4324.2 secs

     total energy              =   -2162.59518444 Ry
     Harris-Foulkes estimate   =   -2162.59756336 Ry
     estimated scf accuracy    <       0.02184070 Ry

     iteration # 21     ecut=    40.00 Ry     beta=0.70
     Davidson diagonalization with overlap
     ethr =  8.84E-06,  avg # of iterations =  1.0

     negative rho (up, down):  0.575E+00 0.000E+00

     total cpu time spent up to now is     4489.2 secs

     total energy              =   -2162.59608450 Ry
     Harris-Foulkes estimate   =   -2162.59678771 Ry
     estimated scf accuracy    <       0.00356625 Ry

     iteration # 22     ecut=    40.00 Ry     beta=0.70
     Davidson diagonalization with overlap
     ethr =  1.44E-06,  avg # of iterations =  3.6

     negative rho (up, down):  0.576E+00 0.000E+00

     total cpu time spent up to now is     4684.0 secs

     total energy              =   -2162.59555487 Ry
     Harris-Foulkes estimate   =   -2162.59745295 Ry
     estimated scf accuracy    <       0.01641373 Ry

     iteration # 23     ecut=    40.00 Ry     beta=0.70
     Davidson diagonalization with overlap
     ethr =  1.44E-06,  avg # of iterations =  1.0

     negative rho (up, down):  0.575E+00 0.000E+00

     total cpu time spent up to now is     4846.3 secs

     total energy              =   -2162.59618536 Ry
     Harris-Foulkes estimate   =   -2162.59706810 Ry
     estimated scf accuracy    <       0.00606026 Ry

     iteration # 24     ecut=    40.00 Ry     beta=0.70
     Davidson diagonalization with overlap
     ethr =  1.44E-06,  avg # of iterations =  1.0

     negative rho (up, down):  0.575E+00 0.000E+00

     total cpu time spent up to now is     5008.7 secs

     total energy              =   -2162.59649483 Ry
     Harris-Foulkes estimate   =   -2162.59679836 Ry
     estimated scf accuracy    <       0.00177003 Ry

     iteration # 25     ecut=    40.00 Ry     beta=0.70
     Davidson diagonalization with overlap
     ethr =  7.17E-07,  avg # of iterations =  1.0

     negative rho (up, down):  0.575E+00 0.000E+00

     total cpu time spent up to now is     5172.9 secs

     total energy              =   -2162.59661985 Ry
     Harris-Foulkes estimate   =   -2162.59678745 Ry
     estimated scf accuracy    <       0.00154874 Ry

     iteration # 26     ecut=    40.00 Ry     beta=0.70
     Davidson diagonalization with overlap
     ethr =  6.27E-07,  avg # of iterations =  1.0

     negative rho (up, down):  0.575E+00 0.000E+00

     total cpu time spent up to now is     5352.5 secs

     total energy              =   -2162.59663395 Ry
     Harris-Foulkes estimate   =   -2162.59675929 Ry
     estimated scf accuracy    <       0.00046029 Ry

     iteration # 27     ecut=    40.00 Ry     beta=0.70
     Davidson diagonalization with overlap
     ethr =  1.86E-07,  avg # of iterations =  1.5

     negative rho (up, down):  0.575E+00 0.000E+00

     total cpu time spent up to now is     5530.5 secs

     total energy              =   -2162.59655226 Ry
     Harris-Foulkes estimate   =   -2162.59686154 Ry
     estimated scf accuracy    <       0.00193720 Ry

     iteration # 28     ecut=    40.00 Ry     beta=0.70
     Davidson diagonalization with overlap
     ethr =  1.86E-07,  avg # of iterations =  1.5

     negative rho (up, down):  0.575E+00 0.000E+00

     total cpu time spent up to now is     5707.3 secs

     total energy              =   -2162.59655446 Ry
     Harris-Foulkes estimate   =   -2162.59684302 Ry
     estimated scf accuracy    <       0.00221238 Ry

     iteration # 29     ecut=    40.00 Ry     beta=0.70
     Davidson diagonalization with overlap
     ethr =  1.86E-07,  avg # of iterations =  1.1

     negative rho (up, down):  0.575E+00 0.000E+00

     total cpu time spent up to now is     5883.5 secs

     total energy              =   -2162.59644666 Ry
     Harris-Foulkes estimate   =   -2162.59697796 Ry
     estimated scf accuracy    <       0.00649372 Ry

     iteration # 30     ecut=    40.00 Ry     beta=0.70
     Davidson diagonalization with overlap
     ethr =  1.86E-07,  avg # of iterations =  1.0

     negative rho (up, down):  0.575E+00 0.000E+00

     total cpu time spent up to now is     6058.8 secs

     total energy              =   -2162.59669400 Ry
     Harris-Foulkes estimate   =   -2162.59674735 Ry
     estimated scf accuracy    <       0.00065033 Ry

     iteration # 31     ecut=    40.00 Ry     beta=0.70
     Davidson diagonalization with overlap
     ethr =  1.86E-07,  avg # of iterations =  1.0

     negative rho (up, down):  0.575E+00 0.000E+00

     total cpu time spent up to now is     6229.9 secs

     total energy              =   -2162.59670349 Ry
     Harris-Foulkes estimate   =   -2162.59674341 Ry
     estimated scf accuracy    <       0.00038991 Ry

     iteration # 32     ecut=    40.00 Ry     beta=0.70
     Davidson diagonalization with overlap
     ethr =  1.58E-07,  avg # of iterations =  1.0

     negative rho (up, down):  0.575E+00 0.000E+00

     total cpu time spent up to now is     6398.8 secs

     total energy              =   -2162.59672032 Ry
     Harris-Foulkes estimate   =   -2162.59673441 Ry
     estimated scf accuracy    <       0.00010826 Ry

     iteration # 33     ecut=    40.00 Ry     beta=0.70
     Davidson diagonalization with overlap
     ethr =  4.38E-08,  avg # of iterations =  1.0

     negative rho (up, down):  0.575E+00 0.000E+00

     total cpu time spent up to now is     6566.6 secs

     total energy              =   -2162.59672247 Ry
     Harris-Foulkes estimate   =   -2162.59673590 Ry
     estimated scf accuracy    <       0.00013556 Ry

     iteration # 34     ecut=    40.00 Ry     beta=0.70
     Davidson diagonalization with overlap
     ethr =  4.38E-08,  avg # of iterations =  1.0

     negative rho (up, down):  0.575E+00 0.000E+00

     total cpu time spent up to now is     6730.2 secs

     total energy              =   -2162.59672583 Ry
     Harris-Foulkes estimate   =   -2162.59673152 Ry
     estimated scf accuracy    <       0.00003056 Ry

     iteration # 35     ecut=    40.00 Ry     beta=0.70
     Davidson diagonalization with overlap
     ethr =  1.24E-08,  avg # of iterations =  1.0

     negative rho (up, down):  0.575E+00 0.000E+00

     total cpu time spent up to now is     6898.5 secs

     total energy              =   -2162.59672600 Ry
     Harris-Foulkes estimate   =   -2162.59673303 Ry
     estimated scf accuracy    <       0.00006273 Ry

     iteration # 36     ecut=    40.00 Ry     beta=0.70
     Davidson diagonalization with overlap
     ethr =  1.24E-08,  avg # of iterations =  1.0

     negative rho (up, down):  0.575E+00 0.000E+00

     total cpu time spent up to now is     7077.4 secs

     total energy              =   -2162.59672907 Ry
     Harris-Foulkes estimate   =   -2162.59673144 Ry
     estimated scf accuracy    <       0.00002292 Ry

     iteration # 37     ecut=    40.00 Ry     beta=0.70
     Davidson diagonalization with overlap
     ethr =  9.28E-09,  avg # of iterations =  1.0

     negative rho (up, down):  0.575E+00 0.000E+00

     total cpu time spent up to now is     7254.0 secs

     total energy              =   -2162.59672970 Ry
     Harris-Foulkes estimate   =   -2162.59673159 Ry
     estimated scf accuracy    <       0.00001193 Ry

     iteration # 38     ecut=    40.00 Ry     beta=0.70
     Davidson diagonalization with overlap
     ethr =  4.83E-09,  avg # of iterations =  1.0

     negative rho (up, down):  0.575E+00 0.000E+00

     total cpu time spent up to now is     7430.5 secs

     total energy              =   -2162.59672944 Ry
     Harris-Foulkes estimate   =   -2162.59673295 Ry
     estimated scf accuracy    <       0.00002825 Ry

     iteration # 39     ecut=    40.00 Ry     beta=0.70
     Davidson diagonalization with overlap
     ethr =  4.83E-09,  avg # of iterations =  1.0

     negative rho (up, down):  0.575E+00 0.000E+00

     total cpu time spent up to now is     7607.3 secs

     total energy              =   -2162.59672900 Ry
     Harris-Foulkes estimate   =   -2162.59673205 Ry
     estimated scf accuracy    <       0.00001282 Ry

     iteration # 40     ecut=    40.00 Ry     beta=0.70
     Davidson diagonalization with overlap
     ethr =  4.83E-09,  avg # of iterations =  1.5

     negative rho (up, down):  0.575E+00 0.000E+00

     total cpu time spent up to now is     7790.7 secs

     total energy              =   -2162.59671712 Ry
     Harris-Foulkes estimate   =   -2162.59674490 Ry
     estimated scf accuracy    <       0.00045259 Ry

     iteration # 41     ecut=    40.00 Ry     beta=0.70
     Davidson diagonalization with overlap
     ethr =  4.83E-09,  avg # of iterations =  1.4

     negative rho (up, down):  0.575E+00 0.000E+00

     total cpu time spent up to now is     7981.1 secs

     total energy              =   -2162.59673018 Ry
     Harris-Foulkes estimate   =   -2162.59673236 Ry
     estimated scf accuracy    <       0.00002278 Ry

     iteration # 42     ecut=    40.00 Ry     beta=0.70
     Davidson diagonalization with overlap
     ethr =  4.83E-09,  avg # of iterations =  1.0

     negative rho (up, down):  0.575E+00 0.000E+00

     total cpu time spent up to now is     8171.2 secs

     total energy              =   -2162.59673048 Ry
     Harris-Foulkes estimate   =   -2162.59673223 Ry
     estimated scf accuracy    <       0.00001231 Ry

     iteration # 43     ecut=    40.00 Ry     beta=0.70
     Davidson diagonalization with overlap
     ethr =  4.83E-09,  avg # of iterations =  1.0

     negative rho (up, down):  0.575E+00 0.000E+00

     total cpu time spent up to now is     8358.6 secs

     total energy              =   -2162.59672999 Ry
     Harris-Foulkes estimate   =   -2162.59673266 Ry
     estimated scf accuracy    <       0.00002418 Ry

     iteration # 44     ecut=    40.00 Ry     beta=0.70
     Davidson diagonalization with overlap
     ethr =  4.83E-09,  avg # of iterations =  1.0

     negative rho (up, down):  0.575E+00 0.000E+00

     total cpu time spent up to now is     8546.3 secs

     total energy              =   -2162.59673112 Ry
     Harris-Foulkes estimate   =   -2162.59673175 Ry
     estimated scf accuracy    <       0.00000388 Ry

     iteration # 45     ecut=    40.00 Ry     beta=0.70
     Davidson diagonalization with overlap
     ethr =  1.57E-09,  avg # of iterations =  1.0

     negative rho (up, down):  0.575E+00 0.000E+00

     total cpu time spent up to now is     8734.1 secs

     total energy              =   -2162.59673127 Ry
     Harris-Foulkes estimate   =   -2162.59673170 Ry
     estimated scf accuracy    <       0.00000412 Ry

     iteration # 46     ecut=    40.00 Ry     beta=0.70
     Davidson diagonalization with overlap
     ethr =  1.57E-09,  avg # of iterations =  1.0

     negative rho (up, down):  0.575E+00 0.000E+00

     total cpu time spent up to now is     8928.9 secs

     End of self-consistent calculation
 --- enter write_ns ---
 LDA+U parameters:
U( 2)     =  4.00000000
alpha( 2) =  0.00000000
atom    3   Tr[ns(na)] =   7.23201
    eigenvalues: 
  0.516  0.558  0.696  0.876  0.971
    eigenvectors:
  0.000  0.179  0.007  0.002  0.811
  0.999  0.000  0.000  0.000  0.000
  0.000  0.002  0.967  0.016  0.014
  0.000  0.818  0.008  0.000  0.173
  0.000  0.000  0.018  0.981  0.001
    occupations:
  0.895  0.005  0.031 -0.156 -0.000
  0.005  0.516  0.003 -0.003 -0.004
  0.031  0.003  0.702 -0.007 -0.024
 -0.156 -0.003 -0.007  0.630  0.002
 -0.000 -0.004 -0.024  0.002  0.873
atom    4   Tr[ns(na)] =   7.22471
    eigenvalues: 
  0.550  0.597  0.676  0.808  0.981
    eigenvectors:
  0.002  0.986  0.000  0.000  0.012
  0.000  0.000  0.038  0.962  0.000
  0.000  0.000  0.962  0.038  0.000
  0.000  0.012  0.000  0.000  0.988
  0.998  0.002  0.000  0.000  0.000
    occupations:
  0.602 -0.001 -0.000  0.042  0.002
 -0.001  0.803  0.025 -0.001 -0.001
 -0.000  0.025  0.681  0.001  0.000
  0.042 -0.001  0.001  0.977  0.000
  0.002 -0.001  0.000  0.000  0.550
atom    9   Tr[ns(na)] =   7.23056
    eigenvalues: 
  0.573  0.594  0.765  0.837  0.847
    eigenvectors:
  0.000  0.150  0.002  0.142  0.706
  0.995  0.004  0.000  0.000  0.000
  0.000  0.000  0.997  0.001  0.001
  0.005  0.846  0.000  0.025  0.124
  0.000  0.000  0.000  0.831  0.169
    occupations:
  0.807 -0.004 -0.004 -0.089  0.004
 -0.004  0.573  0.002  0.003  0.001
 -0.004  0.002  0.765  0.001  0.001
 -0.089  0.003  0.001  0.631 -0.001
  0.004  0.001  0.001 -0.001  0.838
atom   10   Tr[ns(na)] =   7.24907
    eigenvalues: 
  0.528  0.530  0.761  0.828  0.978
    eigenvectors:
  0.986  0.001  0.000  0.000  0.013
  0.000  0.000  0.000  1.000  0.000
  0.000  0.000  1.000  0.000  0.000
  0.012  0.000  0.000  0.000  0.987
  0.001  0.999  0.000  0.000  0.000
    occupations:
  0.534 -0.003 -0.001  0.050  0.000
 -0.003  0.828  0.001  0.000  0.000
 -0.001  0.001  0.761 -0.001  0.001
  0.050  0.000 -0.001  0.973  0.000
  0.000  0.000  0.001  0.000  0.530
atom   16   Tr[ns(na)] =   7.23221
    eigenvalues: 
  0.516  0.557  0.696  0.876  0.971
    eigenvectors:
  0.000  0.179  0.007  0.002  0.812
  0.999  0.000  0.000  0.000  0.000
  0.000  0.002  0.965  0.019  0.014
  0.000  0.818  0.008  0.000  0.173
  0.000  0.000  0.020  0.979  0.001
    occupations:
  0.895 -0.005  0.031 -0.156 -0.001
 -0.005  0.516 -0.003  0.003 -0.004
  0.031 -0.003  0.703 -0.007  0.026
 -0.156  0.003 -0.007  0.630 -0.002
 -0.001 -0.004  0.026 -0.002  0.872
atom   17   Tr[ns(na)] =   7.21681
    eigenvalues: 
  0.551  0.602  0.661  0.812  0.982
    eigenvectors:
  0.001  0.986  0.000  0.000  0.013
  0.000  0.000  0.019  0.981  0.000
  0.000  0.000  0.981  0.019  0.000
  0.000  0.013  0.000  0.000  0.987
  0.999  0.001  0.000  0.000  0.000
    occupations:
  0.607 -0.001  0.000  0.043  0.002
 -0.001  0.809  0.020 -0.001 -0.002
  0.000  0.020  0.663  0.001  0.000
  0.043 -0.001  0.001  0.978  0.000
  0.002 -0.002  0.000  0.000  0.551
atom   22   Tr[ns(na)] =   7.22612
    eigenvalues: 
  0.573  0.595  0.761  0.837  0.848
    eigenvectors:
  0.000  0.149  0.000  0.113  0.739
  0.998  0.001  0.000  0.000  0.000
  0.000  0.000  1.000  0.000  0.000
  0.001  0.850  0.000  0.018  0.130
  0.000  0.000  0.000  0.869  0.131
    occupations:
  0.809  0.005 -0.001 -0.089  0.003
  0.005  0.573  0.001 -0.003  0.000
 -0.001  0.001  0.761  0.000 -0.001
 -0.089 -0.003  0.000  0.632 -0.002
  0.003  0.000 -0.001 -0.002  0.839
atom   23   Tr[ns(na)] =   7.21500
    eigenvalues: 
  0.550  0.606  0.642  0.841  0.969
    eigenvectors:
  0.000  0.984  0.001  0.000  0.014
  0.000  0.000  0.000  0.999  0.000
  0.000  0.001  0.999  0.000  0.000
  0.000  0.014  0.000  0.000  0.986
  1.000  0.000  0.000  0.000  0.000
    occupations:
  0.611  0.005 -0.001  0.043  0.000
  0.005  0.841  0.002  0.000  0.001
 -0.001  0.002  0.642  0.001 -0.001
  0.043  0.000  0.001  0.964 -0.000
  0.000  0.001 -0.001 -0.000  0.550
N of occupied +U levels =  57.8264979
 --- exit write_ns ---

          k = 0.0000 0.0000 0.0000 ( 30363 PWs)   bands (ev):

   -74.1957 -74.1841 -74.0581 -74.0038 -73.9356 -73.7349 -73.5910 -73.5789
   -44.3584 -44.3205 -44.3015 -44.2247 -44.2086 -44.1913 -44.1656 -44.1209
   -44.1134 -44.0818 -43.9822 -43.9433 -43.8999 -43.8727 -43.8057 -43.8007
   -43.7680 -43.7009 -43.6687 -43.6208 -43.5493 -43.4846 -43.4498 -43.3163
   -21.0379 -20.5948 -20.4718 -20.2928 -20.2312 -20.0809 -19.8739 -19.7698
   -19.7125 -19.6390 -19.5841 -19.5554 -19.5219 -19.4367 -19.3720 -19.1798
   -19.0399 -18.9561 -18.8318  -9.5929  -9.5330  -9.3917  -8.6724  -8.5235
    -8.4949  -8.4565  -8.0040  -7.9870  -7.9523  -7.8792  -7.7294  -7.7123
    -7.6609  -7.5715  -7.4806  -7.3657  -7.3088  -7.2094  -7.0592  -6.9824
    -6.9044  -6.6065  -6.4323  -6.1672  -6.0340  -5.7441  -5.5997  -5.4810
    -5.4688  -5.4328  -5.2090  -5.1857  -5.1098  -4.9077  -4.8984  -4.8533
    -4.7625  -4.6638  -4.5639  -4.4915  -4.4341  -4.3357  -4.2446  -4.0681
    -3.9934  -3.9241  -3.8228  -3.7894  -3.7655  -3.6773  -3.5644  -3.5132
    -3.3673  -3.2757  -3.1062  -3.0761  -3.0536  -2.9316  -2.8057  -2.7551
    -2.7085  -2.6507  -2.6187  -2.3668  -2.3049  -2.1157  -1.9920  -1.8424
    -1.6789  -1.4873  -1.3112  -1.2892  -1.2762  -0.8974  -0.6508  -0.5318
    -0.4754  -0.1966  -0.0800   0.3695   0.5419   1.4390   1.5598   2.1213
     2.3724   2.4223   2.4773   2.4933   2.7259   3.3219   3.3450   3.4039
     3.5802   3.6542   3.7169   3.8667   3.9663   4.2530   4.3795   4.7306
     5.1677   5.9704   6.2039   6.3650   6.6854   6.8365   7.0684   7.2962
     7.3663   7.4661   7.5296   7.8441   7.9006   7.9942   8.0159   8.1129
     8.1758   8.3006   8.4071   8.4332   8.4817   8.6065   8.6922   8.8213
     8.8645   8.9469   9.1525   9.1975   9.2344   9.3461   9.4111   9.4366
     9.6366   9.6951   9.7944   9.8187   9.9412   9.9868  10.1822  10.2506
    10.4689  10.7283  10.7485  10.8975  11.0049  11.0701  11.1163  11.1754
    11.2816  11.2990  11.3905  11.4698  11.6387  11.6553  11.7389  11.7624
    11.7796  11.7986  11.8574  11.9622  12.0217  12.1250  12.1804  12.2432
    12.3046  12.3957  12.4362  12.4769  12.4960  12.5835  12.6198  12.6893
    12.7450  12.8284  12.8807  12.9279  12.9666  13.0768  13.1559  13.2817
    13.2986  13.3612  13.4610  13.6046  13.6877  13.8290  13.8587  13.9380
    13.9811  14.1015  14.1789  14.2405  14.3110  14.3384  14.5553  14.5859
    14.7069  14.7479  14.8720  15.0173  15.0625  15.1215  15.2792  15.4207
    15.5003  15.5946  15.7713  15.8013  15.8979  15.9799  16.0397  16.0989
    16.2264  16.2637  16.3505  16.4753  16.5988  16.7720  16.8263  16.8888
    16.9261  17.1534  17.2263  17.2399  17.3386  17.4137  17.4448  17.5123
    17.7225  17.7760  17.7958  17.9153  18.0296  18.0802  18.2406  18.2623
    18.3739  18.4421  18.5289  18.6019  18.6634  18.7388  18.7420  18.7730
    18.8114  18.8732  18.9485  18.9893  19.0241  19.0985  19.2042  19.2234
    19.2539  19.3090  19.3990  19.4127  19.5628  19.6147  19.6421  19.6900
    19.7777  19.8120  19.9402  20.0028  20.0156  20.1072  20.1259  20.1951
    20.2169  20.2718  20.3166  20.3929  20.4310  20.5546  20.6413  20.7213
    20.7461  20.7732  20.8587  20.8653  20.9169  20.9451  21.1574  21.1831
    21.2388  21.3018  21.4150  21.4551  21.5156  21.5990  21.7173  21.7422
    21.8286  21.8561  21.9196  21.9748  22.0352  22.0696  22.1693  22.1987
    22.3020  22.3297  22.4464  22.4986  22.5133  22.5794

          k = 0.0000 0.2435 0.0000 ( 30432 PWs)   bands (ev):

   -74.1955 -74.1841 -74.0582 -74.0038 -73.9357 -73.7350 -73.5908 -73.5789
   -44.3583 -44.3205 -44.3015 -44.2247 -44.2069 -44.1924 -44.1656 -44.1208
   -44.1136 -44.0818 -43.9837 -43.9456 -43.8987 -43.8652 -43.8098 -43.8007
   -43.7680 -43.7023 -43.6687 -43.6206 -43.5493 -43.4849 -43.4495 -43.3164
   -21.0020 -20.5200 -20.3964 -20.2965 -20.2256 -20.0839 -19.8611 -19.8104
   -19.7789 -19.7610 -19.7091 -19.4441 -19.3978 -19.3790 -19.3105 -19.1947
   -19.1589 -19.1055 -18.8314  -9.4875  -9.1640  -9.1132  -8.7650  -8.6514
    -8.5444  -8.4920  -8.4661  -7.9130  -7.8115  -7.7805  -7.7051  -7.6079
    -7.5779  -7.5290  -7.3941  -7.3097  -7.2379  -7.1662  -6.9173  -6.8179
    -6.6230  -6.5111  -6.2901  -6.1614  -6.0988  -6.0118  -5.8417  -5.5823
    -5.4917  -5.4737  -5.2736  -5.2036  -5.1363  -5.0462  -5.0226  -4.9966
    -4.8775  -4.8182  -4.7617  -4.7093  -4.4694  -4.3920  -4.3405  -4.2354
    -4.2101  -4.1756  -4.0306  -3.9103  -3.8542  -3.7319  -3.6530  -3.5093
    -3.4787  -3.2580  -3.0001  -2.8610  -2.7049  -2.6606  -2.6373  -2.5981
    -2.5480  -2.4235  -2.3594  -2.2958  -2.2100  -2.1387  -2.0436  -2.0351
    -1.9344  -1.8386  -1.4471  -1.3162  -1.2892  -0.6496  -0.5522  -0.3530
    -0.3449  -0.2303  -0.1152   0.1520   0.7131   1.4693   1.4972   1.5985
     1.8354   2.3409   2.7294   3.2237   3.3271   3.4887   3.5980   3.6225
     3.6382   3.6846   3.7553   3.7822   3.8162   4.2258   4.4917   4.9254
     5.3700   5.5818   5.9193   6.2426   6.3619   6.4841   6.7802   6.8297
     7.2065   7.2440   7.4335   7.5278   7.7956   8.0317   8.1321   8.1484
     8.2198   8.3206   8.3685   8.5110   8.6497   8.7522   8.8913   8.9858
     9.0357   9.2437   9.3000   9.3434   9.4366   9.5695   9.6704   9.7076
     9.8095   9.8965   9.9145   9.9508  10.0108  10.0872  10.1363  10.1578
    10.3037  10.3757  10.4519  10.5510  10.6059  10.7043  10.7983  11.0161
    11.1064  11.1753  11.2056  11.2756  11.3603  11.4196  11.5297  11.5443
    11.6042  11.7406  11.9425  12.0108  12.0733  12.1664  12.3339  12.4674
    12.5560  12.6241  12.6991  12.7247  12.7376  12.8005  12.9004  13.0667
    13.1424  13.2242  13.2710  13.3261  13.4142  13.5127  13.5856  13.7360
    13.7814  13.7918  13.8396  13.9627  13.9939  14.0620  14.1322  14.2096
    14.3100  14.3733  14.4186  14.4989  14.5409  14.6165  14.6823  14.7028
    14.8098  14.9041  14.9915  15.0824  15.1335  15.1917  15.3604  15.4148
    15.4624  15.5353  15.6042  15.7209  15.7789  15.8833  15.9506  16.0269
    16.0736  16.1646  16.2726  16.2863  16.4039  16.4429  16.5207  16.6021
    16.6569  16.7535  16.8332  16.8962  17.0029  17.0619  17.2217  17.3310
    17.3838  17.4345  17.4534  17.5928  17.6433  17.6619  17.8615  18.0420
    18.1515  18.2012  18.2220  18.3265  18.4065  18.5600  18.5883  18.6432
    18.7652  18.8090  18.8720  18.9056  18.9406  18.9936  19.0225  19.0703
    19.1582  19.2066  19.2665  19.3377  19.3732  19.4104  19.5235  19.5613
    19.6227  19.6889  19.7116  19.7957  19.8404  19.8872  19.9429  20.0033
    20.0312  20.1451  20.1552  20.2312  20.2949  20.3497  20.4156  20.4305
    20.4936  20.5454  20.5881  20.6048  20.7358  20.7661  20.8990  20.9592
    20.9665  21.0869  21.1192  21.1379  21.1932  21.2462  21.2865  21.2972
    21.3420  21.4308  21.5074  21.5822  21.6151  21.6739  21.6958  21.7211
    21.7553  21.8417  21.9888  22.0163  22.0871  22.1809

          k = 0.0000-0.4870 0.0000 ( 30448 PWs)   bands (ev):

   -74.1953 -74.1841 -74.0582 -74.0039 -73.9358 -73.7350 -73.5906 -73.5790
   -44.3582 -44.3205 -44.3015 -44.2247 -44.2052 -44.1936 -44.1655 -44.1206
   -44.1138 -44.0818 -43.9852 -43.9478 -43.8975 -43.8549 -43.8180 -43.7995
   -43.7679 -43.7037 -43.6686 -43.6204 -43.5492 -43.4852 -43.4493 -43.3164
   -20.9684 -20.4328 -20.3195 -20.2754 -20.2027 -20.1083 -19.8942 -19.8594
   -19.8385 -19.7611 -19.7018 -19.4627 -19.4062 -19.3319 -19.2911 -19.2666
   -19.2233 -19.1729 -18.8323  -9.4658  -8.9427  -8.7576  -8.6573  -8.6400
    -8.6349  -8.5516  -8.4927  -7.8553  -7.8237  -7.6815  -7.5171  -7.5071
    -7.4828  -7.4494  -7.2943  -7.2771  -7.1770  -7.1142  -6.8721  -6.8469
    -6.7625  -6.5486  -6.3147  -6.1680  -6.1165  -6.0714  -5.9206  -5.6888
    -5.6264  -5.5337  -5.4254  -5.3592  -5.3248  -5.2511  -5.2112  -5.1108
    -5.0683  -4.9694  -4.7693  -4.7103  -4.5047  -4.4654  -4.3328  -4.2687
    -4.2351  -4.0367  -3.9615  -3.9324  -3.8488  -3.7388  -3.7233  -3.4260
    -3.3229  -3.2539  -3.1973  -3.0317  -2.8212  -2.7863  -2.7039  -2.6387
    -2.5016  -2.4544  -2.3266  -2.1929  -2.1356  -2.1035  -2.0139  -1.8316
    -1.8236  -1.6481  -1.3331  -1.3136  -1.0331  -0.9920  -0.6899  -0.3000
    -0.2660  -0.2244  -0.0535   0.1157   0.8541   1.1359   1.2220   1.4928
     2.1210   2.5184   2.8736   3.3283   3.4188   3.4678   3.5392   3.5610
     3.6998   3.7432   4.0087   4.0374   4.2815   4.3243   4.7107   5.0677
     5.1875   5.2902   5.5979   5.7679   6.1116   6.3114   6.7962   6.9798
     7.0110   7.1029   7.2729   7.5442   7.6425   7.6551   7.8980   8.2111
     8.3773   8.4919   8.6088   8.7418   8.8668   8.9311   8.9926   9.0113
     9.0344   9.1644   9.2392   9.2993   9.3309   9.4110   9.5438   9.5732
     9.6333   9.6791   9.7069   9.8394   9.9398  10.0175  10.1656  10.1795
    10.2049  10.2238  10.4594  10.7198  10.7924  10.9462  10.9916  11.1132
    11.2360  11.3263  11.3600  11.4321  11.5913  11.6746  11.7204  11.7864
    11.8724  11.9427  12.0305  12.1026  12.1781  12.3614  12.4447  12.4798
    12.6298  12.6565  12.7464  12.8450  12.8827  12.9107  13.0264  13.2014
    13.2154  13.2831  13.3046  13.4066  13.4599  13.5535  13.5894  13.6268
    13.7245  13.7871  13.8813  13.8919  14.0496  14.1604  14.2174  14.3444
    14.4454  14.4974  14.5401  14.5927  14.7115  14.7951  14.8629  15.0985
    15.1361  15.2122  15.3090  15.4120  15.4939  15.5200  15.6043  15.6520
    15.7363  15.8271  15.8659  15.9061  16.0077  16.0738  16.2076  16.2343
    16.2418  16.3018  16.3594  16.3758  16.4385  16.5012  16.5105  16.5374
    16.5513  16.5906  16.6785  16.7074  16.8094  16.8930  16.9526  16.9816
    17.0020  17.0353  17.2735  17.3438  17.3813  17.4303  17.5222  17.6652
    17.7715  17.8446  17.8713  17.9503  18.0717  18.1295  18.1494  18.2491
    18.2750  18.3468  18.4328  18.4611  18.5062  18.5199  18.5922  18.6313
    18.6634  18.7692  18.8080  18.9464  18.9603  19.0019  19.0064  19.0404
    19.0944  19.3207  19.4104  19.5891  19.6485  19.7265  19.8166  19.9464
    19.9861  20.0377  20.2258  20.2775  20.3365  20.3985  20.4446  20.4789
    20.5068  20.5425  20.5589  20.5873  20.6164  20.6205  20.6770  20.6884
    20.7290  20.7381  20.8138  20.8374  20.9279  20.9786  20.9834  21.0849
    21.0889  21.2234  21.2522  21.2899  21.3125  21.4595  21.5025  21.5559
    21.6284  21.6328  21.6790  21.7097  21.7370  21.7859

          k = 0.2500 0.0000 0.0000 ( 30394 PWs)   bands (ev):

   -74.1936 -74.1853 -74.0575 -74.0029 -73.9352 -73.7344 -73.5892 -73.5796
   -44.3323 -44.3205 -44.3010 -44.2254 -44.2080 -44.1937 -44.1926 -44.1210
   -44.1089 -44.0869 -43.9820 -43.9233 -43.8821 -43.8685 -43.8122 -43.8016
   -43.7770 -43.7124 -43.6897 -43.6081 -43.5574 -43.4849 -43.4345 -43.3396
   -20.9420 -20.4803 -20.4044 -20.3205 -20.2160 -19.9913 -19.8995 -19.8204
   -19.7319 -19.6929 -19.6127 -19.5052 -19.4590 -19.4484 -19.3569 -19.2768
   -19.1221 -19.0444 -18.9084  -9.3423  -9.2997  -9.1899  -8.6021  -8.4647
    -8.4365  -8.3078  -8.0704  -7.9962  -7.9323  -7.9000  -7.8605  -7.7724
    -7.6965  -7.6175  -7.4956  -7.4246  -7.2927  -7.0487  -7.0066  -6.9048
    -6.8224  -6.6037  -6.4994  -6.1996  -6.0220  -5.8607  -5.7266  -5.6824
    -5.5510  -5.4403  -5.3921  -5.2881  -5.2200  -5.1976  -5.1400  -4.9743
    -4.8481  -4.8015  -4.7028  -4.5843  -4.4983  -4.4110  -4.3462  -4.2661
    -4.2024  -4.0367  -3.9522  -3.9216  -3.8294  -3.7865  -3.6760  -3.5637
    -3.3380  -3.2731  -3.0935  -3.0424  -2.8261  -2.7060  -2.5624  -2.5495
    -2.5300  -2.3191  -2.2056  -2.1379  -2.0084  -1.9567  -1.8710  -1.7831
    -1.6044  -1.3776  -1.2960  -1.0834  -1.0466  -1.0329  -0.7581  -0.7377
    -0.4445  -0.3642  -0.2284   0.2346   0.6690   1.6287   1.7054   2.2009
     2.4026   2.5007   2.5515   2.5661   2.7704   2.9132   3.2113   3.4217
     3.5375   3.5579   3.6220   3.7101   3.8902   4.3662   4.5213   4.9648
     5.4266   5.6066   5.9964   6.2573   6.4449   6.5623   6.6434   6.8727
     7.2499   7.4154   7.5666   7.6346   7.7279   7.7837   8.0099   8.1308
     8.2105   8.3437   8.4893   8.5325   8.6438   8.7364   8.8688   8.9341
     9.0670   9.1822   9.3021   9.3985   9.4469   9.5559   9.5795   9.6421
     9.7065   9.8215   9.9242   9.9948  10.0886  10.1652  10.1920  10.2596
    10.3339  10.4143  10.5300  10.5724  10.6620  10.7520  10.9669  11.0250
    11.0874  11.2449  11.2713  11.3336  11.4245  11.4713  11.5877  11.6445
    11.7005  11.7536  11.9331  11.9781  12.0361  12.1464  12.2642  12.3439
    12.4622  12.5352  12.5935  12.6506  12.7418  12.8173  12.9260  12.9604
    13.1193  13.1670  13.1905  13.3144  13.3341  13.4955  13.6977  13.7544
    13.8376  13.8730  13.8977  13.9578  14.0535  14.1651  14.2099  14.2380
    14.3053  14.3507  14.4088  14.4285  14.5382  14.5630  14.6330  14.7281
    14.8195  14.9628  15.0926  15.1279  15.1763  15.2699  15.4468  15.5337
    15.6213  15.6819  15.7872  15.8205  15.8667  15.9756  16.0260  16.0464
    16.0896  16.1438  16.2269  16.2719  16.3623  16.4537  16.5097  16.6098
    16.7185  16.7487  16.8098  16.9126  16.9736  17.0105  17.2062  17.2863
    17.3440  17.3742  17.4502  17.5231  17.5848  17.6651  17.7746  17.8014
    17.8738  17.9957  18.1357  18.1827  18.3199  18.3478  18.4279  18.5570
    18.6265  18.7029  18.8592  18.9886  19.0608  19.0974  19.1289  19.2119
    19.2667  19.3279  19.3688  19.4049  19.4246  19.4868  19.5455  19.5834
    19.6089  19.6728  19.7333  19.7639  19.7980  19.8220  19.8963  19.9714
    20.0345  20.0963  20.1713  20.2132  20.2401  20.2826  20.3358  20.5352
    20.5480  20.6203  20.6651  20.6721  20.7429  20.7928  20.8507  20.8738
    20.9121  20.9542  20.9925  21.0564  21.1574  21.1787  21.2267  21.2951
    21.3421  21.3668  21.4037  21.4905  21.5786  21.6353  21.6470  21.6904
    21.7579  21.7904  21.8869  21.9005  22.0128  22.0757

          k = 0.2500 0.2435 0.0000 ( 30434 PWs)   bands (ev):

   -74.1934 -74.1853 -74.0576 -74.0030 -73.9353 -73.7344 -73.5890 -73.5795
   -44.3322 -44.3205 -44.3010 -44.2254 -44.2067 -44.1944 -44.1925 -44.1209
   -44.1090 -44.0869 -43.9834 -43.9242 -43.8812 -43.8648 -43.8136 -43.8014
   -43.7761 -43.7150 -43.6895 -43.6080 -43.5573 -43.4852 -43.4342 -43.3395
   -20.9147 -20.4103 -20.3554 -20.3048 -20.1963 -19.9929 -19.8811 -19.8242
   -19.7686 -19.7108 -19.6723 -19.4698 -19.4433 -19.4043 -19.3513 -19.2913
   -19.2355 -19.1846 -18.9079  -9.2767  -8.9376  -8.8783  -8.6735  -8.4672
    -8.4444  -8.3826  -8.2700  -7.9959  -7.8608  -7.7838  -7.7259  -7.6379
    -7.5979  -7.5644  -7.5083  -7.3753  -7.2666  -7.0719  -6.9948  -6.7944
    -6.5985  -6.4968  -6.3801  -6.2211  -6.0718  -6.0018  -5.9129  -5.7749
    -5.6970  -5.5799  -5.4999  -5.4341  -5.3449  -5.2673  -5.1815  -5.1274
    -5.0408  -5.0028  -4.8709  -4.8063  -4.6789  -4.5943  -4.3975  -4.3275
    -4.2391  -4.1925  -4.0996  -3.9423  -3.7962  -3.7734  -3.6515  -3.5237
    -3.2683  -3.2167  -3.1472  -2.9705  -2.6047  -2.4277  -2.3942  -2.3514
    -2.3032  -2.2046  -2.1610  -2.1191  -2.0706  -1.9323  -1.8603  -1.8018
    -1.7332  -1.6668  -1.3900  -1.2043  -1.0420  -0.7457  -0.6100  -0.5431
    -0.4444  -0.3855  -0.2567   0.0420   0.8157   1.5727   1.7612   1.7695
     1.9504   2.3681   2.6658   2.8949   3.1522   3.1860   3.3327   3.3952
     3.4280   3.5343   3.7331   3.9285   4.0628   4.3324   4.7410   5.1623
     5.6004   5.7700   5.8269   6.0721   6.3513   6.5330   6.6307   6.6776
     6.8086   7.0129   7.0783   7.3211   7.5227   7.7168   7.8113   7.9599
     8.0721   8.2789   8.3948   8.4409   8.5055   8.5971   8.7873   8.8052
     8.9264   9.0631   9.1805   9.3432   9.4521   9.5426   9.6320   9.7837
     9.9172  10.0507  10.1262  10.1564  10.2319  10.3713  10.4233  10.4474
    10.5103  10.6271  10.7380  10.9041  10.9216  10.9888  11.1177  11.2565
    11.3160  11.4179  11.5239  11.6004  11.6388  11.7775  11.8290  11.8782
    11.9580  12.0190  12.1166  12.1897  12.2099  12.3339  12.4077  12.4981
    12.5514  12.6368  12.6867  12.7246  12.7730  12.8341  12.9232  12.9548
    13.0570  13.1454  13.2007  13.3146  13.4550  13.5090  13.5587  13.6299
    13.7251  13.9046  13.9359  14.0323  14.1023  14.1682  14.2697  14.3601
    14.4002  14.5184  14.5496  14.5760  14.6070  14.7488  14.8235  14.9111
    14.9559  15.0833  15.1510  15.2390  15.3050  15.3514  15.4914  15.5691
    15.6362  15.6854  15.7476  15.8339  15.8613  15.9090  15.9457  16.0373
    16.1511  16.1835  16.2005  16.3100  16.3476  16.3626  16.4473  16.5835
    16.6049  16.7026  16.7550  16.8120  16.8950  16.9307  16.9968  17.0810
    17.1615  17.2237  17.2713  17.3487  17.4138  17.4797  17.4966  17.5512
    17.6029  17.6834  17.7384  17.8300  17.8702  17.9513  18.0215  18.0544
    18.0949  18.1920  18.2280  18.3078  18.3427  18.4604  18.5329  18.5597
    18.7037  18.7847  18.8475  18.8874  18.9602  19.0516  19.0946  19.1562
    19.2225  19.3149  19.3915  19.4533  19.4668  19.6175  19.6661  19.7483
    19.8256  19.8889  19.9542  20.0200  20.0401  20.1590  20.2071  20.3656
    20.4484  20.5499  20.6510  20.6998  20.7641  20.8071  20.8817  20.9489
    20.9772  21.0620  21.1272  21.1984  21.2628  21.2878  21.3415  21.4028
    21.4680  21.4864  21.5618  21.6412  21.6626  21.7277  21.7751  21.8777
    21.9460  21.9833  22.0073  22.0712  22.1345  22.1926

          k = 0.2500-0.4870 0.0000 ( 30468 PWs)   bands (ev):

   -74.1932 -74.1853 -74.0576 -74.0031 -73.9354 -73.7345 -73.5888 -73.5795
   -44.3321 -44.3205 -44.3010 -44.2254 -44.2057 -44.1950 -44.1921 -44.1207
   -44.1092 -44.0869 -43.9849 -43.9270 -43.8802 -43.8547 -43.8174 -43.8017
   -43.7784 -43.7161 -43.6893 -43.6079 -43.5573 -43.4855 -43.4340 -43.3395
   -20.8893 -20.3442 -20.3101 -20.2769 -20.1409 -19.9909 -19.8608 -19.8297
   -19.7766 -19.7600 -19.6713 -19.4939 -19.4203 -19.4130 -19.3850 -19.3369
   -19.3226 -19.2731 -18.9087  -9.2606  -8.7607  -8.4956  -8.4708  -8.4479
    -8.4332  -8.4069  -8.3397  -7.9786  -7.7444  -7.6878  -7.6207  -7.5371
    -7.5152  -7.4235  -7.3759  -7.2969  -7.2188  -7.1003  -6.8926  -6.8093
    -6.7084  -6.5649  -6.3554  -6.2688  -6.2522  -6.0272  -6.0008  -5.9721
    -5.8793  -5.7503  -5.6809  -5.6490  -5.5559  -5.3821  -5.3294  -5.2734
    -5.1991  -5.1374  -5.0854  -4.9024  -4.6981  -4.6644  -4.5713  -4.2994
    -4.2423  -4.0239  -3.9170  -3.8863  -3.7808  -3.7078  -3.5882  -3.4009
    -3.3414  -3.2147  -3.1475  -2.8321  -2.7236  -2.6050  -2.5154  -2.3534
    -2.2725  -2.2309  -2.1389  -2.1033  -1.9711  -1.9649  -1.8223  -1.7502
    -1.4412  -1.4161  -1.2388  -1.1374  -1.0201  -0.9196  -0.7227  -0.4731
    -0.3647  -0.3337  -0.2462  -0.0445   0.9416   1.2694   1.3821   1.7209
     2.1546   2.5144   2.7434   2.8569   2.9666   3.1522   3.2939   3.5065
     3.6357   3.6978   3.9222   3.9453   4.4888   4.5497   4.9661   5.3128
     5.4284   5.5426   5.8348   6.0254   6.0771   6.3421   6.5770   6.6935
     6.7104   7.0886   7.1504   7.3170   7.3652   7.4220   7.4712   7.6135
     7.7240   7.9113   8.1535   8.2319   8.4419   8.5213   8.5551   8.7304
     8.9447   8.9841   9.1153   9.2429   9.2998   9.4353   9.6931   9.8515
     9.9646  10.0806  10.1989  10.3165  10.3742  10.4566  10.5121  10.6881
    10.8357  11.0608  11.1308  11.2124  11.3607  11.3952  11.4737  11.5249
    11.5930  11.6565  11.6829  11.7659  11.8930  11.9275  11.9469  12.0356
    12.1776  12.2556  12.2872  12.3611  12.4588  12.5433  12.6026  12.7038
    12.7543  12.8026  12.8440  12.9638  13.0018  13.0420  13.1218  13.1864
    13.3297  13.3637  13.3828  13.4675  13.5594  13.5985  13.6565  13.7178
    13.7481  13.8356  13.9021  13.9498  14.0311  14.2059  14.2509  14.3226
    14.3989  14.4587  14.5645  14.6087  14.6230  14.6745  14.7708  14.8108
    14.8853  14.9213  14.9549  15.0536  15.1652  15.2001  15.2350  15.2958
    15.3626  15.4515  15.5146  15.5381  15.6707  15.7944  15.8879  15.9373
    16.0297  16.1516  16.2123  16.2591  16.2942  16.3297  16.3953  16.4394
    16.4982  16.5614  16.6456  16.6779  16.7248  16.7847  16.8514  16.9199
    16.9945  17.0483  17.0895  17.2049  17.2579  17.3204  17.3825  17.4359
    17.4976  17.5259  17.6070  17.6460  17.7039  17.7952  17.8982  18.0019
    18.1686  18.2278  18.3071  18.3523  18.3925  18.4195  18.4759  18.5095
    18.5477  18.5671  18.6582  18.7636  18.8172  18.8780  18.8908  18.9321
    18.9839  19.0469  19.1398  19.2255  19.2502  19.3367  19.3906  19.4564
    19.6342  19.6887  19.7452  19.7848  19.8032  19.9006  19.9326  19.9972
    20.0468  20.0580  20.1507  20.2990  20.3241  20.4312  20.5508  20.6426
    20.7297  20.8065  20.8406  20.9359  20.9996  21.0613  21.0794  21.1218
    21.1556  21.2646  21.3660  21.4505  21.5932  21.6660  21.7523  21.8860
    21.9827  22.0092  22.0845  22.1199  22.1582  22.2321

          k =-0.5000 0.0000 0.0000 ( 30480 PWs)   bands (ev):

   -74.1895 -74.1884 -74.0569 -74.0021 -73.9348 -73.7338 -73.5868 -73.5806
   -44.3205 -44.3026 -44.2699 -44.2603 -44.2242 -44.2007 -44.1981 -44.1211
   -44.0998 -44.0965 -43.9818 -43.8970 -43.8593 -43.8568 -43.8251 -43.8127
   -43.7858 -43.7213 -43.7155 -43.5857 -43.5752 -43.4851 -43.3961 -43.3860
   -20.8004 -20.4853 -20.2902 -20.2534 -20.1074 -20.0327 -19.9815 -19.8773
   -19.7578 -19.7050 -19.6206 -19.4822 -19.4621 -19.3378 -19.3005 -19.2759
   -19.2566 -19.2420 -19.0145  -8.8661  -8.7514  -8.7134  -8.6686  -8.6080
    -8.5950  -8.3099  -8.2838  -8.1956  -8.1373  -7.9329  -7.8927  -7.8327
    -7.6571  -7.5782  -7.5223  -7.4665  -7.2062  -6.9323  -6.8315  -6.6026
    -6.5453  -6.4761  -6.3600  -6.2202  -6.1405  -6.1023  -6.0420  -5.8712
    -5.8107  -5.7918  -5.6191  -5.5225  -5.4076  -5.1669  -5.1315  -5.0767
    -5.0537  -5.0358  -4.9538  -4.7988  -4.5297  -4.4569  -4.4002  -4.3459
    -4.2079  -4.1271  -4.0665  -3.9693  -3.7587  -3.7045  -3.4839  -3.4251
    -3.4104  -3.3099  -3.2351  -3.0941  -2.6167  -2.5727  -2.4272  -2.4186
    -2.3816  -2.2208  -2.1301  -1.9837  -1.6748  -1.6307  -1.5373  -1.4898
    -1.4210  -1.3695  -1.2330  -1.0532  -1.0469  -0.9998  -0.9519  -0.9349
    -0.5440  -0.5117  -0.1253  -0.1071   0.7954   1.9283   2.1853   2.2141
     2.3092   2.4032   2.5356   2.6925   2.8469   2.8974   2.9543   2.9730
     3.0103   3.4817   3.6757   3.7944   4.4774   4.5631   4.5965   5.1293
     5.2414   5.3424   5.6591   5.8061   6.1716   6.2931   6.8012   6.9311
     7.1662   7.2912   7.4190   7.4838   7.8122   7.9099   8.1133   8.2362
     8.2901   8.4224   8.4759   8.5986   8.7929   8.8235   8.8557   8.8712
     8.9376   8.9864   9.2335   9.2999   9.3834   9.4140   9.4920   9.5674
     9.6361   9.7032   9.9831  10.0642  10.1542  10.1835  10.2417  10.3442
    10.3824  10.4205  10.5228  10.5540  10.7210  10.7718  10.8519  10.9001
    11.1137  11.1761  11.2473  11.3505  11.7113  11.7137  11.8291  11.9746
    12.0654  12.1046  12.1513  12.2427  12.3341  12.4787  12.6097  12.6284
    12.6524  12.7097  12.7709  12.8000  12.8234  12.8429  13.0126  13.0943
    13.1706  13.2196  13.3436  13.3566  13.5645  13.5784  13.6777  13.7347
    13.7785  13.9588  14.0332  14.0371  14.0908  14.2121  14.4053  14.5341
    14.5822  14.6049  14.6871  14.7154  14.7555  14.8090  14.9011  14.9295
    15.0060  15.0546  15.1641  15.2763  15.3311  15.3741  15.4151  15.4453
    15.5372  15.6120  15.7497  15.9856  16.0123  16.0664  16.1138  16.3501
    16.3590  16.3681  16.4669  16.4998  16.5355  16.5498  16.5822  16.6500
    16.6633  16.7071  16.7913  16.7940  16.8214  16.8650  16.8891  16.9239
    16.9371  16.9659  17.0353  17.1697  17.2618  17.3238  17.4181  17.5967
    17.6381  17.6898  17.7549  17.8329  17.9355  18.0112  18.0808  18.1193
    18.1927  18.3157  18.4398  18.5446  18.5976  18.6384  18.6939  18.7064
    18.8031  18.8765  18.9844  19.0891  19.1476  19.2780  19.3490  19.4070
    19.4466  19.4618  19.5340  19.6075  19.6738  19.6941  19.7707  19.7933
    19.8354  19.8633  19.9147  19.9642  20.0097  20.0585  20.0943  20.2237
    20.2890  20.3241  20.3706  20.4051  20.4243  20.4523  20.5500  20.5581
    20.6009  20.6615  20.7477  20.8217  20.8278  20.8915  20.9819  21.1616
    21.1833  21.2318  21.3445  21.3705  21.4511  21.4794  21.5339  21.5481
    21.5681  21.6268  21.6497  21.6733  21.7071  21.8060

          k =-0.5000 0.2435 0.0000 ( 30444 PWs)   bands (ev):

   -74.1894 -74.1883 -74.0570 -74.0021 -73.9348 -73.7339 -73.5867 -73.5805
   -44.3205 -44.3027 -44.2699 -44.2602 -44.2242 -44.1997 -44.1981 -44.1210
   -44.0998 -44.0965 -43.9832 -43.8963 -43.8587 -43.8567 -43.8260 -43.8053
   -43.7908 -43.7237 -43.7151 -43.5857 -43.5751 -43.4855 -43.3959 -43.3858
   -20.7886 -20.4633 -20.2787 -20.1861 -20.0547 -19.9969 -19.9088 -19.8655
   -19.7318 -19.6883 -19.6247 -19.5017 -19.4808 -19.4155 -19.3885 -19.3595
   -19.3478 -19.2774 -19.0131  -8.8611  -8.7406  -8.3906  -8.3569  -8.3302
    -8.3165  -8.2932  -8.2386  -8.1669  -8.0865  -7.9376  -7.8725  -7.8077
    -7.6800  -7.6351  -7.5325  -7.3689  -7.1367  -6.8482  -6.7470  -6.6547
    -6.5504  -6.5009  -6.4897  -6.4349  -6.3660  -6.3066  -6.1987  -6.1258
    -5.8545  -5.7741  -5.5594  -5.4896  -5.4732  -5.4004  -5.2579  -5.2023
    -5.0072  -4.9510  -4.9248  -4.9004  -4.8664  -4.7670  -4.5107  -4.4562
    -4.3846  -4.3351  -4.0798  -3.9932  -3.7964  -3.7332  -3.5161  -3.4357
    -3.3369  -3.2269  -3.1626  -3.0424  -2.5169  -2.3683  -2.2276  -2.1795
    -2.1065  -1.9583  -1.9410  -1.9298  -1.8792  -1.7565  -1.7076  -1.6261
    -1.3596  -1.2766  -1.2472  -1.0801  -1.0490  -0.8745  -0.8027  -0.7219
    -0.6188  -0.5636  -0.2441  -0.1875   0.9130   2.0397   2.0910   2.1474
     2.2361   2.2833   2.3473   2.4642   2.5036   2.8609   2.9887   3.2820
     3.3610   3.4575   3.8061   3.9470   4.6064   4.7451   4.7796   5.3469
     5.4612   5.5538   5.8493   5.9980   6.2658   6.3457   6.5068   6.6219
     6.7512   7.0422   7.2019   7.2749   7.3407   7.3999   7.5137   7.6642
     7.7459   7.8255   8.1833   8.2704   8.4397   8.5430   8.6446   8.8108
     8.9890   9.0926   9.1711   9.2303   9.3496   9.4451   9.6367   9.8749
    10.1103  10.2309  10.2880  10.3137  10.4153  10.4727  10.5891  10.6609
    10.7862  10.8331  10.9778  11.0152  11.1141  11.2585  11.3104  11.3595
    11.4525  11.4917  11.6257  11.7342  11.9565  12.0269  12.1180  12.1958
    12.2626  12.3028  12.3479  12.4646  12.5011  12.5566  12.6195  12.6830
    12.7464  12.8488  12.9311  12.9921  13.0604  13.1075  13.1993  13.2652
    13.3221  13.3829  13.4297  13.4677  13.6053  13.6850  13.7808  13.8494
    13.9640  14.0068  14.0768  14.1250  14.2265  14.2577  14.3712  14.4108
    14.4873  14.6081  14.6452  14.6791  14.7478  14.7866  14.8368  14.9045
    14.9288  14.9818  15.0206  15.0508  15.1840  15.2091  15.2543  15.3047
    15.3582  15.4229  15.5263  15.5889  15.6324  15.6992  15.7380  15.7855
    15.8296  15.8781  15.9189  15.9821  16.0683  16.1626  16.2676  16.3790
    16.4376  16.4588  16.5346  16.6019  16.6551  16.6935  16.7521  16.7820
    16.7975  16.8681  17.0085  17.1219  17.1882  17.2747  17.2840  17.3446
    17.4317  17.4900  17.5387  17.5979  17.6967  17.8328  17.8840  17.9757
    18.0450  18.1253  18.2155  18.2328  18.3482  18.4005  18.4185  18.5356
    18.5824  18.6958  18.7982  18.8421  18.8664  18.9105  18.9572  18.9817
    19.0539  19.1029  19.1278  19.2503  19.3159  19.4390  19.5254  19.5646
    19.6021  19.6722  19.7074  19.7977  19.8859  19.9429  20.0203  20.0905
    20.1437  20.1976  20.2798  20.3562  20.4052  20.5177  20.6671  20.6937
    20.7525  20.8040  20.8497  20.8993  21.0079  21.0360  21.1726  21.2411
    21.3539  21.3857  21.5507  21.6069  21.6788  21.7589  21.8183  21.8870
    21.9440  21.9978  22.0699  22.1586  22.2290  22.2586

          k =-0.5000-0.4870 0.0000 ( 30440 PWs)   bands (ev):

   -74.1893 -74.1882 -74.0570 -74.0022 -73.9349 -73.7339 -73.5867 -73.5804
   -44.3206 -44.3027 -44.2699 -44.2601 -44.2242 -44.1991 -44.1978 -44.1209
   -44.0999 -44.0966 -43.9846 -43.8955 -43.8582 -43.8581 -43.8195 -43.8061
   -43.7934 -43.7263 -43.7148 -43.5856 -43.5751 -43.4858 -43.3957 -43.3857
   -20.7771 -20.4431 -20.2682 -20.0529 -20.0421 -19.9928 -19.7808 -19.7171
   -19.7071 -19.6697 -19.6244 -19.5824 -19.5777 -19.5478 -19.5151 -19.4350
   -19.4269 -19.2861 -19.0123  -8.8533  -8.7348  -8.3056  -8.3000  -8.2715
    -8.1716  -8.0183  -7.9622  -7.8646  -7.7565  -7.6966  -7.6596  -7.6085
    -7.4885  -7.4808  -7.4457  -7.3719  -7.2599  -7.1342  -7.1140  -7.0445
    -6.9172  -6.6803  -6.5903  -6.5041  -6.3767  -6.2766  -6.2342  -6.0339
    -5.9058  -5.8502  -5.6855  -5.6284  -5.5201  -5.4816  -5.4486  -5.4345
    -5.3903  -5.3337  -5.2362  -5.1880  -4.8256  -4.7485  -4.4893  -4.2832
    -4.1775  -4.1110  -4.0678  -3.9765  -3.9310  -3.8260  -3.5045  -3.4617
    -3.3318  -2.9909  -2.9365  -2.8952  -2.4991  -2.4162  -2.3970  -2.2939
    -2.1917  -2.0374  -1.9561  -1.8793  -1.7781  -1.5940  -1.5454  -1.4609
    -1.2895  -1.2106  -1.1317  -1.1181  -0.8977  -0.7757  -0.7174  -0.6681
    -0.6064  -0.4874  -0.3797  -0.3269   1.0160   1.7918   1.8596   1.9384
     1.9401   2.2629   2.3724   2.3868   2.4722   3.1154   3.1458   3.1885
     3.6225   3.7900   3.8053   3.8249   4.7677   5.1376   5.1890   5.6526
     5.6660   5.9239   5.9378   6.0673   6.1358   6.1889   6.2329   6.3133
     6.5275   6.6385   6.7202   6.8080   7.0273   7.1529   7.2976   7.4135
     7.6839   7.8621   8.0203   8.1401   8.1926   8.2761   8.3263   8.4291
     8.8553   8.9265   9.1360   9.2360   9.2939   9.4824   9.6793   9.7344
     9.9149   9.9919  10.3730  10.5918  10.6778  10.6845  10.9219  10.9993
    11.0421  11.1034  11.1499  11.5305  11.7313  11.8896  11.9696  11.9917
    12.0455  12.0920  12.1833  12.2394  12.4078  12.4686  12.4838  12.5729
    12.6410  12.6942  12.8244  12.9213  13.0210  13.0840  13.2220  13.2598
    13.2747  13.2774  13.3387  13.3752  13.4080  13.4772  13.4951  13.5151
    13.5626  13.5831  13.6217  13.6918  13.7149  13.7542  13.7554  13.8049
    13.8200  13.8573  13.8782  13.8964  13.9694  14.0473  14.1451  14.1582
    14.2108  14.2197  14.2548  14.2960  14.3818  14.4084  14.4406  14.4859
    14.5764  14.5816  14.6120  14.6685  14.7510  14.8811  14.9636  14.9943
    15.0255  15.1289  15.2023  15.2559  15.2632  15.3917  15.4273  15.4824
    15.5013  15.5304  15.5839  15.6132  15.7680  15.8577  15.9004  15.9662
    16.0333  16.0889  16.1992  16.3164  16.3850  16.4602  16.5169  16.5854
    16.7311  16.7944  16.8128  16.8581  16.8664  17.0503  17.1392  17.1484
    17.2009  17.2680  17.3429  17.3570  17.3920  17.4542  17.4886  17.6529
    17.6764  17.7815  17.8716  17.9550  18.0721  18.2410  18.3911  18.4690
    18.5234  18.5776  18.5876  18.7477  18.8058  18.8647  18.8994  18.9202
    19.0412  19.2583  19.3857  19.4315  19.4950  19.5320  19.5564  19.7105
    19.7632  19.8502  20.0491  20.2503  20.3329  20.4023  20.4825  20.5380
    20.6259  20.7144  20.7526  20.8023  20.9187  20.9493  20.9705  21.0506
    21.0651  21.0744  21.2029  21.2472  21.2747  21.2848  21.3256  21.3568
    21.4025  21.4828  21.5363  21.5756  21.5910  21.6152  21.6544  21.7227
    21.7363  21.7679  21.8427  21.9466  22.0035  22.1376

          k =-0.2500 0.2435 0.0000 ( 30434 PWs)   bands (ev):

   -74.1934 -74.1853 -74.0576 -74.0030 -73.9353 -73.7344 -73.5890 -73.5795
   -44.3322 -44.3205 -44.3010 -44.2254 -44.2070 -44.1944 -44.1922 -44.1209
   -44.1091 -44.0868 -43.9834 -43.9261 -43.8812 -43.8601 -43.8131 -43.8027
   -43.7797 -43.7135 -43.6895 -43.6080 -43.5573 -43.4852 -43.4342 -43.3395
   -20.9147 -20.4108 -20.3545 -20.3044 -20.1967 -19.9921 -19.8805 -19.8233
   -19.7679 -19.7129 -19.6771 -19.4695 -19.4431 -19.3997 -19.3514 -19.2919
   -19.2352 -19.1856 -18.9079  -9.2756  -8.9378  -8.8783  -8.6792  -8.4762
    -8.4470  -8.3663  -8.2467  -8.0078  -7.8736  -7.7878  -7.7540  -7.6507
    -7.5975  -7.5405  -7.4832  -7.4058  -7.3097  -7.0188  -6.9166  -6.8109
    -6.5776  -6.5524  -6.3915  -6.1761  -6.1057  -6.0390  -5.8810  -5.7346
    -5.6538  -5.6098  -5.5333  -5.4831  -5.3496  -5.2233  -5.1833  -5.1282
    -5.0692  -4.9988  -4.8649  -4.8559  -4.6719  -4.5315  -4.4287  -4.3052
    -4.2219  -4.1618  -4.1091  -3.9643  -3.8926  -3.7369  -3.6316  -3.5390
    -3.2595  -3.2253  -3.1282  -2.9003  -2.6229  -2.4704  -2.3964  -2.3547
    -2.3247  -2.1988  -2.1526  -2.0872  -2.0615  -1.9766  -1.8617  -1.8339
    -1.6985  -1.6407  -1.3661  -1.2299  -1.0416  -0.7381  -0.6264  -0.5553
    -0.4434  -0.3927  -0.2278   0.0352   0.8155   1.5762   1.7474   1.7797
     1.9498   2.3717   2.6679   2.8937   3.1451   3.1952   3.3317   3.3928
     3.4356   3.5359   3.7160   3.9294   4.0631   4.3342   4.7403   5.1645
     5.6121   5.7852   5.8347   6.0651   6.3627   6.5178   6.6331   6.6856
     6.8016   7.0016   7.0534   7.2870   7.5316   7.7102   7.8407   7.9441
     8.0764   8.2923   8.3768   8.4632   8.5341   8.5907   8.7341   8.7879
     8.9401   9.1108   9.2001   9.3285   9.4151   9.5185   9.6611   9.8501
     9.9214  10.0205  10.1229  10.1557  10.1999  10.3617  10.3865  10.4477
    10.5631  10.6487  10.7406  10.8676  10.8979  10.9756  11.1004  11.2883
    11.3557  11.4189  11.5450  11.5854  11.6449  11.7727  11.8316  11.8533
    11.9463  12.0314  12.1161  12.1683  12.2525  12.3677  12.4175  12.5089
    12.5170  12.6270  12.7171  12.7334  12.7774  12.8540  12.9223  13.0078
    13.0784  13.1543  13.2025  13.3253  13.3898  13.5117  13.5823  13.6370
    13.7268  13.8217  13.9310  14.0203  14.1034  14.1947  14.2283  14.3051
    14.3763  14.5191  14.5757  14.6071  14.6565  14.7382  14.8501  14.8994
    14.9334  15.0822  15.1165  15.1989  15.2899  15.3742  15.5389  15.5570
    15.6332  15.7047  15.7829  15.8316  15.8573  15.8837  15.9556  16.0405
    16.0722  16.1480  16.2051  16.2948  16.3125  16.3538  16.4617  16.5308
    16.6242  16.7160  16.7704  16.8131  16.8764  16.8963  16.9745  17.0526
    17.1639  17.2147  17.2896  17.3565  17.4633  17.4907  17.5117  17.5530
    17.6132  17.6754  17.7407  17.8044  17.8645  17.9257  17.9981  18.0652
    18.1271  18.1982  18.2213  18.3124  18.3483  18.4436  18.5666  18.6089
    18.6912  18.7956  18.8454  18.8981  18.9734  19.0449  19.1213  19.1951
    19.2137  19.3125  19.4120  19.4672  19.5024  19.6058  19.6936  19.7501
    19.7939  19.8602  19.9464  19.9923  20.1015  20.2366  20.2829  20.3694
    20.4099  20.5251  20.6420  20.7018  20.7515  20.8144  20.8757  20.9562
    20.9697  21.0524  21.1216  21.1855  21.2466  21.3290  21.3499  21.4111
    21.4592  21.4842  21.5491  21.5953  21.6395  21.7339  21.8196  21.8706
    21.9604  21.9758  22.0070  22.0516  22.1454  22.2436

     the Fermi energy is    -1.1856 ev

!    total energy              =   -2162.59673097 Ry
     Harris-Foulkes estimate   =   -2162.59673155 Ry
     estimated scf accuracy    <       0.00000071 Ry

     The total energy is the sum of the following terms:

     one-electron contribution =  -25192.61061150 Ry
     hartree contribution      =   12620.52661273 Ry
     xc contribution           =    -338.55918165 Ry
     ewald contribution        =   10745.97550717 Ry
     Hubbard energy            =       2.06978031 Ry
     smearing contrib. (-TS)   =       0.00116197 Ry

     convergence has been achieved in  46 iterations

     Forces acting on atoms (Ry/au):


     negative rho (up, down):  0.575E+00 0.000E+00
     atom    1 type  1   force =    -0.00641897   -0.00998975    0.01077047
     atom    2 type  1   force =     0.00042991    0.01110390   -0.00491764
     atom    3 type  2   force =     0.02693728    0.00015119   -0.01468465
     atom    4 type  2   force =     0.00283719    0.00593767    0.00406842
     atom    5 type  1   force =     0.00114053   -0.03664637    0.00136355
     atom    6 type  1   force =     0.00332131    0.03812408    0.00079906
     atom    7 type  1   force =     0.00199069   -0.00321278    0.03389986
     atom    8 type  1   force =     0.00040451   -0.00227631   -0.01410210
     atom    9 type  2   force =    -0.01849007    0.00215881    0.00245667
     atom   10 type  2   force =    -0.00742539   -0.00088856   -0.00972323
     atom   11 type  1   force =    -0.00971813    0.01317885   -0.00424255
     atom   12 type  1   force =    -0.01133264   -0.01373413   -0.00389089
     atom   13 type  1   force =    -0.00095540   -0.00046176   -0.00006970
     atom   14 type  1   force =    -0.00513651   -0.00859052    0.01023196
     atom   15 type  1   force =     0.00008102    0.00832152    0.00882612
     atom   16 type  2   force =    -0.02832134    0.00250526   -0.01526888
     atom   17 type  2   force =     0.00245109    0.00538510    0.00245106
     atom   18 type  1   force =    -0.00101689   -0.03789991    0.00173396
     atom   19 type  1   force =     0.00298521    0.03681397    0.00093732
     atom   20 type  1   force =    -0.00120746   -0.00195127    0.01546365
     atom   21 type  1   force =    -0.00019846   -0.00077991   -0.01150033
     atom   22 type  2   force =     0.01865142    0.00186282    0.00084042
     atom   23 type  2   force =     0.00364092    0.00038391    0.00520543
     atom   24 type  1   force =     0.01180910    0.01490792   -0.00449014
     atom   25 type  1   force =     0.01307717   -0.01508925   -0.00454177
     atom   26 type  1   force =    -0.00128204   -0.00109096   -0.00118906
     atom   27 type  3   force =    -0.00011292   -0.00475282    0.00081507
     atom   28 type  3   force =    -0.00002691   -0.00358174   -0.00004350
     atom   29 type  3   force =     0.00098558    0.00024584   -0.00057691
     atom   30 type  3   force =     0.00094057   -0.00018811   -0.00071895
     atom   31 type  1   force =    -0.00036077    0.00033045   -0.00967784
     atom   32 type  3   force =     0.00032037   -0.00027714   -0.00022486

     Total force =     0.053448     Total SCF correction =     0.003003

     BFGS Geometry Optimization

     number of scf cycles    =   1
     number of bfgs steps    =   0

     energy   new            =   -2162.5967309688 Ry

     new trust radius        =       0.0338998613 bohr
     new conv_thr            =       0.0000010000 Ry


ATOMIC_POSITIONS (crystal)
O0       0.000000000   0.000000000   0.379135837    0   0   1
O0       0.000000000   0.500000000   0.403011452    0   0   1
Ru1      0.250000000   0.500000000   0.453425723    0   0   1
Ru1      0.000000000   0.000000000   0.453121530    0   0   1
O0       0.250000000   0.810000000   0.453007325    0   0   1
O0       0.250000000   0.190000000   0.452886013    0   0   1
O0       0.000000000   0.500000000   0.498189344    0   0   1
O0       0.000000000   0.000000000   0.526927397    0   0   1
Ru1      0.250000000   0.000000000   0.577619231    0   0   1
Ru1      0.000000000   0.500000000   0.568185149    0   0   1
O0       0.250000000   0.690000000   0.575664980    0   0   1
O0       0.250000000   0.310000000   0.575602028    0   0   1
O0       0.000000000   0.000000000   0.619908603    0   0   1
O0       0.500000000   0.000000000   0.379375046    0   0   1
O0       0.500000000   0.500000000   0.403266873    0   0   1
Ru1      0.750000000   0.500000000   0.453424016    0   0   1
Ru1      0.500000000   0.000000000   0.453199119    0   0   1
O0       0.750000000   0.810000000   0.452964748    0   0   1
[...]
    13.1610  13.2208  13.3192  13.3634  13.5658  13.5688  13.6778  13.7553
    13.7799  13.9710  14.0386  14.0626  14.1457  14.2102  14.4227  14.5875
    14.6039  14.6498  14.7101  14.7332  14.8176  14.8496  14.9439  15.0059
    15.0236  15.0839  15.1599  15.3103  15.3824  15.3896  15.4464  15.5127
    15.5588  15.6998  15.8436  15.9997  16.0507  16.0708  16.1310  16.3325
    16.3600  16.3652  16.4433  16.4743  16.5214  16.5444  16.5582  16.6287
    16.6654  16.7170  16.7605  16.7998  16.8038  16.8624  16.8955  16.9208
    16.9513  16.9867  17.0535  17.1775  17.2541  17.3039  17.4099  17.5652
    17.6363  17.7023  17.7458  17.8085  17.9461  18.0013  18.0583  18.1172
    18.1832  18.2942  18.3967  18.5352  18.5874  18.6149  18.6776  18.6874
    18.7995  18.8713  18.9690  19.1019  19.1543  19.2762  19.3426  19.3983
    19.4309  19.4427  19.5252  19.6083  19.6609  19.6830  19.7415  19.7613
    19.7984  19.8412  19.9122  19.9574  20.0033  20.0540  20.0868  20.2011
    20.2537  20.3136  20.3679  20.4082  20.4135  20.4397  20.5314  20.5410
    20.6047  20.6646  20.7615  20.8220  20.8305  20.8984  20.9884  21.1508
    21.1960  21.2434  21.3244  21.3450  21.4246  21.4700  21.5369  21.5475
    21.5670  21.6371  21.6661  21.6953  21.7238  21.8057

          k =-0.5000 0.2435 0.0000 ( 30444 PWs)   bands (ev):

   -74.1342 -74.0417 -74.0154 -73.9739 -73.9164 -73.7044 -73.5012 -73.4902
   -44.3016 -44.2987 -44.2398 -44.2276 -44.1212 -44.1147 -44.0997 -44.0828
   -44.0540 -43.9450 -43.9428 -43.8551 -43.8213 -43.8030 -43.7783 -43.7317
   -43.7165 -43.6946 -43.6655 -43.5142 -43.5054 -43.4609 -43.2893 -43.2761
   -20.6770 -20.5683 -20.2229 -20.1560 -20.0285 -19.9788 -19.8447 -19.8146
   -19.6900 -19.6571 -19.5706 -19.4619 -19.4184 -19.3537 -19.3185 -19.2848
   -19.2744 -19.2380 -18.9434  -8.8678  -8.7612  -8.3553  -8.3370  -8.3068
    -8.2806  -8.2607  -8.1913  -8.1328  -8.0242  -7.9012  -7.8246  -7.7683
    -7.6501  -7.6123  -7.5109  -7.3592  -7.1238  -6.8146  -6.7108  -6.5919
    -6.4767  -6.4575  -6.4413  -6.3795  -6.3173  -6.2491  -6.1406  -6.0707
    -5.7935  -5.7558  -5.5512  -5.4614  -5.4355  -5.3587  -5.2157  -5.1471
    -4.9364  -4.8744  -4.8521  -4.8358  -4.7964  -4.6907  -4.4619  -4.3852
    -4.3178  -4.2613  -4.0584  -3.9626  -3.7453  -3.6842  -3.4725  -3.3841
    -3.2888  -3.1793  -3.1209  -2.9996  -2.4791  -2.3119  -2.1992  -2.1468
    -2.0336  -1.9057  -1.8825  -1.8774  -1.8321  -1.7148  -1.6605  -1.5402
    -1.2875  -1.2025  -1.1705  -1.0006  -0.9691  -0.7735  -0.7061  -0.6266
    -0.5207  -0.4651  -0.1625  -0.0972   1.0426   2.1174   2.1538   2.2196
     2.3152   2.3531   2.4410   2.4870   2.5756   2.9438   3.0937   3.3845
     3.4205   3.5716   3.9278   4.0634   4.6293   4.6773   4.7518   5.3489
     5.4328   5.5395   5.8296   5.9715   6.2448   6.3075   6.4881   6.6124
     6.7633   7.0517   7.1961   7.2548   7.3268   7.3991   7.5510   7.7068
     7.7472   7.8165   8.1972   8.2848   8.4764   8.5535   8.6700   8.8105
     9.0070   9.1299   9.1859   9.2921   9.3442   9.4227   9.6495   9.8855
    10.1166  10.2467  10.3243  10.3374  10.4253  10.4856  10.5988  10.6704
    10.7701  10.8165  10.9656  11.0065  11.1224  11.2758  11.3353  11.4119
    11.4595  11.5017  11.6342  11.7184  11.9642  12.0360  12.1283  12.2343
    12.3319  12.3564  12.4163  12.4920  12.5491  12.5893  12.6480  12.6962
    12.7827  12.8666  12.9328  12.9973  13.0448  13.0997  13.2051  13.2598
    13.3329  13.4037  13.4374  13.4647  13.6219  13.7075  13.7891  13.8480
    13.9888  14.0346  14.0859  14.1437  14.2354  14.2708  14.3909  14.4365
    14.5023  14.6213  14.6719  14.6975  14.7468  14.7946  14.8475  14.9437
    14.9872  15.0240  15.0437  15.1040  15.1927  15.2483  15.2668  15.3150
    15.3702  15.4325  15.5479  15.6060  15.6283  15.7299  15.7783  15.8070
    15.8659  15.9016  15.9457  16.0035  16.0713  16.1633  16.2568  16.3550
    16.4237  16.4600  16.5282  16.6065  16.6456  16.6866  16.7477  16.7737
    16.7937  16.8549  17.0084  17.1138  17.1793  17.2667  17.2820  17.3546
    17.4087  17.4822  17.5506  17.5951  17.6765  17.8182  17.8679  17.9596
    18.0287  18.1091  18.2077  18.2243  18.3454  18.3851  18.4146  18.5109
    18.5632  18.6806  18.7980  18.8451  18.8608  18.9075  18.9462  18.9783
    19.0396  19.1075  19.1400  19.2360  19.3219  19.4342  19.5096  19.5447
    19.5944  19.6523  19.6919  19.7907  19.8798  19.9516  20.0068  20.0839
    20.1333  20.1953  20.2779  20.3537  20.3983  20.5157  20.6732  20.7005
    20.7582  20.8197  20.8655  20.9106  21.0317  21.0667  21.1731  21.2447
    21.3573  21.3895  21.5302  21.6001  21.6569  21.7356  21.8469  21.8896
    21.9424  22.0454  22.0959  22.1694  22.2393  22.2875

          k =-0.5000-0.4870 0.0000 ( 30440 PWs)   bands (ev):

   -74.1341 -74.0416 -74.0155 -73.9740 -73.9165 -73.7045 -73.5011 -73.4901
   -44.3016 -44.2987 -44.2398 -44.2276 -44.1216 -44.1136 -44.0994 -44.0824
   -44.0540 -43.9467 -43.9431 -43.8543 -43.8215 -43.8024 -43.7766 -43.7283
   -43.7166 -43.7004 -43.6651 -43.5141 -43.5054 -43.4613 -43.2891 -43.2759
   -20.6636 -20.5571 -20.2128 -20.0349 -20.0265 -19.9916 -19.7186 -19.6518
   -19.6386 -19.6165 -19.5546 -19.5238 -19.5196 -19.4847 -19.4465 -19.3979
   -19.3550 -19.2520 -18.9423  -8.8609  -8.7510  -8.3374  -8.2909  -8.2841
    -8.1128  -7.9696  -7.9098  -7.8111  -7.7496  -7.6734  -7.6216  -7.5622
    -7.4335  -7.4184  -7.3864  -7.3465  -7.2382  -7.0770  -7.0498  -6.9794
    -6.8844  -6.6280  -6.5520  -6.4274  -6.3018  -6.2326  -6.1824  -6.0003
    -5.9006  -5.8371  -5.6260  -5.6029  -5.4565  -5.4290  -5.4050  -5.3724
    -5.3267  -5.2806  -5.1768  -5.1351  -4.8094  -4.6904  -4.4174  -4.2114
    -4.1209  -4.0424  -3.9854  -3.9235  -3.8719  -3.8004  -3.4565  -3.4113
    -3.2802  -2.9477  -2.8910  -2.8540  -2.4611  -2.3800  -2.3439  -2.2237
    -2.1621  -2.0073  -1.8986  -1.8426  -1.6992  -1.5283  -1.4792  -1.3874
    -1.2230  -1.1503  -1.0577  -1.0363  -0.8102  -0.6889  -0.6170  -0.5619
    -0.5000  -0.3989  -0.3084  -0.2405   1.1461   1.8527   1.9214   1.9961
     2.0057   2.3468   2.3996   2.4760   2.5465   3.2401   3.2557   3.3037
     3.6849   3.8952   3.9083   3.9337   4.8099   5.0175   5.1469   5.5943
     5.6273   5.9400   5.9577   6.0640   6.1066   6.1636   6.2141   6.3057
     6.5084   6.6162   6.7036   6.7945   7.0266   7.1491   7.2924   7.4071
     7.6835   7.8712   8.0395   8.1615   8.2000   8.3460   8.3959   8.5123
     8.9231   8.9839   9.1668   9.2463   9.3106   9.4941   9.6853   9.7398
     9.9005   9.9532  10.3862  10.6321  10.6708  10.7183  10.9338  11.0318
    11.0543  11.1263  11.1990  11.5443  11.6841  11.9269  12.0247  12.0419
    12.0928  12.1335  12.1936  12.2155  12.4245  12.4877  12.5068  12.5822
    12.6838  12.7361  12.8411  12.9611  13.0565  13.1227  13.2277  13.2809
    13.3055  13.3303  13.3523  13.3573  13.3932  13.4744  13.5062  13.5227
    13.5671  13.5812  13.6232  13.6837  13.7267  13.7387  13.7681  13.7910
    13.8089  13.8482  13.8686  13.8894  13.9786  14.0667  14.1545  14.1904
    14.2149  14.2389  14.2531  14.3164  14.4022  14.4393  14.4691  14.5011
    14.5791  14.5816  14.6273  14.6718  14.7433  14.8944  14.9755  14.9939
    15.0290  15.1236  15.2073  15.2611  15.2718  15.3663  15.4246  15.4881
    15.5072  15.5561  15.5773  15.6200  15.7664  15.8427  15.9007  15.9752
    16.0299  16.0932  16.1980  16.3128  16.3821  16.4821  16.5511  16.5881
    16.7693  16.7960  16.8373  16.8790  16.9161  17.0554  17.1481  17.1824
    17.2004  17.2679  17.3574  17.3766  17.4154  17.4584  17.5140  17.6276
    17.6646  17.7638  17.8320  17.9273  18.0708  18.2406  18.3912  18.4905
    18.5259  18.5941  18.6046  18.7432  18.8079  18.8584  18.8985  18.9240
    19.0317  19.2153  19.3517  19.4062  19.4781  19.5075  19.5546  19.6917
    19.7512  19.8467  20.0293  20.2637  20.3448  20.3815  20.4847  20.5334
    20.6390  20.7642  20.8084  20.8331  20.9343  20.9446  20.9585  21.0202
    21.0489  21.0686  21.1943  21.2416  21.2643  21.2708  21.3120  21.3375
    21.3912  21.4590  21.5302  21.5725  21.5782  21.5994  21.6552  21.7396
    21.7572  21.7630  21.8461  21.9705  22.0244  22.1460

          k =-0.2500 0.2435 0.0000 ( 30434 PWs)   bands (ev):

   -74.1349 -74.0420 -74.0160 -73.9748 -73.9168 -73.7050 -73.5028 -73.4898
   -44.3016 -44.2992 -44.2592 -44.2326 -44.1212 -44.1158 -44.0928 -44.0648
   -44.0510 -43.9446 -43.9423 -43.8840 -43.8263 -43.8262 -43.7540 -43.7324
   -43.7136 -43.6836 -43.6389 -43.5343 -43.4886 -43.4606 -43.3284 -43.2303
   -20.8569 -20.4135 -20.3532 -20.2529 -20.1528 -19.9523 -19.8451 -19.8181
   -19.7103 -19.6675 -19.6409 -19.4077 -19.3729 -19.3552 -19.2960 -19.2284
   -19.1676 -19.1061 -18.8535  -9.2880  -8.8754  -8.8179  -8.6427  -8.4961
    -8.4426  -8.3623  -8.2037  -7.9756  -7.8465  -7.7518  -7.7146  -7.6077
    -7.5434  -7.4967  -7.4621  -7.3606  -7.2920  -6.9980  -6.8815  -6.7664
    -6.5246  -6.4774  -6.3233  -6.1429  -6.0508  -5.9948  -5.8374  -5.7021
    -5.6224  -5.5616  -5.4870  -5.4520  -5.3182  -5.1612  -5.1002  -5.0729
    -5.0072  -4.9324  -4.8505  -4.8129  -4.6173  -4.4987  -4.3768  -4.2390
    -4.1580  -4.1320  -4.0563  -3.9144  -3.8501  -3.6716  -3.5862  -3.4948
    -3.2094  -3.1726  -3.0726  -2.8510  -2.5726  -2.4102  -2.3443  -2.3049
    -2.2765  -2.1364  -2.0990  -2.0237  -1.9985  -1.8982  -1.8054  -1.7753
    -1.6169  -1.5593  -1.2970  -1.1332  -0.9581  -0.6434  -0.5439  -0.4739
    -0.3506  -0.3023  -0.1526   0.1277   0.9381   1.6446   1.8128   1.8507
     2.0307   2.4650   2.7423   2.9358   3.2136   3.2989   3.3986   3.4671
     3.5410   3.6010   3.8565   3.9581   4.0679   4.4172   4.7123   5.1474
     5.5905   5.7111   5.7999   6.0922   6.3830   6.5046   6.6099   6.6679
     6.8438   6.9840   7.0320   7.2682   7.5316   7.7085   7.8766   7.9525
     8.0828   8.2905   8.3693   8.4966   8.5623   8.6085   8.7352   8.8162
     8.9390   9.1234   9.2080   9.3522   9.4356   9.5591   9.6671   9.8646
     9.9494  10.0376  10.1243  10.1478  10.2190  10.3430  10.3764  10.4558
    10.5473  10.6526  10.7497  10.8933  10.9122  10.9750  11.1160  11.3069
    11.3793  11.4193  11.5733  11.5893  11.6490  11.7996  11.8556  11.8773
    11.9730  12.0530  12.1142  12.1798  12.2687  12.3785  12.4161  12.5257
    12.5592  12.6264  12.7306  12.7690  12.7731  12.8838  12.9594  13.0084
    13.0953  13.1605  13.2124  13.3336  13.4002  13.4874  13.6241  13.6682
    13.7391  13.8357  13.9400  14.0452  14.1057  14.2119  14.2456  14.3364
    14.4015  14.5497  14.5884  14.6246  14.6959  14.7810  14.9015  14.9318
    14.9870  15.1381  15.1551  15.2354  15.3197  15.3990  15.5351  15.5660
    15.6280  15.7156  15.7791  15.8360  15.8662  15.8945  15.9468  16.0395
    16.0862  16.1495  16.2201  16.2844  16.3137  16.3602  16.4801  16.5347
    16.6283  16.7032  16.7527  16.8219  16.8836  16.9048  16.9624  17.0678
    17.1599  17.2086  17.3046  17.3645  17.4608  17.4768  17.5068  17.5474
    17.6280  17.6714  17.7476  17.8021  17.8604  17.9275  17.9949  18.0584
    18.1329  18.1857  18.2277  18.3005  18.3343  18.4405  18.5598  18.6108
    18.6819  18.7858  18.8348  18.8846  18.9538  19.0271  19.1054  19.1866
    19.2111  19.3030  19.4162  19.4519  19.5019  19.6497  19.7158  19.7518
    19.7837  19.8590  19.9714  19.9926  20.1168  20.2383  20.2914  20.3829
    20.4283  20.5461  20.6460  20.7185  20.7587  20.8244  20.8833  20.9556
    20.9785  21.0426  21.1182  21.2159  21.2565  21.3187  21.3280  21.3983
    21.4517  21.4904  21.5514  21.6019  21.6625  21.7471  21.8400  21.9011
    21.9543  21.9823  22.0018  22.0623  22.1387  22.2445

     the Fermi energy is    -1.1059 ev

!    total energy              =   -2162.60002214 Ry
     Harris-Foulkes estimate   =   -2162.60002215 Ry
     estimated scf accuracy    <          9.6E-09 Ry

     The total energy is the sum of the following terms:

     one-electron contribution =  -25272.76390668 Ry
     hartree contribution      =   12661.11063419 Ry
     xc contribution           =    -338.64075699 Ry
     ewald contribution        =   10785.62957567 Ry
     Hubbard energy            =       2.06338804 Ry
     smearing contrib. (-TS)   =       0.00104364 Ry

     convergence has been achieved in  19 iterations

     Forces acting on atoms (Ry/au):


     negative rho (up, down):  0.576E+00 0.000E+00
     atom    1 type  1   force =    -0.00563342   -0.00948837   -0.00047816
     atom    2 type  1   force =     0.00043263    0.00454758   -0.00062588
     atom    3 type  2   force =     0.01947328    0.00187075   -0.00059748
     atom    4 type  2   force =     0.00234012    0.00541006    0.00026066
     atom    5 type  1   force =     0.00144853   -0.03767063    0.00063190
     atom    6 type  1   force =     0.00256164    0.03874187    0.00057954
     atom    7 type  1   force =     0.00232765   -0.00273282   -0.00032553
     atom    8 type  1   force =     0.00395313   -0.00233278   -0.00031065
     atom    9 type  2   force =    -0.01901970    0.00258338   -0.00001943
     atom   10 type  2   force =    -0.00729429   -0.00087131   -0.00051116
     atom   11 type  1   force =    -0.01033785    0.01388458    0.00009195
     atom   12 type  1   force =    -0.01186885   -0.01468044    0.00005134
     atom   13 type  1   force =     0.00296375   -0.00043350    0.00027449
     atom   14 type  1   force =    -0.00395437   -0.00759071   -0.00024208
     atom   15 type  1   force =    -0.00003394    0.00354642    0.00010996
     atom   16 type  2   force =    -0.02066119    0.00420207   -0.00073198
     atom   17 type  2   force =     0.00224758    0.00462594    0.00024601
     atom   18 type  1   force =    -0.00026192   -0.03796619    0.00069237
     atom   19 type  1   force =     0.00308043    0.03675537    0.00059796
     atom   20 type  1   force =    -0.00232139   -0.00293219    0.00056823
     atom   21 type  1   force =    -0.00403441   -0.00041681   -0.00060563
     atom   22 type  2   force =     0.01699792    0.00200097    0.00015824
     atom   23 type  2   force =     0.00402361    0.00104736    0.00005839
     atom   24 type  1   force =     0.01290657    0.01771257    0.00026552
     atom   25 type  1   force =     0.01380166   -0.01816956    0.00021073
     atom   26 type  1   force =    -0.00345946   -0.00140117    0.00009974
     atom   27 type  3   force =     0.00002774    0.00036219    0.00004090
     atom   28 type  3   force =     0.00001734   -0.00028379   -0.00002106
     atom   29 type  3   force =     0.00023416    0.00002556   -0.00040310
     atom   30 type  3   force =     0.00016208   -0.00002804   -0.00032994
     atom   31 type  1   force =    -0.00039722   -0.00015678    0.00000845
     atom   32 type  3   force =     0.00027822   -0.00016155    0.00025571

     Total force =     0.002366     Total SCF correction =     0.000173

     bfgs converged in  17 scf cycles and  16 bfgs steps
     (criteria: energy < 0.10E-03, force < 0.10E-02)

     End of BFGS Geometry Optimization

     Final energy   =   -2162.6000221370 Ry
Begin final coordinates

ATOMIC_POSITIONS (crystal)
O0       0.000000000   0.000000000   0.380244526    0   0   1
O0       0.000000000   0.500000000   0.402557932    0   0   1
Ru1      0.250000000   0.500000000   0.453416571    0   0   1
Ru1      0.000000000   0.000000000   0.453867905    0   0   1
O0       0.250000000   0.810000000   0.453499917    0   0   1
O0       0.250000000   0.190000000   0.453262445    0   0   1
O0       0.000000000   0.500000000   0.498426274    0   0   1
O0       0.000000000   0.000000000   0.526747230    0   0   1
Ru1      0.250000000   0.000000000   0.577929273    0   0   1
Ru1      0.000000000   0.500000000   0.568308915    0   0   1
O0       0.250000000   0.690000000   0.575313341    0   0   1
O0       0.250000000   0.310000000   0.575388633    0   0   1
O0       0.000000000   0.000000000   0.619826315    0   0   1
O0       0.500000000   0.000000000   0.380384375    0   0   1
O0       0.500000000   0.500000000   0.404016104    0   0   1
Ru1      0.750000000   0.500000000   0.453411742    0   0   1
Ru1      0.500000000   0.000000000   0.453911939    0   0   1
O0       0.750000000   0.810000000   0.453469143    0   0   1
O0       0.750000000   0.190000000   0.453323104    0   0   1
O0       0.500000000   0.500000000   0.501965015    0   0   1
O0       0.500000000   0.000000000   0.526728892    0   0   1
Ru1      0.750000000   0.000000000   0.576960620    0   0   1
Ru1      0.500000000   0.500000000   0.575278605    0   0   1
O0       0.750000000   0.690000000   0.574310562    0   0   1
O0       0.750000000   0.310000000   0.574161635    0   0   1
O0       0.500000000   0.000000000   0.617500935    0   0   1
H2      -0.000483095   0.627242058   0.381522427
H2       0.499303445   0.613852448   0.378941687
H2       0.145663936   0.031114087   0.367737022
H2       0.646872048   0.026375700   0.367930723
O0       0.515707403   0.498037557   0.647498345
H2       0.374421975   0.494392118   0.663977848
End final coordinates



     init_run     :    101.29s CPU    103.59s WALL (       1 calls)
     electrons    :  71326.94s CPU  73585.89s WALL (      17 calls)
     update_pot   :    321.04s CPU    329.53s WALL (      16 calls)
     forces       :   2138.27s CPU   2191.26s WALL (      17 calls)

     Called by init_run:
     wfcinit      :     36.57s CPU     38.23s WALL (       1 calls)
     potinit      :      7.37s CPU      7.66s WALL (       1 calls)

     Called by electrons:
     c_bands      :  38377.41s CPU  39665.97s WALL (     413 calls)
     sum_band     :  14275.08s CPU  14708.56s WALL (     413 calls)
     v_of_rho     :    434.71s CPU    462.12s WALL (     420 calls)
     newd         :  18649.38s CPU  18817.12s WALL (     420 calls)
     mix_rho      :     86.44s CPU     89.27s WALL (     413 calls)

     Called by c_bands:
     init_us_2    :    103.42s CPU    104.23s WALL (    2634 calls)
     cegterg      :  37876.96s CPU  39050.68s WALL (    1239 calls)

     Called by *egterg:
     h_psi        :  22341.23s CPU  23118.02s WALL (    3200 calls)
     s_psi        :   2210.62s CPU   2237.36s WALL (    3302 calls)
     g_psi        :     47.47s CPU     47.53s WALL (    1958 calls)
     cdiaghg      :   3078.20s CPU   3087.31s WALL (    3119 calls)

     Called by h_psi:
     add_vuspsi   :   2154.06s CPU   2182.18s WALL (    3200 calls)
     vhpsi        :   2438.12s CPU   2459.81s WALL (    3200 calls)

     General routines
     calbec       :   5265.03s CPU   5333.12s WALL (   23770 calls)
     fft          :    605.04s CPU    758.53s WALL (    6895 calls)
     ffts         :      7.12s CPU      7.28s WALL (     833 calls)
     fftw         :  12770.23s CPU  13635.65s WALL ( 2287598 calls)
     interpolate  :     69.38s CPU     70.34s WALL (     833 calls)
     davcio       :      0.19s CPU     44.78s WALL (    2685 calls)

     Parallel routines
     fft_scatter  :   5017.77s CPU   6007.46s WALL ( 2295326 calls)
     Hubbard U routines
     new_ns       :    527.07s CPU    555.88s WALL (     413 calls)
     vhpsi        :   2438.12s CPU   2459.81s WALL (    3200 calls)
     force_hub    :    636.15s CPU    666.84s WALL (      17 calls)

     PWSCF        :    20h45m CPU       21h24m WALL


   This run was terminated on:   5:22:42  28Apr2014            

=------------------------------------------------------------------------------=
   JOB DONE.
=------------------------------------------------------------------------------=
---------------------------------------
Running PBS batch system epilogue script
Job id: 340458.audhumbla.fysik.dtu.dk
Username: zhonxu
Groupname: campgst
Jobname: RuO2/Eads-2-layers/OH-U-4.0
Sessionid: 9885
Resources limits: neednodes=2:ppn=8:xeon8,nodes=2:ppn=8:xeon8,walltime=48:00:00
Resources used: cput=342:20:52,mem=17674416kb,vmem=21430780kb,walltime=21:24:50
Queuename: verylong
Accounting:
This job has allocated the following 16 nodes:
c032 c032 c032 c032 c032 c032 c032 c032 c018 c018 c018 c018 c018 c018 c018 c018
Finished epilogue job 340458.audhumbla.fysik.dtu.dk for zhonxu
