
     Program PWSCF v.5.0.2 (svn rev. 9656) starts on  5May2014 at 19:21: 1 

     This program is part of the open-source Quantum ESPRESSO suite
     for quantum simulation of materials; please cite
         "P. Giannozzi et al., J. Phys.:Condens. Matter 21 395502 (2009);
          URL http://www.quantum-espresso.org", 
     in publications or presentations arising from this work. More details at
     http://www.quantum-espresso.org/quote.php

     Parallel version (MPI), running on    16 processors
     K-points division:     npool     =       4
     R & G space division:  proc/nbgrp/npool/nimage =       4

     Current dimensions of program PWSCF are:
     Max number of different atomic species (ntypx) = 10
     Max number of k-points (npk) =  40000
     Max angular momentum in pseudopotentials (lmaxx) =  3
     Reading input from pwscf.in
Warning: card &CELL ignored
Warning: card / ignored

     Subspace diagonalization in iterative solution of the eigenvalue problem:
     a serial algorithm will be used

     Found symmetry operation: I + ( -0.5000  0.0000  0.0000)
     This is a supercell, fractional translations are disabled

     Parallelization info
     --------------------
     sticks:   dense  smooth     PW     G-vecs:    dense   smooth      PW
     Min        1357     434    120               328723    59498    8862
     Max        1358     435    121               328730    59528    8871
     Sum        5431    1737    483              1314909   238057   35467



     bravais-lattice index     =            0
     lattice parameter (alat)  =      10.3179  a.u.
     unit-cell volume          =    6964.3238 (a.u.)^3
     number of atoms/cell      =           30
     number of atomic types    =            3
     number of electrons       =       224.00
     number of Kohn-Sham states=          336
     kinetic-energy cutoff     =      40.0000  Ry
     charge density cutoff     =     500.0000  Ry
     convergence threshold     =      1.0E-06
     mixing beta               =       0.7000
     number of iterations used =            8  plain     mixing
     Exchange-correlation      = SLA  PW   PBE  PBE ( 1 4 3 4 0)
     EXX-fraction              =        0.00
     nstep                     =           50


     celldm(1)=  10.317905  celldm(2)=   0.000000  celldm(3)=   0.000000
     celldm(4)=   0.000000  celldm(5)=   0.000000  celldm(6)=   0.000000

     crystal axes: (cart. coord. in units of alat)
               a(1) = (   1.000000   0.000000   0.000000 )  
               a(2) = (   0.000000   1.282117   0.000000 )  
               a(3) = (   0.000000   0.000000   4.945120 )  

     reciprocal axes: (cart. coord. in units 2 pi/alat)
               b(1) = (  1.000000  0.000000  0.000000 )  
               b(2) = (  0.000000  0.779960  0.000000 )  
               b(3) = (  0.000000  0.000000  0.202220 )  


     PseudoPot. # 1 for O  read from file:
     /home/camp/zhonxu/pseudo/o_pbe_v1.01.uspp.F.UPF
     MD5 check sum: 2bcb18d16ea4b960afae9ec6d52f22d2
     Pseudo is Ultrasoft + core correction, Zval =  6.0
     Generated by new atomic code, or converted to UPF format
     Using radial grid of  737 points,  5 beta functions with: 
                l(1) =   0
                l(2) =   0
                l(3) =   1
                l(4) =   1
                l(5) =   2
     Q(r) pseudized with  8 coefficients,  rinner =    0.900   0.900   0.900
                                                       0.900   0.900

     PseudoPot. # 2 for Mo read from file:
     /home/camp/zhonxu/pseudo/mo_pbe_v1.uspp.F.UPF
     MD5 check sum: 30c4dcd161f5d35cd49bb5239c51a633
     Pseudo is Ultrasoft + core correction, Zval = 14.0
     Generated by new atomic code, or converted to UPF format
     Using radial grid of  889 points,  6 beta functions with: 
                l(1) =   0
                l(2) =   0
                l(3) =   1
                l(4) =   1
                l(5) =   2
                l(6) =   2
     Q(r) pseudized with  6 coefficients,  rinner =    1.000   1.000   1.000
                                                       1.000   1.000

     PseudoPot. # 3 for H  read from file:
     /home/camp/zhonxu/pseudo/h_pbe_v1.uspp.F.UPF
     MD5 check sum: 3408e3ff4ec8b0a4e358431e7e038a48
     Pseudo is Ultrasoft, Zval =  1.0
     Generated by new atomic code, or converted to UPF format
     Using radial grid of  615 points,  2 beta functions with: 
                l(1) =   0
                l(2) =   0
     Q(r) pseudized with  8 coefficients,  rinner =    0.700

     atomic species   valence    mass     pseudopotential
        O0             6.00    15.99940     O ( 1.00)
        Mo1           14.00    95.94000     Mo( 1.00)
        H2             1.00     1.00794     H ( 1.00)


     Simplified LDA+U calculation (l_max = 2) with parameters (eV):
     atomic species    L          U    alpha       J0     beta
        Mo1            2     7.5000   0.0000   0.0000   0.0000



     No symmetry found



   Cartesian axes

     site n.     atom                  positions (alat units)
         1           O0  tau(   1) = (   0.0000000   0.0000000   1.8465574  )
         2           O0  tau(   2) = (   0.0000000   0.6410583   1.8808271  )
         3           Mo1 tau(   3) = (   0.2500000   0.6410583   2.1650231  )
         4           Mo1 tau(   4) = (   0.0000000   0.0000000   2.2064633  )
         5           O0  tau(   5) = (   0.2500000   1.0000510   2.1927158  )
         6           O0  tau(   6) = (   0.2500000   0.2820657   2.1921224  )
         7           O0  tau(   7) = (   0.0000000   0.6410583   2.4520379  )
         8           O0  tau(   8) = (   0.0000000   0.0000000   2.5658746  )
         9           Mo1 tau(   9) = (   0.2500000   0.0000000   2.8596642  )
        10           Mo1 tau(  10) = (   0.0000000   0.6410583   2.7884050  )
        11           O0  tau(  11) = (   0.2500000   0.9231240   2.8369661  )
        12           O0  tau(  12) = (   0.2500000   0.3589927   2.8372628  )
        13           O0  tau(  13) = (   0.0000000   0.0000000   3.1104807  )
        14           O0  tau(  14) = (   0.5000000   0.0000000   1.8465574  )
        15           O0  tau(  15) = (   0.5000000   0.6410583   1.8808271  )
        16           Mo1 tau(  16) = (   0.7500000   0.6410583   2.1650231  )
        17           Mo1 tau(  17) = (   0.5000000   0.0000000   2.2064633  )
        18           O0  tau(  18) = (   0.7500000   1.0000510   2.1927158  )
        19           O0  tau(  19) = (   0.7500000   0.2820657   2.1921224  )
        20           O0  tau(  20) = (   0.5000000   0.6410583   2.4520379  )
        21           O0  tau(  21) = (   0.5000000   0.0000000   2.5658746  )
        22           Mo1 tau(  22) = (   0.7500000   0.0000000   2.8596642  )
        23           Mo1 tau(  23) = (   0.5000000   0.6410583   2.7884050  )
        24           O0  tau(  24) = (   0.7500000   0.9231240   2.8369661  )
        25           O0  tau(  25) = (   0.7500000   0.3589927   2.8372628  )
        26           O0  tau(  26) = (   0.5000000   0.0000000   3.1104807  )
        27           H2  tau(  27) = (  -0.0004900   0.7868222   1.7746059  )
        28           H2  tau(  28) = (   0.4995100   0.7868222   1.7746059  )
        29           H2  tau(  29) = (   0.1657500   0.0265270   1.7749026  )
        30           H2  tau(  30) = (   0.6657500   0.0265270   1.7749026  )

     number of k points=    10  Methfessel-Paxton smearing, width (Ry)=  0.0100
                       cart. coord. in units 2pi/alat
        k(    1) = (   0.0000000   0.0000000   0.0000000), wk =   0.1250000
        k(    2) = (   0.0000000   0.1949901   0.0000000), wk =   0.2500000
        k(    3) = (   0.0000000  -0.3899801   0.0000000), wk =   0.1250000
        k(    4) = (   0.2500000   0.0000000   0.0000000), wk =   0.2500000
        k(    5) = (   0.2500000   0.1949901   0.0000000), wk =   0.2500000
        k(    6) = (   0.2500000  -0.3899801   0.0000000), wk =   0.2500000
        k(    7) = (  -0.5000000   0.0000000   0.0000000), wk =   0.1250000
        k(    8) = (  -0.5000000   0.1949901   0.0000000), wk =   0.2500000
        k(    9) = (  -0.5000000  -0.3899801   0.0000000), wk =   0.1250000
        k(   10) = (  -0.2500000   0.1949901   0.0000000), wk =   0.2500000

     Dense  grid:  1314909 G-vectors     FFT dimensions: (  75,  96, 375)

     Smooth grid:   238057 G-vectors     FFT dimensions: (  45,  54, 216)

     Largest allocated arrays     est. size (Mb)     dimensions
        Kohn-Sham Wavefunctions        38.42 Mb     (   7494,  336)
        Atomic wavefunctions           20.58 Mb     (   7494,  180)
        NL pseudopotentials            44.14 Mb     (   7494,  386)
        Each V/rho on FFT grid         10.33 Mb     ( 676800)
        Each G-vector array             2.51 Mb     ( 328726)
        G-vector shells                 1.08 Mb     ( 142042)
     Largest temporary arrays     est. size (Mb)     dimensions
        Auxiliary wavefunctions       153.69 Mb     (   7494, 1344)
        Each subspace H/S matrix       27.56 Mb     (1344,1344)
        Each <psi_i|beta_j> matrix      1.98 Mb     (    386,  336)
        Arrays for rho mixing          82.62 Mb     ( 676800,   8)

     Check: negative/imaginary core charge=   -0.000003    0.000000

     Initial potential from superposition of free atoms
     Check: negative starting charge=   -0.002478

     starting charge  223.99143, renormalised to  224.00000

     negative rho (up, down):  0.248E-02 0.000E+00
     Number of +U iterations with fixed ns =  0
     Starting occupations:
 --- enter write_ns ---
 LDA+U parameters:
U( 2)     =  7.50000000
alpha( 2) =  0.00000000
atom    3   Tr[ns(na)] =   5.00000
    eigenvalues: 
  0.500  0.500  0.500  0.500  0.500
    eigenvectors:
  1.000  0.000  0.000  0.000  0.000
  0.000  1.000  0.000  0.000  0.000
  0.000  0.000  1.000  0.000  0.000
  0.000  0.000  0.000  1.000  0.000
  0.000  0.000  0.000  0.000  1.000
    occupations:
  0.500  0.000  0.000  0.000  0.000
  0.000  0.500  0.000  0.000  0.000
  0.000  0.000  0.500  0.000  0.000
  0.000  0.000  0.000  0.500  0.000
  0.000  0.000  0.000  0.000  0.500
atom    4   Tr[ns(na)] =   5.00000
    eigenvalues: 
  0.500  0.500  0.500  0.500  0.500
    eigenvectors:
  1.000  0.000  0.000  0.000  0.000
  0.000  1.000  0.000  0.000  0.000
  0.000  0.000  1.000  0.000  0.000
  0.000  0.000  0.000  1.000  0.000
  0.000  0.000  0.000  0.000  1.000
    occupations:
  0.500  0.000  0.000  0.000  0.000
  0.000  0.500  0.000  0.000  0.000
  0.000  0.000  0.500  0.000  0.000
  0.000  0.000  0.000  0.500  0.000
  0.000  0.000  0.000  0.000  0.500
atom    9   Tr[ns(na)] =   5.00000
    eigenvalues: 
  0.500  0.500  0.500  0.500  0.500
    eigenvectors:
  1.000  0.000  0.000  0.000  0.000
  0.000  1.000  0.000  0.000  0.000
  0.000  0.000  1.000  0.000  0.000
  0.000  0.000  0.000  1.000  0.000
  0.000  0.000  0.000  0.000  1.000
    occupations:
  0.500  0.000  0.000  0.000  0.000
  0.000  0.500  0.000  0.000  0.000
  0.000  0.000  0.500  0.000  0.000
  0.000  0.000  0.000  0.500  0.000
  0.000  0.000  0.000  0.000  0.500
atom   10   Tr[ns(na)] =   5.00000
    eigenvalues: 
  0.500  0.500  0.500  0.500  0.500
    eigenvectors:
  1.000  0.000  0.000  0.000  0.000
  0.000  1.000  0.000  0.000  0.000
  0.000  0.000  1.000  0.000  0.000
  0.000  0.000  0.000  1.000  0.000
  0.000  0.000  0.000  0.000  1.000
    occupations:
  0.500  0.000  0.000  0.000  0.000
  0.000  0.500  0.000  0.000  0.000
  0.000  0.000  0.500  0.000  0.000
  0.000  0.000  0.000  0.500  0.000
  0.000  0.000  0.000  0.000  0.500
atom   16   Tr[ns(na)] =   5.00000
    eigenvalues: 
  0.500  0.500  0.500  0.500  0.500
    eigenvectors:
  1.000  0.000  0.000  0.000  0.000
  0.000  1.000  0.000  0.000  0.000
  0.000  0.000  1.000  0.000  0.000
  0.000  0.000  0.000  1.000  0.000
  0.000  0.000  0.000  0.000  1.000
    occupations:
  0.500  0.000  0.000  0.000  0.000
  0.000  0.500  0.000  0.000  0.000
  0.000  0.000  0.500  0.000  0.000
  0.000  0.000  0.000  0.500  0.000
  0.000  0.000  0.000  0.000  0.500
atom   17   Tr[ns(na)] =   5.00000
    eigenvalues: 
  0.500  0.500  0.500  0.500  0.500
    eigenvectors:
  1.000  0.000  0.000  0.000  0.000
  0.000  1.000  0.000  0.000  0.000
  0.000  0.000  1.000  0.000  0.000
  0.000  0.000  0.000  1.000  0.000
  0.000  0.000  0.000  0.000  1.000
    occupations:
  0.500  0.000  0.000  0.000  0.000
  0.000  0.500  0.000  0.000  0.000
  0.000  0.000  0.500  0.000  0.000
  0.000  0.000  0.000  0.500  0.000
  0.000  0.000  0.000  0.000  0.500
atom   22   Tr[ns(na)] =   5.00000
    eigenvalues: 
  0.500  0.500  0.500  0.500  0.500
    eigenvectors:
  1.000  0.000  0.000  0.000  0.000
  0.000  1.000  0.000  0.000  0.000
  0.000  0.000  1.000  0.000  0.000
  0.000  0.000  0.000  1.000  0.000
  0.000  0.000  0.000  0.000  1.000
    occupations:
  0.500  0.000  0.000  0.000  0.000
  0.000  0.500  0.000  0.000  0.000
  0.000  0.000  0.500  0.000  0.000
  0.000  0.000  0.000  0.500  0.000
  0.000  0.000  0.000  0.000  0.500
atom   23   Tr[ns(na)] =   5.00000
    eigenvalues: 
  0.500  0.500  0.500  0.500  0.500
    eigenvectors:
  1.000  0.000  0.000  0.000  0.000
  0.000  1.000  0.000  0.000  0.000
  0.000  0.000  1.000  0.000  0.000
  0.000  0.000  0.000  1.000  0.000
  0.000  0.000  0.000  0.000  1.000
    occupations:
  0.500  0.000  0.000  0.000  0.000
  0.000  0.500  0.000  0.000  0.000
  0.000  0.000  0.500  0.000  0.000
  0.000  0.000  0.000  0.500  0.000
  0.000  0.000  0.000  0.000  0.500
N of occupied +U levels =  40.0000000
 --- exit write_ns ---
 Atomic wfc used for LDA+U Projector are NOT orthogonalized
     Starting wfc are  180 randomized atomic wfcs

     total cpu time spent up to now is      118.0 secs

     per-process dynamical memory:   390.6 Mb

     Self-consistent Calculation

     iteration #  1     ecut=    40.00 Ry     beta=0.70
     Davidson diagonalization with overlap
     ethr =  1.00E-02,  avg # of iterations =  6.0
 --- enter write_ns ---
 LDA+U parameters:
U( 2)     =  7.50000000
alpha( 2) =  0.00000000
atom    3   Tr[ns(na)] =   5.01778
    eigenvalues: 
  0.323  0.426  0.475  0.573  0.712
    eigenvectors:
  0.003  0.000  0.440  0.000  0.557
  0.000  1.000  0.000  0.000  0.000
  0.996  0.000  0.001  0.000  0.003
  0.000  0.000  0.560  0.000  0.440
  0.000  0.000  0.000  1.000  0.000
    occupations:
  0.606  0.000  0.019 -0.117  0.000
  0.000  0.426 -0.000 -0.000 -0.001
  0.019 -0.000  0.324 -0.011 -0.000
 -0.117 -0.000 -0.011  0.579 -0.000
  0.000 -0.001 -0.000 -0.000  0.573
atom    4   Tr[ns(na)] =   5.02513
    eigenvalues: 
  0.321  0.437  0.488  0.578  0.688
    eigenvectors:
  0.000  0.000  0.971  0.000  0.029
  0.000  0.000  0.000  1.000  0.000
  1.000  0.000  0.000  0.000  0.000
  0.000  0.000  0.029  0.000  0.971
  0.000  1.000  0.000  0.000  0.000
    occupations:
  0.494  0.001  0.001 -0.034  0.000
  0.001  0.578  0.004  0.000 -0.000
  0.001  0.004  0.321 -0.000  0.000
 -0.034  0.000 -0.000  0.682  0.000
  0.000 -0.000  0.000  0.000  0.437
atom    9   Tr[ns(na)] =   4.93972
    eigenvalues: 
  0.359  0.484  0.491  0.494  0.641
    eigenvectors:
  0.000  0.000  0.000  0.355  0.644
  0.000  0.001  0.998  0.001  0.000
  1.000  0.000  0.000  0.000  0.000
  0.000  0.000  0.001  0.643  0.356
  0.000  0.999  0.001  0.000  0.000
    occupations:
  0.589 -0.000 -0.000 -0.071 -0.001
 -0.000  0.491 -0.000  0.000  0.000
 -0.000 -0.000  0.359  0.000 -0.000
 -0.071  0.000  0.000  0.546  0.000
 -0.001  0.000 -0.000  0.000  0.484
atom   10   Tr[ns(na)] =   4.70859
    eigenvalues: 
  0.298  0.393  0.420  0.535  0.709
    eigenvectors:
  0.000  0.970  0.000  0.000  0.030
  0.000  0.000  0.000  1.000  0.000
  1.000  0.000  0.000  0.000  0.000
  0.000  0.030  0.000  0.000  0.970
  0.000  0.000  1.000  0.000  0.000
    occupations:
  0.403  0.000 -0.000 -0.054  0.000
  0.000  0.535 -0.000 -0.000  0.000
 -0.000 -0.000  0.298 -0.000 -0.000
 -0.054 -0.000 -0.000  0.699 -0.000
  0.000  0.000 -0.000 -0.000  0.420
atom   16   Tr[ns(na)] =   5.01779
    eigenvalues: 
  0.323  0.426  0.475  0.573  0.712
    eigenvectors:
  0.003  0.000  0.440  0.000  0.557
  0.000  1.000  0.000  0.000  0.000
  0.996  0.000  0.001  0.000  0.003
  0.000  0.000  0.560  0.000  0.440
  0.000  0.000  0.000  1.000  0.000
    occupations:
  0.606  0.000  0.019 -0.117  0.000
  0.000  0.426 -0.000 -0.000 -0.001
  0.019 -0.000  0.324 -0.011 -0.000
 -0.117 -0.000 -0.011  0.579 -0.000
  0.000 -0.001 -0.000 -0.000  0.573
atom   17   Tr[ns(na)] =   5.02512
    eigenvalues: 
  0.321  0.437  0.488  0.578  0.688
    eigenvectors:
  0.000  0.000  0.971  0.000  0.029
  0.000  0.000  0.000  1.000  0.000
  1.000  0.000  0.000  0.000  0.000
  0.000  0.000  0.029  0.000  0.971
  0.000  1.000  0.000  0.000  0.000
    occupations:
  0.494  0.001  0.001 -0.034  0.000
  0.001  0.578  0.004  0.000 -0.000
  0.001  0.004  0.321 -0.000  0.000
 -0.034  0.000 -0.000  0.682  0.000
  0.000 -0.000  0.000  0.000  0.437
atom   22   Tr[ns(na)] =   4.93972
    eigenvalues: 
  0.359  0.484  0.491  0.494  0.641
    eigenvectors:
  0.000  0.000  0.000  0.355  0.644
  0.000  0.001  0.998  0.001  0.000
  1.000  0.000  0.000  0.000  0.000
  0.000  0.000  0.001  0.643  0.356
  0.000  0.999  0.001  0.000  0.000
    occupations:
  0.589 -0.000 -0.000 -0.071 -0.001
 -0.000  0.491 -0.000  0.000  0.000
 -0.000 -0.000  0.359  0.000 -0.000
 -0.071  0.000  0.000  0.546  0.000
 -0.001  0.000 -0.000  0.000  0.484
atom   23   Tr[ns(na)] =   4.70858
    eigenvalues: 
  0.298  0.393  0.420  0.535  0.709
    eigenvectors:
  0.000  0.970  0.000  0.000  0.030
  0.000  0.000  0.000  1.000  0.000
  1.000  0.000  0.000  0.000  0.000
  0.000  0.030  0.000  0.000  0.970
  0.000  0.000  1.000  0.000  0.000
    occupations:
  0.403  0.000 -0.000 -0.054  0.000
  0.000  0.535 -0.000 -0.000  0.000
 -0.000 -0.000  0.298 -0.000 -0.000
 -0.054 -0.000 -0.000  0.699 -0.000
  0.000  0.000 -0.000 -0.000  0.420
N of occupied +U levels =  39.3824307
 --- exit write_ns ---

     negative rho (up, down):  0.323E-02 0.000E+00

     total cpu time spent up to now is      437.9 secs

     total energy              =   -1690.58301654 Ry
     Harris-Foulkes estimate   =   -1696.59030688 Ry
     estimated scf accuracy    <       8.23731531 Ry

     iteration #  2     ecut=    40.00 Ry     beta=0.70
     Davidson diagonalization with overlap
     ethr =  3.68E-03,  avg # of iterations =  2.8

     negative rho (up, down):  0.107E-01 0.000E+00

     total cpu time spent up to now is      641.6 secs

     total energy              =   -1679.08260936 Ry
     Harris-Foulkes estimate   =   -1704.31615845 Ry
     estimated scf accuracy    <     120.02992443 Ry

     iteration #  3     ecut=    40.00 Ry     beta=0.70
     Davidson diagonalization with overlap
     ethr =  3.68E-03,  avg # of iterations =  4.7

     negative rho (up, down):  0.577E-02 0.000E+00

     total cpu time spent up to now is      876.9 secs

     total energy              =   -1675.51334548 Ry
     Harris-Foulkes estimate   =   -1706.35096525 Ry
     estimated scf accuracy    <     471.62845950 Ry

     iteration #  4     ecut=    40.00 Ry     beta=0.70
     Davidson diagonalization with overlap
     ethr =  3.68E-03,  avg # of iterations =  4.0

     negative rho (up, down):  0.491E-02 0.000E+00

     total cpu time spent up to now is     1100.2 secs

     total energy              =   -1692.92012116 Ry
     Harris-Foulkes estimate   =   -1697.28197086 Ry
     estimated scf accuracy    <      43.09032037 Ry

     iteration #  5     ecut=    40.00 Ry     beta=0.70
     Davidson diagonalization with overlap
     ethr =  3.68E-03,  avg # of iterations =  2.5

     negative rho (up, down):  0.310E-02 0.000E+00

     total cpu time spent up to now is     1288.4 secs

     total energy              =   -1694.96963474 Ry
     Harris-Foulkes estimate   =   -1695.43131548 Ry
     estimated scf accuracy    <       2.14422973 Ry

     iteration #  6     ecut=    40.00 Ry     beta=0.70
     Davidson diagonalization with overlap
     ethr =  9.57E-04,  avg # of iterations =  3.6

     negative rho (up, down):  0.269E-02 0.000E+00

     total cpu time spent up to now is     1482.3 secs

     total energy              =   -1695.04090399 Ry
     Harris-Foulkes estimate   =   -1695.21895905 Ry
     estimated scf accuracy    <       0.99766081 Ry

     iteration #  7     ecut=    40.00 Ry     beta=0.70
     Davidson diagonalization with overlap
     ethr =  4.45E-04,  avg # of iterations =  3.3

     negative rho (up, down):  0.242E-02 0.000E+00

     total cpu time spent up to now is     1668.0 secs

     total energy              =   -1695.09377806 Ry
     Harris-Foulkes estimate   =   -1695.15191008 Ry
     estimated scf accuracy    <       0.40205256 Ry

     iteration #  8     ecut=    40.00 Ry     beta=0.70
     Davidson diagonalization with overlap
     ethr =  1.79E-04,  avg # of iterations =  2.7

     negative rho (up, down):  0.227E-02 0.000E+00

     total cpu time spent up to now is     1847.0 secs

     total energy              =   -1695.09059689 Ry
     Harris-Foulkes estimate   =   -1695.12948565 Ry
     estimated scf accuracy    <       0.18834921 Ry

     iteration #  9     ecut=    40.00 Ry     beta=0.70
     Davidson diagonalization with overlap
     ethr =  8.41E-05,  avg # of iterations =  6.8

     negative rho (up, down):  0.238E-02 0.000E+00

     total cpu time spent up to now is     2050.0 secs

     total energy              =   -1695.09701345 Ry
     Harris-Foulkes estimate   =   -1695.13850886 Ry
     estimated scf accuracy    <       0.21948195 Ry

     iteration # 10     ecut=    40.00 Ry     beta=0.70
     Davidson diagonalization with overlap
     ethr =  8.41E-05,  avg # of iterations =  4.2

     negative rho (up, down):  0.237E-02 0.000E+00

     total cpu time spent up to now is     2245.2 secs

     total energy              =   -1695.11879466 Ry
     Harris-Foulkes estimate   =   -1695.12546366 Ry
     estimated scf accuracy    <       0.11317626 Ry

     iteration # 11     ecut=    40.00 Ry     beta=0.70
     Davidson diagonalization with overlap
     ethr =  5.05E-05,  avg # of iterations =  1.0

     negative rho (up, down):  0.234E-02 0.000E+00

     total cpu time spent up to now is     2422.9 secs

     total energy              =   -1695.12302069 Ry
     Harris-Foulkes estimate   =   -1695.12329466 Ry
     estimated scf accuracy    <       0.02317709 Ry

     iteration # 12     ecut=    40.00 Ry     beta=0.70
     Davidson diagonalization with overlap
     ethr =  1.03E-05,  avg # of iterations =  4.5

     negative rho (up, down):  0.293E-02 0.000E+00

     total cpu time spent up to now is     2623.7 secs

     total energy              =   -1695.12000783 Ry
     Harris-Foulkes estimate   =   -1695.12525130 Ry
     estimated scf accuracy    <       0.02694409 Ry

     iteration # 13     ecut=    40.00 Ry     beta=0.70
     Davidson diagonalization with overlap
     ethr =  1.03E-05,  avg # of iterations =  6.2

     negative rho (up, down):  0.294E-02 0.000E+00

     total cpu time spent up to now is     2832.6 secs

     total energy              =   -1695.11527797 Ry
     Harris-Foulkes estimate   =   -1695.13588151 Ry
     estimated scf accuracy    <       0.19677547 Ry

     iteration # 14     ecut=    40.00 Ry     beta=0.70
     Davidson diagonalization with overlap
     ethr =  1.03E-05,  avg # of iterations =  5.4

     negative rho (up, down):  0.332E-02 0.000E+00

     total cpu time spent up to now is     3028.7 secs

     total energy              =   -1695.12601428 Ry
     Harris-Foulkes estimate   =   -1695.12659133 Ry
     estimated scf accuracy    <       0.00885080 Ry

     iteration # 15     ecut=    40.00 Ry     beta=0.70
     Davidson diagonalization with overlap
     ethr =  3.95E-06,  avg # of iterations =  1.5

     negative rho (up, down):  0.379E-02 0.000E+00

     total cpu time spent up to now is     3204.9 secs

     total energy              =   -1695.12669827 Ry
     Harris-Foulkes estimate   =   -1695.12671940 Ry
     estimated scf accuracy    <       0.00115071 Ry

     iteration # 16     ecut=    40.00 Ry     beta=0.70
     Davidson diagonalization with overlap
     ethr =  5.14E-07,  avg # of iterations =  1.9

     negative rho (up, down):  0.395E-02 0.000E+00

     total cpu time spent up to now is     3383.8 secs

     total energy              =   -1695.12688067 Ry
     Harris-Foulkes estimate   =   -1695.12700301 Ry
     estimated scf accuracy    <       0.00055302 Ry

     iteration # 17     ecut=    40.00 Ry     beta=0.70
     Davidson diagonalization with overlap
     ethr =  2.47E-07,  avg # of iterations =  1.0

     negative rho (up, down):  0.392E-02 0.000E+00

     total cpu time spent up to now is     3568.4 secs

     total energy              =   -1695.12697529 Ry
     Harris-Foulkes estimate   =   -1695.12705374 Ry
     estimated scf accuracy    <       0.00041600 Ry

     iteration # 18     ecut=    40.00 Ry     beta=0.70
     Davidson diagonalization with overlap
     ethr =  1.86E-07,  avg # of iterations =  1.0

     negative rho (up, down):  0.371E-02 0.000E+00

     total cpu time spent up to now is     3749.9 secs

     total energy              =   -1695.12701329 Ry
     Harris-Foulkes estimate   =   -1695.12707182 Ry
     estimated scf accuracy    <       0.00038051 Ry

     iteration # 19     ecut=    40.00 Ry     beta=0.70
     Davidson diagonalization with overlap
     ethr =  1.70E-07,  avg # of iterations =  1.0

     negative rho (up, down):  0.360E-02 0.000E+00

     total cpu time spent up to now is     3928.6 secs

     total energy              =   -1695.12703384 Ry
     Harris-Foulkes estimate   =   -1695.12706504 Ry
     estimated scf accuracy    <       0.00015433 Ry

     iteration # 20     ecut=    40.00 Ry     beta=0.70
     Davidson diagonalization with overlap
     ethr =  6.89E-08,  avg # of iterations =  1.0

     negative rho (up, down):  0.359E-02 0.000E+00

     total cpu time spent up to now is     4115.5 secs

     total energy              =   -1695.12702623 Ry
     Harris-Foulkes estimate   =   -1695.12710300 Ry
     estimated scf accuracy    <       0.00056531 Ry

     iteration # 21     ecut=    40.00 Ry     beta=0.70
     Davidson diagonalization with overlap
     ethr =  6.89E-08,  avg # of iterations =  1.0

     negative rho (up, down):  0.358E-02 0.000E+00

     total cpu time spent up to now is     4296.3 secs

     total energy              =   -1695.12707299 Ry
     Harris-Foulkes estimate   =   -1695.12707504 Ry
     estimated scf accuracy    <       0.00004942 Ry

     iteration # 22     ecut=    40.00 Ry     beta=0.70
     Davidson diagonalization with overlap
     ethr =  2.21E-08,  avg # of iterations =  1.0

     negative rho (up, down):  0.353E-02 0.000E+00

     total cpu time spent up to now is     4477.4 secs

     total energy              =   -1695.12707533 Ry
     Harris-Foulkes estimate   =   -1695.12707955 Ry
     estimated scf accuracy    <       0.00002051 Ry

     iteration # 23     ecut=    40.00 Ry     beta=0.70
     Davidson diagonalization with overlap
     ethr =  9.16E-09,  avg # of iterations =  1.7

     negative rho (up, down):  0.355E-02 0.000E+00

     total cpu time spent up to now is     4658.5 secs

     total energy              =   -1695.12707960 Ry
     Harris-Foulkes estimate   =   -1695.12708335 Ry
     estimated scf accuracy    <       0.00004086 Ry

     iteration # 24     ecut=    40.00 Ry     beta=0.70
     Davidson diagonalization with overlap
     ethr =  9.16E-09,  avg # of iterations =  1.0

     negative rho (up, down):  0.356E-02 0.000E+00

     total cpu time spent up to now is     4846.9 secs

     total energy              =   -1695.12708200 Ry
     Harris-Foulkes estimate   =   -1695.12708262 Ry
     estimated scf accuracy    <       0.00000540 Ry

     iteration # 25     ecut=    40.00 Ry     beta=0.70
     Davidson diagonalization with overlap
     ethr =  2.41E-09,  avg # of iterations =  1.1

     negative rho (up, down):  0.357E-02 0.000E+00

     total cpu time spent up to now is     5029.5 secs

     total energy              =   -1695.12708322 Ry
     Harris-Foulkes estimate   =   -1695.12708384 Ry
     estimated scf accuracy    <       0.00000951 Ry

     iteration # 26     ecut=    40.00 Ry     beta=0.70
     Davidson diagonalization with overlap
     ethr =  2.41E-09,  avg # of iterations =  1.0

     negative rho (up, down):  0.357E-02 0.000E+00

     total cpu time spent up to now is     5208.1 secs

     total energy              =   -1695.12708461 Ry
     Harris-Foulkes estimate   =   -1695.12708469 Ry
     estimated scf accuracy    <       0.00000309 Ry

     iteration # 27     ecut=    40.00 Ry     beta=0.70
     Davidson diagonalization with overlap
     ethr =  1.38E-09,  avg # of iterations =  1.0

     negative rho (up, down):  0.358E-02 0.000E+00

     total cpu time spent up to now is     5385.9 secs

     total energy              =   -1695.12708536 Ry
     Harris-Foulkes estimate   =   -1695.12708518 Ry
     estimated scf accuracy    <       0.00000149 Ry

     iteration # 28     ecut=    40.00 Ry     beta=0.70
     Davidson diagonalization with overlap
     ethr =  6.64E-10,  avg # of iterations =  1.0

     negative rho (up, down):  0.358E-02 0.000E+00

     total cpu time spent up to now is     5559.9 secs

     total energy              =   -1695.12708593 Ry
     Harris-Foulkes estimate   =   -1695.12708594 Ry
     estimated scf accuracy    <       0.00000116 Ry

     iteration # 29     ecut=    40.00 Ry     beta=0.70
     Davidson diagonalization with overlap
     ethr =  5.16E-10,  avg # of iterations =  1.0

     negative rho (up, down):  0.358E-02 0.000E+00

     total cpu time spent up to now is     5735.4 secs

     total energy              =   -1695.12708639 Ry
     Harris-Foulkes estimate   =   -1695.12708635 Ry
     estimated scf accuracy    <       0.00000118 Ry

     iteration # 30     ecut=    40.00 Ry     beta=0.70
     Davidson diagonalization with overlap
     ethr =  5.16E-10,  avg # of iterations =  1.0

     negative rho (up, down):  0.358E-02 0.000E+00

     total cpu time spent up to now is     5915.7 secs

     End of self-consistent calculation
 --- enter write_ns ---
 LDA+U parameters:
U( 2)     =  7.50000000
alpha( 2) =  0.00000000
atom    3   Tr[ns(na)] =   5.81131
    eigenvalues: 
  0.347  0.501  0.572  0.694  0.791
    eigenvectors:
  0.011  0.000  0.270  0.000  0.719
  0.000  0.994  0.000  0.006  0.000
  0.988  0.000  0.001  0.000  0.012
  0.001  0.000  0.729  0.000  0.269
  0.000  0.006  0.000  0.993  0.000
    occupations:
  0.727 -0.000  0.044 -0.095  0.001
 -0.000  0.503 -0.000 -0.000 -0.015
  0.044 -0.000  0.352 -0.021  0.001
 -0.095 -0.000 -0.021  0.631 -0.000
  0.001 -0.015  0.001 -0.000  0.692
atom    4   Tr[ns(na)] =   5.81061
    eigenvalues: 
  0.346  0.523  0.594  0.656  0.787
    eigenvectors:
  0.000  0.000  0.973  0.026  0.001
  0.000  0.000  0.025  0.970  0.004
  0.999  0.000  0.000  0.000  0.000
  0.000  0.000  0.002  0.003  0.995
  0.000  1.000  0.000  0.000  0.000
    occupations:
  0.596  0.009  0.003  0.007 -0.000
  0.009  0.654 -0.005 -0.009 -0.001
  0.003 -0.005  0.346 -0.004  0.001
  0.007 -0.009 -0.004  0.786  0.000
 -0.000 -0.001  0.001  0.000  0.523
atom    9   Tr[ns(na)] =   5.82347
    eigenvalues: 
  0.434  0.476  0.605  0.608  0.788
    eigenvectors:
  0.000  0.000  0.219  0.000  0.781
  0.000  0.000  0.001  0.999  0.000
  0.000  1.000  0.000  0.000  0.000
  0.000  0.000  0.780  0.001  0.219
  1.000  0.000  0.000  0.000  0.000
    occupations:
  0.748  0.000 -0.000 -0.076 -0.001
  0.000  0.608 -0.000 -0.000  0.000
 -0.000 -0.000  0.476 -0.000  0.000
 -0.076 -0.000 -0.000  0.645  0.001
 -0.001  0.000  0.000  0.001  0.434
atom   10   Tr[ns(na)] =   5.75495
    eigenvalues: 
  0.334  0.478  0.491  0.781  0.793
    eigenvectors:
  0.001  0.999  0.000  0.000  0.000
  0.000  0.000  0.000  0.000  1.000
  0.999  0.001  0.000  0.000  0.000
  0.000  0.000  0.000  1.000  0.000
  0.000  0.000  1.000  0.000  0.000
    occupations:
  0.478  0.000 -0.003  0.005 -0.000
  0.000  0.793 -0.000 -0.000  0.000
 -0.003 -0.000  0.334  0.001  0.000
  0.005 -0.000  0.001  0.781  0.000
 -0.000  0.000  0.000  0.000  0.491
atom   16   Tr[ns(na)] =   5.81142
    eigenvalues: 
  0.347  0.501  0.572  0.694  0.791
    eigenvectors:
  0.011  0.000  0.270  0.000  0.719
  0.000  0.994  0.000  0.006  0.000
  0.988  0.000  0.001  0.000  0.012
  0.001  0.000  0.729  0.000  0.269
  0.000  0.006  0.000  0.993  0.000
    occupations:
  0.727 -0.000  0.044 -0.095  0.001
 -0.000  0.503 -0.000 -0.000 -0.015
  0.044 -0.000  0.352 -0.021  0.001
 -0.095 -0.000 -0.021  0.631 -0.000
  0.001 -0.015  0.001 -0.000  0.692
atom   17   Tr[ns(na)] =   5.81056
    eigenvalues: 
  0.346  0.523  0.594  0.656  0.787
    eigenvectors:
  0.000  0.000  0.973  0.026  0.001
  0.000  0.000  0.025  0.970  0.004
  0.999  0.000  0.000  0.000  0.000
  0.000  0.000  0.002  0.003  0.995
  0.000  1.000  0.000  0.000  0.000
    occupations:
  0.596  0.009  0.003  0.007 -0.000
  0.009  0.654 -0.005 -0.009 -0.001
  0.003 -0.005  0.346 -0.004  0.001
  0.007 -0.009 -0.004  0.786  0.000
 -0.000 -0.001  0.001  0.000  0.523
atom   22   Tr[ns(na)] =   5.82347
    eigenvalues: 
  0.434  0.476  0.605  0.608  0.788
    eigenvectors:
  0.000  0.000  0.219  0.000  0.781
  0.000  0.000  0.001  0.999  0.000
  0.000  1.000  0.000  0.000  0.000
  0.000  0.000  0.780  0.001  0.219
  1.000  0.000  0.000  0.000  0.000
    occupations:
  0.748  0.000 -0.000 -0.076 -0.001
  0.000  0.608 -0.000 -0.000  0.000
 -0.000 -0.000  0.476 -0.000  0.000
 -0.076 -0.000 -0.000  0.645  0.001
 -0.001  0.000  0.000  0.001  0.434
atom   23   Tr[ns(na)] =   5.75484
    eigenvalues: 
  0.334  0.478  0.491  0.781  0.793
    eigenvectors:
  0.001  0.999  0.000  0.000  0.000
  0.000  0.000  0.000  0.000  1.000
  0.999  0.001  0.000  0.000  0.000
  0.000  0.000  0.000  1.000  0.000
  0.000  0.000  1.000  0.000  0.000
    occupations:
  0.478  0.000 -0.003  0.005 -0.000
  0.000  0.793 -0.000 -0.000  0.000
 -0.003 -0.000  0.334  0.001  0.000
  0.005 -0.000  0.001  0.781  0.000
 -0.000  0.000  0.000  0.000  0.491
N of occupied +U levels =  46.4006244
 --- exit write_ns ---

          k = 0.0000 0.0000 0.0000 ( 29769 PWs)   bands (ev):

   -62.5466 -62.4166 -62.0499 -62.0272 -61.9991 -61.9317 -61.9140 -61.8841
   -37.1514 -37.0501 -36.9348 -36.5279 -36.4131 -36.3840 -36.3762 -36.3637
   -36.3430 -36.3052 -36.2543 -36.2518 -36.2483 -36.2272 -36.1738 -36.1727
   -36.1547 -36.0898 -36.0539 -36.0510 -36.0237 -35.3231 -35.2214 -35.1309
   -20.7750 -20.3880 -20.1242 -19.9001 -19.7088 -19.5077 -19.4261 -19.2181
   -19.2073 -19.1832 -19.1089 -18.9479 -18.8374 -18.7755 -18.7109 -18.4814
   -18.2638 -18.0028  -9.1662  -8.8444  -8.8112  -8.7663  -8.6690  -8.5454
    -8.3296  -7.7251  -7.5221  -7.4352  -7.3566  -7.1018  -6.9554  -6.7890
    -6.6230  -6.5372  -6.4558  -6.3421  -6.3070  -6.2383  -6.0953  -6.0264
    -5.5173  -5.4603  -5.3280  -5.2365  -5.1938  -5.1128  -5.0459  -4.9261
    -4.8783  -4.6399  -4.5316  -4.4541  -4.4260  -4.2446  -4.0787  -4.0468
    -3.9858  -3.9106  -3.8233  -3.7794  -3.6504  -3.5917  -3.5270  -3.4705
    -3.4288  -3.2980  -3.2668  -3.1087  -3.0564  -3.0307  -2.9859  -2.8069
    -2.5580  -2.5331  -2.2400  -1.4844  -0.9757  -0.6405  -0.1821   0.1438
     0.2129   0.4803   0.7134   0.8017   0.8480   1.0351   1.5197   1.7783
     1.7900   1.8851   1.9221   1.9580   2.0314   2.2223   2.3340   2.4886
     2.5914   2.9500   3.1671   3.4065   3.7664   3.9983   4.1072   4.2542
     4.4064   4.4399   4.5102   4.6708   4.7007   4.7308   4.7713   4.8989
     5.0087   5.1199   5.1499   5.3313   5.9268   6.0490   6.2600   6.4777
     6.9971   7.1482   7.2818   7.4000   7.4678   7.5913   7.7014   7.9095
     7.9666   7.9834   8.2034   8.3336   8.4742   8.7005   8.7123   8.8962
     8.9168   9.0486   9.1049   9.2629   9.3087   9.3938   9.5608   9.5969
     9.6994   9.7209   9.7683   9.8334   9.9966  10.0204  10.0259  10.2052
    10.3005  10.4456  10.5038  10.5400  10.7158  10.7748  10.9397  11.0111
    11.1826  11.2694  11.5317  11.5475  11.5689  11.6846  11.7109  11.7720
    11.8144  11.8873  12.0708  12.2913  12.3705  12.3882  12.4666  12.4764
    12.5293  12.5354  12.6664  12.6742  12.7083  12.7363  12.8374  12.9329
    12.9531  13.0044  13.0214  13.3068  13.3154  13.3206  13.3702  13.4902
    13.5692  13.5920  13.6716  13.8216  13.8352  13.8627  13.9555  14.0081
    14.0357  14.1947  14.2905  14.3776  14.4047  14.6083  14.6140  14.8541
    14.8713  14.9161  14.9316  15.0410  15.0768  15.2026  15.3096  15.4067
    15.4542  15.5852  15.6839  15.6900  15.7496  15.8719  15.9166  15.9736
    16.0720  16.1097  16.1567  16.2466  16.2584  16.2981  16.4301  16.5103
    16.6072  16.6517  16.7320  16.7413  16.7741  16.7844  16.8316  17.0146
    17.0482  17.1276  17.2274  17.2509  17.5721  17.6052  17.7494  17.7989
    17.8589  18.0086  18.0276  18.1061  18.1315  18.2849  18.3675  18.4546
    18.4870  18.5505  18.5745  18.6469  18.7900  18.8549  18.9057  18.9396
    19.1415  19.1461  19.3356  19.4361  19.4925  19.5077  19.5856  19.6639
    19.7014  19.7957  19.8462  19.9256  19.9714  20.0971  20.1945  20.3353
    20.3515  20.3842  20.4668  20.5107  20.7167  20.7391  20.8229  20.8727
    20.9037  21.0286  21.0608  21.2560  21.2939  21.4431  21.4647  21.5022
    21.5683  21.5904  21.6043  21.6743  21.6921  21.7314  21.7856  21.8071

          k = 0.0000 0.1950 0.0000 ( 29773 PWs)   bands (ev):

   -62.5448 -62.4165 -62.0482 -62.0265 -61.9973 -61.9325 -61.9138 -61.8842
   -37.1505 -37.0478 -36.9363 -36.5275 -36.4130 -36.3830 -36.3711 -36.3624
   -36.3494 -36.3044 -36.2540 -36.2518 -36.2467 -36.2188 -36.1948 -36.1701
   -36.1549 -36.0899 -36.0539 -36.0507 -36.0216 -35.3229 -35.2216 -35.1310
   -20.7699 -20.3874 -19.9652 -19.7763 -19.6684 -19.5288 -19.4902 -19.4241
   -19.2893 -19.2180 -19.2070 -19.0306 -18.7353 -18.7223 -18.6946 -18.3650
   -18.2621 -18.0009  -9.1630  -8.8465  -8.7913  -8.5594  -8.4788  -8.4076
    -8.3101  -8.0116  -7.9122  -7.7675  -7.3839  -7.2812  -7.0898  -6.7784
    -6.6885  -6.5159  -6.4713  -6.4064  -6.1149  -5.9040  -5.8372  -5.7112
    -5.4623  -5.4187  -5.3808  -5.3175  -5.2460  -5.0979  -4.9777  -4.9491
    -4.8892  -4.8155  -4.7551  -4.5134  -4.2610  -4.2116  -4.1819  -3.9742
    -3.9152  -3.8278  -3.7697  -3.6841  -3.6484  -3.6406  -3.4340  -3.4046
    -3.3536  -3.2900  -3.1806  -3.1583  -3.0627  -3.0259  -2.9504  -2.8765
    -2.5578  -2.5355  -2.2655  -1.4775  -1.3859  -1.0720  -0.5524   0.1120
     0.2982   0.6228   0.9669   1.0262   1.0383   1.2023   1.6155   1.6999
     1.7534   1.8882   1.9986   2.1481   2.2489   2.3514   2.3819   2.3866
     2.5081   2.8832   3.2270   3.3823   3.6334   3.6721   4.0731   4.0971
     4.1128   4.1736   4.2859   4.4089   4.5533   4.7526   4.7777   4.9209
     5.1443   5.4034   5.6227   5.9466   6.0862   6.1417   6.1994   6.2882
     6.2923   6.6720   6.7460   7.1733   7.3206   7.6253   7.8452   7.9546
     8.0735   8.1160   8.2160   8.3696   8.8108   8.8269   8.8966   9.0119
     9.1327   9.2348   9.4301   9.4492   9.5645   9.7002   9.7360   9.8080
     9.8675   9.8891   9.9102  10.0556  10.0901  10.2070  10.2560  10.3459
    10.3691  10.5315  10.7032  10.7948  10.8019  10.8686  10.9687  10.9846
    11.1076  11.2366  11.2788  11.3109  11.3757  11.4310  11.5582  11.6463
    11.6607  11.7288  11.8164  11.8819  11.9564  12.0333  12.2706  12.3147
    12.3780  12.5058  12.5459  12.6074  12.6857  12.7231  12.8388  12.8941
    12.9661  13.1172  13.2144  13.2577  13.4166  13.4419  13.5180  13.6057
    13.6255  13.7954  13.8216  13.8500  13.9205  14.0583  14.0996  14.1088
    14.2131  14.2311  14.3123  14.3745  14.4216  14.4802  14.6356  14.7149
    14.7387  14.8876  14.9345  14.9759  15.0883  15.0890  15.1438  15.2129
    15.2560  15.2607  15.4126  15.4368  15.4532  15.6056  15.6332  15.6942
    15.7899  15.9533  15.9759  16.1530  16.1610  16.2150  16.2670  16.4403
    16.4529  16.6075  16.7653  16.7661  16.9121  17.0923  17.0978  17.2345
    17.2393  17.3603  17.3928  17.4129  17.5036  17.6708  17.7632  17.8346
    17.9494  18.0668  18.1444  18.1891  18.2331  18.3917  18.4670  18.5051
    18.6069  18.6514  18.6805  18.7691  18.8448  18.8488  18.9419  19.0556
    19.0828  19.1641  19.2021  19.2399  19.3737  19.3978  19.5368  19.5493
    19.5552  19.6654  19.7510  19.7539  19.8080  19.8896  19.9050  19.9607
    19.9967  20.0682  20.1823  20.2870  20.3607  20.4061  20.4497  20.5511
    20.6233  20.7271  20.7354  20.8047  20.9957  21.0204  21.0335  21.0791
    21.1216  21.1984  21.3501  21.3844  21.4827  21.6168  21.7396  21.7862

          k = 0.0000-0.3900 0.0000 ( 29782 PWs)   bands (ev):

   -62.5430 -62.4165 -62.0464 -62.0257 -61.9955 -61.9332 -61.9136 -61.8843
   -37.1496 -37.0455 -36.9378 -36.5271 -36.4129 -36.3825 -36.3778 -36.3574
   -36.3421 -36.3037 -36.2537 -36.2518 -36.2392 -36.2258 -36.2113 -36.1675
   -36.1552 -36.0899 -36.0539 -36.0504 -36.0196 -35.3227 -35.2218 -35.1309
   -20.7653 -20.3868 -19.7574 -19.6768 -19.6511 -19.5178 -19.4523 -19.4220
   -19.3981 -19.3052 -19.2067 -19.2003 -19.0765 -18.7354 -18.5338 -18.2604
   -18.1551 -17.9987  -9.1591  -9.0219  -8.7640  -8.5725  -8.3370  -8.1437
    -8.0940  -8.0709  -7.8705  -7.7914  -7.7837  -7.4145  -7.0640  -6.7710
    -6.7368  -6.6392  -6.5093  -6.4970  -6.3803  -6.2214  -5.7394  -5.5094
    -5.4631  -5.4028  -5.2498  -5.1799  -5.0720  -5.0613  -4.9316  -4.8370
    -4.7964  -4.7924  -4.6433  -4.4431  -4.2583  -4.1835  -4.1446  -4.0350
    -4.0182  -3.8303  -3.7853  -3.6212  -3.5952  -3.5447  -3.4796  -3.4620
    -3.4189  -3.3316  -3.2761  -3.1486  -3.1335  -2.9175  -2.8251  -2.6791
    -2.5572  -2.4750  -2.2839  -1.7005  -1.5035  -1.4710  -0.8890   0.0835
     0.1474   0.9709   1.1430   1.1806   1.2527   1.5712   1.5943   1.6166
     1.8286   1.8668   1.9971   2.2147   2.3654   2.3854   2.4080   2.5043
     2.5449   2.6093   2.8918   2.9692   3.4497   3.7919   3.8371   4.0352
     4.1446   4.1617   4.4175   4.6160   4.7781   4.7932   4.9311   4.9429
     5.1346   5.2521   5.4403   5.5826   5.8634   6.0534   6.2418   6.3602
     6.5546   6.6512   6.7830   7.0564   7.1830   7.3570   7.3792   8.0253
     8.0746   8.1588   8.2465   8.3942   8.6336   8.6726   8.9469   9.0952
     9.5293   9.6020   9.7531   9.8336   9.8663   9.9835  10.1132  10.1355
    10.1455  10.1500  10.2216  10.2392  10.3165  10.3716  10.4129  10.4966
    10.6818  10.6963  10.7331  10.8813  11.0076  11.0252  11.0608  11.1555
    11.2503  11.2678  11.3014  11.3069  11.3414  11.3982  11.4470  11.5367
    11.6239  11.6263  11.7533  11.7641  11.8661  11.8970  11.9491  12.0157
    12.0846  12.0910  12.1269  12.1509  12.5057  12.5188  12.5726  12.6994
    12.7011  12.7535  12.8374  12.9692  13.1971  13.2946  13.3064  13.3447
    13.3488  13.4552  13.5621  13.6083  13.8984  13.9963  14.0535  14.0934
    14.2174  14.2646  14.3479  14.4659  14.4922  14.6509  14.7626  14.7629
    14.7769  14.9665  14.9784  15.1472  15.2383  15.3027  15.3884  15.5023
    15.5509  15.5732  15.6347  15.8475  15.9277  15.9661  16.1084  16.1332
    16.1778  16.2223  16.2390  16.2591  16.3432  16.3993  16.5062  16.5647
    16.5673  16.6672  16.7089  16.8250  16.8370  16.9307  16.9825  17.0604
    17.0890  17.1341  17.1835  17.2095  17.2769  17.2984  17.4362  17.5164
    17.5880  17.6082  17.6862  17.7496  18.0190  18.0224  18.0417  18.1437
    18.2024  18.2636  18.2651  18.3993  18.4945  18.5620  18.6009  18.6993
    18.7156  18.8871  19.0176  19.1025  19.1282  19.2179  19.2803  19.3916
    19.4083  19.4287  19.4601  19.5368  19.6130  19.7758  19.8574  19.9507
    20.1144  20.2216  20.3094  20.3964  20.4334  20.4821  20.5374  20.6135
    20.6394  20.6554  20.6659  20.8934  20.9573  20.9743  21.0105  21.0153
    21.1211  21.3458  21.4079  21.4281  21.5514  21.7654  21.8345  21.8416

          k = 0.2500 0.0000 0.0000 ( 29757 PWs)   bands (ev):

   -62.5083 -62.4178 -62.0132 -61.9947 -61.9638 -61.9316 -61.9158 -61.8828
   -37.0320 -37.0201 -36.9505 -36.5155 -36.4316 -36.3662 -36.3579 -36.3159
   -36.2961 -36.2746 -36.2529 -36.2380 -36.2317 -36.2209 -36.1828 -36.1533
   -36.1327 -36.1257 -36.0859 -36.0473 -36.0376 -35.5073 -35.4056 -35.3112
   -20.6809 -20.4048 -19.9979 -19.7580 -19.5991 -19.4664 -19.3978 -19.3038
   -19.2876 -19.0651 -19.0619 -18.9379 -18.8697 -18.8666 -18.7876 -18.5488
   -18.3816 -18.1885  -8.8443  -8.6634  -8.4585  -8.3188  -8.2879  -8.1612
    -7.8707  -7.4594  -7.3193  -7.2664  -7.2393  -7.0730  -6.9276  -6.9130
    -6.7015  -6.5857  -6.4560  -6.4531  -6.3556  -5.9852  -5.9532  -5.9411
    -5.8516  -5.7498  -5.6920  -5.6623  -5.4828  -5.2118  -5.0897  -5.0060
    -4.7659  -4.6419  -4.5285  -4.4173  -4.4132  -4.3536  -4.2649  -4.2051
    -4.0673  -4.0275  -3.9612  -3.9074  -3.8062  -3.7109  -3.5079  -3.4582
    -3.4027  -3.3294  -3.1359  -3.0941  -2.9309  -2.8622  -2.7666  -2.5563
    -2.5344  -2.3991  -2.2782  -1.1666  -1.0130  -0.5961  -0.2377  -0.1572
    -0.0436   0.4589   0.5651   0.7773   0.8173   0.8424   0.9825   1.0004
     1.0300   1.0973   1.5074   1.8225   1.9606   1.9912   2.2414   2.3679
     2.5149   3.0170   3.2316   3.6901   3.9489   4.0192   4.2729   4.3399
     4.4732   4.4905   4.5800   4.5894   4.6405   4.7720   4.8211   4.8980
     4.9440   5.0457   5.5341   5.6393   5.8706   6.2327   6.2760   6.6419
     6.7939   6.9071   7.1708   7.2892   7.4444   7.5117   7.7105   7.7696
     7.9016   7.9017   7.9920   8.1976   8.2827   8.3350   8.5623   8.7855
     8.8311   8.8719   9.0893   9.2782   9.3383   9.4038   9.4363   9.5145
     9.5231   9.7396   9.8125   9.9702  10.0625  10.1927  10.2412  10.2430
    10.2867  10.3217  10.3515  10.6229  10.6768  10.7069  10.7854  10.8179
    11.0508  11.1023  11.1517  11.3499  11.4112  11.4411  11.5523  11.5588
    11.7611  11.8902  11.9973  12.1341  12.1505  12.1851  12.3712  12.5168
    12.5665  12.6762  12.7238  12.9711  13.0332  13.0428  13.1477  13.2259
    13.2481  13.3186  13.3345  13.5077  13.5494  13.5902  13.6925  13.8102
    13.9461  14.0280  14.1599  14.2362  14.2671  14.3854  14.5804  14.6040
    14.7356  14.8034  14.8714  14.9895  15.1115  15.1118  15.1353  15.2337
    15.3334  15.4243  15.4368  15.4918  15.5413  15.6703  15.6840  15.7165
    15.8232  15.8506  15.9054  15.9847  16.0578  16.1060  16.2531  16.2871
    16.3302  16.3652  16.4456  16.5129  16.5924  16.7013  16.7194  16.8463
    16.8589  16.8804  16.9474  17.0422  17.0424  17.1489  17.1613  17.2203
    17.3206  17.3739  17.3814  17.6533  17.7190  17.7844  17.8069  17.8684
    17.8946  18.0811  18.1122  18.1621  18.1658  18.2814  18.3176  18.4552
    18.4678  18.6504  18.6694  18.8054  18.8657  18.8801  18.9391  18.9960
    19.0011  19.0889  19.1755  19.2168  19.4203  19.4314  19.4931  19.5257
    19.6001  19.6378  19.6585  19.7362  19.8119  19.8421  19.8910  19.9819
    19.9970  20.0438  20.0829  20.1102  20.1270  20.2403  20.3075  20.4226
    20.4357  20.4919  20.5314  20.5810  20.5864  20.6372  20.6651  20.7802
    20.8541  20.9346  20.9601  21.1605  21.3165  21.3781  21.5073  21.5207

          k = 0.2500 0.1950 0.0000 ( 29746 PWs)   bands (ev):

   -62.5068 -62.4174 -62.0123 -61.9939 -61.9620 -61.9321 -61.9154 -61.8828
   -37.0303 -37.0193 -36.9513 -36.5151 -36.4315 -36.3655 -36.3453 -36.3217
   -36.2959 -36.2779 -36.2711 -36.2309 -36.2192 -36.2127 -36.1840 -36.1718
   -36.1338 -36.1254 -36.0847 -36.0481 -36.0364 -35.5067 -35.4056 -35.3111
   -20.6770 -20.4039 -19.8605 -19.6545 -19.5861 -19.5377 -19.4253 -19.3636
   -19.3141 -19.2191 -19.0693 -19.0239 -18.8264 -18.8093 -18.7273 -18.5092
   -18.3801 -18.1869  -8.8397  -8.7140  -8.2936  -8.1909  -8.1317  -7.9987
    -7.8398  -7.7695  -7.7362  -7.5066  -7.2640  -7.2307  -7.1083  -6.8856
    -6.6768  -6.5968  -6.4513  -6.3234  -6.1922  -6.1493  -5.9807  -5.9609
    -5.8211  -5.6805  -5.4051  -5.3363  -5.2388  -5.1374  -4.9252  -4.8565
    -4.8119  -4.6390  -4.5804  -4.5121  -4.4904  -4.4648  -4.3410  -4.3378
    -4.3127  -4.0462  -3.9373  -3.9029  -3.8117  -3.7691  -3.5389  -3.5167
    -3.4333  -3.3749  -3.1651  -3.0654  -2.9807  -2.8416  -2.6341  -2.4654
    -2.3645  -2.2563  -2.1294  -1.2899  -1.1678  -0.9607  -0.5490  -0.2016
     0.1424   0.2390   0.7266   0.8647   0.8852   0.9857   1.1291   1.1849
     1.2679   1.3238   1.7161   1.7906   1.9405   2.1470   2.2097   2.3689
     2.4125   2.8400   3.3647   3.4308   3.6898   3.7445   3.9117   4.1468
     4.2327   4.3092   4.5173   4.5752   4.5919   4.6823   4.9185   5.1236
     5.4891   5.5992   5.7589   5.7726   5.9481   6.0889   6.2982   6.4008
     6.5254   6.6351   6.9392   6.9905   7.0998   7.3146   7.5044   7.6213
     7.9292   7.9511   8.2212   8.2750   8.2854   8.4901   8.6364   8.7163
     8.9038   8.9945   9.0794   9.3433   9.3668   9.4365   9.4990   9.5728
     9.5914   9.6138   9.8192  10.0225  10.0246  10.2018  10.2049  10.3641
    10.4971  10.5280  10.6408  10.7247  10.7443  10.8810  11.0802  11.0948
    11.1902  11.2581  11.5564  11.6363  11.6364  11.7728  11.7955  11.9024
    11.9785  12.1118  12.2528  12.3015  12.3476  12.3659  12.5097  12.6512
    12.6538  12.7815  12.8863  12.8971  12.9684  13.1080  13.1241  13.1877
    13.3268  13.4169  13.4191  13.5168  13.5220  13.7025  13.7516  13.7594
    13.8809  13.8893  13.9974  14.0203  14.1329  14.1705  14.2353  14.3393
    14.4252  14.4746  14.4951  14.5603  14.5977  14.7358  14.8172  14.8368
    14.9620  15.0410  15.0999  15.2351  15.2988  15.3884  15.4789  15.5684
    15.6318  15.6688  15.7559  15.8629  15.8963  15.9799  16.0901  16.1053
    16.1794  16.2786  16.3065  16.3554  16.3918  16.4355  16.6053  16.7186
    16.7262  16.7735  16.7741  16.9039  17.0233  17.0952  17.1842  17.2255
    17.2345  17.3047  17.3581  17.4050  17.4842  17.6764  17.6914  17.8209
    17.8904  17.9205  18.0862  18.1108  18.1385  18.2707  18.2994  18.3962
    18.4260  18.4480  18.5897  18.5983  18.6057  18.8766  18.9035  19.0224
    19.0617  19.1338  19.1526  19.2604  19.3337  19.5396  19.6123  19.6531
    19.7066  19.7887  19.8312  19.9124  19.9531  20.1085  20.1618  20.1896
    20.2167  20.2412  20.3303  20.3939  20.4235  20.4288  20.4645  20.5483
    20.6744  20.6872  20.7688  20.8406  20.9458  20.9705  21.0525  21.0629
    21.1395  21.1992  21.2132  21.3215  21.4379  21.5045  21.5522  21.6384

          k = 0.2500-0.3900 0.0000 ( 29726 PWs)   bands (ev):

   -62.5053 -62.4171 -62.0114 -61.9931 -61.9603 -61.9325 -61.9151 -61.8827
   -37.0286 -37.0185 -36.9521 -36.5147 -36.4313 -36.3650 -36.3316 -36.3255
   -36.2956 -36.2863 -36.2724 -36.2300 -36.2129 -36.1997 -36.1977 -36.1851
   -36.1351 -36.1251 -36.0832 -36.0488 -36.0350 -35.5061 -35.4057 -35.3109
   -20.6734 -20.4030 -19.6474 -19.6452 -19.6040 -19.5188 -19.4205 -19.3342
   -19.3022 -19.2784 -19.1652 -19.1027 -19.0495 -18.8094 -18.6822 -18.3787
   -18.3424 -18.1853  -8.8347  -8.7690  -8.3010  -8.2080  -8.0200  -7.9005
    -7.8207  -7.7412  -7.6578  -7.4180  -7.3092  -7.1683  -7.1490  -7.1359
    -6.8633  -6.8366  -6.6979  -6.5897  -6.3149  -6.1604  -6.0193  -5.6045
    -5.4737  -5.4551  -5.2158  -5.2029  -5.1929  -4.9411  -4.9119  -4.8682
    -4.7716  -4.7056  -4.6323  -4.6009  -4.5071  -4.4578  -4.4546  -4.3822
    -4.3038  -4.1525  -4.0752  -3.8954  -3.8078  -3.6814  -3.6007  -3.5044
    -3.3463  -3.3074  -3.1672  -3.0843  -3.0723  -2.8340  -2.5758  -2.4271
    -2.3295  -2.1230  -2.0690  -1.4879  -1.3716  -1.1699  -0.7945  -0.2756
    -0.0436   0.6115   0.7750   0.9220   1.0067   1.2396   1.4286   1.4658
     1.5044   1.6164   1.6803   1.6935   2.0543   2.1910   2.2711   2.3975
     2.4529   2.5423   2.7331   2.9816   3.3355   3.5169   3.6958   4.1010
     4.2852   4.3415   4.5305   4.6065   4.8188   4.9739   5.1514   5.2735
     5.4546   5.5761   5.7831   5.8510   5.9275   6.1597   6.2160   6.3272
     6.3980   6.4510   6.7354   6.8848   7.0110   7.4183   7.4229   7.5837
     7.7782   7.9014   8.0022   8.1790   8.3063   8.3977   8.5486   8.5896
     8.7092   8.8118   9.0156   9.0885   9.2824   9.4365   9.5525   9.6064
     9.8950   9.9032   9.9617  10.3213  10.4557  10.4597  10.5216  10.6010
    10.6992  10.7509  10.8290  11.0310  11.2972  11.3106  11.3792  11.4817
    11.6070  11.6975  11.7125  11.8001  11.9011  11.9317  11.9405  12.0406
    12.0671  12.1241  12.1388  12.1961  12.2825  12.4387  12.4536  12.6362
    12.7525  12.7798  12.8531  12.9348  12.9719  12.9896  13.0564  13.0811
    13.1942  13.2772  13.3835  13.5428  13.5936  13.5972  13.7566  13.7895
    13.8798  13.8889  13.9162  13.9258  14.0140  14.0355  14.1019  14.2017
    14.2594  14.2637  14.3202  14.4465  14.5030  14.5853  14.6263  14.7533
    14.8276  14.8681  14.8980  14.9729  15.0600  15.0881  15.0923  15.1607
    15.1949  15.4050  15.4200  15.5549  15.5641  15.6942  15.7647  15.8693
    15.9105  16.0384  16.0630  16.0755  16.1763  16.2966  16.3489  16.4059
    16.5575  16.6381  16.7625  16.8441  16.8839  17.0292  17.0652  17.1654
    17.2059  17.2904  17.4039  17.4441  17.4922  17.5793  17.8206  17.8545
    17.8581  17.8835  17.9908  18.0318  18.0409  18.1965  18.3968  18.4503
    18.4896  18.6165  18.8176  18.9473  18.9552  18.9815  19.0989  19.2039
    19.2811  19.3116  19.3787  19.4240  19.4252  19.4526  19.5385  19.5808
    19.6354  19.6386  19.6863  19.7365  19.8304  19.8541  20.1285  20.2351
    20.2509  20.2848  20.3647  20.4193  20.4679  20.5092  20.5953  20.6664
    20.6813  20.7715  20.8030  20.8549  20.8572  20.9055  20.9679  20.9849
    21.0560  21.1089  21.1447  21.1973  21.2844  21.3559  21.3909  21.6245

          k =-0.5000 0.0000 0.0000 ( 29752 PWs)   bands (ev):

   -62.4445 -62.4445 -61.9538 -61.9538 -61.9400 -61.9398 -61.9053 -61.9051
   -36.9902 -36.9902 -36.6682 -36.6682 -36.4782 -36.4780 -36.3211 -36.3211
   -36.3091 -36.3090 -36.2499 -36.2497 -36.2052 -36.2052 -36.1538 -36.1537
   -36.1015 -36.1014 -35.9017 -35.9016 -35.7988 -35.7987 -35.7019 -35.7017
   -20.5026 -20.5026 -19.6952 -19.6952 -19.4980 -19.4979 -19.3931 -19.3931
   -19.2354 -19.2354 -18.9584 -18.9584 -18.7863 -18.7863 -18.7108 -18.7107
   -18.5410 -18.5410  -8.5110  -8.5110  -7.7682  -7.7682  -7.6143  -7.6143
    -7.3600  -7.3599  -7.3064  -7.3063  -6.9754  -6.9754  -6.8989  -6.8989
    -6.7090  -6.7090  -6.6858  -6.6858  -6.2691  -6.2691  -5.8777  -5.8777
    -5.8149  -5.8149  -5.7134  -5.7133  -5.3844  -5.3844  -5.2969  -5.2969
    -5.0260  -5.0260  -4.7985  -4.7984  -4.5480  -4.5479  -4.4668  -4.4668
    -4.1881  -4.1881  -3.9481  -3.9481  -3.8225  -3.8225  -3.4347  -3.4347
    -3.4191  -3.4191  -2.9776  -2.9776  -2.7916  -2.7916  -2.4878  -2.4878
    -1.5868  -1.5868  -1.1699  -1.1699  -1.0949  -1.0949  -0.7112  -0.7112
    -0.4626  -0.4625  -0.2024  -0.2024   0.4588   0.4588   0.5118   0.5119
     0.9895   0.9895   1.5830   1.5830   2.1514   2.1515   2.2883   2.2883
     2.7433   2.7434   3.6707   3.6707   4.0202   4.0203   4.3363   4.3364
     4.5052   4.5052   4.6077   4.6077   4.6415   4.6415   4.9957   4.9958
     5.3825   5.3826   5.6431   5.6440   5.9356   5.9359   6.2245   6.2249
     6.5387   6.5392   7.1037   7.1042   7.5574   7.5577   7.7095   7.7098
     8.1268   8.1271   8.2757   8.2759   8.4855   8.4860   8.6571   8.6581
     8.7828   8.7835   8.8233   8.8240   9.0711   9.0716   9.1843   9.1850
     9.5150   9.5155   9.5695   9.5699   9.8169   9.8173  10.1274  10.1278
    10.3017  10.3022  10.3766  10.3772  10.4785  10.4790  10.7859  10.7862
    10.9640  10.9643  11.3984  11.3987  11.5733  11.5735  11.6439  11.6442
    11.9200  11.9203  12.0425  12.0428  12.2757  12.2762  12.4817  12.4819
    12.9241  12.9242  13.1092  13.1094  13.1818  13.1820  13.3836  13.3839
    13.6128  13.6132  13.7904  13.7907  13.9901  13.9902  14.0815  14.0819
    14.4540  14.4541  14.7731  14.7733  14.8150  14.8152  14.8456  14.8457
    15.0785  15.0789  15.1636  15.1641  15.2595  15.2601  15.4385  15.4386
    15.6766  15.6767  15.8389  15.8393  16.0825  16.0827  16.1563  16.1566
    16.2555  16.2559  16.3625  16.3627  16.5702  16.5704  16.6411  16.6413
    16.7079  16.7082  16.9155  16.9158  17.0750  17.0754  17.2445  17.2446
    17.3388  17.3389  17.4626  17.4629  17.5339  17.5339  17.7026  17.7028
    17.7379  17.7382  17.8172  17.8180  17.9762  17.9770  18.1442  18.1448
    18.1931  18.1935  18.2490  18.2495  18.3804  18.3809  18.4470  18.4471
    18.5677  18.5680  18.6903  18.6906  18.7837  18.7840  18.8553  18.8555
    18.9017  18.9017  18.9457  18.9459  19.0477  19.0479  19.1903  19.1904
    19.2384  19.2384  19.2805  19.2806  19.4154  19.4154  19.4724  19.4726
    19.5762  19.5763  19.6755  19.6757  19.7319  19.7320  20.0079  20.0082
    20.2126  20.2127  20.3341  20.3343  20.3765  20.3767  20.4393  20.4396
    20.5971  20.5973  20.6943  20.6949  20.7692  20.7692  20.8871  20.8872

          k =-0.5000 0.1950 0.0000 ( 29720 PWs)   bands (ev):

   -62.4436 -62.4436 -61.9540 -61.9539 -61.9393 -61.9391 -61.9043 -61.9041
   -36.9897 -36.9897 -36.6677 -36.6677 -36.4779 -36.4777 -36.3211 -36.3210
   -36.3016 -36.3012 -36.2534 -36.2533 -36.2045 -36.2045 -36.1521 -36.1520
   -36.1134 -36.1128 -35.8995 -35.8993 -35.7985 -35.7983 -35.7012 -35.7010
   -20.5008 -20.5007 -19.6507 -19.6506 -19.4942 -19.4940 -19.3870 -19.3865
   -19.2327 -19.2321 -18.9841 -18.9841 -18.7904 -18.7903 -18.7279 -18.7276
   -18.5398 -18.5398  -8.5094  -8.5093  -7.7552  -7.7542  -7.6138  -7.6119
    -7.4105  -7.4056  -7.3658  -7.3608  -7.0223  -7.0180  -6.9405  -6.9341
    -6.6921  -6.6841  -6.6315  -6.6228  -6.2311  -6.2272  -5.8496  -5.8365
    -5.7833  -5.7704  -5.6477  -5.6404  -5.4778  -5.4434  -5.3153  -5.3100
    -5.0123  -4.9473  -4.8448  -4.7449  -4.6062  -4.5653  -4.4111  -4.3698
    -4.2252  -4.2145  -4.0987  -4.0762  -3.8866  -3.8474  -3.4590  -3.4545
    -3.3577  -3.3305  -2.9897  -2.9855  -2.8826  -2.8800  -2.4190  -2.3835
    -1.5516  -1.5499  -1.1816  -1.1802  -1.0273  -1.0224  -0.7981  -0.7835
    -0.4713  -0.4678  -0.1272  -0.1270   0.4128   0.4244   0.6810   0.6820
     1.1902   1.1911   1.7531   1.7569   2.1141   2.1146   2.2847   2.2850
     2.6108   2.6112   3.4673   3.4677   3.7020   3.7037   3.9373   3.9376
     4.1771   4.1794   4.8535   4.8536   5.0647   5.0655   5.2767   5.2806
     5.4328   5.4400   5.8199   5.8222   5.9733   5.9743   6.2923   6.2985
     6.5870   6.5875   6.8745   6.8817   7.2760   7.2778   7.4254   7.4261
     7.5797   7.5840   7.8663   7.8669   8.0294   8.0409   8.3814   8.4062
     8.7906   8.7997   8.9741   8.9825   9.1947   9.2308   9.3763   9.3804
     9.5384   9.5712  10.1090  10.1093  10.2872  10.3105  10.4377  10.4492
    10.5375  10.5513  10.6900  10.6981  10.8007  10.8462  10.9695  10.9842
    11.2583  11.2969  11.5746  11.6072  11.7732  11.8134  11.8544  11.8574
    12.0184  12.0190  12.1977  12.2527  12.5141  12.5490  12.6434  12.6562
    12.8186  12.8704  13.1387  13.1631  13.2795  13.3086  13.4733  13.4823
    13.7741  13.7750  13.8892  13.8906  13.9604  13.9699  14.2411  14.2415
    14.3111  14.3240  14.4704  14.4724  14.5885  14.5899  14.6351  14.6489
    14.7527  14.7596  15.0419  15.0464  15.1761  15.1870  15.2815  15.2943
    15.4406  15.4481  15.5642  15.5831  15.6629  15.6691  15.7393  15.7437
    15.9859  15.9978  16.0338  16.0364  16.1585  16.1789  16.2116  16.2275
    16.3820  16.3907  16.4799  16.4850  16.6955  16.7189  16.7850  16.8018
    16.9050  16.9257  16.9911  17.0278  17.1509  17.1643  17.2447  17.2463
    17.4454  17.4526  17.4798  17.5165  17.5423  17.5488  17.7000  17.7036
    17.8184  17.8393  17.9382  17.9715  18.0334  18.0437  18.1221  18.1705
    18.3098  18.3118  18.5115  18.5300  18.6601  18.6740  18.8376  18.8777
    18.9374  18.9601  19.0656  19.0826  19.1871  19.2041  19.3256  19.3332
    19.5665  19.5889  19.7434  19.7454  19.8046  19.8375  20.0063  20.0103
    20.1314  20.1334  20.2408  20.2521  20.4117  20.4209  20.4555  20.4582
    20.5324  20.5504  20.5979  20.6191  20.8603  20.8654  20.9555  20.9874
    21.0514  21.0630  21.1427  21.1581  21.2130  21.2285  21.3239  21.3301

          k =-0.5000-0.3900 0.0000 ( 29668 PWs)   bands (ev):

   -62.4426 -62.4426 -61.9541 -61.9541 -61.9385 -61.9384 -61.9032 -61.9031
   -36.9892 -36.9892 -36.6673 -36.6673 -36.4776 -36.4775 -36.3210 -36.3209
   -36.2932 -36.2931 -36.2569 -36.2567 -36.2040 -36.2040 -36.1485 -36.1483
   -36.1274 -36.1273 -35.8972 -35.8972 -35.7983 -35.7981 -35.7006 -35.7004
   -20.4989 -20.4989 -19.5891 -19.5891 -19.5093 -19.5092 -19.3754 -19.3754
   -19.2284 -19.2284 -19.0117 -19.0117 -18.7987 -18.7987 -18.7426 -18.7425
   -18.5386 -18.5386  -8.5059  -8.5059  -7.7410  -7.7410  -7.5845  -7.5845
    -7.4785  -7.4785  -7.3613  -7.3613  -7.0678  -7.0677  -6.9954  -6.9954
    -6.6754  -6.6754  -6.6399  -6.6399  -6.2136  -6.2136  -5.8466  -5.8466
    -5.7970  -5.7970  -5.5670  -5.5670  -5.4840  -5.4840  -5.1443  -5.1443
    -4.9341  -4.9341  -4.6975  -4.6975  -4.6262  -4.6262  -4.5135  -4.5135
    -4.3961  -4.3960  -4.0019  -4.0019  -3.8444  -3.8444  -3.4849  -3.4849
    -3.2480  -3.2480  -3.1226  -3.1226  -2.9508  -2.9508  -2.3006  -2.3006
    -1.5388  -1.5388  -1.3692  -1.3692  -0.9757  -0.9756  -0.8708  -0.8708
    -0.6055  -0.6054   0.2781   0.2781   0.4377   0.4377   1.0553   1.0553
     1.4902   1.4902   1.7387   1.7388   2.1926   2.1927   2.3087   2.3088
     2.4185   2.4185   2.8438   2.8439   3.1215   3.1215   3.9617   3.9617
     4.2252   4.2252   4.9726   4.9727   5.1983   5.1983   5.5743   5.5744
     5.7678   5.7679   5.8680   5.8680   6.0822   6.0826   6.3719   6.3729
     6.4869   6.4878   6.7041   6.7046   6.8471   6.8479   7.1355   7.1362
     7.3086   7.3091   7.6844   7.6850   7.9542   7.9547   8.3528   8.3533
     8.5459   8.5464   8.7179   8.7182   9.2499   9.2502   9.5051   9.5056
     9.6694   9.6700   9.9687   9.9690  10.3245  10.3247  10.7078  10.7081
    11.0844  11.0848  11.2417  11.2420  11.3905  11.3910  11.5359  11.5362
    11.8356  11.8356  12.0327  12.0328  12.2479  12.2480  12.3777  12.3782
    12.4421  12.4429  12.6226  12.6230  12.6835  12.6840  12.8308  12.8316
    12.9294  12.9299  13.0849  13.0855  13.1933  13.1936  13.2864  13.2867
    13.4574  13.4578  13.5310  13.5314  13.7912  13.7914  13.8238  13.8239
    13.8942  13.8946  14.0093  14.0094  14.3186  14.3191  14.4043  14.4043
    14.4583  14.4584  14.6297  14.6301  14.8196  14.8201  14.9295  14.9300
    15.0750  15.0753  15.3992  15.3997  15.5054  15.5056  15.5991  15.5994
    15.7593  15.7595  15.9395  15.9398  15.9818  15.9819  16.2339  16.2341
    16.2704  16.2705  16.3774  16.3775  16.4656  16.4658  16.6038  16.6041
    16.6748  16.6753  16.7471  16.7472  17.0358  17.0362  17.1300  17.1302
    17.2735  17.2737  17.4514  17.4514  17.5294  17.5296  17.5878  17.5879
    17.7647  17.7648  17.9563  17.9564  18.0100  18.0101  18.0786  18.0787
    18.1855  18.1861  18.2988  18.2991  18.3343  18.3348  18.5759  18.5760
    18.6571  18.6573  19.0009  19.0011  19.0686  19.0688  19.3163  19.3166
    19.3519  19.3521  19.4877  19.4878  19.8106  19.8110  20.0764  20.0764
    20.1939  20.1940  20.2902  20.2906  20.4232  20.4234  20.5101  20.5103
    20.6370  20.6372  20.7888  20.7889  21.0293  21.0296  21.2192  21.2196
    21.4645  21.4645  21.6854  21.6857  21.7365  21.7369  21.8920  21.8921

          k =-0.2500 0.1950 0.0000 ( 29746 PWs)   bands (ev):

   -62.5068 -62.4174 -62.0123 -61.9939 -61.9620 -61.9321 -61.9154 -61.8828
   -37.0303 -37.0193 -36.9513 -36.5151 -36.4315 -36.3654 -36.3454 -36.3218
   -36.2959 -36.2780 -36.2696 -36.2308 -36.2192 -36.2145 -36.1840 -36.1716
   -36.1340 -36.1254 -36.0847 -36.0475 -36.0363 -35.5067 -35.4057 -35.3111
   -20.6770 -20.4039 -19.8606 -19.6545 -19.5864 -19.5376 -19.4252 -19.3623
   -19.3154 -19.2188 -19.0693 -19.0239 -18.8264 -18.8099 -18.7271 -18.5089
   -18.3801 -18.1869  -8.8396  -8.7152  -8.2999  -8.1819  -8.1315  -7.9998
    -7.8389  -7.7706  -7.7291  -7.5139  -7.2680  -7.2316  -7.1062  -6.8888
    -6.6664  -6.6086  -6.4402  -6.3225  -6.1920  -6.1509  -5.9783  -5.9653
    -5.8154  -5.6722  -5.3890  -5.3772  -5.2314  -5.1388  -4.9672  -4.8179
    -4.7972  -4.6482  -4.5936  -4.5158  -4.4891  -4.4412  -4.3723  -4.3244
    -4.3006  -4.0425  -3.9299  -3.9124  -3.8153  -3.7730  -3.5365  -3.5332
    -3.4292  -3.3650  -3.1562  -3.0560  -2.9992  -2.8262  -2.6125  -2.4998
    -2.3612  -2.2484  -2.1397  -1.2901  -1.1696  -0.9714  -0.5270  -0.2013
     0.1408   0.2390   0.7123   0.8655   0.8844   0.9876   1.1350   1.1884
     1.2661   1.3232   1.7137   1.7931   1.9359   2.1470   2.2111   2.3689
     2.4126   2.8420   3.3627   3.4310   3.6902   3.7450   3.9105   4.1484
     4.2326   4.3094   4.5162   4.5746   4.5955   4.6823   4.9198   5.1237
     5.4920   5.5981   5.7603   5.7719   5.9440   6.0983   6.2885   6.4016
     6.5236   6.6345   6.9392   6.9896   7.0924   7.3114   7.5147   7.6139
     7.9267   7.9455   8.2069   8.2943   8.3055   8.4939   8.6489   8.6990
     8.8965   8.9999   9.0783   9.3358   9.3668   9.4272   9.5093   9.5640
     9.5870   9.6473   9.8185   9.9987  10.0359  10.1920  10.2550  10.3010
    10.4885  10.5257  10.6380  10.7276  10.7430  10.9904  11.0685  11.0975
    11.1277  11.2609  11.5525  11.6382  11.6445  11.7486  11.8094  11.9118
    11.9688  12.1025  12.2622  12.3168  12.3458  12.3624  12.4718  12.6460
    12.6554  12.7840  12.8896  12.9017  12.9667  13.1157  13.1228  13.2071
    13.3268  13.4315  13.4486  13.5085  13.5272  13.6877  13.6932  13.7453
    13.8860  13.8920  13.9976  14.0106  14.1520  14.1672  14.2433  14.3417
    14.4202  14.4552  14.4975  14.5551  14.5957  14.7446  14.8296  14.8700
    14.9642  15.0415  15.0894  15.2373  15.3053  15.3944  15.4895  15.5651
    15.6445  15.6690  15.7579  15.8263  15.8996  15.9805  16.0889  16.1074
    16.1798  16.2750  16.3105  16.3705  16.3842  16.4314  16.6028  16.7123
    16.7169  16.7778  16.7859  16.8997  17.0114  17.1186  17.1680  17.2196
    17.2276  17.3034  17.3550  17.4077  17.4850  17.6766  17.6856  17.8150
    17.8994  17.9084  18.0921  18.0994  18.1709  18.2645  18.3583  18.3841
    18.4323  18.4376  18.5448  18.5711  18.6172  18.8555  18.8890  19.0146
    19.0706  19.1305  19.1641  19.2793  19.3294  19.5063  19.6046  19.6060
    19.7175  19.8007  19.8205  19.9098  19.9735  20.1095  20.1680  20.1970
    20.2245  20.2486  20.3456  20.3903  20.4001  20.4279  20.5047  20.5333
    20.6699  20.7049  20.7583  20.8593  20.9216  20.9676  21.0485  21.0845
    21.1296  21.2352  21.2379  21.3325  21.4185  21.4997  21.5671  21.6434

     the Fermi energy is    -0.2064 ev

!    total energy              =   -1695.12708658 Ry
     Harris-Foulkes estimate   =   -1695.12708677 Ry
     estimated scf accuracy    <       0.00000070 Ry

     The total energy is the sum of the following terms:

     one-electron contribution =  -21424.04605277 Ry
     hartree contribution      =   10734.46787379 Ry
     xc contribution           =    -286.77573710 Ry
     ewald contribution        =    9276.37126585 Ry
     Hubbard energy            =       4.85703361 Ry
     smearing contrib. (-TS)   =      -0.00146996 Ry

     convergence has been achieved in  30 iterations

     Forces acting on atoms (Ry/au):


     negative rho (up, down):  0.358E-02 0.000E+00
     atom    1 type  1   force =    -0.00270423   -0.00742179    0.01134075
     atom    2 type  1   force =    -0.00007922    0.01285345   -0.01176763
     atom    3 type  2   force =     0.00002228   -0.00958713    0.00272284
     atom    4 type  2   force =    -0.00263525    0.00358260   -0.01853755
     atom    5 type  1   force =     0.00216387   -0.01747411    0.00016679
     atom    6 type  1   force =    -0.00063873    0.01433183    0.00163787
     atom    7 type  1   force =     0.00004510    0.00314941   -0.00882488
     atom    8 type  1   force =     0.00382627    0.00019561    0.00025387
     atom    9 type  2   force =    -0.00204348    0.00137554   -0.00353002
     atom   10 type  2   force =    -0.00003433    0.00108667    0.02201161
     atom   11 type  1   force =     0.00005591   -0.00541621    0.00437751
     atom   12 type  1   force =     0.00004109    0.00272383    0.00482237
     atom   13 type  1   force =    -0.00019556   -0.00032565   -0.00437053
     atom   14 type  1   force =    -0.00270475   -0.00742287    0.01135020
     atom   15 type  1   force =    -0.00009564    0.01284958   -0.01178490
     atom   16 type  2   force =     0.00002036   -0.00958505    0.00272257
     atom   17 type  2   force =    -0.00263883    0.00358390   -0.01853561
     atom   18 type  1   force =     0.00216037   -0.01746268    0.00016964
     atom   19 type  1   force =    -0.00064350    0.01431871    0.00163956
     atom   20 type  1   force =     0.00002925    0.00314868   -0.00879948
     atom   21 type  1   force =     0.00382318    0.00019642    0.00024949
     atom   22 type  2   force =    -0.00203454    0.00137545   -0.00352950
     atom   23 type  2   force =    -0.00003490    0.00108674    0.02201228
     atom   24 type  1   force =     0.00004351   -0.00541540    0.00437810
     atom   25 type  1   force =     0.00002925    0.00272351    0.00482239
     atom   26 type  1   force =    -0.00019624   -0.00032672   -0.00435350
     atom   27 type  3   force =     0.00002408   -0.00023372    0.00049824
     atom   28 type  3   force =     0.00002413   -0.00023354    0.00049708
     atom   29 type  3   force =     0.00218600    0.00116143   -0.00081913
     atom   30 type  3   force =     0.00218453    0.00116149   -0.00082044

     Total force =     0.050287     Total SCF correction =     0.002024

     BFGS Geometry Optimization

     number of scf cycles    =   1
     number of bfgs steps    =   0

     energy   new            =   -1695.1270865842 Ry

     new trust radius        =       0.0220122844 bohr
     new conv_thr            =       0.0000010000 Ry


ATOMIC_POSITIONS (crystal)
O0       0.000000000   0.000000000   0.373632266    0   0   1
O0       0.000000000   0.500000000   0.380109367    0   0   1
Mo1      0.250000000   0.500000000   0.437863365    0   0   1
Mo1      0.000000000   0.000000000   0.445826684    0   0   1
O0       0.250000000   0.780000000   0.443413269    0   0   1
O0       0.250000000   0.220000000   0.443322101    0   0   1
O0       0.000000000   0.500000000   0.495677042    0   0   1
O0       0.000000000   0.000000000   0.518874976    0   0   1
Mo1      0.250000000   0.000000000   0.578210815    0   0   1
Mo1      0.000000000   0.500000000   0.564301403    0   0   1
O0       0.250000000   0.720000000   0.573775794    0   0   1
O0       0.250000000   0.280000000   0.573844513    0   0   1
O0       0.000000000   0.000000000   0.628914342    0   0   1
O0       0.500000000   0.000000000   0.373632451    0   0   1
O0       0.500000000   0.500000000   0.380109029    0   0   1
Mo1      0.750000000   0.500000000   0.437863359    0   0   1
Mo1      0.500000000   0.000000000   0.445826723    0   0   1
O0       0.750000000   0.780000000   0.443413325    0   0   1
O0       0.750000000   0.220000000   0.443322133    0   0   1
O0       0.500000000   0.500000000   0.495677540    0   0   1
O0       0.500000000   0.000000000   0.518874890    0   0   1
Mo1      0.750000000   0.000000000   0.578210826    0   0   1
Mo1      0.500000000   0.500000000   0.564301416    0   0   1
O0       0.750000000   0.720000000   0.573775806    0   0   1
O0       0.750000000   0.280000000   0.573844514    0   0   1
O0       0.500000000   0.000000000   0.628914676    0   0   1
H2      -0.000487666   0.613672333   0.358869765
H2       0.499512339   0.613672346   0.358869742
H2       0.165961865   0.020777796   0.358903946
H2       0.665961722   0.020777800   0.358903920


     Check: negative starting charge=   -0.002478
     NEW-OLD atomic charge density approx. for the potential

     Check: negative/imaginary core charge=   -0.000003    0.000000
     Check: negative starting charge=   -0.002483

     negative rho (up, down):  0.355E-02 0.000E+00
 Atomic wfc used for LDA+U Projector are NOT orthogonalized

     total cpu time spent up to now is     6148.1 secs

     per-process dynamical memory:   413.6 Mb

     Self-consistent Calculation

     iteration #  1     ecut=    40.00 Ry     beta=0.70
     Davidson diagonalization with overlap
     ethr =  1.00E-06,  avg # of iterations =  4.4
 --- enter write_ns ---
 LDA+U parameters:
U( 2)     =  7.50000000
alpha( 2) =  0.00000000
atom    3   Tr[ns(na)] =   5.79793
    eigenvalues: 
  0.347  0.502  0.572  0.687  0.791
    eigenvectors:
  0.011  0.000  0.272  0.000  0.717
  0.000  0.993  0.000  0.007  0.000
  0.988  0.000  0.001  0.000  0.012
  0.001  0.000  0.728  0.000  0.271
  0.000  0.007  0.000  0.993  0.000
    occupations:
  0.726 -0.000  0.044 -0.096  0.001
 -0.000  0.503 -0.000 -0.000 -0.015
  0.044 -0.000  0.352 -0.021  0.001
 -0.096 -0.000 -0.021  0.631 -0.001
  0.001 -0.015  0.001 -0.001  0.686
atom    4   Tr[ns(na)] =   5.81026
    eigenvalues: 
  0.348  0.522  0.595  0.654  0.787
    eigenvectors:
  0.000  0.000  0.969  0.030  0.001
  0.000  0.000  0.029  0.967  0.004
  0.999  0.000  0.000  0.000  0.000
  0.000  0.000  0.002  0.003  0.995
  0.000  1.000  0.000  0.000  0.000
    occupations:
  0.597  0.010  0.003  0.007 -0.000
  0.010  0.652 -0.006 -0.009 -0.001
  0.003 -0.006  0.348 -0.004  0.001
  0.007 -0.009 -0.004  0.786  0.000
 -0.000 -0.001  0.001  0.000  0.522
atom    9   Tr[ns(na)] =   5.82278
    eigenvalues: 
  0.434  0.476  0.605  0.608  0.787
    eigenvectors:
  0.000  0.000  0.218  0.000  0.782
  0.000  0.000  0.001  0.999  0.000
  0.000  1.000  0.000  0.000  0.000
  0.000  0.000  0.781  0.001  0.218
  1.000  0.000  0.000  0.000  0.000
    occupations:
  0.748  0.000 -0.000 -0.075 -0.001
  0.000  0.608 -0.000 -0.000  0.000
 -0.000 -0.000  0.476 -0.000  0.000
 -0.075 -0.000 -0.000  0.645  0.001
 -0.001  0.000  0.000  0.001  0.434
atom   10   Tr[ns(na)] =   5.75995
    eigenvalues: 
  0.329  0.474  0.491  0.782  0.803
    eigenvectors:
  0.001  0.999  0.000  0.000  0.000
  0.000  0.000  0.000  0.000  1.000
  0.999  0.001  0.000  0.000  0.000
  0.000  0.000  0.000  1.000  0.000
  0.000  0.000  1.000  0.000  0.000
    occupations:
  0.474  0.000 -0.003  0.006 -0.000
  0.000  0.803 -0.000 -0.000  0.000
 -0.003 -0.000  0.330  0.001  0.000
  0.006 -0.000  0.001  0.782  0.000
 -0.000  0.000  0.000  0.000  0.491
atom   16   Tr[ns(na)] =   5.79704
    eigenvalues: 
  0.347  0.502  0.572  0.687  0.791
    eigenvectors:
  0.011  0.000  0.272  0.000  0.717
  0.000  0.993  0.000  0.007  0.000
  0.988  0.000  0.001  0.000  0.012
  0.001  0.000  0.728  0.000  0.271
  0.000  0.007  0.000  0.993  0.000
    occupations:
  0.726 -0.000  0.044 -0.095  0.001
 -0.000  0.503 -0.000 -0.000 -0.015
  0.044 -0.000  0.352 -0.021  0.001
 -0.095 -0.000 -0.021  0.631 -0.001
  0.001 -0.015  0.001 -0.001  0.686
atom   17   Tr[ns(na)] =   5.81057
    eigenvalues: 
  0.348  0.522  0.595  0.654  0.787
    eigenvectors:
  0.000  0.000  0.969  0.030  0.001
  0.000  0.000  0.029  0.967  0.004
  0.999  0.000  0.000  0.000  0.000
  0.000  0.000  0.002  0.003  0.995
  0.000  1.000  0.000  0.000  0.000
    occupations:
  0.597  0.010  0.003  0.007 -0.000
  0.010  0.653 -0.006 -0.009 -0.001
  0.003 -0.006  0.348 -0.004  0.001
  0.007 -0.009 -0.004  0.786  0.000
 -0.000 -0.001  0.001  0.000  0.522
atom   22   Tr[ns(na)] =   5.82277
    eigenvalues: 
  0.434  0.476  0.605  0.608  0.787
    eigenvectors:
  0.000  0.000  0.218  0.000  0.782
  0.000  0.000  0.001  0.999  0.000
  0.000  1.000  0.000  0.000  0.000
  0.000  0.000  0.781  0.001  0.218
  1.000  0.000  0.000  0.000  0.000
    occupations:
  0.748  0.000 -0.000 -0.075 -0.001
  0.000  0.608 -0.000 -0.000  0.000
 -0.000 -0.000  0.476 -0.000  0.000
 -0.075 -0.000 -0.000  0.645  0.001
 -0.001  0.000  0.000  0.001  0.434
atom   23   Tr[ns(na)] =   5.76073
    eigenvalues: 
  0.330  0.474  0.491  0.782  0.803
    eigenvectors:
  0.001  0.999  0.000  0.000  0.000
  0.000  0.000  0.000  0.000  1.000
  0.999  0.001  0.000  0.000  0.000
  0.000  0.000  0.000  1.000  0.000
  0.000  0.000  1.000  0.000  0.000
    occupations:
  0.474  0.000 -0.003  0.006 -0.000
  0.000  0.803 -0.000 -0.000  0.000
 -0.003 -0.000  0.330  0.001  0.000
  0.006 -0.000  0.001  0.782  0.000
 -0.000  0.000  0.000  0.000  0.491
N of occupied +U levels =  46.3820401
 --- exit write_ns ---

     negative rho (up, down):  0.356E-02 0.000E+00

     total cpu time spent up to now is     6437.8 secs

     total energy              =   -1695.12666669 Ry
     Harris-Foulkes estimate   =   -1695.12894133 Ry
     estimated scf accuracy    <       0.00324530 Ry

     iteration #  2     ecut=    40.00 Ry     beta=0.70
     Davidson diagonalization with overlap
     ethr =  1.45E-06,  avg # of iterations =  5.8

     negative rho (up, down):  0.367E-02 0.000E+00

     total cpu time spent up to now is     6666.4 secs

     total energy              =   -1695.10864899 Ry
     Harris-Foulkes estimate   =   -1695.15140365 Ry
     estimated scf accuracy    <       0.54348179 Ry

     iteration #  3     ecut=    40.00 Ry     beta=0.70
     Davidson diagonalization with overlap
     ethr =  1.45E-06,  avg # of iterations =  5.9

     negative rho (up, down):  0.359E-02 0.000E+00

     total cpu time spent up to now is     6884.1 secs

     total energy              =   -1695.12815236 Ry
     Harris-Foulkes estimate   =   -1695.12932951 Ry
     estimated scf accuracy    <       0.00602448 Ry

     iteration #  4     ecut=    40.00 Ry     beta=0.70
     Davidson diagonalization with overlap
     ethr =  1.45E-06,  avg # of iterations =  4.5

     negative rho (up, down):  0.358E-02 0.000E+00

     total cpu time spent up to now is     7073.4 secs

     total energy              =   -1695.12866881 Ry
     Harris-Foulkes estimate   =   -1695.12887520 Ry
     estimated scf accuracy    <       0.00130034 Ry

     iteration #  5     ecut=    40.00 Ry     beta=0.70
     Davidson diagonalization with overlap
     ethr =  5.81E-07,  avg # of iterations =  1.0

     negative rho (up, down):  0.358E-02 0.000E+00

     total cpu time spent up to now is     7260.8 secs

     total energy              =   -1695.12874457 Ry
     Harris-Foulkes estimate   =   -1695.12885073 Ry
     estimated scf accuracy    <       0.00075052 Ry

     iteration #  6     ecut=    40.00 Ry     beta=0.70
     Davidson diagonalization with overlap
     ethr =  3.35E-07,  avg # of iterations =  1.0

     negative rho (up, down):  0.358E-02 0.000E+00

     total cpu time spent up to now is     7450.4 secs

     total energy              =   -1695.12880667 Ry
     Harris-Foulkes estimate   =   -1695.12883653 Ry
     estimated scf accuracy    <       0.00037445 Ry

     iteration #  7     ecut=    40.00 Ry     beta=0.70
     Davidson diagonalization with overlap
     ethr =  1.67E-07,  avg # of iterations =  1.0

     negative rho (up, down):  0.358E-02 0.000E+00

     total cpu time spent up to now is     7640.4 secs

     total energy              =   -1695.12882752 Ry
     Harris-Foulkes estimate   =   -1695.12883096 Ry
     estimated scf accuracy    <       0.00020679 Ry

     iteration #  8     ecut=    40.00 Ry     beta=0.70
     Davidson diagonalization with overlap
     ethr =  9.23E-08,  avg # of iterations =  1.0

     negative rho (up, down):  0.358E-02 0.000E+00

     total cpu time spent up to now is     7835.0 secs

     total energy              =   -1695.12883455 Ry
     Harris-Foulkes estimate   =   -1695.12884309 Ry
     estimated scf accuracy    <       0.00013967 Ry

     iteration #  9     ecut=    40.00 Ry     beta=0.70
     Davidson diagonalization with overlap
     ethr =  6.24E-08,  avg # of iterations =  1.0

     negative rho (up, down):  0.358E-02 0.000E+00

     total cpu time spent up to now is     8021.1 secs

     total energy              =   -1695.12883943 Ry
     Harris-Foulkes estimate   =   -1695.12884808 Ry
     estimated scf accuracy    <       0.00011442 Ry

[...]
     Harris-Foulkes estimate   =   -1695.13149922 Ry
     estimated scf accuracy    <       0.00000030 Ry

     iteration # 62     ecut=    40.00 Ry     beta=0.70
     Davidson diagonalization with overlap
     ethr =  3.15E-11,  avg # of iterations =  1.7

     negative rho (up, down):  0.354E-02 0.000E+00

     total cpu time spent up to now is    85507.5 secs

     total energy              =   -1695.13149920 Ry
     Harris-Foulkes estimate   =   -1695.13149921 Ry
     estimated scf accuracy    <       0.00000008 Ry

     iteration # 63     ecut=    40.00 Ry     beta=0.70
     Davidson diagonalization with overlap
     ethr =  3.15E-11,  avg # of iterations =  1.4

     negative rho (up, down):  0.354E-02 0.000E+00

     total cpu time spent up to now is    85692.3 secs

     total energy              =   -1695.13149917 Ry
     Harris-Foulkes estimate   =   -1695.13149924 Ry
     estimated scf accuracy    <       0.00000048 Ry

     iteration # 64     ecut=    40.00 Ry     beta=0.70
     Davidson diagonalization with overlap
     ethr =  3.15E-11,  avg # of iterations =  1.7

     negative rho (up, down):  0.354E-02 0.000E+00

     total cpu time spent up to now is    85885.5 secs

     total energy              =   -1695.13149921 Ry
     Harris-Foulkes estimate   =   -1695.13149921 Ry
     estimated scf accuracy    <       0.00000014 Ry

     iteration # 65     ecut=    40.00 Ry     beta=0.70
     Davidson diagonalization with overlap
     ethr =  3.15E-11,  avg # of iterations =  1.0

     negative rho (up, down):  0.354E-02 0.000E+00

     total cpu time spent up to now is    86074.2 secs

     total energy              =   -1695.13149922 Ry
     Harris-Foulkes estimate   =   -1695.13149922 Ry
     estimated scf accuracy    <       0.00000010 Ry

     iteration # 66     ecut=    40.00 Ry     beta=0.70
     Davidson diagonalization with overlap
     ethr =  3.15E-11,  avg # of iterations =  1.0

     negative rho (up, down):  0.354E-02 0.000E+00

     total cpu time spent up to now is    86261.6 secs

     total energy              =   -1695.13149923 Ry
     Harris-Foulkes estimate   =   -1695.13149923 Ry
     estimated scf accuracy    <       0.00000011 Ry

     iteration # 67     ecut=    40.00 Ry     beta=0.70
     Davidson diagonalization with overlap
     ethr =  3.15E-11,  avg # of iterations =  1.0

     negative rho (up, down):  0.354E-02 0.000E+00

     total cpu time spent up to now is    86448.5 secs

     total energy              =   -1695.13149924 Ry
     Harris-Foulkes estimate   =   -1695.13149924 Ry
     estimated scf accuracy    <       0.00000010 Ry

     iteration # 68     ecut=    40.00 Ry     beta=0.70
     Davidson diagonalization with overlap
     ethr =  3.15E-11,  avg # of iterations =  1.0

     negative rho (up, down):  0.354E-02 0.000E+00

     total cpu time spent up to now is    86633.7 secs

     total energy              =   -1695.13149925 Ry
     Harris-Foulkes estimate   =   -1695.13149925 Ry
     estimated scf accuracy    <       0.00000011 Ry

     iteration # 69     ecut=    40.00 Ry     beta=0.70
     Davidson diagonalization with overlap
     ethr =  3.15E-11,  avg # of iterations =  1.0

     negative rho (up, down):  0.354E-02 0.000E+00

     total cpu time spent up to now is    86825.0 secs

     total energy              =   -1695.13149925 Ry
     Harris-Foulkes estimate   =   -1695.13149925 Ry
     estimated scf accuracy    <       0.00000009 Ry

     iteration # 70     ecut=    40.00 Ry     beta=0.70
     Davidson diagonalization with overlap
     ethr =  3.15E-11,  avg # of iterations =  1.0

     negative rho (up, down):  0.354E-02 0.000E+00

     total cpu time spent up to now is    87011.2 secs

     total energy              =   -1695.13149925 Ry
     Harris-Foulkes estimate   =   -1695.13149926 Ry
     estimated scf accuracy    <       0.00000011 Ry

     iteration # 71     ecut=    40.00 Ry     beta=0.70
     Davidson diagonalization with overlap
     ethr =  3.15E-11,  avg # of iterations =  1.9

     negative rho (up, down):  0.354E-02 0.000E+00

     total cpu time spent up to now is    87205.2 secs

     total energy              =   -1695.13149923 Ry
     Harris-Foulkes estimate   =   -1695.13149928 Ry
     estimated scf accuracy    <       0.00000035 Ry

     iteration # 72     ecut=    40.00 Ry     beta=0.70
     Davidson diagonalization with overlap
     ethr =  3.15E-11,  avg # of iterations =  1.8

     negative rho (up, down):  0.354E-02 0.000E+00

     total cpu time spent up to now is    87381.4 secs

     total energy              =   -1695.13149925 Ry
     Harris-Foulkes estimate   =   -1695.13149927 Ry
     estimated scf accuracy    <       0.00000009 Ry

     iteration # 73     ecut=    40.00 Ry     beta=0.70
     Davidson diagonalization with overlap
     ethr =  3.15E-11,  avg # of iterations =  2.0

     negative rho (up, down):  0.354E-02 0.000E+00

     total cpu time spent up to now is    87555.4 secs

     total energy              =   -1695.13149922 Ry
     Harris-Foulkes estimate   =   -1695.13149930 Ry
     estimated scf accuracy    <       0.00000060 Ry

     iteration # 74     ecut=    40.00 Ry     beta=0.70
     Davidson diagonalization with overlap
     ethr =  3.15E-11,  avg # of iterations =  1.7

     negative rho (up, down):  0.354E-02 0.000E+00

     total cpu time spent up to now is    87727.7 secs

     total energy              =   -1695.13149927 Ry
     Harris-Foulkes estimate   =   -1695.13149927 Ry
     estimated scf accuracy    <       0.00000018 Ry

     iteration # 75     ecut=    40.00 Ry     beta=0.70
     Davidson diagonalization with overlap
     ethr =  3.15E-11,  avg # of iterations =  1.0

     negative rho (up, down):  0.354E-02 0.000E+00

     total cpu time spent up to now is    87897.5 secs

     total energy              =   -1695.13149928 Ry
     Harris-Foulkes estimate   =   -1695.13149928 Ry
     estimated scf accuracy    <       0.00000013 Ry

     iteration # 76     ecut=    40.00 Ry     beta=0.70
     Davidson diagonalization with overlap
     ethr =  3.15E-11,  avg # of iterations =  1.0

     negative rho (up, down):  0.354E-02 0.000E+00

     total cpu time spent up to now is    88073.2 secs

     total energy              =   -1695.13149929 Ry
     Harris-Foulkes estimate   =   -1695.13149929 Ry
     estimated scf accuracy    <       0.00000012 Ry

     iteration # 77     ecut=    40.00 Ry     beta=0.70
     Davidson diagonalization with overlap
     ethr =  3.15E-11,  avg # of iterations =  1.0

     negative rho (up, down):  0.354E-02 0.000E+00

     total cpu time spent up to now is    88249.9 secs

     total energy              =   -1695.13149930 Ry
     Harris-Foulkes estimate   =   -1695.13149929 Ry
     estimated scf accuracy    <       0.00000011 Ry

     iteration # 78     ecut=    40.00 Ry     beta=0.70
     Davidson diagonalization with overlap
     ethr =  3.15E-11,  avg # of iterations =  1.0

     negative rho (up, down):  0.354E-02 0.000E+00

     total cpu time spent up to now is    88420.9 secs

     total energy              =   -1695.13149930 Ry
     Harris-Foulkes estimate   =   -1695.13149930 Ry
     estimated scf accuracy    <       0.00000014 Ry

     iteration # 79     ecut=    40.00 Ry     beta=0.70
     Davidson diagonalization with overlap
     ethr =  3.15E-11,  avg # of iterations =  1.0

     negative rho (up, down):  0.354E-02 0.000E+00

     total cpu time spent up to now is    88600.1 secs

     total energy              =   -1695.13149930 Ry
     Harris-Foulkes estimate   =   -1695.13149930 Ry
     estimated scf accuracy    <       0.00000011 Ry

     iteration # 80     ecut=    40.00 Ry     beta=0.70
     Davidson diagonalization with overlap
     ethr =  3.15E-11,  avg # of iterations =  1.0

     negative rho (up, down):  0.354E-02 0.000E+00

     total cpu time spent up to now is    88772.4 secs

     total energy              =   -1695.13149929 Ry
     Harris-Foulkes estimate   =   -1695.13149931 Ry
     estimated scf accuracy    <       0.00000014 Ry

     iteration # 81     ecut=    40.00 Ry     beta=0.70
     Davidson diagonalization with overlap
     ethr =  3.15E-11,  avg # of iterations =  2.0

     negative rho (up, down):  0.354E-02 0.000E+00

     total cpu time spent up to now is    88944.2 secs

     total energy              =   -1695.13149927 Ry
     Harris-Foulkes estimate   =   -1695.13149935 Ry
     estimated scf accuracy    <       0.00000061 Ry

     iteration # 82     ecut=    40.00 Ry     beta=0.70
     Davidson diagonalization with overlap
     ethr =  3.15E-11,  avg # of iterations =  2.0

     negative rho (up, down):  0.354E-02 0.000E+00

     total cpu time spent up to now is    89127.1 secs

     total energy              =   -1695.13149933 Ry
     Harris-Foulkes estimate   =   -1695.13149933 Ry
     estimated scf accuracy    <       0.00000016 Ry

     iteration # 83     ecut=    40.00 Ry     beta=0.70
     Davidson diagonalization with overlap
     ethr =  3.15E-11,  avg # of iterations =  2.0

     negative rho (up, down):  0.354E-02 0.000E+00

     total cpu time spent up to now is    89309.7 secs

     total energy              =   -1695.13149929 Ry
     Harris-Foulkes estimate   =   -1695.13149938 Ry
     estimated scf accuracy    <       0.00000073 Ry

     iteration # 84     ecut=    40.00 Ry     beta=0.70
     Davidson diagonalization with overlap
     ethr =  3.15E-11,  avg # of iterations =  1.8

     negative rho (up, down):  0.354E-02 0.000E+00

     total cpu time spent up to now is    89485.7 secs

     total energy              =   -1695.13149936 Ry
     Harris-Foulkes estimate   =   -1695.13149935 Ry
     estimated scf accuracy    <       0.00000015 Ry

     iteration # 85     ecut=    40.00 Ry     beta=0.70
     Davidson diagonalization with overlap
     ethr =  3.15E-11,  avg # of iterations =  1.0

     negative rho (up, down):  0.354E-02 0.000E+00

     total cpu time spent up to now is    89669.7 secs

     total energy              =   -1695.13149937 Ry
     Harris-Foulkes estimate   =   -1695.13149936 Ry
     estimated scf accuracy    <       0.00000013 Ry

     iteration # 86     ecut=    40.00 Ry     beta=0.70
     Davidson diagonalization with overlap
     ethr =  3.15E-11,  avg # of iterations =  1.0

     negative rho (up, down):  0.354E-02 0.000E+00

     total cpu time spent up to now is    89850.3 secs

     total energy              =   -1695.13149936 Ry
     Harris-Foulkes estimate   =   -1695.13149937 Ry
     estimated scf accuracy    <       0.00000013 Ry

     iteration # 87     ecut=    40.00 Ry     beta=0.70
     Davidson diagonalization with overlap
     ethr =  3.15E-11,  avg # of iterations =  1.0

     negative rho (up, down):  0.354E-02 0.000E+00

     total cpu time spent up to now is    90022.0 secs

     total energy              =   -1695.13149936 Ry
     Harris-Foulkes estimate   =   -1695.13149936 Ry
     estimated scf accuracy    <       0.00000013 Ry

     iteration # 88     ecut=    40.00 Ry     beta=0.70
     Davidson diagonalization with overlap
     ethr =  3.15E-11,  avg # of iterations =  1.0

     negative rho (up, down):  0.354E-02 0.000E+00

     total cpu time spent up to now is    90206.9 secs

     total energy              =   -1695.13149937 Ry
     Harris-Foulkes estimate   =   -1695.13149937 Ry
     estimated scf accuracy    <       0.00000013 Ry

     iteration # 89     ecut=    40.00 Ry     beta=0.70
     Davidson diagonalization with overlap
     ethr =  3.15E-11,  avg # of iterations =  1.0

     negative rho (up, down):  0.354E-02 0.000E+00

     total cpu time spent up to now is    90387.4 secs

     total energy              =   -1695.13149938 Ry
     Harris-Foulkes estimate   =   -1695.13149937 Ry
     estimated scf accuracy    <       0.00000014 Ry

     iteration # 90     ecut=    40.00 Ry     beta=0.70
     Davidson diagonalization with overlap
     ethr =  3.15E-11,  avg # of iterations =  1.0

     negative rho (up, down):  0.354E-02 0.000E+00

     total cpu time spent up to now is    90564.2 secs

     total energy              =   -1695.13149937 Ry
     Harris-Foulkes estimate   =   -1695.13149940 Ry
     estimated scf accuracy    <       0.00000023 Ry

     iteration # 91     ecut=    40.00 Ry     beta=0.70
     Davidson diagonalization with overlap
     ethr =  3.15E-11,  avg # of iterations =  2.0

     negative rho (up, down):  0.354E-02 0.000E+00

     total cpu time spent up to now is    90741.8 secs

     total energy              =   -1695.13149932 Ry
     Harris-Foulkes estimate   =   -1695.13149948 Ry
     estimated scf accuracy    <       0.00000107 Ry

     iteration # 92     ecut=    40.00 Ry     beta=0.70
     Davidson diagonalization with overlap
     ethr =  3.15E-11,  avg # of iterations =  2.0

     negative rho (up, down):  0.354E-02 0.000E+00

     total cpu time spent up to now is    90927.4 secs

     total energy              =   -1695.13149929 Ry
     Harris-Foulkes estimate   =   -1695.13149941 Ry
     estimated scf accuracy    <       0.00000014 Ry

     iteration # 93     ecut=    40.00 Ry     beta=0.70
     Davidson diagonalization with overlap
     ethr =  3.15E-11,  avg # of iterations =  1.9

     negative rho (up, down):  0.354E-02 0.000E+00

     total cpu time spent up to now is    91105.7 secs

     total energy              =   -1695.13149927 Ry
     Harris-Foulkes estimate   =   -1695.13149939 Ry
     estimated scf accuracy    <       0.00000076 Ry

     iteration # 94     ecut=    40.00 Ry     beta=0.70
     Davidson diagonalization with overlap
     ethr =  3.15E-11,  avg # of iterations =  1.9

     negative rho (up, down):  0.354E-02 0.000E+00

     total cpu time spent up to now is    91279.6 secs

     total energy              =   -1695.13149926 Ry
     Harris-Foulkes estimate   =   -1695.13149934 Ry
     estimated scf accuracy    <       0.00000018 Ry

     iteration # 95     ecut=    40.00 Ry     beta=0.70
     Davidson diagonalization with overlap
     ethr =  3.15E-11,  avg # of iterations =  1.0

     negative rho (up, down):  0.354E-02 0.000E+00

     total cpu time spent up to now is    91451.9 secs

     total energy              =   -1695.13149770 Ry
     Harris-Foulkes estimate   =   -1695.13149929 Ry
     estimated scf accuracy    <       0.00000018 Ry

     iteration # 96     ecut=    40.00 Ry     beta=0.70
     Davidson diagonalization with overlap
     ethr =  3.15E-11,  avg # of iterations =  2.7

     negative rho (up, down):  0.354E-02 0.000E+00

     total cpu time spent up to now is    91641.9 secs

     total energy              =   -1695.13149779 Ry
     Harris-Foulkes estimate   =   -1695.13149900 Ry
     estimated scf accuracy    <       0.00000017 Ry

     iteration # 97     ecut=    40.00 Ry     beta=0.70
     Davidson diagonalization with overlap
     ethr =  3.15E-11,  avg # of iterations =  2.1

     negative rho (up, down):  0.354E-02 0.000E+00

     total cpu time spent up to now is    91827.7 secs

     total energy              =   -1695.13149883 Ry
     Harris-Foulkes estimate   =   -1695.13149884 Ry
     estimated scf accuracy    <       0.00000005 Ry

     iteration # 98     ecut=    40.00 Ry     beta=0.70
     Davidson diagonalization with overlap
     ethr =  2.08E-11,  avg # of iterations =  1.0

     negative rho (up, down):  0.354E-02 0.000E+00

     total cpu time spent up to now is    92003.2 secs

     total energy              =   -1695.13149884 Ry
     Harris-Foulkes estimate   =   -1695.13149884 Ry
     estimated scf accuracy    <       0.00000005 Ry

     iteration # 99     ecut=    40.00 Ry     beta=0.70
     Davidson diagonalization with overlap
     ethr =  2.08E-11,  avg # of iterations =  1.0

     negative rho (up, down):  0.354E-02 0.000E+00

     total cpu time spent up to now is    92178.8 secs

     total energy              =   -1695.13149882 Ry
     Harris-Foulkes estimate   =   -1695.13149886 Ry
     estimated scf accuracy    <       0.00000003 Ry

     iteration #100     ecut=    40.00 Ry     beta=0.70
     Davidson diagonalization with overlap
     ethr =  1.55E-11,  avg # of iterations =  2.0

     negative rho (up, down):  0.354E-02 0.000E+00

     total cpu time spent up to now is    92356.1 secs

     total energy              =   -1695.13149884 Ry
     Harris-Foulkes estimate   =   -1695.13149889 Ry
     estimated scf accuracy    <       0.00000007 Ry

     End of self-consistent calculation

     convergence NOT achieved after 100 iterations: stopping

     init_run     :     94.28s CPU     96.50s WALL (       1 calls)
     electrons    :  83587.61s CPU  90173.88s WALL (      11 calls)
     update_pot   :    185.05s CPU    189.18s WALL (      10 calls)
     forces       :   1251.87s CPU   1344.41s WALL (      10 calls)

     Called by init_run:
     wfcinit      :     33.43s CPU     33.95s WALL (       1 calls)
     potinit      :      7.13s CPU      7.50s WALL (       1 calls)

     Called by electrons:
     c_bands      :  41028.46s CPU  42088.48s WALL (     491 calls)
     sum_band     :  16912.25s CPU  17900.81s WALL (     491 calls)
     v_of_rho     :    473.83s CPU    499.43s WALL (     498 calls)
     newd         :  21105.18s CPU  21200.66s WALL (     498 calls)
     mix_rho      :    104.41s CPU    106.10s WALL (     491 calls)

     Called by c_bands:
     init_us_2    :    122.00s CPU    122.82s WALL (    3042 calls)
     cegterg      :  40435.75s CPU  41310.33s WALL (    1473 calls)

     Called by *egterg:
     h_psi        :  25103.15s CPU  25571.88s WALL (    3672 calls)
     s_psi        :   2272.42s CPU   2301.81s WALL (    3735 calls)
     g_psi        :     50.70s CPU     50.77s WALL (    2196 calls)
     cdiaghg      :   2760.57s CPU   2768.51s WALL (    3627 calls)

     Called by h_psi:
     add_vuspsi   :   2262.39s CPU   2294.45s WALL (    3672 calls)
     vhpsi        :   2682.46s CPU   2700.29s WALL (    3672 calls)

     General routines
     calbec       :   5194.64s CPU   5238.94s WALL (   18513 calls)
     fft          :    566.59s CPU    668.04s WALL (    8062 calls)
     ffts         :      8.72s CPU      8.92s WALL (     989 calls)
     fftw         :  14197.59s CPU  14694.48s WALL ( 2526976 calls)
     interpolate  :     73.48s CPU     74.64s WALL (     989 calls)
     davcio       :      0.22s CPU     64.28s WALL (    3078 calls)

     Parallel routines
     fft_scatter  :   5125.41s CPU   5699.98s WALL ( 2536027 calls)
     Hubbard U routines
     new_ns       :    565.56s CPU    615.05s WALL (     491 calls)
     vhpsi        :   2682.46s CPU   2700.29s WALL (    3672 calls)
     force_hub    :    330.38s CPU    336.40s WALL (      10 calls)

     PWSCF        :     0d   23h47m CPU        1d    1h39m WALL


   This run was terminated on:  21: 0:41   6May2014            

=------------------------------------------------------------------------------=
   JOB DONE.
=------------------------------------------------------------------------------=
STOP 1
STOP 1
STOP 1
STOP 1
STOP 1
STOP 1
STOP 1
STOP 1
STOP 1
STOP 1
STOP 1
STOP 1
STOP 1
STOP 1
STOP 1
STOP 1
--------------------------------------------------------------------------
mpirun noticed that the job aborted, but has no info as to the process
that caused that situation.
--------------------------------------------------------------------------
---------------------------------------
Running PBS batch system epilogue script
Job id: 340755.audhumbla.fysik.dtu.dk
Username: zhonxu
Groupname: campgst
Jobname: MoO2/Eads-2-layers/bare-U-7.5
Sessionid: 29035
Resources limits: neednodes=2:ppn=8:xeon8,nodes=2:ppn=8:xeon8,walltime=48:00:00
Resources used: cput=410:06:50,mem=16309652kb,vmem=20060900kb,walltime=25:39:41
Queuename: verylong
Accounting:
This job has allocated the following 16 nodes:
a112 a112 a112 a112 a112 a112 a112 a112 a005 a005 a005 a005 a005 a005 a005 a005
Finished epilogue job 340755.audhumbla.fysik.dtu.dk for zhonxu
