
     Program PWSCF v.5.0.2 (svn rev. 9656) starts on 15Oct2014 at 13:11:46 

     This program is part of the open-source Quantum ESPRESSO suite
     for quantum simulation of materials; please cite
         "P. Giannozzi et al., J. Phys.:Condens. Matter 21 395502 (2009);
          URL http://www.quantum-espresso.org", 
     in publications or presentations arising from this work. More details at
     http://www.quantum-espresso.org/quote.php

     Parallel version (MPI), running on    16 processors
     K-points division:     npool     =       4
     R & G space division:  proc/nbgrp/npool/nimage =       4

     Current dimensions of program PWSCF are:
     Max number of different atomic species (ntypx) = 10
     Max number of k-points (npk) =  40000
     Max angular momentum in pseudopotentials (lmaxx) =  3
     Reading input from pwscf.in
Warning: card &CELL ignored
Warning: card / ignored

     Subspace diagonalization in iterative solution of the eigenvalue problem:
     a serial algorithm will be used

 
     Parallelization info
     --------------------
     sticks:   dense  smooth     PW     G-vecs:    dense   smooth      PW
     Min        1386     442    124               330660    59845    8892
     Max        1388     443    125               330662    59871    8899
     Sum        5547    1771    497              1322643   239441   35575
 


     bravais-lattice index     =            0
     lattice parameter (alat)  =      11.2250  a.u.
     unit-cell volume          =    7005.5484 (a.u.)^3
     number of atoms/cell      =           33
     number of atomic types    =            3
     number of electrons       =       221.00
     number of Kohn-Sham states=          319
     kinetic-energy cutoff     =      40.0000  Ry
     charge density cutoff     =     500.0000  Ry
     convergence threshold     =      1.0E-06
     mixing beta               =       0.7000
     number of iterations used =            8  plain     mixing
     Exchange-correlation      = SLA  PW   PBE  PBE ( 1 4 3 4 0)
     EXX-fraction              =        0.00
     nstep                     =           50


     celldm(1)=  11.224973  celldm(2)=   0.000000  celldm(3)=   0.000000
     celldm(4)=   0.000000  celldm(5)=   0.000000  celldm(6)=   0.000000

     crystal axes: (cart. coord. in units of alat)
               a(1) = (   1.000000   0.000000   0.000000 )  
               a(2) = (   0.000000   1.107086   0.000000 )  
               a(3) = (   0.000000   0.000000   4.474090 )  

     reciprocal axes: (cart. coord. in units 2 pi/alat)
               b(1) = (  1.000000  0.000000  0.000000 )  
               b(2) = (  0.000000  0.903272  0.000000 )  
               b(3) = (  0.000000  0.000000  0.223509 )  


     PseudoPot. # 1 for O  read from file:
     /home-research/zhongnanxu/pseudopotentials/gbrv_espresso_pseudo_v1.01/o_pbe_v1.01.uspp.F.UPF
     MD5 check sum: 2bcb18d16ea4b960afae9ec6d52f22d2
     Pseudo is Ultrasoft + core correction, Zval =  6.0
     Generated by new atomic code, or converted to UPF format
     Using radial grid of  737 points,  5 beta functions with: 
                l(1) =   0
                l(2) =   0
                l(3) =   1
                l(4) =   1
                l(5) =   2
     Q(r) pseudized with  8 coefficients,  rinner =    0.900   0.900   0.900
                                                       0.900   0.900

     PseudoPot. # 2 for Ti read from file:
     /home-research/zhongnanxu/pseudopotentials/gbrv_espresso_pseudo_v1.01/ti_pbe_v1.uspp.F.UPF
     MD5 check sum: bcc8f6961b3b91f0cac3ca967d22d0fb
     Pseudo is Ultrasoft + core correction, Zval = 12.0
     Generated by new atomic code, or converted to UPF format
     Using radial grid of  851 points,  6 beta functions with: 
                l(1) =   0
                l(2) =   0
                l(3) =   1
                l(4) =   1
                l(5) =   2
                l(6) =   2
     Q(r) pseudized with  6 coefficients,  rinner =    1.000   1.000   1.000
                                                       1.000   1.000

     PseudoPot. # 3 for H  read from file:
     /home-research/zhongnanxu/pseudopotentials/gbrv_espresso_pseudo_v1.01/h_pbe_v1.uspp.F.UPF
     MD5 check sum: 3408e3ff4ec8b0a4e358431e7e038a48
     Pseudo is Ultrasoft, Zval =  1.0
     Generated by new atomic code, or converted to UPF format
     Using radial grid of  615 points,  2 beta functions with: 
                l(1) =   0
                l(2) =   0
     Q(r) pseudized with  8 coefficients,  rinner =    0.700

     atomic species   valence    mass     pseudopotential
        O0             6.00    15.99940     O ( 1.00)
        Ti1           12.00    47.88000     Ti( 1.00)
        H2             1.00     1.00794     H ( 1.00)


     Simplified LDA+U calculation (l_max = 2) with parameters (eV):
     atomic species    L          U    alpha       J0     beta
        Ti1            2     6.5000   0.0000   0.0000   0.0000



     No symmetry found



   Cartesian axes

     site n.     atom                  positions (alat units)
         1           O0  tau(   1) = (   0.0000000   0.0000000   1.6839579  )
         2           O0  tau(   2) = (   0.0000000   0.5535432   1.7822984  )
         3           Ti1 tau(   3) = (   0.2500000   0.5535432   2.0167854  )
         4           Ti1 tau(   4) = (   0.0000000   0.0000000   2.0157564  )
         5           O0  tau(   5) = (   0.2500000   0.8967400   2.0110586  )
         6           O0  tau(   6) = (   0.2500000   0.2103464   2.0159354  )
         7           O0  tau(   7) = (   0.0000000   0.5535432   2.2298416  )
         8           O0  tau(   8) = (   0.0000000   0.0000000   2.3559214  )
         9           Ti1 tau(   9) = (   0.2500000   0.0000000   2.5994014  )
        10           Ti1 tau(  10) = (   0.0000000   0.5535432   2.5501417  )
        11           O0  tau(  11) = (   0.2500000   0.7638896   2.5901400  )
        12           O0  tau(  12) = (   0.2500000   0.3431968   2.5973433  )
        13           O0  tau(  13) = (   0.0000000   0.0000000   2.7921004  )
        14           O0  tau(  14) = (   0.5000000   0.0000000   1.6878504  )
        15           O0  tau(  15) = (   0.5000000   0.5535432   1.7824326  )
        16           Ti1 tau(  16) = (   0.7500000   0.5535432   2.0168302  )
        17           Ti1 tau(  17) = (   0.5000000   0.0000000   2.0241229  )
        18           O0  tau(  18) = (   0.7500000   0.8967400   2.0108796  )
        19           O0  tau(  19) = (   0.7500000   0.2103464   2.0163380  )
        20           O0  tau(  20) = (   0.5000000   0.5535432   2.2277835  )
        21           O0  tau(  21) = (   0.5000000   0.0000000   2.3568163  )
        22           Ti1 tau(  22) = (   0.7500000   0.0000000   2.5994461  )
        23           Ti1 tau(  23) = (   0.5000000   0.5535432   2.6028464  )
        24           O0  tau(  24) = (   0.7500000   0.7638896   2.5900953  )
        25           O0  tau(  25) = (   0.7500000   0.3431968   2.5972986  )
        26           O0  tau(  26) = (   0.5000000   0.0000000   2.7896844  )
        27           H2  tau(  27) = (  -0.0002200   0.6966784   1.6959037  )
        28           H2  tau(  28) = (   0.4998100   0.6979626   1.6980065  )
        29           H2  tau(  29) = (   0.1517400   0.0340540   1.6246762  )
        30           H2  tau(  30) = (   0.6507100   0.0357700   1.6273159  )
        31           O0  tau(  31) = (   0.5003100   0.5957342   2.9447116  )
        32           O0  tau(  32) = (   0.4991200   0.3951413   3.0700309  )
        33           H2  tau(  33) = (   0.5003600   0.4565514   3.2249239  )

     number of k points=    10  Methfessel-Paxton smearing, width (Ry)=  0.0100
                       cart. coord. in units 2pi/alat
        k(    1) = (   0.0000000   0.0000000   0.0000000), wk =   0.1250000
        k(    2) = (   0.0000000   0.2258180   0.0000000), wk =   0.2500000
        k(    3) = (   0.0000000  -0.4516359   0.0000000), wk =   0.1250000
        k(    4) = (   0.2500000   0.0000000   0.0000000), wk =   0.2500000
        k(    5) = (   0.2500000   0.2258180   0.0000000), wk =   0.2500000
        k(    6) = (   0.2500000  -0.4516359   0.0000000), wk =   0.2500000
        k(    7) = (  -0.5000000   0.0000000   0.0000000), wk =   0.1250000
        k(    8) = (  -0.5000000   0.2258180   0.0000000), wk =   0.2500000
        k(    9) = (  -0.5000000  -0.4516359   0.0000000), wk =   0.1250000
        k(   10) = (  -0.2500000   0.2258180   0.0000000), wk =   0.2500000

     Dense  grid:  1322643 G-vectors     FFT dimensions: (  80,  90, 360)

     Smooth grid:   239441 G-vectors     FFT dimensions: (  45,  54, 216)

     Largest allocated arrays     est. size (Mb)     dimensions
        Kohn-Sham Wavefunctions        36.83 Mb     (   7566,  319)
        Atomic wavefunctions           19.05 Mb     (   7566,  165)
        NL pseudopotentials            47.80 Mb     (   7566,  414)
        Each V/rho on FFT grid          9.89 Mb     ( 648000)
        Each G-vector array             2.52 Mb     ( 330661)
        G-vector shells                 1.08 Mb     ( 141764)
     Largest temporary arrays     est. size (Mb)     dimensions
        Auxiliary wavefunctions       147.31 Mb     (   7566, 1276)
        Each subspace H/S matrix       24.84 Mb     (1276,1276)
        Each <psi_i|beta_j> matrix      2.02 Mb     (    414,  319)
        Arrays for rho mixing          79.10 Mb     ( 648000,   8)

     Check: negative/imaginary core charge=   -0.000006    0.000000

     Initial potential from superposition of free atoms
     Check: negative starting charge=   -0.102179

     starting charge  212.99957, renormalised to  221.00000

     negative rho (up, down):  0.106E+00 0.000E+00
     Number of +U iterations with fixed ns =  0
     Starting occupations:
 --- enter write_ns ---
 LDA+U parameters:
U( 2)     =  6.50000000
alpha( 2) =  0.00000000
atom    3   Tr[ns(na)] =   2.00000
    eigenvalues: 
  0.200  0.200  0.200  0.200  0.200
    eigenvectors:
  1.000  0.000  0.000  0.000  0.000
  0.000  1.000  0.000  0.000  0.000
  0.000  0.000  1.000  0.000  0.000
  0.000  0.000  0.000  1.000  0.000
  0.000  0.000  0.000  0.000  1.000
    occupations:
  0.200  0.000  0.000  0.000  0.000
  0.000  0.200  0.000  0.000  0.000
  0.000  0.000  0.200  0.000  0.000
  0.000  0.000  0.000  0.200  0.000
  0.000  0.000  0.000  0.000  0.200
atom    4   Tr[ns(na)] =   2.00000
    eigenvalues: 
  0.200  0.200  0.200  0.200  0.200
    eigenvectors:
  1.000  0.000  0.000  0.000  0.000
  0.000  1.000  0.000  0.000  0.000
  0.000  0.000  1.000  0.000  0.000
  0.000  0.000  0.000  1.000  0.000
  0.000  0.000  0.000  0.000  1.000
    occupations:
  0.200  0.000  0.000  0.000  0.000
  0.000  0.200  0.000  0.000  0.000
  0.000  0.000  0.200  0.000  0.000
  0.000  0.000  0.000  0.200  0.000
  0.000  0.000  0.000  0.000  0.200
atom    9   Tr[ns(na)] =   2.00000
    eigenvalues: 
  0.200  0.200  0.200  0.200  0.200
    eigenvectors:
  1.000  0.000  0.000  0.000  0.000
  0.000  1.000  0.000  0.000  0.000
  0.000  0.000  1.000  0.000  0.000
  0.000  0.000  0.000  1.000  0.000
  0.000  0.000  0.000  0.000  1.000
    occupations:
  0.200  0.000  0.000  0.000  0.000
  0.000  0.200  0.000  0.000  0.000
  0.000  0.000  0.200  0.000  0.000
  0.000  0.000  0.000  0.200  0.000
  0.000  0.000  0.000  0.000  0.200
atom   10   Tr[ns(na)] =   2.00000
    eigenvalues: 
  0.200  0.200  0.200  0.200  0.200
    eigenvectors:
  1.000  0.000  0.000  0.000  0.000
  0.000  1.000  0.000  0.000  0.000
  0.000  0.000  1.000  0.000  0.000
  0.000  0.000  0.000  1.000  0.000
  0.000  0.000  0.000  0.000  1.000
    occupations:
  0.200  0.000  0.000  0.000  0.000
  0.000  0.200  0.000  0.000  0.000
  0.000  0.000  0.200  0.000  0.000
  0.000  0.000  0.000  0.200  0.000
  0.000  0.000  0.000  0.000  0.200
atom   16   Tr[ns(na)] =   2.00000
    eigenvalues: 
  0.200  0.200  0.200  0.200  0.200
    eigenvectors:
  1.000  0.000  0.000  0.000  0.000
  0.000  1.000  0.000  0.000  0.000
  0.000  0.000  1.000  0.000  0.000
  0.000  0.000  0.000  1.000  0.000
  0.000  0.000  0.000  0.000  1.000
    occupations:
  0.200  0.000  0.000  0.000  0.000
  0.000  0.200  0.000  0.000  0.000
  0.000  0.000  0.200  0.000  0.000
  0.000  0.000  0.000  0.200  0.000
  0.000  0.000  0.000  0.000  0.200
atom   17   Tr[ns(na)] =   2.00000
    eigenvalues: 
  0.200  0.200  0.200  0.200  0.200
    eigenvectors:
  1.000  0.000  0.000  0.000  0.000
  0.000  1.000  0.000  0.000  0.000
  0.000  0.000  1.000  0.000  0.000
  0.000  0.000  0.000  1.000  0.000
  0.000  0.000  0.000  0.000  1.000
    occupations:
  0.200  0.000  0.000  0.000  0.000
  0.000  0.200  0.000  0.000  0.000
  0.000  0.000  0.200  0.000  0.000
  0.000  0.000  0.000  0.200  0.000
  0.000  0.000  0.000  0.000  0.200
atom   22   Tr[ns(na)] =   2.00000
    eigenvalues: 
  0.200  0.200  0.200  0.200  0.200
    eigenvectors:
  1.000  0.000  0.000  0.000  0.000
  0.000  1.000  0.000  0.000  0.000
  0.000  0.000  1.000  0.000  0.000
  0.000  0.000  0.000  1.000  0.000
  0.000  0.000  0.000  0.000  1.000
    occupations:
  0.200  0.000  0.000  0.000  0.000
  0.000  0.200  0.000  0.000  0.000
  0.000  0.000  0.200  0.000  0.000
  0.000  0.000  0.000  0.200  0.000
  0.000  0.000  0.000  0.000  0.200
atom   23   Tr[ns(na)] =   2.00000
    eigenvalues: 
  0.200  0.200  0.200  0.200  0.200
    eigenvectors:
  1.000  0.000  0.000  0.000  0.000
  0.000  1.000  0.000  0.000  0.000
  0.000  0.000  1.000  0.000  0.000
  0.000  0.000  0.000  1.000  0.000
  0.000  0.000  0.000  0.000  1.000
    occupations:
  0.200  0.000  0.000  0.000  0.000
  0.000  0.200  0.000  0.000  0.000
  0.000  0.000  0.200  0.000  0.000
  0.000  0.000  0.000  0.200  0.000
  0.000  0.000  0.000  0.000  0.200
N of occupied +U levels =  16.0000000
 --- exit write_ns ---
 Atomic wfc used for LDA+U Projector are NOT orthogonalized
     Starting wfc are  165 randomized atomic wfcs

     total cpu time spent up to now is      130.7 secs

     per-process dynamical memory:   402.7 Mb

     Self-consistent Calculation

     iteration #  1     ecut=    40.00 Ry     beta=0.70
     Davidson diagonalization with overlap
     ethr =  1.00E-02,  avg # of iterations =  6.0
 --- enter write_ns ---
 LDA+U parameters:
U( 2)     =  6.50000000
alpha( 2) =  0.00000000
atom    3   Tr[ns(na)] =   1.61280
    eigenvalues: 
  0.082  0.094  0.108  0.246  0.276
    eigenvectors:
  0.077  0.010  0.755  0.158  0.001
  0.000  0.002  0.000  0.006  0.992
  0.882  0.014  0.103  0.000  0.000
  0.019  0.002  0.138  0.836  0.005
  0.022  0.972  0.005  0.000  0.002
    occupations:
  0.128  0.000 -0.006  0.052  0.000
  0.000  0.276  0.000 -0.003  0.008
 -0.006  0.000  0.085  0.006 -0.002
  0.052 -0.003  0.006  0.224  0.000
  0.000  0.008 -0.002  0.000  0.094
atom    4   Tr[ns(na)] =   1.90152
    eigenvalues: 
  0.103  0.119  0.141  0.281  0.307
    eigenvectors:
  0.014  0.004  0.000  0.000  0.982
  0.015  0.870  0.109  0.000  0.005
  0.002  0.107  0.891  0.000  0.000
  0.969  0.019  0.000  0.000  0.012
  0.000  0.000  0.000  1.000  0.000
    occupations:
  0.303  0.014  0.004 -0.022  0.000
  0.014  0.122 -0.007  0.000 -0.002
  0.004 -0.007  0.139  0.000  0.000
 -0.022  0.000  0.000  0.105  0.000
  0.000 -0.002  0.000  0.000  0.281
atom    9   Tr[ns(na)] =   1.88969
    eigenvalues: 
  0.110  0.131  0.138  0.268  0.298
    eigenvectors:
  0.000  0.003  0.924  0.073  0.000
  0.000  0.000  0.000  0.005  0.995
  0.998  0.001  0.000  0.000  0.000
  0.000  0.000  0.073  0.922  0.005
  0.001  0.995  0.003  0.000  0.000
    occupations:
  0.148  0.000  0.001  0.034  0.000
  0.000  0.297  0.000 -0.002  0.000
  0.001  0.000  0.110  0.002  0.001
  0.034 -0.002  0.002  0.258  0.000
  0.000  0.000  0.001  0.000  0.131
atom   10   Tr[ns(na)] =   2.19594
    eigenvalues: 
  0.090  0.142  0.200  0.279  0.387
    eigenvectors:
  0.000  0.000  0.999  0.000  0.001
  0.000  1.000  0.000  0.000  0.000
  1.000  0.000  0.000  0.000  0.000
  0.000  0.000  0.001  0.000  0.999
  0.000  0.000  0.000  1.000  0.000
    occupations:
  0.200  0.000  0.000  0.006  0.000
  0.000  0.143  0.000  0.000  0.002
  0.000  0.000  0.090  0.003  0.000
  0.006  0.000  0.003  0.387  0.000
  0.000  0.002  0.000  0.000  0.279
atom   16   Tr[ns(na)] =   1.61295
    eigenvalues: 
  0.082  0.094  0.108  0.246  0.276
    eigenvectors:
  0.077  0.010  0.754  0.158  0.001
  0.000  0.002  0.000  0.006  0.992
  0.882  0.014  0.104  0.000  0.000
  0.019  0.002  0.138  0.836  0.005
  0.022  0.972  0.004  0.000  0.002
    occupations:
  0.128  0.000 -0.006  0.052  0.000
  0.000  0.276  0.000  0.003  0.008
 -0.006  0.000  0.085  0.006  0.002
  0.052  0.003  0.006  0.224  0.000
  0.000  0.008  0.002  0.000  0.094
atom   17   Tr[ns(na)] =   1.89619
    eigenvalues: 
  0.103  0.119  0.139  0.281  0.307
    eigenvectors:
  0.014  0.004  0.000  0.000  0.983
  0.012  0.852  0.131  0.000  0.005
  0.002  0.129  0.869  0.000  0.000
  0.973  0.015  0.000  0.000  0.012
  0.000  0.000  0.000  1.000  0.000
    occupations:
  0.304  0.013  0.004 -0.022  0.000
  0.013  0.122 -0.007  0.000 -0.002
  0.004 -0.007  0.136  0.000  0.000
 -0.022  0.000  0.000  0.105  0.000
  0.000 -0.002  0.000  0.000  0.281
atom   22   Tr[ns(na)] =   1.88991
    eigenvalues: 
  0.110  0.131  0.138  0.268  0.298
    eigenvectors:
  0.000  0.003  0.924  0.073  0.000
  0.000  0.000  0.000  0.005  0.995
  0.998  0.001  0.000  0.000  0.000
  0.000  0.000  0.073  0.922  0.004
  0.001  0.995  0.003  0.000  0.000
    occupations:
  0.148  0.000  0.001  0.034  0.000
  0.000  0.297  0.000  0.002  0.000
  0.001  0.000  0.110  0.002 -0.001
  0.034  0.002  0.002  0.258  0.000
  0.000  0.000 -0.001  0.000  0.131
atom   23   Tr[ns(na)] =   1.96428
    eigenvalues: 
  0.085  0.125  0.171  0.278  0.323
    eigenvectors:
  0.000  0.000  0.000  0.000  1.000
  0.000  1.000  0.000  0.000  0.000
  1.000  0.000  0.000  0.000  0.000
  0.000  0.000  1.000  0.000  0.000
  0.000  0.000  0.000  1.000  0.000
    occupations:
  0.323  0.000  0.000  0.002  0.000
  0.000  0.125  0.000  0.000  0.001
  0.000  0.000  0.085  0.000  0.000
  0.002  0.000  0.000  0.171  0.000
  0.000  0.001  0.000  0.000  0.278
N of occupied +U levels =  14.9632837
 --- exit write_ns ---

     negative rho (up, down):  0.122E+00 0.000E+00

     total cpu time spent up to now is      604.9 secs

     total energy              =   -1590.54037467 Ry
     Harris-Foulkes estimate   =   -1599.02838711 Ry
     estimated scf accuracy    <      10.54285050 Ry

     iteration #  2     ecut=    40.00 Ry     beta=0.70
     Davidson diagonalization with overlap
     ethr =  4.77E-03,  avg # of iterations =  4.7

     negative rho (up, down):  0.110E+00 0.000E+00

     total cpu time spent up to now is      927.0 secs

     total energy              =   -1560.29765515 Ry
     Harris-Foulkes estimate   =   -1614.80216290 Ry
     estimated scf accuracy    <     333.58934950 Ry

     iteration #  3     ecut=    40.00 Ry     beta=0.70
     Davidson diagonalization with overlap
     ethr =  4.77E-03,  avg # of iterations =  4.1

     negative rho (up, down):  0.100E+00 0.000E+00

     total cpu time spent up to now is     1276.0 secs

     total energy              =   -1582.73417613 Ry
     Harris-Foulkes estimate   =   -1606.94917360 Ry
     estimated scf accuracy    <     323.35036506 Ry

     iteration #  4     ecut=    40.00 Ry     beta=0.70
     Davidson diagonalization with overlap
     ethr =  4.77E-03,  avg # of iterations =  3.1

     negative rho (up, down):  0.100E+00 0.000E+00

     total cpu time spent up to now is     1523.5 secs

     total energy              =   -1590.88753709 Ry
     Harris-Foulkes estimate   =   -1600.38503796 Ry
     estimated scf accuracy    <     176.12320191 Ry

     iteration #  5     ecut=    40.00 Ry     beta=0.70
     Davidson diagonalization with overlap
     ethr =  4.77E-03,  avg # of iterations =  2.9

     negative rho (up, down):  0.977E-01 0.000E+00

     total cpu time spent up to now is     1756.4 secs

     total energy              =   -1596.96803773 Ry
     Harris-Foulkes estimate   =   -1597.68672407 Ry
     estimated scf accuracy    <       2.82947801 Ry

     iteration #  6     ecut=    40.00 Ry     beta=0.70
     Davidson diagonalization with overlap
     ethr =  1.28E-03,  avg # of iterations =  3.2

     negative rho (up, down):  0.986E-01 0.000E+00

     total cpu time spent up to now is     1985.9 secs

     total energy              =   -1596.96901190 Ry
     Harris-Foulkes estimate   =   -1597.17335409 Ry
     estimated scf accuracy    <       1.47160647 Ry

     iteration #  7     ecut=    40.00 Ry     beta=0.70
     Davidson diagonalization with overlap
     ethr =  6.66E-04,  avg # of iterations =  4.3

     negative rho (up, down):  0.101E+00 0.000E+00

     total cpu time spent up to now is     2230.6 secs

     total energy              =   -1596.91402375 Ry
     Harris-Foulkes estimate   =   -1597.03556687 Ry
     estimated scf accuracy    <       0.96695942 Ry

     iteration #  8     ecut=    40.00 Ry     beta=0.70
     Davidson diagonalization with overlap
     ethr =  4.38E-04,  avg # of iterations =  2.3

     negative rho (up, down):  0.103E+00 0.000E+00

     total cpu time spent up to now is     2443.4 secs

     total energy              =   -1596.83727173 Ry
     Harris-Foulkes estimate   =   -1596.96740702 Ry
     estimated scf accuracy    <       0.82765290 Ry

     iteration #  9     ecut=    40.00 Ry     beta=0.70
     Davidson diagonalization with overlap
     ethr =  3.75E-04,  avg # of iterations =  4.8

     negative rho (up, down):  0.103E+00 0.000E+00

     total cpu time spent up to now is     2694.4 secs

     total energy              =   -1596.85292906 Ry
     Harris-Foulkes estimate   =   -1596.90027753 Ry
     estimated scf accuracy    <       1.27161591 Ry

     iteration # 10     ecut=    40.00 Ry     beta=0.70
     Davidson diagonalization with overlap
     ethr =  3.75E-04,  avg # of iterations =  1.0

     negative rho (up, down):  0.106E+00 0.000E+00

     total cpu time spent up to now is     2899.4 secs

     total energy              =   -1596.76234216 Ry
     Harris-Foulkes estimate   =   -1596.88000984 Ry
     estimated scf accuracy    <       1.24584293 Ry

     iteration # 11     ecut=    40.00 Ry     beta=0.70
     Davidson diagonalization with overlap
     ethr =  3.75E-04,  avg # of iterations =  4.2

     negative rho (up, down):  0.111E+00 0.000E+00

     total cpu time spent up to now is     3143.0 secs

     total energy              =   -1596.75875424 Ry
     Harris-Foulkes estimate   =   -1596.82296312 Ry
     estimated scf accuracy    <       0.35149221 Ry

     iteration # 12     ecut=    40.00 Ry     beta=0.70
     Davidson diagonalization with overlap
     ethr =  1.59E-04,  avg # of iterations =  6.3

     negative rho (up, down):  0.107E+00 0.000E+00

     total cpu time spent up to now is     3411.9 secs

     total energy              =   -1596.71207240 Ry
     Harris-Foulkes estimate   =   -1596.79427626 Ry
     estimated scf accuracy    <       0.36611690 Ry

     iteration # 13     ecut=    40.00 Ry     beta=0.70
     Davidson diagonalization with overlap
     ethr =  1.59E-04,  avg # of iterations =  4.8

     negative rho (up, down):  0.106E+00 0.000E+00

     total cpu time spent up to now is     3650.8 secs

     total energy              =   -1596.63995718 Ry
     Harris-Foulkes estimate   =   -1596.82216840 Ry
     estimated scf accuracy    <       0.74674791 Ry

     iteration # 14     ecut=    40.00 Ry     beta=0.70
     Davidson diagonalization with overlap
     ethr =  1.59E-04,  avg # of iterations =  5.1

     negative rho (up, down):  0.107E+00 0.000E+00

     total cpu time spent up to now is     3907.5 secs

     total energy              =   -1596.62184240 Ry
     Harris-Foulkes estimate   =   -1596.88746895 Ry
     estimated scf accuracy    <       1.08713924 Ry

     iteration # 15     ecut=    40.00 Ry     beta=0.70
     Davidson diagonalization with overlap
     ethr =  1.59E-04,  avg # of iterations =  4.2

     negative rho (up, down):  0.107E+00 0.000E+00

     total cpu time spent up to now is     4147.3 secs

     total energy              =   -1596.73813022 Ry
     Harris-Foulkes estimate   =   -1596.77039346 Ry
     estimated scf accuracy    <       0.31224102 Ry

     iteration # 16     ecut=    40.00 Ry     beta=0.70
     Davidson diagonalization with overlap
     ethr =  1.41E-04,  avg # of iterations =  1.0

     negative rho (up, down):  0.107E+00 0.000E+00

     total cpu time spent up to now is     4351.3 secs

     total energy              =   -1596.74315865 Ry
     Harris-Foulkes estimate   =   -1596.74951763 Ry
     estimated scf accuracy    <       0.12715180 Ry

     iteration # 17     ecut=    40.00 Ry     beta=0.70
     Davidson diagonalization with overlap
     ethr =  5.75E-05,  avg # of iterations =  1.0

     negative rho (up, down):  0.107E+00 0.000E+00

     total cpu time spent up to now is     4554.3 secs

     total energy              =   -1596.74171062 Ry
     Harris-Foulkes estimate   =   -1596.74835530 Ry
     estimated scf accuracy    <       0.03920707 Ry

     iteration # 18     ecut=    40.00 Ry     beta=0.70
     Davidson diagonalization with overlap
     ethr =  1.77E-05,  avg # of iterations =  1.9

     negative rho (up, down):  0.107E+00 0.000E+00

     total cpu time spent up to now is     4772.1 secs

     total energy              =   -1596.74368393 Ry
     Harris-Foulkes estimate   =   -1596.74617349 Ry
     estimated scf accuracy    <       0.02384757 Ry

     iteration # 19     ecut=    40.00 Ry     beta=0.70
     Davidson diagonalization with overlap
     ethr =  1.08E-05,  avg # of iterations =  2.1

     negative rho (up, down):  0.108E+00 0.000E+00

     total cpu time spent up to now is     4980.8 secs

     total energy              =   -1596.73919861 Ry
     Harris-Foulkes estimate   =   -1596.74519136 Ry
     estimated scf accuracy    <       0.02604809 Ry

     iteration # 20     ecut=    40.00 Ry     beta=0.70
     Davidson diagonalization with overlap
     ethr =  1.08E-05,  avg # of iterations =  4.8

     negative rho (up, down):  0.108E+00 0.000E+00

     total cpu time spent up to now is     5220.5 secs

     total energy              =   -1596.72541057 Ry
     Harris-Foulkes estimate   =   -1596.77299572 Ry
     estimated scf accuracy    <       0.71474270 Ry

     iteration # 21     ecut=    40.00 Ry     beta=0.70
     Davidson diagonalization with overlap
     ethr =  1.08E-05,  avg # of iterations =  4.8

     negative rho (up, down):  0.108E+00 0.000E+00

     total cpu time spent up to now is     5459.1 secs

     total energy              =   -1596.74433625 Ry
     Harris-Foulkes estimate   =   -1596.74479854 Ry
     estimated scf accuracy    <       0.00455632 Ry

     iteration # 22     ecut=    40.00 Ry     beta=0.70
     Davidson diagonalization with overlap
     ethr =  2.06E-06,  avg # of iterations =  1.7

     negative rho (up, down):  0.108E+00 0.000E+00

     total cpu time spent up to now is     5668.2 secs

     total energy              =   -1596.74438565 Ry
     Harris-Foulkes estimate   =   -1596.74457406 Ry
     estimated scf accuracy    <       0.00140299 Ry

     iteration # 23     ecut=    40.00 Ry     beta=0.70
     Davidson diagonalization with overlap
     ethr =  6.35E-07,  avg # of iterations =  1.0

     negative rho (up, down):  0.108E+00 0.000E+00

     total cpu time spent up to now is     5871.8 secs

     total energy              =   -1596.74439331 Ry
     Harris-Foulkes estimate   =   -1596.74455405 Ry
     estimated scf accuracy    <       0.00119665 Ry

     iteration # 24     ecut=    40.00 Ry     beta=0.70
     Davidson diagonalization with overlap
     ethr =  5.41E-07,  avg # of iterations =  1.0

     negative rho (up, down):  0.108E+00 0.000E+00

     total cpu time spent up to now is     6075.2 secs

     total energy              =   -1596.74443526 Ry
     Harris-Foulkes estimate   =   -1596.74448944 Ry
     estimated scf accuracy    <       0.00096747 Ry

     iteration # 25     ecut=    40.00 Ry     beta=0.70
     Davidson diagonalization with overlap
     ethr =  4.38E-07,  avg # of iterations =  1.0

     negative rho (up, down):  0.108E+00 0.000E+00

     total cpu time spent up to now is     6279.0 secs

     total energy              =   -1596.74443607 Ry
     Harris-Foulkes estimate   =   -1596.74446992 Ry
     estimated scf accuracy    <       0.00022739 Ry

     iteration # 26     ecut=    40.00 Ry     beta=0.70
     Davidson diagonalization with overlap
     ethr =  1.03E-07,  avg # of iterations =  1.0

     negative rho (up, down):  0.108E+00 0.000E+00

     total cpu time spent up to now is     6482.8 secs

     total energy              =   -1596.74444584 Ry
     Harris-Foulkes estimate   =   -1596.74445667 Ry
     estimated scf accuracy    <       0.00008324 Ry

     iteration # 27     ecut=    40.00 Ry     beta=0.70
     Davidson diagonalization with overlap
     ethr =  3.77E-08,  avg # of iterations =  1.0

     negative rho (up, down):  0.108E+00 0.000E+00

     total cpu time spent up to now is     6687.0 secs

     total energy              =   -1596.74444697 Ry
     Harris-Foulkes estimate   =   -1596.74445635 Ry
     estimated scf accuracy    <       0.00003490 Ry

     iteration # 28     ecut=    40.00 Ry     beta=0.70
     Davidson diagonalization with overlap
     ethr =  1.58E-08,  avg # of iterations =  1.0

     negative rho (up, down):  0.108E+00 0.000E+00

     total cpu time spent up to now is     6893.2 secs

     total energy              =   -1596.74445122 Ry
     Harris-Foulkes estimate   =   -1596.74445198 Ry
     estimated scf accuracy    <       0.00001698 Ry

     iteration # 29     ecut=    40.00 Ry     beta=0.70
     Davidson diagonalization with overlap
     ethr =  7.68E-09,  avg # of iterations =  1.0

     negative rho (up, down):  0.108E+00 0.000E+00

     total cpu time spent up to now is     7100.1 secs

     total energy              =   -1596.74445092 Ry
     Harris-Foulkes estimate   =   -1596.74445194 Ry
     estimated scf accuracy    <       0.00000355 Ry

     iteration # 30     ecut=    40.00 Ry     beta=0.70
     Davidson diagonalization with overlap
     ethr =  1.61E-09,  avg # of iterations =  1.3

     negative rho (up, down):  0.108E+00 0.000E+00

     total cpu time spent up to now is     7310.3 secs

     total energy              =   -1596.74445119 Ry
     Harris-Foulkes estimate   =   -1596.74445190 Ry
     estimated scf accuracy    <       0.00001799 Ry

     iteration # 31     ecut=    40.00 Ry     beta=0.70
     Davidson diagonalization with overlap
     ethr =  1.61E-09,  avg # of iterations =  1.0

     negative rho (up, down):  0.108E+00 0.000E+00

     total cpu time spent up to now is     7517.4 secs

     total energy              =   -1596.74445152 Ry
     Harris-Foulkes estimate   =   -1596.74445164 Ry
     estimated scf accuracy    <       0.00000101 Ry

     iteration # 32     ecut=    40.00 Ry     beta=0.70
     Davidson diagonalization with overlap
     ethr =  4.58E-10,  avg # of iterations =  1.0

     negative rho (up, down):  0.108E+00 0.000E+00

     total cpu time spent up to now is     7726.0 secs

     End of self-consistent calculation
 --- enter write_ns ---
 LDA+U parameters:
U( 2)     =  6.50000000
alpha( 2) =  0.00000000
atom    3   Tr[ns(na)] =   2.56890
    eigenvalues: 
  0.125  0.139  0.155  0.420  0.444
    eigenvectors:
  0.713  0.049  0.045  0.160  0.032
  0.000  0.001  0.001  0.194  0.803
  0.103  0.219  0.678  0.000  0.000
  0.175  0.010  0.008  0.645  0.163
  0.008  0.721  0.269  0.000  0.002
    occupations:
  0.185  0.001 -0.004  0.117  0.001
  0.001  0.439  0.001 -0.011  0.014
 -0.004  0.001  0.149  0.008 -0.007
  0.117 -0.011  0.008  0.368 -0.001
  0.001  0.014 -0.007 -0.001  0.144
atom    4   Tr[ns(na)] =   2.68060
    eigenvalues: 
  0.127  0.155  0.171  0.436  0.452
    eigenvectors:
  0.007  0.002  0.000  0.000  0.990
  0.002  0.855  0.140  0.000  0.003
  0.001  0.139  0.860  0.000  0.000
  0.990  0.004  0.000  0.000  0.006
  0.000  0.000  0.000  1.000  0.000
    occupations:
  0.449  0.016  0.005 -0.026  0.000
  0.016  0.158 -0.005  0.000 -0.003
  0.005 -0.005  0.168  0.001  0.000
 -0.026  0.000  0.001  0.129  0.000
  0.000 -0.003  0.000  0.000  0.436
atom    9   Tr[ns(na)] =   2.67904
    eigenvalues: 
  0.130  0.174  0.186  0.384  0.465
    eigenvectors:
  0.000  0.001  0.906  0.093  0.000
  0.000  0.000  0.000  0.000  1.000
  0.999  0.001  0.000  0.000  0.000
  0.000  0.000  0.092  0.907  0.000
  0.001  0.998  0.001  0.000  0.000
    occupations:
  0.204  0.001  0.001  0.057  0.000
  0.001  0.465  0.000 -0.002  0.000
  0.001  0.000  0.130  0.002 -0.001
  0.057 -0.002  0.002  0.365  0.000
  0.000  0.000 -0.001  0.000  0.174
atom   10   Tr[ns(na)] =   2.61070
    eigenvalues: 
  0.137  0.172  0.194  0.330  0.473
    eigenvectors:
  0.020  0.000  0.000  0.980  0.000
  0.000  0.000  1.000  0.000  0.000
  0.001  0.999  0.000  0.000  0.000
  0.979  0.001  0.000  0.020  0.000
  0.000  0.000  0.000  0.000  1.000
    occupations:
  0.326  0.000 -0.001 -0.027  0.000
  0.000  0.194  0.000  0.000  0.004
 -0.001  0.000  0.172 -0.001  0.000
 -0.027  0.000 -0.001  0.141  0.000
  0.000  0.004  0.000  0.000  0.473
atom   16   Tr[ns(na)] =   2.56914
    eigenvalues: 
  0.125  0.140  0.155  0.420  0.444
    eigenvectors:
  0.717  0.046  0.045  0.160  0.032
  0.000  0.001  0.001  0.193  0.804
  0.099  0.217  0.683  0.000  0.000
  0.176  0.009  0.008  0.645  0.162
  0.007  0.727  0.263  0.000  0.002
    occupations:
  0.185 -0.001 -0.004  0.117 -0.001
 -0.001  0.439 -0.001  0.011  0.014
 -0.004 -0.001  0.149  0.007  0.007
  0.117  0.011  0.007  0.368  0.000
 -0.001  0.014  0.007  0.000  0.144
atom   17   Tr[ns(na)] =   2.68075
    eigenvalues: 
  0.126  0.157  0.171  0.432  0.454
    eigenvectors:
  0.007  0.002  0.000  0.000  0.991
  0.001  0.868  0.129  0.000  0.002
  0.001  0.128  0.871  0.000  0.000
  0.991  0.002  0.000  0.000  0.006
  0.000  0.000  0.000  1.000  0.000
    occupations:
  0.452  0.014  0.005 -0.026  0.000
  0.014  0.160 -0.004  0.000 -0.003
  0.005 -0.004  0.169  0.001  0.000
 -0.026  0.000  0.001  0.128  0.000
  0.000 -0.003  0.000  0.000  0.432
atom   22   Tr[ns(na)] =   2.67914
    eigenvalues: 
  0.130  0.174  0.186  0.384  0.465
    eigenvectors:
  0.000  0.001  0.907  0.092  0.000
  0.000  0.000  0.000  0.000  1.000
  0.999  0.001  0.000  0.000  0.000
  0.000  0.000  0.092  0.907  0.000
  0.001  0.998  0.001  0.000  0.000
    occupations:
  0.204 -0.001  0.001  0.057  0.000
 -0.001  0.465  0.000  0.002  0.000
  0.001  0.000  0.130  0.002  0.001
  0.057  0.002  0.002  0.365  0.000
  0.000  0.000  0.001  0.000  0.174
atom   23   Tr[ns(na)] =   2.59475
    eigenvalues: 
  0.122  0.140  0.178  0.381  0.476
    eigenvectors:
  0.001  0.010  0.000  0.989  0.000
  0.000  0.000  1.000  0.000  0.000
  0.999  0.000  0.000  0.001  0.000
  0.000  0.990  0.000  0.010  0.000
  0.000  0.000  0.000  0.000  1.000
    occupations:
  0.378  0.000 -0.008 -0.024  0.000
  0.000  0.178  0.000  0.000  0.003
 -0.008  0.000  0.122  0.001  0.000
 -0.024  0.000  0.001  0.143  0.000
  0.000  0.003  0.000  0.000  0.476
N of occupied +U levels =  21.0630244
 --- exit write_ns ---

          k = 0.0000 0.0000 0.0000 ( 29975 PWs)   bands (ev):

   -61.2471 -61.2126 -60.9643 -60.7061 -59.9211 -59.8789 -59.4492 -59.4123
   -37.6862 -37.4381 -37.3782 -37.3263 -37.2993 -37.2939 -37.2819 -37.2107
   -37.0805 -36.8990 -36.8849 -36.7772 -36.4548 -36.2163 -36.1209 -36.0332
   -35.9578 -35.9202 -35.7817 -35.7584 -35.7313 -35.6343 -35.5497 -35.3690
   -24.8277 -21.3810 -21.0627 -20.2348 -19.8141 -19.8017 -19.2088 -19.1578
   -19.0314 -19.0177 -18.9654 -18.8673 -18.7073 -18.6981 -18.6030 -18.2330
   -17.8429 -17.6159 -17.3516 -17.3391  -9.5031  -8.9805  -8.6586  -7.8776
    -7.5629  -7.3727  -7.3689  -7.1580  -7.1120  -6.6368  -6.5916  -6.5286
    -6.4945  -6.4497  -6.4087  -6.2232  -6.1963  -6.1386  -6.1239  -5.9713
    -5.9382  -5.8125  -5.5613  -5.4863  -5.2044  -5.1525  -5.0758  -5.0464
    -4.9760  -4.9006  -4.6503  -4.5225  -4.5168  -4.4295  -4.3578  -4.3465
    -4.0973  -4.0894  -3.9789  -3.8847  -3.8198  -3.7425  -3.6211  -3.5408
    -3.5305  -3.3694  -3.2440  -3.1538  -2.8393  -2.7659  -2.7326  -2.5467
    -2.3975  -2.3436  -2.2894  -2.2428  -2.1887  -2.0782  -2.0146   0.0999
     0.4204   0.5247   0.5683   0.6525   0.7108   0.7384   1.0141   1.0437
     1.1157   1.1881   1.4252   1.4991   1.6263   1.6970   1.6992   1.8741
     1.9807   2.0784   2.0907   2.1159   2.2413   2.3112   2.3406   2.3584
     2.4552   2.4955   2.5339   2.5915   2.8066   2.9372   2.9906   3.2107
     3.2547   3.4010   3.4152   3.6133   3.6554   3.6960   3.7873   4.0906
     4.1427   4.2972   4.3316   4.6385   4.7750   5.3181   5.7293   6.1079
     6.2919   6.4464   6.7095   6.7877   6.9897   7.1120   7.2130   7.2554
     7.3015   7.3088   7.5035   7.7414   7.8205   7.9458   7.9599   8.1665
     8.2715   8.3045   8.3908   8.5273   8.5725   8.6285   8.7622   8.8780
     9.0214   9.1162   9.1296   9.2627   9.3851   9.4765   9.5116   9.5879
     9.7981   9.8684  10.0521  10.0861  10.2508  10.2872  10.4151  10.4281
    10.6588  10.7294  10.7661  10.8669  10.9771  10.9811  11.1225  11.1317
    11.1845  11.2631  11.3450  11.3861  11.3998  11.4688  11.5221  11.6478
    11.6513  11.7396  11.7798  11.8784  11.8894  11.9293  12.0728  12.0990
    12.1452  12.2623  12.3246  12.3622  12.4321  12.5136  12.5602  12.6651
    12.6805  12.8255  12.8883  12.9592  13.0358  13.1988  13.2265  13.4071
    13.5327  13.5975  13.6319  13.6684  13.6988  13.7523  13.8856  13.9807
    14.1391  14.1485  14.2168  14.4035  14.4869  14.5508  14.5923  14.6483
    14.7337  14.8132  14.8945  15.0391  15.0816  15.1161  15.1789  15.3346
    15.4765  15.5803  15.6550  15.6769  15.7658  15.8201  15.8918  16.1537
    16.2290  16.2676  16.3481  16.3868  16.5487  16.6040  16.7666  16.7761
    16.8755  16.9670  17.0297  17.1035  17.2455  17.2895  17.3412  17.4173
    17.4901  17.6039  17.6054  17.6328  17.7271  17.8150  17.9561  18.0155
    18.0485  18.0982  18.2068  18.2474  18.2868  18.3721  18.4209  18.4511
    18.5771  18.5994  18.6977  18.7469  18.8306  18.9076  19.0615  19.0844
    19.1195  19.2140  19.3081  19.3225  19.4093  19.4197  19.5892

          k = 0.0000 0.2258 0.0000 ( 29933 PWs)   bands (ev):

   -61.2473 -61.2126 -60.9643 -60.7060 -59.9211 -59.8787 -59.4494 -59.4123
   -37.6864 -37.4381 -37.3782 -37.3245 -37.2993 -37.2952 -37.2818 -37.2114
   -37.0796 -36.8990 -36.8848 -36.7773 -36.4535 -36.2181 -36.1212 -36.0333
   -35.9578 -35.9202 -35.7817 -35.7599 -35.7304 -35.6343 -35.5497 -35.3690
   -24.8275 -21.3729 -21.0623 -20.2082 -19.7840 -19.7382 -19.2492 -19.2212
   -19.1410 -19.0152 -18.8666 -18.8477 -18.7788 -18.6878 -18.6687 -18.1782
   -17.8437 -17.6197 -17.3473 -17.3373  -9.4987  -8.9840  -8.6596  -7.8876
    -7.3496  -7.3099  -7.1536  -7.1179  -7.0402  -6.6434  -6.6182  -6.5834
    -6.5653  -6.4853  -6.3512  -6.2551  -6.1732  -6.1283  -6.0831  -5.9484
    -5.8400  -5.5944  -5.4574  -5.4058  -5.3595  -5.2279  -5.1135  -5.0830
    -4.9753  -4.8299  -4.7252  -4.6739  -4.5922  -4.4780  -4.4156  -4.3312
    -4.2357  -4.2245  -4.0629  -3.9178  -3.8519  -3.7211  -3.6957  -3.6262
    -3.5215  -3.4459  -3.2000  -3.1225  -2.8711  -2.8360  -2.7618  -2.7022
    -2.4833  -2.3600  -2.3325  -2.2699  -2.2204  -2.0910  -2.0385   0.1281
     0.4658   0.5717   0.6942   0.7252   0.7500   0.9012   0.9842   1.0925
     1.1447   1.2012   1.2740   1.5851   1.6386   1.7110   1.8017   1.8567
     1.8946   2.0298   2.0849   2.1315   2.1577   2.2375   2.3416   2.4430
     2.4608   2.5073   2.5351   2.6447   2.8725   2.9738   3.0141   3.1501
     3.3694   3.4510   3.5295   3.6848   3.7487   3.9057   3.9538   4.0562
     4.1581   4.3350   4.4513   4.6418   4.9641   5.1352   5.3908   5.5923
     5.7827   6.0602   6.3153   6.5600   6.5997   6.8947   7.2733   7.4177
     7.4372   7.5161   7.7239   7.8595   8.0851   8.1275   8.1858   8.1962
     8.3814   8.4724   8.6110   8.6897   8.7697   8.9462   8.9912   9.0566
     9.1332   9.1800   9.2642   9.3490   9.4437   9.4672   9.5986   9.6776
     9.7228   9.8349   9.8497   9.8875  10.0135  10.0900  10.2040  10.2879
    10.3420  10.3827  10.5104  10.7466  10.8366  10.9006  10.9192  11.0118
    11.0594  11.1644  11.1954  11.3043  11.3316  11.3927  11.4873  11.8087
    11.8747  11.8850  11.9863  12.0805  12.1026  12.1288  12.2423  12.3832
    12.4372  12.4788  12.5656  12.7375  12.7587  12.9299  13.0042  13.0523
    13.1177  13.2102  13.2390  13.3156  13.3391  13.4542  13.5099  13.5512
    13.7009  13.7644  13.7782  13.8754  13.9345  13.9761  14.0273  14.0563
    14.1196  14.1798  14.1925  14.2624  14.3225  14.4567  14.6017  14.6125
    14.6632  14.7360  14.8266  14.8668  14.9647  15.0015  15.1121  15.1738
    15.2258  15.2630  15.3669  15.4296  15.5235  15.6065  15.6935  15.7724
    15.9179  15.9586  16.0964  16.1765  16.2361  16.3230  16.4340  16.4569
    16.5576  16.7146  16.7556  16.8437  16.9632  17.0790  17.1062  17.1664
    17.2241  17.2914  17.4338  17.5057  17.5983  17.7337  17.8576  17.8904
    18.0065  18.0824  18.1652  18.2634  18.2917  18.3451  18.3848  18.4660
    18.4793  18.5154  18.6237  18.6716  18.7876  18.8615  18.8778  19.0269
    19.0626  19.1659  19.1875  19.2325  19.2805  19.3730  19.3832

          k = 0.0000-0.4516 0.0000 ( 29906 PWs)   bands (ev):

   -61.2475 -61.2125 -60.9643 -60.7060 -59.9212 -59.8785 -59.4496 -59.4123
   -37.6867 -37.4380 -37.3782 -37.3227 -37.2993 -37.2964 -37.2818 -37.2121
   -37.0787 -36.8989 -36.8846 -36.7773 -36.4522 -36.2199 -36.1215 -36.0333
   -35.9577 -35.9202 -35.7818 -35.7614 -35.7295 -35.6342 -35.5497 -35.3690
   -24.8274 -21.3650 -21.0618 -20.1823 -19.7458 -19.6554 -19.3085 -19.2290
   -19.2062 -19.0150 -19.0080 -18.8039 -18.7509 -18.7363 -18.6468 -18.1406
   -17.8445 -17.6234 -17.3442 -17.3345  -9.4942  -8.9854  -8.6606  -7.8982
    -7.3206  -7.1770  -7.1497  -6.8031  -6.7673  -6.6902  -6.6571  -6.6070
    -6.5714  -6.4759  -6.2680  -6.2415  -6.1179  -6.0983  -6.0883  -5.9635
    -5.6497  -5.5482  -5.4350  -5.4183  -5.3102  -5.2581  -5.1850  -5.0760
    -5.0423  -5.0199  -4.9748  -4.7462  -4.7167  -4.5938  -4.4107  -4.4055
    -4.3662  -4.2316  -4.1710  -3.9351  -3.8775  -3.8081  -3.7538  -3.6806
    -3.3972  -3.3172  -3.2234  -3.0566  -3.0053  -2.8744  -2.8583  -2.7663
    -2.5716  -2.3828  -2.3711  -2.2469  -2.2239  -2.1041  -2.0493   0.1365
     0.4050   0.4354   0.6716   0.8750   0.9230   0.9590   1.0107   1.1012
     1.1551   1.1648   1.5742   1.6168   1.6584   1.6742   1.6760   1.7061
     1.8345   2.0736   2.1598   2.1882   2.2905   2.2994   2.3765   2.3961
     2.5181   2.5321   2.6211   2.6766   2.8763   3.0289   3.0905   3.1066
     3.1209   3.2487   3.7627   3.8047   3.9238   3.9588   4.1342   4.3465
     4.3745   4.3871   4.5029   4.6270   4.6453   4.8735   5.0797   5.3920
     5.5135   5.8760   6.1095   6.5449   6.6974   6.8303   6.9161   7.0834
     7.6329   7.6477   7.7609   7.8833   7.9343   8.0709   8.2776   8.4224
     8.5612   8.7059   8.7072   8.8157   8.8561   8.8776   8.9283   9.0152
     9.0511   9.2493   9.2782   9.3430   9.3930   9.4621   9.4891   9.5707
     9.7305   9.8632   9.9764  10.0796  10.0932  10.1470  10.2677  10.4493
    10.5661  10.6667  10.7140  10.8416  10.8583  10.8875  11.0121  11.0977
    11.2816  11.3162  11.3396  11.4539  11.5137  11.5723  11.6325  11.6487
    11.7510  11.8476  11.8931  11.9631  12.0799  12.2171  12.2497  12.3169
    12.3264  12.4278  12.5648  12.8255  12.8490  12.8771  12.9006  12.9464
    13.0847  13.1756  13.1977  13.3053  13.3335  13.4458  13.5490  13.6199
    13.6336  13.6751  13.8049  13.8225  13.9649  14.1445  14.2206  14.2662
    14.2858  14.3240  14.4446  14.5327  14.7249  14.7740  14.8252  14.8331
    14.8583  14.9630  15.0677  15.1834  15.2493  15.2634  15.3453  15.3988
    15.4721  15.4847  15.5051  15.5415  15.5819  15.6297  15.6859  15.7167
    15.7486  15.8272  15.8347  16.0368  16.0943  16.1333  16.2199  16.3098
    16.3287  16.3364  16.3472  16.4712  16.6346  16.7339  16.7861  16.8204
    16.9748  17.0486  17.1201  17.2561  17.3240  17.4137  17.4673  17.5482
    17.6860  17.6976  17.7634  17.7993  17.8316  17.8973  17.9207  17.9654
    18.0310  18.1898  18.2863  18.4063  18.4804  18.5426  18.6388  18.7180
    18.7806  18.8051  18.8776  19.0067  19.0873  19.1046  19.1697

          k = 0.2500 0.0000 0.0000 ( 29937 PWs)   bands (ev):

   -61.2433 -61.2189 -60.9649 -60.7078 -59.9175 -59.8849 -59.4448 -59.4188
   -37.6328 -37.4258 -37.4041 -37.3219 -37.3210 -37.2985 -37.2984 -37.1630
   -37.0755 -36.8996 -36.8896 -36.8232 -36.3928 -36.2032 -36.1343 -36.0939
   -35.9548 -35.9227 -35.7543 -35.7351 -35.7232 -35.6234 -35.5604 -35.4280
   -24.8276 -21.3153 -21.0878 -20.2209 -19.7463 -19.6821 -19.2587 -19.0945
   -19.0751 -19.0430 -18.9692 -18.9447 -18.7645 -18.7295 -18.6628 -18.1318
   -17.8252 -17.6150 -17.4171 -17.3954  -9.5039  -8.9425  -8.7268  -7.8746
    -7.4337  -7.2706  -7.2145  -7.1773  -6.9707  -6.6755  -6.6460  -6.5949
    -6.5591  -6.4958  -6.4259  -6.3727  -6.2381  -6.1278  -6.1182  -6.0610
    -5.8767  -5.6803  -5.5865  -5.5147  -5.2197  -5.0141  -4.9684  -4.8808
    -4.7959  -4.7671  -4.7200  -4.4588  -4.4322  -4.3683  -4.2988  -4.2490
    -4.1831  -4.1383  -4.1017  -4.0109  -3.9711  -3.8301  -3.7028  -3.6305
    -3.6136  -3.4057  -3.3746  -3.1386  -2.8735  -2.7504  -2.7475  -2.5959
    -2.5867  -2.4161  -2.3361  -2.2791  -2.2196  -2.0932  -2.0621   0.2730
     0.5205   0.5595   0.6236   0.6530   0.7554   0.8120   0.9531   1.0289
     1.0736   1.2106   1.2947   1.4678   1.5170   1.6213   1.7222   1.7908
     1.9131   1.9585   2.1358   2.1591   2.2604   2.3666   2.4263   2.4380
     2.4656   2.5278   2.6217   2.6515   2.9181   3.0440   3.1249   3.1672
     3.3673   3.4621   3.4781   3.5530   3.5962   3.8025   3.8299   3.9423
     4.1333   4.2374   4.3566   4.5633   5.0219   5.1576   5.5225   5.8216
     6.0032   6.1898   6.5049   6.5636   6.7482   6.9592   7.0531   7.2516
     7.2959   7.4006   7.4811   7.5666   7.7896   7.9792   8.0490   8.1811
     8.2803   8.4589   8.5112   8.6483   8.6904   8.8524   8.9406   8.9982
     9.1443   9.2330   9.2630   9.3447   9.3834   9.4459   9.5915   9.6431
     9.6695   9.7506   9.8347   9.8753   9.9949  10.0935  10.2173  10.2905
    10.4434  10.4651  10.5674  10.7923  10.8411  10.8847  10.9318  11.0790
    11.1171  11.1690  11.2756  11.3215  11.3855  11.5072  11.6530  11.7567
    11.7993  11.8359  11.9256  12.0102  12.0412  12.1963  12.2326  12.2975
    12.4919  12.5571  12.6321  12.6979  12.8182  12.9645  13.0513  13.1153
    13.2294  13.2414  13.3744  13.4920  13.5298  13.6350  13.7129  13.7605
    13.8093  13.8625  13.8992  13.9568  14.0052  14.0617  14.1320  14.2516
    14.3910  14.4194  14.5318  14.5790  14.6293  14.6410  14.7932  14.8461
    14.9825  15.0348  15.0919  15.1369  15.2028  15.3387  15.3655  15.4043
    15.5617  15.6513  15.7052  15.7423  15.8669  15.9438  15.9849  16.0701
    16.1037  16.1915  16.2941  16.4110  16.4275  16.5090  16.5493  16.6854
    16.7256  16.7992  16.8947  16.9336  17.0052  17.0480  17.1411  17.2285
    17.3839  17.4341  17.4766  17.5062  17.5673  17.7286  17.7419  17.7861
    17.8386  17.8794  18.0174  18.0351  18.1166  18.1580  18.2331  18.2569
    18.2811  18.3862  18.4898  18.6055  18.6738  18.7164  18.7480  18.8097
    18.8335  18.9724  19.0633  19.1498  19.2247  19.2698  19.3059

          k = 0.2500 0.2258 0.0000 ( 29912 PWs)   bands (ev):

   -61.2435 -61.2189 -60.9648 -60.7078 -59.9175 -59.8848 -59.4450 -59.4188
   -37.6330 -37.4258 -37.4041 -37.3218 -37.3198 -37.2992 -37.2985 -37.1636
   -37.0747 -36.8995 -36.8892 -36.8234 -36.3917 -36.2048 -36.1348 -36.0936
   -35.9548 -35.9227 -35.7554 -35.7345 -35.7233 -35.6234 -35.5604 -35.4280
   -24.8275 -21.3094 -21.0873 -20.2046 -19.6942 -19.6286 -19.2728 -19.1998
   -19.0857 -18.9763 -18.9623 -18.9260 -18.8840 -18.7270 -18.7042 -18.1016
   -17.8257 -17.6204 -17.4154 -17.3906  -9.4993  -8.9411  -8.7205  -7.8831
    -7.2749  -7.1523  -7.1112  -7.0004  -6.9439  -6.6561  -6.6371  -6.5641
    -6.5279  -6.4847  -6.4208  -6.2920  -6.2008  -6.1677  -6.1440  -5.9360
    -5.8714  -5.6837  -5.6037  -5.4395  -5.3148  -5.0800  -4.9832  -4.8470
    -4.8239  -4.7661  -4.6964  -4.6332  -4.5442  -4.4839  -4.3808  -4.3175
    -4.3045  -4.2412  -4.1864  -4.1048  -4.0500  -3.8657  -3.7995  -3.6817
    -3.6299  -3.4690  -3.2874  -3.1375  -2.9148  -2.7955  -2.7640  -2.6528
    -2.5803  -2.4111  -2.3543  -2.2876  -2.2159  -2.1090  -2.0424   0.2793
     0.5170   0.6239   0.6618   0.7009   0.8588   0.9327   1.0374   1.0682
     1.1663   1.2357   1.2951   1.4971   1.5315   1.6315   1.7350   1.9004
     1.9348   1.9941   2.1087   2.1684   2.1782   2.2938   2.3691   2.3909
     2.4634   2.5584   2.5919   2.6189   2.8685   3.0378   3.1086   3.1967
     3.2515   3.4070   3.5668   3.6075   3.7978   3.9029   3.9463   4.0941
     4.1871   4.2946   4.3930   4.7067   5.1544   5.2405   5.5959   5.6615
     5.7079   6.0061   6.0950   6.2951   6.4060   6.6360   6.7336   7.0488
     7.1703   7.3588   7.4975   7.6134   7.7652   7.9919   8.0383   8.0955
     8.2216   8.2896   8.4874   8.5114   8.7221   8.7691   8.8632   8.9677
     9.1353   9.1579   9.2601   9.3776   9.5061   9.6224   9.6934   9.7624
     9.8506   9.9982  10.1260  10.2958  10.3230  10.4049  10.4612  10.5637
    10.6290  10.7860  10.8643  10.9446  11.0288  11.0790  11.2027  11.2754
    11.3866  11.4366  11.4964  11.5604  11.6429  11.7329  11.7613  11.8833
    11.9447  12.0679  12.1232  12.1582  12.2231  12.3135  12.3460  12.4311
    12.5160  12.5663  12.6187  12.6666  12.7871  12.8838  12.9565  13.0595
    13.1009  13.1364  13.2120  13.3270  13.4076  13.5422  13.6175  13.7442
    13.8014  13.8760  13.9894  14.0549  14.0927  14.1249  14.2063  14.2485
    14.2943  14.3421  14.4738  14.5303  14.5755  14.6318  14.6863  14.7872
    14.8292  14.9801  14.9918  15.1112  15.1606  15.2170  15.3365  15.3589
    15.4603  15.5087  15.5822  15.6308  15.6807  15.7535  15.7991  15.8950
    15.9984  16.0180  16.1039  16.1369  16.1966  16.3078  16.3671  16.4645
    16.5194  16.5849  16.6617  16.7042  16.8040  16.8521  16.8921  16.9851
    17.0295  17.1400  17.1787  17.2341  17.2649  17.3277  17.4185  17.4452
    17.5394  17.6105  17.6457  17.7716  17.8298  17.8975  17.9396  18.0458
    18.1275  18.1812  18.2662  18.3723  18.4186  18.4844  18.6023  18.6395
    18.6716  18.7489  18.8031  18.8599  18.9516  19.0536  19.1011

          k = 0.2500-0.4516 0.0000 ( 29882 PWs)   bands (ev):

   -61.2437 -61.2189 -60.9648 -60.7077 -59.9175 -59.8846 -59.4452 -59.4188
   -37.6332 -37.4258 -37.4041 -37.3217 -37.3185 -37.2999 -37.2985 -37.1642
   -37.0740 -36.8995 -36.8889 -36.8236 -36.3906 -36.2063 -36.1353 -36.0935
   -35.9548 -35.9227 -35.7564 -35.7339 -35.7233 -35.6234 -35.5604 -35.4281
   -24.8273 -21.3036 -21.0866 -20.1889 -19.6164 -19.5745 -19.2723 -19.2540
   -19.1156 -19.0324 -18.9598 -18.9261 -18.9192 -18.7942 -18.6796 -18.0779
   -17.8262 -17.6255 -17.4144 -17.3855  -9.4947  -8.9384  -8.7151  -7.8919
    -7.2593  -7.1164  -6.9497  -6.7217  -6.6763  -6.6141  -6.5814  -6.5429
    -6.4818  -6.3936  -6.3850  -6.3400  -6.3301  -6.2475  -6.1210  -5.8030
    -5.6860  -5.6602  -5.5661  -5.4379  -5.2623  -5.1006  -5.0495  -5.0145
    -4.9461  -4.8568  -4.8046  -4.7879  -4.7480  -4.7231  -4.6158  -4.4535
    -4.3279  -4.2700  -4.2561  -4.1513  -4.0532  -3.8967  -3.8076  -3.6884
    -3.6327  -3.4848  -3.2168  -3.0781  -2.9158  -2.7870  -2.7750  -2.7470
    -2.5554  -2.4344  -2.3698  -2.3047  -2.2172  -2.1051  -2.0311   0.2826
     0.5020   0.5163   0.6523   0.8299   0.9131   1.0014   1.0603   1.1457
     1.1906   1.2473   1.5160   1.5326   1.6103   1.7051   1.7793   1.8759
     1.9516   2.0215   2.0510   2.1457   2.2221   2.3260   2.3784   2.4050
     2.4703   2.5127   2.6211   2.6467   2.7288   2.8333   3.0259   3.2207
     3.2809   3.3159   3.4862   3.7327   3.8542   4.0829   4.1352   4.2981
     4.3961   4.4082   4.6011   4.7604   4.8770   5.1320   5.3404   5.4296
     5.6954   5.8653   5.9793   6.3126   6.5530   6.6617   6.7995   6.8643
     6.9609   7.0796   7.2324   7.3350   7.4506   7.6652   7.7647   7.9235
     8.0455   8.3071   8.3747   8.4594   8.5725   8.6901   8.9531   9.0627
     9.0821   9.1740   9.2764   9.4071   9.6757   9.8102  10.0227  10.0572
    10.1469  10.1747  10.3097  10.5137  10.7817  10.8394  10.9087  11.0308
    11.1154  11.1556  11.2306  11.2537  11.3095  11.3173  11.4514  11.4941
    11.6246  11.6416  11.7055  11.7542  11.8247  11.9172  11.9285  12.0192
    12.0703  12.1550  12.2371  12.2489  12.3039  12.3901  12.4432  12.4927
    12.5328  12.6358  12.6794  12.8248  12.8715  12.9188  12.9810  13.0782
    13.0978  13.1635  13.1960  13.3199  13.3538  13.5150  13.5308  13.6034
    13.6749  13.7119  13.7696  13.7983  13.8490  13.9529  13.9718  14.0296
    14.0852  14.1987  14.2497  14.3545  14.4411  14.4559  14.5610  14.6940
    14.7518  14.7627  14.7854  14.8693  14.8861  14.9414  15.0505  15.1105
    15.1723  15.2418  15.3088  15.3783  15.4215  15.5154  15.6052  15.6530
    15.7597  15.8319  15.8607  16.0019  16.0513  16.0683  16.2374  16.4032
    16.4889  16.5938  16.6535  16.6948  16.7654  16.8356  16.9981  17.0308
    17.0760  17.1521  17.2095  17.2818  17.3504  17.4073  17.4497  17.5038
    17.5298  17.6344  17.7043  17.7427  17.7886  17.8494  17.8806  17.9311
    17.9767  18.0682  18.1764  18.1892  18.2379  18.3725  18.4037  18.4902
    18.5353  18.6212  18.6452  18.6951  18.7707  18.8844  18.8898

          k =-0.5000 0.0000 0.0000 ( 29982 PWs)   bands (ev):

   -61.2331 -61.2316 -60.9654 -60.7096 -59.9117 -59.8932 -59.4331 -59.4325
   -37.5186 -37.4984 -37.3863 -37.3809 -37.3104 -37.3088 -37.2975 -37.0969
   -37.0701 -36.9005 -36.8927 -36.8894 -36.2507 -36.2362 -36.1771 -36.1593
   -35.9505 -35.9265 -35.7448 -35.7442 -35.6112 -35.6067 -35.5592 -35.5584
   -24.8275 -21.1840 -21.1773 -20.2155 -19.6031 -19.3913 -19.3869 -19.3722
   -19.1463 -18.9448 -18.9097 -18.8752 -18.8335 -18.8032 -18.7941 -17.9196
   -17.9064 -17.6143 -17.4740 -17.4725  -9.5047  -8.8737  -8.8220  -7.8720
    -7.3131  -7.1246  -7.1174  -7.0122  -6.8960  -6.8529  -6.7042  -6.6161
    -6.6058  -6.5940  -6.5173  -6.4748  -6.4188  -6.0479  -5.9593  -5.7506
    -5.7185  -5.6436  -5.6077  -5.3454  -5.1883  -5.1561  -5.0340  -5.0021
    -4.9693  -4.7902  -4.7039  -4.5059  -4.4318  -4.3996  -4.2470  -4.0855
    -4.0807  -4.0496  -3.9399  -3.8898  -3.8832  -3.8755  -3.8317  -3.7680
    -3.5810  -3.5717  -3.5266  -3.4037  -2.9201  -2.8917  -2.8737  -2.8235
    -2.3957  -2.3760  -2.3082  -2.2836  -2.2400  -2.2188  -2.0820   0.4016
     0.5466   0.6115   0.6744   0.7942   0.8305   0.9388   0.9548   0.9682
     1.0009   1.0778   1.2299   1.3325   1.3330   1.5494   1.6488   1.9010
     1.9527   1.9594   2.0076   2.1157   2.2149   2.3472   2.3907   2.5807
     2.5888   2.7281   2.7598   2.7876   2.8618   3.0754   3.2006   3.2977
     3.4449   3.4574   3.4637   3.4890   3.5887   3.6929   4.0280   4.0735
     4.2256   4.3928   4.4395   4.4617   4.7489   4.8334   5.2930   5.2982
     5.7860   5.9301   6.3826   6.6438   6.8912   6.9539   7.2617   7.2897
     7.4106   7.6694   7.7007   7.7426   7.8590   8.0501   8.0778   8.1391
     8.1491   8.2381   8.2444   8.3589   8.3696   8.5287   8.6810   8.8018
     8.8954   8.9162   9.0705   9.2374   9.3233   9.4317   9.5855   9.6024
     9.6899   9.7941   9.8780  10.0108  10.0975  10.1693  10.3417  10.3827
    10.4661  10.4839  10.5894  10.6844  10.7804  10.8781  10.9025  11.0393
    11.1922  11.2773  11.3414  11.6522  11.7795  11.8198  11.9306  11.9655
    12.0969  12.1130  12.2142  12.2412  12.3080  12.4080  12.4988  12.6024
    12.8107  12.8346  12.9767  13.0375  13.1263  13.2015  13.2437  13.2982
    13.3206  13.4033  13.5661  13.6076  13.6635  13.7341  13.8399  13.8715
    14.0497  14.0781  14.2086  14.2324  14.2635  14.3847  14.4221  14.4619
    14.4863  14.5277  14.6002  14.6502  14.8647  14.9259  14.9898  15.1074
    15.1571  15.4058  15.4141  15.4506  15.4981  15.5366  15.6840  15.7507
    15.8350  15.8864  15.9047  15.9224  16.0911  16.1041  16.1535  16.2096
    16.2203  16.3188  16.3736  16.4109  16.4518  16.4833  16.5457  16.6225
    16.6916  16.7123  16.7223  16.7778  16.8145  16.9353  16.9679  17.0279
    17.0731  17.1304  17.2525  17.2805  17.3269  17.3815  17.4259  17.6163
    17.6345  17.6783  17.7392  17.7711  17.8777  17.9067  18.1406  18.1600
    18.2064  18.2208  18.2820  18.3669  18.4555  18.4686  18.4916  18.5058
    18.5207  18.5408  18.5862  18.6951  18.7287  18.7728  18.7794

          k =-0.5000 0.2258 0.0000 ( 29954 PWs)   bands (ev):

   -61.2332 -61.2317 -60.9654 -60.7095 -59.9116 -59.8931 -59.4333 -59.4327
   -37.5187 -37.4985 -37.3863 -37.3809 -37.3100 -37.3085 -37.2975 -37.0973
   -37.0696 -36.9002 -36.8924 -36.8900 -36.2501 -36.2357 -36.1781 -36.1603
   -35.9504 -35.9265 -35.7449 -35.7444 -35.6112 -35.6067 -35.5592 -35.5584
   -24.8274 -21.1818 -21.1752 -20.2077 -19.5465 -19.3506 -19.3365 -19.3165
   -19.1746 -19.0127 -18.9777 -18.9118 -18.8821 -18.8236 -18.7890 -17.9167
   -17.9020 -17.6223 -17.4733 -17.4633  -9.5000  -8.8650  -8.8126  -7.8794
    -7.3155  -6.9907  -6.9089  -6.8898  -6.7715  -6.7245  -6.6565  -6.6181
    -6.5882  -6.5011  -6.4278  -6.3741  -6.3342  -6.0519  -5.9583  -5.7623
    -5.7457  -5.6323  -5.5999  -5.4394  -5.3427  -5.3149  -5.2493  -5.0840
    -4.9386  -4.7345  -4.6414  -4.4859  -4.4464  -4.4156  -4.3300  -4.2916
    -4.2753  -4.2536  -4.1569  -4.1392  -4.0630  -3.9137  -3.8217  -3.7293
    -3.6328  -3.5727  -3.5418  -3.3728  -2.8949  -2.8249  -2.7460  -2.7305
    -2.4249  -2.3793  -2.3608  -2.2988  -2.2474  -2.1785  -2.0455   0.4300
     0.5667   0.6231   0.6736   0.7463   0.8319   0.9161   0.9779   1.1882
     1.2569   1.2678   1.3376   1.3659   1.4142   1.5491   1.6723   1.9307
     1.9322   1.9926   2.0717   2.1438   2.1974   2.3334   2.3438   2.5730
     2.5985   2.6047   2.6157   2.6744   2.7678   2.9467   2.9542   3.3048
     3.3157   3.3520   3.5382   3.5601   3.8259   3.8364   4.0568   4.1784
     4.2789   4.5625   4.6139   4.6316   4.9383   5.0186   5.4565   5.4715
     5.9216   5.9717   6.2475   6.3160   6.3659   6.5143   6.7161   6.7926
     6.8460   7.0679   7.1399   7.3565   7.3866   7.4658   7.7677   7.9354
     8.0292   8.2897   8.3190   8.5089   8.7247   8.7829   8.8680   8.9111
     9.1702   9.2432   9.4052   9.5235   9.6474   9.7382   9.9281   9.9668
    10.0055  10.1162  10.2059  10.2227  10.2385  10.3611  10.5199  10.5405
    10.7755  10.8924  10.9185  11.0205  11.1302  11.2088  11.2317  11.3816
    11.4651  11.6037  11.7325  11.7667  11.8447  11.9454  12.0968  12.1890
    12.2250  12.2897  12.3673  12.4438  12.5372  12.6399  12.7623  12.8064
    12.8955  12.9671  13.0388  13.1131  13.2775  13.3130  13.4046  13.4330
    13.4704  13.5389  13.5614  13.6297  13.7062  13.7494  13.8907  13.9302
    13.9569  13.9997  14.0948  14.1784  14.2357  14.2522  14.2805  14.3317
    14.4583  14.5000  14.5448  14.5624  14.6585  14.8249  14.8728  14.9351
    14.9744  15.0224  15.0623  15.0888  15.1444  15.1623  15.2404  15.2565
    15.3553  15.4384  15.4469  15.4942  15.5154  15.5561  15.6363  15.6737
    15.7872  15.8063  15.8791  15.8946  15.9677  16.0512  16.0994  16.1706
    16.2531  16.3764  16.4097  16.4187  16.5235  16.5871  16.6120  16.7120
    16.7855  16.8260  16.9000  16.9313  17.0502  17.0763  17.2112  17.2776
    17.2982  17.3588  17.4168  17.4521  17.5508  17.6513  17.7627  17.8724
    17.8962  17.9213  18.0114  18.0587  18.2669  18.3328  18.4721  18.5596
    18.6143  18.6361  18.6745  18.6961  18.7292  18.7986  18.8459

          k =-0.5000-0.4516 0.0000 ( 29868 PWs)   bands (ev):

   -61.2333 -61.2318 -60.9653 -60.7095 -59.9116 -59.8931 -59.4334 -59.4328
   -37.5188 -37.4986 -37.3863 -37.3809 -37.3097 -37.3082 -37.2975 -37.0977
   -37.0692 -36.8999 -36.8921 -36.8905 -36.2495 -36.2351 -36.1792 -36.1613
   -35.9504 -35.9265 -35.7452 -35.7445 -35.6111 -35.6067 -35.5592 -35.5584
   -24.8272 -21.1797 -21.1731 -20.1999 -19.4614 -19.3013 -19.2915 -19.2043
   -19.1676 -19.1358 -19.1036 -18.9736 -18.9222 -18.8329 -18.7878 -17.9140
   -17.8980 -17.6294 -17.4725 -17.4549  -9.4952  -8.8561  -8.8032  -7.8865
    -7.3184  -6.9692  -6.6993  -6.6964  -6.6505  -6.6045  -6.5780  -6.5379
    -6.5301  -6.3352  -6.2585  -6.1903  -6.1733  -6.0204  -5.9754  -5.8577
    -5.8329  -5.6411  -5.6271  -5.5611  -5.5069  -5.4864  -5.3828  -5.0850
    -4.9243  -4.7323  -4.7251  -4.7101  -4.6815  -4.6291  -4.5522  -4.4503
    -4.4138  -4.2982  -4.1885  -4.1706  -4.0743  -4.0455  -3.9676  -3.6602
    -3.5851  -3.5638  -3.5133  -3.3261  -2.8786  -2.7984  -2.6549  -2.6531
    -2.4790  -2.3774  -2.3490  -2.3188  -2.2194  -2.1592  -2.0204   0.4515
     0.6336   0.6445   0.6757   0.7008   0.8298   0.9292   0.9930   1.3179
     1.3274   1.3386   1.4251   1.4355   1.6229   1.8064   1.8111   1.9393
     2.0126   2.0845   2.1328   2.1628   2.1843   2.2109   2.2614   2.2686
     2.2869   2.5364   2.6166   2.6198   2.6262   2.8475   2.8924   3.3593
     3.3908   3.4253   3.4574   3.4626   3.9043   3.9332   4.1318   4.2961
     4.3020   4.9260   4.9281   4.9407   5.3497   5.3674   5.5402   5.5407
     5.6297   5.6336   5.8728   5.8992   6.0360   6.1368   6.3784   6.4906
     6.5437   6.7982   6.9609   7.2228   7.2575   7.6011   7.6110   7.7633
     7.8880   8.0889   8.1639   8.2899   8.3838   8.6813   8.7223   8.7978
     9.1024   9.2031   9.4382   9.4870   9.7505   9.7925  10.0338  10.1279
    10.4168  10.4601  10.6529  10.6968  10.7941  10.8539  10.9389  11.2399
    11.4605  11.5774  11.6160  11.7402  11.8177  11.8319  11.8638  12.0039
    12.0608  12.0882  12.1632  12.1746  12.3161  12.4000  12.4695  12.4807
    12.5473  12.5992  12.6052  12.6994  12.7161  12.7733  12.7875  12.7999
    12.9693  12.9804  13.0190  13.0519  13.0940  13.1147  13.1809  13.2183
    13.4114  13.4168  13.4476  13.5441  13.6155  13.6316  13.6421  13.6917
    13.7250  13.8077  13.8213  13.8830  13.9371  13.9643  14.0333  14.0910
    14.1057  14.2399  14.2502  14.3049  14.3664  14.3882  14.4023  14.4346
    14.4960  14.5173  14.6400  14.6596  14.7296  14.7404  14.7996  14.9405
    14.9559  15.0139  15.0549  15.0810  15.1789  15.1938  15.2535  15.3177
    15.4799  15.5023  15.6230  15.7191  15.7790  15.8631  15.9283  15.9652
    16.0130  16.0647  16.0938  16.1126  16.2292  16.2709  16.4039  16.4536
    16.4822  16.7006  16.7744  16.8063  16.8402  16.9418  17.0203  17.0676
    17.2210  17.2319  17.2716  17.4066  17.4480  17.4588  17.5998  17.6139
    17.8192  17.9772  17.9867  18.0477  18.1212  18.1498  18.2611  18.2752
    18.3769  18.4407  18.5324  18.5445  18.7906  18.8061  18.9884

          k =-0.2500 0.2258 0.0000 ( 29912 PWs)   bands (ev):

   -61.2435 -61.2189 -60.9648 -60.7078 -59.9175 -59.8848 -59.4450 -59.4188
   -37.6330 -37.4258 -37.4041 -37.3217 -37.3199 -37.2991 -37.2985 -37.1636
   -37.0747 -36.8995 -36.8892 -36.8234 -36.3917 -36.2047 -36.1348 -36.0937
   -35.9548 -35.9227 -35.7554 -35.7345 -35.7233 -35.6234 -35.5604 -35.4280
   -24.8275 -21.3095 -21.0872 -20.2045 -19.6946 -19.6286 -19.2718 -19.1997
   -19.0843 -18.9763 -18.9624 -18.9299 -18.8840 -18.7274 -18.7020 -18.1016
   -17.8257 -17.6204 -17.4154 -17.3906  -9.4993  -8.9409  -8.7216  -7.8831
    -7.2738  -7.1391  -7.1133  -7.0011  -6.9505  -6.6663  -6.6376  -6.5661
    -6.5273  -6.4871  -6.4209  -6.2997  -6.2380  -6.1540  -6.0937  -5.9493
    -5.8664  -5.6722  -5.6017  -5.4275  -5.3101  -5.0856  -4.9808  -4.8542
    -4.8413  -4.7674  -4.7061  -4.6356  -4.5390  -4.4842  -4.3937  -4.3312
    -4.3002  -4.2466  -4.2065  -4.0658  -4.0423  -3.8768  -3.8007  -3.6905
    -3.6287  -3.4704  -3.2834  -3.0897  -2.8955  -2.7826  -2.7655  -2.6831
    -2.5745  -2.4342  -2.3544  -2.2963  -2.2217  -2.0981  -2.0476   0.2793
     0.5170   0.6295   0.6620   0.7012   0.8585   0.9323   1.0347   1.0674
     1.1665   1.2347   1.2951   1.4968   1.5310   1.6304   1.7348   1.9021
     1.9322   1.9941   2.1100   2.1697   2.1794   2.2913   2.3671   2.3880
     2.4658   2.5587   2.5931   2.6201   2.8686   3.0380   3.1090   3.1966
     3.2509   3.4094   3.5670   3.6072   3.7967   3.9029   3.9466   4.0943
     4.1874   4.2957   4.3933   4.7065   5.1529   5.2426   5.6034   5.6707
     5.7093   6.0102   6.0931   6.2921   6.4058   6.6370   6.7266   7.0354
     7.1656   7.3466   7.5007   7.6035   7.7620   7.9904   8.0418   8.1149
     8.2175   8.3010   8.4709   8.4945   8.7171   8.7694   8.8836   8.9745
     9.1276   9.1543   9.2546   9.3833   9.5145   9.6463   9.6954   9.7566
     9.8588   9.9774  10.1270  10.2998  10.3513  10.3869  10.4710  10.5766
    10.6170  10.7768  10.8582  10.9475  11.0234  11.0974  11.1834  11.2706
    11.3475  11.4315  11.5012  11.5760  11.6428  11.7411  11.7752  11.8783
    11.9611  12.0647  12.1165  12.1741  12.2217  12.3005  12.3371  12.4457
    12.5194  12.5620  12.6192  12.7045  12.7742  12.9426  12.9980  13.0455
    13.0623  13.1525  13.1920  13.3214  13.4427  13.5592  13.5884  13.7339
    13.7903  13.8942  13.9143  14.0119  14.0719  14.1474  14.2208  14.2561
    14.3003  14.3400  14.4646  14.5299  14.5690  14.5989  14.6799  14.7797
    14.8417  14.9792  15.0116  15.1159  15.1442  15.2307  15.3344  15.3777
    15.4937  15.5302  15.5710  15.6364  15.6638  15.7507  15.8096  15.8844
    15.9755  16.0365  16.0940  16.1541  16.2071  16.3056  16.3702  16.4499
    16.5079  16.5862  16.6163  16.7047  16.8074  16.8473  16.8864  16.9181
    17.0144  17.1063  17.1482  17.2338  17.2827  17.3473  17.4233  17.4557
    17.5361  17.5908  17.6557  17.7849  17.8769  17.9241  17.9588  18.0500
    18.1395  18.1764  18.2899  18.3595  18.4169  18.4804  18.6093  18.6375
    18.6772  18.7412  18.7996  18.8630  18.9633  19.0650  19.1089

     the Fermi energy is    -2.0344 ev

!    total energy              =   -1596.74445156 Ry
     Harris-Foulkes estimate   =   -1596.74445159 Ry
     estimated scf accuracy    <       0.00000006 Ry

     The total energy is the sum of the following terms:

     one-electron contribution =  -19109.84465719 Ry
     hartree contribution      =    9575.85248446 Ry
     xc contribution           =    -284.47172824 Ry
     ewald contribution        =    8218.38115076 Ry
     Hubbard energy            =       3.33972891 Ry
     smearing contrib. (-TS)   =      -0.00143027 Ry

     convergence has been achieved in  32 iterations

     Forces acting on atoms (Ry/au):


     negative rho (up, down):  0.108E+00 0.000E+00
     atom    1 type  1   force =    -0.00266736   -0.01480399   -0.00353518
     atom    2 type  1   force =     0.00005626    0.01622471   -0.00313910
     atom    3 type  2   force =     0.04073224   -0.00749884   -0.00208144
     atom    4 type  2   force =     0.00156243    0.00974436    0.00042349
     atom    5 type  1   force =    -0.00132322   -0.08951155   -0.00034963
     atom    6 type  1   force =    -0.00429269    0.08757897   -0.00017702
     atom    7 type  1   force =     0.00009956   -0.00123004   -0.00159344
     atom    8 type  1   force =     0.00063809   -0.00071973    0.00219526
     atom    9 type  2   force =     0.00096873    0.00003573   -0.00585514
     atom   10 type  2   force =     0.00000470   -0.00103493    0.00658773
     atom   11 type  1   force =    -0.02381400   -0.01251309   -0.00013015
     atom   12 type  1   force =    -0.02093690    0.01769257   -0.00012604
     atom   13 type  1   force =     0.00008695   -0.00250687    0.00670813
     atom   14 type  1   force =    -0.00473741   -0.01495647   -0.00291153
     atom   15 type  1   force =     0.00009288    0.01661458   -0.00315341
     atom   16 type  2   force =    -0.04060005   -0.00812893   -0.00206957
     atom   17 type  2   force =     0.00153874    0.00922695   -0.00134448
     atom   18 type  1   force =     0.00518034   -0.08965453   -0.00030620
     atom   19 type  1   force =     0.00368830    0.08801017   -0.00024155
     atom   20 type  1   force =    -0.00010194   -0.00069232    0.00563771
     atom   21 type  1   force =     0.00052784   -0.00005553    0.00299574
     atom   22 type  2   force =    -0.00128199    0.00007450   -0.00588708
     atom   23 type  2   force =    -0.00006616   -0.00308593   -0.00192567
     atom   24 type  1   force =     0.02393026   -0.01240673   -0.00011842
     atom   25 type  1   force =     0.02084187    0.01757335   -0.00011850
     atom   26 type  1   force =     0.00013748   -0.00527737    0.00668165
     atom   27 type  3   force =    -0.00001295    0.00044596    0.00002331
     atom   28 type  3   force =     0.00000529    0.00034569   -0.00011129
     atom   29 type  3   force =    -0.00020715   -0.00022984    0.00077506
     atom   30 type  3   force =    -0.00005449   -0.00021326    0.00073877
     atom   31 type  1   force =     0.00016855    0.00148423    0.00186843
     atom   32 type  1   force =    -0.00020523   -0.00091973    0.00072609
     atom   33 type  3   force =     0.00004105    0.00038790   -0.00018654

     Total force =     0.017732     Total SCF correction =     0.000512

     BFGS Geometry Optimization

     number of scf cycles    =   1
     number of bfgs steps    =   0

     energy   new            =   -1596.7444515620 Ry

     new trust radius        =       0.0067081298 bohr
     new conv_thr            =       0.0000010000 Ry


ATOMIC_POSITIONS (crystal)
O0       0.000000000   0.000000000   0.376309608    0   0   1
O0       0.000000000   0.500000000   0.398297495    0   0   1
Ti1      0.250000000   0.500000000   0.450728555    0   0   1
Ti1      0.000000000   0.000000000   0.450548433    0   0   1
O0       0.250000000   0.810000000   0.449483038    0   0   1
O0       0.250000000   0.190000000   0.450576475    0   0   1
O0       0.000000000   0.500000000   0.498358272    0   0   1
O0       0.000000000   0.000000000   0.526613712    0   0   1
Ti1      0.250000000   0.000000000   0.580873414    0   0   1
Ti1      0.000000000   0.500000000   0.570111173    0   0   1
O0       0.250000000   0.690000000   0.578917409    0   0   1
O0       0.250000000   0.310000000   0.580527490    0   0   1
O0       0.000000000   0.000000000   0.624193571    0   0   1
O0       0.500000000   0.000000000   0.377192026    0   0   1
O0       0.500000000   0.500000000   0.398327210    0   0   1
Ti1      0.750000000   0.500000000   0.450738791    0   0   1
Ti1      0.500000000   0.000000000   0.452383229    0   0   1
O0       0.750000000   0.810000000   0.449443903    0   0   1
O0       0.750000000   0.190000000   0.450665190    0   0   1
O0       0.500000000   0.500000000   0.498042257    0   0   1
O0       0.500000000   0.000000000   0.526829651    0   0   1
Ti1      0.750000000   0.000000000   0.580882778    0   0   1
Ti1      0.500000000   0.500000000   0.581721657    0   0   1
O0       0.750000000   0.690000000   0.578907642    0   0   1
O0       0.750000000   0.310000000   0.580517641    0   0   1
O0       0.500000000   0.000000000   0.623653043    0   0   1
H2      -0.000221154   0.629325886   0.379050464
H2       0.499810472   0.630477818   0.379517784
H2       0.151721546   0.030741505   0.363145433
H2       0.650705146   0.032292839   0.363734710
O0       0.500310000   0.538229436   0.658207204    0   1   1
O0       0.499120000   0.356845989   0.686194458    0   1   1
H2       0.500360000   0.412421214   0.720796286    0   1   1


     Check: negative starting charge=   -0.102179
     NEW-OLD atomic charge density approx. for the potential

     Check: negative/imaginary core charge=   -0.000006    0.000000
     Check: negative starting charge=   -0.102183

     negative rho (up, down):  0.108E+00 0.000E+00
 Atomic wfc used for LDA+U Projector are NOT orthogonalized

     total cpu time spent up to now is     7972.9 secs

     per-process dynamical memory:   443.2 Mb

     Self-consistent Calculation

     iteration #  1     ecut=    40.00 Ry     beta=0.70
     Davidson diagonalization with overlap
     ethr =  1.00E-06,  avg # of iterations =  3.0
 --- enter write_ns ---
 LDA+U parameters:
U( 2)     =  6.50000000
alpha( 2) =  0.00000000
atom    3   Tr[ns(na)] =   2.56675
    eigenvalues: 
  0.125  0.139  0.155  0.420  0.444
    eigenvectors:
  0.717  0.044  0.046  0.161  0.031
  0.000  0.001  0.001  0.190  0.808
  0.099  0.211  0.689  0.000  0.000
  0.176  0.009  0.008  0.648  0.159
  0.007  0.734  0.257  0.000  0.002
    occupations:
  0.185  0.001 -0.004  0.117  0.001
  0.001  0.439  0.001 -0.011  0.014
 -0.004  0.001  0.149  0.008 -0.007
  0.117 -0.011  0.008  0.367 -0.001
  0.001  0.014 -0.007 -0.001  0.144
atom    4   Tr[ns(na)] =   2.67743
    eigenvalues: 
  0.127  0.154  0.170  0.436  0.452
    eigenvectors:
  0.007  0.002  0.000  0.000  0.990
  0.002  0.851  0.144  0.000  0.003
  0.001  0.143  0.855  0.000  0.000
  0.990  0.004  0.000  0.000  0.006
  0.000  0.000  0.000  1.000  0.000
    occupations:
  0.449  0.015  0.005 -0.026  0.000
  0.015  0.157 -0.005  0.000 -0.003
  0.005 -0.005  0.168  0.001  0.000
 -0.026  0.000  0.001  0.129  0.000
  0.000 -0.003  0.000  0.000  0.436
atom    9   Tr[ns(na)] =   2.67741
    eigenvalues: 
  0.130  0.174  0.185  0.384  0.466
    eigenvectors:
  0.000  0.001  0.904  0.094  0.000
  0.000  0.000  0.000  0.000  1.000
  0.999  0.001  0.000  0.000  0.000
  0.000  0.000  0.094  0.905  0.000
  0.001  0.998  0.001  0.000  0.000
    occupations:
  0.204  0.001  0.001  0.058  0.000
  0.001  0.466  0.000 -0.002  0.000
  0.001  0.000  0.130  0.002 -0.001
  0.058 -0.002  0.002  0.365  0.000
  0.000  0.000 -0.001  0.000  0.174
atom   10   Tr[ns(na)] =   2.60735
    eigenvalues: 
  0.137  0.171  0.193  0.329  0.474
    eigenvectors:
  0.021  0.000  0.000  0.979  0.000
  0.000  0.000  1.000  0.000  0.000
  0.001  0.999  0.000  0.000  0.000
  0.979  0.001  0.000  0.021  0.000
  0.000  0.000  0.000  0.000  1.000
    occupations:
  0.325  0.000 -0.001 -0.027  0.000
  0.000  0.193  0.000  0.000  0.004
 -0.001  0.000  0.171 -0.001  0.000
 -0.027  0.000 -0.001  0.141  0.000
  0.000  0.004  0.000  0.000  0.474
atom   16   Tr[ns(na)] =   2.56699
    eigenvalues: 
  0.125  0.140  0.155  0.420  0.444
    eigenvectors:
  0.721  0.041  0.045  0.161  0.031
  0.000  0.001  0.001  0.188  0.809
  0.096  0.209  0.695  0.000  0.000
  0.177  0.008  0.008  0.649  0.158
  0.006  0.741  0.251  0.000  0.002
    occupations:
  0.185 -0.001 -0.004  0.117 -0.001
 -0.001  0.439 -0.001  0.011  0.014
 -0.004 -0.001  0.149  0.007  0.007
  0.117  0.011  0.007  0.367  0.000
 -0.001  0.014  0.007  0.000  0.144
atom   17   Tr[ns(na)] =   2.67787
    eigenvalues: 
  0.126  0.157  0.171  0.432  0.454
    eigenvectors:
  0.007  0.002  0.000  0.000  0.991
  0.001  0.864  0.133  0.000  0.002
  0.001  0.132  0.867  0.000  0.000
  0.991  0.002  0.000  0.000  0.006
  0.000  0.000  0.000  1.000  0.000
    occupations:
  0.451  0.014  0.005 -0.026  0.000
  0.014  0.159 -0.004  0.000 -0.003
  0.005 -0.004  0.169  0.001  0.000
 -0.026  0.000  0.001  0.128  0.000
  0.000 -0.003  0.000  0.000  0.432
atom   22   Tr[ns(na)] =   2.67750
    eigenvalues: 
  0.130  0.174  0.185  0.384  0.466
    eigenvectors:
  0.000  0.001  0.905  0.094  0.000
  0.000  0.000  0.000  0.000  1.000
  0.999  0.001  0.000  0.000  0.000
  0.000  0.000  0.094  0.906  0.000
  0.001  0.998  0.001  0.000  0.000
    occupations:
  0.204 -0.001  0.001  0.058  0.000
 -0.001  0.466  0.000  0.002  0.000
  0.001  0.000  0.130  0.002  0.001
  0.058  0.002  0.002  0.365  0.000
  0.000  0.000  0.001  0.000  0.174
atom   23   Tr[ns(na)] =   2.59450
    eigenvalues: 
  0.122  0.140  0.178  0.381  0.476
    eigenvectors:
  0.001  0.010  0.000  0.989  0.000
  0.000  0.000  1.000  0.000  0.000
  0.999  0.000  0.000  0.001  0.000
  0.000  0.990  0.000  0.010  0.000
  0.000  0.000  0.000  0.000  1.000
    occupations:
  0.378  0.000 -0.008 -0.024  0.000
  0.000  0.178  0.000  0.000  0.003
 -0.008  0.000  0.122  0.001  0.000
 -0.024  0.000  0.001  0.143  0.000
  0.000  0.003  0.000  0.000  0.476
N of occupied +U levels =  21.0458070
 --- exit write_ns ---

     negative rho (up, down):  0.108E+00 0.000E+00

     total cpu time spent up to now is     8257.2 secs

     total energy              =   -1596.73951488 Ry
     Harris-Foulkes estimate   =   -1596.74475610 Ry
     estimated scf accuracy    <       0.00604496 Ry

     iteration #  2     ecut=    40.00 Ry     beta=0.70
     Davidson diagonalization with overlap
     ethr =  2.74E-06,  avg # of iterations =  5.6

     negative rho (up, down):  0.108E+00 0.000E+00

     total cpu time spent up to now is     8554.8 secs

     total energy              =   -1596.73373919 Ry
     Harris-Foulkes estimate   =   -1596.81100191 Ry
     estimated scf accuracy    <       0.75453249 Ry

     iteration #  3     ecut=    40.00 Ry     beta=0.70
     Davidson diagonalization with overlap
     ethr =  2.74E-06,  avg # of iterations =  5.7

     negative rho (up, down):  0.108E+00 0.000E+00

     total cpu time spent up to now is     8850.4 secs

     total energy              =   -1596.74200509 Ry
     Harris-Foulkes estimate   =   -1596.75248332 Ry
     estimated scf accuracy    <       0.26138128 Ry

     iteration #  4     ecut=    40.00 Ry     beta=0.70
     Davidson diagonalization with overlap
     ethr =  2.74E-06,  avg # of iterations =  4.2

     negative rho (up, down):  0.108E+00 0.000E+00

     total cpu time spent up to now is     9084.9 secs

     total energy              =   -1596.74467970 Ry
     Harris-Foulkes estimate   =   -1596.74518234 Ry
     estimated scf accuracy    <       0.04026891 Ry

     iteration #  5     ecut=    40.00 Ry     beta=0.70
     Davidson diagonalization with overlap
     ethr =  2.74E-06,  avg # of iterations =  1.0

     negative rho (up, down):  0.108E+00 0.000E+00

     total cpu time spent up to now is     9291.9 secs

     total energy              =   -1596.74434742 Ry
     Harris-Foulkes estimate   =   -1596.74484854 Ry
     estimated scf accuracy    <       0.01557890 Ry

     iteration #  6     ecut=    40.00 Ry     beta=0.70
     Davidson diagonalization with overlap
     ethr =  2.74E-06,  avg # of iterations =  1.0

     negative rho (up, down):  0.108E+00 0.000E+00

     total cpu time spent up to now is     9499.0 secs

     total energy              =   -1596.74467191 Ry
     Harris-Foulkes estimate   =   -1596.74472250 Ry
     estimated scf accuracy    <       0.00357729 Ry

     iteration #  7     ecut=    40.00 Ry     beta=0.70
     Davidson diagonalization with overlap
     ethr =  1.62E-06,  avg # of iterations =  1.0

     negative rho (up, down):  0.108E+00 0.000E+00

     total cpu time spent up to now is     9705.9 secs

     total energy              =   -1596.74466826 Ry
     Harris-Foulkes estimate   =   -1596.74469186 Ry
     estimated scf accuracy    <       0.00116719 Ry

     iteration #  8     ecut=    40.00 Ry     beta=0.70
     Davidson diagonalization with overlap
     ethr =  5.28E-07,  avg # of iterations =  1.0

     negative rho (up, down):  0.108E+00 0.000E+00

     total cpu time spent up to now is     9912.8 secs

     total energy              =   -1596.74467550 Ry
     Harris-Foulkes estimate   =   -1596.74467880 Ry
     estimated scf accuracy    <       0.00008335 Ry

     iteration #  9     ecut=    40.00 Ry     beta=0.70
     Davidson diagonalization with overlap
     ethr =  3.77E-08,  avg # of iterations =  1.0

     negative rho (up, down):  0.108E+00 0.000E+00

     total cpu time spent up to now is    10119.1 secs

     total energy              =   -1596.74467737 Ry
     Harris-Foulkes estimate   =   -1596.74467743 Ry
     estimated scf accuracy    <       0.00000196 Ry

     iteration # 10     ecut=    40.00 Ry     beta=0.70
     Davidson diagonalization with overlap
[...]
   -35.9835 -35.9576 -35.7588 -35.7582 -35.6164 -35.6120 -35.5668 -35.5663
   -24.8515 -21.1857 -21.1843 -20.2005 -19.6239 -19.4147 -19.4062 -19.3957
   -19.1625 -18.9680 -18.9359 -18.8847 -18.8534 -18.8302 -18.8150 -17.9257
   -17.9004 -17.6206 -17.4484 -17.4418  -9.5156  -8.8631  -8.8229  -7.8808
    -7.3022  -7.1483  -7.1447  -7.0225  -6.9171  -6.8626  -6.7161  -6.6314
    -6.6159  -6.5950  -6.5360  -6.4911  -6.4409  -6.0582  -5.9630  -5.7619
    -5.7291  -5.6398  -5.6086  -5.3489  -5.1999  -5.1711  -5.0549  -5.0232
    -4.9948  -4.8002  -4.7131  -4.5171  -4.4383  -4.4099  -4.2639  -4.0943
    -4.0807  -4.0450  -3.9610  -3.9141  -3.9010  -3.8972  -3.8513  -3.7756
    -3.5846  -3.5744  -3.5293  -3.4169  -2.9190  -2.8818  -2.8692  -2.8255
    -2.3908  -2.3735  -2.3058  -2.2825  -2.2384  -2.2197  -2.0908   0.3686
     0.5179   0.5795   0.6380   0.7642   0.7847   0.9029   0.9170   0.9287
     0.9614   1.0455   1.2039   1.2926   1.3176   1.5206   1.6046   1.8844
     1.9243   1.9374   1.9849   2.0719   2.1875   2.3189   2.3595   2.5510
     2.5625   2.7191   2.7220   2.7544   2.8414   3.0570   3.1833   3.2880
     3.4072   3.4218   3.4290   3.4520   3.5677   3.6771   4.0110   4.0464
     4.2000   4.3921   4.4344   4.4556   4.7537   4.8358   5.2983   5.3000
     5.7857   5.9329   6.3809   6.6482   6.8927   6.9547   7.2584   7.2839
     7.4095   7.6720   7.7014   7.7415   7.8588   8.0613   8.0903   8.1407
     8.1517   8.2460   8.2480   8.3679   8.3727   8.5227   8.6863   8.8100
     8.9000   8.9257   9.0657   9.2315   9.3071   9.4324   9.5801   9.6033
     9.6930   9.7903   9.8744  10.0051  10.0848  10.1643  10.3248  10.3709
    10.4610  10.4771  10.5918  10.6723  10.7594  10.8716  10.8924  11.0293
    11.1858  11.2694  11.3360  11.6378  11.7681  11.8090  11.9285  11.9609
    12.0858  12.1086  12.2065  12.2336  12.3056  12.3841  12.4836  12.5949
    12.8042  12.8211  12.9696  13.0317  13.1312  13.2057  13.2426  13.2935
    13.3190  13.3949  13.5566  13.6036  13.6601  13.7296  13.8311  13.8592
    14.0440  14.0633  14.1949  14.2119  14.2586  14.3773  14.4190  14.4496
    14.4704  14.5196  14.5994  14.6363  14.8424  14.9087  14.9781  15.1003
    15.1403  15.3896  15.3958  15.4407  15.4797  15.5154  15.6715  15.7424
    15.8270  15.8780  15.8966  15.9049  16.0786  16.1007  16.1450  16.1992
    16.2131  16.3193  16.3689  16.3996  16.4433  16.4779  16.5490  16.6184
    16.6865  16.7157  16.7295  16.7809  16.8206  16.9321  16.9680  17.0304
    17.0751  17.1376  17.2589  17.2816  17.3317  17.3812  17.4286  17.6111
    17.6393  17.6828  17.7451  17.7783  17.8745  17.9129  18.1365  18.1541
    18.2084  18.2227  18.2838  18.3729  18.4601  18.4667  18.4957  18.5051
    18.5271  18.5432  18.5915  18.7011  18.7310  18.7688  18.7798

          k =-0.5000 0.2258 0.0000 ( 29954 PWs)   bands (ev):

   -61.2706 -61.2692 -60.9988 -60.7340 -59.9488 -59.9290 -59.4451 -59.4445
   -37.5516 -37.5321 -37.4189 -37.4143 -37.3470 -37.3455 -37.3280 -37.1290
   -37.1021 -36.9221 -36.9165 -36.9153 -36.2867 -36.2713 -36.2150 -36.1961
   -35.9835 -35.9575 -35.7589 -35.7584 -35.6164 -35.6120 -35.5668 -35.5663
   -24.8514 -21.1835 -21.1822 -20.1920 -19.5672 -19.3709 -19.3599 -19.3393
   -19.1919 -19.0355 -19.0025 -18.9324 -18.9065 -18.8402 -18.8051 -17.9229
   -17.8963 -17.6272 -17.4477 -17.4340  -9.5109  -8.8541  -8.8134  -7.8883
    -7.3044  -6.9892  -6.9341  -6.9170  -6.7928  -6.7459  -6.6696  -6.6294
    -6.5920  -6.5120  -6.4471  -6.3923  -6.3552  -6.0623  -5.9633  -5.7710
    -5.7539  -5.6358  -5.6037  -5.4487  -5.3560  -5.3285  -5.2628  -5.0928
    -4.9552  -4.7459  -4.6546  -4.4975  -4.4581  -4.4246  -4.3496  -4.3037
    -4.2878  -4.2709  -4.1723  -4.1497  -4.0749  -3.9278  -3.8428  -3.7308
    -3.6346  -3.5769  -3.5503  -3.3783  -2.8976  -2.8316  -2.7465  -2.7207
    -2.4163  -2.3721  -2.3505  -2.2925  -2.2538  -2.1848  -2.0538   0.3979
     0.5379   0.5902   0.6414   0.7166   0.7878   0.8777   0.9387   1.1519
     1.2186   1.2375   1.3189   1.3262   1.3887   1.5185   1.6347   1.9060
     1.9074   1.9584   2.0490   2.1122   2.1751   2.3023   2.3136   2.5432
     2.5610   2.5749   2.5821   2.6630   2.7509   2.9264   2.9335   3.2694
     3.2932   3.3263   3.5005   3.5216   3.8032   3.8201   4.0424   4.1462
     4.2465   4.5598   4.6167   4.6319   4.9442   5.0220   5.4622   5.4732
     5.9230   5.9767   6.2543   6.3214   6.3712   6.5231   6.7195   6.7997
     6.8524   7.0714   7.1382   7.3476   7.3899   7.4679   7.7612   7.9399
     8.0270   8.2898   8.3193   8.4994   8.7219   8.7808   8.8593   8.9047
     9.1683   9.2396   9.4079   9.5224   9.6480   9.7344   9.9217   9.9565
    10.0009  10.1189  10.2100  10.2194  10.2323  10.3524  10.5142  10.5386
    10.7699  10.8916  10.9175  11.0113  11.1256  11.1942  11.2186  11.3745
    11.4621  11.5951  11.7217  11.7577  11.8350  11.9377  12.0804  12.1806
    12.2209  12.2781  12.3632  12.4357  12.5296  12.6344  12.7529  12.7967
    12.8884  12.9579  13.0278  13.0941  13.2763  13.3073  13.4005  13.4301
    13.4697  13.5289  13.5512  13.6288  13.6943  13.7450  13.8835  13.9201
    13.9358  13.9913  14.0934  14.1720  14.2212  14.2403  14.2770  14.3284
    14.4418  14.4552  14.5417  14.5598  14.6579  14.8204  14.8665  14.9301
    14.9751  15.0187  15.0628  15.0816  15.1416  15.1634  15.2309  15.2605
    15.3576  15.4297  15.4397  15.4848  15.5061  15.5537  15.6299  15.6641
    15.7854  15.8049  15.8796  15.8950  15.9685  16.0467  16.0925  16.1627
    16.2503  16.3688  16.4070  16.4126  16.5191  16.5849  16.6078  16.7065
    16.7800  16.8215  16.8975  16.9274  17.0423  17.0699  17.2171  17.2758
    17.2940  17.3577  17.4163  17.4523  17.5480  17.6458  17.7612  17.8703
    17.8963  17.9258  18.0132  18.0500  18.2655  18.3272  18.4678  18.5629
    18.6142  18.6355  18.6716  18.6960  18.7326  18.8004  18.8508

          k =-0.5000-0.4516 0.0000 ( 29868 PWs)   bands (ev):

   -61.2706 -61.2692 -60.9988 -60.7340 -59.9488 -59.9289 -59.4452 -59.4446
   -37.5517 -37.5322 -37.4189 -37.4143 -37.3466 -37.3452 -37.3280 -37.1294
   -37.1016 -36.9217 -36.9170 -36.9150 -36.2861 -36.2707 -36.2160 -36.1971
   -35.9834 -35.9575 -35.7592 -35.7585 -35.6164 -35.6120 -35.5669 -35.5663
   -24.8512 -21.1813 -21.1800 -20.1836 -19.4814 -19.3221 -19.3133 -19.2268
   -19.1880 -19.1577 -19.1280 -19.0006 -18.9474 -18.8443 -18.8023 -17.9204
   -17.8926 -17.6334 -17.4470 -17.4266  -9.5061  -8.8450  -8.8038  -7.8955
    -7.3074  -6.9664  -6.7092  -6.7018  -6.6697  -6.6257  -6.6060  -6.5620
    -6.5566  -6.3422  -6.2762  -6.2089  -6.1899  -6.0388  -5.9932  -5.8581
    -5.8391  -5.6537  -5.6297  -5.5743  -5.5222  -5.4860  -5.3903  -5.0895
    -4.9368  -4.7534  -4.7372  -4.7362  -4.6927  -4.6448  -4.5731  -4.4595
    -4.4213  -4.3040  -4.1962  -4.1749  -4.0858  -4.0603  -3.9878  -3.6595
    -3.5921  -3.5713  -3.5219  -3.3330  -2.8832  -2.8088  -2.6624  -2.6513
    -2.4570  -2.3676  -2.3346  -2.3068  -2.2293  -2.1688  -2.0291   0.4194
     0.6062   0.6181   0.6406   0.6715   0.7865   0.8876   0.9531   1.2849
     1.3039   1.3150   1.3793   1.4047   1.5989   1.7677   1.7792   1.9232
     1.9637   2.0687   2.1027   2.1409   2.1581   2.1832   2.2250   2.2343
     2.2568   2.5140   2.5840   2.5943   2.6113   2.8271   2.8693   3.3351
     3.3545   3.3875   3.4228   3.4285   3.8862   3.9068   4.1244   4.2635
     4.2638   4.9205   4.9318   4.9422   5.3555   5.3733   5.5465   5.5485
     5.6385   5.6436   5.8803   5.9072   6.0386   6.1439   6.3839   6.4987
     6.5480   6.8022   6.9639   7.2288   7.2608   7.6019   7.6105   7.7488
     7.8860   8.0946   8.1514   8.2745   8.3726   8.6801   8.7202   8.7835
     9.1020   9.2058   9.4273   9.4748   9.7561   9.7927  10.0184  10.1173
    10.4043  10.4473  10.6473  10.6899  10.7904  10.8422  10.9376  11.2380
    11.4563  11.5720  11.6116  11.7354  11.8080  11.8238  11.8600  11.9967
    12.0533  12.0746  12.1456  12.1614  12.3228  12.3939  12.4677  12.4839
    12.5540  12.5811  12.6002  12.6954  12.7052  12.7652  12.7794  12.7909
    12.9659  12.9800  13.0145  13.0513  13.0924  13.1081  13.1770  13.2087
    13.3906  13.4000  13.4424  13.5392  13.6111  13.6279  13.6368  13.6858
    13.7233  13.7971  13.8177  13.8585  13.9279  13.9403  14.0392  14.0881
    14.1099  14.2341  14.2492  14.3056  14.3701  14.3831  14.4022  14.4359
    14.4963  14.5143  14.6319  14.6549  14.7277  14.7396  14.7920  14.9347
    14.9425  15.0124  15.0479  15.0770  15.1863  15.1994  15.2541  15.3179
    15.4813  15.5028  15.6178  15.7138  15.7706  15.8585  15.9272  15.9578
    16.0029  16.0605  16.0783  16.0997  16.2255  16.2770  16.3844  16.4409
    16.4706  16.6775  16.7519  16.7906  16.8352  16.9388  17.0186  17.0593
    17.2244  17.2301  17.2639  17.4050  17.4498  17.4576  17.6021  17.6168
    17.8172  17.9655  17.9860  18.0406  18.1184  18.1514  18.2574  18.2659
    18.3762  18.4299  18.5272  18.5430  18.7876  18.8049  18.9964

          k =-0.2500 0.2258 0.0000 ( 29912 PWs)   bands (ev):

   -61.2808 -61.2564 -60.9983 -60.7323 -59.9544 -59.9209 -59.4568 -59.4308
   -37.6658 -37.4572 -37.4364 -37.3579 -37.3568 -37.3362 -37.3290 -37.1953
   -37.1070 -36.9210 -36.9125 -36.8502 -36.4278 -36.2412 -36.1710 -36.1297
   -35.9876 -35.9540 -35.7694 -35.7486 -35.7279 -35.6298 -35.5675 -35.4363
   -24.8515 -21.3123 -21.0914 -20.1932 -19.7119 -19.6522 -19.2904 -19.2244
   -19.1104 -18.9959 -18.9757 -18.9513 -18.9048 -18.7547 -18.7153 -18.0962
   -17.8280 -17.6261 -17.3877 -17.3675  -9.5102  -8.9346  -8.7194  -7.8921
    -7.2712  -7.1472  -7.1318  -7.0214  -6.9486  -6.6846  -6.6558  -6.5887
    -6.5414  -6.5077  -6.4372  -6.3087  -6.2471  -6.1718  -6.0961  -5.9680
    -5.8830  -5.6781  -5.6163  -5.4244  -5.3131  -5.0851  -4.9891  -4.8662
    -4.8525  -4.7604  -4.7229  -4.6492  -4.5556  -4.4960  -4.4157  -4.3456
    -4.3180  -4.2663  -4.2202  -4.0817  -4.0449  -3.9002  -3.8194  -3.7018
    -3.6308  -3.4828  -3.2879  -3.0863  -2.9103  -2.7794  -2.7585  -2.6840
    -2.5654  -2.4237  -2.3417  -2.2951  -2.2230  -2.1074  -2.0576   0.2430
     0.4876   0.5995   0.6309   0.6677   0.8181   0.9002   0.9989   1.0347
     1.1306   1.1985   1.2648   1.4667   1.5069   1.5977   1.6998   1.8721
     1.9102   1.9670   2.0682   2.1368   2.1508   2.2708   2.3337   2.3495
     2.4352   2.5447   2.5669   2.5993   2.8440   3.0228   3.0966   3.1812
     3.2276   3.3713   3.5314   3.5791   3.7836   3.8967   3.9278   4.0728
     4.1851   4.2606   4.3553   4.7103   5.1456   5.2459   5.6078   5.6716
     5.7163   6.0142   6.0957   6.2973   6.4035   6.6413   6.7300   7.0332
     7.1711   7.3521   7.4967   7.6067   7.7656   7.9934   8.0412   8.1115
     8.2132   8.2920   8.4648   8.4923   8.7146   8.7647   8.8809   8.9707
     9.1188   9.1416   9.2514   9.3836   9.5141   9.6382   9.6923   9.7565
     9.8577   9.9721  10.1233  10.2997  10.3490  10.3877  10.4719  10.5687
    10.6207  10.7629  10.8619  10.9430  11.0222  11.0927  11.1797  11.2633
    11.3417  11.4338  11.5017  11.5675  11.6406  11.7338  11.7749  11.8679
    11.9511  12.0560  12.1041  12.1653  12.2153  12.2949  12.3338  12.4354
    12.5166  12.5596  12.6124  12.6998  12.7715  12.9371  12.9954  13.0383
    13.0595  13.1406  13.1818  13.3164  13.4420  13.5578  13.5797  13.7246
    13.7775  13.8882  13.9032  14.0006  14.0613  14.1328  14.2110  14.2457
    14.2949  14.3329  14.4432  14.5176  14.5600  14.5924  14.6624  14.7701
    14.8306  14.9611  14.9984  15.1123  15.1358  15.2206  15.3262  15.3706
    15.4944  15.5256  15.5612  15.6321  15.6611  15.7470  15.8054  15.8740
    15.9684  16.0245  16.0862  16.1499  16.1981  16.3039  16.3636  16.4471
    16.5083  16.5847  16.6143  16.7044  16.8006  16.8485  16.8869  16.9185
    17.0105  17.1027  17.1472  17.2307  17.2773  17.3518  17.4201  17.4540
    17.5369  17.5925  17.6550  17.7793  17.8656  17.9223  17.9531  18.0492
    18.1355  18.1737  18.2872  18.3576  18.4161  18.4800  18.6135  18.6389
    18.6799  18.7446  18.8015  18.8612  18.9619  19.0603  19.1115

     the Fermi energy is    -2.0455 ev

!    total energy              =   -1596.74486116 Ry
     Harris-Foulkes estimate   =   -1596.74486117 Ry
     estimated scf accuracy    <          9.7E-09 Ry

     The total energy is the sum of the following terms:

     one-electron contribution =  -19087.00156808 Ry
     hartree contribution      =    9564.28897107 Ry
     xc contribution           =    -284.42813533 Ry
     ewald contribution        =    8207.06293473 Ry
     Hubbard energy            =       3.33412194 Ry
     smearing contrib. (-TS)   =      -0.00118549 Ry

     convergence has been achieved in   9 iterations

     Forces acting on atoms (Ry/au):


     negative rho (up, down):  0.108E+00 0.000E+00
     atom    1 type  1   force =    -0.00271536   -0.01498192    0.00008088
     atom    2 type  1   force =     0.00004800    0.01694845    0.00026471
     atom    3 type  2   force =     0.03887520   -0.00750523   -0.00043191
     atom    4 type  2   force =     0.00152113    0.00972986    0.00024480
     atom    5 type  1   force =    -0.00115469   -0.08960516   -0.00032049
     atom    6 type  1   force =    -0.00420084    0.08763074   -0.00030675
     atom    7 type  1   force =     0.00009480   -0.00114818   -0.00042791
     atom    8 type  1   force =     0.00060612   -0.00076871    0.00019223
     atom    9 type  2   force =     0.00195331    0.00010370   -0.00028007
     atom   10 type  2   force =     0.00002784   -0.00114510   -0.00007478
     atom   11 type  1   force =    -0.02384809   -0.01235700    0.00041695
     atom   12 type  1   force =    -0.02098271    0.01760755    0.00038041
     atom   13 type  1   force =     0.00008079   -0.00252886    0.00036044
     atom   14 type  1   force =    -0.00452469   -0.01508797   -0.00015244
     atom   15 type  1   force =     0.00010369    0.01734134    0.00024543
     atom   16 type  2   force =    -0.03875503   -0.00807306   -0.00043252
     atom   17 type  2   force =     0.00144564    0.00924803    0.00029193
     atom   18 type  1   force =     0.00509443   -0.08973594   -0.00028979
     atom   19 type  1   force =     0.00341664    0.08800758   -0.00035024
     atom   20 type  1   force =    -0.00008773   -0.00063201   -0.00052836
     atom   21 type  1   force =     0.00050108   -0.00006036    0.00010587
     atom   22 type  2   force =    -0.00224071    0.00012548   -0.00028033
     atom   23 type  2   force =    -0.00008833   -0.00285230   -0.00002669
     atom   24 type  1   force =     0.02396899   -0.01223935    0.00042428
     atom   25 type  1   force =     0.02088387    0.01746698    0.00038164
     atom   26 type  1   force =     0.00013472   -0.00527904    0.00061195
     atom   27 type  3   force =     0.00000577   -0.00022296    0.00017664
     atom   28 type  3   force =     0.00001381   -0.00030232    0.00005888
     atom   29 type  3   force =    -0.00014954   -0.00014583   -0.00009310
     atom   30 type  3   force =    -0.00003505   -0.00017270   -0.00020514
     atom   31 type  1   force =     0.00018108    0.00006528   -0.00013190
     atom   32 type  1   force =    -0.00023140    0.00010352   -0.00048462
     atom   33 type  3   force =     0.00005725    0.00046550    0.00058001

     Total force =     0.002007     Total SCF correction =     0.000170

     bfgs converged in   7 scf cycles and   6 bfgs steps
     (criteria: energy < 0.10E-03, force < 0.10E-02)

     End of BFGS Geometry Optimization

     Final energy   =   -1596.7448611577 Ry
Begin final coordinates

ATOMIC_POSITIONS (crystal)
O0       0.000000000   0.000000000   0.376119354    0   0   1
O0       0.000000000   0.500000000   0.398046150    0   0   1
Ti1      0.250000000   0.500000000   0.450677278    0   0   1
Ti1      0.000000000   0.000000000   0.450439131    0   0   1
O0       0.250000000   0.810000000   0.449397492    0   0   1
O0       0.250000000   0.190000000   0.450515749    0   0   1
O0       0.000000000   0.500000000   0.498405195    0   0   1
O0       0.000000000   0.000000000   0.526723511    0   0   1
Ti1      0.250000000   0.000000000   0.580988802    0   0   1
Ti1      0.000000000   0.500000000   0.570404120    0   0   1
O0       0.250000000   0.690000000   0.579000340    0   0   1
O0       0.250000000   0.310000000   0.580603251    0   0   1
O0       0.000000000   0.000000000   0.624487165    0   0   1
O0       0.500000000   0.000000000   0.376970078    0   0   1
O0       0.500000000   0.500000000   0.398114970    0   0   1
Ti1      0.750000000   0.500000000   0.450688743    0   0   1
Ti1      0.500000000   0.000000000   0.452129764    0   0   1
O0       0.750000000   0.810000000   0.449371083    0   0   1
O0       0.750000000   0.190000000   0.450588394    0   0   1
O0       0.500000000   0.500000000   0.498274163    0   0   1
O0       0.500000000   0.000000000   0.526909326    0   0   1
Ti1      0.750000000   0.000000000   0.580998801    0   0   1
Ti1      0.500000000   0.500000000   0.581438390    0   0   1
O0       0.750000000   0.690000000   0.578993412    0   0   1
O0       0.750000000   0.310000000   0.580595004    0   0   1
O0       0.500000000   0.000000000   0.623875808    0   0   1
H2      -0.000223220   0.629989130   0.378974410
H2       0.499823763   0.630988679   0.379425374
H2       0.152224811   0.030724414   0.363149916
H2       0.651248161   0.032256832   0.363737463
O0       0.500310000   0.538544147   0.658327175    0   1   1
O0       0.499120000   0.357208441   0.686242701    0   1   1
H2       0.500360000   0.412428406   0.720877486    0   1   1
End final coordinates


 
     init_run     :    117.31s CPU    130.17s WALL (       1 calls)
     electrons    :  23517.90s CPU  23695.06s WALL (       7 calls)
     update_pot   :    146.29s CPU    146.76s WALL (       6 calls)
     forces       :   1273.98s CPU   1276.54s WALL (       7 calls)

     Called by init_run:
     wfcinit      :     53.89s CPU     66.38s WALL (       1 calls)
     potinit      :     10.01s CPU     10.10s WALL (       1 calls)

     Called by electrons:
     c_bands      :  14271.78s CPU  14408.75s WALL (     105 calls)
     sum_band     :   5316.63s CPU   5334.11s WALL (     105 calls)
     v_of_rho     :    175.14s CPU    180.72s WALL (     110 calls)
     newd         :   3927.39s CPU   3936.67s WALL (     110 calls)
     mix_rho      :     30.40s CPU     30.52s WALL (     105 calls)

     Called by c_bands:
     init_us_2    :     29.97s CPU     30.01s WALL (     696 calls)
     cegterg      :  14063.18s CPU  14189.44s WALL (     315 calls)

     Called by *egterg:
     h_psi        :   7610.55s CPU   7625.95s WALL (    1026 calls)
     s_psi        :    974.10s CPU    974.35s WALL (    1068 calls)
     g_psi        :     26.92s CPU     26.94s WALL (     708 calls)
     cdiaghg      :   1467.85s CPU   1468.22s WALL (     999 calls)

     Called by h_psi:
     add_vuspsi   :    931.17s CPU    931.44s WALL (    1026 calls)
     vhpsi        :    838.22s CPU    838.56s WALL (    1026 calls)

     General routines
     calbec       :   2364.25s CPU   2365.56s WALL (    9003 calls)
     fft          :    206.72s CPU    209.99s WALL (    1823 calls)
     ffts         :      4.33s CPU      4.41s WALL (     215 calls)
     fftw         :   4745.20s CPU   4762.12s WALL (  532519 calls)
     interpolate  :     30.56s CPU     30.75s WALL (     215 calls)
     davcio       :      0.04s CPU     24.10s WALL (     717 calls)
 
     Parallel routines
     fft_scatter  :   1397.99s CPU   1414.55s WALL (  534557 calls)
     Hubbard U routines
     new_ns       :    193.66s CPU    199.31s WALL (     105 calls)
     vhpsi        :    838.22s CPU    838.56s WALL (    1026 calls)
     force_hub    :    439.71s CPU    440.97s WALL (       7 calls)
 
     PWSCF        :     7h 1m CPU        7h 4m WALL

 
   This run was terminated on:  20:16:32  15Oct2014            

=------------------------------------------------------------------------------=
   JOB DONE.
=------------------------------------------------------------------------------=
