
     Program PWSCF v.5.0.2 (svn rev. 9656) starts on 28Mar2014 at  6:21:46 

     This program is part of the open-source Quantum ESPRESSO suite
     for quantum simulation of materials; please cite
         "P. Giannozzi et al., J. Phys.:Condens. Matter 21 395502 (2009);
          URL http://www.quantum-espresso.org", 
     in publications or presentations arising from this work. More details at
     http://www.quantum-espresso.org/quote.php

     Parallel version (MPI), running on    32 processors
     R & G space division:  proc/nbgrp/npool/nimage =      32

     Current dimensions of program PWSCF are:
     Max number of different atomic species (ntypx) = 10
     Max number of k-points (npk) =  40000
     Max angular momentum in pseudopotentials (lmaxx) =  3
     Reading input from pwscf.in
Warning: card &CELL ignored
Warning: card / ignored

     Subspace diagonalization in iterative solution of the eigenvalue problem:
     a serial algorithm will be used


     Parallelization info
     --------------------
     sticks:   dense  smooth     PW     G-vecs:    dense   smooth      PW
     Min         177      57     15                57345    10357    1521
     Max         178      58     16                57362    10414    1554
     Sum        5677    1827    505              1835289   332293   49225



     bravais-lattice index     =            0
     lattice parameter (alat)  =      11.7919  a.u.
     unit-cell volume          =    9723.6088 (a.u.)^3
     number of atoms/cell      =           50
     number of atomic types    =            3
     number of electrons       =       455.00
     number of Kohn-Sham states=          658
     kinetic-energy cutoff     =      40.0000  Ry
     charge density cutoff     =     500.0000  Ry
     convergence threshold     =      1.0E-06
     mixing beta               =       0.3000
     number of iterations used =            8  plain     mixing
     Exchange-correlation      = SLA  PW   PBE  PBE ( 1 4 3 4 0)
     EXX-fraction              =        0.00
     nstep                     =           50


     celldm(1)=  11.791891  celldm(2)=   0.000000  celldm(3)=   0.000000
     celldm(4)=   0.000000  celldm(5)=   0.000000  celldm(6)=   0.000000

     crystal axes: (cart. coord. in units of alat)
               a(1) = (   1.000000   0.000000   0.000000 )  
               a(2) = (   0.000000   1.026665   0.000000 )  
               a(3) = (   0.000000   0.000000   5.776283 )  

     reciprocal axes: (cart. coord. in units 2 pi/alat)
               b(1) = (  1.000000  0.000000  0.000000 )  
               b(2) = (  0.000000  0.974028  0.000000 )  
               b(3) = (  0.000000  0.000000  0.173122 )  


     PseudoPot. # 1 for O  read from file:
     /home/camp/zhonxu/pseudo/o_pbe_v1.01.uspp.F.UPF
     MD5 check sum: 2bcb18d16ea4b960afae9ec6d52f22d2
     Pseudo is Ultrasoft + core correction, Zval =  6.0
     Generated by new atomic code, or converted to UPF format
     Using radial grid of  737 points,  5 beta functions with: 
                l(1) =   0
                l(2) =   0
                l(3) =   1
                l(4) =   1
                l(5) =   2
     Q(r) pseudized with  8 coefficients,  rinner =    0.900   0.900   0.900
                                                       0.900   0.900

     PseudoPot. # 2 for Ru read from file:
     /home/camp/zhonxu/pseudo/ru_pbe_v1.uspp.F.UPF
     MD5 check sum: df00be1c11b23341d9806d8f1dfa10cf
     Pseudo is Ultrasoft + core correction, Zval = 16.0
     Generated by new atomic code, or converted to UPF format
     Using radial grid of  967 points,  6 beta functions with: 
                l(1) =   0
                l(2) =   0
                l(3) =   1
                l(4) =   1
                l(5) =   2
                l(6) =   2
     Q(r) pseudized with  8 coefficients,  rinner =    1.300   1.300   1.300
                                                       1.300   1.300

     PseudoPot. # 3 for H  read from file:
     /home/camp/zhonxu/pseudo/h_pbe_v1.uspp.F.UPF
     MD5 check sum: 3408e3ff4ec8b0a4e358431e7e038a48
     Pseudo is Ultrasoft, Zval =  1.0
     Generated by new atomic code, or converted to UPF format
     Using radial grid of  615 points,  2 beta functions with: 
                l(1) =   0
                l(2) =   0
     Q(r) pseudized with  8 coefficients,  rinner =    0.700

     atomic species   valence    mass     pseudopotential
        O0             6.00    15.99940     O ( 1.00)
        Ru1           16.00   101.07000     Ru( 1.00)
        H2             1.00     1.00794     H ( 1.00)

      2 Sym. Ops. (no inversion) found



   Cartesian axes

     site n.     atom                  positions (alat units)
         1           O0  tau(   1) = (   0.0000000   0.5133323   1.9230980  )
         2           Ru1 tau(   2) = (   0.2500000   0.5133323   2.1181631  )
         3           Ru1 tau(   3) = (   0.0000000   0.0000000   2.1181631  )
         4           O0  tau(   4) = (   0.2500000   0.8315984   2.1181631  )
         5           O0  tau(   5) = (   0.2500000   0.1950663   2.1181631  )
         6           O0  tau(   6) = (   0.0000000   0.5133323   2.3132282  )
         7           O0  tau(   7) = (   0.0000000   0.0000000   2.4364363  )
         8           Ru1 tau(   8) = (   0.2500000   0.0000000   2.6315014  )
         9           Ru1 tau(   9) = (   0.0000000   0.5133323   2.6315014  )
        10           O0  tau(  10) = (   0.2500000   0.7083986   2.6315014  )
        11           O0  tau(  11) = (   0.2500000   0.3182660   2.6315014  )
        12           O0  tau(  12) = (   0.0000000   0.0000000   2.8265665  )
        13           O0  tau(  13) = (   0.0000000   0.5133323   2.9427276  )
        14           Ru1 tau(  14) = (   0.2500000   0.5133323   3.1406808  )
        15           Ru1 tau(  15) = (   0.0000000   0.0000000   3.1457639  )
        16           O0  tau(  16) = (   0.2500000   0.8279742   3.1435689  )
        17           O0  tau(  17) = (   0.2500000   0.1986904   3.1435689  )
        18           O0  tau(  18) = (   0.0000000   0.5133323   3.3386918  )
        19           O0  tau(  19) = (   0.0000000   0.0000000   3.4580876  )
        20           Ru1 tau(  20) = (   0.2500000   0.0000000   3.6718101  )
        21           Ru1 tau(  21) = (   0.0000000   0.5133323   3.6403293  )
        22           O0  tau(  22) = (   0.2500000   0.7080495   3.6659760  )
        23           O0  tau(  23) = (   0.2500000   0.3186151   3.6659760  )
        24           O0  tau(  24) = (   0.0000000   0.0000000   3.8466582  )
        25           O0  tau(  25) = (   0.5000000   0.5133323   1.9230980  )
        26           Ru1 tau(  26) = (   0.7500000   0.5133323   2.1181631  )
        27           Ru1 tau(  27) = (   0.5000000   0.0000000   2.1181631  )
        28           O0  tau(  28) = (   0.7500000   0.8315984   2.1181631  )
        29           O0  tau(  29) = (   0.7500000   0.1950663   2.1181631  )
        30           O0  tau(  30) = (   0.5000000   0.5133323   2.3132282  )
        31           O0  tau(  31) = (   0.5000000   0.0000000   2.4364363  )
        32           Ru1 tau(  32) = (   0.7500000   0.0000000   2.6315014  )
        33           Ru1 tau(  33) = (   0.5000000   0.5133323   2.6315014  )
        34           O0  tau(  34) = (   0.7500000   0.7083986   2.6315014  )
        35           O0  tau(  35) = (   0.7500000   0.3182660   2.6315014  )
        36           O0  tau(  36) = (   0.5000000   0.0000000   2.8265665  )
        37           O0  tau(  37) = (   0.5000000   0.5133323   2.9427276  )
        38           Ru1 tau(  38) = (   0.7500000   0.5133323   3.1406808  )
        39           Ru1 tau(  39) = (   0.5000000   0.0000000   3.1457639  )
        40           O0  tau(  40) = (   0.7500000   0.8279742   3.1435689  )
        41           O0  tau(  41) = (   0.7500000   0.1986904   3.1435689  )
        42           O0  tau(  42) = (   0.5000000   0.5133323   3.3386918  )
        43           O0  tau(  43) = (   0.5000000   0.0000000   3.4580876  )
        44           Ru1 tau(  44) = (   0.7500000   0.0000000   3.6718101  )
        45           Ru1 tau(  45) = (   0.5000000   0.5133323   3.6403293  )
        46           O0  tau(  46) = (   0.7500000   0.7080495   3.6659760  )
        47           O0  tau(  47) = (   0.7500000   0.3186151   3.6659760  )
        48           O0  tau(  48) = (   0.5000000   0.0000000   3.8466582  )
        49           O0  tau(  49) = (   0.5000000   0.5133323   3.8530698  )
        50           H2  tau(  50) = (   0.3637800   0.5133323   3.9091576  )

     number of k points=     9  Methfessel-Paxton smearing, width (Ry)=  0.0100
                       cart. coord. in units 2pi/alat
        k(    1) = (   0.0000000   0.0000000   0.0000000), wk =   0.1250000
        k(    2) = (   0.0000000   0.2435070   0.0000000), wk =   0.2500000
        k(    3) = (   0.0000000  -0.4870139   0.0000000), wk =   0.1250000
        k(    4) = (   0.2500000   0.0000000   0.0000000), wk =   0.2500000
        k(    5) = (   0.2500000   0.2435070   0.0000000), wk =   0.5000000
        k(    6) = (   0.2500000  -0.4870139   0.0000000), wk =   0.2500000
        k(    7) = (  -0.5000000   0.0000000   0.0000000), wk =   0.1250000
        k(    8) = (  -0.5000000   0.2435070   0.0000000), wk =   0.2500000
        k(    9) = (  -0.5000000  -0.4870139   0.0000000), wk =   0.1250000

     Dense  grid:  1835289 G-vectors     FFT dimensions: (  90,  90, 486)

     Smooth grid:   332293 G-vectors     FFT dimensions: (  48,  50, 288)

     Largest allocated arrays     est. size (Mb)     dimensions
        Kohn-Sham Wavefunctions        13.52 Mb     (   1347,  658)
        NL pseudopotentials            14.78 Mb     (   1347,  719)
        Each V/rho on FFT grid          1.98 Mb     ( 129600)
        Each G-vector array             0.44 Mb     (  57362)
        G-vector shells                 0.22 Mb     (  28219)
     Largest temporary arrays     est. size (Mb)     dimensions
        Auxiliary wavefunctions        54.10 Mb     (   1347, 2632)
        Each subspace H/S matrix      105.70 Mb     (2632,2632)
        Each <psi_i|beta_j> matrix      7.22 Mb     (    719,  658)
        Arrays for rho mixing          15.82 Mb     ( 129600,   8)

     Check: negative/imaginary core charge=   -0.000004    0.000000

     Initial potential from superposition of free atoms
     Check: negative starting charge=   -1.045864

     starting charge  438.99969, renormalised to  455.00000

     negative rho (up, down):  0.108E+01 0.000E+00
     Starting wfc are  341 randomized atomic wfcs

     total cpu time spent up to now is       85.0 secs

     Self-consistent Calculation

     iteration #  1     ecut=    40.00 Ry     beta=0.30
     Davidson diagonalization with overlap
     ethr =  1.00E-02,  avg # of iterations =  5.8

     negative rho (up, down):  0.115E+01 0.000E+00

     total cpu time spent up to now is     1694.3 secs

     total energy              =   -4014.79781267 Ry
     Harris-Foulkes estimate   =   -4166.82693367 Ry
     estimated scf accuracy    <     302.08719382 Ry

     iteration #  2     ecut=    40.00 Ry     beta=0.30
     Davidson diagonalization with overlap
     ethr =  1.00E-02,  avg # of iterations =  8.0

     negative rho (up, down):  0.114E+01 0.000E+00

     total cpu time spent up to now is     3169.2 secs

     total energy              =   -3560.59683062 Ry
     Harris-Foulkes estimate   =   -5424.89312804 Ry
     estimated scf accuracy    <   46536.82928501 Ry

     iteration #  3     ecut=    40.00 Ry     beta=0.30
     Davidson diagonalization with overlap
     ethr =  1.00E-02,  avg # of iterations =  6.0

     negative rho (up, down):  0.114E+01 0.000E+00

     total cpu time spent up to now is     4376.5 secs

     total energy              =   -4111.46839373 Ry
     Harris-Foulkes estimate   =   -4236.13252126 Ry
     estimated scf accuracy    <    3064.74892336 Ry

     iteration #  4     ecut=    40.00 Ry     beta=0.30
     Davidson diagonalization with overlap
     ethr =  1.00E-02,  avg # of iterations =  5.0

     negative rho (up, down):  0.115E+01 0.000E+00

     total cpu time spent up to now is     5149.4 secs

     total energy              =   -4148.49607594 Ry
     Harris-Foulkes estimate   =   -4166.18387448 Ry
     estimated scf accuracy    <     313.40147167 Ry

     iteration #  5     ecut=    40.00 Ry     beta=0.30
     Davidson diagonalization with overlap
     ethr =  1.00E-02,  avg # of iterations =  2.7

     negative rho (up, down):  0.115E+01 0.000E+00

     total cpu time spent up to now is     5487.1 secs

     total energy              =   -4152.57397456 Ry
     Harris-Foulkes estimate   =   -4160.40982860 Ry
     estimated scf accuracy    <      67.80523498 Ry

     iteration #  6     ecut=    40.00 Ry     beta=0.30
     Davidson diagonalization with overlap
     ethr =  1.00E-02,  avg # of iterations =  1.0

     negative rho (up, down):  0.115E+01 0.000E+00

     total cpu time spent up to now is     5715.7 secs

     total energy              =   -4155.70903990 Ry
     Harris-Foulkes estimate   =   -4158.09269517 Ry
     estimated scf accuracy    <      58.36357320 Ry

     iteration #  7     ecut=    40.00 Ry     beta=0.30
     Davidson diagonalization with overlap
     ethr =  1.00E-02,  avg # of iterations =  1.0

     negative rho (up, down):  0.115E+01 0.000E+00

     total cpu time spent up to now is     5945.7 secs

     total energy              =   -4156.81126735 Ry
     Harris-Foulkes estimate   =   -4157.26900149 Ry
     estimated scf accuracy    <      21.91278449 Ry

     iteration #  8     ecut=    40.00 Ry     beta=0.30
     Davidson diagonalization with overlap
     ethr =  4.82E-03,  avg # of iterations =  1.0

     negative rho (up, down):  0.115E+01 0.000E+00

     total cpu time spent up to now is     6175.8 secs

     total energy              =   -4156.79076881 Ry
     Harris-Foulkes estimate   =   -4157.09680099 Ry
     estimated scf accuracy    <       7.77166991 Ry

     iteration #  9     ecut=    40.00 Ry     beta=0.30
     Davidson diagonalization with overlap
     ethr =  1.71E-03,  avg # of iterations =  2.6

     negative rho (up, down):  0.115E+01 0.000E+00

     total cpu time spent up to now is     6497.9 secs

     total energy              =   -4156.79516052 Ry
     Harris-Foulkes estimate   =   -4156.98305536 Ry
     estimated scf accuracy    <       1.56810493 Ry

     iteration # 10     ecut=    40.00 Ry     beta=0.30
     Davidson diagonalization with overlap
     ethr =  3.45E-04,  avg # of iterations =  5.7

     negative rho (up, down):  0.115E+01 0.000E+00

     total cpu time spent up to now is     7071.1 secs

     total energy              =   -4156.80353695 Ry
     Harris-Foulkes estimate   =   -4156.92134192 Ry
     estimated scf accuracy    <       2.80410508 Ry

     iteration # 11     ecut=    40.00 Ry     beta=0.30
     Davidson diagonalization with overlap
     ethr =  3.45E-04,  avg # of iterations =  1.4

     negative rho (up, down):  0.115E+01 0.000E+00

     total cpu time spent up to now is     7326.5 secs

     total energy              =   -4156.80143783 Ry
     Harris-Foulkes estimate   =   -4156.92960759 Ry
     estimated scf accuracy    <       2.84671536 Ry

     iteration # 12     ecut=    40.00 Ry     beta=0.30
     Davidson diagonalization with overlap
     ethr =  3.45E-04,  avg # of iterations =  1.3

     negative rho (up, down):  0.115E+01 0.000E+00

     total cpu time spent up to now is     7574.4 secs

     total energy              =   -4156.84146894 Ry
     Harris-Foulkes estimate   =   -4156.87257392 Ry
     estimated scf accuracy    <       0.22196526 Ry

     iteration # 13     ecut=    40.00 Ry     beta=0.30
     Davidson diagonalization with overlap
     ethr =  4.88E-05,  avg # of iterations =  6.3

     negative rho (up, down):  0.115E+01 0.000E+00

     total cpu time spent up to now is     8198.6 secs

     total energy              =   -4156.82789888 Ry
     Harris-Foulkes estimate   =   -4156.88537522 Ry
     estimated scf accuracy    <       1.66973887 Ry

     iteration # 14     ecut=    40.00 Ry     beta=0.30
     Davidson diagonalization with overlap
     ethr =  4.88E-05,  avg # of iterations =  7.7

     negative rho (up, down):  0.115E+01 0.000E+00

     total cpu time spent up to now is     8861.7 secs

     total energy              =   -4156.83955262 Ry
     Harris-Foulkes estimate   =   -4156.87980605 Ry
     estimated scf accuracy    <       0.99572081 Ry

     iteration # 15     ecut=    40.00 Ry     beta=0.30
     Davidson diagonalization with overlap
     ethr =  4.88E-05,  avg # of iterations =  1.9

     negative rho (up, down):  0.115E+01 0.000E+00

     total cpu time spent up to now is     9144.7 secs

     total energy              =   -4156.85786870 Ry
     Harris-Foulkes estimate   =   -4156.86273143 Ry
     estimated scf accuracy    <       0.06088581 Ry

     iteration # 16     ecut=    40.00 Ry     beta=0.30
     Davidson diagonalization with overlap
     ethr =  1.34E-05,  avg # of iterations =  4.6

     negative rho (up, down):  0.115E+01 0.000E+00

     total cpu time spent up to now is     9591.0 secs

     total energy              =   -4156.85709767 Ry
     Harris-Foulkes estimate   =   -4156.86340179 Ry
     estimated scf accuracy    <       0.07578166 Ry

     iteration # 17     ecut=    40.00 Ry     beta=0.30
     Davidson diagonalization with overlap
     ethr =  1.34E-05,  avg # of iterations =  1.0

     negative rho (up, down):  0.115E+01 0.000E+00

     total cpu time spent up to now is     9819.1 secs

     total energy              =   -4156.85592545 Ry
     Harris-Foulkes estimate   =   -4156.86539290 Ry
     estimated scf accuracy    <       0.32894195 Ry

     iteration # 18     ecut=    40.00 Ry     beta=0.30
     Davidson diagonalization with overlap
     ethr =  1.34E-05,  avg # of iterations =  1.0

     negative rho (up, down):  0.115E+01 0.000E+00

     total cpu time spent up to now is    10048.1 secs

     total energy              =   -4156.86066865 Ry
     Harris-Foulkes estimate   =   -4156.86129965 Ry
     estimated scf accuracy    <       0.01904605 Ry

     iteration # 19     ecut=    40.00 Ry     beta=0.30
     Davidson diagonalization with overlap
     ethr =  4.19E-06,  avg # of iterations =  5.7

     negative rho (up, down):  0.115E+01 0.000E+00

     total cpu time spent up to now is    10582.1 secs

     total energy              =   -4156.86089118 Ry
     Harris-Foulkes estimate   =   -4156.86131392 Ry
     estimated scf accuracy    <       0.00405276 Ry

     iteration # 20     ecut=    40.00 Ry     beta=0.30
     Davidson diagonalization with overlap
     ethr =  8.91E-07,  avg # of iterations =  3.7

     negative rho (up, down):  0.115E+01 0.000E+00

     total cpu time spent up to now is    10981.8 secs

     total energy              =   -4156.86098868 Ry
     Harris-Foulkes estimate   =   -4156.86134210 Ry
     estimated scf accuracy    <       0.00443592 Ry

     iteration # 21     ecut=    40.00 Ry     beta=0.30
     Davidson diagonalization with overlap
     ethr =  8.91E-07,  avg # of iterations =  1.3

     negative rho (up, down):  0.115E+01 0.000E+00

     total cpu time spent up to now is    11230.7 secs

     total energy              =   -4156.86106486 Ry
     Harris-Foulkes estimate   =   -4156.86127659 Ry
     estimated scf accuracy    <       0.00323938 Ry

     iteration # 22     ecut=    40.00 Ry     beta=0.30
     Davidson diagonalization with overlap
     ethr =  7.12E-07,  avg # of iterations =  1.0

     negative rho (up, down):  0.115E+01 0.000E+00

     total cpu time spent up to now is    11459.8 secs

     total energy              =   -4156.86099295 Ry
     Harris-Foulkes estimate   =   -4156.86138772 Ry
     estimated scf accuracy    <       0.00766353 Ry

     iteration # 23     ecut=    40.00 Ry     beta=0.30
     Davidson diagonalization with overlap
     ethr =  7.12E-07,  avg # of iterations =  1.0

     negative rho (up, down):  0.115E+01 0.000E+00

     total cpu time spent up to now is    11689.6 secs

     total energy              =   -4156.86115056 Ry
     Harris-Foulkes estimate   =   -4156.86123466 Ry
     estimated scf accuracy    <       0.00174009 Ry

     iteration # 24     ecut=    40.00 Ry     beta=0.30
     Davidson diagonalization with overlap
     ethr =  3.82E-07,  avg # of iterations =  1.0

     negative rho (up, down):  0.115E+01 0.000E+00

     total cpu time spent up to now is    11918.0 secs

     total energy              =   -4156.86109174 Ry
     Harris-Foulkes estimate   =   -4156.86128928 Ry
     estimated scf accuracy    <       0.00429980 Ry

     iteration # 25     ecut=    40.00 Ry     beta=0.30
     Davidson diagonalization with overlap
     ethr =  3.82E-07,  avg # of iterations =  1.0

     negative rho (up, down):  0.115E+01 0.000E+00

     total cpu time spent up to now is    12145.7 secs

     total energy              =   -4156.86114001 Ry
     Harris-Foulkes estimate   =   -4156.86127060 Ry
     estimated scf accuracy    <       0.00588188 Ry

     iteration # 26     ecut=    40.00 Ry     beta=0.30
     Davidson diagonalization with overlap
     ethr =  3.82E-07,  avg # of iterations =  1.0

     negative rho (up, down):  0.115E+01 0.000E+00

     total cpu time spent up to now is    12374.9 secs

     total energy              =   -4156.86119359 Ry
     Harris-Foulkes estimate   =   -4156.86121892 Ry
     estimated scf accuracy    <       0.00026322 Ry

     iteration # 27     ecut=    40.00 Ry     beta=0.30
     Davidson diagonalization with overlap
     ethr =  5.78E-08,  avg # of iterations =  1.0

     negative rho (up, down):  0.115E+01 0.000E+00

     total cpu time spent up to now is    12603.8 secs

     total energy              =   -4156.86119060 Ry
     Harris-Foulkes estimate   =   -4156.86122110 Ry
     estimated scf accuracy    <       0.00057429 Ry

     iteration # 28     ecut=    40.00 Ry     beta=0.30
     Davidson diagonalization with overlap
     ethr =  5.78E-08,  avg # of iterations =  1.0

     negative rho (up, down):  0.115E+01 0.000E+00

     total cpu time spent up to now is    12832.8 secs

     total energy              =   -4156.86119161 Ry
     Harris-Foulkes estimate   =   -4156.86122382 Ry
     estimated scf accuracy    <       0.00181342 Ry

     iteration # 29     ecut=    40.00 Ry     beta=0.30
     Davidson diagonalization with overlap
     ethr =  5.78E-08,  avg # of iterations =  1.0

     negative rho (up, down):  0.115E+01 0.000E+00

     total cpu time spent up to now is    13061.5 secs

     total energy              =   -4156.86120323 Ry
     Harris-Foulkes estimate   =   -4156.86121375 Ry
     estimated scf accuracy    <       0.00012132 Ry

     iteration # 30     ecut=    40.00 Ry     beta=0.30
     Davidson diagonalization with overlap
     ethr =  2.67E-08,  avg # of iterations =  1.0

     negative rho (up, down):  0.115E+01 0.000E+00

     total cpu time spent up to now is    13291.8 secs

     total energy              =   -4156.86120732 Ry
     Harris-Foulkes estimate   =   -4156.86121088 Ry
     estimated scf accuracy    <       0.00003889 Ry

     iteration # 31     ecut=    40.00 Ry     beta=0.30
     Davidson diagonalization with overlap
     ethr =  8.55E-09,  avg # of iterations =  1.0

     negative rho (up, down):  0.115E+01 0.000E+00

     total cpu time spent up to now is    13520.2 secs

     total energy              =   -4156.86120816 Ry
     Harris-Foulkes estimate   =   -4156.86121084 Ry
     estimated scf accuracy    <       0.00005119 Ry

     iteration # 32     ecut=    40.00 Ry     beta=0.30
     Davidson diagonalization with overlap
     ethr =  8.55E-09,  avg # of iterations =  1.0

     negative rho (up, down):  0.115E+01 0.000E+00

     total cpu time spent up to now is    13749.0 secs

     total energy              =   -4156.86120775 Ry
     Harris-Foulkes estimate   =   -4156.86121127 Ry
     estimated scf accuracy    <       0.00004150 Ry

     iteration # 33     ecut=    40.00 Ry     beta=0.30
     Davidson diagonalization with overlap
     ethr =  8.55E-09,  avg # of iterations =  1.0

     negative rho (up, down):  0.115E+01 0.000E+00

     total cpu time spent up to now is    13978.5 secs

     total energy              =   -4156.86120911 Ry
     Harris-Foulkes estimate   =   -4156.86121063 Ry
     estimated scf accuracy    <       0.00006786 Ry

     iteration # 34     ecut=    40.00 Ry     beta=0.30
     Davidson diagonalization with overlap
     ethr =  8.55E-09,  avg # of iterations =  1.0

     negative rho (up, down):  0.115E+01 0.000E+00

     total cpu time spent up to now is    14207.9 secs

     total energy              =   -4156.86120825 Ry
     Harris-Foulkes estimate   =   -4156.86121126 Ry
     estimated scf accuracy    <       0.00004927 Ry

     iteration # 35     ecut=    40.00 Ry     beta=0.30
     Davidson diagonalization with overlap
     ethr =  8.55E-09,  avg # of iterations =  1.0

     negative rho (up, down):  0.116E+01 0.000E+00

     total cpu time spent up to now is    14437.8 secs

     total energy              =   -4156.86120715 Ry
     Harris-Foulkes estimate   =   -4156.86121289 Ry
     estimated scf accuracy    <       0.00027515 Ry

     iteration # 36     ecut=    40.00 Ry     beta=0.30
     Davidson diagonalization with overlap
     ethr =  8.55E-09,  avg # of iterations =  1.0

     negative rho (up, down):  0.116E+01 0.000E+00

     total cpu time spent up to now is    14670.2 secs

     total energy              =   -4156.86120985 Ry
     Harris-Foulkes estimate   =   -4156.86121045 Ry
     estimated scf accuracy    <       0.00000887 Ry

     iteration # 37     ecut=    40.00 Ry     beta=0.30
     Davidson diagonalization with overlap
     ethr =  1.95E-09,  avg # of iterations =  1.0

     negative rho (up, down):  0.116E+01 0.000E+00

     total cpu time spent up to now is    14899.2 secs

     total energy              =   -4156.86120959 Ry
     Harris-Foulkes estimate   =   -4156.86121067 Ry
     estimated scf accuracy    <       0.00001752 Ry

     iteration # 38     ecut=    40.00 Ry     beta=0.30
     Davidson diagonalization with overlap
     ethr =  1.95E-09,  avg # of iterations =  1.0

     negative rho (up, down):  0.116E+01 0.000E+00

     total cpu time spent up to now is    15128.2 secs

     total energy              =   -4156.86120880 Ry
     Harris-Foulkes estimate   =   -4156.86121172 Ry
     estimated scf accuracy    <       0.00016740 Ry

     iteration # 39     ecut=    40.00 Ry     beta=0.30
     Davidson diagonalization with overlap
     ethr =  1.95E-09,  avg # of iterations =  1.0

     negative rho (up, down):  0.116E+01 0.000E+00

     total cpu time spent up to now is    15356.6 secs

     total energy              =   -4156.86121002 Ry
     Harris-Foulkes estimate   =   -4156.86121062 Ry
     estimated scf accuracy    <       0.00000943 Ry

     iteration # 40     ecut=    40.00 Ry     beta=0.30
     Davidson diagonalization with overlap
     ethr =  1.95E-09,  avg # of iterations =  1.0

     negative rho (up, down):  0.116E+01 0.000E+00

     total cpu time spent up to now is    15584.8 secs

     total energy              =   -4156.86121024 Ry
     Harris-Foulkes estimate   =   -4156.86121048 Ry
     estimated scf accuracy    <       0.00000220 Ry

     iteration # 41     ecut=    40.00 Ry     beta=0.30
     Davidson diagonalization with overlap
     ethr =  4.84E-10,  avg # of iterations =  1.0

     negative rho (up, down):  0.116E+01 0.000E+00

     total cpu time spent up to now is    15812.7 secs

     total energy              =   -4156.86121033 Ry
     Harris-Foulkes estimate   =   -4156.86121050 Ry
     estimated scf accuracy    <       0.00000476 Ry

     iteration # 42     ecut=    40.00 Ry     beta=0.30
     Davidson diagonalization with overlap
     ethr =  4.84E-10,  avg # of iterations =  1.0

     negative rho (up, down):  0.116E+01 0.000E+00

     total cpu time spent up to now is    16039.6 secs

     total energy              =   -4156.86121033 Ry
     Harris-Foulkes estimate   =   -4156.86121050 Ry
     estimated scf accuracy    <       0.00000185 Ry

     iteration # 43     ecut=    40.00 Ry     beta=0.30
     Davidson diagonalization with overlap
     ethr =  4.07E-10,  avg # of iterations =  1.0

     negative rho (up, down):  0.116E+01 0.000E+00

     total cpu time spent up to now is    16268.0 secs

     total energy              =   -4156.86121037 Ry
     Harris-Foulkes estimate   =   -4156.86121052 Ry
     estimated scf accuracy    <       0.00000562 Ry

     iteration # 44     ecut=    40.00 Ry     beta=0.30
     Davidson diagonalization with overlap
     ethr =  4.07E-10,  avg # of iterations =  1.0

     negative rho (up, down):  0.116E+01 0.000E+00

     total cpu time spent up to now is    16497.6 secs

     total energy              =   -4156.86121042 Ry
     Harris-Foulkes estimate   =   -4156.86121051 Ry
     estimated scf accuracy    <       0.00000186 Ry

     iteration # 45     ecut=    40.00 Ry     beta=0.30
     Davidson diagonalization with overlap
     ethr =  4.07E-10,  avg # of iterations =  1.0

     negative rho (up, down):  0.116E+01 0.000E+00

     total cpu time spent up to now is    16728.3 secs

     total energy              =   -4156.86121033 Ry
     Harris-Foulkes estimate   =   -4156.86121060 Ry
     estimated scf accuracy    <       0.00001239 Ry

     iteration # 46     ecut=    40.00 Ry     beta=0.30
     Davidson diagonalization with overlap
     ethr =  4.07E-10,  avg # of iterations =  1.0

     negative rho (up, down):  0.116E+01 0.000E+00

     total cpu time spent up to now is    16956.9 secs

     total energy              =   -4156.86121044 Ry
     Harris-Foulkes estimate   =   -4156.86121051 Ry
     estimated scf accuracy    <       0.00000113 Ry

     iteration # 47     ecut=    40.00 Ry     beta=0.30
     Davidson diagonalization with overlap
     ethr =  2.49E-10,  avg # of iterations =  1.0

     negative rho (up, down):  0.116E+01 0.000E+00

     total cpu time spent up to now is    17183.6 secs

     End of self-consistent calculation

          k = 0.0000 0.0000 0.0000 ( 41487 PWs)   bands (ev):

   -74.1928 -72.7444 -72.7300 -72.5708 -72.5586 -72.4125 -72.4020 -72.3805
   -72.3528 -72.3459 -72.3143 -72.2795 -72.2463 -72.2356 -72.0886 -72.0707
   -46.9986 -43.6040 -43.2900 -42.9005 -42.7229 -42.7155 -42.7087 -42.6355
   -42.6294 -42.6163 -42.6159 -42.6139 -42.5808 -42.5790 -42.5764 -42.5742
   -42.5658 -42.5438 -42.4971 -42.4713 -42.4542 -42.4540 -42.4477 -42.4190
   -42.3965 -42.3836 -42.3372 -42.2885 -42.2684 -42.2683 -42.2668 -42.2308
   -42.2262 -42.2146 -42.2082 -42.2030 -42.1689 -42.1630 -42.1478 -42.1446
   -42.1272 -42.1180 -42.0870 -42.0503 -42.0207 -41.9703 -41.9302 -41.8948
   -22.1682 -18.9018 -18.7078 -18.5599 -18.4404 -18.3208 -18.1488 -17.9187
   -17.9114 -17.8984 -17.8526 -17.7850 -17.7110 -17.6742 -17.6425 -17.6315
   -17.6236 -17.6107 -17.5543 -17.5494 -17.4879 -17.4800 -17.3584 -17.3385
   -17.2941 -17.1209 -17.1023 -17.0996 -17.0369 -16.9752 -16.8343 -16.2578
   -16.1906 -11.7612  -9.4550  -8.7744  -7.1734  -7.1069  -7.0865  -7.0345
    -6.8151  -6.7597  -6.1268  -6.0752  -5.9204  -5.8984  -5.8876  -5.8724
    -5.8104  -5.7653  -5.6971  -5.6942  -5.6917  -5.6760  -5.6645  -5.6561
    -5.6018  -5.5529  -5.5393  -5.5302  -5.4999  -5.4812  -5.4125  -5.3055
    -5.2906  -5.2067  -5.1797  -5.1103  -5.1033  -5.0751  -4.9220  -4.8224
    -4.5967  -4.4939  -4.4841  -4.3789  -4.2207  -3.7948  -3.7349  -3.6984
    -3.6480  -3.6224  -3.6092  -3.5919  -3.5732  -3.5484  -3.3660  -3.3497
    -3.2723  -3.2454  -3.1678  -3.1464  -3.1101  -3.0755  -3.0420  -3.0289
    -2.9876  -2.9262  -2.8781  -2.8200  -2.7962  -2.6621  -2.6086  -2.5906
    -2.4649  -2.4580  -2.4264  -2.3734  -2.3597  -2.3321  -2.2927  -2.2180
    -2.2113  -2.1468  -2.0716  -2.0153  -1.9838  -1.9135  -1.8543  -1.7732
    -1.7255  -1.6230  -1.6082  -1.5447  -1.5184  -1.4299  -1.3181  -1.2802
    -1.0879  -1.0542  -0.8872  -0.7616  -0.7499  -0.4469  -0.2208  -0.1950
    -0.1896  -0.1677  -0.1189  -0.0937  -0.0727   0.0735   0.0813   0.1375
     0.2214   0.2467   0.2787   0.3150   0.3291   0.4335   0.4965   0.5092
     0.5106   0.5622   0.5624   0.5914   0.5975   0.6079   0.6101   0.8073
     0.8104   0.8468   1.0138   1.0275   1.1141   1.1556   1.3545   1.4462
     1.4989   1.6407   1.7182   1.8822   1.9251   2.0381   2.0633   2.0870
     2.1257   2.1720   2.2915   2.2996   2.3935   2.5978   2.8526   3.0527
     3.2731   3.4465   3.7875   3.9966   4.1641   4.2027   4.2500   4.2518
     4.2857   4.3395   4.3942   4.4317   4.4931   4.5796   4.7630   5.1451
     5.3197   5.3764   5.3879   5.4499   5.4725   5.5792   5.6315   5.6559
     5.7453   5.8083   5.8676   5.9256   5.9722   6.3349   6.4961   6.8062
     7.2126   7.3486   7.7494   7.9504   8.3230   8.8245   8.8362   8.8608
     8.9056   9.1527   9.3275   9.4229   9.4314   9.5066   9.6422   9.7347
     9.7680   9.8015   9.8580   9.9825  10.0449  10.1142  10.2090  10.3089
    10.3480  10.3898  10.4702  10.6305  10.7004  10.7671  10.8063  10.8068
    10.8582  10.8682  10.9270  11.0425  11.1334  11.1424  11.1505  11.2792
    11.3466  11.3787  11.3921  11.4834  11.5865  11.6267  11.6581  11.7491
    11.7542  11.8489  11.9514  12.0206  12.0375  12.2237  12.3852  12.4153
    12.5017  12.5697  12.5801  12.7384  12.7513  12.8170  12.9191  13.0195
    13.0791  13.1884  13.1916  13.2472  13.3630  13.4627  13.4661  13.4790
    13.5340  13.6164  13.6784  13.6925  13.7521  13.7894  13.8277  13.8309
    13.8502  13.8622  13.9481  13.9857  14.0203  14.0599  14.0617  14.0760
    14.2054  14.2388  14.3349  14.3393  14.3943  14.4042  14.4797  14.5112
    14.5157  14.5218  14.5708  14.6143  14.6410  14.7035  14.7554  14.8071
    14.8081  14.8779  14.8953  14.9917  15.0653  15.1235  15.1353  15.2244
    15.2743  15.3228  15.4081  15.4552  15.5190  15.5430  15.5517  15.5855
    15.7406  15.8916  15.9653  16.0135  16.0556  16.1006  16.1743  16.2556
    16.3209  16.3611  16.4031  16.4618  16.5634  16.6195  16.6751  16.8518
    16.8757  16.9406  16.9878  17.0173  17.0413  17.1050  17.2139  17.3549
    17.3882  17.4448  17.5701  17.5942  17.6276  17.6695  17.7017  17.7948
    17.8550  17.9008  17.9802  18.0382  18.0953  18.2079  18.2641  18.2903
    18.3164  18.4292  18.4797  18.5856  18.6547  18.7066  18.7504  18.7880
    18.8437  18.8983  18.9493  19.0065  19.0381  19.0435  19.0668  19.2461
    19.3718  19.4415  19.4764  19.5263  19.5967  19.5980  19.6551  19.7792
    19.8055  19.9223  19.9963  20.1168  20.1508  20.1596  20.1996  20.2161
    20.3295  20.3529  20.4183  20.5063  20.5500  20.5925  20.6091  20.6688
    20.7051  20.7687  20.7811  20.8029  20.8356  20.8673  20.8873  20.9836
    21.0592  21.0638  21.0666  21.1220  21.1755  21.2991  21.3028  21.3263
    21.3373  21.3516  21.4153  21.4257  21.4622  21.4830  21.5409  21.6150
    21.6827  21.6835  21.7389  21.7944  21.8385  21.8837  21.8931  21.9064
    21.9746  22.0264  22.0852  22.1101  22.1402  22.1668  22.2559  22.2661
    22.2861  22.3301  22.4797  22.5636  22.5852  22.6112  22.6168  22.6806
    22.6920  22.7426  22.7596  22.7742  22.7751  22.8338  22.8710  22.9229
    22.9676  22.9705  23.0231  23.0763  23.1443  23.2252  23.2634  23.2837
    23.3520  23.4477  23.4597  23.5066  23.5723  23.5852  23.6604  23.7043
    23.7070  23.7933  23.8329  23.8668  23.9000  24.0434  24.1011  24.1275
    24.1286  24.2320  24.2337  24.2712  24.3077  24.3420  24.3852  24.3924
    24.4266  24.4315  24.4324  24.4595  24.4719  24.5116  24.5201  24.5232
    24.5936  24.6010  24.6312  24.6564  24.6944  24.7314  24.7342  24.8198
    24.8220  24.8524  24.8634  24.8825  24.9435  25.0051  25.0084  25.0310
    25.0421  25.0656  25.0794  25.1327  25.1641  25.1687  25.2068  25.2315
    25.2653  25.2933  25.3423  25.3645  25.4044  25.4150  25.4649  25.4838
    25.5035  25.5224  25.5712  25.6242  25.6786  25.7049  25.7201  25.7629
    25.7680  25.7981  25.8615  25.8803  25.9394  25.9529  25.9989  26.0021
    26.0530  26.0567  26.0644  26.1110  26.1940  26.2162  26.2444  26.2564
    26.2799  26.3000  26.3502  26.3566  26.4720  26.5548  26.5706  26.5874
    26.6715  26.7072  26.7624  26.7813  26.8021  26.8745  26.9719  26.9892
    26.9983  27.0651  27.1435  27.1615  27.2143  27.2173  27.2455  27.2590
    27.2660  27.2780

          k = 0.0000 0.2435 0.0000 ( 41552 PWs)   bands (ev):

   -74.1928 -72.7444 -72.7300 -72.5708 -72.5586 -72.4125 -72.4020 -72.3805
   -72.3528 -72.3459 -72.3143 -72.2796 -72.2463 -72.2356 -72.0886 -72.0707
   -46.9986 -43.6038 -43.2903 -42.9005 -42.7229 -42.7155 -42.7087 -42.6356
   -42.6285 -42.6168 -42.6163 -42.6139 -42.5792 -42.5790 -42.5764 -42.5742
   -42.5679 -42.5438 -42.4971 -42.4696 -42.4567 -42.4542 -42.4480 -42.4190
   -42.3954 -42.3826 -42.3341 -42.2890 -42.2681 -42.2680 -42.2668 -42.2308
   -42.2261 -42.2146 -42.2084 -42.2021 -42.1703 -42.1625 -42.1495 -42.1447
   -42.1273 -42.1181 -42.0871 -42.0503 -42.0207 -41.9708 -41.9312 -41.8948
   -22.1677 -18.8070 -18.6108 -18.4722 -18.3750 -18.2800 -18.1592 -17.9432
   -17.9133 -17.8983 -17.8726 -17.8548 -17.8359 -17.7778 -17.7724 -17.7588
   -17.6409 -17.5011 -17.4820 -17.4352 -17.3661 -17.3531 -17.3342 -17.3261
   -17.3167 -17.2266 -17.2160 -17.1539 -17.1272 -17.0995 -16.8335 -16.2573
   -16.1872 -11.7507  -9.4439  -8.7574  -6.8405  -6.8284  -6.7515  -6.6817
    -6.6538  -6.5936  -6.1163  -6.0538  -6.0407  -6.0086  -5.9401  -5.9002
    -5.8940  -5.8868  -5.8108  -5.7917  -5.7575  -5.6853  -5.6719  -5.6276
    -5.5948  -5.5241  -5.4695  -5.4646  -5.4630  -5.4523  -5.4332  -5.4092
    -5.4059  -5.2949  -5.1527  -4.9920  -4.9616  -4.7007  -4.5882  -4.4365
    -4.4054  -4.3434  -4.2842  -4.2170  -4.1355  -3.9210  -3.8400  -3.8165
    -3.7662  -3.7430  -3.7052  -3.6977  -3.5989  -3.5970  -3.5932  -3.5847
    -3.5138  -3.4941  -3.3387  -3.1996  -3.1553  -3.1248  -3.0658  -3.0140
    -2.9553  -2.9470  -2.9135  -2.8288  -2.7721  -2.7025  -2.6629  -2.6326
    -2.6065  -2.5684  -2.5219  -2.5058  -2.4629  -2.4476  -2.3861  -2.3482
    -2.3023  -2.2364  -2.2005  -2.1212  -2.1169  -2.0957  -1.9595  -1.8976
    -1.8229  -1.7956  -1.7635  -1.6830  -1.6472  -1.6251  -1.4835  -1.3413
    -1.2642  -1.2243  -1.0563  -0.8974  -0.3901  -0.1899  -0.1419  -0.0890
     0.0404   0.0609   0.0741   0.1140   0.1848   0.2084   0.2219   0.2426
     0.2801   0.3031   0.3317   0.3551   0.4188   0.4254   0.4359   0.4692
     0.4808   0.5034   0.5237   0.5566   0.5683   0.5995   0.6176   0.6205
     0.6776   0.8498   0.9294   1.0144   1.1010   1.1587   1.5025   1.6611
     1.7332   1.7507   1.8646   1.9691   1.9711   2.0241   2.0543   2.1323
     2.1563   2.2210   2.2753   2.3141   2.3949   2.5073   2.7499   3.0281
     3.1065   3.3698   3.4391   3.4598   3.4778   3.6845   4.1780   4.2348
     4.2977   4.7067   4.7695   5.0580   5.2644   5.3195   5.3510   5.3860
     5.4149   5.4267   5.4309   5.4948   5.5522   5.5908   5.5998   5.6360
     5.6405   5.6602   5.7500   6.0000   6.1866   6.3832   6.5425   6.9363
     7.2533   7.3802   7.7195   7.9515   8.0036   8.1978   8.2114   8.5126
     8.6071   8.9034   8.9607   8.9831   9.2718   9.4020   9.4899   9.6414
     9.7025   9.8828   9.9635  10.0333  10.1311  10.2034  10.2639  10.3065
    10.4405  10.4875  10.5456  10.6795  10.7104  10.8069  10.8242  10.9128
    11.1079  11.1651  11.2091  11.2364  11.3424  11.3846  11.4382  11.5142
    11.5266  11.5599  11.5763  11.5988  11.6724  11.7221  11.8192  11.8294
    11.8803  11.9134  11.9787  11.9823  12.0236  12.0679  12.1602  12.2145
    12.2612  12.2923  12.4062  12.4850  12.5400  12.6218  12.6440  12.6914
    12.7708  12.9087  12.9481  12.9873  13.0010  13.0924  13.1448  13.2466
    13.3430  13.3679  13.4626  13.5528  13.6301  13.6967  13.8526  13.9191
    14.0651  14.0899  14.1333  14.1728  14.2053  14.2295  14.2417  14.3501
    14.4044  14.5135  14.5806  14.5938  14.6526  14.7432  14.7806  14.8365
    14.8463  14.9826  14.9989  15.0136  15.0594  15.1581  15.1851  15.2101
    15.2355  15.2520  15.2954  15.3390  15.3597  15.4792  15.5011  15.5310
    15.6030  15.6359  15.6879  15.6932  15.7868  15.7966  15.8264  15.9162
    15.9355  16.1231  16.1970  16.2127  16.2476  16.3511  16.3815  16.4346
    16.4700  16.5806  16.6220  16.6758  16.7273  16.7631  16.8172  16.8700
    16.9186  17.0083  17.0517  17.0769  17.1179  17.1405  17.1775  17.3210
    17.3405  17.4509  17.4643  17.5003  17.5444  17.5532  17.6252  17.6744
    17.7617  17.8105  17.8935  17.9338  17.9601  17.9836  18.0914  18.1470
    18.2320  18.2865  18.3579  18.3837  18.4457  18.5237  18.5527  18.5959
    18.6200  18.6601  18.7228  18.7707  18.8010  18.9312  18.9416  18.9978
    19.0650  19.0755  19.2044  19.2984  19.3175  19.3649  19.4126  19.4567
    19.4737  19.5753  19.7205  19.7432  19.7572  19.8369  19.8779  19.9029
    19.9194  19.9326  20.0643  20.1822  20.2197  20.2999  20.3389  20.3887
    20.4163  20.4874  20.5608  20.5916  20.6727  20.7007  20.7562  20.8724
    20.9094  20.9571  20.9717  21.0337  21.0387  21.0771  21.0858  21.1313
    21.1686  21.2073  21.2165  21.2921  21.3082  21.3277  21.3722  21.4229
    21.4929  21.5383  21.6040  21.6232  21.6457  21.7086  21.7286  21.7543
    21.7833  21.8074  21.8435  21.9028  21.9600  22.0258  22.0392  22.0597
    22.1107  22.1456  22.2421  22.2636  22.3075  22.3556  22.4056  22.4139
    22.4324  22.4573  22.4943  22.5204  22.5271  22.6010  22.6264  22.6748
    22.7044  22.7343  22.7510  22.8110  22.9371  22.9941  23.0161  23.0702
    23.1173  23.1517  23.2520  23.2719  23.2846  23.3464  23.3751  23.3920
    23.4267  23.4997  23.5603  23.5724  23.6112  23.6296  23.6816  23.6958
    23.7378  23.7898  23.8391  23.8411  23.8926  23.9078  23.9421  23.9611
    23.9892  24.0855  24.1399  24.1533  24.1944  24.2372  24.2754  24.3134
    24.3621  24.4492  24.4533  24.4781  24.4973  24.5302  24.5849  24.6635
    24.7038  24.7498  24.7750  24.7951  24.8069  24.8568  24.8807  25.0205
    25.0415  25.0791  25.0883  25.1460  25.2103  25.2594  25.3560  25.3790
    25.4102  25.4684  25.4836  25.5518  25.5762  25.6017  25.6663  25.7153
    25.7292  25.7890  25.8433  25.8743  25.8935  25.9320  26.0038  26.0347
    26.1093  26.1479  26.1693  26.2150  26.2593  26.2772  26.2991  26.3563
    26.3898  26.4448  26.4551  26.4708  26.5198  26.5373  26.6295  26.7852
    26.8228  26.8282  26.8690  26.9630  27.0035  27.0374  27.1330  27.1694
    27.1889  27.2113  27.2594  27.2709  27.2956  27.3081  27.3306  27.3492
    27.3688  27.3923  27.4349  27.4692  27.5271  27.5552  27.6087  27.6337
    27.6609  27.6881

          k = 0.0000-0.4870 0.0000 ( 41512 PWs)   bands (ev):

   -74.1929 -72.7444 -72.7300 -72.5708 -72.5586 -72.4125 -72.4020 -72.3806
   -72.3528 -72.3460 -72.3143 -72.2796 -72.2463 -72.2356 -72.0886 -72.0707
   -46.9985 -43.6035 -43.2906 -42.9005 -42.7228 -42.7155 -42.7086 -42.6357
   -42.6276 -42.6176 -42.6163 -42.6139 -42.5790 -42.5776 -42.5764 -42.5742
   -42.5698 -42.5438 -42.4971 -42.4682 -42.4590 -42.4542 -42.4482 -42.4190
   -42.3945 -42.3815 -42.3312 -42.2894 -42.2679 -42.2677 -42.2667 -42.2308
   -42.2260 -42.2146 -42.2087 -42.2013 -42.1717 -42.1620 -42.1512 -42.1450
   -42.1273 -42.1182 -42.0872 -42.0504 -42.0207 -41.9712 -41.9322 -41.8947
   -22.1671 -18.6364 -18.5906 -18.3408 -18.2775 -18.2354 -18.1318 -17.9640
   -17.9548 -17.9234 -17.9217 -17.9141 -17.9042 -17.8482 -17.8423 -17.7775
   -17.6506 -17.4882 -17.4390 -17.3661 -17.3552 -17.3524 -17.3512 -17.3235
   -17.3133 -17.2899 -17.2836 -17.2633 -17.2378 -17.0996 -16.8348 -16.2569
   -16.1846 -11.7405  -9.4317  -8.7461  -6.8277  -6.7967  -6.2824  -6.2109
    -6.1786  -6.1067  -6.0974  -6.0632  -6.0427  -6.0409  -5.9918  -5.9631
    -5.8698  -5.8630  -5.8544  -5.7548  -5.7223  -5.6813  -5.5968  -5.5430
    -5.5410  -5.5384  -5.5177  -5.5040  -5.4076  -5.3855  -5.3744  -5.3501
    -5.2730  -5.2085  -4.9705  -4.9311  -4.8943  -4.7563  -4.7097  -4.5442
    -4.4424  -4.4154  -4.3328  -4.3266  -4.2494  -4.2484  -3.9480  -3.8999
    -3.8783  -3.8539  -3.8490  -3.8086  -3.8063  -3.6258  -3.6152  -3.5013
    -3.4165  -3.3680  -3.3652  -3.2880  -3.2151  -3.1730  -3.1413  -3.1186
    -3.1034  -3.0825  -3.0747  -2.9977  -2.9959  -2.9343  -2.8397  -2.7933
    -2.7837  -2.7626  -2.6935  -2.5708  -2.5254  -2.4375  -2.3764  -2.3368
    -2.2996  -2.2256  -2.2071  -2.1318  -1.9118  -1.8671  -1.8627  -1.8515
    -1.8284  -1.8097  -1.7804  -1.7153  -1.6307  -1.6076  -1.5609  -1.4244
    -1.3571  -1.2806  -1.1756  -1.1534  -0.5644  -0.5002  -0.2875  -0.2512
    -0.2306  -0.2106   0.0464   0.0651   0.1206   0.1342   0.2534   0.3123
     0.3400   0.4370   0.4541   0.5128   0.5350   0.5426   0.6031   0.6236
     0.6381   0.6479   0.6923   0.7094   0.7420   0.7942   0.8366   0.8748
     0.8837   0.9314   0.9826   1.0185   1.0675   1.1661   1.3049   1.4801
     1.7092   1.7197   1.7739   1.9616   1.9940   2.0879   2.0956   2.0998
     2.2933   2.3245   2.3307   2.3485   2.5563   2.5588   2.6460   2.6729
     3.0245   3.0413   3.1150   3.1447   3.5087   4.1907   4.1951   4.2203
     4.2821   4.9289   4.9763   5.0803   5.1537   5.3217   5.3594   5.3968
     5.4378   5.5784   5.6062   5.6283   5.6393   5.7400   5.7672   5.7810
     5.8380   5.9038   5.9390   6.0532   6.4395   6.5803   6.8512   6.9724
     7.0610   7.3004   7.3029   7.6263   7.7358   7.8480   8.2621   8.2784
     8.6941   8.7004   8.9034   9.0092   9.1171   9.1460   9.2583   9.4638
     9.5523   9.7045   9.8466  10.0693  10.0872  10.2089  10.2781  10.3691
    10.6480  10.6945  10.7356  10.7544  10.7650  10.7987  10.8095  10.8947
    11.0496  11.0523  11.0687  11.1167  11.1399  11.2495  11.3973  11.4408
    11.4443  11.4533  11.4728  11.5270  11.6226  11.6410  11.7179  11.8039
    11.8261  11.8456  11.9276  11.9738  12.0288  12.0865  12.1907  12.1922
    12.4571  12.5137  12.5321  12.7098  12.7337  12.8355  12.9230  12.9421
    13.0443  13.0739  13.0741  13.1111  13.1715  13.3179  13.4063  13.4350
    13.4882  13.6207  13.6312  13.6345  13.6872  13.6985  13.8832  13.9454
    13.9779  14.0197  14.1703  14.1947  14.2339  14.2463  14.4968  14.5092
    14.5503  14.5548  14.6314  14.6907  14.7449  14.7968  14.8616  14.8620
    14.9445  15.0020  15.0337  15.0525  15.0639  15.1661  15.2163  15.2375
    15.2954  15.3356  15.4017  15.4022  15.4686  15.4836  15.4959  15.6390
    15.6439  15.7770  15.8392  15.9554  16.0492  16.0774  16.0841  16.1275
    16.1658  16.2013  16.2865  16.3103  16.4741  16.5000  16.5702  16.7445
    16.8864  16.8866  16.8979  16.9222  16.9882  17.0067  17.0296  17.1038
    17.1884  17.1962  17.2112  17.3428  17.3980  17.4142  17.4743  17.5073
    17.5107  17.5404  17.6032  17.6562  17.6882  17.7267  17.8104  17.8558
    17.9462  17.9811  18.0202  18.0454  18.1070  18.1162  18.1526  18.1958
    18.2996  18.3069  18.3637  18.3657  18.3926  18.4083  18.4638  18.4737
    18.5045  18.5336  18.6063  18.6195  18.6377  18.6509  18.7959  18.8074
    18.8193  18.8408  18.9147  18.9791  19.0286  19.0686  19.1849  19.2062
    19.2286  19.2335  19.2706  19.2971  19.3086  19.3652  19.3687  19.5658
    19.7003  19.7249  19.7469  19.8197  19.8467  19.8930  19.9046  19.9214
    19.9681  19.9754  20.0690  20.1288  20.1793  20.2337  20.2409  20.2636
    20.4124  20.4405  20.5155  20.5463  20.5889  20.5992  20.7186  20.7579
    20.7610  20.7755  20.8098  21.0516  21.0744  21.1128  21.1146  21.2256
    21.2290  21.2398  21.3622  21.3813  21.4080  21.4288  21.4729  21.5348
    21.5693  21.6748  21.7309  21.9071  21.9305  21.9374  21.9802  22.0179
    22.0599  22.0669  22.1362  22.1856  22.2201  22.2853  22.2968  22.3039
    22.3462  22.3688  22.4263  22.4370  22.5157  22.5466  22.5598  22.5964
    22.6153  22.6159  22.6637  22.6932  22.7057  22.7219  22.7766  22.8677
    22.8974  22.9264  22.9381  22.9537  22.9669  23.0512  23.1026  23.1260
    23.1356  23.1731  23.2104  23.2159  23.2630  23.3123  23.3378  23.3821
    23.4582  23.6106  23.6170  23.7154  23.7759  23.7891  23.8253  23.8500
    23.9080  23.9520  24.0608  24.0659  24.1302  24.1643  24.2077  24.2279
    24.2333  24.2603  24.2698  24.2940  24.3533  24.3695  24.3905  24.4410
    24.5195  24.5464  24.5718  24.7840  24.9280  24.9390  24.9892  25.0037
    25.0108  25.0754  25.1365  25.2027  25.2314  25.2484  25.2971  25.2986
    25.3749  25.4074  25.4353  25.4679  25.5967  25.6515  25.6591  25.6595
    25.8141  25.9217  25.9817  26.0653  26.0760  26.1096  26.2258  26.2350
    26.3295  26.3446  26.3661  26.3998  26.4262  26.4282  26.4980  26.5022
    26.5657  26.5911  26.6416  26.7665  26.8090  26.8409  26.9607  26.9638
    27.0059  27.0356  27.1192  27.1358  27.1809  27.1928  27.2568  27.2994
    27.4045  27.4169  27.5121  27.5235  27.5373  27.5630  27.6653  27.6859
    27.7029  27.7393  27.8002  27.8418  27.9654  27.9680  28.0235  28.1163
    28.1318  28.1612

          k = 0.2500 0.0000 0.0000 ( 41496 PWs)   bands (ev):

   -74.1928 -72.7433 -72.7311 -72.5696 -72.5598 -72.4110 -72.4035 -72.3801
   -72.3525 -72.3463 -72.3146 -72.2791 -72.2467 -72.2356 -72.0878 -72.0715
   -46.9985 -43.6040 -43.2864 -42.8738 -42.7431 -42.7215 -42.7101 -42.6275
   -42.6226 -42.6178 -42.6096 -42.6046 -42.5833 -42.5786 -42.5758 -42.5739
   -42.5680 -42.5433 -42.4970 -42.4799 -42.4693 -42.4560 -42.4221 -42.4152
   -42.3945 -42.3636 -42.3123 -42.2952 -42.2735 -42.2650 -42.2618 -42.2359
   -42.2346 -42.2262 -42.2131 -42.1882 -42.1776 -42.1665 -42.1567 -42.1464
   -42.1297 -42.1182 -42.0884 -42.0618 -42.0480 -41.9704 -41.9266 -41.8984
   -22.1676 -18.7719 -18.5906 -18.4453 -18.3360 -18.2214 -18.0932 -18.0194
   -17.9195 -17.8660 -17.8285 -17.7986 -17.7700 -17.7490 -17.7193 -17.6553
   -17.5918 -17.5731 -17.5504 -17.4910 -17.4768 -17.4172 -17.4150 -17.3620
   -17.3130 -17.1960 -17.1858 -17.1818 -17.1143 -17.0549 -16.9136 -16.2946
   -16.2403 -11.7608  -9.4608  -8.7552  -6.9894  -6.9283  -6.9091  -6.8594
    -6.6498  -6.6253  -6.1081  -6.0097  -5.9504  -5.9304  -5.9048  -5.8693
    -5.8461  -5.8403  -5.8269  -5.7795  -5.7520  -5.7456  -5.7197  -5.6969
    -5.6222  -5.5944  -5.5626  -5.5440  -5.4712  -5.3793  -5.3369  -5.2634
    -5.2057  -5.1279  -5.1137  -5.0245  -4.9131  -4.8707  -4.7786  -4.7087
    -4.5687  -4.5049  -4.3776  -4.2989  -4.1732  -4.1162  -3.8560  -3.7902
    -3.7246  -3.7080  -3.5942  -3.5690  -3.5411  -3.4412  -3.4260  -3.4192
    -3.3141  -3.2952  -3.2872  -3.1988  -3.1603  -3.1308  -3.1006  -3.0609
    -3.0581  -2.9396  -2.9337  -2.8760  -2.8279  -2.8111  -2.7413  -2.6941
    -2.6709  -2.6538  -2.6094  -2.5050  -2.5015  -2.4406  -2.3599  -2.3053
    -2.2980  -2.2493  -2.2145  -2.1940  -2.1496  -2.0079  -1.9706  -1.8878
    -1.8121  -1.7956  -1.7662  -1.7468  -1.6878  -1.5140  -1.5004  -1.4334
    -1.2761  -1.1203  -1.1013  -0.8196  -0.5483  -0.2657  -0.1298  -0.0252
     0.0353   0.0754   0.1166   0.1578   0.1680   0.2178   0.3309   0.3473
     0.3830   0.3848   0.4364   0.5203   0.5213   0.5375   0.5595   0.5747
     0.6086   0.6544   0.6696   0.6767   0.7621   0.8033   0.8391   0.8970
     0.9298   1.0388   1.1948   1.2057   1.2770   1.2879   1.3376   1.3486
     1.4382   1.5174   1.6001   1.6493   1.7473   1.8816   1.9117   2.0130
     2.1404   2.2153   2.2411   2.2510   2.4863   2.4960   2.7574   3.2751
     3.4525   3.5772   3.9109   4.1124   4.1645   4.2986   4.3299   4.3790
     4.3861   4.4388   4.4669   4.5038   4.5598   4.6068   4.7607   4.8341
     4.9470   5.1489   5.1984   5.3184   5.3382   5.4005   5.4657   5.4742
     5.5044   5.5245   5.6187   6.0792   6.2029   6.4276   6.5792   6.9712
     7.2796   7.5269   7.7723   7.7956   8.0677   8.1827   8.3053   8.4948
     8.6711   8.9221   9.0389   9.2275   9.3754   9.4209   9.5624   9.7061
     9.8445   9.8774   9.9718  10.0098  10.1990  10.2131  10.2937  10.4162
    10.4687  10.5227  10.5247  10.5855  10.6916  10.8224  10.9979  11.0342
    11.0426  11.0990  11.0996  11.1155  11.2794  11.3029  11.3439  11.4275
    11.4949  11.6023  11.6038  11.6085  11.7201  11.7462  11.8342  11.8514
    11.8732  11.9346  12.0445  12.0587  12.1337  12.2296  12.2873  12.3102
    12.3473  12.4844  12.5011  12.5503  12.5995  12.6840  12.7785  12.8217
    12.8778  12.9801  13.0525  13.0955  13.2048  13.2336  13.2811  13.3689
    13.4044  13.4649  13.5043  13.6724  13.7517  13.7554  13.7813  13.9039
    13.9295  13.9405  13.9861  14.0186  14.1065  14.1203  14.1941  14.2217
    14.3012  14.3998  14.4011  14.5051  14.5283  14.5922  14.6176  14.6327
    14.6488  14.7379  14.9164  14.9296  14.9552  15.0093  15.0875  15.1421
    15.1983  15.2453  15.3337  15.3398  15.4411  15.5163  15.5687  15.5790
    15.6380  15.7277  15.7576  15.8277  15.9123  15.9226  15.9865  16.0867
    16.0947  16.1925  16.2317  16.2599  16.3247  16.3661  16.4500  16.4723
    16.5085  16.5357  16.5762  16.7051  16.7098  16.7946  16.8578  16.8936
    16.9472  16.9779  17.0469  17.0835  17.1324  17.2171  17.2302  17.3210
    17.3462  17.3943  17.4824  17.4971  17.5581  17.5892  17.6513  17.6601
    17.7357  17.8226  17.8552  17.8844  17.9227  17.9574  18.0180  18.0533
    18.1429  18.1603  18.2248  18.2376  18.2827  18.2854  18.3179  18.4753
    18.5280  18.6436  18.6787  18.7200  18.8186  18.8469  18.8843  18.9682
    19.0083  19.1183  19.1388  19.1684  19.2266  19.2511  19.2923  19.3868
    19.3900  19.4472  19.4974  19.5506  19.6388  19.7267  19.9121  19.9193
    20.0287  20.1003  20.1867  20.2207  20.2661  20.3024  20.3445  20.4293
    20.5203  20.5620  20.6096  20.6400  20.6534  20.7637  20.8371  20.8492
    20.8727  20.8952  20.9677  20.9707  21.0602  21.0821  21.1514  21.1975
    21.2138  21.2724  21.2889  21.3604  21.4125  21.4161  21.5034  21.5499
    21.5761  21.6147  21.6246  21.6727  21.6809  21.7063  21.7761  21.8125
    21.8740  21.9386  21.9665  22.0061  22.0693  22.1359  22.1507  22.1578
    22.2237  22.2239  22.2791  22.4079  22.4325  22.4442  22.5037  22.5321
    22.5923  22.6544  22.6688  22.7552  22.7581  22.8015  22.8084  22.8464
    22.8713  22.8728  22.8962  22.9249  22.9311  22.9872  23.0031  23.0387
    23.0622  23.0795  23.0922  23.1047  23.1890  23.2462  23.2538  23.2887
    23.3047  23.3408  23.3574  23.3871  23.4234  23.5488  23.6485  23.6511
    23.7068  23.7312  23.7496  23.8076  23.8346  23.8929  23.9303  23.9319
    23.9381  24.0317  24.0681  24.0757  24.1457  24.1823  24.2349  24.2809
    24.2903  24.3467  24.3791  24.3944  24.5125  24.5459  24.6307  24.6557
    24.7154  24.7999  24.8255  24.8355  24.8734  24.9036  24.9130  24.9759
    24.9939  25.0072  25.1042  25.1811  25.2375  25.2711  25.3142  25.3438
    25.4489  25.4612  25.4894  25.4924  25.5680  25.6013  25.7217  25.7617
    25.7794  25.8108  25.8622  25.8730  25.9440  25.9475  25.9791  26.0255
    26.0960  26.1222  26.1268  26.1793  26.2372  26.2898  26.3587  26.3640
    26.3843  26.4057  26.4284  26.4708  26.4891  26.5303  26.5424  26.5806
    26.6333  26.6517  26.6919  26.7284  26.7810  26.8392  26.8579  26.9084
    26.9603  26.9714  27.0351  27.1618  27.2413  27.2469  27.2700  27.3304
    27.3677  27.4193  27.4429  27.4586  27.5052  27.5055  27.5440  27.6090
    27.6364  27.6610

          k = 0.2500 0.2435 0.0000 ( 41508 PWs)   bands (ev):

   -74.1928 -72.7433 -72.7311 -72.5696 -72.5598 -72.4110 -72.4035 -72.3801
   -72.3524 -72.3463 -72.3146 -72.2792 -72.2467 -72.2356 -72.0878 -72.0715
   -46.9986 -43.6037 -43.2867 -42.8738 -42.7431 -42.7214 -42.7101 -42.6268
   -42.6226 -42.6184 -42.6096 -42.6047 -42.5833 -42.5774 -42.5758 -42.5739
   -42.5693 -42.5433 -42.4970 -42.4799 -42.4681 -42.4575 -42.4223 -42.4152
   -42.3944 -42.3622 -42.3101 -42.2951 -42.2732 -42.2654 -42.2618 -42.2358
   -42.2347 -42.2262 -42.2131 -42.1877 -42.1769 -42.1675 -42.1576 -42.1472
   -42.1300 -42.1183 -42.0888 -42.0617 -42.0479 -41.9708 -41.9274 -41.8986
   -22.1670 -18.6840 -18.5038 -18.3626 -18.2700 -18.1747 -18.0928 -17.9940
   -17.9096 -17.8636 -17.8506 -17.8203 -17.8102 -17.7908 -17.7558 -17.7057
   -17.6409 -17.5619 -17.5039 -17.4931 -17.4263 -17.4059 -17.3893 -17.3754
   -17.3111 -17.2923 -17.2880 -17.2219 -17.1994 -17.1864 -16.9126 -16.2948
   -16.2375 -11.7507  -9.4492  -8.7361  -6.6838  -6.6636  -6.6077  -6.5150
    -6.4863  -6.4316  -6.0383  -5.9692  -5.9605  -5.9448  -5.9235  -5.8653
    -5.8470  -5.8411  -5.7851  -5.7659  -5.7279  -5.6800  -5.6593  -5.6213
    -5.5804  -5.5592  -5.5220  -5.4875  -5.4680  -5.4225  -5.3123  -5.2516
    -5.2277  -5.1797  -5.0939  -5.0571  -4.8238  -4.7548  -4.6667  -4.5719
    -4.5297  -4.5090  -4.3558  -4.2955  -4.1769  -4.0373  -4.0113  -3.9325
    -3.8512  -3.7896  -3.7587  -3.6848  -3.6361  -3.5978  -3.5513  -3.5352
    -3.4287  -3.3930  -3.3577  -3.3009  -3.2558  -3.2354  -3.1924  -3.1234
    -3.1080  -3.0869  -3.0690  -3.0323  -2.9869  -2.9253  -2.8804  -2.8608
    -2.7897  -2.7714  -2.6994  -2.6594  -2.5666  -2.5472  -2.5050  -2.4747
    -2.4375  -2.3651  -2.2230  -2.1895  -2.1483  -2.0455  -2.0092  -1.9643
    -1.8968  -1.8348  -1.7733  -1.7128  -1.6346  -1.5576  -1.4050  -1.3659
    -1.2707  -1.2552  -1.1293  -0.9769  -0.2866  -0.2157  -0.0908  -0.0036
     0.0889   0.1466   0.1554   0.1982   0.2645   0.3108   0.3441   0.3971
     0.4261   0.4476   0.4789   0.5734   0.5994   0.6291   0.6584   0.6840
     0.7029   0.7271   0.7440   0.7482   0.7936   0.8065   0.8312   0.8479
     0.8782   0.9912   1.0644   1.2190   1.2778   1.3249   1.4037   1.5046
     1.6047   1.6402   1.7366   1.7784   1.8095   1.8886   1.9009   1.9994
     2.0249   2.0665   2.2700   2.3608   2.4329   2.6340   2.6825   3.1738
     3.3536   3.5397   3.6120   3.6286   3.6561   3.7798   4.2437   4.3015
     4.3418   4.5452   4.6815   4.7721   4.9177   4.9433   5.0960   5.1198
     5.2213   5.2437   5.2696   5.3281   5.3350   5.3943   5.4429   5.5172
     5.5662   5.6840   5.7519   6.1146   6.3873   6.4575   6.7609   7.1165
     7.3838   7.6005   7.8232   7.9173   8.0409   8.2116   8.3075   8.3700
     8.4750   8.5360   8.7027   8.7990   8.9445   9.0897   9.1972   9.3669
     9.6049   9.6363   9.6690   9.9041  10.0186  10.1545  10.2200  10.2634
    10.3419  10.4154  10.5128  10.5486  10.6340  10.6710  10.7274  10.7363
    10.9637  11.0116  11.0613  11.1262  11.2123  11.3236  11.3536  11.4221
    11.4738  11.6166  11.6850  11.7946  11.8543  11.9548  11.9853  12.0499
    12.0634  12.2395  12.2779  12.3078  12.3423  12.4073  12.5525  12.5812
    12.6536  12.7051  12.7325  12.7874  12.8461  12.8810  12.9862  13.0608
    13.1115  13.2207  13.2772  13.3535  13.4150  13.4839  13.5134  13.5581
    13.6183  13.6513  13.6976  13.7895  13.8434  13.8825  14.0185  14.0485
    14.0894  14.1556  14.2092  14.2525  14.3237  14.3413  14.4037  14.4175
    14.4665  14.5170  14.5328  14.5578  14.5773  14.6185  14.6734  14.7441
    14.7754  14.7910  14.8694  14.8926  14.9652  15.1396  15.1705  15.2184
    15.2355  15.2838  15.3317  15.3502  15.4126  15.4632  15.5221  15.5831
    15.6960  15.7823  15.8579  15.8790  15.9798  16.0016  16.0973  16.1631
    16.2000  16.2587  16.3245  16.3723  16.4472  16.5071  16.5492  16.6163
    16.6398  16.6659  16.7169  16.7395  16.7821  16.8352  16.9172  16.9357
    16.9639  17.0011  17.0541  17.1031  17.1431  17.1609  17.2424  17.2702
    17.3052  17.3637  17.4905  17.5479  17.5764  17.6598  17.6922  17.7387
    17.7740  17.8071  17.8638  17.8902  17.9402  17.9828  18.0167  18.0540
    18.0791  18.1144  18.1599  18.2253  18.2880  18.3183  18.3405  18.3848
    18.4432  18.4579  18.4884  18.5994  18.6932  18.7213  18.7578  18.8859
    18.9271  18.9979  19.0494  19.1017  19.1677  19.2376  19.2588  19.2740
    19.3100  19.3482  19.3812  19.4164  19.4579  19.4961  19.5242  19.5757
    19.5975  19.6272  19.6681  19.7161  19.7487  19.7627  19.8369  19.8625
    19.9223  19.9544  20.0439  20.1117  20.1429  20.2067  20.2395  20.3006
    20.3517  20.3875  20.4142  20.4399  20.5097  20.5171  20.6062  20.6475
    20.7279  20.8312  20.8885  20.9563  20.9803  21.0329  21.0631  21.0973
    21.1489  21.1650  21.2336  21.2996  21.3816  21.4663  21.5273  21.5542
    21.6801  21.7050  21.7338  21.7956  21.8216  21.9132  21.9512  21.9903
    22.0517  22.0940  22.1350  22.1950  22.2036  22.2670  22.3449  22.3990
    22.4491  22.4910  22.5188  22.5627  22.5888  22.6366  22.7550  22.7947
    22.8498  22.8672  22.9168  22.9737  22.9965  23.0245  23.0760  23.1205
    23.1862  23.2505  23.2824  23.3315  23.3535  23.3920  23.4417  23.5011
    23.5423  23.5794  23.5929  23.6174  23.6770  23.6891  23.7336  23.7515
    23.8135  23.8600  23.8960  23.9517  23.9769  24.0124  24.0816  24.1348
    24.1740  24.2151  24.2468  24.2931  24.3308  24.3954  24.4189  24.4382
    24.4704  24.5165  24.5696  24.6452  24.6998  24.7739  24.7937  24.8107
    24.8364  24.9142  24.9426  24.9711  25.0506  25.0695  25.0832  25.1219
    25.1435  25.1950  25.2429  25.2783  25.3124  25.3621  25.4160  25.4610
    25.5366  25.5838  25.5937  25.6358  25.6491  25.7572  25.8011  25.8244
    25.8522  25.8838  25.9279  25.9707  26.0330  26.0546  26.0836  26.1262
    26.1575  26.1604  26.2064  26.2405  26.2988  26.3270  26.3872  26.3963
    26.4534  26.4814  26.5290  26.5743  26.5954  26.6487  26.6894  26.7556
    26.7846  26.8273  26.8729  26.8981  26.9419  26.9988  27.0507  27.0823
    27.0982  27.1624  27.1912  27.2272  27.2624  27.2712  27.3008  27.3391
    27.3650  27.4384  27.4648  27.5070  27.5440  27.5797  27.6309  27.6560
    27.6743  27.7317

          k = 0.2500-0.4870 0.0000 ( 41596 PWs)   bands (ev):

   -74.1929 -72.7433 -72.7311 -72.5696 -72.5598 -72.4110 -72.4035 -72.3802
   -72.3524 -72.3464 -72.3146 -72.2792 -72.2467 -72.2356 -72.0878 -72.0715
   -46.9985 -43.6035 -43.2870 -42.8738 -42.7431 -42.7215 -42.7101 -42.6261
   -42.6226 -42.6189 -42.6096 -42.6047 -42.5833 -42.5763 -42.5757 -42.5739
   -42.5705 -42.5433 -42.4970 -42.4799 -42.4672 -42.4587 -42.4225 -42.4152
   -42.3943 -42.3608 -42.3080 -42.2949 -42.2730 -42.2657 -42.2619 -42.2357
   -42.2348 -42.2262 -42.2131 -42.1872 -42.1762 -42.1686 -42.1585 -42.1479
   -42.1303 -42.1183 -42.0892 -42.0616 -42.0478 -41.9713 -41.9282 -41.8987
   -22.1665 -18.5388 -18.4711 -18.2478 -18.1663 -18.1344 -18.0220 -17.9313
   -17.9172 -17.9032 -17.8942 -17.8544 -17.8543 -17.8320 -17.8120 -17.7286
   -17.6748 -17.5567 -17.4972 -17.4693 -17.4408 -17.4180 -17.3928 -17.3888
   -17.3849 -17.3586 -17.3519 -17.3260 -17.3002 -17.1878 -16.9137 -16.2951
   -16.2353 -11.7409  -9.4369  -8.7212  -6.6650  -6.6480  -6.0534  -5.9874
    -5.9728  -5.9409  -5.9378  -5.9136  -5.8754  -5.8378  -5.8356  -5.8175
    -5.8026  -5.7682  -5.7642  -5.7292  -5.7264  -5.7104  -5.6270  -5.6013
    -5.5990  -5.5281  -5.5194  -5.5160  -5.4656  -5.4514  -5.3561  -5.2591
    -5.2270  -5.1129  -5.1029  -4.8390  -4.7536  -4.6915  -4.6732  -4.5764
    -4.4766  -4.4296  -4.3395  -4.2767  -4.2693  -4.1560  -4.0983  -4.0894
    -4.0612  -4.0018  -3.9914  -3.9423  -3.8962  -3.8468  -3.7986  -3.7856
    -3.7118  -3.5671  -3.5570  -3.4712  -3.4383  -3.3741  -3.3320  -3.3161
    -3.2716  -3.2613  -3.1734  -3.1362  -3.0967  -3.0258  -3.0109  -2.9822
    -2.9659  -2.8810  -2.7740  -2.7602  -2.7498  -2.5958  -2.4864  -2.3672
    -2.3403  -2.3341  -2.2235  -2.1662  -2.0974  -1.9280  -1.8947  -1.8429
    -1.7242  -1.6852  -1.6316  -1.5678  -1.5199  -1.4678  -1.3876  -1.3722
    -1.3626  -1.3159  -1.2386  -1.1660  -0.4087  -0.3885  -0.2984  -0.2049
    -0.0606   0.1511   0.1563   0.2113   0.2617   0.3257   0.3612   0.4264
     0.4450   0.5182   0.5419   0.5555   0.6018   0.6836   0.7858   0.8023
     0.8210   0.8371   0.8818   0.9209   0.9297   0.9824   1.0363   1.1056
     1.1294   1.1519   1.1874   1.1967   1.2037   1.3254   1.3398   1.4993
     1.5551   1.5971   1.6505   1.7809   1.8918   1.9265   1.9747   1.9780
     2.0502   2.1489   2.1706   2.4519   2.5735   2.6222   2.7520   2.7917
     3.1783   3.1844   3.2609   3.3649   3.6351   4.1850   4.2565   4.2596
     4.3314   4.3832   4.5848   4.7125   4.7621   4.9642   5.0503   5.2339
     5.2974   5.3205   5.3719   5.3800   5.4384   5.7025   5.7342   5.8158
     5.8344   5.8367   5.9069   5.9863   6.6176   6.8287   7.0770   7.2164
     7.2997   7.4863   7.5436   7.6847   7.9808   8.0241   8.0759   8.3471
     8.5113   8.6469   8.6553   9.0110   9.0239   9.1153   9.1178   9.2138
     9.3229   9.3646   9.4259   9.4883   9.6021   9.7002   9.8516   9.8780
    10.1144  10.1490  10.3562  10.3735  10.4471  10.5094  10.6776  10.7414
    10.8560  10.8923  11.0292  11.0456  11.1160  11.1694  11.3393  11.3632
    11.4512  11.6364  11.8326  11.8467  11.9936  12.0120  12.1519  12.2036
    12.2873  12.3563  12.4482  12.5757  12.7056  12.7753  12.8311  12.8396
    12.9111  12.9668  13.0654  13.1145  13.1639  13.2244  13.2727  13.3308
    13.3655  13.3766  13.5173  13.6124  13.6138  13.6826  13.7002  13.7362
    13.8676  13.8973  13.9835  13.9917  14.1077  14.1141  14.1824  14.2094
    14.2619  14.2954  14.4062  14.4158  14.4484  14.4618  14.4845  14.5202
    14.6308  14.7701  14.7804  14.8559  14.8752  14.8812  14.9257  14.9371
    15.0303  15.0780  15.1000  15.1867  15.2213  15.2405  15.2753  15.3185
    15.3303  15.3562  15.3825  15.4863  15.5382  15.5412  15.6461  15.6461
    15.7127  15.7391  15.7483  15.8635  15.9531  16.0203  16.1125  16.1571
    16.1875  16.2810  16.3227  16.3318  16.3807  16.4025  16.4666  16.4955
    16.5445  16.5603  16.6647  16.6722  16.7254  16.7376  16.7966  16.8467
    16.8627  16.8863  16.9020  16.9509  16.9892  17.0275  17.0881  17.2203
    17.2639  17.3123  17.3306  17.3608  17.3676  17.3971  17.4819  17.5069
    17.5654  17.6152  17.6737  17.7031  17.8472  17.9488  17.9959  18.0823
    18.0834  18.1435  18.1472  18.2015  18.2080  18.2338  18.3259  18.4304
    18.4539  18.4831  18.4951  18.5378  18.5678  18.5929  18.6044  18.6875
    18.7260  18.7503  18.7933  18.8251  18.8534  18.8941  18.9009  18.9730
    19.0521  19.0559  19.1195  19.1275  19.1862  19.3072  19.3278  19.3665
    19.3784  19.4712  19.7125  19.7458  19.8047  19.8229  19.8773  19.8881
    19.9569  19.9859  20.0376  20.0979  20.1442  20.1977  20.2046  20.2639
    20.2884  20.3212  20.3352  20.3833  20.3863  20.4842  20.5578  20.5660
    20.6229  20.6388  20.6685  20.7447  20.7748  20.7942  20.9173  20.9640
    20.9971  21.0632  21.0808  21.1247  21.1833  21.1890  21.2335  21.2741
    21.2747  21.3651  21.4506  21.4883  21.6119  21.6381  21.6620  21.6637
    21.7026  21.7976  21.8239  21.8590  21.8961  21.9284  21.9361  21.9674
    22.0078  22.0803  22.1560  22.1830  22.2715  22.3193  22.3988  22.4227
    22.5137  22.5201  22.6133  22.6283  22.6477  22.7806  22.8213  22.8433
    22.9022  22.9230  22.9395  22.9636  23.0569  23.0893  23.2300  23.3093
    23.3367  23.3415  23.4638  23.5111  23.5338  23.5923  23.6240  23.6425
    23.7272  23.7307  23.8174  23.8561  23.9802  24.0027  24.0199  24.1462
    24.2137  24.2753  24.2812  24.3103  24.4226  24.4385  24.5044  24.5607
    24.5617  24.6144  24.6634  24.6718  24.7870  24.8558  24.9192  24.9479
    25.0098  25.0972  25.1448  25.1556  25.2152  25.2202  25.3039  25.4457
    25.4498  25.5311  25.5511  25.6468  25.6667  25.7303  25.7441  25.7677
    25.8110  25.8381  25.8613  25.9352  25.9653  25.9989  26.0370  26.0918
    26.1124  26.1449  26.1628  26.1929  26.2550  26.2950  26.3115  26.3287
    26.4015  26.4057  26.4592  26.5365  26.5544  26.5818  26.5835  26.6080
    26.6095  26.6557  26.6698  26.7216  26.7273  26.7950  26.8162  26.8305
    26.8326  26.8846  26.9169  26.9701  27.0327  27.0353  27.0960  27.1091
    27.1447  27.2144  27.2479  27.3126  27.3152  27.3741  27.3814  27.4256
    27.4345  27.4475  27.4878  27.5734  27.5889  27.6159  27.6779  27.7097
    27.7153  27.7631

          k =-0.5000 0.0000 0.0000 ( 41612 PWs)   bands (ev):

   -74.1929 -72.7420 -72.7324 -72.5680 -72.5614 -72.4079 -72.4066 -72.3797
   -72.3521 -72.3467 -72.3150 -72.2787 -72.2471 -72.2356 -72.0869 -72.0724
   -46.9987 -43.6039 -43.2828 -42.8091 -42.8087 -42.7196 -42.7120 -42.6236
   -42.6217 -42.6196 -42.6028 -42.5903 -42.5821 -42.5739 -42.5734 -42.5726
   -42.5447 -42.5431 -42.5371 -42.4968 -42.4663 -42.4590 -42.4090 -42.4001
   -42.3599 -42.3585 -42.3111 -42.2889 -42.2772 -42.2598 -42.2505 -42.2494
   -42.2405 -42.2259 -42.2254 -42.2122 -42.1878 -42.1636 -42.1449 -42.1327
   -42.1163 -42.1159 -42.1104 -42.0900 -42.0734 -41.9705 -41.9217 -41.9034
   -22.1669 -18.4903 -18.4022 -18.3341 -18.2472 -18.1723 -18.0975 -18.0816
   -18.0084 -17.9595 -17.9491 -17.9110 -17.7287 -17.6958 -17.6530 -17.6159
   -17.6020 -17.5300 -17.5182 -17.4464 -17.4431 -17.4420 -17.3704 -17.3694
   -17.3351 -17.2983 -17.2944 -17.2402 -17.2394 -17.1118 -17.0804 -16.3153
   -16.3093 -11.7605  -9.4665  -8.7363  -6.5795  -6.5192  -6.4804  -6.4509
    -6.4371  -6.4327  -6.4037  -6.3973  -6.3110  -6.2336  -6.2085  -6.1190
    -5.8764  -5.8252  -5.8009  -5.7947  -5.7704  -5.7673  -5.6928  -5.6572
    -5.6487  -5.5852  -5.5693  -5.4452  -5.3459  -5.3426  -5.3326  -5.2526
    -5.0187  -4.8790  -4.8496  -4.8304  -4.7687  -4.6216  -4.4770  -4.4620
    -4.4468  -4.4115  -4.4003  -4.2779  -4.1294  -4.0823  -4.0046  -4.0008
    -3.8581  -3.8320  -3.8311  -3.8249  -3.7347  -3.7063  -3.6307  -3.6266
    -3.4177  -3.4144  -3.3593  -3.2980  -3.2731  -3.2013  -3.1955  -3.0213
    -2.9551  -2.9543  -2.9130  -2.9068  -2.8974  -2.8890  -2.8775  -2.8472
    -2.8390  -2.7613  -2.6667  -2.5861  -2.5390  -2.4167  -2.3971  -2.3904
    -2.3103  -2.3092  -2.2904  -2.2734  -2.2220  -2.2060  -2.1938  -2.0888
    -2.0810  -2.0086  -1.9931  -1.9127  -1.5451  -1.4408  -1.3849  -1.3598
    -1.3475  -1.2963  -1.0607  -1.0408  -0.3941  -0.2684  -0.2064  -0.1529
     0.0210   0.2386   0.3835   0.4120   0.4180   0.4305   0.4579   0.4618
     0.4689   0.4894   0.4989   0.5971   0.5973   0.7942   0.8318   0.8681
     0.8822   0.9119   0.9210   1.0011   1.0084   1.0240   1.0441   1.0600
     1.0816   1.1419   1.1667   1.2923   1.2985   1.3346   1.3446   1.3503
     1.3641   1.3744   1.3812   1.4040   1.5829   1.5939   1.7785   1.8538
     1.9540   2.1552   2.2014   2.3572   2.3715   2.6469   2.6903   3.6737
     3.7258   3.9591   3.9963   4.1376   4.2199   4.3082   4.3536   4.4221
     4.5006   4.5037   4.6671   4.6937   4.7117   4.7277   4.7359   4.7422
     4.7529   4.7549   4.7574   4.8234   4.8373   4.8933   4.8995   5.4432
     5.4679   5.7847   5.8332   5.9906   6.5071   6.8112   6.8133   6.9173
     6.9973   7.2513   7.3407   7.6538   7.7791   8.1387   8.2867   8.3130
     8.6835   8.8173   9.0268   9.1380   9.2901   9.3829   9.4788   9.7149
     9.8474   9.9154   9.9773  10.0474  10.2053  10.2072  10.3088  10.4011
    10.5711  10.5746  10.6101  10.6418  10.6993  10.7135  10.7898  10.8688
    10.9045  10.9493  11.1160  11.1560  11.2264  11.2350  11.2437  11.3034
    11.5121  11.5306  11.6306  11.6984  11.7337  11.7999  11.8035  11.8752
    12.1603  12.1926  12.2923  12.3101  12.3786  12.4027  12.4288  12.4444
    12.4739  12.5373  12.6130  12.6154  12.7089  12.7196  12.7556  12.7617
    12.9392  13.0148  13.0390  13.1173  13.2055  13.2394  13.3496  13.3574
    13.4549  13.6727  13.7539  13.8276  13.9206  13.9802  14.0458  14.0768
    14.1946  14.2082  14.2347  14.2640  14.2694  14.3262  14.3836  14.4136
    14.4167  14.5510  14.5767  14.5795  14.6002  14.6311  14.6363  14.6737
    14.7653  14.8480  14.8487  14.8706  14.9205  15.0319  15.1559  15.2296
    15.3817  15.4845  15.5330  15.5333  15.6255  15.6711  15.7205  15.7741
    15.7885  15.8229  15.9414  16.0962  16.1481  16.2061  16.2685  16.3264
    16.3917  16.4166  16.4553  16.5839  16.5948  16.6081  16.6120  16.6547
    16.6554  16.6761  16.6864  16.7181  16.7780  16.7882  16.8172  16.8265
    16.8917  16.9217  17.0373  17.0411  17.0495  17.0827  17.1235  17.1650
    17.1934  17.3598  17.4071  17.5415  17.5966  17.6046  17.6513  17.6610
    17.6915  17.9319  17.9368  17.9763  17.9966  18.1240  18.1717  18.2085
    18.2426  18.2645  18.2781  18.3459  18.3533  18.3733  18.4086  18.4433
    18.5017  18.5155  18.5426  18.5556  18.5585  18.5784  18.6838  18.7072
    18.7901  18.8291  18.9001  18.9432  18.9571  19.0203  19.0328  19.1310
    19.1882  19.1997  19.2023  19.2545  19.3012  19.3350  19.4647  19.5292
    19.6437  19.7730  19.8433  19.8865  19.9160  19.9194  19.9348  20.0238
    20.0328  20.0667  20.1531  20.2678  20.3044  20.3543  20.3632  20.4855
    20.5505  20.5811  20.6412  20.7874  20.8139  20.8840  20.9298  20.9517
    21.1035  21.1570  21.1582  21.1879  21.1930  21.1987  21.3026  21.3225
    21.3242  21.4293  21.4635  21.5235  21.5278  21.5689  21.6250  21.6711
    21.7428  21.7687  21.7715  21.8173  21.8186  21.8679  21.9051  21.9659
    21.9701  21.9920  22.0207  22.0510  22.0878  22.1097  22.1724  22.1737
    22.2192  22.2477  22.2850  22.3286  22.3410  22.4577  22.4595  22.4915
    22.5637  22.6122  22.6680  22.7589  22.7934  22.8231  22.8790  22.8948
    22.9227  23.0365  23.0621  23.1521  23.1602  23.1703  23.2220  23.2362
    23.2977  23.3778  23.4379  23.4514  23.4718  23.5187  23.5477  23.5552
    23.5979  23.6991  23.7325  23.7840  23.7893  23.8105  23.8131  23.8658
    23.8721  23.9498  24.0057  24.0456  24.0489  24.1347  24.1536  24.1615
    24.1948  24.2846  24.2967  24.3054  24.3234  24.3593  24.4254  24.5072
    24.5563  24.5961  24.6995  24.7231  24.7864  24.8864  24.8971  24.9468
    24.9897  24.9989  25.0403  25.1341  25.1405  25.2086  25.2165  25.2784
    25.3631  25.3769  25.3877  25.4226  25.4984  25.4989  25.5384  25.5477
    25.7241  25.7621  25.8694  25.9622  25.9806  26.0985  26.1457  26.2544
    26.2646  26.2732  26.3503  26.3669  26.4309  26.4655  26.5149  26.5693
    26.5959  26.6002  26.6541  26.7374  26.8397  26.8938  26.9210  26.9494
    26.9541  27.0406  27.0476  27.0680  27.1219  27.1391  27.1486  27.1497
    27.1888  27.2320  27.2447  27.3423  27.3962  27.4044  27.4637  27.5068
    27.5096  27.5256  27.5852  27.6336  27.6467  27.6599  27.6744  27.6978
    27.7829  27.8837

          k =-0.5000 0.2435 0.0000 ( 41580 PWs)   bands (ev):

   -74.1928 -72.7420 -72.7324 -72.5680 -72.5614 -72.4079 -72.4066 -72.3797
   -72.3521 -72.3467 -72.3150 -72.2787 -72.2471 -72.2356 -72.0869 -72.0724
   -46.9986 -43.6037 -43.2831 -42.8091 -42.8087 -42.7195 -42.7121 -42.6235
   -42.6216 -42.6196 -42.6028 -42.5903 -42.5821 -42.5738 -42.5734 -42.5725
   -42.5447 -42.5431 -42.5371 -42.4968 -42.4661 -42.4589 -42.4089 -42.4000
   -42.3599 -42.3585 -42.3105 -42.2883 -42.2768 -42.2589 -42.2504 -42.2491
   -42.2396 -42.2264 -42.2255 -42.2122 -42.1885 -42.1642 -42.1456 -42.1333
   -42.1159 -42.1159 -42.1101 -42.0907 -42.0732 -41.9709 -41.9222 -41.9038
   -22.1664 -18.4415 -18.3268 -18.2713 -18.1585 -18.0995 -18.0364 -18.0064
   -17.9917 -17.9492 -17.9095 -17.8746 -17.7360 -17.6721 -17.6643 -17.6487
   -17.6109 -17.5575 -17.5366 -17.5121 -17.5062 -17.4482 -17.4435 -17.4324
   -17.3973 -17.3731 -17.3616 -17.3469 -17.3441 -17.1110 -17.0789 -16.3144
   -16.3084 -11.7506  -9.4544  -8.7155  -6.4232  -6.2968  -6.2762  -6.2661
    -6.2069  -6.1510  -6.1268  -6.1223  -6.0973  -6.0911  -6.0647  -6.0461
    -5.8219  -5.7886  -5.7866  -5.6692  -5.6599  -5.6236  -5.6218  -5.5976
    -5.5856  -5.5101  -5.5045  -5.4923  -5.4174  -5.3197  -5.3078  -5.2460
    -4.8959  -4.8943  -4.8032  -4.7690  -4.6714  -4.6545  -4.5592  -4.5087
    -4.4992  -4.4538  -4.4420  -4.3976  -4.3637  -4.3578  -4.3085  -4.2813
    -4.2275  -4.1440  -4.1258  -4.0266  -4.0070  -3.9776  -3.6462  -3.6030
    -3.5540  -3.5079  -3.4236  -3.3461  -3.3300  -3.2463  -3.2261  -3.1662
    -3.1069  -3.0878  -3.0524  -2.9486  -2.9258  -2.9158  -2.8863  -2.8648
    -2.8486  -2.8321  -2.8249  -2.6867  -2.6738  -2.6183  -2.5790  -2.4689
    -2.3883  -2.3610  -2.3013  -2.2873  -2.1959  -2.1678  -2.1022  -2.0704
    -2.0182  -1.9883  -1.9689  -1.9208  -1.5724  -1.5335  -1.3766  -1.3572
    -1.2831  -1.2404  -1.1486  -1.1335  -0.2619  -0.2582  -0.1330  -0.0699
     0.0163   0.3075   0.3784   0.4406   0.4591   0.4730   0.5227   0.5299
     0.6247   0.6332   0.7610   0.7742   0.8370   0.8685   0.8747   0.9144
     0.9192   0.9335   0.9688   0.9796   1.0019   1.0610   1.0741   1.1054
     1.1210   1.1842   1.1886   1.2210   1.2224   1.2948   1.3243   1.4901
     1.5206   1.5293   1.5564   1.5746   1.5801   1.5911   1.6627   1.7854
     1.8373   2.0332   2.0647   2.4703   2.4813   2.5989   2.8093   3.5831
     3.7961   3.8275   3.8952   4.0270   4.0805   4.1048   4.1184   4.1366
     4.1396   4.1660   4.1685   4.5537   4.5827   4.6546   4.6969   4.7927
     4.7985   4.9285   4.9862   5.2099   5.2495   5.2761   5.2833   5.5390
     5.5488   5.9080   5.9364   6.0727   6.6979   6.9474   6.9500   7.1226
     7.2116   7.4416   7.5442   7.8013   7.9531   8.1610   8.2581   8.4547
     8.5216   8.6334   8.8544   8.9287   9.0386   9.0776   9.0979   9.1365
     9.2848   9.3577   9.5284   9.5540   9.5590   9.6665   9.8318   9.9383
    10.1936  10.2497  10.2985  10.3304  10.5005  10.6387  10.7292  10.7891
    10.8881  11.0463  11.0869  11.1018  11.2219  11.2574  11.3415  11.3901
    11.7220  11.7655  11.8258  11.8932  11.9465  12.0234  12.2662  12.3209
    12.4552  12.5121  12.6099  12.6331  12.6656  12.6964  12.7521  12.8013
    12.9850  13.0253  13.0483  13.0933  13.1754  13.2056  13.2596  13.2844
    13.3499  13.4111  13.4260  13.4468  13.5134  13.5558  13.5853  13.6311
    13.8250  14.0040  14.0694  14.0999  14.1569  14.1662  14.1960  14.2125
    14.2501  14.2577  14.3535  14.3758  14.3884  14.4012  14.4361  14.4907
    14.4942  14.5422  14.6023  14.7122  14.7963  14.8325  14.8600  14.9397
    14.9739  15.0214  15.0739  15.1386  15.2313  15.2580  15.3022  15.3630
    15.4117  15.5031  15.6108  15.6889  15.7403  15.7606  15.8291  15.8612
    15.8804  15.8943  15.9394  16.0069  16.0564  16.1087  16.1365  16.1824
    16.2012  16.3260  16.3580  16.4120  16.5081  16.5999  16.6213  16.6515
    16.6756  16.6853  16.7112  16.7780  16.7987  16.8366  16.8779  16.9121
    16.9371  16.9627  16.9631  16.9833  16.9886  17.0964  17.1451  17.1902
    17.2254  17.2400  17.2510  17.3085  17.3657  17.3823  17.4254  17.4562
    17.4883  17.5257  17.5477  17.5572  17.5717  17.6603  17.7035  17.7647
    17.7750  17.8290  17.8361  17.8709  17.9119  17.9423  18.0434  18.1345
    18.1861  18.2366  18.2604  18.3579  18.4223  18.4352  18.5036  18.5563
    18.5817  18.6121  18.6397  18.7003  18.7688  18.8384  18.8758  18.9196
    18.9923  19.0745  19.1377  19.1939  19.2521  19.3457  19.3704  19.4060
    19.4991  19.5434  19.5967  19.6463  19.7288  19.8026  19.8469  19.8726
    19.9547  20.0022  20.0274  20.0869  20.1243  20.1393  20.2032  20.2483
    20.2852  20.3638  20.3725  20.4095  20.4893  20.5422  20.5659  20.6016
    20.6562  20.6607  20.7041  20.7077  20.7997  20.8295  20.9400  21.0401
    21.0988  21.1073  21.1350  21.1713  21.1855  21.1902  21.2136  21.2985
    21.3682  21.4009  21.4804  21.5435  21.5916  21.6373  21.6605  21.7351
    21.7621  21.8828  21.8976  21.9272  22.0587  22.0874  22.1755  22.2287
    22.2781  22.2995  22.3077  22.3638  22.4417  22.4685  22.5018  22.5484
    22.6185  22.6469  22.6634  22.7215  22.9000  22.9643  23.0076  23.0233
    23.0686  23.1032  23.1952  23.2317  23.2891  23.3451  23.4331  23.4888
    23.5307  23.5891  23.6355  23.7400  23.7664  23.7877  23.8199  23.8537
    23.9314  24.0097  24.0306  24.0631  24.1018  24.1515  24.1626  24.1815
    24.2108  24.2142  24.2660  24.3140  24.3799  24.3911  24.4651  24.5319
    24.5404  24.5522  24.6314  24.7252  24.7409  24.7680  24.7906  24.8344
    24.9524  25.0814  25.1145  25.1436  25.2147  25.2779  25.3094  25.3688
    25.4178  25.4336  25.4803  25.5127  25.5589  25.5853  25.6116  25.6317
    25.6827  25.6940  25.6988  25.7372  25.7645  25.7847  25.8213  25.8571
    25.8913  25.9101  25.9712  25.9928  26.0270  26.0525  26.0805  26.0888
    26.1695  26.2106  26.2893  26.3076  26.3538  26.3781  26.4350  26.4491
    26.4638  26.4983  26.5224  26.5362  26.5935  26.6161  26.6570  26.6655
[...]
     4.4716   4.6195   4.6336   4.7968   4.8981   4.9200   4.9259   5.0228
     5.2150   5.4435   5.5717   5.6243   6.4851   6.6518   6.6539   7.2563
     7.3412   7.3923   7.5913   7.6959   7.9538   8.0929   8.3487   8.5003
     8.6180   8.7701   8.8497   8.8581   8.8664   9.0156   9.1940   9.2376
     9.2565   9.3368   9.4624   9.5155   9.5757   9.6615   9.8258   9.9194
    10.1631  10.2375  10.2971  10.4122  10.4522  10.4650  10.4801  10.5060
    10.8162  10.8820  11.0177  11.0545  11.0930  11.1288  11.3722  11.4679
    11.6641  11.7339  11.7594  11.7859  11.9047  12.0500  12.2214  12.2833
    12.3857  12.4366  12.4930  12.5413  12.6276  12.7449  12.8149  12.8336
    12.8900  12.9578  12.9654  12.9729  13.0369  13.0550  13.0818  13.1303
    13.1732  13.2445  13.2652  13.3075  13.6001  13.6168  13.6385  13.7075
    13.8052  13.8340  13.8998  13.9037  13.9297  13.9685  14.0263  14.0448
    14.0568  14.1092  14.1869  14.2096  14.2544  14.2745  14.2900  14.3354
    14.4013  14.4958  14.5416  14.6311  14.6708  14.7984  15.0035  15.0232
    15.0525  15.0590  15.1644  15.2068  15.2143  15.2620  15.2892  15.3265
    15.4180  15.4518  15.5847  15.6132  15.6622  15.6848  15.7102  15.8097
    15.8391  15.8490  15.8901  15.9057  15.9466  15.9669  16.0485  16.1914
    16.2553  16.2710  16.2990  16.3180  16.3734  16.3877  16.4440  16.4931
    16.5242  16.5324  16.5378  16.5770  16.6125  16.6449  16.6871  16.7574
    16.7931  16.8898  16.9023  16.9656  16.9735  17.0282  17.0406  17.0861
    17.1163  17.1450  17.1758  17.2337  17.2465  17.2772  17.3181  17.3272
    17.3358  17.3866  17.4508  17.4887  17.5174  17.5576  17.5970  17.6199
    17.6915  17.7181  17.7609  17.8445  17.9029  17.9290  17.9780  18.0405
    18.0790  18.0981  18.2963  18.3477  18.3598  18.4616  18.4910  18.5713
    18.5844  18.6371  18.6790  18.7220  18.7763  18.8088  18.8591  19.0045
    19.0051  19.0618  19.1116  19.1684  19.2118  19.2407  19.3173  19.4175
    19.4521  19.4959  19.5158  19.6536  19.7798  19.7905  19.8098  19.8396
    19.8537  19.8992  19.9202  20.0938  20.0973  20.1300  20.1638  20.2225
    20.2600  20.3040  20.4257  20.4730  20.5100  20.5754  20.5885  20.6344
    20.6435  20.6869  20.6911  20.7198  20.7341  20.8417  20.8907  20.9079
    20.9546  21.0210  21.0478  21.1591  21.2011  21.2324  21.2694  21.2995
    21.3658  21.3866  21.4706  21.6051  21.6207  21.6582  21.7010  21.7151
    21.7519  21.7602  21.8855  21.9302  22.0226  22.1052  22.1629  22.1683
    22.1919  22.1992  22.2631  22.3003  22.3445  22.3982  22.4575  22.4953
    22.5177  22.5582  22.7103  22.7426  22.8529  22.8974  22.9553  22.9800
    23.0033  23.0912  23.1166  23.1470  23.2518  23.3104  23.3693  23.3850
    23.4134  23.4365  23.6211  23.6497  23.6748  23.6879  23.7634  23.8046
    23.8236  23.8274  23.8757  23.8931  23.9364  23.9517  24.0407  24.0995
    24.1451  24.1680  24.1842  24.2490  24.2703  24.2906  24.3361  24.4279
    24.5264  24.5362  24.5989  24.6428  24.6786  24.7282  24.7652  24.8207
    24.9742  24.9964  25.0207  25.0689  25.1534  25.2017  25.2485  25.3061
    25.3334  25.3521  25.4048  25.4626  25.4911  25.5005  25.5940  25.6286
    25.6595  25.6874  25.7172  25.7288  25.7559  25.8039  25.8317  25.8613
    25.9320  25.9733  25.9777  26.0025  26.0625  26.0759  26.1163  26.1429
    26.1582  26.2038  26.2480  26.2585  26.2874  26.3219  26.3556  26.3742
    26.4089  26.4770  26.4840  26.5062  26.5520  26.5710  26.5862  26.6096
    26.6781  26.6980  26.7627  26.7641  26.7933  26.8183  26.8504  26.8723
    26.8843  26.9419  26.9810  27.0359  27.0505  27.1016  27.1544  27.2096
    27.2327  27.2688  27.2814  27.3246  27.3515  27.4067  27.4285  27.4624
    27.4868  27.5163

          k =-0.5000-0.4870 0.0000 ( 41560 PWs)   bands (ev):

   -73.1264 -73.1204 -72.9254 -72.9238 -72.9235 -72.7576 -72.7575 -72.7185
   -72.6992 -72.6953 -72.6893 -72.6495 -72.6464 -72.6441 -72.4434 -72.4356
   -43.2005 -43.1977 -43.1521 -43.0962 -43.0929 -42.9827 -42.9826 -42.9749
   -42.9693 -42.9562 -42.9320 -42.9315 -42.9240 -42.9237 -42.9236 -42.8966
   -42.8952 -42.8819 -42.8505 -42.8490 -42.7820 -42.7750 -42.7657 -42.7652
   -42.7114 -42.7112 -42.6591 -42.6502 -42.6360 -42.6067 -42.6035 -42.5995
   -42.5967 -42.5915 -42.5878 -42.5782 -42.5734 -42.5065 -42.4896 -42.4831
   -42.4816 -42.4781 -42.4703 -42.4696 -42.4667 -42.4130 -42.2792 -42.2698
   -18.7348 -18.6464 -18.5338 -18.5309 -18.3975 -18.3951 -18.2703 -18.2628
   -18.1486 -18.1181 -18.1077 -18.1012 -18.0745 -18.0397 -18.0201 -18.0031
   -17.9607 -17.9510 -17.9215 -17.9159 -17.9041 -17.9023 -17.8393 -17.8357
   -17.8316 -17.8103 -17.7408 -17.7222 -17.5624 -17.4180 -17.4080 -16.6720
   -16.6637  -6.7942  -6.7408  -6.6146  -6.6135  -6.3467  -6.2426  -6.1236
    -6.1211  -6.0265  -6.0049  -5.9953  -5.9905  -5.9875  -5.9859  -5.9818
    -5.9656  -5.9579  -5.9480  -5.9420  -5.9255  -5.8035  -5.6768  -5.6659
    -5.6631  -5.6616  -5.6091  -5.5896  -5.5884  -5.5877  -5.5465  -5.3160
    -5.3157  -5.2931  -5.2825  -5.2577  -5.2555  -5.2435  -5.2272  -5.2246
    -5.1958  -5.0051  -4.8180  -4.7184  -4.7100  -4.7013  -4.6833  -4.6715
    -4.5506  -4.4217  -4.2536  -4.1995  -4.1666  -4.1378  -4.1072  -4.0605
    -3.9496  -3.9100  -3.8998  -3.8362  -3.8302  -3.8199  -3.8086  -3.8064
    -3.8051  -3.7743  -3.5978  -3.5610  -3.5388  -3.5357  -3.5332  -3.5139
    -3.4834  -3.3884  -3.1725  -3.1063  -3.0814  -3.0620  -2.5736  -2.5700
    -2.4412  -2.4153  -2.3464  -2.3321  -2.2751  -2.2699  -2.1632  -2.1617
    -2.0957  -2.0440  -1.9165  -1.8789  -1.8719  -1.8557  -1.7974  -1.7919
    -1.6518  -1.6161  -1.4587  -0.9015  -0.5318  -0.4548  -0.4394  -0.3946
    -0.2159  -0.1853  -0.1716  -0.1082   0.0331   0.1234   0.1430   0.1809
     0.2009   0.2343   0.2611   0.3449   0.5099   0.5646   0.6736   0.6816
     0.7383   0.7870   0.7943   0.8033   0.8644   0.8661   0.8727   0.8785
     0.9025   0.9305   0.9649   0.9780   0.9950   0.9966   1.0608   1.1712
     1.1908   1.2426   1.2511   1.2997   1.3244   1.3765   1.4137   1.4146
     1.4520   1.4808   1.5336   1.5686   2.2053   2.2101   2.5926   3.2136
     3.3059   3.3445   3.3541   3.3837   3.3912   3.4478   3.4504   3.5946
     3.6039   3.6385   3.7148   4.2043   4.2330   4.2444   4.3412   4.5610
     4.6327   4.6573   4.7286   5.0299   5.1138   5.1341   5.2123   5.3565
     5.4033   5.4116   5.4960   5.5208   6.6614   6.8524   6.8552   7.8212
     7.8264   7.8520   7.8578   7.9726   8.0357   8.0967   8.0990   8.1436
     8.3358   8.3880   8.4047   8.4811   8.7580   8.7941   8.8383   8.9163
     9.2676   9.2762   9.3799   9.4231   9.5442   9.5736   9.5862   9.5887
     9.9709   9.9770  10.0384  10.0701  10.1410  10.1476  10.1570  10.1967
    10.7677  10.7721  10.8350  10.8635  10.9444  10.9672  10.9758  11.0653
    11.5717  11.5886  11.6578  11.7254  12.0448  12.0849  12.1808  12.2922
    12.5438  12.6019  12.6217  12.8370  13.0299  13.0492  13.0770  13.1017
    13.2182  13.2978  13.3339  13.5568  13.6639  13.6865  13.7201  13.7830
    13.7950  13.8281  13.8490  13.8859  13.9309  14.0232  14.0427  14.0573
    14.1396  14.1471  14.1789  14.2508  14.2625  14.3921  14.4214  14.4283
    14.5158  14.5914  14.6025  14.7070  14.7118  14.7295  14.8321  14.9098
    14.9192  14.9579  14.9644  15.0359  15.0672  15.0702  15.0985  15.3060
    15.3140  15.3183  15.3467  15.3645  15.3803  15.4019  15.4093  15.5946
    15.6444  15.6656  15.6902  15.6953  15.7079  15.7374  15.7394  15.7672
    15.7727  15.7971  15.8088  15.8449  15.8616  15.9006  15.9032  15.9112
    15.9164  15.9386  15.9924  16.0481  16.1367  16.1395  16.1563  16.1687
    16.2056  16.2382  16.2700  16.2974  16.3725  16.3986  16.4104  16.4445
    16.4832  16.4978  16.5259  16.5593  16.6620  16.7343  16.7370  16.7471
    16.8048  16.8225  16.8271  16.9017  16.9766  17.0512  17.0554  17.0921
    17.2934  17.3110  17.3442  17.3696  17.4342  17.4597  17.4688  17.4822
    17.6384  17.6620  17.7245  17.7621  17.7627  17.7917  17.8354  17.9174
    18.0533  18.0578  18.0902  18.1163  18.1449  18.1909  18.2356  18.3007
    18.3395  18.3744  18.3959  18.3998  18.5206  18.5418  18.5666  18.6564
    18.7683  18.7857  18.8084  18.8579  18.9181  18.9890  18.9922  19.0178
    19.0222  19.0497  19.1372  19.2900  19.3664  19.3822  19.4060  19.4137
    19.4548  19.4963  19.5183  19.5742  19.7864  19.8758  19.9539  19.9875
    20.0491  20.1935  20.2110  20.2179  20.2633  20.3715  20.3827  20.3954
    20.4486  20.5056  20.5392  20.6242  20.6471  20.7155  20.7250  20.7762
    20.7804  20.7943  20.8094  21.1042  21.3119  21.3252  21.3495  21.5063
    21.7182  21.7838  21.8070  21.8865  21.8934  21.9123  21.9278  22.0683
    22.0809  22.1080  22.1496  22.2314  22.2712  22.3170  22.3413  22.3609
    22.3733  22.5730  22.5962  22.5967  22.6757  22.8156  22.8251  22.8345
    22.8901  22.9783  23.0041  23.0139  23.0224  23.0566  23.0608  23.1103
    23.1278  23.1605  23.1992  23.3147  23.3528  23.3647  23.3801  23.4384
    23.4852  23.5070  23.5268  23.5696  23.6631  23.6681  23.7094  23.7595
    23.8318  23.8443  23.8458  23.8788  23.8871  23.9473  23.9584  24.0308
    24.0398  24.0567  24.0947  24.1082  24.1747  24.1969  24.2133  24.2438
    24.3317  24.3492  24.3789  24.4188  24.4627  24.4826  24.4886  24.5048
    24.5859  24.6313  24.6644  24.6666  24.8616  24.8703  24.8933  24.9694
    24.9786  24.9892  24.9978  25.0133  25.1492  25.1592  25.1861  25.2180
    25.2602  25.3306  25.3793  25.4029  25.4316  25.5245  25.5397  25.5542
    25.6384  25.6697  25.7185  25.7608  25.8145  25.8776  25.9202  25.9282
    25.9427  25.9473  26.0916  26.0998  26.1288  26.1978  26.2146  26.3089
    26.3724  26.4204  26.4574  26.4613  26.5556  26.5562  26.6351  26.6539
    26.7244  26.8688  26.9007  26.9606  26.9629  26.9961  27.0060  27.0566
    27.0915  27.1154  27.1211  27.1706  27.2463  27.2588  27.2983  27.3228
    27.3400  27.3593  27.3776  27.4942  27.5795  27.5884  27.5965  27.6155
    27.6254  27.6914

     the Fermi energy is     0.8505 ev

!    total energy              =   -4157.69728555 Ry
     Harris-Foulkes estimate   =   -4157.69728555 Ry
     estimated scf accuracy    <          6.7E-09 Ry

     The total energy is the sum of the following terms:

     one-electron contribution =  -87197.79326013 Ry
     hartree contribution      =   43657.27946051 Ry
     xc contribution           =    -634.67172619 Ry
     ewald contribution        =   40017.48887882 Ry
     smearing contrib. (-TS)   =      -0.00063855 Ry

     convergence has been achieved in  26 iterations

     Forces acting on atoms (Ry/au):


     negative rho (up, down):  0.116E+01 0.000E+00
     atom    1 type  1   force =    -0.00002152    0.00000000    0.05494195
     atom    2 type  2   force =    -0.00002537    0.00000000   -0.08825912
     atom    3 type  2   force =    -0.00001354    0.00000000    0.08294327
     atom    4 type  1   force =    -0.00014590   -0.00461916   -0.02546381
     atom    5 type  1   force =    -0.00014590    0.00461916   -0.02546381
     atom    6 type  1   force =     0.00005116    0.00000000    0.04151803
     atom    7 type  1   force =     0.00001028    0.00000000   -0.03043748
     atom    8 type  2   force =    -0.00065512    0.00000000   -0.02029843
     atom    9 type  2   force =    -0.00002870    0.00000000   -0.00938205
     atom   10 type  1   force =     0.00035513    0.02294554   -0.00294697
     atom   11 type  1   force =     0.00035513   -0.02294554   -0.00294697
     atom   12 type  1   force =    -0.00002434    0.00000000    0.03152445
     atom   13 type  1   force =     0.00053506    0.00000000    0.00054449
     atom   14 type  2   force =     0.01158006    0.00000000   -0.00764268
     atom   15 type  2   force =     0.00002999    0.00000000    0.00064675
     atom   16 type  1   force =    -0.00022166   -0.00017152   -0.00034344
     atom   17 type  1   force =    -0.00022166    0.00017152   -0.00034344
     atom   18 type  1   force =     0.00137349    0.00000000   -0.00790651
     atom   19 type  1   force =    -0.00004087    0.00000000   -0.00012765
     atom   20 type  2   force =     0.00878536    0.00000000    0.01005428
     atom   21 type  2   force =    -0.00967996    0.00000000   -0.00110987
     atom   22 type  1   force =    -0.01510972    0.00470627   -0.01779530
     atom   23 type  1   force =    -0.01510972   -0.00470627   -0.01779530
     atom   24 type  1   force =     0.00064423    0.00000000   -0.00290492
     atom   25 type  1   force =    -0.00000238    0.00000000    0.05600950
     atom   26 type  2   force =     0.00002894    0.00000000   -0.08839107
     atom   27 type  2   force =     0.00001325    0.00000000    0.08290875
     atom   28 type  1   force =     0.00014617   -0.00458052   -0.02547132
     atom   29 type  1   force =     0.00014617    0.00458052   -0.02547132
     atom   30 type  1   force =    -0.00001010    0.00000000    0.03572520
     atom   31 type  1   force =     0.00000339    0.00000000   -0.03041098
     atom   32 type  2   force =     0.00065987    0.00000000   -0.02028961
     atom   33 type  2   force =    -0.00000192    0.00000000   -0.01375154
     atom   34 type  1   force =    -0.00034424    0.02297026   -0.00294517
     atom   35 type  1   force =    -0.00034424   -0.02297026   -0.00294517
     atom   36 type  1   force =     0.00000651    0.00000000    0.03349266
     atom   37 type  1   force =     0.00004752    0.00000000   -0.00028194
     atom   38 type  2   force =    -0.01231890    0.00000000   -0.00720483
     atom   39 type  2   force =     0.00000883    0.00000000    0.00192447
     atom   40 type  1   force =     0.00017955   -0.00022580   -0.00039689
     atom   41 type  1   force =     0.00017955    0.00022580   -0.00039689
     atom   42 type  1   force =    -0.00036651    0.00000000   -0.00955532
     atom   43 type  1   force =    -0.00000777    0.00000000   -0.00038570
     atom   44 type  2   force =    -0.00911828    0.00000000    0.01224853
     atom   45 type  2   force =     0.00370770    0.00000000    0.10143597
     atom   46 type  1   force =     0.01769955    0.00638551   -0.02346529
     atom   47 type  1   force =     0.01769955   -0.00638551   -0.02346529
     atom   48 type  1   force =    -0.00021124    0.00000000   -0.00992221
     atom   49 type  1   force =    -0.00040529    0.00000000    0.00022305
     atom   50 type  3   force =     0.00032839    0.00000000   -0.00022306

     Total force =     0.000610     Total SCF correction =     0.000028

     bfgs converged in  20 scf cycles and  19 bfgs steps
     (criteria: energy < 0.10E-03, force < 0.10E-02)

     End of BFGS Geometry Optimization

     Final energy   =   -4157.6972855482 Ry
Begin final coordinates

ATOMIC_POSITIONS (crystal)
O0       0.000000000   0.500000000   0.332930000    0   0   0
Ru1      0.250000000   0.500000000   0.366700000    0   0   0
Ru1      0.000000000   0.000000000   0.366700000    0   0   0
O0       0.250000000   0.810000000   0.366700000    0   0   0
O0       0.250000000   0.190000000   0.366700000    0   0   0
O0       0.000000000   0.500000000   0.400470000    0   0   0
O0       0.000000000   0.000000000   0.421800000    0   0   0
Ru1      0.250000000   0.000000000   0.455570000    0   0   0
Ru1      0.000000000   0.500000000   0.455570000    0   0   0
O0       0.250000000   0.690000000   0.455570000    0   0   0
O0       0.250000000   0.310000000   0.455570000    0   0   0
O0       0.000000000   0.000000000   0.489340000    0   0   0
O0       0.000000000   0.500000000   0.509450000    0   0   0
Ru1      0.250000000   0.500000000   0.543720000    0   0   0
Ru1      0.000000000   0.000000000   0.544600000    0   0   0
O0       0.250000000   0.806470000   0.544220000    0   0   0
O0       0.250000000   0.193530000   0.544220000    0   0   0
O0       0.000000000   0.500000000   0.578000000    0   0   0
O0       0.000000000   0.000000000   0.598670000    0   0   0
Ru1      0.250000000   0.000000000   0.635670000    0   0   0
Ru1      0.000000000   0.500000000   0.630220000    0   0   0
O0       0.250000000   0.689660000   0.634660000    0   0   0
O0       0.250000000   0.310340000   0.634660000    0   0   0
O0       0.000000000   0.000000000   0.665940000    0   0   0
O0       0.500000000   0.500000000   0.332930000    0   0   0
Ru1      0.750000000   0.500000000   0.366700000    0   0   0
Ru1      0.500000000   0.000000000   0.366700000    0   0   0
O0       0.750000000   0.810000000   0.366700000    0   0   0
O0       0.750000000   0.190000000   0.366700000    0   0   0
O0       0.500000000   0.500000000   0.400470000    0   0   0
O0       0.500000000   0.000000000   0.421800000    0   0   0
Ru1      0.750000000   0.000000000   0.455570000    0   0   0
Ru1      0.500000000   0.500000000   0.455570000    0   0   0
O0       0.750000000   0.690000000   0.455570000    0   0   0
O0       0.750000000   0.310000000   0.455570000    0   0   0
O0       0.500000000   0.000000000   0.489340000    0   0   0
O0       0.500000000   0.500000000   0.509450000    0   0   0
Ru1      0.750000000   0.500000000   0.543720000    0   0   0
Ru1      0.500000000   0.000000000   0.544600000    0   0   0
O0       0.750000000   0.806470000   0.544220000    0   0   0
O0       0.750000000   0.193530000   0.544220000    0   0   0
O0       0.500000000   0.500000000   0.578000000    0   0   0
O0       0.500000000   0.000000000   0.598670000    0   0   0
Ru1      0.750000000   0.000000000   0.635670000    0   0   0
Ru1      0.500000000   0.500000000   0.630220000    0   0   0
O0       0.750000000   0.689660000   0.634660000    0   0   0
O0       0.750000000   0.310340000   0.634660000    0   0   0
O0       0.500000000   0.000000000   0.665940000    0   0   0
O0       0.514208007   0.500000000   0.684169196
H2       0.371340483   0.500000000   0.695639902
End final coordinates



     init_run     :     76.51s CPU     83.83s WALL (       1 calls)
     electrons    : 157331.42s CPU 164409.95s WALL (      20 calls)
     update_pot   :    104.58s CPU    118.85s WALL (      19 calls)
     forces       :    896.43s CPU    911.88s WALL (      20 calls)

     Called by init_run:
     wfcinit      :     61.46s CPU     63.81s WALL (       1 calls)
     potinit      :      3.25s CPU      3.71s WALL (       1 calls)

     Called by electrons:
     c_bands      : 140372.88s CPU 143968.20s WALL (     593 calls)
     sum_band     :  10678.30s CPU  11348.78s WALL (     593 calls)
     v_of_rho     :    952.34s CPU   1121.29s WALL (     607 calls)
     newd         :   4780.43s CPU   7240.17s WALL (     607 calls)
     mix_rho      :    282.19s CPU    305.86s WALL (     593 calls)

     Called by c_bands:
     init_us_2    :     67.52s CPU     70.67s WALL (   10863 calls)
     cegterg      : 140028.81s CPU 143607.21s WALL (    5337 calls)

     Called by *egterg:
     h_psi        :  29674.23s CPU  31517.92s WALL (   13364 calls)
     s_psi        :   6642.13s CPU   6731.42s WALL (   13364 calls)
     g_psi        :     52.52s CPU     52.68s WALL (    8018 calls)
     cdiaghg      :  70009.11s CPU  70745.43s WALL (   13130 calls)

     Called by h_psi:
     add_vuspsi   :   6659.39s CPU   6759.30s WALL (   13364 calls)

     General routines
     calbec       :  10452.27s CPU  10559.81s WALL (   18881 calls)
     fft          :   1700.27s CPU   1968.95s WALL (    9895 calls)
     ffts         :     94.82s CPU    103.99s WALL (    1200 calls)
     fftw         :  15682.20s CPU  17850.57s WALL (17905870 calls)
     interpolate  :    278.39s CPU    325.13s WALL (    1200 calls)

     Parallel routines
     fft_scatter  :   9085.24s CPU  10655.92s WALL (17916965 calls)

     PWSCF        :     1d   20h 2m CPU        1d   22h 2m WALL


   This run was terminated on:   5:24:31  30Mar2014            

=------------------------------------------------------------------------------=
   JOB DONE.
=------------------------------------------------------------------------------=
