
     Program PWSCF v.5.0.2 (svn rev. 9656) starts on  5May2014 at 20:22:43 

     This program is part of the open-source Quantum ESPRESSO suite
     for quantum simulation of materials; please cite
         "P. Giannozzi et al., J. Phys.:Condens. Matter 21 395502 (2009);
          URL http://www.quantum-espresso.org", 
     in publications or presentations arising from this work. More details at
     http://www.quantum-espresso.org/quote.php

     Parallel version (MPI), running on    16 processors
     K-points division:     npool     =       4
     R & G space division:  proc/nbgrp/npool/nimage =       4

     Current dimensions of program PWSCF are:
     Max number of different atomic species (ntypx) = 10
     Max number of k-points (npk) =  40000
     Max angular momentum in pseudopotentials (lmaxx) =  3
     Reading input from pwscf.in
Warning: card &CELL ignored
Warning: card / ignored

     Subspace diagonalization in iterative solution of the eigenvalue problem:
     a serial algorithm will be used


     Parallelization info
     --------------------
     sticks:   dense  smooth     PW     G-vecs:    dense   smooth      PW
     Min        1450     467    129               343652    62241    9199
     Max        1451     468    130               343665    62278    9208
     Sum        5803    1869    517              1374641   249013   36807



     bravais-lattice index     =            0
     lattice parameter (alat)  =      12.0187  a.u.
     unit-cell volume          =    7280.5819 (a.u.)^3
     number of atoms/cell      =           30
     number of atomic types    =            3
     number of electrons       =       232.00
     number of Kohn-Sham states=          348
     kinetic-energy cutoff     =      40.0000  Ry
     charge density cutoff     =     500.0000  Ry
     convergence threshold     =      1.0E-06
     mixing beta               =       0.7000
     number of iterations used =            8  plain     mixing
     Exchange-correlation      = SLA  PW   PBE  PBE ( 1 4 3 4 0)
     EXX-fraction              =        0.00
     nstep                     =           50


     celldm(1)=  12.018658  celldm(2)=   0.000000  celldm(3)=   0.000000
     celldm(4)=   0.000000  celldm(5)=   0.000000  celldm(6)=   0.000000

     crystal axes: (cart. coord. in units of alat)
               a(1) = (   1.000000   0.000000   0.000000 )  
               a(2) = (   0.000000   1.009517   0.000000 )  
               a(3) = (   0.000000   0.000000   4.154171 )  

     reciprocal axes: (cart. coord. in units 2 pi/alat)
               b(1) = (  1.000000  0.000000  0.000000 )  
               b(2) = (  0.000000  0.990572  0.000000 )  
               b(3) = (  0.000000  0.000000  0.240722 )  


     PseudoPot. # 1 for O  read from file:
     /home/camp/zhonxu/pseudo/o_pbe_v1.01.uspp.F.UPF
     MD5 check sum: 2bcb18d16ea4b960afae9ec6d52f22d2
     Pseudo is Ultrasoft + core correction, Zval =  6.0
     Generated by new atomic code, or converted to UPF format
     Using radial grid of  737 points,  5 beta functions with: 
                l(1) =   0
                l(2) =   0
                l(3) =   1
                l(4) =   1
                l(5) =   2
     Q(r) pseudized with  8 coefficients,  rinner =    0.900   0.900   0.900
                                                       0.900   0.900

     PseudoPot. # 2 for Ir read from file:
     /home/camp/zhonxu/pseudo/ir_pbe_v1.uspp.F.UPF
     MD5 check sum: abf987a9674477536ede83817f8f8b70
     Pseudo is Ultrasoft + core correction, Zval = 15.0
     Generated by new atomic code, or converted to UPF format
     Using radial grid of  983 points,  7 beta functions with: 
                l(1) =   0
                l(2) =   0
                l(3) =   1
                l(4) =   1
                l(5) =   1
                l(6) =   2
                l(7) =   2
     Q(r) pseudized with  8 coefficients,  rinner =    1.350   1.350   1.350
                                                       1.350   1.350

     PseudoPot. # 3 for H  read from file:
     /home/camp/zhonxu/pseudo/h_pbe_v1.uspp.F.UPF
     MD5 check sum: 3408e3ff4ec8b0a4e358431e7e038a48
     Pseudo is Ultrasoft, Zval =  1.0
     Generated by new atomic code, or converted to UPF format
     Using radial grid of  615 points,  2 beta functions with: 
                l(1) =   0
                l(2) =   0
     Q(r) pseudized with  8 coefficients,  rinner =    0.700

     atomic species   valence    mass     pseudopotential
        O0             6.00    15.99940     O ( 1.00)
        Ir1           15.00   192.22000     Ir( 1.00)
        H2             1.00     1.00794     H ( 1.00)


     Simplified LDA+U calculation (l_max = 2) with parameters (eV):
     atomic species    L          U    alpha       J0     beta
        Ir1            2     2.0000   0.0000   0.0000   0.0000



     No symmetry found



   Cartesian axes

     site n.     atom                  positions (alat units)
         1           O0  tau(   1) = (   0.0000000   0.0000000   1.5730185  )
         2           O0  tau(   2) = (   0.0000000   0.5047586   1.6673182  )
         3           Ir1 tau(   3) = (   0.2500000   0.5047586   1.8780178  )
         4           Ir1 tau(   4) = (   0.0000000   0.0000000   1.8842906  )
         5           O0  tau(   5) = (   0.2500000   0.8177090   1.8825458  )
         6           O0  tau(   6) = (   0.2500000   0.1918083   1.8810503  )
         7           O0  tau(   7) = (   0.0000000   0.5047586   2.0695666  )
         8           O0  tau(   8) = (   0.0000000   0.0000000   2.1991352  )
         9           Ir1 tau(   9) = (   0.2500000   0.0000000   2.3955860  )
        10           Ir1 tau(  10) = (   0.0000000   0.5047586   2.3764768  )
        11           O0  tau(  11) = (   0.2500000   0.6965669   2.3975800  )
        12           O0  tau(  12) = (   0.2500000   0.3129503   2.3977461  )
        13           O0  tau(  13) = (   0.0000000   0.0000000   2.5806958  )
        14           O0  tau(  14) = (   0.5000000   0.0000000   1.5730185  )
        15           O0  tau(  15) = (   0.5000000   0.5047586   1.6673182  )
        16           Ir1 tau(  16) = (   0.7500000   0.5047586   1.8780178  )
        17           Ir1 tau(  17) = (   0.5000000   0.0000000   1.8842906  )
        18           O0  tau(  18) = (   0.7500000   0.8177090   1.8825458  )
        19           O0  tau(  19) = (   0.7500000   0.1918083   1.8810503  )
        20           O0  tau(  20) = (   0.5000000   0.5047586   2.0695666  )
        21           O0  tau(  21) = (   0.5000000   0.0000000   2.1991352  )
        22           Ir1 tau(  22) = (   0.7500000   0.0000000   2.3955860  )
        23           Ir1 tau(  23) = (   0.5000000   0.5047586   2.3764768  )
        24           O0  tau(  24) = (   0.7500000   0.6965669   2.3975800  )
        25           O0  tau(  25) = (   0.7500000   0.3129503   2.3977461  )
        26           O0  tau(  26) = (   0.5000000   0.0000000   2.5807374  )
        27           H2  tau(  27) = (  -0.0000500   0.6423962   1.5933324  )
        28           H2  tau(  28) = (   0.4999500   0.6423962   1.5933324  )
        29           H2  tau(  29) = (   0.1436500   0.0338188   1.5249132  )
        30           H2  tau(  30) = (   0.6436500   0.0338188   1.5249132  )

     number of k points=    10  Methfessel-Paxton smearing, width (Ry)=  0.0100
                       cart. coord. in units 2pi/alat
        k(    1) = (   0.0000000   0.0000000   0.0000000), wk =   0.1250000
        k(    2) = (   0.0000000   0.2476431   0.0000000), wk =   0.2500000
        k(    3) = (   0.0000000  -0.4952862   0.0000000), wk =   0.1250000
        k(    4) = (   0.2500000   0.0000000   0.0000000), wk =   0.2500000
        k(    5) = (   0.2500000   0.2476431   0.0000000), wk =   0.2500000
        k(    6) = (   0.2500000  -0.4952862   0.0000000), wk =   0.2500000
        k(    7) = (  -0.5000000   0.0000000   0.0000000), wk =   0.1250000
        k(    8) = (  -0.5000000   0.2476431   0.0000000), wk =   0.2500000
        k(    9) = (  -0.5000000  -0.4952862   0.0000000), wk =   0.1250000
        k(   10) = (  -0.2500000   0.2476431   0.0000000), wk =   0.2500000

     Dense  grid:  1374641 G-vectors     FFT dimensions: (  90,  90, 360)

     Smooth grid:   249013 G-vectors     FFT dimensions: (  50,  50, 216)

     Largest allocated arrays     est. size (Mb)     dimensions
        Kohn-Sham Wavefunctions        41.77 Mb     (   7867,  348)
        Atomic wavefunctions           20.65 Mb     (   7867,  172)
        NL pseudopotentials            49.22 Mb     (   7867,  410)
        Each V/rho on FFT grid         11.12 Mb     ( 729000)
        Each G-vector array             2.62 Mb     ( 343661)
        G-vector shells                 1.13 Mb     ( 148760)
     Largest temporary arrays     est. size (Mb)     dimensions
        Auxiliary wavefunctions       167.10 Mb     (   7867, 1392)
        Each subspace H/S matrix       29.57 Mb     (1392,1392)
        Each <psi_i|beta_j> matrix      2.18 Mb     (    410,  348)
        Arrays for rho mixing          88.99 Mb     ( 729000,   8)

     Check: negative/imaginary core charge=   -0.000003    0.000000

     Initial potential from superposition of free atoms
     Check: negative starting charge=   -3.334716

     starting charge  227.99968, renormalised to  232.00000

     negative rho (up, down):  0.339E+01 0.000E+00
     Number of +U iterations with fixed ns =  0
     Starting occupations:
 --- enter write_ns ---
 LDA+U parameters:
U( 2)     =  2.00000000
alpha( 2) =  0.00000000
atom    3   Tr[ns(na)] =   7.00000
    eigenvalues: 
  0.700  0.700  0.700  0.700  0.700
    eigenvectors:
  1.000  0.000  0.000  0.000  0.000
  0.000  1.000  0.000  0.000  0.000
  0.000  0.000  1.000  0.000  0.000
  0.000  0.000  0.000  1.000  0.000
  0.000  0.000  0.000  0.000  1.000
    occupations:
  0.700  0.000  0.000  0.000  0.000
  0.000  0.700  0.000  0.000  0.000
  0.000  0.000  0.700  0.000  0.000
  0.000  0.000  0.000  0.700  0.000
  0.000  0.000  0.000  0.000  0.700
atom    4   Tr[ns(na)] =   7.00000
    eigenvalues: 
  0.700  0.700  0.700  0.700  0.700
    eigenvectors:
  1.000  0.000  0.000  0.000  0.000
  0.000  1.000  0.000  0.000  0.000
  0.000  0.000  1.000  0.000  0.000
  0.000  0.000  0.000  1.000  0.000
  0.000  0.000  0.000  0.000  1.000
    occupations:
  0.700  0.000  0.000  0.000  0.000
  0.000  0.700  0.000  0.000  0.000
  0.000  0.000  0.700  0.000  0.000
  0.000  0.000  0.000  0.700  0.000
  0.000  0.000  0.000  0.000  0.700
atom    9   Tr[ns(na)] =   7.00000
    eigenvalues: 
  0.700  0.700  0.700  0.700  0.700
    eigenvectors:
  1.000  0.000  0.000  0.000  0.000
  0.000  1.000  0.000  0.000  0.000
  0.000  0.000  1.000  0.000  0.000
  0.000  0.000  0.000  1.000  0.000
  0.000  0.000  0.000  0.000  1.000
    occupations:
  0.700  0.000  0.000  0.000  0.000
  0.000  0.700  0.000  0.000  0.000
  0.000  0.000  0.700  0.000  0.000
  0.000  0.000  0.000  0.700  0.000
  0.000  0.000  0.000  0.000  0.700
atom   10   Tr[ns(na)] =   7.00000
    eigenvalues: 
  0.700  0.700  0.700  0.700  0.700
    eigenvectors:
  1.000  0.000  0.000  0.000  0.000
  0.000  1.000  0.000  0.000  0.000
  0.000  0.000  1.000  0.000  0.000
  0.000  0.000  0.000  1.000  0.000
  0.000  0.000  0.000  0.000  1.000
    occupations:
  0.700  0.000  0.000  0.000  0.000
  0.000  0.700  0.000  0.000  0.000
  0.000  0.000  0.700  0.000  0.000
  0.000  0.000  0.000  0.700  0.000
  0.000  0.000  0.000  0.000  0.700
atom   16   Tr[ns(na)] =   7.00000
    eigenvalues: 
  0.700  0.700  0.700  0.700  0.700
    eigenvectors:
  1.000  0.000  0.000  0.000  0.000
  0.000  1.000  0.000  0.000  0.000
  0.000  0.000  1.000  0.000  0.000
  0.000  0.000  0.000  1.000  0.000
  0.000  0.000  0.000  0.000  1.000
    occupations:
  0.700  0.000  0.000  0.000  0.000
  0.000  0.700  0.000  0.000  0.000
  0.000  0.000  0.700  0.000  0.000
  0.000  0.000  0.000  0.700  0.000
  0.000  0.000  0.000  0.000  0.700
atom   17   Tr[ns(na)] =   7.00000
    eigenvalues: 
  0.700  0.700  0.700  0.700  0.700
    eigenvectors:
  1.000  0.000  0.000  0.000  0.000
  0.000  1.000  0.000  0.000  0.000
  0.000  0.000  1.000  0.000  0.000
  0.000  0.000  0.000  1.000  0.000
  0.000  0.000  0.000  0.000  1.000
    occupations:
  0.700  0.000  0.000  0.000  0.000
  0.000  0.700  0.000  0.000  0.000
  0.000  0.000  0.700  0.000  0.000
  0.000  0.000  0.000  0.700  0.000
  0.000  0.000  0.000  0.000  0.700
atom   22   Tr[ns(na)] =   7.00000
    eigenvalues: 
  0.700  0.700  0.700  0.700  0.700
    eigenvectors:
  1.000  0.000  0.000  0.000  0.000
  0.000  1.000  0.000  0.000  0.000
  0.000  0.000  1.000  0.000  0.000
  0.000  0.000  0.000  1.000  0.000
  0.000  0.000  0.000  0.000  1.000
    occupations:
  0.700  0.000  0.000  0.000  0.000
  0.000  0.700  0.000  0.000  0.000
  0.000  0.000  0.700  0.000  0.000
  0.000  0.000  0.000  0.700  0.000
  0.000  0.000  0.000  0.000  0.700
atom   23   Tr[ns(na)] =   7.00000
    eigenvalues: 
  0.700  0.700  0.700  0.700  0.700
    eigenvectors:
  1.000  0.000  0.000  0.000  0.000
  0.000  1.000  0.000  0.000  0.000
  0.000  0.000  1.000  0.000  0.000
  0.000  0.000  0.000  1.000  0.000
  0.000  0.000  0.000  0.000  1.000
    occupations:
  0.700  0.000  0.000  0.000  0.000
  0.000  0.700  0.000  0.000  0.000
  0.000  0.000  0.700  0.000  0.000
  0.000  0.000  0.000  0.700  0.000
  0.000  0.000  0.000  0.000  0.700
N of occupied +U levels =  56.0000000
 --- exit write_ns ---
 Atomic wfc used for LDA+U Projector are NOT orthogonalized
     Starting wfc are  172 randomized atomic wfcs

     total cpu time spent up to now is      117.7 secs

     per-process dynamical memory:   423.0 Mb

     Self-consistent Calculation

     iteration #  1     ecut=    40.00 Ry     beta=0.70
     Davidson diagonalization with overlap
     ethr =  1.00E-02,  avg # of iterations =  6.8
 --- enter write_ns ---
 LDA+U parameters:
U( 2)     =  2.00000000
alpha( 2) =  0.00000000
atom    3   Tr[ns(na)] =   5.77900
    eigenvalues: 
  0.429  0.469  0.599  0.649  0.744
    eigenvectors:
  0.000  0.125  0.163  0.712  0.000
  1.000  0.000  0.000  0.000  0.000
  0.000  0.000  0.813  0.187  0.000
  0.000  0.875  0.024  0.101  0.000
  0.000  0.000  0.000  0.000  1.000
    occupations:
  0.619  0.000  0.019 -0.057  0.001
  0.000  0.429 -0.000 -0.000 -0.004
  0.019 -0.000  0.608 -0.007 -0.001
 -0.057 -0.000 -0.007  0.490 -0.000
  0.001 -0.004 -0.001 -0.000  0.744
atom    4   Tr[ns(na)] =   5.57554
    eigenvalues: 
  0.428  0.454  0.472  0.654  0.780
    eigenvectors:
  0.000  0.000  0.988  0.000  0.012
  0.012  0.000  0.000  0.988  0.000
  0.987  0.001  0.000  0.012  0.000
  0.000  0.000  0.012  0.000  0.988
  0.001  0.999  0.000  0.000  0.000
    occupations:
  0.476 -0.001  0.001  0.034  0.000
 -0.001  0.651  0.025 -0.000 -0.001
  0.001  0.025  0.430  0.003  0.001
  0.034 -0.000  0.003  0.776 -0.000
  0.000 -0.001  0.001 -0.000  0.454
atom    9   Tr[ns(na)] =   7.62325
    eigenvalues: 
  0.463  0.484  0.930  0.964  0.970
    eigenvectors:
  0.000  0.151  0.000  0.848  0.001
  1.000  0.000  0.000  0.000  0.000
  0.000  0.000  0.000  0.002  0.998
  0.000  0.849  0.000  0.151  0.000
  0.000  0.000  1.000  0.000  0.000
    occupations:
  0.892  0.000  0.000 -0.172  0.000
  0.000  0.463  0.001  0.000 -0.000
  0.000  0.001  0.970 -0.000 -0.000
 -0.172  0.000 -0.000  0.556  0.000
  0.000 -0.000 -0.000  0.000  0.930
atom   10   Tr[ns(na)] =   8.16407
    eigenvalues: 
  0.458  0.722  0.963  0.969  0.970
    eigenvectors:
  0.000  0.956  0.000  0.042  0.002
  0.000  0.000  1.000  0.000  0.000
  0.000  0.000  0.000  0.022  0.977
  0.000  0.044  0.000  0.935  0.021
  1.000  0.000  0.000  0.000  0.000
    occupations:
  0.733  0.000  0.002  0.050 -0.000
  0.000  0.963  0.000 -0.000  0.000
  0.002  0.000  0.970 -0.000  0.000
  0.050 -0.000 -0.000  0.958 -0.000
 -0.000  0.000  0.000 -0.000  0.458
atom   16   Tr[ns(na)] =   5.77900
    eigenvalues: 
  0.429  0.469  0.599  0.649  0.744
    eigenvectors:
  0.000  0.125  0.163  0.712  0.000
  1.000  0.000  0.000  0.000  0.000
  0.000  0.000  0.813  0.187  0.000
  0.000  0.875  0.024  0.101  0.000
  0.000  0.000  0.000  0.000  1.000
    occupations:
  0.619  0.000  0.019 -0.057  0.001
  0.000  0.429 -0.000 -0.000 -0.004
  0.019 -0.000  0.608 -0.007 -0.001
 -0.057 -0.000 -0.007  0.490 -0.000
  0.001 -0.004 -0.001 -0.000  0.744
atom   17   Tr[ns(na)] =   5.57558
    eigenvalues: 
  0.428  0.454  0.472  0.654  0.780
    eigenvectors:
  0.000  0.000  0.988  0.000  0.012
  0.012  0.000  0.000  0.988  0.000
  0.987  0.001  0.000  0.012  0.000
  0.000  0.000  0.012  0.000  0.988
  0.001  0.999  0.000  0.000  0.000
    occupations:
  0.476 -0.001  0.001  0.034  0.000
 -0.001  0.651  0.025 -0.000 -0.001
  0.001  0.025  0.430  0.003  0.001
  0.034 -0.000  0.003  0.776 -0.000
  0.000 -0.001  0.001 -0.000  0.454
atom   22   Tr[ns(na)] =   7.62325
    eigenvalues: 
  0.463  0.484  0.930  0.964  0.970
    eigenvectors:
  0.000  0.151  0.000  0.848  0.001
  1.000  0.000  0.000  0.000  0.000
  0.000  0.000  0.000  0.002  0.998
  0.000  0.849  0.000  0.151  0.000
  0.000  0.000  1.000  0.000  0.000
    occupations:
  0.892 -0.000  0.000 -0.172  0.000
 -0.000  0.463  0.001  0.000 -0.000
  0.000  0.001  0.970 -0.000 -0.000
 -0.172  0.000 -0.000  0.556  0.000
  0.000 -0.000 -0.000  0.000  0.930
atom   23   Tr[ns(na)] =   8.16407
    eigenvalues: 
  0.458  0.722  0.963  0.969  0.970
    eigenvectors:
  0.000  0.956  0.000  0.042  0.002
  0.000  0.000  1.000  0.000  0.000
  0.000  0.000  0.000  0.022  0.977
  0.000  0.044  0.000  0.935  0.021
  1.000  0.000  0.000  0.000  0.000
    occupations:
  0.733  0.000  0.002  0.050 -0.000
  0.000  0.963  0.000 -0.000  0.000
  0.002  0.000  0.970 -0.000  0.000
  0.050 -0.000 -0.000  0.958 -0.000
 -0.000  0.000  0.000 -0.000  0.458
N of occupied +U levels =  54.2837633
 --- exit write_ns ---

     negative rho (up, down):  0.291E+01 0.000E+00

     total cpu time spent up to now is      485.0 secs

     total energy              =   -2045.77872873 Ry
     Harris-Foulkes estimate   =   -2077.90605881 Ry
     estimated scf accuracy    <      37.84064220 Ry

     iteration #  2     ecut=    40.00 Ry     beta=0.70
     Davidson diagonalization with overlap
     ethr =  1.00E-02,  avg # of iterations =  4.3

     negative rho (up, down):  0.274E+01 0.000E+00

     total cpu time spent up to now is      831.9 secs

     total energy              =   -1947.41355869 Ry
     Harris-Foulkes estimate   =   -2283.06782638 Ry
     estimated scf accuracy    <    3232.35238118 Ry

     iteration #  3     ecut=    40.00 Ry     beta=0.70
     Davidson diagonalization with overlap
     ethr =  1.00E-02,  avg # of iterations =  6.8

     negative rho (up, down):  0.244E+01 0.000E+00

     total cpu time spent up to now is     1199.8 secs

     total energy              =   -2043.87642839 Ry
     Harris-Foulkes estimate   =   -2098.26614311 Ry
     estimated scf accuracy    <     269.46524129 Ry

     iteration #  4     ecut=    40.00 Ry     beta=0.70
     Davidson diagonalization with overlap
     ethr =  1.00E-02,  avg # of iterations =  4.0

     negative rho (up, down):  0.258E+01 0.000E+00

     total cpu time spent up to now is     1423.0 secs

     total energy              =   -2070.56821769 Ry
     Harris-Foulkes estimate   =   -2076.10584453 Ry
     estimated scf accuracy    <      18.54350974 Ry

     iteration #  5     ecut=    40.00 Ry     beta=0.70
     Davidson diagonalization with overlap
     ethr =  7.99E-03,  avg # of iterations =  1.0

     negative rho (up, down):  0.270E+01 0.000E+00

     total cpu time spent up to now is     1625.0 secs

     total energy              =   -2073.07520991 Ry
     Harris-Foulkes estimate   =   -2074.23638914 Ry
     estimated scf accuracy    <      11.72966080 Ry

     iteration #  6     ecut=    40.00 Ry     beta=0.70
     Davidson diagonalization with overlap
     ethr =  5.06E-03,  avg # of iterations =  1.1

     negative rho (up, down):  0.273E+01 0.000E+00

     total cpu time spent up to now is     1806.9 secs

     total energy              =   -2073.15413828 Ry
     Harris-Foulkes estimate   =   -2073.54180354 Ry
     estimated scf accuracy    <       2.29900396 Ry

     iteration #  7     ecut=    40.00 Ry     beta=0.70
     Davidson diagonalization with overlap
     ethr =  9.91E-04,  avg # of iterations =  5.1

     negative rho (up, down):  0.283E+01 0.000E+00

     total cpu time spent up to now is     2022.1 secs

     total energy              =   -2073.20066407 Ry
     Harris-Foulkes estimate   =   -2073.47695587 Ry
     estimated scf accuracy    <       2.86832293 Ry

     iteration #  8     ecut=    40.00 Ry     beta=0.70
     Davidson diagonalization with overlap
     ethr =  9.91E-04,  avg # of iterations =  1.0

     negative rho (up, down):  0.294E+01 0.000E+00

     total cpu time spent up to now is     2214.4 secs

     total energy              =   -2073.18372450 Ry
     Harris-Foulkes estimate   =   -2073.35586304 Ry
     estimated scf accuracy    <       1.25988277 Ry

     iteration #  9     ecut=    40.00 Ry     beta=0.70
     Davidson diagonalization with overlap
     ethr =  5.43E-04,  avg # of iterations =  1.0

     negative rho (up, down):  0.302E+01 0.000E+00

     total cpu time spent up to now is     2405.3 secs

     total energy              =   -2073.19671780 Ry
     Harris-Foulkes estimate   =   -2073.25803919 Ry
     estimated scf accuracy    <       0.21038730 Ry

     iteration # 10     ecut=    40.00 Ry     beta=0.70
     Davidson diagonalization with overlap
     ethr =  9.07E-05,  avg # of iterations =  6.8

     negative rho (up, down):  0.306E+01 0.000E+00

     total cpu time spent up to now is     2631.7 secs

     total energy              =   -2073.20463238 Ry
     Harris-Foulkes estimate   =   -2073.23643583 Ry
     estimated scf accuracy    <       0.20065400 Ry

     iteration # 11     ecut=    40.00 Ry     beta=0.70
     Davidson diagonalization with overlap
     ethr =  8.65E-05,  avg # of iterations =  1.5

     negative rho (up, down):  0.310E+01 0.000E+00

     total cpu time spent up to now is     2816.9 secs

     total energy              =   -2073.20649405 Ry
     Harris-Foulkes estimate   =   -2073.22001615 Ry
     estimated scf accuracy    <       0.05948851 Ry

     iteration # 12     ecut=    40.00 Ry     beta=0.70
     Davidson diagonalization with overlap
     ethr =  2.56E-05,  avg # of iterations =  6.3

     negative rho (up, down):  0.312E+01 0.000E+00

     total cpu time spent up to now is     3035.7 secs

     total energy              =   -2073.20015627 Ry
     Harris-Foulkes estimate   =   -2073.21877796 Ry
     estimated scf accuracy    <       0.15048648 Ry

     iteration # 13     ecut=    40.00 Ry     beta=0.70
     Davidson diagonalization with overlap
     ethr =  2.56E-05,  avg # of iterations =  4.8

     negative rho (up, down):  0.312E+01 0.000E+00

     total cpu time spent up to now is     3243.5 secs

     total energy              =   -2073.20476538 Ry
     Harris-Foulkes estimate   =   -2073.21535528 Ry
     estimated scf accuracy    <       0.07825514 Ry

     iteration # 14     ecut=    40.00 Ry     beta=0.70
     Davidson diagonalization with overlap
     ethr =  2.56E-05,  avg # of iterations =  1.4

     negative rho (up, down):  0.313E+01 0.000E+00

     total cpu time spent up to now is     3431.0 secs

     total energy              =   -2073.20888600 Ry
     Harris-Foulkes estimate   =   -2073.21264584 Ry
     estimated scf accuracy    <       0.01176448 Ry

     iteration # 15     ecut=    40.00 Ry     beta=0.70
     Davidson diagonalization with overlap
     ethr =  5.07E-06,  avg # of iterations =  5.4

     negative rho (up, down):  0.313E+01 0.000E+00

     total cpu time spent up to now is     3640.3 secs

     total energy              =   -2073.20941258 Ry
     Harris-Foulkes estimate   =   -2073.21189232 Ry
     estimated scf accuracy    <       0.01480757 Ry

     iteration # 16     ecut=    40.00 Ry     beta=0.70
     Davidson diagonalization with overlap
     ethr =  5.07E-06,  avg # of iterations =  1.0

     negative rho (up, down):  0.313E+01 0.000E+00

     total cpu time spent up to now is     3829.0 secs

     total energy              =   -2073.21054108 Ry
     Harris-Foulkes estimate   =   -2073.21110259 Ry
     estimated scf accuracy    <       0.00298629 Ry

     iteration # 17     ecut=    40.00 Ry     beta=0.70
     Davidson diagonalization with overlap
     ethr =  1.29E-06,  avg # of iterations =  1.0

     negative rho (up, down):  0.313E+01 0.000E+00

     total cpu time spent up to now is     4019.5 secs

     total energy              =   -2073.21059647 Ry
     Harris-Foulkes estimate   =   -2073.21101468 Ry
     estimated scf accuracy    <       0.00229452 Ry

     iteration # 18     ecut=    40.00 Ry     beta=0.70
     Davidson diagonalization with overlap
     ethr =  9.89E-07,  avg # of iterations =  1.0

     negative rho (up, down):  0.313E+01 0.000E+00

     total cpu time spent up to now is     4208.7 secs

     total energy              =   -2073.21077361 Ry
     Harris-Foulkes estimate   =   -2073.21088684 Ry
     estimated scf accuracy    <       0.00069306 Ry

     iteration # 19     ecut=    40.00 Ry     beta=0.70
     Davidson diagonalization with overlap
     ethr =  2.99E-07,  avg # of iterations =  1.0

     negative rho (up, down):  0.313E+01 0.000E+00

     total cpu time spent up to now is     4397.7 secs

     total energy              =   -2073.21081138 Ry
     Harris-Foulkes estimate   =   -2073.21086313 Ry
     estimated scf accuracy    <       0.00032893 Ry

     iteration # 20     ecut=    40.00 Ry     beta=0.70
     Davidson diagonalization with overlap
     ethr =  1.42E-07,  avg # of iterations =  1.0

     negative rho (up, down):  0.313E+01 0.000E+00

     total cpu time spent up to now is     4587.7 secs

     total energy              =   -2073.21083009 Ry
     Harris-Foulkes estimate   =   -2073.21084426 Ry
     estimated scf accuracy    <       0.00006636 Ry

     iteration # 21     ecut=    40.00 Ry     beta=0.70
     Davidson diagonalization with overlap
     ethr =  2.86E-08,  avg # of iterations =  1.0

     negative rho (up, down):  0.313E+01 0.000E+00

     total cpu time spent up to now is     4776.2 secs

     total energy              =   -2073.21083360 Ry
     Harris-Foulkes estimate   =   -2073.21084265 Ry
     estimated scf accuracy    <       0.00005223 Ry

     iteration # 22     ecut=    40.00 Ry     beta=0.70
     Davidson diagonalization with overlap
     ethr =  2.25E-08,  avg # of iterations =  1.0

     negative rho (up, down):  0.313E+01 0.000E+00

     total cpu time spent up to now is     4964.4 secs

     total energy              =   -2073.21083407 Ry
     Harris-Foulkes estimate   =   -2073.21084017 Ry
     estimated scf accuracy    <       0.00003567 Ry

     iteration # 23     ecut=    40.00 Ry     beta=0.70
     Davidson diagonalization with overlap
     ethr =  1.54E-08,  avg # of iterations =  1.8

     negative rho (up, down):  0.313E+01 0.000E+00

     total cpu time spent up to now is     5154.1 secs

     total energy              =   -2073.21083110 Ry
     Harris-Foulkes estimate   =   -2073.21084461 Ry
     estimated scf accuracy    <       0.00015585 Ry

     iteration # 24     ecut=    40.00 Ry     beta=0.70
     Davidson diagonalization with overlap
     ethr =  1.54E-08,  avg # of iterations =  1.0

     negative rho (up, down):  0.313E+01 0.000E+00

     total cpu time spent up to now is     5343.8 secs

     total energy              =   -2073.21083694 Ry
     Harris-Foulkes estimate   =   -2073.21083948 Ry
     estimated scf accuracy    <       0.00001544 Ry

     iteration # 25     ecut=    40.00 Ry     beta=0.70
     Davidson diagonalization with overlap
     ethr =  6.66E-09,  avg # of iterations =  1.0

     negative rho (up, down):  0.313E+01 0.000E+00

     total cpu time spent up to now is     5530.5 secs

     total energy              =   -2073.21083798 Ry
     Harris-Foulkes estimate   =   -2073.21083833 Ry
     estimated scf accuracy    <       0.00000165 Ry

     iteration # 26     ecut=    40.00 Ry     beta=0.70
     Davidson diagonalization with overlap
     ethr =  7.12E-10,  avg # of iterations =  1.0

     negative rho (up, down):  0.313E+01 0.000E+00

     total cpu time spent up to now is     5708.3 secs

     total energy              =   -2073.21083796 Ry
     Harris-Foulkes estimate   =   -2073.21083839 Ry
     estimated scf accuracy    <       0.00000268 Ry

     iteration # 27     ecut=    40.00 Ry     beta=0.70
     Davidson diagonalization with overlap
     ethr =  7.12E-10,  avg # of iterations =  1.0

     negative rho (up, down):  0.313E+01 0.000E+00

     total cpu time spent up to now is     5883.3 secs

     total energy              =   -2073.21083807 Ry
     Harris-Foulkes estimate   =   -2073.21083834 Ry
     estimated scf accuracy    <       0.00000171 Ry

     iteration # 28     ecut=    40.00 Ry     beta=0.70
     Davidson diagonalization with overlap
     ethr =  7.12E-10,  avg # of iterations =  1.0

     negative rho (up, down):  0.313E+01 0.000E+00

     total cpu time spent up to now is     6060.5 secs

     End of self-consistent calculation
 --- enter write_ns ---
 LDA+U parameters:
U( 2)     =  2.00000000
alpha( 2) =  0.00000000
atom    3   Tr[ns(na)] =   8.10598
    eigenvalues: 
  0.604  0.628  0.889  0.965  0.968
    eigenvectors:
  0.000  0.193  0.003  0.001  0.802
  1.000  0.000  0.000  0.000  0.000
  0.000  0.000  0.996  0.000  0.003
  0.000  0.807  0.000  0.000  0.193
  0.000  0.000  0.000  0.998  0.002
    occupations:
  0.902 -0.000  0.003 -0.134  0.000
 -0.000  0.604 -0.000 -0.000 -0.006
  0.003 -0.000  0.889 -0.004  0.001
 -0.134 -0.000 -0.004  0.693 -0.000
  0.000 -0.006  0.001 -0.000  0.965
atom    4   Tr[ns(na)] =   8.07888
    eigenvalues: 
  0.618  0.665  0.862  0.914  0.981
    eigenvectors:
  0.000  0.989  0.000  0.000  0.010
  0.000  0.000  0.047  0.953  0.000
  0.000  0.000  0.953  0.047  0.000
  0.000  0.010  0.000  0.000  0.990
  1.000  0.000  0.000  0.000  0.000
    occupations:
  0.668 -0.003 -0.001  0.032  0.001
 -0.003  0.911  0.011  0.000 -0.001
 -0.001  0.011  0.864 -0.000  0.000
  0.032  0.000 -0.000  0.978  0.000
  0.001 -0.001  0.000  0.000  0.618
atom    9   Tr[ns(na)] =   8.06022
    eigenvalues: 
  0.649  0.665  0.849  0.888  0.979
    eigenvectors:
  0.000  0.145  0.000  0.000  0.855
  1.000  0.000  0.000  0.000  0.000
  0.000  0.000  1.000  0.000  0.000
  0.000  0.854  0.000  0.000  0.145
  0.000  0.000  0.000  1.000  0.000
    occupations:
  0.934  0.000 -0.000 -0.111 -0.001
  0.000  0.649  0.000  0.000 -0.000
 -0.000  0.000  0.849 -0.000 -0.000
 -0.111  0.000 -0.000  0.711  0.001
 -0.001 -0.000 -0.000  0.001  0.888
atom   10   Tr[ns(na)] =   8.05918
    eigenvalues: 
  0.593  0.608  0.922  0.929  0.979
    eigenvectors:
  0.995  0.000  0.000  0.000  0.005
  0.000  0.000  1.000  0.000  0.000
  0.000  0.000  0.000  1.000  0.000
  0.005  0.000  0.000  0.000  0.995
  0.000  1.000  0.000  0.000  0.000
    occupations:
  0.595  0.000  0.002  0.028 -0.000
  0.000  0.922 -0.000  0.000 -0.000
  0.002 -0.000  0.929  0.000  0.000
  0.028  0.000  0.000  0.976  0.000
 -0.000 -0.000  0.000  0.000  0.608
atom   16   Tr[ns(na)] =   8.10603
    eigenvalues: 
  0.604  0.628  0.889  0.965  0.968
    eigenvectors:
  0.000  0.193  0.003  0.001  0.802
  1.000  0.000  0.000  0.000  0.000
  0.000  0.000  0.996  0.000  0.003
  0.000  0.807  0.000  0.000  0.193
  0.000  0.000  0.000  0.998  0.002
    occupations:
  0.902 -0.000  0.003 -0.134  0.000
 -0.000  0.604 -0.000 -0.000 -0.006
  0.003 -0.000  0.889 -0.004  0.001
 -0.134 -0.000 -0.004  0.693 -0.000
  0.000 -0.006  0.001 -0.000  0.965
atom   17   Tr[ns(na)] =   8.07882
    eigenvalues: 
  0.618  0.665  0.862  0.914  0.981
    eigenvectors:
  0.000  0.989  0.000  0.000  0.010
  0.000  0.000  0.047  0.953  0.000
  0.000  0.000  0.953  0.047  0.000
  0.000  0.010  0.000  0.000  0.990
  1.000  0.000  0.000  0.000  0.000
    occupations:
  0.668 -0.003 -0.001  0.032  0.001
 -0.003  0.911  0.011  0.000 -0.001
 -0.001  0.011  0.864 -0.000  0.000
  0.032  0.000 -0.000  0.978  0.000
  0.001 -0.001  0.000  0.000  0.618
atom   22   Tr[ns(na)] =   8.06035
    eigenvalues: 
  0.649  0.665  0.849  0.888  0.979
    eigenvectors:
  0.000  0.145  0.000  0.000  0.855
  1.000  0.000  0.000  0.000  0.000
  0.000  0.000  1.000  0.000  0.000
  0.000  0.854  0.000  0.000  0.145
  0.000  0.000  0.000  1.000  0.000
    occupations:
  0.934  0.000 -0.000 -0.111 -0.001
  0.000  0.649  0.000  0.000 -0.000
 -0.000  0.000  0.849 -0.000 -0.000
 -0.111  0.000 -0.000  0.711  0.001
 -0.001 -0.000 -0.000  0.001  0.888
atom   23   Tr[ns(na)] =   8.05926
    eigenvalues: 
  0.593  0.608  0.922  0.929  0.979
    eigenvectors:
  0.995  0.000  0.000  0.000  0.005
  0.000  0.000  1.000  0.000  0.000
  0.000  0.000  0.000  1.000  0.000
  0.005  0.000  0.000  0.000  0.995
  0.000  1.000  0.000  0.000  0.000
    occupations:
  0.595  0.000  0.002  0.028 -0.000
  0.000  0.922 -0.000  0.000 -0.000
  0.002 -0.000  0.929  0.000  0.000
  0.028  0.000  0.000  0.976  0.000
 -0.000 -0.000  0.000  0.000  0.608
N of occupied +U levels =  64.6087086
 --- exit write_ns ---

          k = 0.0000 0.0000 0.0000 ( 31045 PWs)   bands (ev):

   -50.8941 -50.8925 -50.8857 -50.8257 -50.8177 -50.7914 -50.7628 -50.6655
   -50.6601 -50.6507 -50.6350 -50.5877 -50.5870 -50.5687 -50.5547 -50.5524
   -50.5298 -50.4860 -50.4765 -50.4729 -50.4083 -50.3936 -50.2678 -50.2539
   -21.6606 -21.2712 -21.1485 -21.0705 -20.4514 -20.4021 -20.4017 -20.3423
   -20.3260 -20.2656 -20.1723 -20.0207 -19.8034 -19.6744 -19.6023 -19.5300
   -18.6751 -18.5538 -10.5244 -10.4549 -10.0294  -9.1514  -9.0206  -8.9393
    -8.7845  -8.7643  -8.6323  -8.6031  -8.5916  -8.5455  -8.5202  -8.3081
    -8.2640  -8.2547  -8.0404  -7.9148  -7.7733  -7.7194  -7.5128  -7.1548
    -7.1121  -6.8785  -6.5841  -6.3553  -6.3099  -6.1071  -5.9926  -5.8454
    -5.6812  -5.5453  -5.4761  -5.4737  -5.3600  -5.3374  -5.3006  -5.1550
    -5.0486  -4.9375  -4.7949  -4.7563  -4.5619  -4.4713  -4.4043  -4.3070
    -4.2082  -3.9930  -3.9871  -3.9732  -3.6360  -3.5885  -3.5156  -3.4411
    -3.4176  -3.3831  -3.3456  -3.1605  -3.0086  -2.9178  -2.9150  -2.8631
    -2.8578  -2.7851  -2.6395  -2.3528  -2.0149  -2.0033  -1.7920  -1.7181
    -1.6639  -1.3021  -1.1282  -0.9638  -0.9159  -0.5390  -0.5145  -0.2846
    -0.2184   0.0633   1.1342   1.4247   1.4901   1.5350   1.6754   1.7853
     2.0916   2.3954   2.6292   3.0320   3.1968   3.2194   3.3982   3.4429
     3.7979   4.0811   4.2877   4.7680   4.8992   5.7751   5.8982   6.2367
     6.3192   6.6218   6.8995   6.9606   7.2482   7.3522   7.3954   7.4877
     7.7547   7.8042   7.8752   7.9336   7.9442   7.9957   8.0057   8.0759
     8.2212   8.2821   8.3548   8.3565   8.3750   8.4631   8.5739   8.6002
     8.7142   8.8206   8.9948   9.0804   9.0810   9.1276   9.1613   9.1901
     9.1903   9.2150   9.2922   9.2925   9.3160   9.3171   9.3178   9.4699
     9.5177   9.6458   9.7703  10.0014  10.0898  10.1060  10.1348  10.3016
    10.4757  10.4842  10.4994  10.6870  10.8402  10.8938  11.0410  11.0879
    11.0997  11.1992  11.2343  11.2623  11.3220  11.4759  11.5511  11.6708
    11.6965  11.7150  11.7810  11.7865  11.8226  11.9280  11.9546  12.0057
    12.1493  12.1828  12.2028  12.2797  12.3811  12.3972  12.4818  12.6244
    12.6440  12.6490  12.7236  12.7405  12.8851  13.0224  13.1516  13.2316
    13.2526  13.5579  13.5880  13.6590  13.7208  13.7895  13.8868  13.9181
    14.1624  14.2183  14.2575  14.3277  14.4174  14.4980  14.6361  14.7526
    14.8915  14.9020  15.1306  15.1431  15.2508  15.2734  15.4078  15.4574
    15.5636  15.6465  15.7006  15.7237  15.7768  15.8862  15.9786  16.1230
    16.1660  16.2764  16.3166  16.5305  16.6116  16.7443  16.7945  16.7960
    17.1532  17.1899  17.2096  17.2744  17.3225  17.3684  17.4008  17.5177
    17.6317  17.8240  17.8477  17.8819  17.9344  17.9614  18.1481  18.2497
    18.3159  18.4386  18.4849  18.5377  18.5588  18.7066  18.7120  18.8067
    18.8574  18.9081  18.9262  19.0336  19.1332  19.1422  19.1533  19.2233
    19.2310  19.2501  19.3023  19.3710  19.4873  19.5667  19.5831  19.6633
    19.7644  19.7866  19.8211  19.9408  19.9496  19.9829  20.0922  20.1282
    20.1888  20.3483  20.3507  20.4064  20.4709  20.5404  20.5556  20.6207
    20.6274  20.6559  20.7433  20.7949  21.0055  21.0503  21.1422  21.2027
    21.2441  21.2818  21.3897  21.4156  21.5975  21.6340  21.7347  21.7608
    21.8958  21.9564  21.9639  22.0214

          k = 0.0000 0.2476 0.0000 ( 31078 PWs)   bands (ev):

   -50.8943 -50.8924 -50.8860 -50.8258 -50.8177 -50.7914 -50.7625 -50.6638
   -50.6601 -50.6505 -50.6344 -50.5878 -50.5866 -50.5683 -50.5570 -50.5520
   -50.5299 -50.4862 -50.4765 -50.4728 -50.4084 -50.3936 -50.2684 -50.2532
   -21.5817 -21.1468 -21.1106 -21.0693 -20.5522 -20.4883 -20.4463 -20.4361
   -20.3366 -20.0986 -20.0383 -20.0210 -19.8565 -19.8181 -19.7313 -19.5308
   -18.6734 -18.5518 -10.1536  -9.9778  -9.9139  -9.5210  -9.0551  -9.0170
    -8.9413  -8.8301  -8.6729  -8.5246  -8.4761  -8.4499  -8.3471  -8.3284
    -8.2578  -8.0422  -8.0217  -7.9184  -7.6318  -7.3229  -7.1275  -7.1193
    -7.0335  -6.8120  -6.6265  -6.5344  -6.4275  -6.3903  -6.2632  -6.1889
    -5.9800  -5.7339  -5.6914  -5.6301  -5.5889  -5.4739  -5.3444  -5.1540
    -5.1202  -5.0757  -5.0742  -4.8500  -4.7057  -4.5444  -4.4832  -4.3652
    -4.3296  -3.9777  -3.9766  -3.9527  -3.7125  -3.5020  -3.4408  -3.1810
    -3.1365  -3.1236  -3.0331  -2.9230  -2.9013  -2.8939  -2.8573  -2.8148
    -2.7894  -2.7614  -2.7327  -2.5366  -2.4756  -2.3064  -1.9596  -1.6911
    -1.6568  -1.0873  -1.0460  -0.8407  -0.6798  -0.5106  -0.4880  -0.3144
    -0.2741   0.0274   0.7156   0.8956   1.4486   1.5506   1.6551   2.2701
     2.6280   3.0035   3.1425   3.1836   3.2026   3.2633   3.2718   3.3882
     3.8006   4.0848   4.5172   4.9469   5.1133   5.4319   5.9308   6.0334
     6.2740   6.3943   6.4665   6.7416   6.7961   6.9741   7.0278   7.1915
     7.4233   7.5169   7.5537   7.7364   7.8081   8.1393   8.1861   8.2751
     8.3995   8.4199   8.5154   8.5303   8.5609   8.6054   8.7008   8.9244
     9.0009   9.0443   9.0807   9.0822   9.1599   9.1899   9.1908   9.2897
     9.2918   9.3171   9.3173   9.3573   9.3645   9.4273   9.5134   9.5184
     9.6020   9.7783   9.8814   9.9441  10.0854  10.1095  10.2150  10.2225
    10.2571  10.3045  10.4065  10.4148  10.4610  10.6028  10.7399  10.8594
    10.9070  10.9892  11.0105  11.1132  11.2352  11.2756  11.3572  11.4310
    11.6335  11.6528  11.6583  12.0144  12.0539  12.1439  12.1443  12.3548
    12.4564  12.4743  12.5565  12.6098  12.6599  12.6895  12.7506  12.8852
    12.9738  13.0641  13.1629  13.2214  13.3576  13.5903  13.6157  13.6389
    13.7855  13.8123  13.8253  13.8354  13.9788  14.0095  14.0872  14.1042
    14.1187  14.3071  14.4009  14.5293  14.5519  14.5568  14.7612  14.8012
    14.8532  14.9466  15.0762  15.3181  15.3914  15.4000  15.4987  15.5305
    15.5798  15.5828  15.7606  15.8232  15.8525  15.9451  15.9815  16.0500
    16.0798  16.2452  16.2568  16.3835  16.4849  16.4932  16.5631  16.6565
    16.7080  16.7088  16.9303  17.0287  17.0395  17.1328  17.1935  17.2727
    17.2974  17.3725  17.4143  17.4799  17.5612  17.6290  17.7042  17.9133
    18.0031  18.1176  18.1729  18.2216  18.4822  18.5249  18.5465  18.5745
    18.6719  18.7930  18.8442  18.8988  18.9336  18.9624  19.1020  19.1191
    19.2084  19.2547  19.2853  19.3479  19.3840  19.4023  19.4316  19.5279
    19.5589  19.5720  19.6188  19.6492  19.7563  19.7994  19.8120  19.8650
    19.8795  19.9458  19.9946  20.0725  20.0954  20.1764  20.2485  20.2898
    20.3963  20.4152  20.5798  20.6746  20.8020  20.8157  20.8657  20.8880
    20.9496  21.0029  21.0047  21.0107  21.0649  21.0652  21.1563  21.2075
    21.2106  21.2689  21.3002  21.5016

          k = 0.0000-0.4953 0.0000 ( 31160 PWs)   bands (ev):

   -50.8945 -50.8923 -50.8862 -50.8259 -50.8177 -50.7913 -50.7623 -50.6620
   -50.6600 -50.6503 -50.6338 -50.5879 -50.5862 -50.5679 -50.5594 -50.5514
   -50.5300 -50.4863 -50.4766 -50.4728 -50.4086 -50.3936 -50.2691 -50.2526
   -21.4981 -21.0835 -21.0682 -20.9215 -20.6368 -20.5670 -20.5188 -20.4412
   -20.3754 -20.0419 -20.0162 -19.9922 -19.9564 -19.9542 -19.7737 -19.5315
   -18.6718 -18.5506 -10.0597  -9.7450  -9.3409  -9.3210  -9.2194  -9.0250
    -8.9423  -8.8891  -8.5697  -8.3512  -8.3401  -8.3390  -8.2486  -8.2336
    -8.0813  -8.0666  -8.0397  -7.9741  -7.4863  -7.3560  -7.2994  -7.2262
    -7.1766  -7.1277  -6.9597  -6.5211  -6.4811  -6.3829  -6.3456  -6.0454
    -6.0434  -6.0320  -5.9441  -5.8618  -5.8320  -5.7452  -5.5895  -5.1743
    -5.1574  -4.9978  -4.9250  -4.8418  -4.8294  -4.4369  -4.4121  -4.3044
    -4.1356  -4.0645  -4.0217  -3.9587  -3.7296  -3.5205  -3.4797  -3.3479
    -3.3041  -3.1785  -3.1290  -3.0813  -3.0036  -2.9663  -2.8592  -2.8512
    -2.7670  -2.7234  -2.4637  -2.2658  -2.2261  -2.1259  -1.7983  -1.6334
    -1.5518  -1.3575  -1.1741  -0.9332  -0.6010  -0.4734  -0.3176  -0.3144
    -0.2966   0.1275   0.3238   0.5027   1.4677   1.5655   2.1485   2.6068
     2.6243   2.8709   2.9441   3.2650   3.3377   3.4986   3.7938   3.8011
     4.0745   4.3203   4.5809   5.1812   5.2108   5.2729   5.5631   5.6948
     5.7911   5.9756   6.4777   6.5372   6.6309   6.7632   6.8670   6.9792
     7.3426   7.4057   7.5319   7.5928   7.8390   7.9151   8.2072   8.5312
     8.5891   8.6534   8.7118   8.7444   8.8245   8.9247   8.9373   9.0248
     9.0627   9.0800   9.0809   9.1073   9.1250   9.1571   9.1896   9.1901
     9.1938   9.2475   9.2662   9.2961   9.2981   9.3170   9.3184   9.3734
     9.5061   9.5518   9.5648   9.7767   9.8831   9.9002  10.0549  10.1120
    10.1293  10.2075  10.2401  10.2768  10.4015  10.9118  10.9688  11.0618
    11.1319  11.1711  11.2857  11.3432  11.4892  11.5520  11.6541  11.7034
    11.7288  11.8765  12.1316  12.2011  12.3160  12.3203  12.4096  12.4522
    12.6065  12.6485  12.7031  12.7795  12.8066  12.8612  12.9389  13.0064
    13.0508  13.1099  13.2210  13.2676  13.3638  13.4370  13.4845  13.5644
    13.5946  13.7678  13.8292  13.9284  14.0224  14.1489  14.1705  14.2625
    14.3380  14.5445  14.5834  14.6841  14.7318  14.9200  15.1398  15.2073
    15.2524  15.3083  15.3646  15.4646  15.5306  15.5729  15.6338  15.6993
    15.8303  15.8310  15.9697  15.9992  16.0525  16.0977  16.1182  16.1442
    16.2052  16.2304  16.3421  16.3885  16.4485  16.4495  16.5250  16.5449
    16.5639  16.6007  16.6930  16.8194  16.8560  16.8678  16.9593  17.0014
    17.0559  17.1484  17.1994  17.3224  17.3471  17.4542  17.4660  17.6012
    17.7750  17.7820  17.8642  17.8783  17.9384  17.9695  18.0542  18.0597
    18.1786  18.2796  18.2950  18.3357  18.3900  18.4252  18.4264  18.5283
    18.5922  18.6498  18.7130  18.8564  18.9348  19.2017  19.2144  19.3813
    19.3946  19.4234  19.4349  19.5452  19.5507  19.6079  19.7899  19.8930
    19.9201  19.9302  20.0534  20.0743  20.1265  20.1432  20.1619  20.2487
    20.2671  20.3172  20.4185  20.4228  20.4496  20.4954  20.5447  20.5842
    20.6119  20.6339  20.6990  20.7920  20.8040  20.8904  20.9012  20.9877
    21.0292  21.0498  21.0907  21.1391

          k = 0.2500 0.0000 0.0000 ( 31106 PWs)   bands (ev):

   -50.8916 -50.8868 -50.8805 -50.8261 -50.8185 -50.8058 -50.7492 -50.6765
   -50.6639 -50.6533 -50.6208 -50.5867 -50.5839 -50.5598 -50.5545 -50.5528
   -50.5465 -50.4933 -50.4830 -50.4747 -50.4062 -50.3958 -50.2658 -50.2559
   -21.5362 -21.1500 -21.0826 -21.0489 -20.6406 -20.4774 -20.4188 -20.4038
   -20.2554 -20.1887 -20.0941 -20.0166 -19.7792 -19.7520 -19.6911 -19.5584
   -18.7269 -18.6249 -10.2951 -10.2401  -9.8450  -9.2242  -9.0071  -8.9835
    -8.8807  -8.8015  -8.7573  -8.5667  -8.5636  -8.4787  -8.4314  -8.2840
    -8.1546  -8.1287  -7.8911  -7.7755  -7.7335  -7.6877  -7.4260  -7.1869
    -7.0880  -6.7849  -6.6189  -6.4812  -6.2601  -6.1736  -6.0498  -6.0086
    -5.9732  -5.9105  -5.7580  -5.7386  -5.6102  -5.6063  -5.1899  -5.1801
    -5.0774  -4.9819  -4.9448  -4.9156  -4.8406  -4.6825  -4.5368  -4.5158
    -4.4502  -4.3143  -4.1830  -3.9483  -3.7136  -3.6020  -3.4202  -3.3113
    -3.2560  -3.1548  -3.0644  -2.9626  -2.9443  -2.8785  -2.8341  -2.6018
    -2.5190  -2.3224  -2.2378  -2.0775  -1.9441  -1.8913  -1.7460  -1.5434
    -1.4723  -1.3036  -1.2479  -1.2402  -0.9066  -0.6881  -0.4410  -0.2871
    -0.1708  -0.0963   1.3401   1.5154   1.5990   1.6916   1.8596   1.9058
     2.0882   2.3044   2.4253   2.9998   3.0768   3.0876   3.1679   3.3695
     3.4733   4.2735   4.5282   4.9877   5.1675   5.3821   5.8088   6.0322
     6.0848   6.3927   6.4969   6.7022   6.9874   7.1655   7.4464   7.5092
     7.5108   7.5950   7.6153   7.9055   7.9919   8.1484   8.1998   8.2461
     8.2501   8.2797   8.4437   8.5472   8.6348   8.8412   8.8724   8.9223
     8.9967   9.0339   9.0806   9.0826   9.1139   9.1898   9.1905   9.2222
     9.2918   9.2928   9.3168   9.3171   9.3749   9.4425   9.4840   9.7093
     9.7147   9.7501   9.9312   9.9503  10.0327  10.1162  10.1527  10.2155
    10.2672  10.3484  10.4382  10.4535  10.5213  10.5902  10.6482  10.9086
    10.9686  11.1012  11.1335  11.1736  11.1998  11.2212  11.2768  11.3619
    11.3760  11.5038  11.7553  11.9276  11.9349  11.9495  12.0600  12.1401
    12.2682  12.3872  12.4660  12.4838  12.6626  12.7281  12.7538  12.7811
    12.8158  13.1816  13.2669  13.3450  13.3910  13.4556  13.6804  13.6841
    13.7359  13.8417  13.8730  13.9683  13.9980  14.0789  14.1119  14.1770
    14.2103  14.2549  14.2740  14.4468  14.5192  14.5664  14.5993  14.6520
    14.7809  14.8831  14.8992  15.0629  15.1225  15.2313  15.3023  15.3554
    15.4228  15.5196  15.5591  15.7037  15.7439  15.9145  15.9195  16.0299
    16.0382  16.1536  16.2158  16.3020  16.3395  16.3576  16.3989  16.4470
    16.6586  16.7322  16.8900  17.0854  17.0950  17.1847  17.2709  17.2815
    17.4354  17.4747  17.4989  17.5850  17.6946  17.7062  17.9171  18.0451
    18.1259  18.1720  18.2551  18.4011  18.4840  18.5838  18.6574  18.6777
    18.7628  18.9299  19.0549  19.0931  19.1889  19.2035  19.2216  19.2654
    19.2851  19.3546  19.3564  19.3890  19.4222  19.4903  19.5529  19.5830
    19.5849  19.6473  19.6712  19.7786  19.8304  19.8739  19.9131  20.0318
    20.0427  20.0831  20.1393  20.1958  20.2160  20.2216  20.3003  20.4345
    20.4675  20.5068  20.5239  20.6195  20.6637  20.6936  20.7884  20.7982
    20.8425  20.8617  20.9867  20.9954  21.1052  21.1741  21.1878  21.2716
    21.3108  21.3406  21.3638  21.3990

          k = 0.2500 0.2476 0.0000 ( 31099 PWs)   bands (ev):

   -50.8916 -50.8870 -50.8806 -50.8262 -50.8185 -50.8059 -50.7489 -50.6764
   -50.6621 -50.6529 -50.6204 -50.5868 -50.5838 -50.5593 -50.5565 -50.5526
   -50.5465 -50.4933 -50.4831 -50.4747 -50.4063 -50.3958 -50.2662 -50.2555
   -21.4695 -21.0803 -21.0416 -20.9861 -20.6297 -20.4936 -20.4347 -20.4218
   -20.2840 -20.2014 -20.0925 -19.9960 -19.9192 -19.8701 -19.7362 -19.5591
   -18.7261 -18.6231  -9.9377  -9.7730  -9.7309  -9.3830  -8.9115  -8.8852
    -8.8288  -8.7729  -8.6780  -8.6222  -8.5507  -8.4933  -8.4028  -8.3427
    -8.0952  -8.0355  -7.9779  -7.7640  -7.4855  -7.4161  -7.3431  -7.2298
    -7.1137  -6.8307  -6.6760  -6.5081  -6.4607  -6.3171  -6.2157  -6.2142
    -6.0706  -6.0596  -5.9988  -5.9252  -5.8490  -5.7413  -5.5787  -5.5369
    -5.2648  -5.1939  -5.0945  -4.8395  -4.8153  -4.7640  -4.5946  -4.4442
    -4.4107  -4.2079  -4.1164  -3.8672  -3.7381  -3.4590  -3.3276  -3.3044
    -3.2387  -3.0807  -2.8520  -2.8477  -2.6842  -2.6362  -2.6267  -2.5391
    -2.5351  -2.4433  -2.2923  -2.2772  -2.1045  -2.0397  -1.8866  -1.6087
    -1.3053  -1.1980  -1.1529  -0.9499  -0.9331  -0.7348  -0.5301  -0.3930
    -0.1539   0.0447   0.9524   1.1248   1.5540   1.6229   1.7521   2.1499
     2.3650   2.6460   2.8205   2.8610   3.1574   3.1759   3.3108   3.3986
     3.7608   4.3167   4.7618   5.1729   5.3932   5.5535   5.6617   5.9039
     6.1380   6.2919   6.5434   6.5983   6.6361   6.8699   7.0510   7.1175
     7.2705   7.3722   7.4443   7.6246   7.6737   7.8838   7.9449   8.0411
     8.1422   8.3560   8.4370   8.4812   8.5552   8.7326   8.7898   8.8666
     8.8989   9.0811   9.0812   9.1130   9.1369   9.1907   9.1914   9.2283
     9.2880   9.2922   9.2989   9.3180   9.3194   9.4663   9.6107   9.6794
     9.7266   9.9043   9.9923  10.0865  10.2187  10.3064  10.3231  10.3961
    10.4180  10.4918  10.5697  10.6980  10.8101  10.8500  10.9071  10.9963
    11.0224  11.2288  11.3172  11.4003  11.5613  11.5702  11.6183  11.7518
    11.7835  11.9261  12.0402  12.1327  12.1451  12.2546  12.2797  12.3889
    12.5005  12.6227  12.6327  12.6638  12.6859  12.7986  12.8287  12.9601
    13.0372  13.0672  13.1308  13.1692  13.2066  13.3321  13.4654  13.5806
    13.5846  13.7201  13.8174  13.8350  13.9711  14.0376  14.0942  14.1066
    14.2301  14.3569  14.4345  14.4641  14.5481  14.7245  14.7516  14.8845
    14.9415  15.2233  15.2555  15.2959  15.3793  15.4759  15.5410  15.5717
    15.6199  15.7675  15.7979  15.8390  15.8876  15.9092  15.9583  16.0500
    16.0656  16.1212  16.1576  16.2346  16.3390  16.3521  16.3973  16.4752
    16.5714  16.6502  16.6891  16.7407  16.8308  16.8645  17.0075  17.1192
    17.1687  17.3487  17.3596  17.4361  17.4405  17.5163  17.5537  17.5719
    17.6608  17.7207  17.7343  17.8188  17.8771  17.8812  17.9669  17.9829
    18.1842  18.2775  18.3348  18.3417  18.4693  18.5022  18.5664  18.6111
    18.7246  18.8138  18.8970  18.9462  19.0493  19.0678  19.1447  19.2171
    19.2236  19.2906  19.3666  19.4040  19.5721  19.6715  19.7084  19.7222
    19.8446  19.8708  19.9340  20.0158  20.0602  20.2830  20.3610  20.3870
    20.4864  20.5234  20.6085  20.6118  20.6882  20.6946  20.7897  20.8518
    20.9253  20.9255  21.0337  21.0931  21.1019  21.2662  21.2911  21.3157
    21.3724  21.4366  21.4906  21.5807

          k = 0.2500-0.4953 0.0000 ( 31088 PWs)   bands (ev):

   -50.8915 -50.8872 -50.8808 -50.8263 -50.8185 -50.8059 -50.7487 -50.6764
   -50.6606 -50.6522 -50.6199 -50.5869 -50.5837 -50.5588 -50.5584 -50.5527
   -50.5465 -50.4932 -50.4833 -50.4747 -50.4064 -50.3958 -50.2667 -50.2551
   -21.4029 -21.0778 -20.9463 -20.8089 -20.6156 -20.5116 -20.4400 -20.4394
   -20.4108 -20.2155 -20.0974 -20.0892 -19.9973 -19.9772 -19.7445 -19.5595
   -18.7252 -18.6219  -9.8587  -9.4975  -9.0991  -8.9871  -8.9686  -8.8913
    -8.8495  -8.7022  -8.6213  -8.4587  -8.4504  -8.4330  -8.4058  -8.3121
    -8.1528  -8.0029  -7.9184  -7.6435  -7.4634  -7.4564  -7.3157  -7.2678
    -7.0264  -6.9814  -6.9489  -6.9186  -6.8680  -6.6974  -6.4448  -6.3858
    -6.3479  -6.0682  -6.0077  -5.9825  -5.9235  -5.8936  -5.7632  -5.7385
    -5.4953  -5.3508  -4.9709  -4.8660  -4.7869  -4.6338  -4.5340  -4.3046
    -4.2589  -4.0714  -3.9832  -3.8067  -3.7342  -3.6567  -3.4440  -3.3334
    -3.1095  -3.0084  -2.9454  -2.8372  -2.7702  -2.6794  -2.6637  -2.5748
    -2.4965  -2.4415  -2.3316  -2.0431  -2.0020  -1.7137  -1.6635  -1.5568
    -1.3866  -1.2681  -1.2531  -0.9936  -0.7990  -0.7157  -0.5866  -0.4794
    -0.0332   0.1584   0.5301   0.7129   1.5670   1.6383   2.1544   2.1814
     2.2649   2.3989   2.8090   3.1745   3.1907   3.3585   3.4683   3.6933
     4.3589   4.5257   4.8550   5.4383   5.4785   5.5539   5.8164   5.8545
     5.9907   6.0161   6.0826   6.2784   6.5689   6.7504   6.8194   7.0535
     7.2529   7.2732   7.3043   7.4143   7.5793   7.7377   7.8513   7.9129
     8.0205   8.1256   8.2048   8.2173   8.3638   8.4957   8.6068   8.7514
     8.8824   8.9627   9.0227   9.0814   9.0816   9.1899   9.1902   9.2912
     9.2915   9.3157   9.3171   9.4110   9.4553   9.5428   9.5650   9.7016
     9.7991   9.8166   9.9974  10.0407  10.2049  10.2766  10.3777  10.4162
    10.5232  10.9123  10.9708  11.0047  11.0632  11.3052  11.3837  11.4238
    11.4369  11.4995  11.5694  11.6580  11.7451  11.7604  11.8786  12.0074
    12.0075  12.1020  12.1439  12.2270  12.4529  12.4597  12.5571  12.6124
    12.7075  12.7292  12.7797  12.8337  12.8609  13.0366  13.1177  13.1928
    13.2404  13.2463  13.3034  13.3044  13.3906  13.5621  13.5691  13.6058
    13.6505  13.8564  13.9148  13.9313  13.9949  14.1065  14.2356  14.3928
    14.4842  14.5160  14.5595  14.5919  14.6355  14.6479  14.7141  14.7351
    14.7821  14.8493  14.9290  14.9448  15.0258  15.1024  15.1296  15.3052
    15.3868  15.4755  15.4940  15.5606  15.6405  15.8201  15.8739  15.9610
    16.0003  16.0766  16.1445  16.1733  16.2132  16.3647  16.4349  16.4765
    16.5249  16.5968  16.6381  16.6579  16.7600  16.7795  16.9059  16.9321
    16.9489  17.0395  17.0683  17.1223  17.2121  17.2967  17.3273  17.3428
    17.4973  17.5753  17.6181  17.6430  17.7886  17.8985  17.9121  17.9297
    18.0219  18.0365  18.2038  18.2793  18.3667  18.4014  18.4292  18.5397
    18.6059  18.6128  18.6967  18.7002  18.7461  18.8721  18.8980  18.9430
    19.0313  19.0578  19.1637  19.1678  19.3064  19.4116  19.4169  19.4234
    19.6006  19.6658  19.7002  19.7451  19.8091  19.8130  19.8381  19.9066
    19.9849  19.9937  20.3195  20.3211  20.4974  20.5066  20.5694  20.5697
    20.6606  20.7625  20.7691  20.8781  20.9446  20.9960  21.0147  21.1449
    21.1618  21.2335  21.3105  21.4841

          k =-0.5000 0.0000 0.0000 ( 31104 PWs)   bands (ev):

   -50.8895 -50.8893 -50.8469 -50.8468 -50.8197 -50.8196 -50.7143 -50.7141
   -50.6592 -50.6591 -50.5856 -50.5856 -50.5838 -50.5837 -50.5537 -50.5536
   -50.5286 -50.5285 -50.4792 -50.4791 -50.4012 -50.4010 -50.2610 -50.2608
   -21.2531 -21.2531 -20.8939 -20.8939 -20.7860 -20.7859 -20.4602 -20.4601
   -20.0900 -20.0899 -19.9844 -19.9844 -19.8982 -19.8981 -19.6545 -19.6545
   -18.7396 -18.7387  -9.6949  -9.6948  -9.6665  -9.6664  -9.4373  -9.4373
    -8.7295  -8.7295  -8.6699  -8.6699  -8.4953  -8.4953  -8.3331  -8.3330
    -7.9066  -7.9066  -7.7678  -7.7677  -7.3832  -7.3832  -7.1054  -7.1053
    -6.9501  -6.9500  -6.8211  -6.8210  -6.5429  -6.5428  -6.2676  -6.2672
    -6.1281  -6.1281  -5.7066  -5.7066  -5.6117  -5.6117  -5.5581  -5.5579
    -5.3639  -5.3637  -5.0784  -5.0783  -4.8077  -4.8076  -4.6205  -4.6203
    -4.4142  -4.4141  -3.9961  -3.9961  -3.5239  -3.5238  -3.4671  -3.4670
    -2.9954  -2.9954  -2.9478  -2.9478  -2.8296  -2.8295  -2.6446  -2.6445
    -2.0517  -2.0516  -1.9209  -1.9208  -1.8103  -1.8103  -1.6131  -1.6130
    -1.3170  -1.3170  -1.2301  -1.2294  -0.8908  -0.8907  -0.5110  -0.5109
    -0.0870  -0.0869   1.6186   1.6186   1.7807   1.7807   2.2582   2.2583
     2.2820   2.2822   2.3649   2.3651   2.3867   2.3868   3.2651   3.2652
     4.2995   4.2995   4.8511   4.8512   5.2414   5.2414   5.6401   5.6402
     5.9046   5.9047   6.6159   6.6159   6.7021   6.7022   7.1019   7.1019
     7.7476   7.7476   8.1117   8.1117   8.1765   8.1765   8.2382   8.2383
     8.5923   8.5924   8.8198   8.8198   8.8755   8.8755   9.0247   9.0247
     9.0734   9.0735   9.0882   9.0883   9.1905   9.1907   9.2149   9.2149
     9.2916   9.2917   9.3136   9.3138   9.3304   9.3304   9.4175   9.4175
     9.5510   9.5511   9.6653   9.6653   9.8664   9.8665  10.0579  10.0579
    10.1268  10.1268  10.2986  10.2986  10.5796  10.5796  10.9346  10.9346
    10.9888  10.9889  11.2721  11.2721  11.5939  11.5939  11.7122  11.7123
    11.8331  11.8331  11.9574  11.9574  12.0289  12.0289  12.3970  12.3970
    12.5405  12.5405  12.7646  12.7646  12.8757  12.8757  12.9923  12.9923
    13.1524  13.1525  13.2022  13.2024  13.3011  13.3011  13.5266  13.5267
    13.6521  13.6522  13.7831  13.7832  13.9901  13.9902  14.0620  14.0620
    14.1912  14.1912  14.2733  14.2734  14.4748  14.4748  14.6632  14.6632
    14.8081  14.8081  15.0949  15.0949  15.3395  15.3395  15.4649  15.4649
    15.8671  15.8671  16.0633  16.0634  16.1881  16.1881  16.2352  16.2352
    16.2888  16.2888  16.3830  16.3830  16.4446  16.4447  16.5826  16.5826
    16.6306  16.6307  16.6675  16.6676  16.8160  16.8160  16.8612  16.8613
    17.0553  17.0553  17.2128  17.2129  17.5213  17.5214  17.6329  17.6329
    17.8140  17.8140  18.0415  18.0416  18.1312  18.1312  18.3806  18.3806
    18.4601  18.4601  18.5394  18.5395  18.7355  18.7355  18.8795  18.8795
    19.0691  19.0692  19.1020  19.1021  19.2346  19.2347  19.3261  19.3262
    19.5442  19.5442  19.5930  19.5930  19.7386  19.7386  19.8009  19.8010
    19.9029  19.9030  20.0175  20.0175  20.1070  20.1071  20.2264  20.2264
    20.2676  20.2677  20.3085  20.3086  20.5020  20.5020  20.6502  20.6502
    20.7358  20.7359  20.9541  20.9541  21.0002  21.0002  21.0926  21.0927
    21.1685  21.1687  21.2508  21.2509

          k =-0.5000 0.2476 0.0000 ( 31120 PWs)   bands (ev):

   -50.8895 -50.8893 -50.8470 -50.8469 -50.8198 -50.8197 -50.7141 -50.7139
   -50.6581 -50.6577 -50.5855 -50.5854 -50.5838 -50.5837 -50.5548 -50.5545
   -50.5283 -50.5282 -50.4792 -50.4791 -50.4012 -50.4010 -50.2610 -50.2608
   -21.2242 -21.2239 -20.8148 -20.8145 -20.6882 -20.6881 -20.4708 -20.4708
   -20.1670 -20.1633 -20.0697 -20.0674 -20.0005 -19.9993 -19.6517 -19.6512
   -18.7385 -18.7376  -9.4316  -9.4271  -9.3048  -9.3041  -9.2659  -9.2656
    -8.7210  -8.7138  -8.6709  -8.6688  -8.4376  -8.4278  -8.2848  -8.2827
    -8.0331  -7.9898  -7.7229  -7.6927  -7.4921  -7.4653  -7.3213  -7.3212
    -7.1447  -7.0477  -6.9414  -6.8242  -6.5598  -6.5201  -6.3549  -6.3336
    -6.1374  -6.1290  -5.8994  -5.8923  -5.7901  -5.7806  -5.7132  -5.7127
    -5.6338  -5.6123  -5.3063  -5.2737  -4.8519  -4.7935  -4.6157  -4.5634
    -4.4156  -4.3182  -3.9448  -3.7845  -3.7244  -3.6996  -3.4658  -3.4156
    -2.9212  -2.9071  -2.7291  -2.6783  -2.4992  -2.4743  -2.4500  -2.4072
    -2.2901  -2.2296  -2.1105  -2.0667  -1.6706  -1.6401  -1.5643  -1.5582
    -1.3111  -1.3105  -1.1615  -1.1031  -0.9931  -0.9713  -0.6933  -0.6742
     0.0480   0.0484   1.5691   1.5761   1.6352   1.6359   1.8200   1.8207
     2.0921   2.0980   2.5596   2.5680   2.9242   2.9258   3.3625   3.3670
     4.5352   4.5449   4.9478   4.9479   5.4693   5.4705   5.8270   5.8366
     6.1036   6.1164   6.3240   6.3506   6.7261   6.7300   6.9849   6.9963
     7.2315   7.2369   7.3223   7.3243   7.7355   7.7469   7.9142   7.9367
     8.0850   8.1025   8.2752   8.3052   8.5768   8.6080   8.7698   8.8349
     9.0045   9.0810   9.0817   9.1205   9.1898   9.1900   9.2804   9.2836
     9.3026   9.3030   9.3223   9.3238   9.5906   9.6161   9.6906   9.6945
     9.8362   9.8370   9.9202   9.9404  10.2566  10.2685  10.4795  10.5016
    10.7411  10.7426  10.8902  10.8992  10.9743  10.9866  11.1300  11.1400
    11.3674  11.3771  11.5259  11.5334  11.7010  11.7103  11.8968  11.9530
    12.0671  12.1110  12.2426  12.2465  12.2681  12.2787  12.5670  12.5676
    12.6260  12.6632  12.9072  12.9274  13.0028  13.0222  13.1633  13.1735
    13.2714  13.2833  13.3836  13.3979  13.4879  13.4883  13.5330  13.5516
    13.7459  13.7659  13.8669  13.8789  14.0882  14.1317  14.2417  14.2443
    14.3486  14.3589  14.4051  14.4235  14.5373  14.5484  14.5896  14.6182
    14.6928  14.7022  14.8856  14.9084  14.9896  15.0110  15.0895  15.0922
    15.2388  15.2482  15.4393  15.4540  15.6134  15.6213  15.8547  15.8810
    16.0542  16.0725  16.1953  16.2179  16.3366  16.3376  16.3904  16.4168
    16.5817  16.5891  16.6053  16.6172  16.6895  16.7097  16.7890  16.8059
    16.9645  16.9739  17.1278  17.1279  17.2152  17.3027  17.4640  17.4787
    17.5579  17.5782  17.7456  17.7505  17.8825  17.9345  17.9553  17.9990
    18.0888  18.1142  18.3101  18.3498  18.3882  18.3989  18.4457  18.4476
    18.6132  18.6253  18.7458  18.7477  18.8413  18.8414  18.9825  19.0163
    19.1369  19.1603  19.2340  19.2751  19.4276  19.4308  19.5819  19.6148
    19.6850  19.6938  19.7949  19.8084  19.9705  19.9793  20.1004  20.1032
    20.2927  20.3059  20.3233  20.3358  20.4118  20.4681  20.5250  20.5845
    20.7482  20.7629  20.9120  20.9463  20.9764  21.0146  21.2515  21.2870
    21.4075  21.4163  21.5701  21.5907

          k =-0.5000-0.4953 0.0000 ( 31140 PWs)   bands (ev):

   -50.8895 -50.8893 -50.8471 -50.8470 -50.8198 -50.8197 -50.7139 -50.7137
   -50.6567 -50.6566 -50.5854 -50.5853 -50.5837 -50.5837 -50.5557 -50.5556
   -50.5280 -50.5279 -50.4793 -50.4792 -50.4013 -50.4011 -50.2610 -50.2608
   -21.1980 -21.1980 -20.6347 -20.6347 -20.6098 -20.6098 -20.3798 -20.3797
   -20.3743 -20.3743 -20.2748 -20.2748 -20.0218 -20.0217 -19.6509 -19.6509
   -18.7375 -18.7366  -9.4116  -9.4116  -8.7325  -8.7324  -8.7135  -8.7135
    -8.5133  -8.5132  -8.4796  -8.4795  -8.3532  -8.3532  -8.2872  -8.2871
    -8.1636  -8.1635  -8.0718  -8.0718  -7.9554  -7.9554  -7.4972  -7.4972
    -6.9863  -6.9863  -6.7415  -6.7413  -6.6481  -6.6480  -6.4435  -6.4433
    -6.3764  -6.3763  -6.3080  -6.3078  -6.1323  -6.1323  -6.0778  -6.0778
    -5.6912  -5.6910  -4.9915  -4.9914  -4.7772  -4.7772  -4.4826  -4.4825
    -4.1839  -4.1837  -4.1152  -4.1151  -3.5366  -3.5365  -3.2361  -3.2361
    -2.9870  -2.9870  -2.7200  -2.7200  -2.5820  -2.5819  -2.3970  -2.3970
    -2.1054  -2.1054  -2.0725  -2.0725  -1.4926  -1.4924  -1.4333  -1.4333
    -1.2660  -1.2654  -1.1227  -1.1225  -0.9613  -0.9613  -0.8567  -0.8566
     0.1457   0.1458   1.1967   1.1967   1.3573   1.3575   1.7515   1.7515
     2.1590   2.1595   2.8388   2.8390   3.0487   3.0487   3.5210   3.5213
     4.9901   4.9901   5.1170   5.1170   5.5522   5.5522   6.1356   6.1356
     6.1813   6.1813   6.2915   6.2915   6.5153   6.5153   6.7196   6.7196
     6.8260   6.8260   7.0340   7.0341   7.4533   7.4533   7.5165   7.5165
     7.7593   7.7593   8.0128   8.0128   8.4777   8.4777   8.8160   8.8160
     8.9419   8.9419   9.0821   9.0822   9.1888   9.1890   9.2014   9.2014
     9.2875   9.2876   9.3166   9.3169   9.3343   9.3343   9.9007   9.9007
    10.0836  10.0836  10.1853  10.1853  10.3207  10.3209  10.5495  10.5495
    10.9017  10.9017  10.9805  10.9806  11.2417  11.2418  11.7117  11.7117
    11.9422  11.9422  12.1704  12.1705  12.2838  12.2838  12.4888  12.4888
    12.5220  12.5221  12.6616  12.6617  12.8346  12.8346  12.9606  12.9607
    13.0546  13.0547  13.2293  13.2294  13.3955  13.3955  13.4558  13.4558
    13.5335  13.5335  13.5941  13.5941  13.6805  13.6805  13.7213  13.7214
    13.7539  13.7539  13.8524  13.8525  13.9737  13.9737  14.0206  14.0206
    14.0605  14.0606  14.2594  14.2596  14.3241  14.3241  14.4438  14.4438
    14.4970  14.4970  14.6164  14.6164  14.8038  14.8038  15.0649  15.0649
    15.1605  15.1605  15.2438  15.2438  15.3048  15.3048  15.3613  15.3613
    15.4576  15.4576  15.5731  15.5731  15.7519  15.7519  15.8149  15.8149
    15.9226  15.9226  16.0240  16.0241  16.3419  16.3420  16.5039  16.5039
    16.7229  16.7230  16.8362  16.8362  16.9424  16.9424  17.0084  17.0085
    17.1865  17.1865  17.3553  17.3553  17.5706  17.5706  17.7978  17.7979
    18.0905  18.0905  18.1526  18.1526  18.3460  18.3460  18.3727  18.3727
    18.4232  18.4233  18.7421  18.7421  18.9154  18.9155  19.1575  19.1575
    19.3404  19.3404  19.4769  19.4769  19.6445  19.6446  19.7087  19.7087
    20.0933  20.0933  20.1950  20.1950  20.2825  20.2825  20.6142  20.6142
    20.6511  20.6511  20.7092  20.7092  20.7710  20.7710  20.9346  20.9346
    21.0151  21.0151  21.0555  21.0555  21.2498  21.2498  21.3129  21.3129
    21.3439  21.3439  21.4420  21.4422

          k =-0.2500 0.2476 0.0000 ( 31099 PWs)   bands (ev):

   -50.8916 -50.8870 -50.8807 -50.8262 -50.8185 -50.8058 -50.7489 -50.6764
   -50.6625 -50.6526 -50.6204 -50.5868 -50.5838 -50.5594 -50.5563 -50.5528
   -50.5465 -50.4932 -50.4832 -50.4747 -50.4063 -50.3958 -50.2662 -50.2555
   -21.4696 -21.0801 -21.0416 -20.9859 -20.6294 -20.4938 -20.4347 -20.4217
   -20.2838 -20.2044 -20.0926 -19.9934 -19.9188 -19.8700 -19.7372 -19.5588
   -18.7261 -18.6231  -9.9343  -9.7738  -9.7323  -9.3882  -8.9064  -8.8865
    -8.8528  -8.7432  -8.6761  -8.6136  -8.5536  -8.4966  -8.4028  -8.3519
    -8.1011  -8.0642  -7.9769  -7.7463  -7.4736  -7.4222  -7.3444  -7.1650
    -7.1161  -6.8177  -6.6920  -6.5773  -6.4547  -6.3336  -6.2340  -6.2189
    -6.0993  -6.0591  -5.9422  -5.8794  -5.8536  -5.7386  -5.5791  -5.5403
    -5.2621  -5.2019  -5.0649  -4.8771  -4.8757  -4.6605  -4.5987  -4.5437
    -4.3776  -4.2294  -4.1399  -3.8022  -3.7223  -3.4709  -3.3594  -3.2293
    -3.2184  -3.0657  -2.8494  -2.8463  -2.7342  -2.6705  -2.6436  -2.5393
    -2.5290  -2.4340  -2.3780  -2.2350  -2.0942  -2.0306  -1.8316  -1.6285
    -1.3039  -1.1758  -1.1745  -0.9632  -0.9463  -0.7109  -0.5316  -0.3967
    -0.1533   0.0442   0.9510   1.1248   1.5533   1.6229   1.7557   2.1504
     2.3656   2.6368   2.8297   2.8627   3.1547   3.1768   3.3066   3.4012
     3.7574   4.3169   4.7621   5.1765   5.3949   5.5729   5.6810   5.9041
     6.1416   6.2838   6.5457   6.5827   6.6381   6.8300   7.0569   7.0932
     7.2776   7.3597   7.4402   7.6217   7.6666   7.8696   7.9739   8.0581
     8.1542   8.3644   8.4375   8.4401   8.5676   8.7312   8.7967   8.8536
     8.9061   9.0811   9.0812   9.1139   9.1321   9.1907   9.1916   9.2243
     9.2922   9.2940   9.3111   9.3180   9.3254   9.5121   9.6163   9.6871
     9.7320   9.8695  10.0030  10.0862  10.1777  10.3050  10.3106  10.3947
    10.4179  10.4579  10.5729  10.7502  10.8081  10.8172  10.9185  11.0120
    11.0240  11.2227  11.3269  11.4040  11.5405  11.5678  11.6897  11.7343
    11.7915  11.9246  12.0470  12.1348  12.1654  12.2472  12.2865  12.3794
    12.5257  12.5992  12.6130  12.6718  12.7185  12.7938  12.8252  12.9058
    13.0547  13.0736  13.1274  13.1933  13.2777  13.3338  13.4411  13.5560
    13.5745  13.7332  13.8536  13.8661  13.9723  13.9745  14.0432  14.1259
    14.2503  14.3366  14.4048  14.5020  14.5538  14.7342  14.7444  14.8609
    14.8658  15.1840  15.1849  15.3553  15.3570  15.4876  15.5415  15.5750
    15.6161  15.7524  15.7747  15.8225  15.8650  15.9107  15.9739  16.0530
    16.0553  16.1100  16.1470  16.2505  16.3425  16.3555  16.4253  16.4309
    16.5677  16.6437  16.7044  16.7466  16.7922  16.8255  17.0777  17.1513
    17.1806  17.3460  17.3703  17.4394  17.4451  17.4860  17.5631  17.5851
    17.6558  17.7289  17.7316  17.8467  17.9023  17.9271  17.9695  17.9754
    18.1900  18.2258  18.3120  18.3770  18.4501  18.4967  18.5764  18.6223
    18.7712  18.8438  18.9262  18.9435  19.0516  19.1088  19.1350  19.1948
    19.2671  19.2844  19.3555  19.4330  19.5526  19.6139  19.7132  19.7359
    19.8356  19.9184  19.9609  20.0574  20.1122  20.2723  20.3429  20.3491
    20.4453  20.5241  20.5847  20.6211  20.6456  20.7713  20.7904  20.8554
    20.8709  20.9505  21.0033  21.1114  21.1233  21.2739  21.3289  21.3440
    21.3556  21.4141  21.4746  21.5470

     the Fermi energy is    -0.9624 ev

!    total energy              =   -2073.21083765 Ry
     Harris-Foulkes estimate   =   -2073.21083827 Ry
     estimated scf accuracy    <       0.00000065 Ry

     The total energy is the sum of the following terms:

     one-electron contribution =  -21977.18764268 Ry
     hartree contribution      =   11030.22369882 Ry
     xc contribution           =    -569.27265616 Ry
     ewald contribution        =    9442.24806282 Ry
     Hubbard energy            =       0.77908499 Ry
     smearing contrib. (-TS)   =      -0.00138544 Ry

     convergence has been achieved in  28 iterations

     Forces acting on atoms (Ry/au):


     negative rho (up, down):  0.313E+01 0.000E+00
     atom    1 type  1   force =    -0.00789890   -0.01403463    0.00309786
     atom    2 type  1   force =     0.00018519    0.00659108    0.00098353
     atom    3 type  2   force =     0.00003411    0.00511357   -0.00258248
     atom    4 type  2   force =     0.00941055    0.00775534   -0.00246386
     atom    5 type  1   force =    -0.00286951   -0.01677958    0.00038056
     atom    6 type  1   force =     0.00423011    0.01490921    0.00007185
     atom    7 type  1   force =    -0.00034189   -0.00158930    0.01082077
     atom    8 type  1   force =    -0.00322282   -0.00051867    0.00124868
     atom    9 type  2   force =     0.00122131    0.00009804   -0.00332704
     atom   10 type  2   force =     0.00002633   -0.00142550   -0.00282830
     atom   11 type  1   force =    -0.00011046    0.00953980   -0.00364064
     atom   12 type  1   force =     0.00020033   -0.00902491   -0.00367804
     atom   13 type  1   force =    -0.00083482   -0.00011911    0.00002352
     atom   14 type  1   force =    -0.00790191   -0.01403545    0.00310953
     atom   15 type  1   force =     0.00016792    0.00659136    0.00098414
     atom   16 type  2   force =     0.00002801    0.00511293   -0.00258508
     atom   17 type  2   force =     0.00939216    0.00775588   -0.00246249
     atom   18 type  1   force =    -0.00289338   -0.01677378    0.00037438
     atom   19 type  1   force =     0.00420471    0.01490489    0.00006491
     atom   20 type  1   force =    -0.00037336   -0.00158922    0.01079919
     atom   21 type  1   force =    -0.00327846   -0.00051865    0.00126619
     atom   22 type  2   force =     0.00118272    0.00009886   -0.00333309
     atom   23 type  2   force =     0.00000703   -0.00142513   -0.00281650
     atom   24 type  1   force =    -0.00008503    0.00952056   -0.00363228
     atom   25 type  1   force =     0.00022510   -0.00900572   -0.00367105
     atom   26 type  1   force =    -0.00088704   -0.00011915   -0.00010917
     atom   27 type  3   force =    -0.00007509   -0.00098830    0.00163338
     atom   28 type  3   force =    -0.00007545   -0.00098788    0.00163317
     atom   29 type  3   force =     0.00016670    0.00047161    0.00031934
     atom   30 type  3   force =     0.00016583    0.00047186    0.00031898

     Total force =     0.019582     Total SCF correction =     0.004544
     SCF correction compared to forces is large: reduce conv_thr to get better values

     BFGS Geometry Optimization

     number of scf cycles    =   1
     number of bfgs steps    =   0

     energy   new            =   -2073.2108376514 Ry

     new trust radius        =       0.0108207747 bohr
     new conv_thr            =       0.0000010000 Ry


ATOMIC_POSITIONS (crystal)
O0       0.000000000   0.000000000   0.378722047    0   0   1
O0       0.000000000   0.500000000   0.401379699    0   0   1
Ir1      0.250000000   0.500000000   0.452028275    0   0   1
Ir1      0.000000000   0.000000000   0.453540651    0   0   1
O0       0.250000000   0.810000000   0.453177622    0   0   1
O0       0.250000000   0.190000000   0.452811439    0   0   1
O0       0.000000000   0.500000000   0.498406729    0   0   1
O0       0.000000000   0.000000000   0.529405010    0   0   1
Ir1      0.250000000   0.000000000   0.576603363    0   0   1
Ir1      0.000000000   0.500000000   0.572013352    0   0   1
O0       0.250000000   0.690000000   0.577077081    0   0   1
O0       0.250000000   0.310000000   0.577116332    0   0   1
O0       0.000000000   0.000000000   0.621230471    0   0   1
O0       0.500000000   0.000000000   0.378722281    0   0   1
O0       0.500000000   0.500000000   0.401379711    0   0   1
Ir1      0.750000000   0.500000000   0.452028223    0   0   1
Ir1      0.500000000   0.000000000   0.453540679    0   0   1
O0       0.750000000   0.810000000   0.453177499    0   0   1
O0       0.750000000   0.190000000   0.452811300    0   0   1
O0       0.500000000   0.500000000   0.498406297    0   0   1
O0       0.500000000   0.000000000   0.529405361    0   0   1
Ir1      0.750000000   0.000000000   0.576603242    0   0   1
Ir1      0.500000000   0.500000000   0.572013588    0   0   1
O0       0.750000000   0.690000000   0.577077249    0   0   1
O0       0.750000000   0.310000000   0.577116473    0   0   1
O0       0.500000000   0.000000000   0.621237813    0   0   1
H2      -0.000056248   0.636258545   0.383582715
H2       0.499943723   0.636258579   0.383582711
H2       0.143663870   0.033538870   0.367086396
H2       0.643663798   0.033538890   0.367086389


     Check: negative starting charge=   -3.334716
     NEW-OLD atomic charge density approx. for the potential

     Check: negative/imaginary core charge=   -0.000003    0.000000
     Check: negative starting charge=   -3.333962

     negative rho (up, down):  0.313E+01 0.000E+00
 Atomic wfc used for LDA+U Projector are NOT orthogonalized

     total cpu time spent up to now is     6280.9 secs

     per-process dynamical memory:   449.4 Mb

     Self-consistent Calculation

     iteration #  1     ecut=    40.00 Ry     beta=0.70
     Davidson diagonalization with overlap
     ethr =  1.00E-06,  avg # of iterations =  3.0
 --- enter write_ns ---
 LDA+U parameters:
U( 2)     =  2.00000000
alpha( 2) =  0.00000000
atom    3   Tr[ns(na)] =   8.11183
    eigenvalues: 
  0.604  0.627  0.890  0.966  0.969
    eigenvectors:
  0.000  0.194  0.003  0.002  0.801
  1.000  0.000  0.000  0.000  0.000
  0.000  0.000  0.996  0.000  0.003
  0.000  0.806  0.000  0.000  0.193
  0.000  0.000  0.000  0.998  0.002
    occupations:
  0.903 -0.000  0.003 -0.135  0.000
 -0.000  0.604 -0.000 -0.000 -0.006
  0.003 -0.000  0.890 -0.004  0.001
 -0.135 -0.000 -0.004  0.694 -0.000
  0.000 -0.006  0.001 -0.000  0.966
atom    4   Tr[ns(na)] =   8.07821
    eigenvalues: 
  0.618  0.665  0.862  0.914  0.981
    eigenvectors:
  0.000  0.989  0.000  0.000  0.010
  0.000  0.000  0.047  0.953  0.000
  0.000  0.000  0.953  0.047  0.000
  0.000  0.010  0.000  0.000  0.990
  1.000  0.000  0.000  0.000  0.000
    occupations:
  0.668 -0.003 -0.001  0.032  0.001
 -0.003  0.911  0.011  0.000 -0.001
 -0.001  0.011  0.864 -0.000  0.000
  0.032  0.000 -0.000  0.978  0.000
  0.001 -0.001  0.000  0.000  0.618
atom    9   Tr[ns(na)] =   8.06149
    eigenvalues: 
  0.649  0.665  0.849  0.888  0.980
    eigenvectors:
  0.000  0.146  0.000  0.000  0.854
  1.000  0.000  0.000  0.000  0.000
  0.000  0.000  1.000  0.000  0.000
  0.000  0.854  0.000  0.000  0.146
  0.000  0.000  0.000  1.000  0.000
    occupations:
  0.934  0.000 -0.000 -0.111 -0.001
  0.000  0.649  0.000  0.000 -0.000
 -0.000  0.000  0.849 -0.000 -0.000
 -0.111  0.000 -0.000  0.711  0.001
 -0.001 -0.000 -0.000  0.001  0.888
atom   10   Tr[ns(na)] =   8.05289
    eigenvalues: 
  0.591  0.608  0.921  0.928  0.979
    eigenvectors:
  0.995  0.000  0.000  0.000  0.005
  0.000  0.000  1.000  0.000  0.000
  0.000  0.000  0.000  1.000  0.000
  0.005  0.000  0.000  0.000  0.995
  0.000  1.000  0.000  0.000  0.000
    occupations:
  0.593  0.000  0.002  0.028 -0.000
  0.000  0.921 -0.000  0.000 -0.000
  0.002 -0.000  0.928  0.000  0.000
  0.028  0.000  0.000  0.977  0.000
 -0.000 -0.000  0.000  0.000  0.608
atom   16   Tr[ns(na)] =   8.11129
    eigenvalues: 
  0.604  0.627  0.890  0.966  0.969
    eigenvectors:
  0.000  0.194  0.003  0.002  0.801
  1.000  0.000  0.000  0.000  0.000
  0.000  0.000  0.996  0.000  0.003
  0.000  0.806  0.000  0.000  0.193
  0.000  0.000  0.000  0.998  0.002
    occupations:
  0.903 -0.000  0.003 -0.135  0.000
 -0.000  0.604 -0.000 -0.000 -0.006
  0.003 -0.000  0.890 -0.004  0.001
 -0.135 -0.000 -0.004  0.694 -0.000
  0.000 -0.006  0.001 -0.000  0.966
atom   17   Tr[ns(na)] =   8.07867
    eigenvalues: 
  0.618  0.665  0.862  0.914  0.981
    eigenvectors:
  0.000  0.989  0.000  0.000  0.010
  0.000  0.000  0.047  0.953  0.000
  0.000  0.000  0.953  0.047  0.000
  0.000  0.010  0.000  0.000  0.990
  1.000  0.000  0.000  0.000  0.000
    occupations:
  0.668 -0.003 -0.001  0.032  0.001
 -0.003  0.911  0.011  0.000 -0.001
 -0.001  0.011  0.864 -0.000  0.000
  0.032  0.000 -0.000  0.978  0.000
  0.001 -0.001  0.000  0.000  0.618
atom   22   Tr[ns(na)] =   8.06005
    eigenvalues: 
  0.649  0.665  0.849  0.888  0.980
    eigenvectors:
  0.000  0.146  0.000  0.000  0.854
  1.000  0.000  0.000  0.000  0.000
  0.000  0.000  1.000  0.000  0.000
  0.000  0.854  0.000  0.000  0.146
  0.000  0.000  0.000  1.000  0.000
    occupations:
  0.934  0.000 -0.000 -0.111 -0.001
  0.000  0.649  0.000  0.000 -0.000
 -0.000  0.000  0.849 -0.000 -0.000
 -0.111  0.000 -0.000  0.711  0.001
 -0.001 -0.000 -0.000  0.001  0.888
atom   23   Tr[ns(na)] =   8.05201
    eigenvalues: 
  0.591  0.608  0.921  0.928  0.979
    eigenvectors:
  0.995  0.000  0.000  0.000  0.005
  0.000  0.000  1.000  0.000  0.000
  0.000  0.000  0.000  1.000  0.000
  0.005  0.000  0.000  0.000  0.995
  0.000  1.000  0.000  0.000  0.000
    occupations:
  0.593  0.000  0.002  0.028 -0.000
  0.000  0.921 -0.000  0.000 -0.000
  0.002 -0.000  0.928  0.000  0.000
  0.028  0.000  0.000  0.977  0.000
 -0.000 -0.000  0.000  0.000  0.608
N of occupied +U levels =  64.6064357
 --- exit write_ns ---

     negative rho (up, down):  0.313E+01 0.000E+00

     total cpu time spent up to now is     6532.2 secs

     total energy              =   -2073.21089081 Ry
     Harris-Foulkes estimate   =   -2073.21110736 Ry
     estimated scf accuracy    <       0.00028474 Ry

     iteration #  2     ecut=    40.00 Ry     beta=0.70
     Davidson diagonalization with overlap
     ethr =  1.23E-07,  avg # of iterations =  3.3

     negative rho (up, down):  0.313E+01 0.000E+00

     total cpu time spent up to now is     6737.5 secs

     total energy              =   -2073.20945571 Ry
     Harris-Foulkes estimate   =   -2073.21257985 Ry
     estimated scf accuracy    <       0.03350721 Ry

     iteration #  3     ecut=    40.00 Ry     beta=0.70
     Davidson diagonalization with overlap
     ethr =  1.23E-07,  avg # of iterations =  4.0

     negative rho (up, down):  0.313E+01 0.000E+00

     total cpu time spent up to now is     6946.4 secs

     total energy              =   -2073.21070282 Ry
     Harris-Foulkes estimate   =   -2073.21145322 Ry
     estimated scf accuracy    <       0.00938732 Ry

     iteration #  4     ecut=    40.00 Ry     beta=0.70
     Davidson diagonalization with overlap
     ethr =  1.23E-07,  avg # of iterations =  1.8

     negative rho (up, down):  0.313E+01 0.000E+00

     total cpu time spent up to now is     7137.4 secs

     total energy              =   -2073.21107307 Ry
     Harris-Foulkes estimate   =   -2073.21109340 Ry
     estimated scf accuracy    <       0.00006795 Ry

     iteration #  5     ecut=    40.00 Ry     beta=0.70
     Davidson diagonalization with overlap
     ethr =  2.93E-08,  avg # of iterations =  1.7

     negative rho (up, down):  0.313E+01 0.000E+00

     total cpu time spent up to now is     7328.8 secs

     total energy              =   -2073.21108030 Ry
     Harris-Foulkes estimate   =   -2073.21109165 Ry
     estimated scf accuracy    <       0.00003711 Ry

     iteration #  6     ecut=    40.00 Ry     beta=0.70
     Davidson diagonalization with overlap
     ethr =  1.60E-08,  avg # of iterations =  1.0

     negative rho (up, down):  0.313E+01 0.000E+00

     total cpu time spent up to now is     7516.4 secs

     total energy              =   -2073.21108215 Ry
     Harris-Foulkes estimate   =   -2073.21109026 Ry
     estimated scf accuracy    <       0.00004528 Ry

     iteration #  7     ecut=    40.00 Ry     beta=0.70
     Davidson diagonalization with overlap
     ethr =  1.60E-08,  avg # of iterations =  1.0

     negative rho (up, down):  0.313E+01 0.000E+00

     total cpu time spent up to now is     7702.9 secs

     total energy              =   -2073.21108541 Ry
     Harris-Foulkes estimate   =   -2073.21108764 Ry
     estimated scf accuracy    <       0.00001189 Ry

     iteration #  8     ecut=    40.00 Ry     beta=0.70
     Davidson diagonalization with overlap
     ethr =  5.13E-09,  avg # of iterations =  1.0

     negative rho (up, down):  0.313E+01 0.000E+00

     total cpu time spent up to now is     7890.7 secs

     total energy              =   -2073.21108616 Ry
     Harris-Foulkes estimate   =   -2073.21108718 Ry
     estimated scf accuracy    <       0.00000547 Ry

     iteration #  9     ecut=    40.00 Ry     beta=0.70
     Davidson diagonalization with overlap
     ethr =  2.36E-09,  avg # of iterations =  1.0

[...]
     8.6044   8.6045   8.8236   8.8236   8.8811   8.8811   9.0377   9.0377
     9.0945   9.0945   9.1086   9.1086   9.2046   9.2047   9.2212   9.2212
     9.3069   9.3069   9.3150   9.3151   9.3303   9.3303   9.4213   9.4213
     9.5768   9.5768   9.6719   9.6719   9.8767   9.8767  10.0620  10.0620
    10.1433  10.1433  10.3081  10.3082  10.5854  10.5854  10.9357  10.9357
    10.9999  10.9999  11.2753  11.2753  11.5839  11.5839  11.7129  11.7129
    11.8360  11.8360  11.9824  11.9825  12.0548  12.0548  12.4030  12.4030
    12.5451  12.5451  12.7641  12.7641  12.8742  12.8742  13.0122  13.0122
    13.1545  13.1545  13.2155  13.2155  13.3046  13.3046  13.5362  13.5362
    13.6671  13.6671  13.7921  13.7921  14.0045  14.0045  14.0799  14.0799
    14.1999  14.1999  14.2807  14.2807  14.4750  14.4750  14.6611  14.6611
    14.8066  14.8066  15.0938  15.0938  15.3320  15.3320  15.4703  15.4704
    15.8570  15.8570  16.0753  16.0753  16.1927  16.1927  16.2371  16.2371
    16.2953  16.2953  16.3890  16.3891  16.4393  16.4394  16.5825  16.5825
    16.6283  16.6283  16.6777  16.6777  16.8128  16.8128  16.8535  16.8535
    17.0530  17.0530  17.2097  17.2097  17.5254  17.5254  17.6361  17.6361
    17.8098  17.8098  18.0358  18.0358  18.1298  18.1298  18.3866  18.3866
    18.4601  18.4601  18.5314  18.5314  18.7301  18.7301  18.8884  18.8884
    19.0604  19.0604  19.1030  19.1030  19.2282  19.2283  19.3208  19.3208
    19.5483  19.5483  19.5971  19.5971  19.7409  19.7409  19.8004  19.8005
    19.8998  19.8998  20.0142  20.0142  20.1097  20.1097  20.2178  20.2178
    20.2678  20.2678  20.3062  20.3062  20.4935  20.4936  20.6499  20.6499
    20.7417  20.7417  20.9700  20.9700  21.0206  21.0206  21.1043  21.1044
    21.1757  21.1757  21.2711  21.2711

          k =-0.5000 0.2476 0.0000 ( 31120 PWs)   bands (ev):

   -50.8783 -50.8781 -50.8308 -50.8307 -50.8084 -50.8084 -50.7028 -50.7027
   -50.6437 -50.6433 -50.6079 -50.6079 -50.5971 -50.5971 -50.5292 -50.5289
   -50.5061 -50.5061 -50.4570 -50.4569 -50.3888 -50.3887 -50.2709 -50.2708
   -21.2317 -21.2314 -20.8166 -20.8164 -20.6782 -20.6780 -20.4809 -20.4809
   -20.1721 -20.1684 -20.0589 -20.0566 -20.0074 -20.0064 -19.6579 -19.6574
   -18.7141 -18.7141  -9.4432  -9.4393  -9.2870  -9.2869  -9.2710  -9.2706
    -8.7421  -8.7344  -8.6916  -8.6888  -8.4461  -8.4365  -8.2819  -8.2797
    -8.0424  -8.0025  -7.7306  -7.7006  -7.4831  -7.4585  -7.3311  -7.3282
    -7.1616  -7.0604  -6.9564  -6.8358  -6.5554  -6.5156  -6.3430  -6.3213
    -6.1280  -6.1210  -5.9066  -5.9006  -5.7757  -5.7610  -5.7114  -5.7059
    -5.6294  -5.5988  -5.2941  -5.2597  -4.8538  -4.7948  -4.6166  -4.5653
    -4.4103  -4.3048  -3.9453  -3.7717  -3.7135  -3.6880  -3.4484  -3.4010
    -2.9160  -2.8976  -2.7165  -2.6626  -2.4802  -2.4566  -2.4330  -2.3952
    -2.2845  -2.2211  -2.1099  -2.0675  -1.6526  -1.6212  -1.5481  -1.5421
    -1.3019  -1.3014  -1.1451  -1.0845  -0.9747  -0.9521  -0.6670  -0.6474
     0.0761   0.0765   1.5913   1.5986   1.6488   1.6492   1.8324   1.8331
     2.1335   2.1393   2.5871   2.5956   2.9434   2.9450   3.3897   3.3944
     4.5453   4.5552   4.9383   4.9385   5.4705   5.4716   5.8234   5.8327
     6.1102   6.1259   6.3338   6.3591   6.7263   6.7291   7.0010   7.0111
     7.2295   7.2348   7.3229   7.3248   7.7321   7.7443   7.9269   7.9482
     8.0986   8.1116   8.2865   8.3206   8.5817   8.6172   8.7790   8.8440
     9.0197   9.0995   9.1003   9.1331   9.2038   9.2039   9.2947   9.2966
     9.3116   9.3126   9.3284   9.3292   9.5989   9.6306   9.7054   9.7116
     9.8486   9.8517   9.9358   9.9563  10.2637  10.2748  10.4974  10.5207
    10.7530  10.7570  10.8974  10.9047  10.9715  10.9832  11.1326  11.1436
    11.3729  11.3830  11.5361  11.5457  11.7096  11.7165  11.8933  11.9459
    12.0778  12.1215  12.2487  12.2547  12.2747  12.2868  12.5718  12.5730
    12.6331  12.6657  12.9102  12.9300  13.0034  13.0247  13.1788  13.1925
    13.2800  13.2876  13.3967  13.4130  13.4919  13.4954  13.5439  13.5606
    13.7530  13.7713  13.8887  13.8973  14.1150  14.1475  14.2528  14.2620
    14.3503  14.3602  14.4090  14.4238  14.5358  14.5527  14.6002  14.6254
    14.6933  14.7020  14.8877  14.9080  14.9966  15.0136  15.0844  15.0893
    15.2411  15.2487  15.4375  15.4513  15.6043  15.6136  15.8504  15.8769
    16.0545  16.0724  16.1919  16.2162  16.3357  16.3388  16.3888  16.4131
    16.5862  16.5932  16.6053  16.6181  16.6855  16.7043  16.7825  16.7996
    16.9668  16.9756  17.1319  17.1338  17.2187  17.3107  17.4614  17.4774
    17.5621  17.5788  17.7467  17.7490  17.8901  17.9400  17.9556  18.0002
    18.0817  18.1101  18.3085  18.3480  18.3876  18.3974  18.4408  18.4443
    18.6155  18.6298  18.7426  18.7426  18.8373  18.8376  18.9825  19.0127
    19.1330  19.1556  19.2412  19.2823  19.4271  19.4322  19.5778  19.6120
    19.6801  19.6900  19.7973  19.8127  19.9626  19.9714  20.0998  20.1034
    20.2833  20.3097  20.3303  20.3339  20.4201  20.4638  20.5225  20.5887
    20.7457  20.7573  20.9133  20.9495  20.9876  21.0285  21.2667  21.2971
    21.4212  21.4235  21.5688  21.5920

          k =-0.5000-0.4953 0.0000 ( 31140 PWs)   bands (ev):

   -50.8783 -50.8782 -50.8308 -50.8308 -50.8085 -50.8085 -50.7026 -50.7025
   -50.6424 -50.6424 -50.6080 -50.6080 -50.5969 -50.5969 -50.5300 -50.5299
   -50.5059 -50.5058 -50.4570 -50.4570 -50.3889 -50.3888 -50.2709 -50.2708
   -21.2068 -21.2068 -20.6473 -20.6473 -20.6032 -20.6031 -20.3734 -20.3734
   -20.3691 -20.3690 -20.2657 -20.2657 -20.0383 -20.0383 -19.6571 -19.6571
   -18.7131 -18.7131  -9.4246  -9.4246  -8.7466  -8.7466  -8.7310  -8.7310
    -8.5064  -8.5064  -8.4870  -8.4870  -8.3528  -8.3528  -8.2883  -8.2883
    -8.1552  -8.1552  -8.0748  -8.0748  -7.9645  -7.9645  -7.5225  -7.5225
    -7.0004  -7.0004  -6.7442  -6.7442  -6.6468  -6.6468  -6.4253  -6.4253
    -6.3584  -6.3584  -6.2907  -6.2907  -6.1542  -6.1542  -6.0650  -6.0650
    -5.6954  -5.6953  -4.9889  -4.9889  -4.7668  -4.7668  -4.4798  -4.4797
    -4.1806  -4.1806  -4.1022  -4.1022  -3.5202  -3.5202  -3.2329  -3.2329
    -2.9720  -2.9720  -2.7131  -2.7131  -2.5676  -2.5676  -2.3792  -2.3792
    -2.0911  -2.0911  -2.0614  -2.0614  -1.4754  -1.4754  -1.4262  -1.4261
    -1.2575  -1.2574  -1.1008  -1.1008  -0.9350  -0.9350  -0.8376  -0.8376
     0.1704   0.1705   1.2155   1.2155   1.3623   1.3623   1.7729   1.7729
     2.2015   2.2015   2.8767   2.8767   3.0675   3.0675   3.5431   3.5431
     5.0020   5.0020   5.0988   5.0988   5.5538   5.5538   6.1348   6.1348
     6.1784   6.1784   6.2915   6.2915   6.5118   6.5118   6.7293   6.7293
     6.8317   6.8317   7.0526   7.0526   7.4523   7.4523   7.5428   7.5428
     7.7715   7.7715   8.0129   8.0129   8.4782   8.4782   8.8210   8.8210
     8.9597   8.9598   9.1007   9.1007   9.2022   9.2023   9.2134   9.2134
     9.3087   9.3087   9.3117   9.3117   9.3607   9.3608   9.9005   9.9005
    10.0931  10.0931  10.1995  10.1996  10.3444  10.3444  10.5681  10.5681
    10.9098  10.9098  10.9831  10.9832  11.2490  11.2490  11.7189  11.7189
    11.9578  11.9578  12.1798  12.1798  12.2933  12.2933  12.4988  12.4988
    12.5363  12.5363  12.6674  12.6675  12.8515  12.8515  12.9760  12.9760
    13.0643  13.0644  13.2343  13.2343  13.3952  13.3952  13.4672  13.4672
    13.5337  13.5337  13.5963  13.5963  13.6835  13.6835  13.7202  13.7202
    13.7543  13.7543  13.8549  13.8550  13.9750  13.9750  14.0199  14.0199
    14.0627  14.0627  14.2686  14.2686  14.3272  14.3272  14.4484  14.4484
    14.4967  14.4967  14.6218  14.6218  14.8052  14.8052  15.0616  15.0616
    15.1633  15.1633  15.2479  15.2479  15.3050  15.3050  15.3620  15.3621
    15.4540  15.4540  15.5749  15.5749  15.7480  15.7480  15.8190  15.8190
    15.9345  15.9345  16.0291  16.0291  16.3457  16.3457  16.5051  16.5051
    16.7213  16.7213  16.8514  16.8514  16.9372  16.9372  17.0194  17.0194
    17.1759  17.1759  17.3517  17.3517  17.5633  17.5633  17.7904  17.7904
    18.0863  18.0863  18.1567  18.1568  18.3397  18.3397  18.3771  18.3771
    18.4246  18.4246  18.7425  18.7425  18.9136  18.9136  19.1538  19.1538
    19.3327  19.3327  19.4633  19.4633  19.6364  19.6365  19.7064  19.7065
    20.0994  20.0994  20.1914  20.1914  20.2906  20.2906  20.6127  20.6127
    20.6534  20.6534  20.7213  20.7213  20.7763  20.7763  20.9306  20.9306
    21.0140  21.0140  21.0556  21.0556  21.2490  21.2490  21.3111  21.3111
    21.3405  21.3405  21.4420  21.4421

          k =-0.2500 0.2476 0.0000 ( 31099 PWs)   bands (ev):

   -50.8804 -50.8758 -50.8640 -50.8148 -50.8076 -50.7899 -50.7378 -50.6651
   -50.6479 -50.6384 -50.6329 -50.6102 -50.6056 -50.5589 -50.5390 -50.5307
   -50.5270 -50.4709 -50.4611 -50.4524 -50.3940 -50.3834 -50.2762 -50.2654
   -21.4755 -21.0891 -21.0439 -20.9773 -20.6299 -20.4868 -20.4482 -20.4261
   -20.2998 -20.1939 -20.0908 -20.0097 -19.9017 -19.8685 -19.7401 -19.5661
   -18.7010 -18.6014  -9.9411  -9.7750  -9.7321  -9.3882  -8.9155  -8.9094
    -8.8655  -8.7364  -8.6693  -8.6319  -8.5519  -8.5067  -8.4113  -8.3746
    -8.1183  -8.0721  -7.9928  -7.7649  -7.4745  -7.4301  -7.3354  -7.1676
    -7.1212  -6.8167  -6.6884  -6.5734  -6.4600  -6.3247  -6.2319  -6.2044
    -6.0955  -6.0465  -5.9313  -5.8668  -5.8623  -5.7179  -5.5803  -5.5358
    -5.2949  -5.1946  -5.0529  -4.8706  -4.8658  -4.6603  -4.5917  -4.5381
    -4.3742  -4.2149  -4.1336  -3.7885  -3.7022  -3.4594  -3.3505  -3.2285
    -3.2072  -3.0555  -2.8344  -2.8335  -2.7233  -2.6632  -2.6388  -2.5264
    -2.5243  -2.4223  -2.3659  -2.2181  -2.0964  -2.0276  -1.8208  -1.6105
    -1.2964  -1.1555  -1.1506  -0.9352  -0.9294  -0.6874  -0.5106  -0.3697
    -0.1211   0.0682   0.9695   1.1261   1.5847   1.6621   1.7862   2.1692
     2.3771   2.6599   2.8551   2.8850   3.1749   3.2115   3.3378   3.4215
     3.7705   4.3263   4.7632   5.1744   5.4076   5.5814   5.6880   5.8805
     6.1398   6.2943   6.5453   6.5850   6.6391   6.8266   7.0541   7.0896
     7.2998   7.3772   7.4463   7.6279   7.6809   7.8735   7.9909   8.0702
     8.1599   8.3555   8.4456   8.4476   8.5707   8.7459   8.8104   8.8625
     8.9144   9.0997   9.0998   9.1241   9.1525   9.2049   9.2054   9.2367
     9.3068   9.3102   9.3161   9.3176   9.3323   9.5226   9.6228   9.6918
     9.7421   9.9006  10.0119  10.0923  10.1828  10.3085  10.3098  10.4028
    10.4207  10.4730  10.5811  10.7516  10.8047  10.8216  10.9389  11.0247
    11.0278  11.2323  11.3381  11.4178  11.5438  11.5701  11.6973  11.7400
    11.7901  11.9361  12.0605  12.1366  12.1711  12.2805  12.2910  12.3844
    12.5227  12.5995  12.6216  12.6845  12.7244  12.7927  12.8243  12.9094
    13.0601  13.0913  13.1372  13.2070  13.2860  13.3351  13.4503  13.5823
    13.5849  13.7331  13.8566  13.8704  13.9789  13.9830  14.0533  14.1284
    14.2543  14.3448  14.4067  14.4980  14.5550  14.7405  14.7430  14.8671
    14.8698  15.1890  15.1965  15.3574  15.3600  15.4934  15.5438  15.5702
    15.6190  15.7550  15.7723  15.8251  15.8674  15.9070  15.9781  16.0511
    16.0596  16.1167  16.1497  16.2589  16.3365  16.3628  16.4279  16.4322
    16.5709  16.6491  16.7059  16.7474  16.7898  16.8271  17.0808  17.1465
    17.1877  17.3496  17.3684  17.4415  17.4423  17.4818  17.5649  17.5850
    17.6513  17.7282  17.7342  17.8421  17.9036  17.9221  17.9688  17.9765
    18.1825  18.2256  18.3092  18.3794  18.4543  18.4888  18.5785  18.6146
    18.7789  18.8422  18.9223  18.9450  19.0447  19.1124  19.1309  19.1959
    19.2663  19.2842  19.3497  19.4385  19.5642  19.6099  19.7124  19.7417
    19.8314  19.9220  19.9683  20.0631  20.1156  20.2786  20.3411  20.3429
    20.4437  20.5299  20.5860  20.6277  20.6600  20.7695  20.7974  20.8682
    20.8776  20.9539  21.0088  21.1185  21.1298  21.2743  21.3257  21.3501
    21.3514  21.4258  21.4726  21.5439

     the Fermi energy is    -0.9407 ev

!    total energy              =   -2073.21149956 Ry
     Harris-Foulkes estimate   =   -2073.21149957 Ry
     estimated scf accuracy    <          5.4E-09 Ry

     The total energy is the sum of the following terms:

     one-electron contribution =  -22029.20727868 Ry
     hartree contribution      =   11056.28497856 Ry
     xc contribution           =    -569.32549600 Ry
     ewald contribution        =    9468.25959727 Ry
     Hubbard energy            =       0.77814664 Ry
     smearing contrib. (-TS)   =      -0.00144735 Ry

     convergence has been achieved in  14 iterations

     Forces acting on atoms (Ry/au):


     negative rho (up, down):  0.313E+01 0.000E+00
     atom    1 type  1   force =    -0.00748951   -0.01374412   -0.00007062
     atom    2 type  1   force =     0.00009653    0.00536521   -0.00022476
     atom    3 type  2   force =     0.00002619    0.00497486   -0.00050477
     atom    4 type  2   force =     0.00926308    0.00780447   -0.00039512
     atom    5 type  1   force =    -0.00307712   -0.01637806   -0.00010749
     atom    6 type  1   force =     0.00434757    0.01452786   -0.00004614
     atom    7 type  1   force =    -0.00037741   -0.00165830    0.00082771
     atom    8 type  1   force =    -0.00330157   -0.00048385    0.00004368
     atom    9 type  2   force =     0.00120210    0.00011217   -0.00026409
     atom   10 type  2   force =     0.00000250   -0.00141241   -0.00070107
     atom   11 type  1   force =    -0.00009937    0.01076822    0.00047986
     atom   12 type  1   force =     0.00020433   -0.01030930    0.00049128
     atom   13 type  1   force =    -0.00087633   -0.00011408   -0.00014839
     atom   14 type  1   force =    -0.00749795   -0.01374664   -0.00005717
     atom   15 type  1   force =     0.00010293    0.00536189   -0.00022216
     atom   16 type  2   force =     0.00002712    0.00497483   -0.00050322
     atom   17 type  2   force =     0.00926921    0.00780422   -0.00040312
     atom   18 type  1   force =    -0.00307380   -0.01638036   -0.00010205
     atom   19 type  1   force =     0.00435087    0.01453012   -0.00004022
     atom   20 type  1   force =    -0.00036127   -0.00165837    0.00083174
     atom   21 type  1   force =    -0.00327019   -0.00048397    0.00004747
     atom   22 type  2   force =     0.00120163    0.00011213   -0.00026854
     atom   23 type  2   force =     0.00001575   -0.00141246   -0.00070668
     atom   24 type  1   force =    -0.00009207    0.01077422    0.00047184
     atom   25 type  1   force =     0.00021156   -0.01031530    0.00048320
     atom   26 type  1   force =    -0.00085663   -0.00011399   -0.00015258
     atom   27 type  3   force =     0.00001631    0.00028228    0.00067626
     atom   28 type  3   force =     0.00001693    0.00028522    0.00067437
     atom   29 type  3   force =     0.00000409    0.00026554   -0.00005119
     atom   30 type  3   force =     0.00001451    0.00026796   -0.00005805

     Total force =     0.002381     Total SCF correction =     0.000157

     bfgs converged in   8 scf cycles and   7 bfgs steps
     (criteria: energy < 0.10E-03, force < 0.10E-02)

     End of BFGS Geometry Optimization

     Final energy   =   -2073.2114995626 Ry
Begin final coordinates

ATOMIC_POSITIONS (crystal)
O0       0.000000000   0.000000000   0.378835623    0   0   1
O0       0.000000000   0.500000000   0.401862878    0   0   1
Ir1      0.250000000   0.500000000   0.452436313    0   0   1
Ir1      0.000000000   0.000000000   0.453578635    0   0   1
O0       0.250000000   0.810000000   0.453327452    0   0   1
O0       0.250000000   0.190000000   0.452911456    0   0   1
O0       0.000000000   0.500000000   0.498691620    0   0   1
O0       0.000000000   0.000000000   0.529172983    0   0   1
Ir1      0.250000000   0.000000000   0.576207809    0   0   1
Ir1      0.000000000   0.500000000   0.572046497    0   0   1
O0       0.250000000   0.690000000   0.576470203    0   0   1
O0       0.250000000   0.310000000   0.576505727    0   0   1
O0       0.000000000   0.000000000   0.620824776    0   0   1
O0       0.500000000   0.000000000   0.378835010    0   0   1
O0       0.500000000   0.500000000   0.401862700    0   0   1
Ir1      0.750000000   0.500000000   0.452436180    0   0   1
Ir1      0.500000000   0.000000000   0.453578585    0   0   1
O0       0.750000000   0.810000000   0.453326961    0   0   1
O0       0.750000000   0.190000000   0.452910936    0   0   1
O0       0.500000000   0.500000000   0.498691427    0   0   1
O0       0.500000000   0.000000000   0.529172900    0   0   1
Ir1      0.750000000   0.000000000   0.576208261    0   0   1
Ir1      0.500000000   0.500000000   0.572046722    0   0   1
O0       0.750000000   0.690000000   0.576471440    0   0   1
O0       0.750000000   0.310000000   0.576506947    0   0   1
O0       0.500000000   0.000000000   0.620825143    0   0   1
H2      -0.000138418   0.636153051   0.384045004
H2       0.499861079   0.636153195   0.384045019
H2       0.143512600   0.034149453   0.367267121
H2       0.643512930   0.034149991   0.367267672
End final coordinates



     init_run     :    112.28s CPU    116.05s WALL (       1 calls)
     electrons    :  25470.24s CPU  26180.48s WALL (       8 calls)
     update_pot   :    144.47s CPU    147.75s WALL (       7 calls)
     forces       :   1100.40s CPU   1123.75s WALL (       8 calls)

     Called by init_run:
     wfcinit      :     37.56s CPU     38.77s WALL (       1 calls)
     potinit      :      7.68s CPU      8.08s WALL (       1 calls)

     Called by electrons:
     c_bands      :  13116.35s CPU  13490.28s WALL (     135 calls)
     sum_band     :   5221.29s CPU   5372.95s WALL (     135 calls)
     v_of_rho     :    158.57s CPU    175.50s WALL (     137 calls)
     newd         :   7326.63s CPU   7388.40s WALL (     137 calls)
     mix_rho      :     28.06s CPU     28.64s WALL (     135 calls)

     Called by c_bands:
     init_us_2    :     32.10s CPU     32.49s WALL (     885 calls)
     cegterg      :  12887.92s CPU  13172.63s WALL (     405 calls)

     Called by *egterg:
     h_psi        :   7780.43s CPU   7935.28s WALL (    1091 calls)
     s_psi        :    753.68s CPU    762.95s WALL (    1139 calls)
     g_psi        :     15.94s CPU     16.00s WALL (     683 calls)
     cdiaghg      :    965.82s CPU    968.77s WALL (    1049 calls)

     Called by h_psi:
     add_vuspsi   :    726.71s CPU    736.86s WALL (    1091 calls)
     vhpsi        :    803.29s CPU    814.57s WALL (    1091 calls)

     General routines
     calbec       :   1803.13s CPU   1825.79s WALL (    9568 calls)
     fft          :    214.46s CPU    271.68s WALL (    2279 calls)
     ffts         :      2.56s CPU      2.64s WALL (     272 calls)
     fftw         :   4372.85s CPU   4541.83s WALL (  739166 calls)
     interpolate  :     23.83s CPU     24.10s WALL (     272 calls)
     davcio       :      0.06s CPU     21.44s WALL (     909 calls)

     Parallel routines
     fft_scatter  :   1665.91s CPU   1883.55s WALL (  741717 calls)
     Hubbard U routines
     new_ns       :    161.04s CPU    174.42s WALL (     135 calls)
     vhpsi        :    803.29s CPU    814.57s WALL (    1091 calls)
     force_hub    :    285.94s CPU    293.01s WALL (       8 calls)

     PWSCF        :     7h34m CPU        7h46m WALL


   This run was terminated on:   4: 9:25   6May2014            

=------------------------------------------------------------------------------=
   JOB DONE.
=------------------------------------------------------------------------------=
---------------------------------------
Running PBS batch system epilogue script
Job id: 340761.audhumbla.fysik.dtu.dk
Username: zhonxu
Groupname: campgst
Jobname: IrO2/Eads-2-layers/bare-U-2.0
Sessionid: 7431
Resources limits: neednodes=2:ppn=8:xeon8,nodes=2:ppn=8:xeon8,walltime=48:00:00
Resources used: cput=124:16:27,mem=17677912kb,vmem=21355796kb,walltime=07:46:44
Queuename: verylong
Accounting:
This job has allocated the following 16 nodes:
a039 a039 a039 a039 a039 a039 a039 a039 a007 a007 a007 a007 a007 a007 a007 a007
Finished epilogue job 340761.audhumbla.fysik.dtu.dk for zhonxu
