
     Program PWSCF v.5.0.2 (svn rev. 9656) starts on  1Apr2014 at 13:39:17 

     This program is part of the open-source Quantum ESPRESSO suite
     for quantum simulation of materials; please cite
         "P. Giannozzi et al., J. Phys.:Condens. Matter 21 395502 (2009);
          URL http://www.quantum-espresso.org", 
     in publications or presentations arising from this work. More details at
     http://www.quantum-espresso.org/quote.php

     Parallel version (MPI), running on    16 processors
     R & G space division:  proc/nbgrp/npool/nimage =      16

     Current dimensions of program PWSCF are:
     Max number of different atomic species (ntypx) = 10
     Max number of k-points (npk) =  40000
     Max angular momentum in pseudopotentials (lmaxx) =  3
     Reading input from pwscf.in
Warning: card &CELL ignored
Warning: card / ignored

     Subspace diagonalization in iterative solution of the eigenvalue problem:
     a serial algorithm will be used


     Parallelization info
     --------------------
     sticks:   dense  smooth     PW     G-vecs:    dense   smooth      PW
     Min         333     107     29                80655    14597    2175
     Max         334     108     30                80662    14631    2190
     Sum        5335    1713    477              1290557   233813   34969



     bravais-lattice index     =            0
     lattice parameter (alat)  =      10.1289  a.u.
     unit-cell volume          =    6836.7721 (a.u.)^3
     number of atoms/cell      =           32
     number of atomic types    =            3
     number of electrons       =       239.00
     number of Kohn-Sham states=          358
     kinetic-energy cutoff     =      40.0000  Ry
     charge density cutoff     =     500.0000  Ry
     convergence threshold     =      1.0E-06
     mixing beta               =       0.7000
     number of iterations used =            8  plain     mixing
     Exchange-correlation      = SLA  PW   PBE  PBE ( 1 4 3 4 0)
     EXX-fraction              =        0.00
     nstep                     =           50


     celldm(1)=  10.128932  celldm(2)=   0.000000  celldm(3)=   0.000000
     celldm(4)=   0.000000  celldm(5)=   0.000000  celldm(6)=   0.000000

     crystal axes: (cart. coord. in units of alat)
               a(1) = (   1.000000   0.000000   0.000000 )  
               a(2) = (   0.000000   1.306037   0.000000 )  
               a(3) = (   0.000000   0.000000   5.037380 )  

     reciprocal axes: (cart. coord. in units 2 pi/alat)
               b(1) = (  1.000000  0.000000  0.000000 )  
               b(2) = (  0.000000  0.765675  0.000000 )  
               b(3) = (  0.000000  0.000000  0.198516 )  


     PseudoPot. # 1 for O  read from file:
     /home/camp/zhonxu/pseudo/o_pbe_v1.01.uspp.F.UPF
     MD5 check sum: 2bcb18d16ea4b960afae9ec6d52f22d2
     Pseudo is Ultrasoft + core correction, Zval =  6.0
     Generated by new atomic code, or converted to UPF format
     Using radial grid of  737 points,  5 beta functions with: 
                l(1) =   0
                l(2) =   0
                l(3) =   1
                l(4) =   1
                l(5) =   2
     Q(r) pseudized with  8 coefficients,  rinner =    0.900   0.900   0.900
                                                       0.900   0.900

     PseudoPot. # 2 for Re read from file:
     /home/camp/zhonxu/pseudo/re_pbe_v1.uspp.F.UPF
     MD5 check sum: 6f5a5dcaf9c96c20d0ffdde0de57afc6
     Pseudo is Ultrasoft + core correction, Zval = 15.0
     Generated by new atomic code, or converted to UPF format
     Using radial grid of  981 points,  8 beta functions with: 
                l(1) =   0
                l(2) =   0
                l(3) =   1
                l(4) =   1
                l(5) =   2
                l(6) =   2
                l(7) =   3
                l(8) =   3
     Q(r) pseudized with  8 coefficients,  rinner =    1.000   1.000   1.000
                                                       1.000   1.000   1.000
                                                       1.000

     PseudoPot. # 3 for H  read from file:
     /home/camp/zhonxu/pseudo/h_pbe_v1.uspp.F.UPF
     MD5 check sum: 3408e3ff4ec8b0a4e358431e7e038a48
     Pseudo is Ultrasoft, Zval =  1.0
     Generated by new atomic code, or converted to UPF format
     Using radial grid of  615 points,  2 beta functions with: 
                l(1) =   0
                l(2) =   0
     Q(r) pseudized with  8 coefficients,  rinner =    0.700

     atomic species   valence    mass     pseudopotential
        O0             6.00    15.99940     O ( 1.00)
        Re1           15.00   186.20700     Re( 1.00)
        H2             1.00     1.00794     H ( 1.00)

     Starting magnetic structure 
     atomic species   magnetization
        O0           0.000
        Re1          0.000
        H2           0.000

     No symmetry found



   Cartesian axes

     site n.     atom                  positions (alat units)
         1           O0  tau(   1) = (   0.0000000   0.0000000   1.8688176  )
         2           O0  tau(   2) = (   0.0000000   0.6530184   1.9243296  )
         3           Re1 tau(   3) = (   0.2500000   0.6530184   2.2228951  )
         4           Re1 tau(   4) = (   0.0000000   0.0000000   2.2352367  )
         5           O0  tau(   5) = (   0.2500000   1.0187087   2.2249100  )
         6           O0  tau(   6) = (   0.2500000   0.2873281   2.2250611  )
         7           O0  tau(   7) = (   0.0000000   0.6530184   2.5071041  )
         8           O0  tau(   8) = (   0.0000000   0.0000000   2.5966183  )
         9           Re1 tau(   9) = (   0.2500000   0.0000000   2.8989619  )
        10           Re1 tau(  10) = (   0.0000000   0.6530184   2.8608793  )
        11           O0  tau(  11) = (   0.2500000   0.9403465   2.8908013  )
        12           O0  tau(  12) = (   0.2500000   0.3656903   2.8907005  )
        13           O0  tau(  13) = (   0.0000000   0.0000000   3.1620138  )
        14           O0  tau(  14) = (   0.5000000   0.0000000   1.8688176  )
        15           O0  tau(  15) = (   0.5000000   0.6530184   1.9243296  )
        16           Re1 tau(  16) = (   0.7500000   0.6530184   2.2228951  )
        17           Re1 tau(  17) = (   0.5000000   0.0000000   2.2352367  )
        18           O0  tau(  18) = (   0.7500000   1.0187087   2.2249604  )
        19           O0  tau(  19) = (   0.7500000   0.2873281   2.2250611  )
        20           O0  tau(  20) = (   0.5000000   0.6530184   2.5071041  )
        21           O0  tau(  21) = (   0.5000000   0.0000000   2.5966183  )
        22           Re1 tau(  22) = (   0.7500000   0.0000000   2.8989619  )
        23           Re1 tau(  23) = (   0.5000000   0.6530184   2.8609296  )
        24           O0  tau(  24) = (   0.7500000   0.9403465   2.8908013  )
        25           O0  tau(  25) = (   0.7500000   0.3656903   2.8907005  )
        26           O0  tau(  26) = (   0.5000000   0.0000000   3.1620138  )
        27           H2  tau(  27) = (  -0.0003800   0.8172395   1.8403061  )
        28           H2  tau(  28) = (   0.4996200   0.8172395   1.8403061  )
        29           H2  tau(  29) = (   0.1698700   0.0284977   1.7974380  )
        30           H2  tau(  30) = (   0.6698800   0.0284977   1.7974380  )
        31           O0  tau(  31) = (   0.5278000   0.6525743   3.2236210  )
        32           H2  tau(  32) = (   0.3823300   0.6524568   3.3343426  )

     number of k points=    20  Methfessel-Paxton smearing, width (Ry)=  0.0100
                       cart. coord. in units 2pi/alat
        k(    1) = (   0.0000000   0.0000000   0.0000000), wk =   0.0625000
        k(    2) = (   0.0000000   0.1914188   0.0000000), wk =   0.1250000
        k(    3) = (   0.0000000  -0.3828376   0.0000000), wk =   0.0625000
        k(    4) = (   0.2500000   0.0000000   0.0000000), wk =   0.1250000
        k(    5) = (   0.2500000   0.1914188   0.0000000), wk =   0.1250000
        k(    6) = (   0.2500000  -0.3828376   0.0000000), wk =   0.1250000
        k(    7) = (  -0.5000000   0.0000000   0.0000000), wk =   0.0625000
        k(    8) = (  -0.5000000   0.1914188   0.0000000), wk =   0.1250000
        k(    9) = (  -0.5000000  -0.3828376   0.0000000), wk =   0.0625000
        k(   10) = (  -0.2500000   0.1914188   0.0000000), wk =   0.1250000
        k(   11) = (   0.0000000   0.0000000   0.0000000), wk =   0.0625000
        k(   12) = (   0.0000000   0.1914188   0.0000000), wk =   0.1250000
        k(   13) = (   0.0000000  -0.3828376   0.0000000), wk =   0.0625000
        k(   14) = (   0.2500000   0.0000000   0.0000000), wk =   0.1250000
        k(   15) = (   0.2500000   0.1914188   0.0000000), wk =   0.1250000
        k(   16) = (   0.2500000  -0.3828376   0.0000000), wk =   0.1250000
        k(   17) = (  -0.5000000   0.0000000   0.0000000), wk =   0.0625000
        k(   18) = (  -0.5000000   0.1914188   0.0000000), wk =   0.1250000
        k(   19) = (  -0.5000000  -0.3828376   0.0000000), wk =   0.0625000
        k(   20) = (  -0.2500000   0.1914188   0.0000000), wk =   0.1250000

     Dense  grid:  1290557 G-vectors     FFT dimensions: (  75,  96, 375)

     Smooth grid:   233813 G-vectors     FFT dimensions: (  45,  54, 216)

     Largest allocated arrays     est. size (Mb)     dimensions
        Kohn-Sham Wavefunctions        10.12 Mb     (   1853,  358)
        NL pseudopotentials            14.50 Mb     (   1853,  513)
        Each V/rho on FFT grid          5.27 Mb     ( 172800,   2)
        Each G-vector array             0.62 Mb     (  80661)
        G-vector shells                 0.30 Mb     (  39292)
     Largest temporary arrays     est. size (Mb)     dimensions
        Auxiliary wavefunctions        40.49 Mb     (   1853, 1432)
        Each subspace H/S matrix       31.29 Mb     (1432,1432)
        Each <psi_i|beta_j> matrix      2.80 Mb     (    513,  358)
        Arrays for rho mixing          21.09 Mb     ( 172800,   8)

     Check: negative/imaginary core charge=   -0.000003    0.000000

     Initial potential from superposition of free atoms
     Check: negative starting charge=(component1):   -0.118502
     Check: negative starting charge=(component2):   -0.118502

     starting charge  234.99957, renormalised to  239.00000

     negative rho (up, down):  0.121E+00 0.121E+00
     Starting wfc are  185 randomized atomic wfcs

     total cpu time spent up to now is      147.1 secs

     per-process dynamical memory:   356.7 Mb

     Self-consistent Calculation

     iteration #  1     ecut=    40.00 Ry     beta=0.70
     Davidson diagonalization with overlap
     ethr =  1.00E-02,  avg # of iterations =  6.2

     negative rho (up, down):  0.143E+00 0.143E+00

     total cpu time spent up to now is     1285.4 secs

     total energy              =   -2169.64071918 Ry
     Harris-Foulkes estimate   =   -2178.19330212 Ry
     estimated scf accuracy    <      10.33315920 Ry

     total magnetization       =    -0.00 Bohr mag/cell
     absolute magnetization    =     0.00 Bohr mag/cell

     iteration #  2     ecut=    40.00 Ry     beta=0.70
     Davidson diagonalization with overlap
     ethr =  4.32E-03,  avg # of iterations =  5.0

     negative rho (up, down):  0.142E+00 0.142E+00

     total cpu time spent up to now is     2150.5 secs

     total energy              =   -2113.56327577 Ry
     Harris-Foulkes estimate   =   -2244.28362644 Ry
     estimated scf accuracy    <    1836.30757214 Ry

     total magnetization       =     0.00 Bohr mag/cell
     absolute magnetization    =     0.00 Bohr mag/cell

     iteration #  3     ecut=    40.00 Ry     beta=0.70
     Davidson diagonalization with overlap
     ethr =  4.32E-03,  avg # of iterations =  5.0

     negative rho (up, down):  0.120E+00 0.120E+00

     total cpu time spent up to now is     3109.9 secs

     total energy              =   -2166.57949846 Ry
     Harris-Foulkes estimate   =   -2184.24388511 Ry
     estimated scf accuracy    <     170.92421135 Ry

     total magnetization       =     0.00 Bohr mag/cell
     absolute magnetization    =     0.00 Bohr mag/cell

     iteration #  4     ecut=    40.00 Ry     beta=0.70
     Davidson diagonalization with overlap
     ethr =  4.32E-03,  avg # of iterations =  3.1

     negative rho (up, down):  0.118E+00 0.118E+00

     total cpu time spent up to now is     3572.6 secs

     total energy              =   -2175.76598190 Ry
     Harris-Foulkes estimate   =   -2177.53519945 Ry
     estimated scf accuracy    <       8.55193685 Ry

     total magnetization       =     0.00 Bohr mag/cell
     absolute magnetization    =     0.00 Bohr mag/cell

     iteration #  5     ecut=    40.00 Ry     beta=0.70
     Davidson diagonalization with overlap
     ethr =  3.58E-03,  avg # of iterations =  1.6

     negative rho (up, down):  0.118E+00 0.118E+00

     total cpu time spent up to now is     3960.6 secs

     total energy              =   -2176.51427546 Ry
     Harris-Foulkes estimate   =   -2176.79088572 Ry
     estimated scf accuracy    <       2.47215350 Ry

     total magnetization       =     0.00 Bohr mag/cell
     absolute magnetization    =     0.00 Bohr mag/cell

     iteration #  6     ecut=    40.00 Ry     beta=0.70
     Davidson diagonalization with overlap
     ethr =  1.03E-03,  avg # of iterations =  2.9

     negative rho (up, down):  0.118E+00 0.118E+00

     total cpu time spent up to now is     4383.8 secs

     total energy              =   -2176.55278066 Ry
     Harris-Foulkes estimate   =   -2176.68571513 Ry
     estimated scf accuracy    <       0.94202601 Ry

     total magnetization       =     0.00 Bohr mag/cell
     absolute magnetization    =     0.00 Bohr mag/cell

     iteration #  7     ecut=    40.00 Ry     beta=0.70
     Davidson diagonalization with overlap
     ethr =  3.94E-04,  avg # of iterations =  3.7

     negative rho (up, down):  0.119E+00 0.119E+00

     total cpu time spent up to now is     4825.1 secs

     total energy              =   -2176.54344089 Ry
     Harris-Foulkes estimate   =   -2176.62801001 Ry
     estimated scf accuracy    <       0.58468102 Ry

     total magnetization       =     0.00 Bohr mag/cell
     absolute magnetization    =     0.00 Bohr mag/cell

     iteration #  8     ecut=    40.00 Ry     beta=0.70
     Davidson diagonalization with overlap
     ethr =  2.45E-04,  avg # of iterations =  3.0

     negative rho (up, down):  0.120E+00 0.120E+00

     total cpu time spent up to now is     5251.0 secs

     total energy              =   -2176.51977422 Ry
     Harris-Foulkes estimate   =   -2176.63254024 Ry
     estimated scf accuracy    <       0.89938640 Ry

     total magnetization       =     0.00 Bohr mag/cell
     absolute magnetization    =     0.00 Bohr mag/cell

     iteration #  9     ecut=    40.00 Ry     beta=0.70
     Davidson diagonalization with overlap
     ethr =  2.45E-04,  avg # of iterations =  1.0

     negative rho (up, down):  0.121E+00 0.121E+00

     total cpu time spent up to now is     5629.1 secs

     total energy              =   -2176.53710142 Ry
     Harris-Foulkes estimate   =   -2176.60417430 Ry
     estimated scf accuracy    <       0.86341774 Ry

     total magnetization       =     0.00 Bohr mag/cell
     absolute magnetization    =     0.00 Bohr mag/cell

     iteration # 10     ecut=    40.00 Ry     beta=0.70
     Davidson diagonalization with overlap
     ethr =  2.45E-04,  avg # of iterations =  2.5

     negative rho (up, down):  0.122E+00 0.122E+00

     total cpu time spent up to now is     6046.6 secs

     total energy              =   -2176.53236217 Ry
     Harris-Foulkes estimate   =   -2176.56513343 Ry
     estimated scf accuracy    <       0.14784059 Ry

     total magnetization       =     0.00 Bohr mag/cell
     absolute magnetization    =     0.00 Bohr mag/cell

     iteration # 11     ecut=    40.00 Ry     beta=0.70
     Davidson diagonalization with overlap
     ethr =  6.19E-05,  avg # of iterations =  5.5

     negative rho (up, down):  0.123E+00 0.123E+00

     total cpu time spent up to now is     6588.2 secs

     total energy              =   -2176.53621148 Ry
     Harris-Foulkes estimate   =   -2176.55094499 Ry
     estimated scf accuracy    <       0.05840358 Ry

     total magnetization       =     0.00 Bohr mag/cell
     absolute magnetization    =     0.00 Bohr mag/cell

     iteration # 12     ecut=    40.00 Ry     beta=0.70
     Davidson diagonalization with overlap
     ethr =  2.44E-05,  avg # of iterations =  3.5

     negative rho (up, down):  0.123E+00 0.123E+00

     total cpu time spent up to now is     7047.5 secs

     total energy              =   -2176.53389977 Ry
     Harris-Foulkes estimate   =   -2176.55258831 Ry
     estimated scf accuracy    <       0.20287489 Ry

     total magnetization       =     0.00 Bohr mag/cell
     absolute magnetization    =     0.00 Bohr mag/cell

     iteration # 13     ecut=    40.00 Ry     beta=0.70
     Davidson diagonalization with overlap
     ethr =  2.44E-05,  avg # of iterations =  3.4

     negative rho (up, down):  0.123E+00 0.123E+00

     total cpu time spent up to now is     7508.8 secs

     total energy              =   -2176.54055462 Ry
     Harris-Foulkes estimate   =   -2176.54769883 Ry
     estimated scf accuracy    <       0.08722317 Ry

     total magnetization       =     0.00 Bohr mag/cell
     absolute magnetization    =     0.00 Bohr mag/cell

     iteration # 14     ecut=    40.00 Ry     beta=0.70
     Davidson diagonalization with overlap
     ethr =  2.44E-05,  avg # of iterations =  3.6

     negative rho (up, down):  0.123E+00 0.123E+00

     total cpu time spent up to now is     7983.0 secs

     total energy              =   -2176.54238329 Ry
     Harris-Foulkes estimate   =   -2176.54642105 Ry
     estimated scf accuracy    <       0.02772717 Ry

     total magnetization       =     0.00 Bohr mag/cell
     absolute magnetization    =     0.00 Bohr mag/cell

     iteration # 15     ecut=    40.00 Ry     beta=0.70
     Davidson diagonalization with overlap
     ethr =  1.16E-05,  avg # of iterations =  2.9

     negative rho (up, down):  0.123E+00 0.123E+00

     total cpu time spent up to now is     8417.7 secs

     total energy              =   -2176.54372981 Ry
     Harris-Foulkes estimate   =   -2176.54570286 Ry
     estimated scf accuracy    <       0.01303508 Ry

     total magnetization       =     0.00 Bohr mag/cell
     absolute magnetization    =     0.00 Bohr mag/cell

     iteration # 16     ecut=    40.00 Ry     beta=0.70
     Davidson diagonalization with overlap
     ethr =  5.45E-06,  avg # of iterations =  3.3

     negative rho (up, down):  0.123E+00 0.123E+00

     total cpu time spent up to now is     8859.4 secs

     total energy              =   -2176.54442384 Ry
     Harris-Foulkes estimate   =   -2176.54505390 Ry
     estimated scf accuracy    <       0.00455252 Ry

     total magnetization       =     0.00 Bohr mag/cell
     absolute magnetization    =     0.00 Bohr mag/cell

     iteration # 17     ecut=    40.00 Ry     beta=0.70
     Davidson diagonalization with overlap
     ethr =  1.90E-06,  avg # of iterations =  3.3

     negative rho (up, down):  0.123E+00 0.123E+00

     total cpu time spent up to now is     9291.3 secs

     total energy              =   -2176.54469410 Ry
     Harris-Foulkes estimate   =   -2176.54489193 Ry
     estimated scf accuracy    <       0.00157258 Ry

     total magnetization       =     0.00 Bohr mag/cell
     absolute magnetization    =     0.00 Bohr mag/cell

     iteration # 18     ecut=    40.00 Ry     beta=0.70
     Davidson diagonalization with overlap
     ethr =  6.58E-07,  avg # of iterations =  1.0

     negative rho (up, down):  0.123E+00 0.123E+00

     total cpu time spent up to now is     9662.1 secs

     total energy              =   -2176.54476818 Ry
     Harris-Foulkes estimate   =   -2176.54482442 Ry
     estimated scf accuracy    <       0.00023257 Ry

     total magnetization       =     0.00 Bohr mag/cell
     absolute magnetization    =     0.00 Bohr mag/cell

     iteration # 19     ecut=    40.00 Ry     beta=0.70
     Davidson diagonalization with overlap
     ethr =  9.73E-08,  avg # of iterations =  1.0

     negative rho (up, down):  0.123E+00 0.123E+00

     total cpu time spent up to now is    10033.5 secs

     total energy              =   -2176.54478906 Ry
     Harris-Foulkes estimate   =   -2176.54481172 Ry
     estimated scf accuracy    <       0.00011430 Ry

     total magnetization       =     0.00 Bohr mag/cell
     absolute magnetization    =     0.00 Bohr mag/cell

     iteration # 20     ecut=    40.00 Ry     beta=0.70
     Davidson diagonalization with overlap
     ethr =  4.78E-08,  avg # of iterations =  1.0

     negative rho (up, down):  0.123E+00 0.123E+00

     total cpu time spent up to now is    10404.6 secs

     total energy              =   -2176.54478789 Ry
     Harris-Foulkes estimate   =   -2176.54481423 Ry
     estimated scf accuracy    <       0.00017292 Ry

     total magnetization       =     0.00 Bohr mag/cell
     absolute magnetization    =     0.00 Bohr mag/cell

     iteration # 21     ecut=    40.00 Ry     beta=0.70
     Davidson diagonalization with overlap
     ethr =  4.78E-08,  avg # of iterations =  1.0

     negative rho (up, down):  0.123E+00 0.123E+00

     total cpu time spent up to now is    10774.9 secs

     total energy              =   -2176.54480070 Ry
     Harris-Foulkes estimate   =   -2176.54480351 Ry
     estimated scf accuracy    <       0.00001371 Ry

     total magnetization       =     0.00 Bohr mag/cell
     absolute magnetization    =     0.00 Bohr mag/cell

     iteration # 22     ecut=    40.00 Ry     beta=0.70
     Davidson diagonalization with overlap
     ethr =  5.74E-09,  avg # of iterations =  1.0

     negative rho (up, down):  0.123E+00 0.123E+00

     total cpu time spent up to now is    11154.9 secs

     total energy              =   -2176.54480159 Ry
     Harris-Foulkes estimate   =   -2176.54480287 Ry
     estimated scf accuracy    <       0.00000672 Ry

     total magnetization       =     0.00 Bohr mag/cell
     absolute magnetization    =     0.00 Bohr mag/cell

     iteration # 23     ecut=    40.00 Ry     beta=0.70
     Davidson diagonalization with overlap
     ethr =  2.81E-09,  avg # of iterations =  1.0

     negative rho (up, down):  0.123E+00 0.123E+00

     total cpu time spent up to now is    11530.9 secs

     total energy              =   -2176.54480081 Ry
     Harris-Foulkes estimate   =   -2176.54480367 Ry
     estimated scf accuracy    <       0.00005190 Ry

     total magnetization       =     0.00 Bohr mag/cell
     absolute magnetization    =     0.00 Bohr mag/cell

     iteration # 24     ecut=    40.00 Ry     beta=0.70
     Davidson diagonalization with overlap
     ethr =  2.81E-09,  avg # of iterations =  1.0

     negative rho (up, down):  0.123E+00 0.123E+00

     total cpu time spent up to now is    11909.9 secs

     total energy              =   -2176.54480211 Ry
     Harris-Foulkes estimate   =   -2176.54480268 Ry
     estimated scf accuracy    <       0.00000807 Ry

     total magnetization       =     0.00 Bohr mag/cell
     absolute magnetization    =     0.00 Bohr mag/cell

     iteration # 25     ecut=    40.00 Ry     beta=0.70
     Davidson diagonalization with overlap
     ethr =  2.81E-09,  avg # of iterations =  1.0

     negative rho (up, down):  0.123E+00 0.123E+00

     total cpu time spent up to now is    12288.7 secs

     End of self-consistent calculation

 ------ SPIN UP ------------


          k = 0.0000 0.0000 0.0000 ( 29221 PWs)   bands (ev):

   -81.5239 -81.4630 -81.4256 -81.2815 -81.2248 -81.0741 -81.0574 -81.0018
   -43.7350 -43.5433 -43.4946 -43.4274 -43.4161 -43.3699 -43.3426 -43.3243
   -43.3049 -43.2816 -43.2535 -43.1743 -43.1093 -43.0630 -43.0271 -42.9626
   -42.9502 -42.9424 -42.9171 -42.8663 -42.8578 -42.6532 -42.5810 -42.4294
   -21.1151 -20.5841 -20.4782 -20.4527 -20.1696 -19.8288 -19.7880 -19.5522
   -19.4861 -19.4484 -19.3750 -19.3057 -19.2451 -19.2313 -19.1603 -18.9424
   -18.7486 -18.2417 -17.9056  -9.5193  -9.3894  -9.2329  -8.7271  -8.6826
    -8.2743  -8.1833  -8.0184  -7.9383  -7.7646  -7.6579  -7.5745  -7.4405
    -7.3295  -7.2798  -7.1716  -7.0063  -6.9157  -6.8930  -6.8001  -6.5338
    -6.4437  -6.1689  -6.0161  -5.6571  -5.5916  -5.5055  -5.4462  -5.3474
    -5.2406  -5.0840  -5.0594  -4.9426  -4.7992  -4.7891  -4.7212  -4.4586
    -4.4252  -4.3935  -4.1881  -4.1352  -4.0379  -3.9450  -3.6834  -3.6399
    -3.4449  -3.4336  -3.3432  -3.2718  -3.2554  -3.1515  -3.1311  -3.0765
    -2.9656  -2.8406  -2.7795  -2.6641  -2.5240  -2.4553  -2.1727  -1.0562
    -0.7187  -0.5812  -0.1749  -0.1640   0.0490   0.3614   0.5264   0.5386
     0.6722   0.7521   0.9843   1.0995   1.2420   1.3104   1.4639   1.8909
     2.6536   3.0305   3.0855   3.1695   3.3613   3.4383   3.5076   3.6274
     4.0622   4.0984   4.2076   4.5419   4.5492   4.5709   4.7578   4.8135
     4.8734   4.9361   4.9940   5.0779   5.2776   5.3942   5.4729   6.0135
     6.2078   6.3342   6.6383   6.9255   7.4173   7.6019   7.6859   7.8866
     7.9268   8.0611   8.1271   8.1965   8.2934   8.3826   8.5814   8.6854
     8.7696   8.8689   8.9528   9.0067   9.1003   9.1478   9.2425   9.3140
     9.5113   9.6236   9.7278   9.7871   9.8273   9.9138  10.0539  10.1332
    10.2291  10.2849  10.4764  10.5153  10.5403  10.7048  10.7942  10.9358
    11.0657  11.1920  11.2330  11.3160  11.4364  11.5082  11.6668  11.6830
    11.8709  11.9291  12.0132  12.0522  12.1570  12.2494  12.4353  12.5320
    12.6530  12.7572  12.8380  12.9313  13.0079  13.1056  13.1127  13.1177
    13.1758  13.1864  13.2863  13.3223  13.3525  13.4303  13.4633  13.4760
    13.5482  13.6317  13.7180  13.8863  13.9049  13.9799  14.0330  14.0657
    14.1210  14.1347  14.2013  14.2923  14.3203  14.3493  14.4831  14.6029
    14.7066  14.7948  14.9210  14.9604  15.0333  15.0823  15.1210  15.1659
    15.3161  15.3857  15.4526  15.5383  15.5624  15.7041  15.7558  15.9004
    15.9400  16.0042  16.1018  16.1437  16.2639  16.3010  16.5197  16.5874
    16.6489  16.7249  16.8369  16.8753  16.9633  17.0359  17.1604  17.1856
    17.2235  17.2628  17.3773  17.5048  17.5402  17.5823  17.6145  17.6780
    17.8284  17.9222  18.0205  18.1057  18.1781  18.3086  18.3528  18.4105
    18.5418  18.6333  18.7300  18.8393  18.9045  18.9668  19.0016  19.0348
    19.1372  19.2047  19.2394  19.2915  19.3963  19.4557  19.6678  19.6902
    19.7557  19.8173  19.9656  20.0097  20.0774  20.1446  20.2181  20.2569
    20.4637  20.4769  20.5779  20.6125  20.6679  20.7662  20.7818  20.9027
    20.9758  21.0905  21.1662  21.2292  21.2787  21.4767  21.5005  21.5269
    21.5863  21.7271  21.8233  21.8736  21.9671  21.9720  22.0319  22.1119
    22.1692  22.2108  22.2488  22.2996  22.3832  22.3959  22.4599  22.4826
    22.5280  22.6041  22.6053  22.6512  22.6995  22.7323  22.8437  22.8796
    22.8956  22.9983  23.0626  23.0900  23.1404  23.1792

          k = 0.0000 0.1914 0.0000 ( 29141 PWs)   bands (ev):

   -81.5239 -81.4630 -81.4256 -81.2815 -81.2248 -81.0741 -81.0574 -81.0018
   -43.7352 -43.5434 -43.4952 -43.4259 -43.4161 -43.3654 -43.3426 -43.3243
   -43.3070 -43.2794 -43.2572 -43.1736 -43.1093 -43.0630 -43.0271 -42.9625
   -42.9510 -42.9441 -42.9171 -42.8663 -42.8575 -42.6531 -42.5811 -42.4294
   -21.0709 -20.4987 -20.4594 -20.3741 -20.1534 -19.8299 -19.8173 -19.7780
   -19.7253 -19.5358 -19.3962 -19.3739 -19.3063 -18.9957 -18.9470 -18.9170
   -18.7469 -18.2376 -17.9056  -9.3457  -8.9886  -8.9235  -8.7813  -8.6900
    -8.3176  -8.2510  -8.2030  -8.1921  -8.1814  -8.1712  -7.9212  -7.5507
    -7.4849  -7.2680  -7.1497  -6.8471  -6.4769  -6.4570  -6.3132  -6.2649
    -6.1127  -6.0667  -6.0004  -5.8485  -5.6964  -5.6724  -5.5303  -5.4783
    -5.4681  -5.3536  -5.0926  -5.0542  -4.8513  -4.8219  -4.6672  -4.4658
    -4.3542  -4.3178  -4.2668  -4.1085  -3.9862  -3.9203  -3.6345  -3.5711
    -3.5365  -3.4687  -3.3855  -3.2612  -3.2319  -3.1390  -3.0169  -2.8999
    -2.8164  -2.7705  -2.6773  -2.6513  -2.5455  -2.4582  -2.2237  -1.1609
    -1.0584  -1.0186  -0.8167  -0.0937   0.0759   0.6729   0.8435   0.8973
     0.9844   1.0328   1.1052   1.1128   1.2574   1.3054   1.4210   1.6813
     2.4184   3.2025   3.2849   3.3190   3.3768   3.4010   3.4694   3.7209
     3.7564   3.9990   4.0727   4.2171   4.2303   4.2523   4.2801   4.5067
     4.8525   5.0786   5.0996   5.3290   5.5627   5.8045   6.1537   6.2619
     6.4553   6.5823   6.5924   6.7478   6.8659   7.0465   7.2486   7.5369
     7.6491   7.7886   7.9912   8.1854   8.2577   8.3761   8.6719   8.7924
     8.9676   9.1009   9.1687   9.2663   9.2982   9.4941   9.5676   9.6362
     9.7064   9.8617   9.9187   9.9852  10.0429  10.0642  10.2971  10.3313
    10.4687  10.5055  10.5963  10.6545  10.7548  10.8193  10.9067  11.0787
    11.1684  11.2187  11.3004  11.3610  11.4675  11.4967  11.6334  11.7048
    11.7428  11.8683  11.9205  11.9293  12.0272  12.1620  12.1958  12.2866
    12.3445  12.3719  12.4507  12.4890  12.5328  12.6606  12.7102  12.8912
    12.9943  13.0374  13.1322  13.2517  13.3362  13.3627  13.4649  13.5874
    13.6666  13.6821  13.7739  13.8101  13.8744  13.9582  14.0480  14.1387
    14.1789  14.2625  14.3750  14.4538  14.5031  14.5934  14.6379  14.6752
    14.7480  14.8292  14.8700  14.9101  14.9569  15.0106  15.1086  15.1831
    15.2831  15.3308  15.4026  15.4936  15.5645  15.6427  15.7060  15.7428
    15.8292  15.8561  15.9154  15.9279  15.9815  16.1945  16.3408  16.4149
    16.5537  16.6537  16.7028  16.8698  16.9224  16.9743  17.0825  17.1414
    17.1813  17.2723  17.3377  17.4031  17.4480  17.6315  17.7384  17.8166
    17.9682  18.0888  18.1569  18.2591  18.3017  18.3895  18.5457  18.6304
    18.7195  18.7389  18.8331  18.9082  18.9834  19.0502  19.0626  19.0974
    19.2175  19.2798  19.3153  19.4110  19.4639  19.5997  19.6169  19.6463
    19.6784  19.7382  19.7833  19.9015  19.9759  20.0654  20.1207  20.2051
    20.2667  20.3036  20.3737  20.4196  20.5067  20.5230  20.5697  20.6915
    20.7889  20.8777  20.9103  20.9959  21.0353  21.0834  21.1680  21.2021
    21.3662  21.4455  21.5159  21.5583  21.6058  21.6535  21.7110  21.7780
    21.8996  21.9611  22.0128  22.1734  22.1952  22.2525  22.3033  22.4044
    22.4531  22.5068  22.5936  22.6253  22.6513  22.7242  22.7602  22.8402
    22.9147  22.9331  23.0495  23.1158  23.2581  23.2995

          k = 0.0000-0.3828 0.0000 ( 29262 PWs)   bands (ev):

   -81.5239 -81.4630 -81.4256 -81.2815 -81.2248 -81.0741 -81.0574 -81.0018
   -43.7354 -43.5436 -43.4958 -43.4244 -43.4161 -43.3607 -43.3427 -43.3243
   -43.3089 -43.2775 -43.2613 -43.1730 -43.1094 -43.0631 -43.0271 -42.9626
   -42.9518 -42.9459 -42.9171 -42.8663 -42.8572 -42.6531 -42.5812 -42.4294
   -21.0292 -20.4603 -20.3642 -20.3131 -19.9548 -19.9356 -19.9200 -19.8586
   -19.7902 -19.6802 -19.6240 -19.3902 -19.3747 -18.9360 -18.8225 -18.7444
   -18.7369 -18.2346 -17.9056  -9.3120  -8.8552  -8.7132  -8.6760  -8.6390
    -8.4056  -8.3770  -8.2899  -8.2389  -8.1721  -8.1071  -7.8157  -7.5698
    -7.4290  -7.1963  -7.1862  -7.1462  -6.9788  -6.7625  -6.6928  -6.3644
    -6.0877  -5.7880  -5.7630  -5.7334  -5.5641  -5.5303  -5.4938  -5.3860
    -5.2439  -5.2102  -5.0877  -5.0798  -5.0543  -4.7613  -4.6306  -4.6007
    -4.4332  -4.4258  -4.2012  -3.9917  -3.7680  -3.7174  -3.6880  -3.6697
    -3.6468  -3.5815  -3.5083  -3.2990  -3.2835  -3.1539  -3.0424  -2.7472
    -2.6960  -2.6842  -2.5782  -2.5201  -2.4614  -2.3696  -2.3456  -1.4621
    -1.3453  -1.3242  -1.0456  -0.1483   0.5164   0.6577   0.8080   0.9139
     0.9338   1.2338   1.2621   1.2852   1.4511   1.5374   1.6119   1.6583
     2.1577   2.7278   2.7898   3.3251   3.3876   3.4607   3.5856   3.6410
     3.7877   3.8475   4.0021   4.0775   4.1908   4.3441   4.7297   4.8147
     4.8458   5.0819   5.1778   5.3338   5.6271   5.7536   6.0257   6.1626
     6.4079   6.5698   6.6223   6.7318   6.9773   7.0975   7.1236   7.1376
     7.3680   7.6681   7.6786   8.0332   8.4197   8.6039   8.6999   8.7106
     8.7827   8.9659   9.2431   9.3912   9.4425   9.5060   9.8607   9.9245
     9.9589  10.0196  10.2623  10.3227  10.3869  10.5128  10.6163  10.7788
    10.8245  10.8437  10.8793  10.9731  11.0036  11.0518  11.1640  11.2095
    11.2902  11.3891  11.4128  11.4703  11.4882  11.5015  11.5399  11.5631
    11.6256  11.7425  11.7784  11.8351  11.8908  11.9236  12.0253  12.0561
    12.1589  12.2148  12.3041  12.3642  12.4053  12.4267  12.4954  12.5563
    12.6297  12.7803  12.9688  13.0121  13.0477  13.0967  13.1730  13.4128
    13.4701  13.5218  13.5851  13.6465  13.6970  13.7333  13.8446  13.8611
    13.9935  14.0757  14.0868  14.1905  14.2508  14.2619  14.3653  14.4421
    14.4903  14.7095  14.7900  14.9200  14.9509  15.1006  15.1555  15.4160
    15.4716  15.5334  15.6088  15.7135  15.8542  15.9565  15.9810  16.1296
    16.1844  16.3218  16.4306  16.5026  16.6020  16.6344  16.7406  16.7680
    16.8239  16.9009  16.9451  17.0187  17.0513  17.1207  17.1459  17.2055
    17.2948  17.3794  17.4256  17.4925  17.5369  17.5895  17.6283  17.6540
    17.7328  17.8075  17.8298  17.8542  17.9064  17.9939  18.0957  18.1604
    18.3284  18.3444  18.4598  18.5427  18.5609  18.6260  18.6593  18.8042
    18.8303  18.8498  18.9622  19.0778  19.0975  19.1206  19.1605  19.2953
    19.4819  19.6852  19.7566  19.8304  19.9191  19.9657  20.0178  20.0200
    20.1074  20.1988  20.2606  20.3042  20.3592  20.4904  20.5761  20.7090
    20.8085  20.8471  20.8615  20.9358  21.0349  21.2089  21.2655  21.3195
    21.3596  21.4049  21.5097  21.5927  21.6097  21.8256  21.9314  22.0470
    22.1138  22.2033  22.2115  22.2509  22.2902  22.3791  22.5514  22.6325
    22.7119  22.7777  22.8498  22.8814  22.9405  22.9978  23.0346  23.1627
    23.2073  23.2428  23.2595  23.3720  23.4266  23.4704

          k = 0.2500 0.0000 0.0000 ( 29190 PWs)   bands (ev):

   -81.5169 -81.4701 -81.4245 -81.2735 -81.2329 -81.0752 -81.0493 -81.0100
   -43.6139 -43.4201 -43.4073 -43.4041 -43.3843 -43.3624 -43.3359 -43.3347
   -43.3025 -43.2434 -43.1871 -43.1856 -43.0886 -43.0511 -43.0215 -42.9995
   -42.9843 -42.9557 -42.9374 -42.9301 -42.8703 -42.7892 -42.7070 -42.5634
   -20.9521 -20.4667 -20.4496 -20.3123 -20.1495 -19.9726 -19.7055 -19.5593
   -19.4907 -19.4406 -19.4010 -19.3616 -19.3218 -19.2694 -19.1946 -18.9398
   -18.8472 -18.2465 -18.0247  -9.1572  -9.0530  -8.9536  -8.7050  -8.3857
    -8.1380  -8.0433  -7.9492  -7.7916  -7.6851  -7.6306  -7.5440  -7.4491
    -7.3959  -7.3739  -7.0889  -6.9344  -6.6943  -6.6092  -6.5448  -6.4693
    -6.3919  -6.3460  -6.1653  -6.1195  -5.7917  -5.6882  -5.6526  -5.5124
    -5.2162  -5.1765  -4.9560  -4.8390  -4.7488  -4.6429  -4.5610  -4.5117
    -4.4688  -4.4103  -4.4000  -4.2630  -4.2176  -4.0275  -3.9731  -3.8953
    -3.7264  -3.6456  -3.5288  -3.3921  -3.2897  -3.2349  -3.0670  -2.9332
    -2.8223  -2.7287  -2.6046  -2.4882  -2.3763  -2.1770  -1.9334  -0.7773
    -0.6960  -0.5189  -0.3390  -0.1675  -0.1006   0.2448   0.3625   0.5383
     0.5844   0.6312   0.9151   1.1797   1.1976   1.4101   1.4322   1.4844
     1.6737   1.7943   1.9509   2.0719   2.5248   3.4540   3.6431   3.9637
     4.0644   4.2756   4.3417   4.4156   4.4544   4.7001   4.7591   4.7875
     4.9394   4.9806   5.1354   5.1972   5.3696   5.6973   5.8097   6.2141
     6.3057   6.5152   6.6887   7.0025   7.1314   7.5895   7.6492   7.7303
     8.0157   8.0568   8.1656   8.2341   8.3054   8.3973   8.4226   8.5508
     8.6580   8.7673   8.9038   8.9814   9.0649   9.1598   9.2505   9.3803
     9.4245   9.5246   9.6521   9.6936   9.8409   9.9176   9.9719  10.0354
    10.1427  10.1584  10.3933  10.4578  10.5731  10.6703  10.8150  10.8475
    10.9731  11.0239  11.0776  11.2295  11.2813  11.3247  11.3859  11.5556
    11.6268  11.7667  11.8639  11.9288  12.1719  12.2946  12.3782  12.4368
    12.4726  12.5534  12.6879  12.8025  12.8978  13.0170  13.1238  13.2417
    13.3088  13.3309  13.3931  13.4504  13.5386  13.6277  13.7289  13.7760
    13.8729  13.9746  14.0340  14.1410  14.2743  14.3286  14.4061  14.4390
    14.5287  14.5939  14.6853  14.8063  14.8839  14.9463  15.0464  15.1039
    15.1945  15.2559  15.3564  15.3869  15.5196  15.6297  15.6704  15.7969
    15.8605  15.8850  15.9151  16.0624  16.1478  16.2030  16.2888  16.3482
    16.4013  16.4993  16.5693  16.6514  16.7207  16.7540  16.8227  16.9165
    16.9645  17.1002  17.1580  17.2769  17.3306  17.3661  17.4306  17.4744
    17.5265  17.6098  17.6512  17.6874  17.7684  17.7882  17.8683  17.9936
    18.0423  18.1071  18.1407  18.2455  18.3155  18.3656  18.3872  18.5193
    18.5756  18.6613  18.7950  18.8741  18.9287  19.0218  19.0677  19.0801
    19.1603  19.2236  19.3608  19.4215  19.4730  19.5364  19.5819  19.6396
    19.7196  19.8669  19.9082  19.9709  19.9834  20.0666  20.1456  20.2209
    20.2539  20.3065  20.3459  20.4067  20.4693  20.5041  20.5264  20.5462
    20.6674  20.8015  20.8709  20.8980  20.9225  20.9754  21.0081  21.0628
    21.0922  21.1930  21.2793  21.3213  21.3815  21.4579  21.6138  21.7189
    21.7719  21.8522  21.9066  21.9876  22.0532  22.0895  22.1637  22.1973
    22.2651  22.3460  22.3897  22.4273  22.4440  22.5064  22.5876  22.6463
    22.6863  22.7601  22.9025  22.9226  22.9853  23.0356

          k = 0.2500 0.1914 0.0000 ( 29229 PWs)   bands (ev):

   -81.5169 -81.4701 -81.4245 -81.2735 -81.2329 -81.0752 -81.0493 -81.0100
   -43.6141 -43.4204 -43.4062 -43.4040 -43.3851 -43.3586 -43.3360 -43.3349
   -43.3026 -43.2460 -43.1862 -43.1852 -43.0886 -43.0511 -43.0215 -42.9999
   -42.9843 -42.9569 -42.9374 -42.9312 -42.8702 -42.7892 -42.7070 -42.5634
   -20.9180 -20.4546 -20.3925 -20.2329 -20.1125 -19.9875 -19.7613 -19.7238
   -19.7006 -19.4457 -19.4388 -19.3979 -19.2899 -19.1329 -19.0961 -18.9219
   -18.8433 -18.2436 -18.0261  -9.0392  -8.7333  -8.6939  -8.6435  -8.4196
    -8.3259  -8.2937  -8.1000  -8.0393  -7.9200  -7.7563  -7.6346  -7.4177
    -7.3414  -7.2566  -6.9679  -6.8658  -6.7771  -6.6785  -6.4919  -6.4449
    -6.4029  -6.0771  -5.9514  -5.8340  -5.6649  -5.5864  -5.5579  -5.4957
    -5.4531  -5.1650  -5.0482  -5.0274  -4.8726  -4.7887  -4.7050  -4.6696
    -4.6127  -4.5560  -4.4465  -4.3430  -4.1818  -4.0392  -3.9530  -3.8981
    -3.7160  -3.5798  -3.5267  -3.4131  -3.3434  -3.1864  -3.0854  -2.9083
    -2.7917  -2.6744  -2.6025  -2.1897  -2.0709  -1.9435  -1.8949  -1.0070
    -0.9264  -0.7828  -0.7142  -0.1206   0.0282   0.4918   0.5613   0.6136
     0.8069   0.8245   0.9384   1.1275   1.2835   1.3349   1.4714   1.6515
     1.6773   1.8775   1.9882   2.0782   2.3508   3.5955   3.6190   3.6382
     3.7300   3.8958   3.9661   4.2036   4.3976   4.5348   4.6530   4.8150
     4.9288   5.1861   5.3577   5.5661   5.7730   5.8815   6.1055   6.2186
     6.3708   6.4888   6.6669   6.9202   7.0629   7.1012   7.3378   7.5553
     7.7810   7.8044   7.8829   8.1441   8.1823   8.3367   8.4568   8.5942
     8.6556   8.6881   8.9241   9.0641   9.1213   9.3997   9.4433   9.5289
     9.6622   9.6861   9.8069   9.8598   9.9392  10.0326  10.0980  10.1564
    10.2472  10.2785  10.3459  10.4419  10.5161  10.7092  10.7213  10.8850
    10.9705  11.0651  11.1713  11.3538  11.4701  11.5225  11.6777  11.7702
    11.8250  11.9166  12.0774  12.2430  12.2612  12.5013  12.5782  12.6371
    12.6824  12.7342  12.8234  12.8898  12.9497  13.0094  13.1111  13.2461
    13.2693  13.4800  13.5118  13.6157  13.6673  13.7838  13.8455  13.8760
    13.9079  13.9728  14.0059  14.1382  14.2041  14.2543  14.2837  14.3732
    14.5054  14.5370  14.6024  14.6281  14.7170  14.8008  14.8066  14.8822
    14.9529  14.9921  15.0321  15.1165  15.1517  15.1993  15.2968  15.4568
    15.5115  15.5804  15.6739  15.7796  15.8279  15.9368  16.0986  16.1366
    16.1955  16.2849  16.3777  16.4346  16.5285  16.6014  16.6443  16.6733
    16.7826  16.8597  16.9523  16.9780  17.0965  17.1923  17.2392  17.2955
    17.3964  17.4683  17.5667  17.6850  17.7365  17.7874  17.8811  17.9626
    18.0125  18.0853  18.0932  18.2336  18.2682  18.3142  18.3704  18.4370
    18.5047  18.6092  18.6475  18.7001  18.7894  18.8905  18.9547  19.0469
    19.0839  19.2025  19.3088  19.3647  19.5058  19.5537  19.6267  19.6995
    19.7871  19.8587  19.9609  20.0444  20.1020  20.1878  20.2642  20.3264
    20.4285  20.5196  20.5498  20.6242  20.7082  20.7419  20.7700  20.8292
    20.8890  20.9618  21.0392  21.1155  21.1924  21.2475  21.2850  21.3321
    21.3716  21.4341  21.5126  21.5585  21.5948  21.6652  21.7741  21.8724
    21.9493  21.9863  22.0479  22.1197  22.1735  22.2207  22.3094  22.4021
    22.4236  22.4515  22.5047  22.5622  22.5996  22.6855  22.7164  22.7516
    22.7982  22.8140  22.8947  22.9339  23.0034  23.0512

          k = 0.2500-0.3828 0.0000 ( 29202 PWs)   bands (ev):

   -81.5169 -81.4701 -81.4245 -81.2735 -81.2329 -81.0752 -81.0493 -81.0100
   -43.6143 -43.4207 -43.4052 -43.4036 -43.3859 -43.3546 -43.3359 -43.3350
   -43.3027 -43.2488 -43.1852 -43.1848 -43.0886 -43.0511 -43.0215 -43.0006
   -42.9843 -42.9580 -42.9374 -42.9320 -42.8702 -42.7891 -42.7069 -42.5634
   -20.8864 -20.4537 -20.3031 -20.1907 -20.0391 -19.8543 -19.8507 -19.8167
   -19.7715 -19.6879 -19.5478 -19.4394 -19.3155 -19.0004 -18.9964 -18.8766
   -18.8332 -18.2413 -18.0278  -9.0169  -8.7244  -8.6609  -8.5911  -8.3645
    -8.1663  -8.0697  -8.0184  -7.9074  -7.8524  -7.7327  -7.6793  -7.6425
    -7.6156  -7.4667  -7.3685  -6.9477  -6.9272  -6.7883  -6.5966  -6.2910
    -5.9276  -5.8440  -5.7595  -5.6774  -5.6245  -5.5998  -5.5565  -5.4953
    -5.3632  -5.2430  -5.1625  -5.0113  -4.9753  -4.9485  -4.8553  -4.8173
    -4.7798  -4.6542  -4.5294  -4.4023  -4.2009  -3.9470  -3.8380  -3.7687
    -3.7604  -3.5780  -3.5307  -3.3652  -3.3582  -3.2548  -2.9970  -2.9071
    -2.7523  -2.6218  -2.5424  -2.2000  -1.9722  -1.8216  -1.6823  -1.2352
    -1.1825  -1.1123  -0.7921  -0.0449   0.2621   0.3481   0.6938   0.9189
     0.9525   1.0604   1.1239   1.2172   1.2715   1.3142   1.5635   1.7112
     1.9509   1.9613   2.0817   2.1757   2.2972   2.7610   2.7736   3.3277
     3.3916   3.7307   3.9641   4.2723   4.4591   4.6314   4.8931   5.0742
     5.2168   5.3423   5.3652   5.5395   5.9591   6.0916   6.1836   6.2738
     6.3642   6.5105   6.7336   6.7670   6.8591   6.9112   7.1355   7.2633
     7.5091   7.7577   7.8170   7.9401   8.0606   8.3779   8.4422   8.6400
     8.6865   8.7591   8.9382   9.0540   9.0873   9.1601   9.1972   9.3396
     9.5079   9.6826   9.7990   9.8894  10.0821  10.2372  10.3746  10.4228
    10.4760  10.5473  10.5689  10.6695  10.7665  10.8600  11.0562  11.1334
    11.2791  11.3407  11.3799  11.4388  11.7399  11.8219  11.9566  12.0146
    12.1507  12.1703  12.1968  12.2758  12.3062  12.3732  12.4726  12.5063
    12.6342  12.7112  12.7467  12.8055  13.0481  13.0917  13.2255  13.2745
    13.3901  13.4484  13.5982  13.6603  13.7417  13.7471  13.8392  13.9244
    13.9651  14.0231  14.0506  14.1110  14.1480  14.1534  14.2955  14.3321
    14.3804  14.4373  14.4826  14.5616  14.6015  14.6258  14.6862  14.7169
    14.7792  14.7916  14.8537  14.9038  14.9837  15.1649  15.2791  15.3915
    15.4300  15.4710  15.4889  15.5437  15.6003  15.6968  15.7544  15.8817
    15.8992  16.0067  16.0719  16.1290  16.1933  16.2894  16.3492  16.4133
    16.5506  16.6095  16.6576  16.7555  16.8843  16.9315  16.9869  17.0401
    17.2377  17.3808  17.4202  17.4813  17.5246  17.5956  17.6349  17.7753
    17.8227  17.8653  18.0204  18.0787  18.1847  18.2583  18.2883  18.4228
    18.4744  18.6076  18.7954  18.8811  18.9033  18.9987  19.1336  19.3004
    19.3752  19.3995  19.5739  19.6458  19.6843  19.7612  19.8300  19.8599
    19.9637  20.0030  20.0899  20.1469  20.2068  20.2656  20.2835  20.2966
    20.3640  20.4239  20.4408  20.5279  20.5924  20.7901  20.8768  20.9254
    21.0476  21.0596  21.1451  21.2331  21.2769  21.3061  21.3267  21.3985
    21.4064  21.4769  21.5347  21.5945  21.6796  21.7430  21.8147  21.8592
    21.8706  21.9118  21.9792  22.0264  22.1365  22.1640  22.2229  22.3005
    22.3584  22.4505  22.5004  22.5724  22.6178  22.6421  22.6730  22.7497
    22.7934  22.8613  22.8838  22.9629  23.0579  23.1221

          k =-0.5000 0.0000 0.0000 ( 29180 PWs)   bands (ev):

   -81.5064 -81.4806 -81.4235 -81.2575 -81.2489 -81.0764 -81.0307 -81.0286
   -43.3849 -43.3695 -43.3573 -43.3545 -43.3458 -43.3378 -43.3200 -43.2996
   -43.2214 -43.2121 -43.1828 -43.1212 -43.1096 -43.0518 -43.0366 -43.0267
   -42.9884 -42.9853 -42.9615 -42.9136 -42.9025 -42.8983 -42.8766 -42.8735
   -20.6059 -20.5695 -20.3293 -20.2550 -19.9441 -19.9327 -19.8789 -19.8385
   -19.4835 -19.4752 -19.3726 -19.3693 -19.3144 -19.2672 -19.0956 -19.0758
   -18.9355 -18.2230 -18.1830  -8.5544  -8.5075  -8.4463  -8.3364  -8.3353
    -8.2827  -8.2209  -8.1630  -7.9775  -7.9690  -7.4245  -7.4088  -7.3154
    -7.2736  -7.1267  -6.8991  -6.8896  -6.8056  -6.7098  -6.5192  -6.1748
    -6.0149  -5.9817  -5.9259  -5.8558  -5.8299  -5.8171  -5.6492  -5.5595
    -5.2545  -5.2465  -5.1443  -5.1344  -5.0752  -5.0294  -4.9807  -4.9532
    -4.7291  -4.6918  -4.6475  -4.5726  -4.5512  -4.2544  -4.0574  -4.0414
    -3.5053  -3.4937  -3.4617  -3.4193  -3.1787  -3.0998  -3.0820  -2.8912
    -2.8218  -2.8152  -2.8084  -2.1239  -0.9584  -0.9275  -0.8673  -0.7949
    -0.6849  -0.6456  -0.5339  -0.4849  -0.4036  -0.3790  -0.1553  -0.1315
     0.1745   0.3486   0.4355   0.5811   0.6974   0.7052   0.8270   1.0448
     1.4828   1.5012   1.7810   2.0769   2.1017   3.5292   3.8881   3.9888
     4.1905   4.3375   4.4297   4.4308   4.5362   4.6018   4.8055   4.8368
     4.9499   5.0937   5.2267   5.6126   5.7130   5.9731   6.1660   6.1762
     6.3938   6.5216   6.6710   6.7866   6.9162   7.0709   7.3355   7.4559
     7.7159   7.7938   8.0257   8.1391   8.5609   8.5760   8.5953   8.6767
     8.7224   9.0804   9.1819   9.2513   9.2847   9.2970   9.3401   9.3671
     9.3767   9.4584   9.6827   9.7067   9.7461   9.7824   9.8150   9.8937
     9.9545  10.0299  10.2797  10.3305  10.3883  10.4697  10.5373  10.5767
    10.6536  10.7308  10.8366  10.9480  10.9846  11.0922  11.4193  11.4588
    11.5301  11.7768  11.8642  11.9238  11.9752  12.1320  12.1772  12.2525
    12.3233  12.3868  12.7726  12.8144  13.0089  13.2044  13.3141  13.3863
    13.4513  13.5029  13.6135  13.6578  13.7952  13.8767  13.9460  14.1988
    14.3475  14.3557  14.3714  14.4362  14.5601  14.7175  14.8751  14.9286
    15.0346  15.1161  15.2090  15.3012  15.3740  15.4773  15.5047  15.5525
    15.6032  15.6477  15.7128  15.7674  15.7940  15.9506  16.0656  16.1565
    16.3154  16.3735  16.4138  16.4542  16.5086  16.5575  16.5959  16.7118
    16.7635  16.8160  16.9671  17.0269  17.0372  17.0944  17.1179  17.1450
    17.3994  17.4311  17.4432  17.4912  17.5665  17.5861  17.8002  17.8500
    17.9338  18.0487  18.1408  18.1602  18.2187  18.3161  18.3225  18.3355
    18.4554  18.4812  18.5161  18.6577  18.6732  18.7073  18.7305  18.7584
    18.9236  18.9889  19.0203  19.0592  19.1380  19.2000  19.2717  19.3148
    19.3615  19.4274  19.4665  19.4894  19.5113  19.5607  19.6111  19.6131
    19.6845  19.7167  19.7675  19.7992  19.8152  19.8253  19.8625  19.9622
    20.0295  20.0923  20.1189  20.1600  20.2383  20.2639  20.3138  20.3577
    20.3991  20.4307  20.4525  20.6884  20.7434  20.7867  20.8344  20.8836
    20.9295  20.9377  20.9871  21.0377  21.0669  21.1121  21.1417  21.1740
    21.2875  21.3166  21.3916  21.4590  21.5026  21.5636  21.6198  21.7271
    21.7567  21.7952  21.8375  21.9983  22.0620  22.0939  22.2086  22.3528
    22.4125  22.4319  22.4649  22.4755  22.5385  22.6667

          k =-0.5000 0.1914 0.0000 ( 29244 PWs)   bands (ev):

   -81.5064 -81.4806 -81.4235 -81.2575 -81.2489 -81.0764 -81.0307 -81.0286
   -43.3849 -43.3688 -43.3573 -43.3520 -43.3451 -43.3378 -43.3203 -43.2998
   -43.2229 -43.2151 -43.1799 -43.1212 -43.1098 -43.0518 -43.0367 -43.0267
   -42.9884 -42.9853 -42.9628 -42.9133 -42.9032 -42.8989 -42.8766 -42.8734
   -20.5996 -20.5611 -20.3163 -20.2255 -19.9134 -19.8917 -19.8587 -19.8240
   -19.5778 -19.5720 -19.3628 -19.3305 -19.3261 -19.3151 -19.0904 -19.0738
   -18.9222 -18.2233 -18.1832  -8.5505  -8.5102  -8.4399  -8.3488  -8.3209
    -8.2960  -8.2472  -8.1629  -7.9866  -7.9776  -7.2640  -7.2029  -7.1848
    -7.0251  -6.9996  -6.8971  -6.8531  -6.7529  -6.5876  -6.4941  -6.3005
    -6.2420  -6.2145  -6.1579  -6.0810  -5.8687  -5.8283  -5.6212  -5.5431
    -5.3838  -5.3661  -5.2784  -5.2477  -5.1493  -5.0739  -4.9377  -4.8976
    -4.8195  -4.7577  -4.6785  -4.6185  -4.3900  -4.2442  -4.0714  -4.0317
    -3.5211  -3.4728  -3.4078  -3.3901  -3.2133  -3.1339  -3.0708  -2.9925
    -2.7070  -2.6860  -2.6471  -2.0978  -0.8960  -0.8855  -0.8153  -0.7735
    -0.6902  -0.6440  -0.5143  -0.4651  -0.3097  -0.2278  -0.0728  -0.0332
     0.2751   0.3244   0.5471   0.5782   0.7188   0.8405   1.0194   1.1631
     1.3867   1.4379   1.7169   1.9732   2.0771   3.5135   3.5521   3.6037
     3.6441   3.6920   3.9764   4.3485   4.4075   4.8182   5.0779   5.2369
     5.3454   5.3612   5.5033   5.6689   5.7026   6.0203   6.3250   6.3542
     6.4819   6.5285   6.7607   6.8081   7.0110   7.0721   7.2197   7.3455
     7.6219   7.7425   7.8680   7.9515   8.0652   8.1226   8.1782   8.3015
     8.4483   8.6233   8.6714   8.8425   8.9685   9.1009   9.1766   9.3961
     9.4701   9.5510   9.5840   9.7022   9.8532   9.9794  10.0852  10.2185
    10.5020  10.5904  10.6225  10.6637  10.6899  10.7743  10.8333  10.9359
    10.9741  11.0503  11.0901  11.2116  11.3963  11.4765  11.5932  11.6538
    11.7965  11.9112  11.9901  12.1176  12.1842  12.3002  12.3998  12.5081
    12.5844  12.7418  12.7618  12.8790  12.9917  13.0735  13.2178  13.4399
    13.5758  13.6124  13.7353  13.7934  13.8389  13.9822  14.1945  14.2055
    14.3042  14.3569  14.4213  14.4494  14.5638  14.5900  14.7009  14.8330
    14.8786  14.9593  15.0040  15.0801  15.1201  15.2127  15.2582  15.3973
    15.5101  15.5264  15.5874  15.7015  15.7645  15.8472  15.9043  15.9279
    15.9810  16.0880  16.1668  16.2332  16.2768  16.3506  16.4164  16.4842
    16.5361  16.5709  16.6402  16.7302  16.8353  16.8596  16.8874  16.9744
    16.9941  17.0798  17.1242  17.2327  17.2583  17.2764  17.3125  17.3657
    17.4411  17.5769  17.6397  17.7093  17.8019  17.9126  17.9715  17.9832
    18.0101  18.0949  18.2119  18.2640  18.3254  18.3617  18.4114  18.4649
    18.5760  18.6403  18.6713  18.7188  18.8224  18.9419  18.9600  19.0729
    19.1475  19.2139  19.3054  19.3790  19.4452  19.4995  19.6110  19.6475
    19.6922  19.7604  19.7883  19.8685  19.9881  20.0286  20.1837  20.2182
    20.2352  20.3553  20.3711  20.4676  20.6081  20.6543  20.7365  20.7840
    20.8430  20.8756  20.9912  21.0358  21.0900  21.1487  21.1826  21.2916
    21.3674  21.4022  21.4682  21.5310  21.5996  21.6403  21.7250  21.7668
    21.7956  21.8353  21.8884  21.8990  21.9634  21.9801  22.0104  22.0487
    22.0860  22.1909  22.3207  22.3612  22.4263  22.4499  22.4757  22.5122
    22.5660  22.6137  22.7192  22.7276  22.7574  22.8040

          k =-0.5000-0.3828 0.0000 ( 29192 PWs)   bands (ev):

   -81.5064 -81.4806 -81.4235 -81.2575 -81.2489 -81.0764 -81.0307 -81.0286
   -43.3849 -43.3681 -43.3574 -43.3494 -43.3443 -43.3379 -43.3205 -43.3000
   -43.2241 -43.2182 -43.1771 -43.1211 -43.1099 -43.0517 -43.0368 -43.0267
   -42.9884 -42.9854 -42.9641 -42.9129 -42.9038 -42.8995 -42.8765 -42.8734
   -20.5936 -20.5532 -20.3025 -20.1906 -19.8880 -19.8617 -19.7787 -19.7744
   -19.6972 -19.6780 -19.4123 -19.3650 -19.3096 -19.3043 -19.0871 -19.0721
   -18.9109 -18.2236 -18.1835  -8.5251  -8.4864  -8.4438  -8.3734  -8.3108
    -8.2681  -8.2665  -8.1306  -7.9762  -7.9709  -7.2502  -7.0970  -7.0830
    -6.8794  -6.8108  -6.7554  -6.7179  -6.7023  -6.6170  -6.6114  -6.5723
    -6.4426  -6.2183  -6.1641  -6.0340  -5.8221  -5.8009  -5.5776  -5.5713
    -5.4899  -5.4475  -5.4119  -5.3342  -5.3281  -5.2404  -5.0497  -5.0034
    -4.9366  -4.7832  -4.7366  -4.7090  -4.2001  -4.1676  -3.9993  -3.9597
    -3.5896  -3.5441  -3.4143  -3.3917  -3.2434  -3.1414  -3.0975  -2.9365
    -2.6423  -2.5473  -2.5321  -2.0599  -0.9928  -0.9924  -0.8719  -0.8049
    -0.7501  -0.7338  -0.5716  -0.5268  -0.1686  -0.1464   0.2972   0.3675
     0.5271   0.5307   0.7709   0.8404   0.9079   1.0595   1.1404   1.1613
     1.4107   1.4981   1.6398   1.7040   2.1115   2.7857   2.8291   2.8378
     2.9475   3.5874   4.0136   4.4958   4.5061   4.9340   5.2383   5.4109
     5.4659   5.6498   5.7959   5.8971   5.9742   6.1892   6.2233   6.4376
     6.4417   6.6828   6.9057   6.9083   7.0549   7.0651   7.2405   7.2808
     7.3582   7.4364   7.5541   7.7188   7.8045   7.9275   7.9898   8.1379
     8.1786   8.4637   8.5179   8.6899   8.7470   8.7921   8.9248   9.1645
     9.2451   9.4940   9.6985   9.9461  10.0025  10.0255  10.0802  10.2614
    10.4782  10.5462  10.7872  10.9031  10.9914  11.0608  11.1684  11.2636
    11.3245  11.4159  11.4583  11.5692  11.6562  11.7688  11.8577  12.1239
    12.1784  12.3673  12.5566  12.6391  12.7976  12.8417  12.9672  13.0313
    13.1148  13.1364  13.1695  13.2220  13.2755  13.3243  13.3355  13.4090
    13.4325  13.4600  13.5832  13.6802  13.7406  13.8007  13.8448  13.8770
    13.9062  13.9993  14.0972  14.1782  14.2922  14.3055  14.3973  14.5221
    14.5408  14.5595  14.6233  14.7201  14.7256  14.9639  15.0604  15.1083
    15.1955  15.2465  15.2933  15.3632  15.4163  15.4780  15.5446  15.7264
    15.8015  15.8375  15.9639  16.0576  16.1357  16.2055  16.3074  16.3280
    16.3770  16.4795  16.5479  16.5968  16.7253  16.7347  16.8336  16.8507
    16.9485  17.0554  17.0828  17.2557  17.3154  17.3284  17.3512  17.4156
    17.5037  17.6254  17.6695  17.6764  17.7357  17.7604  17.8019  17.8265
    17.8876  17.9353  18.0480  18.0884  18.1179  18.1848  18.2639  18.2735
    18.2974  18.3715  18.3886  18.4322  18.5545  18.6105  18.6902  18.7111
    18.8276  18.9221  18.9332  18.9744  19.0093  19.1017  19.2581  19.3970
    19.5319  19.6662  19.7315  19.7425  19.9221  19.9834  20.1199  20.1392
    20.2325  20.2926  20.4497  20.5198  20.6782  20.7392  20.7647  20.8204
    20.8261  20.9225  21.0280  21.2641  21.3256  21.3289  21.3898  21.4215
    21.4927  21.5091  21.6909  21.7255  21.7452  21.7862  21.9867  22.0505
    22.1152  22.1744  22.1980  22.2390  22.3690  22.4001  22.4671  22.4993
    22.6351  22.7469  22.7980  22.8244  22.8546  22.9358  22.9705  23.0262
    23.0806  23.1419  23.2020  23.2544  23.3169  23.3903

          k =-0.2500 0.1914 0.0000 ( 29229 PWs)   bands (ev):

   -81.5169 -81.4701 -81.4245 -81.2735 -81.2329 -81.0752 -81.0493 -81.0100
   -43.6141 -43.4204 -43.4062 -43.4040 -43.3851 -43.3586 -43.3360 -43.3349
   -43.3025 -43.2460 -43.1862 -43.1852 -43.0886 -43.0511 -43.0215 -43.0002
   -42.9843 -42.9569 -42.9374 -42.9310 -42.8702 -42.7892 -42.7070 -42.5634
   -20.9181 -20.4546 -20.3926 -20.2328 -20.1125 -19.9874 -19.7610 -19.7238
   -19.6999 -19.4455 -19.4399 -19.3990 -19.2900 -19.1326 -19.0959 -18.9219
   -18.8429 -18.2436 -18.0261  -9.0387  -8.7318  -8.6947  -8.6413  -8.4272
    -8.3232  -8.2990  -8.0913  -8.0354  -7.9125  -7.7830  -7.6300  -7.4027
    -7.3450  -7.2718  -6.9708  -6.8805  -6.7415  -6.6705  -6.5122  -6.4260
    -6.3800  -6.0894  -5.9508  -5.8165  -5.7185  -5.5972  -5.5684  -5.5115
    -5.4416  -5.1324  -5.0449  -5.0091  -4.8772  -4.8094  -4.7174  -4.6655
    -4.6105  -4.5347  -4.4259  -4.3441  -4.2283  -4.0157  -3.9501  -3.8772
    -3.7181  -3.6111  -3.5628  -3.3748  -3.3231  -3.1906  -3.0808  -2.9396
    -2.7771  -2.6861  -2.5960  -2.1853  -2.0711  -1.9472  -1.8973  -1.0077
    -0.9022  -0.7872  -0.6965  -0.1399   0.0153   0.4865   0.5509   0.6096
     0.8020   0.8159   0.9690   1.1374   1.2848   1.3424   1.4661   1.6466
     1.6762   1.8773   1.9884   2.0773   2.3499   3.5957   3.6179   3.6385
     3.7321   3.8973   3.9658   4.2033   4.3939   4.5370   4.6520   4.8107
     4.9368   5.1855   5.3558   5.5692   5.7751   5.8851   6.1007   6.2311
     6.3770   6.4709   6.6570   6.9216   7.0579   7.1087   7.3433   7.5853
     7.6983   7.7707   7.9491   8.1442   8.2411   8.3005   8.4866   8.5522
     8.6135   8.7149   8.9626   9.0297   9.1107   9.3933   9.4677   9.5726
     9.6350   9.6886   9.8249   9.8952   9.9104   9.9910  10.0722  10.1590
    10.2438  10.3025  10.3625  10.4205  10.5115  10.7251  10.7573  10.8867
    10.9744  11.0984  11.1523  11.2737  11.4813  11.5559  11.6840  11.7683
    11.8144  11.9323  12.0510  12.2355  12.3276  12.4445  12.5711  12.6349
    12.6564  12.7320  12.8307  12.8830  12.9697  13.0089  13.1145  13.2532
    13.2812  13.4577  13.5207  13.6109  13.6936  13.7748  13.8424  13.8631
    13.9168  13.9663  14.0045  14.0917  14.1906  14.2352  14.3114  14.4334
    14.4952  14.5525  14.5664  14.6231  14.7192  14.7667  14.8433  14.8832
    14.9602  15.0023  15.0535  15.1060  15.1463  15.2111  15.3148  15.4832
    15.4939  15.5899  15.6867  15.7223  15.8553  15.9376  16.0960  16.1365
    16.2081  16.2617  16.3415  16.4886  16.5155  16.5787  16.6415  16.6769
    16.7676  16.8875  16.9390  16.9670  17.1229  17.2087  17.2484  17.2794
    17.3640  17.4735  17.6329  17.6713  17.7412  17.7985  17.8444  17.9418
    17.9886  18.0784  18.1366  18.1543  18.2719  18.3045  18.4154  18.4447
    18.5289  18.6062  18.6517  18.7298  18.7543  18.8974  18.9420  19.0360
    19.0746  19.2409  19.3014  19.3223  19.5016  19.5474  19.6234  19.6802
    19.7772  19.8531  19.9794  20.0262  20.1111  20.1683  20.2526  20.3187
    20.4535  20.5234  20.5847  20.6120  20.7020  20.7399  20.7757  20.8342
    20.9031  20.9671  21.0114  21.1522  21.1958  21.2312  21.2857  21.3058
    21.3901  21.4341  21.5133  21.5754  21.6539  21.7103  21.7590  21.8537
    21.9309  22.0035  22.0734  22.0942  22.2099  22.2278  22.2948  22.3802
    22.4295  22.4678  22.4860  22.5601  22.6392  22.6673  22.7024  22.7566
    22.7694  22.8485  22.9030  22.9415  23.0120  23.0532

 ------ SPIN DOWN ----------


          k = 0.0000 0.0000 0.0000 ( 29221 PWs)   bands (ev):

   -81.5239 -81.4630 -81.4256 -81.2815 -81.2248 -81.0741 -81.0573 -81.0018
   -43.7350 -43.5433 -43.4946 -43.4274 -43.4161 -43.3699 -43.3426 -43.3243
   -43.3049 -43.2816 -43.2535 -43.1743 -43.1093 -43.0630 -43.0270 -42.9625
   -42.9502 -42.9423 -42.9171 -42.8663 -42.8578 -42.6532 -42.5810 -42.4294
   -21.1151 -20.5841 -20.4782 -20.4527 -20.1696 -19.8288 -19.7880 -19.5522
   -19.4861 -19.4484 -19.3750 -19.3057 -19.2451 -19.2313 -19.1603 -18.9424
   -18.7486 -18.2417 -17.9056  -9.5193  -9.3894  -9.2329  -8.7271  -8.6826
    -8.2743  -8.1833  -8.0184  -7.9383  -7.7646  -7.6579  -7.5745  -7.4405
    -7.3295  -7.2798  -7.1716  -7.0063  -6.9157  -6.8930  -6.8001  -6.5338
    -6.4437  -6.1689  -6.0161  -5.6571  -5.5916  -5.5055  -5.4462  -5.3474
    -5.2406  -5.0840  -5.0594  -4.9426  -4.7992  -4.7891  -4.7212  -4.4586
    -4.4252  -4.3935  -4.1881  -4.1352  -4.0379  -3.9450  -3.6834  -3.6399
    -3.4449  -3.4336  -3.3432  -3.2718  -3.2554  -3.1515  -3.1311  -3.0765
    -2.9656  -2.8406  -2.7795  -2.6641  -2.5240  -2.4553  -2.1727  -1.0562
    -0.7187  -0.5812  -0.1749  -0.1640   0.0490   0.3614   0.5264   0.5386
     0.6722   0.7521   0.9843   1.0995   1.2420   1.3104   1.4639   1.8909
     2.6536   3.0305   3.0855   3.1696   3.3613   3.4383   3.5077   3.6274
     4.0622   4.0984   4.2076   4.5419   4.5492   4.5709   4.7578   4.8135
     4.8734   4.9361   4.9940   5.0779   5.2776   5.3942   5.4729   6.0135
     6.2078   6.3342   6.6383   6.9255   7.4173   7.6019   7.6859   7.8866
     7.9268   8.0611   8.1271   8.1965   8.2934   8.3826   8.5814   8.6854
     8.7696   8.8689   8.9528   9.0067   9.1003   9.1478   9.2425   9.3140
     9.5113   9.6236   9.7278   9.7871   9.8273   9.9138  10.0539  10.1332
    10.2291  10.2849  10.4764  10.5153  10.5403  10.7048  10.7942  10.9358
    11.0657  11.1920  11.2330  11.3160  11.4364  11.5082  11.6668  11.6830
    11.8709  11.9291  12.0132  12.0522  12.1570  12.2494  12.4353  12.5320
    12.6530  12.7572  12.8380  12.9313  13.0079  13.1056  13.1127  13.1177
    13.1758  13.1864  13.2863  13.3223  13.3525  13.4303  13.4633  13.4760
    13.5482  13.6317  13.7180  13.8863  13.9049  13.9799  14.0330  14.0657
    14.1210  14.1347  14.2013  14.2923  14.3203  14.3493  14.4831  14.6029
    14.7066  14.7948  14.9210  14.9604  15.0333  15.0823  15.1210  15.1659
    15.3161  15.3857  15.4526  15.5383  15.5624  15.7041  15.7558  15.9004
    15.9400  16.0042  16.1018  16.1437  16.2639  16.3010  16.5197  16.5874
    16.6489  16.7249  16.8369  16.8754  16.9633  17.0359  17.1604  17.1856
    17.2235  17.2628  17.3773  17.5048  17.5402  17.5823  17.6145  17.6780
    17.8284  17.9222  18.0205  18.1057  18.1781  18.3086  18.3528  18.4105
    18.5418  18.6333  18.7300  18.8393  18.9045  18.9668  19.0016  19.0348
    19.1372  19.2047  19.2394  19.2915  19.3963  19.4557  19.6678  19.6902
    19.7558  19.8173  19.9656  20.0097  20.0774  20.1446  20.2181  20.2569
    20.4637  20.4769  20.5779  20.6125  20.6679  20.7662  20.7818  20.9027
    20.9758  21.0905  21.1662  21.2292  21.2787  21.4767  21.5005  21.5269
    21.5863  21.7271  21.8233  21.8736  21.9671  21.9720  22.0319  22.1119
    22.1692  22.2108  22.2488  22.2996  22.3832  22.3959  22.4599  22.4826
    22.5280  22.6041  22.6053  22.6512  22.6995  22.7323  22.8437  22.8796
    22.8956  22.9983  23.0626  23.0900  23.1404  23.1792

          k = 0.0000 0.1914 0.0000 ( 29141 PWs)   bands (ev):

   -81.5239 -81.4630 -81.4256 -81.2815 -81.2248 -81.0741 -81.0573 -81.0018
   -43.7352 -43.5434 -43.4952 -43.4259 -43.4161 -43.3654 -43.3426 -43.3243
   -43.3070 -43.2794 -43.2572 -43.1736 -43.1093 -43.0630 -43.0271 -42.9625
   -42.9509 -42.9441 -42.9171 -42.8663 -42.8575 -42.6531 -42.5811 -42.4294
   -21.0709 -20.4987 -20.4594 -20.3741 -20.1534 -19.8299 -19.8173 -19.7780
   -19.7253 -19.5358 -19.3962 -19.3739 -19.3063 -18.9957 -18.9470 -18.9170
   -18.7469 -18.2376 -17.9056  -9.3457  -8.9886  -8.9235  -8.7813  -8.6900
    -8.3176  -8.2510  -8.2030  -8.1921  -8.1814  -8.1712  -7.9212  -7.5507
    -7.4849  -7.2680  -7.1497  -6.8471  -6.4769  -6.4570  -6.3132  -6.2649
    -6.1127  -6.0667  -6.0004  -5.8484  -5.6964  -5.6724  -5.5303  -5.4783
    -5.4681  -5.3536  -5.0926  -5.0541  -4.8513  -4.8219  -4.6672  -4.4658
    -4.3542  -4.3178  -4.2668  -4.1085  -3.9862  -3.9203  -3.6345  -3.5711
    -3.5365  -3.4687  -3.3855  -3.2612  -3.2319  -3.1390  -3.0169  -2.8999
    -2.8164  -2.7705  -2.6773  -2.6513  -2.5455  -2.4582  -2.2237  -1.1609
    -1.0584  -1.0186  -0.8167  -0.0937   0.0759   0.6729   0.8435   0.8974
     0.9844   1.0328   1.1052   1.1129   1.2574   1.3054   1.4210   1.6813
     2.4184   3.2025   3.2849   3.3190   3.3768   3.4010   3.4694   3.7209
     3.7564   3.9990   4.0727   4.2171   4.2303   4.2523   4.2801   4.5067
     4.8525   5.0786   5.0996   5.3290   5.5627   5.8045   6.1537   6.2619
     6.4553   6.5823   6.5924   6.7478   6.8659   7.0465   7.2486   7.5369
     7.6491   7.7886   7.9912   8.1854   8.2577   8.3761   8.6719   8.7924
     8.9676   9.1009   9.1687   9.2663   9.2982   9.4941   9.5676   9.6362
     9.7064   9.8617   9.9187   9.9852  10.0429  10.0642  10.2971  10.3313
    10.4687  10.5055  10.5963  10.6545  10.7548  10.8193  10.9067  11.0787
    11.1684  11.2187  11.3004  11.3610  11.4675  11.4967  11.6334  11.7048
    11.7428  11.8683  11.9205  11.9293  12.0272  12.1620  12.1958  12.2866
    12.3445  12.3719  12.4507  12.4890  12.5328  12.6606  12.7102  12.8912
    12.9943  13.0374  13.1322  13.2517  13.3362  13.3627  13.4649  13.5874
    13.6666  13.6821  13.7739  13.8101  13.8744  13.9582  14.0480  14.1387
    14.1789  14.2625  14.3750  14.4538  14.5031  14.5934  14.6379  14.6752
    14.7480  14.8292  14.8700  14.9101  14.9569  15.0106  15.1086  15.1831
    15.2831  15.3308  15.4026  15.4936  15.5645  15.6427  15.7060  15.7428
    15.8292  15.8561  15.9154  15.9279  15.9815  16.1945  16.3408  16.4149
    16.5537  16.6537  16.7028  16.8698  16.9224  16.9743  17.0825  17.1414
    17.1813  17.2723  17.3377  17.4031  17.4480  17.6315  17.7384  17.8166
    17.9682  18.0888  18.1569  18.2591  18.3017  18.3895  18.5457  18.6304
    18.7195  18.7389  18.8331  18.9082  18.9834  19.0502  19.0626  19.0974
    19.2175  19.2798  19.3153  19.4110  19.4639  19.5997  19.6169  19.6463
    19.6784  19.7382  19.7833  19.9015  19.9759  20.0654  20.1207  20.2051
    20.2667  20.3036  20.3737  20.4196  20.5067  20.5230  20.5697  20.6915
    20.7889  20.8777  20.9103  20.9959  21.0353  21.0834  21.1680  21.2021
    21.3662  21.4455  21.5159  21.5583  21.6058  21.6535  21.7111  21.7780
    21.8996  21.9611  22.0128  22.1734  22.1952  22.2525  22.3033  22.4044
    22.4531  22.5068  22.5936  22.6253  22.6513  22.7242  22.7602  22.8402
    22.9147  22.9331  23.0495  23.1158  23.2581  23.2995

          k = 0.0000-0.3828 0.0000 ( 29262 PWs)   bands (ev):

   -81.5239 -81.4630 -81.4256 -81.2815 -81.2248 -81.0741 -81.0574 -81.0018
   -43.7354 -43.5436 -43.4958 -43.4244 -43.4161 -43.3607 -43.3427 -43.3243
   -43.3089 -43.2775 -43.2613 -43.1729 -43.1093 -43.0631 -43.0271 -42.9626
   -42.9518 -42.9459 -42.9171 -42.8663 -42.8572 -42.6531 -42.5812 -42.4294
   -21.0292 -20.4603 -20.3642 -20.3131 -19.9548 -19.9356 -19.9200 -19.8586
   -19.7902 -19.6802 -19.6240 -19.3902 -19.3747 -18.9360 -18.8225 -18.7444
   -18.7369 -18.2346 -17.9056  -9.3120  -8.8552  -8.7132  -8.6760  -8.6390
    -8.4056  -8.3770  -8.2899  -8.2389  -8.1721  -8.1071  -7.8157  -7.5698
    -7.4290  -7.1963  -7.1862  -7.1462  -6.9788  -6.7625  -6.6928  -6.3644
    -6.0877  -5.7880  -5.7630  -5.7334  -5.5641  -5.5303  -5.4938  -5.3860
    -5.2439  -5.2102  -5.0877  -5.0798  -5.0543  -4.7613  -4.6306  -4.6007
    -4.4332  -4.4258  -4.2012  -3.9917  -3.7680  -3.7173  -3.6880  -3.6697
    -3.6468  -3.5815  -3.5083  -3.2990  -3.2835  -3.1539  -3.0424  -2.7472
    -2.6960  -2.6842  -2.5782  -2.5201  -2.4614  -2.3696  -2.3456  -1.4621
    -1.3453  -1.3242  -1.0456  -0.1483   0.5165   0.6577   0.8080   0.9139
     0.9338   1.2338   1.2621   1.2853   1.4511   1.5374   1.6119   1.6583
     2.1577   2.7278   2.7898   3.3251   3.3876   3.4607   3.5856   3.6410
     3.7877   3.8475   4.0021   4.0775   4.1908   4.3442   4.7297   4.8147
     4.8458   5.0820   5.1778   5.3338   5.6271   5.7536   6.0257   6.1626
     6.4079   6.5698   6.6223   6.7319   6.9773   7.0975   7.1236   7.1376
     7.3680   7.6681   7.6786   8.0332   8.4197   8.6039   8.6999   8.7106
     8.7827   8.9659   9.2431   9.3912   9.4425   9.5060   9.8607   9.9245
     9.9589  10.0196  10.2623  10.3227  10.3869  10.5128  10.6163  10.7788
    10.8245  10.8437  10.8793  10.9731  11.0036  11.0518  11.1640  11.2095
    11.2902  11.3891  11.4128  11.4703  11.4882  11.5015  11.5399  11.5631
    11.6256  11.7425  11.7784  11.8351  11.8908  11.9236  12.0253  12.0561
    12.1589  12.2148  12.3041  12.3642  12.4053  12.4267  12.4954  12.5563
    12.6297  12.7803  12.9688  13.0121  13.0477  13.0967  13.1730  13.4128
    13.4701  13.5218  13.5851  13.6465  13.6970  13.7333  13.8446  13.8611
    13.9935  14.0757  14.0868  14.1905  14.2508  14.2619  14.3653  14.4421
    14.4903  14.7095  14.7900  14.9200  14.9509  15.1006  15.1555  15.4160
    15.4716  15.5334  15.6088  15.7135  15.8542  15.9565  15.9810  16.1296
    16.1844  16.3218  16.4306  16.5026  16.6020  16.6344  16.7406  16.7680
    16.8239  16.9009  16.9451  17.0187  17.0513  17.1207  17.1459  17.2055
    17.2948  17.3794  17.4256  17.4925  17.5369  17.5895  17.6283  17.6540
    17.7328  17.8075  17.8298  17.8542  17.9064  17.9939  18.0957  18.1604
    18.3284  18.3444  18.4598  18.5427  18.5609  18.6260  18.6593  18.8042
    18.8303  18.8498  18.9622  19.0778  19.0976  19.1206  19.1605  19.2953
    19.4819  19.6852  19.7566  19.8304  19.9191  19.9657  20.0178  20.0200
    20.1074  20.1988  20.2606  20.3042  20.3592  20.4904  20.5761  20.7090
    20.8085  20.8471  20.8615  20.9358  21.0349  21.2089  21.2655  21.3195
    21.3596  21.4049  21.5097  21.5927  21.6097  21.8256  21.9314  22.0470
    22.1138  22.2033  22.2115  22.2509  22.2902  22.3791  22.5514  22.6325
    22.7119  22.7777  22.8498  22.8814  22.9405  22.9978  23.0346  23.1627
    23.2073  23.2428  23.2595  23.3720  23.4266  23.4704

          k = 0.2500 0.0000 0.0000 ( 29190 PWs)   bands (ev):

   -81.5169 -81.4701 -81.4245 -81.2735 -81.2329 -81.0752 -81.0493 -81.0100
   -43.6139 -43.4201 -43.4074 -43.4041 -43.3843 -43.3624 -43.3360 -43.3347
   -43.3025 -43.2433 -43.1871 -43.1856 -43.0886 -43.0511 -43.0214 -42.9995
   -42.9842 -42.9557 -42.9374 -42.9301 -42.8702 -42.7892 -42.7070 -42.5634
   -20.9521 -20.4667 -20.4496 -20.3123 -20.1495 -19.9726 -19.7055 -19.5593
   -19.4907 -19.4406 -19.4010 -19.3616 -19.3218 -19.2694 -19.1946 -18.9398
   -18.8472 -18.2465 -18.0247  -9.1572  -9.0530  -8.9536  -8.7050  -8.3857
    -8.1380  -8.0433  -7.9492  -7.7916  -7.6851  -7.6306  -7.5440  -7.4491
    -7.3959  -7.3739  -7.0889  -6.9344  -6.6943  -6.6092  -6.5448  -6.4693
    -6.3919  -6.3460  -6.1653  -6.1195  -5.7917  -5.6882  -5.6525  -5.5124
    -5.2162  -5.1765  -4.9560  -4.8390  -4.7488  -4.6429  -4.5610  -4.5117
    -4.4688  -4.4103  -4.4000  -4.2630  -4.2176  -4.0275  -3.9731  -3.8953
    -3.7264  -3.6456  -3.5288  -3.3921  -3.2897  -3.2349  -3.0670  -2.9332
    -2.8223  -2.7287  -2.6046  -2.4882  -2.3763  -2.1770  -1.9334  -0.7773
    -0.6960  -0.5189  -0.3390  -0.1675  -0.1006   0.2448   0.3625   0.5383
     0.5844   0.6312   0.9151   1.1797   1.1976   1.4101   1.4322   1.4844
     1.6738   1.7943   1.9509   2.0719   2.5248   3.4540   3.6431   3.9637
     4.0644   4.2756   4.3417   4.4156   4.4544   4.7001   4.7591   4.7875
     4.9394   4.9806   5.1354   5.1972   5.3696   5.6973   5.8097   6.2141
     6.3057   6.5152   6.6887   7.0025   7.1314   7.5895   7.6492   7.7303
     8.0157   8.0568   8.1656   8.2341   8.3054   8.3973   8.4226   8.5508
     8.6580   8.7673   8.9038   8.9814   9.0649   9.1598   9.2505   9.3803
     9.4245   9.5246   9.6521   9.6936   9.8409   9.9176   9.9719  10.0354
    10.1427  10.1584  10.3933  10.4578  10.5731  10.6703  10.8150  10.8475
    10.9731  11.0239  11.0776  11.2295  11.2813  11.3247  11.3859  11.5556
    11.6268  11.7667  11.8639  11.9288  12.1719  12.2946  12.3782  12.4368
    12.4726  12.5534  12.6879  12.8025  12.8978  13.0170  13.1238  13.2417
    13.3088  13.3309  13.3931  13.4504  13.5386  13.6277  13.7289  13.7760
    13.8729  13.9746  14.0340  14.1410  14.2743  14.3286  14.4061  14.4390
    14.5287  14.5939  14.6853  14.8063  14.8839  14.9463  15.0464  15.1040
    15.1945  15.2559  15.3564  15.3869  15.5196  15.6297  15.6704  15.7969
    15.8605  15.8850  15.9151  16.0624  16.1478  16.2030  16.2888  16.3482
    16.4013  16.4993  16.5693  16.6514  16.7207  16.7540  16.8227  16.9165
    16.9645  17.1002  17.1580  17.2769  17.3306  17.3661  17.4306  17.4744
    17.5265  17.6098  17.6512  17.6874  17.7684  17.7882  17.8683  17.9936
    18.0423  18.1071  18.1407  18.2455  18.3155  18.3656  18.3872  18.5193
    18.5756  18.6613  18.7950  18.8741  18.9287  19.0218  19.0677  19.0801
    19.1603  19.2236  19.3608  19.4215  19.4730  19.5364  19.5819  19.6396
    19.7196  19.8669  19.9082  19.9709  19.9834  20.0666  20.1456  20.2209
    20.2539  20.3065  20.3459  20.4067  20.4693  20.5041  20.5264  20.5462
    20.6674  20.8015  20.8709  20.8980  20.9225  20.9754  21.0081  21.0628
    21.0922  21.1930  21.2793  21.3213  21.3815  21.4579  21.6138  21.7189
    21.7719  21.8522  21.9066  21.9876  22.0532  22.0895  22.1637  22.1973
    22.2651  22.3460  22.3897  22.4273  22.4440  22.5064  22.5876  22.6463
    22.6863  22.7601  22.9026  22.9226  22.9853  23.0356

          k = 0.2500 0.1914 0.0000 ( 29229 PWs)   bands (ev):

   -81.5169 -81.4701 -81.4245 -81.2735 -81.2329 -81.0752 -81.0493 -81.0100
   -43.6141 -43.4204 -43.4062 -43.4040 -43.3851 -43.3586 -43.3360 -43.3349
   -43.3026 -43.2459 -43.1862 -43.1852 -43.0886 -43.0511 -43.0215 -42.9999
   -42.9843 -42.9569 -42.9374 -42.9312 -42.8702 -42.7892 -42.7069 -42.5634
   -20.9180 -20.4546 -20.3925 -20.2329 -20.1125 -19.9875 -19.7613 -19.7238
   -19.7005 -19.4457 -19.4388 -19.3979 -19.2899 -19.1329 -19.0961 -18.9219
   -18.8433 -18.2436 -18.0261  -9.0392  -8.7333  -8.6939  -8.6435  -8.4196
    -8.3259  -8.2937  -8.1000  -8.0393  -7.9200  -7.7563  -7.6346  -7.4177
    -7.3414  -7.2566  -6.9679  -6.8658  -6.7771  -6.6785  -6.4919  -6.4449
    -6.4029  -6.0771  -5.9514  -5.8340  -5.6649  -5.5864  -5.5579  -5.4957
    -5.4531  -5.1650  -5.0482  -5.0274  -4.8726  -4.7887  -4.7050  -4.6696
    -4.6127  -4.5560  -4.4465  -4.3430  -4.1818  -4.0392  -3.9530  -3.8981
    -3.7160  -3.5798  -3.5267  -3.4131  -3.3434  -3.1864  -3.0854  -2.9083
    -2.7917  -2.6744  -2.6025  -2.1897  -2.0709  -1.9435  -1.8948  -1.0070
    -0.9264  -0.7828  -0.7142  -0.1206   0.0282   0.4918   0.5613   0.6136
     0.8069   0.8245   0.9384   1.1275   1.2836   1.3349   1.4714   1.6515
     1.6773   1.8775   1.9882   2.0782   2.3508   3.5955   3.6190   3.6382
     3.7300   3.8958   3.9661   4.2036   4.3976   4.5348   4.6530   4.8150
     4.9288   5.1861   5.3577   5.5661   5.7730   5.8815   6.1055   6.2186
     6.3708   6.4888   6.6669   6.9202   7.0629   7.1012   7.3378   7.5553
     7.7810   7.8044   7.8829   8.1441   8.1823   8.3367   8.4568   8.5942
     8.6556   8.6881   8.9241   9.0641   9.1213   9.3997   9.4433   9.5289
     9.6622   9.6861   9.8069   9.8598   9.9392  10.0326  10.0980  10.1564
    10.2472  10.2785  10.3459  10.4419  10.5161  10.7092  10.7213  10.8850
    10.9705  11.0651  11.1714  11.3538  11.4701  11.5225  11.6777  11.7702
    11.8250  11.9166  12.0774  12.2430  12.2612  12.5013  12.5782  12.6371
    12.6824  12.7342  12.8234  12.8898  12.9497  13.0094  13.1111  13.2461
    13.2693  13.4800  13.5118  13.6157  13.6673  13.7838  13.8455  13.8760
    13.9079  13.9728  14.0059  14.1382  14.2041  14.2543  14.2837  14.3732
    14.5054  14.5370  14.6024  14.6281  14.7170  14.8008  14.8066  14.8822
    14.9529  14.9921  15.0321  15.1165  15.1517  15.1993  15.2968  15.4568
    15.5115  15.5804  15.6739  15.7796  15.8279  15.9368  16.0986  16.1366
    16.1955  16.2849  16.3777  16.4346  16.5285  16.6014  16.6443  16.6733
    16.7826  16.8597  16.9523  16.9780  17.0965  17.1923  17.2392  17.2955
    17.3964  17.4684  17.5667  17.6850  17.7365  17.7874  17.8811  17.9626
    18.0125  18.0853  18.0932  18.2336  18.2682  18.3142  18.3704  18.4370
    18.5047  18.6092  18.6475  18.7001  18.7894  18.8905  18.9547  19.0469
    19.0839  19.2025  19.3088  19.3647  19.5058  19.5537  19.6267  19.6995
    19.7871  19.8587  19.9609  20.0444  20.1020  20.1878  20.2642  20.3264
    20.4285  20.5196  20.5498  20.6242  20.7082  20.7419  20.7701  20.8292
    20.8890  20.9618  21.0392  21.1155  21.1924  21.2475  21.2850  21.3321
    21.3716  21.4341  21.5126  21.5585  21.5948  21.6652  21.7741  21.8724
    21.9493  21.9863  22.0479  22.1197  22.1735  22.2207  22.3094  22.4021
    22.4236  22.4515  22.5047  22.5622  22.5996  22.6855  22.7164  22.7516
    22.7982  22.8140  22.8947  22.9339  23.0034  23.0512

          k = 0.2500-0.3828 0.0000 ( 29202 PWs)   bands (ev):

   -81.5169 -81.4701 -81.4245 -81.2735 -81.2329 -81.0752 -81.0493 -81.0100
   -43.6143 -43.4207 -43.4052 -43.4036 -43.3859 -43.3546 -43.3359 -43.3350
   -43.3027 -43.2488 -43.1852 -43.1848 -43.0886 -43.0511 -43.0215 -43.0006
   -42.9843 -42.9580 -42.9374 -42.9320 -42.8702 -42.7891 -42.7069 -42.5634
   -20.8864 -20.4537 -20.3031 -20.1907 -20.0391 -19.8543 -19.8507 -19.8167
   -19.7715 -19.6879 -19.5478 -19.4394 -19.3155 -19.0004 -18.9964 -18.8766
   -18.8332 -18.2413 -18.0277  -9.0169  -8.7244  -8.6609  -8.5911  -8.3645
    -8.1663  -8.0697  -8.0184  -7.9074  -7.8524  -7.7327  -7.6793  -7.6425
    -7.6156  -7.4667  -7.3685  -6.9477  -6.9272  -6.7883  -6.5966  -6.2910
    -5.9276  -5.8440  -5.7595  -5.6774  -5.6245  -5.5998  -5.5565  -5.4953
    -5.3632  -5.2430  -5.1625  -5.0113  -4.9753  -4.9485  -4.8553  -4.8173
    -4.7798  -4.6542  -4.5294  -4.4023  -4.2009  -3.9470  -3.8380  -3.7687
    -3.7604  -3.5780  -3.5307  -3.3652  -3.3582  -3.2548  -2.9970  -2.9071
    -2.7523  -2.6218  -2.5424  -2.2000  -1.9722  -1.8216  -1.6823  -1.2352
    -1.1825  -1.1123  -0.7921  -0.0449   0.2621   0.3481   0.6938   0.9189
     0.9525   1.0604   1.1239   1.2173   1.2715   1.3142   1.5635   1.7112
     1.9509   1.9613   2.0817   2.1757   2.2972   2.7610   2.7736   3.3277
     3.3916   3.7307   3.9641   4.2723   4.4592   4.6314   4.8931   5.0742
     5.2168   5.3423   5.3652   5.5395   5.9591   6.0916   6.1836   6.2738
     6.3642   6.5105   6.7336   6.7670   6.8592   6.9112   7.1355   7.2633
     7.5091   7.7577   7.8170   7.9401   8.0606   8.3779   8.4422   8.6400
     8.6865   8.7591   8.9382   9.0540   9.0873   9.1601   9.1972   9.3396
     9.5079   9.6826   9.7990   9.8894  10.0821  10.2372  10.3746  10.4228
    10.4760  10.5473  10.5689  10.6695  10.7665  10.8600  11.0562  11.1334
    11.2791  11.3407  11.3799  11.4388  11.7399  11.8219  11.9566  12.0146
    12.1507  12.1703  12.1968  12.2758  12.3062  12.3732  12.4726  12.5063
    12.6342  12.7112  12.7467  12.8055  13.0481  13.0917  13.2255  13.2745
    13.3901  13.4484  13.5982  13.6603  13.7417  13.7471  13.8392  13.9244
    13.9651  14.0231  14.0506  14.1110  14.1480  14.1534  14.2955  14.3321
    14.3804  14.4373  14.4826  14.5616  14.6015  14.6258  14.6862  14.7169
    14.7792  14.7916  14.8537  14.9038  14.9837  15.1649  15.2791  15.3915
    15.4300  15.4710  15.4889  15.5437  15.6003  15.6968  15.7544  15.8817
    15.8992  16.0067  16.0719  16.1290  16.1933  16.2894  16.3492  16.4133
    16.5506  16.6095  16.6576  16.7555  16.8843  16.9315  16.9869  17.0401
    17.2377  17.3808  17.4202  17.4813  17.5246  17.5956  17.6349  17.7753
    17.8227  17.8653  18.0204  18.0787  18.1847  18.2583  18.2883  18.4228
    18.4744  18.6076  18.7954  18.8811  18.9033  18.9987  19.1336  19.3004
    19.3752  19.3995  19.5739  19.6458  19.6843  19.7612  19.8300  19.8600
    19.9637  20.0030  20.0899  20.1469  20.2068  20.2656  20.2835  20.2966
    20.3640  20.4239  20.4408  20.5279  20.5924  20.7901  20.8768  20.9254
    21.0476  21.0596  21.1451  21.2331  21.2769  21.3061  21.3267  21.3985
    21.4064  21.4769  21.5347  21.5945  21.6796  21.7430  21.8147  21.8592
    21.8706  21.9118  21.9792  22.0264  22.1365  22.1640  22.2229  22.3005
    22.3584  22.4506  22.5004  22.5724  22.6178  22.6421  22.6730  22.7497
    22.7934  22.8613  22.8838  22.9629  23.0580  23.1222

          k =-0.5000 0.0000 0.0000 ( 29180 PWs)   bands (ev):

   -81.5064 -81.4806 -81.4235 -81.2575 -81.2489 -81.0764 -81.0307 -81.0286
   -43.3849 -43.3695 -43.3573 -43.3545 -43.3458 -43.3378 -43.3200 -43.2996
   -43.2214 -43.2120 -43.1828 -43.1212 -43.1095 -43.0518 -43.0366 -43.0266
   -42.9884 -42.9853 -42.9615 -42.9136 -42.9025 -42.8983 -42.8766 -42.8735
   -20.6059 -20.5695 -20.3293 -20.2550 -19.9441 -19.9327 -19.8789 -19.8385
   -19.4835 -19.4752 -19.3726 -19.3693 -19.3144 -19.2672 -19.0956 -19.0758
   -18.9355 -18.2230 -18.1830  -8.5544  -8.5075  -8.4463  -8.3364  -8.3353
    -8.2827  -8.2209  -8.1630  -7.9775  -7.9690  -7.4245  -7.4088  -7.3154
    -7.2736  -7.1267  -6.8991  -6.8896  -6.8056  -6.7098  -6.5192  -6.1748
    -6.0149  -5.9817  -5.9259  -5.8558  -5.8299  -5.8171  -5.6492  -5.5595
    -5.2545  -5.2465  -5.1443  -5.1344  -5.0752  -5.0294  -4.9807  -4.9532
    -4.7291  -4.6918  -4.6475  -4.5726  -4.5512  -4.2544  -4.0574  -4.0414
    -3.5053  -3.4937  -3.4617  -3.4193  -3.1787  -3.0998  -3.0820  -2.8912
    -2.8218  -2.8152  -2.8084  -2.1239  -0.9584  -0.9275  -0.8673  -0.7949
    -0.6849  -0.6456  -0.5339  -0.4849  -0.4036  -0.3790  -0.1552  -0.1315
     0.1745   0.3486   0.4355   0.5812   0.6974   0.7052   0.8270   1.0448
     1.4829   1.5012   1.7810   2.0769   2.1017   3.5292   3.8881   3.9888
     4.1905   4.3375   4.4297   4.4308   4.5362   4.6018   4.8055   4.8368
     4.9499   5.0937   5.2267   5.6126   5.7130   5.9731   6.1660   6.1762
     6.3938   6.5216   6.6710   6.7866   6.9162   7.0709   7.3355   7.4559
[...]
     Harris-Foulkes estimate   =   -2176.55896832 Ry
     estimated scf accuracy    <       0.00000275 Ry

     total magnetization       =     0.08 Bohr mag/cell
     absolute magnetization    =     0.09 Bohr mag/cell

     iteration # 70     ecut=    40.00 Ry     beta=0.70
     Davidson diagonalization with overlap
     ethr =  3.15E-11,  avg # of iterations =  2.0

     negative rho (up, down):  0.123E+00 0.124E+00

     total cpu time spent up to now is    87690.9 secs

     total energy              =   -2176.55896875 Ry
     Harris-Foulkes estimate   =   -2176.55896881 Ry
     estimated scf accuracy    <       0.00000515 Ry

     total magnetization       =     0.08 Bohr mag/cell
     absolute magnetization    =     0.09 Bohr mag/cell

     iteration # 71     ecut=    40.00 Ry     beta=0.70
     Davidson diagonalization with overlap
     ethr =  3.15E-11,  avg # of iterations =  2.0

     negative rho (up, down):  0.123E+00 0.124E+00

     total cpu time spent up to now is    88130.6 secs

     total energy              =   -2176.55896930 Ry
     Harris-Foulkes estimate   =   -2176.55896917 Ry
     estimated scf accuracy    <       0.00000344 Ry

     total magnetization       =     0.08 Bohr mag/cell
     absolute magnetization    =     0.10 Bohr mag/cell

     iteration # 72     ecut=    40.00 Ry     beta=0.70
     Davidson diagonalization with overlap
     ethr =  3.15E-11,  avg # of iterations =  2.0

     negative rho (up, down):  0.123E+00 0.124E+00

     total cpu time spent up to now is    88565.3 secs

     total energy              =   -2176.55896947 Ry
     Harris-Foulkes estimate   =   -2176.55897014 Ry
     estimated scf accuracy    <       0.00001803 Ry

     total magnetization       =     0.09 Bohr mag/cell
     absolute magnetization    =     0.10 Bohr mag/cell

     iteration # 73     ecut=    40.00 Ry     beta=0.70
     Davidson diagonalization with overlap
     ethr =  3.15E-11,  avg # of iterations =  2.0

     negative rho (up, down):  0.123E+00 0.124E+00

     total cpu time spent up to now is    88997.9 secs

     total energy              =   -2176.55896980 Ry
     Harris-Foulkes estimate   =   -2176.55897068 Ry
     estimated scf accuracy    <       0.00001535 Ry

     total magnetization       =     0.09 Bohr mag/cell
     absolute magnetization    =     0.10 Bohr mag/cell

     iteration # 74     ecut=    40.00 Ry     beta=0.70
     Davidson diagonalization with overlap
     ethr =  3.15E-11,  avg # of iterations =  2.0

     negative rho (up, down):  0.123E+00 0.124E+00

     total cpu time spent up to now is    89434.6 secs

     total energy              =   -2176.55897009 Ry
     Harris-Foulkes estimate   =   -2176.55897123 Ry
     estimated scf accuracy    <       0.00002281 Ry

     total magnetization       =     0.09 Bohr mag/cell
     absolute magnetization    =     0.10 Bohr mag/cell

     iteration # 75     ecut=    40.00 Ry     beta=0.70
     Davidson diagonalization with overlap
     ethr =  3.15E-11,  avg # of iterations =  2.0

     negative rho (up, down):  0.123E+00 0.124E+00

     total cpu time spent up to now is    89878.8 secs

     total energy              =   -2176.55897108 Ry
     Harris-Foulkes estimate   =   -2176.55897140 Ry
     estimated scf accuracy    <       0.00000707 Ry

     total magnetization       =     0.09 Bohr mag/cell
     absolute magnetization    =     0.11 Bohr mag/cell

     iteration # 76     ecut=    40.00 Ry     beta=0.70
     Davidson diagonalization with overlap
     ethr =  3.15E-11,  avg # of iterations =  2.0

     negative rho (up, down):  0.123E+00 0.124E+00

     total cpu time spent up to now is    90312.4 secs

     total energy              =   -2176.55897168 Ry
     Harris-Foulkes estimate   =   -2176.55897160 Ry
     estimated scf accuracy    <       0.00000337 Ry

     total magnetization       =     0.10 Bohr mag/cell
     absolute magnetization    =     0.11 Bohr mag/cell

     iteration # 77     ecut=    40.00 Ry     beta=0.70
     Davidson diagonalization with overlap
     ethr =  3.15E-11,  avg # of iterations =  2.0

     negative rho (up, down):  0.123E+00 0.124E+00

     total cpu time spent up to now is    90720.2 secs

     total energy              =   -2176.55897212 Ry
     Harris-Foulkes estimate   =   -2176.55897190 Ry
     estimated scf accuracy    <       0.00000289 Ry

     total magnetization       =     0.10 Bohr mag/cell
     absolute magnetization    =     0.11 Bohr mag/cell

     iteration # 78     ecut=    40.00 Ry     beta=0.70
     Davidson diagonalization with overlap
     ethr =  3.15E-11,  avg # of iterations =  2.0

     negative rho (up, down):  0.123E+00 0.124E+00

     total cpu time spent up to now is    91154.0 secs

     total energy              =   -2176.55897262 Ry
     Harris-Foulkes estimate   =   -2176.55897276 Ry
     estimated scf accuracy    <       0.00000806 Ry

     total magnetization       =     0.10 Bohr mag/cell
     absolute magnetization    =     0.12 Bohr mag/cell

     iteration # 79     ecut=    40.00 Ry     beta=0.70
     Davidson diagonalization with overlap
     ethr =  3.15E-11,  avg # of iterations =  2.0

     negative rho (up, down):  0.123E+00 0.124E+00

     total cpu time spent up to now is    91597.3 secs

     total energy              =   -2176.55897354 Ry
     Harris-Foulkes estimate   =   -2176.55897350 Ry
     estimated scf accuracy    <       0.00000699 Ry

     total magnetization       =     0.10 Bohr mag/cell
     absolute magnetization    =     0.12 Bohr mag/cell

     iteration # 80     ecut=    40.00 Ry     beta=0.70
     Davidson diagonalization with overlap
     ethr =  3.15E-11,  avg # of iterations =  2.0

     negative rho (up, down):  0.123E+00 0.124E+00

     total cpu time spent up to now is    92048.0 secs

     total energy              =   -2176.55897461 Ry
     Harris-Foulkes estimate   =   -2176.55897461 Ry
     estimated scf accuracy    <       0.00000953 Ry

     total magnetization       =     0.11 Bohr mag/cell
     absolute magnetization    =     0.12 Bohr mag/cell

     iteration # 81     ecut=    40.00 Ry     beta=0.70
     Davidson diagonalization with overlap
     ethr =  3.15E-11,  avg # of iterations =  2.0

     negative rho (up, down):  0.123E+00 0.124E+00

     total cpu time spent up to now is    92505.5 secs

     total energy              =   -2176.55897572 Ry
     Harris-Foulkes estimate   =   -2176.55897588 Ry
     estimated scf accuracy    <       0.00000814 Ry

     total magnetization       =     0.11 Bohr mag/cell
     absolute magnetization    =     0.13 Bohr mag/cell

     iteration # 82     ecut=    40.00 Ry     beta=0.70
     Davidson diagonalization with overlap
     ethr =  3.15E-11,  avg # of iterations =  2.1

     negative rho (up, down):  0.123E+00 0.124E+00

     total cpu time spent up to now is    92952.7 secs

     total energy              =   -2176.55897619 Ry
     Harris-Foulkes estimate   =   -2176.55897687 Ry
     estimated scf accuracy    <       0.00002188 Ry

     total magnetization       =     0.12 Bohr mag/cell
     absolute magnetization    =     0.13 Bohr mag/cell

     iteration # 83     ecut=    40.00 Ry     beta=0.70
     Davidson diagonalization with overlap
     ethr =  3.15E-11,  avg # of iterations =  2.0

     negative rho (up, down):  0.123E+00 0.124E+00

     total cpu time spent up to now is    93392.7 secs

     total energy              =   -2176.55897666 Ry
     Harris-Foulkes estimate   =   -2176.55897722 Ry
     estimated scf accuracy    <       0.00001176 Ry

     total magnetization       =     0.12 Bohr mag/cell
     absolute magnetization    =     0.14 Bohr mag/cell

     iteration # 84     ecut=    40.00 Ry     beta=0.70
     Davidson diagonalization with overlap
     ethr =  3.15E-11,  avg # of iterations =  2.0

     negative rho (up, down):  0.123E+00 0.124E+00

     total cpu time spent up to now is    93820.9 secs

     total energy              =   -2176.55897721 Ry
     Harris-Foulkes estimate   =   -2176.55897740 Ry
     estimated scf accuracy    <       0.00001006 Ry

     total magnetization       =     0.12 Bohr mag/cell
     absolute magnetization    =     0.14 Bohr mag/cell

     iteration # 85     ecut=    40.00 Ry     beta=0.70
     Davidson diagonalization with overlap
     ethr =  3.15E-11,  avg # of iterations =  2.0

     negative rho (up, down):  0.123E+00 0.124E+00

     total cpu time spent up to now is    94230.0 secs

     total energy              =   -2176.55897780 Ry
     Harris-Foulkes estimate   =   -2176.55897764 Ry
     estimated scf accuracy    <       0.00000447 Ry

     total magnetization       =     0.12 Bohr mag/cell
     absolute magnetization    =     0.14 Bohr mag/cell

     iteration # 86     ecut=    40.00 Ry     beta=0.70
     Davidson diagonalization with overlap
     ethr =  3.15E-11,  avg # of iterations =  2.0

     negative rho (up, down):  0.123E+00 0.124E+00

     total cpu time spent up to now is    94661.5 secs

     total energy              =   -2176.55897893 Ry
     Harris-Foulkes estimate   =   -2176.55897837 Ry
     estimated scf accuracy    <       0.00000746 Ry

     total magnetization       =     0.12 Bohr mag/cell
     absolute magnetization    =     0.14 Bohr mag/cell

     iteration # 87     ecut=    40.00 Ry     beta=0.70
     Davidson diagonalization with overlap
     ethr =  3.15E-11,  avg # of iterations =  2.5

     negative rho (up, down):  0.123E+00 0.124E+00

     total cpu time spent up to now is    95129.7 secs

     total energy              =   -2176.55897965 Ry
     Harris-Foulkes estimate   =   -2176.55898130 Ry
     estimated scf accuracy    <       0.00002528 Ry

     total magnetization       =     0.13 Bohr mag/cell
     absolute magnetization    =     0.15 Bohr mag/cell

     iteration # 88     ecut=    40.00 Ry     beta=0.70
     Davidson diagonalization with overlap
     ethr =  3.15E-11,  avg # of iterations =  2.1

     negative rho (up, down):  0.123E+00 0.124E+00

     total cpu time spent up to now is    95580.7 secs

     total energy              =   -2176.55898220 Ry
     Harris-Foulkes estimate   =   -2176.55898177 Ry
     estimated scf accuracy    <       0.00000900 Ry

     total magnetization       =     0.13 Bohr mag/cell
     absolute magnetization    =     0.16 Bohr mag/cell

     iteration # 89     ecut=    40.00 Ry     beta=0.70
     Davidson diagonalization with overlap
     ethr =  3.15E-11,  avg # of iterations =  2.8

     negative rho (up, down):  0.123E+00 0.124E+00

     total cpu time spent up to now is    96056.6 secs

     total energy              =   -2176.55898337 Ry
     Harris-Foulkes estimate   =   -2176.55898341 Ry
     estimated scf accuracy    <       0.00001041 Ry

     total magnetization       =     0.14 Bohr mag/cell
     absolute magnetization    =     0.16 Bohr mag/cell

     iteration # 90     ecut=    40.00 Ry     beta=0.70
     Davidson diagonalization with overlap
     ethr =  3.15E-11,  avg # of iterations =  2.0

     negative rho (up, down):  0.123E+00 0.124E+00

     total cpu time spent up to now is    96511.3 secs

     total energy              =   -2176.55898473 Ry
     Harris-Foulkes estimate   =   -2176.55898462 Ry
     estimated scf accuracy    <       0.00001026 Ry

     total magnetization       =     0.14 Bohr mag/cell
     absolute magnetization    =     0.17 Bohr mag/cell

     iteration # 91     ecut=    40.00 Ry     beta=0.70
     Davidson diagonalization with overlap
     ethr =  3.15E-11,  avg # of iterations =  2.0

     negative rho (up, down):  0.123E+00 0.124E+00

     total cpu time spent up to now is    96960.1 secs

     total energy              =   -2176.55898590 Ry
     Harris-Foulkes estimate   =   -2176.55898558 Ry
     estimated scf accuracy    <       0.00000683 Ry

     total magnetization       =     0.15 Bohr mag/cell
     absolute magnetization    =     0.17 Bohr mag/cell

     iteration # 92     ecut=    40.00 Ry     beta=0.70
     Davidson diagonalization with overlap
     ethr =  3.15E-11,  avg # of iterations =  2.0

     negative rho (up, down):  0.123E+00 0.124E+00

     total cpu time spent up to now is    97396.3 secs

     total energy              =   -2176.55898606 Ry
     Harris-Foulkes estimate   =   -2176.55898682 Ry
     estimated scf accuracy    <       0.00002536 Ry

     total magnetization       =     0.15 Bohr mag/cell
     absolute magnetization    =     0.17 Bohr mag/cell

     iteration # 93     ecut=    40.00 Ry     beta=0.70
     Davidson diagonalization with overlap
     ethr =  3.15E-11,  avg # of iterations =  2.0

     negative rho (up, down):  0.123E+00 0.124E+00

     total cpu time spent up to now is    97854.2 secs

     total energy              =   -2176.55898637 Ry
     Harris-Foulkes estimate   =   -2176.55898754 Ry
     estimated scf accuracy    <       0.00002571 Ry

     total magnetization       =     0.15 Bohr mag/cell
     absolute magnetization    =     0.18 Bohr mag/cell

     iteration # 94     ecut=    40.00 Ry     beta=0.70
     Davidson diagonalization with overlap
     ethr =  3.15E-11,  avg # of iterations =  2.0

     negative rho (up, down):  0.123E+00 0.124E+00

     total cpu time spent up to now is    98310.4 secs

     total energy              =   -2176.55898785 Ry
     Harris-Foulkes estimate   =   -2176.55898837 Ry
     estimated scf accuracy    <       0.00002939 Ry

     total magnetization       =     0.15 Bohr mag/cell
     absolute magnetization    =     0.18 Bohr mag/cell

     iteration # 95     ecut=    40.00 Ry     beta=0.70
     Davidson diagonalization with overlap
     ethr =  3.15E-11,  avg # of iterations =  3.0

     negative rho (up, down):  0.123E+00 0.124E+00

     total cpu time spent up to now is    98818.8 secs

     total energy              =   -2176.55898962 Ry
     Harris-Foulkes estimate   =   -2176.55899143 Ry
     estimated scf accuracy    <       0.00003090 Ry

     total magnetization       =     0.16 Bohr mag/cell
     absolute magnetization    =     0.19 Bohr mag/cell

     iteration # 96     ecut=    40.00 Ry     beta=0.70
     Davidson diagonalization with overlap
     ethr =  3.15E-11,  avg # of iterations =  3.0

     negative rho (up, down):  0.123E+00 0.124E+00

     total cpu time spent up to now is    99324.2 secs

     total energy              =   -2176.55899256 Ry
     Harris-Foulkes estimate   =   -2176.55899337 Ry
     estimated scf accuracy    <       0.00001821 Ry

     total magnetization       =     0.17 Bohr mag/cell
     absolute magnetization    =     0.19 Bohr mag/cell

     iteration # 97     ecut=    40.00 Ry     beta=0.70
     Davidson diagonalization with overlap
     ethr =  3.15E-11,  avg # of iterations =  2.1

     negative rho (up, down):  0.123E+00 0.124E+00

     total cpu time spent up to now is    99781.7 secs

     total energy              =   -2176.55899512 Ry
     Harris-Foulkes estimate   =   -2176.55899430 Ry
     estimated scf accuracy    <       0.00001140 Ry

     total magnetization       =     0.17 Bohr mag/cell
     absolute magnetization    =     0.20 Bohr mag/cell

     iteration # 98     ecut=    40.00 Ry     beta=0.70
     Davidson diagonalization with overlap
     ethr =  3.15E-11,  avg # of iterations =  3.0

     negative rho (up, down):  0.123E+00 0.124E+00

     total cpu time spent up to now is   100269.1 secs

     total energy              =   -2176.55899712 Ry
     Harris-Foulkes estimate   =   -2176.55899650 Ry
     estimated scf accuracy    <       0.00001265 Ry

     total magnetization       =     0.18 Bohr mag/cell
     absolute magnetization    =     0.21 Bohr mag/cell

     iteration # 99     ecut=    40.00 Ry     beta=0.70
     Davidson diagonalization with overlap
     ethr =  3.15E-11,  avg # of iterations =  2.4

     negative rho (up, down):  0.123E+00 0.124E+00

     total cpu time spent up to now is   100736.2 secs

     total energy              =   -2176.55899853 Ry
     Harris-Foulkes estimate   =   -2176.55899873 Ry
     estimated scf accuracy    <       0.00001813 Ry

     total magnetization       =     0.18 Bohr mag/cell
     absolute magnetization    =     0.21 Bohr mag/cell

     iteration #100     ecut=    40.00 Ry     beta=0.70
     Davidson diagonalization with overlap
     ethr =  3.15E-11,  avg # of iterations =  2.0

     negative rho (up, down):  0.123E+00 0.124E+00

     total cpu time spent up to now is   101189.1 secs

     total energy              =   -2176.55900117 Ry
     Harris-Foulkes estimate   =   -2176.55899980 Ry
     estimated scf accuracy    <       0.00001146 Ry

     total magnetization       =     0.19 Bohr mag/cell
     absolute magnetization    =     0.22 Bohr mag/cell

     End of self-consistent calculation

     convergence NOT achieved after 100 iterations: stopping

     init_run     :    112.91s CPU    146.60s WALL (       1 calls)
     electrons    :  77611.62s CPU 100229.86s WALL (       8 calls)
     update_pot   :     45.49s CPU     54.11s WALL (       7 calls)
     forces       :    572.78s CPU    590.56s WALL (       7 calls)

     Called by init_run:
     wfcinit      :     82.96s CPU    114.37s WALL (       1 calls)
     potinit      :      2.89s CPU      3.83s WALL (       1 calls)

     Called by electrons:
     c_bands      :  59601.35s CPU  77530.35s WALL (     237 calls)
     sum_band     :  12274.38s CPU  16464.71s WALL (     237 calls)
     v_of_rho     :    246.29s CPU    400.40s WALL (     242 calls)
     newd         :   5537.55s CPU   5688.05s WALL (     242 calls)
     mix_rho      :     49.48s CPU     85.49s WALL (     237 calls)

     Called by c_bands:
     init_us_2    :     85.55s CPU     86.27s WALL (    9640 calls)
     cegterg      :  59097.24s CPU  77023.67s WALL (    4740 calls)

     Called by *egterg:
     h_psi        :  30869.66s CPU  46564.28s WALL (   13351 calls)
     s_psi        :   2676.70s CPU   2678.47s WALL (   13351 calls)
     g_psi        :     45.32s CPU     45.36s WALL (    8591 calls)
     cdiaghg      :  14117.72s CPU  14603.61s WALL (   13131 calls)

     Called by h_psi:
     add_vuspsi   :   2698.45s CPU   2708.27s WALL (   13351 calls)

     General routines
     calbec       :   4265.93s CPU   4715.57s WALL (   18231 calls)
     fft          :    543.34s CPU   1012.53s WALL (    7583 calls)
     ffts         :      7.73s CPU     14.57s WALL (     958 calls)
     fftw         :  27829.92s CPU  46948.57s WALL ( 8896448 calls)
     interpolate  :     53.75s CPU     97.39s WALL (     958 calls)
     davcio       :      0.00s CPU      0.12s WALL (      20 calls)

     Parallel routines
     fft_scatter  :  20465.86s CPU  39950.32s WALL ( 8904989 calls)

     PWSCF        :     0d   21h48m CPU        1d    4h 6m WALL


   This run was terminated on:  17:46: 9   2Apr2014            

=------------------------------------------------------------------------------=
   JOB DONE.
=------------------------------------------------------------------------------=
STOP 1
STOP 1
STOP 1
STOP 1
STOP 1
STOP 1
STOP 1
STOP 1
STOP 1
STOP 1
STOP 1
STOP 1
STOP 1
STOP 1
STOP 1
STOP 1
--------------------------------------------------------------------------
mpirun noticed that the job aborted, but has no info as to the process
that caused that situation.
--------------------------------------------------------------------------
---------------------------------------
Running PBS batch system epilogue script
Job id: 320672.audhumbla.fysik.dtu.dk
Username: zhonxu
Groupname: campgst
Jobname: ReO2/Eads-2-layers/OH-relax-surf
Sessionid: 25241
Resources limits: neednodes=2:ppn=8:xeon8,nodes=2:ppn=8:xeon8,walltime=48:00:00
Resources used: cput=449:26:43,mem=10034904kb,vmem=13418880kb,walltime=28:06:55
Queuename: verylong
Accounting:
This job has allocated the following 16 nodes:
a118 a118 a118 a118 a118 a118 a118 a118 a087 a087 a087 a087 a087 a087 a087 a087
Finished epilogue job 320672.audhumbla.fysik.dtu.dk for zhonxu
