
     Program PWSCF v.5.0.2 (svn rev. 9656) starts on  7Apr2014 at 21:34: 4 

     This program is part of the open-source Quantum ESPRESSO suite
     for quantum simulation of materials; please cite
         "P. Giannozzi et al., J. Phys.:Condens. Matter 21 395502 (2009);
          URL http://www.quantum-espresso.org", 
     in publications or presentations arising from this work. More details at
     http://www.quantum-espresso.org/quote.php

     Parallel version (MPI), running on    16 processors
     R & G space division:  proc/nbgrp/npool/nimage =      16

     Current dimensions of program PWSCF are:
     Max number of different atomic species (ntypx) = 10
     Max number of k-points (npk) =  40000
     Max angular momentum in pseudopotentials (lmaxx) =  3
     Reading input from pwscf.in
Warning: card &CELL ignored
Warning: card / ignored

     Subspace diagonalization in iterative solution of the eigenvalue problem:
     a serial algorithm will be used


     Parallelization info
     --------------------
     sticks:   dense  smooth     PW     G-vecs:    dense   smooth      PW
     Min         333     107     29                80655    14597    2175
     Max         334     108     30                80662    14631    2190
     Sum        5335    1713    477              1290557   233813   34969



     bravais-lattice index     =            0
     lattice parameter (alat)  =      10.1289  a.u.
     unit-cell volume          =    6836.7721 (a.u.)^3
     number of atoms/cell      =           32
     number of atomic types    =            3
     number of electrons       =       239.00
     number of Kohn-Sham states=          358
     kinetic-energy cutoff     =      40.0000  Ry
     charge density cutoff     =     500.0000  Ry
     convergence threshold     =      1.0E-06
     mixing beta               =       0.3000
     number of iterations used =            8  plain     mixing
     Exchange-correlation      = SLA  PW   PBE  PBE ( 1 4 3 4 0)
     EXX-fraction              =        0.00
     nstep                     =           50


     celldm(1)=  10.128932  celldm(2)=   0.000000  celldm(3)=   0.000000
     celldm(4)=   0.000000  celldm(5)=   0.000000  celldm(6)=   0.000000

     crystal axes: (cart. coord. in units of alat)
               a(1) = (   1.000000   0.000000   0.000000 )  
               a(2) = (   0.000000   1.306037   0.000000 )  
               a(3) = (   0.000000   0.000000   5.037380 )  

     reciprocal axes: (cart. coord. in units 2 pi/alat)
               b(1) = (  1.000000  0.000000  0.000000 )  
               b(2) = (  0.000000  0.765675  0.000000 )  
               b(3) = (  0.000000  0.000000  0.198516 )  


     PseudoPot. # 1 for O  read from file:
     /home/camp/zhonxu/pseudo/o_pbe_v1.01.uspp.F.UPF
     MD5 check sum: 2bcb18d16ea4b960afae9ec6d52f22d2
     Pseudo is Ultrasoft + core correction, Zval =  6.0
     Generated by new atomic code, or converted to UPF format
     Using radial grid of  737 points,  5 beta functions with: 
                l(1) =   0
                l(2) =   0
                l(3) =   1
                l(4) =   1
                l(5) =   2
     Q(r) pseudized with  8 coefficients,  rinner =    0.900   0.900   0.900
                                                       0.900   0.900

     PseudoPot. # 2 for Re read from file:
     /home/camp/zhonxu/pseudo/re_pbe_v1.uspp.F.UPF
     MD5 check sum: 6f5a5dcaf9c96c20d0ffdde0de57afc6
     Pseudo is Ultrasoft + core correction, Zval = 15.0
     Generated by new atomic code, or converted to UPF format
     Using radial grid of  981 points,  8 beta functions with: 
                l(1) =   0
                l(2) =   0
                l(3) =   1
                l(4) =   1
                l(5) =   2
                l(6) =   2
                l(7) =   3
                l(8) =   3
     Q(r) pseudized with  8 coefficients,  rinner =    1.000   1.000   1.000
                                                       1.000   1.000   1.000
                                                       1.000

     PseudoPot. # 3 for H  read from file:
     /home/camp/zhonxu/pseudo/h_pbe_v1.uspp.F.UPF
     MD5 check sum: 3408e3ff4ec8b0a4e358431e7e038a48
     Pseudo is Ultrasoft, Zval =  1.0
     Generated by new atomic code, or converted to UPF format
     Using radial grid of  615 points,  2 beta functions with: 
                l(1) =   0
                l(2) =   0
     Q(r) pseudized with  8 coefficients,  rinner =    0.700

     atomic species   valence    mass     pseudopotential
        O0             6.00    15.99940     O ( 1.00)
        Re1           15.00   186.20700     Re( 1.00)
        H2             1.00     1.00794     H ( 1.00)

     Starting magnetic structure 
     atomic species   magnetization
        O0           0.000
        Re1          0.000
        H2           0.000

     No symmetry found



   Cartesian axes

     site n.     atom                  positions (alat units)
         1           O0  tau(   1) = (   0.0000000   0.0000000   1.8690191  )
         2           O0  tau(   2) = (   0.0000000   0.6530184   1.9227680  )
         3           Re1 tau(   3) = (   0.2500000   0.6530184   2.2233988  )
         4           Re1 tau(   4) = (   0.0000000   0.0000000   2.2355893  )
         5           O0  tau(   5) = (   0.2500000   1.0187087   2.2257664  )
         6           O0  tau(   6) = (   0.2500000   0.2873281   2.2253130  )
         7           O0  tau(   7) = (   0.0000000   0.6530184   2.5021171  )
         8           O0  tau(   8) = (   0.0000000   0.0000000   2.5963161  )
         9           Re1 tau(   9) = (   0.2500000   0.0000000   2.8976018  )
        10           Re1 tau(  10) = (   0.0000000   0.6530184   2.8515601  )
        11           O0  tau(  11) = (   0.2500000   0.9403465   2.8864188  )
        12           O0  tau(  12) = (   0.2500000   0.3656903   2.8866203  )
        13           O0  tau(  13) = (   0.0000000   0.0000000   3.1612582  )
        14           O0  tau(  14) = (   0.5000000   0.0000000   1.8690695  )
        15           O0  tau(  15) = (   0.5000000   0.6530184   1.9241281  )
        16           Re1 tau(  16) = (   0.7500000   0.6530184   2.2236003  )
        17           Re1 tau(  17) = (   0.5000000   0.0000000   2.2348337  )
        18           O0  tau(  18) = (   0.7500000   1.0187087   2.2255649  )
        19           O0  tau(  19) = (   0.7500000   0.2873281   2.2255145  )
        20           O0  tau(  20) = (   0.5000000   0.6530184   2.5116881  )
        21           O0  tau(  21) = (   0.5000000   0.0000000   2.5956612  )
        22           Re1 tau(  22) = (   0.7500000   0.0000000   2.8971988  )
        23           Re1 tau(  23) = (   0.5000000   0.6530184   2.8816333  )
        24           O0  tau(  24) = (   0.7500000   0.9403465   2.8817844  )
        25           O0  tau(  25) = (   0.7500000   0.3656903   2.8817844  )
        26           O0  tau(  26) = (   0.5000000   0.0000000   3.1582358  )
        27           H2  tau(  27) = (  -0.0003900   0.8171089   1.8390467  )
        28           H2  tau(  28) = (   0.4996300   0.8158289   1.8379889  )
        29           H2  tau(  29) = (   0.1695500   0.0290071   1.7976394  )
        30           H2  tau(  30) = (   0.6700400   0.0285761   1.7980424  )
        31           O0  tau(  31) = (   0.5299700   0.6525090   3.2404458  )
        32           H2  tau(  32) = (   0.3780900   0.6523262   3.3425535  )

     number of k points=    20  Methfessel-Paxton smearing, width (Ry)=  0.0100
                       cart. coord. in units 2pi/alat
        k(    1) = (   0.0000000   0.0000000   0.0000000), wk =   0.0625000
        k(    2) = (   0.0000000   0.1914188   0.0000000), wk =   0.1250000
        k(    3) = (   0.0000000  -0.3828376   0.0000000), wk =   0.0625000
        k(    4) = (   0.2500000   0.0000000   0.0000000), wk =   0.1250000
        k(    5) = (   0.2500000   0.1914188   0.0000000), wk =   0.1250000
        k(    6) = (   0.2500000  -0.3828376   0.0000000), wk =   0.1250000
        k(    7) = (  -0.5000000   0.0000000   0.0000000), wk =   0.0625000
        k(    8) = (  -0.5000000   0.1914188   0.0000000), wk =   0.1250000
        k(    9) = (  -0.5000000  -0.3828376   0.0000000), wk =   0.0625000
        k(   10) = (  -0.2500000   0.1914188   0.0000000), wk =   0.1250000
        k(   11) = (   0.0000000   0.0000000   0.0000000), wk =   0.0625000
        k(   12) = (   0.0000000   0.1914188   0.0000000), wk =   0.1250000
        k(   13) = (   0.0000000  -0.3828376   0.0000000), wk =   0.0625000
        k(   14) = (   0.2500000   0.0000000   0.0000000), wk =   0.1250000
        k(   15) = (   0.2500000   0.1914188   0.0000000), wk =   0.1250000
        k(   16) = (   0.2500000  -0.3828376   0.0000000), wk =   0.1250000
        k(   17) = (  -0.5000000   0.0000000   0.0000000), wk =   0.0625000
        k(   18) = (  -0.5000000   0.1914188   0.0000000), wk =   0.1250000
        k(   19) = (  -0.5000000  -0.3828376   0.0000000), wk =   0.0625000
        k(   20) = (  -0.2500000   0.1914188   0.0000000), wk =   0.1250000

     Dense  grid:  1290557 G-vectors     FFT dimensions: (  75,  96, 375)

     Smooth grid:   233813 G-vectors     FFT dimensions: (  45,  54, 216)

     Largest allocated arrays     est. size (Mb)     dimensions
        Kohn-Sham Wavefunctions        10.12 Mb     (   1853,  358)
        NL pseudopotentials            14.50 Mb     (   1853,  513)
        Each V/rho on FFT grid          5.27 Mb     ( 172800,   2)
        Each G-vector array             0.62 Mb     (  80661)
        G-vector shells                 0.30 Mb     (  39292)
     Largest temporary arrays     est. size (Mb)     dimensions
        Auxiliary wavefunctions        40.49 Mb     (   1853, 1432)
        Each subspace H/S matrix       31.29 Mb     (1432,1432)
        Each <psi_i|beta_j> matrix      2.80 Mb     (    513,  358)
        Arrays for rho mixing          21.09 Mb     ( 172800,   8)

     Check: negative/imaginary core charge=   -0.000003    0.000000

     Initial potential from superposition of free atoms
     Check: negative starting charge=(component1):   -0.118645
     Check: negative starting charge=(component2):   -0.118645

     starting charge  234.99957, renormalised to  239.00000

     negative rho (up, down):  0.121E+00 0.121E+00
     Starting wfc are  185 randomized atomic wfcs

     total cpu time spent up to now is      149.9 secs

     per-process dynamical memory:   354.3 Mb

     Self-consistent Calculation

     iteration #  1     ecut=    40.00 Ry     beta=0.30
     Davidson diagonalization with overlap
     ethr =  1.00E-02,  avg # of iterations =  6.2

     negative rho (up, down):  0.130E+00 0.130E+00

     total cpu time spent up to now is     1287.1 secs

     total energy              =   -2173.18036555 Ry
     Harris-Foulkes estimate   =   -2178.21571370 Ry
     estimated scf accuracy    <      10.80774790 Ry

     total magnetization       =    -0.00 Bohr mag/cell
     absolute magnetization    =     0.00 Bohr mag/cell

     iteration #  2     ecut=    40.00 Ry     beta=0.30
     Davidson diagonalization with overlap
     ethr =  4.52E-03,  avg # of iterations =  4.2

     negative rho (up, down):  0.129E+00 0.129E+00

     total cpu time spent up to now is     1837.0 secs

     total energy              =   -2161.52586018 Ry
     Harris-Foulkes estimate   =   -2188.13089330 Ry
     estimated scf accuracy    <     408.45891968 Ry

     total magnetization       =    -0.00 Bohr mag/cell
     absolute magnetization    =     0.00 Bohr mag/cell

     iteration #  3     ecut=    40.00 Ry     beta=0.30
     Davidson diagonalization with overlap
     ethr =  4.52E-03,  avg # of iterations =  3.5

     negative rho (up, down):  0.126E+00 0.126E+00

     total cpu time spent up to now is     2357.2 secs

     total energy              =   -2176.10532756 Ry
     Harris-Foulkes estimate   =   -2177.00255711 Ry
     estimated scf accuracy    <      11.19563444 Ry

     total magnetization       =     0.00 Bohr mag/cell
     absolute magnetization    =     0.00 Bohr mag/cell

     iteration #  4     ecut=    40.00 Ry     beta=0.30
     Davidson diagonalization with overlap
     ethr =  4.52E-03,  avg # of iterations =  1.1

     negative rho (up, down):  0.126E+00 0.126E+00

     total cpu time spent up to now is     2734.8 secs

     total energy              =   -2176.38605270 Ry
     Harris-Foulkes estimate   =   -2176.94365883 Ry
     estimated scf accuracy    <       4.46938156 Ry

     total magnetization       =     0.00 Bohr mag/cell
     absolute magnetization    =     0.00 Bohr mag/cell

     iteration #  5     ecut=    40.00 Ry     beta=0.30
     Davidson diagonalization with overlap
     ethr =  1.87E-03,  avg # of iterations =  1.1

     negative rho (up, down):  0.127E+00 0.127E+00

     total cpu time spent up to now is     3118.8 secs

     total energy              =   -2176.57907661 Ry
     Harris-Foulkes estimate   =   -2176.61791172 Ry
     estimated scf accuracy    <       0.41097826 Ry

     total magnetization       =     0.00 Bohr mag/cell
     absolute magnetization    =     0.00 Bohr mag/cell

     iteration #  6     ecut=    40.00 Ry     beta=0.30
     Davidson diagonalization with overlap
     ethr =  1.72E-04,  avg # of iterations =  6.3

     negative rho (up, down):  0.126E+00 0.126E+00

     total cpu time spent up to now is     3662.9 secs

     total energy              =   -2176.54867182 Ry
     Harris-Foulkes estimate   =   -2176.59205917 Ry
     estimated scf accuracy    <       0.35119680 Ry

     total magnetization       =     0.00 Bohr mag/cell
     absolute magnetization    =     0.00 Bohr mag/cell

     iteration #  7     ecut=    40.00 Ry     beta=0.30
     Davidson diagonalization with overlap
     ethr =  1.47E-04,  avg # of iterations =  1.6

     negative rho (up, down):  0.125E+00 0.125E+00

     total cpu time spent up to now is     4055.6 secs

     total energy              =   -2176.54051465 Ry
     Harris-Foulkes estimate   =   -2176.57984671 Ry
     estimated scf accuracy    <       0.35142871 Ry

     total magnetization       =     0.00 Bohr mag/cell
     absolute magnetization    =     0.00 Bohr mag/cell

     iteration #  8     ecut=    40.00 Ry     beta=0.30
     Davidson diagonalization with overlap
     ethr =  1.47E-04,  avg # of iterations =  2.2

     negative rho (up, down):  0.124E+00 0.124E+00

     total cpu time spent up to now is     4463.2 secs

     total energy              =   -2176.55416172 Ry
     Harris-Foulkes estimate   =   -2176.56244424 Ry
     estimated scf accuracy    <       0.06029309 Ry

     total magnetization       =     0.00 Bohr mag/cell
     absolute magnetization    =     0.00 Bohr mag/cell

     iteration #  9     ecut=    40.00 Ry     beta=0.30
     Davidson diagonalization with overlap
     ethr =  2.52E-05,  avg # of iterations =  6.2

     negative rho (up, down):  0.124E+00 0.124E+00

     total cpu time spent up to now is     5015.6 secs

     total energy              =   -2176.55684836 Ry
     Harris-Foulkes estimate   =   -2176.55994266 Ry
     estimated scf accuracy    <       0.02491583 Ry

     total magnetization       =     0.00 Bohr mag/cell
     absolute magnetization    =     0.00 Bohr mag/cell

     iteration # 10     ecut=    40.00 Ry     beta=0.30
     Davidson diagonalization with overlap
     ethr =  1.04E-05,  avg # of iterations =  1.2

     negative rho (up, down):  0.124E+00 0.124E+00

     total cpu time spent up to now is     5394.0 secs

     total energy              =   -2176.55681829 Ry
     Harris-Foulkes estimate   =   -2176.56149766 Ry
     estimated scf accuracy    <       0.05935796 Ry

     total magnetization       =     0.00 Bohr mag/cell
     absolute magnetization    =     0.00 Bohr mag/cell

     iteration # 11     ecut=    40.00 Ry     beta=0.30
     Davidson diagonalization with overlap
     ethr =  1.04E-05,  avg # of iterations =  1.0

     negative rho (up, down):  0.124E+00 0.124E+00

     total cpu time spent up to now is     5761.7 secs

     total energy              =   -2176.55886065 Ry
     Harris-Foulkes estimate   =   -2176.55897003 Ry
     estimated scf accuracy    <       0.00121003 Ry

     total magnetization       =     0.00 Bohr mag/cell
     absolute magnetization    =     0.00 Bohr mag/cell

     iteration # 12     ecut=    40.00 Ry     beta=0.30
     Davidson diagonalization with overlap
     ethr =  5.06E-07,  avg # of iterations =  4.2

     negative rho (up, down):  0.124E+00 0.124E+00

     total cpu time spent up to now is     6219.9 secs

     total energy              =   -2176.55892919 Ry
     Harris-Foulkes estimate   =   -2176.55896343 Ry
     estimated scf accuracy    <       0.00035855 Ry

     total magnetization       =     0.00 Bohr mag/cell
     absolute magnetization    =     0.00 Bohr mag/cell

     iteration # 13     ecut=    40.00 Ry     beta=0.30
     Davidson diagonalization with overlap
     ethr =  1.50E-07,  avg # of iterations =  1.0

     negative rho (up, down):  0.123E+00 0.123E+00

     total cpu time spent up to now is     6593.1 secs

     total energy              =   -2176.55893329 Ry
     Harris-Foulkes estimate   =   -2176.55897011 Ry
     estimated scf accuracy    <       0.00026272 Ry

     total magnetization       =     0.00 Bohr mag/cell
     absolute magnetization    =     0.00 Bohr mag/cell

     iteration # 14     ecut=    40.00 Ry     beta=0.30
     Davidson diagonalization with overlap
     ethr =  1.10E-07,  avg # of iterations =  1.0

     negative rho (up, down):  0.123E+00 0.123E+00

     total cpu time spent up to now is     6964.9 secs

     total energy              =   -2176.55895137 Ry
     Harris-Foulkes estimate   =   -2176.55896704 Ry
     estimated scf accuracy    <       0.00014754 Ry

     total magnetization       =     0.00 Bohr mag/cell
     absolute magnetization    =     0.00 Bohr mag/cell

     iteration # 15     ecut=    40.00 Ry     beta=0.30
     Davidson diagonalization with overlap
     ethr =  6.17E-08,  avg # of iterations =  1.0

     negative rho (up, down):  0.123E+00 0.123E+00

     total cpu time spent up to now is     7337.0 secs

     total energy              =   -2176.55895969 Ry
     Harris-Foulkes estimate   =   -2176.55896253 Ry
     estimated scf accuracy    <       0.00003370 Ry

     total magnetization       =     0.00 Bohr mag/cell
     absolute magnetization    =     0.00 Bohr mag/cell

     iteration # 16     ecut=    40.00 Ry     beta=0.30
     Davidson diagonalization with overlap
     ethr =  1.41E-08,  avg # of iterations =  1.0

     negative rho (up, down):  0.123E+00 0.123E+00

     total cpu time spent up to now is     7709.9 secs

     total energy              =   -2176.55896104 Ry
     Harris-Foulkes estimate   =   -2176.55896284 Ry
     estimated scf accuracy    <       0.00002041 Ry

     total magnetization       =     0.00 Bohr mag/cell
     absolute magnetization    =     0.00 Bohr mag/cell

     iteration # 17     ecut=    40.00 Ry     beta=0.30
     Davidson diagonalization with overlap
     ethr =  8.54E-09,  avg # of iterations =  1.0

     negative rho (up, down):  0.123E+00 0.123E+00

     total cpu time spent up to now is     8083.3 secs

     total energy              =   -2176.55896205 Ry
     Harris-Foulkes estimate   =   -2176.55896251 Ry
     estimated scf accuracy    <       0.00000512 Ry

     total magnetization       =     0.00 Bohr mag/cell
     absolute magnetization    =     0.00 Bohr mag/cell

     iteration # 18     ecut=    40.00 Ry     beta=0.30
     Davidson diagonalization with overlap
     ethr =  2.14E-09,  avg # of iterations =  1.0

     negative rho (up, down):  0.123E+00 0.123E+00

     total cpu time spent up to now is     8459.9 secs

     total energy              =   -2176.55896223 Ry
     Harris-Foulkes estimate   =   -2176.55896272 Ry
     estimated scf accuracy    <       0.00000431 Ry

     total magnetization       =     0.00 Bohr mag/cell
     absolute magnetization    =     0.00 Bohr mag/cell

     iteration # 19     ecut=    40.00 Ry     beta=0.30
     Davidson diagonalization with overlap
     ethr =  1.80E-09,  avg # of iterations =  1.0

     negative rho (up, down):  0.123E+00 0.123E+00

     total cpu time spent up to now is     8833.6 secs

     End of self-consistent calculation

 ------ SPIN UP ------------


          k = 0.0000 0.0000 0.0000 ( 29221 PWs)   bands (ev):

   -81.5083 -81.4197 -81.3258 -81.2826 -81.2257 -81.0426 -80.9905 -80.9872
   -43.7059 -43.5573 -43.4062 -43.4009 -43.3714 -43.3136 -43.2841 -43.2781
   -43.2487 -43.2448 -43.2085 -43.1787 -43.1001 -43.0319 -42.9663 -42.9519
   -42.9369 -42.8951 -42.8923 -42.8527 -42.8356 -42.6653 -42.4793 -42.4003
   -21.0588 -20.5572 -20.4743 -20.3670 -20.1190 -19.8119 -19.5239 -19.5234
   -19.4663 -19.4490 -19.3755 -19.2786 -19.2319 -19.2045 -19.1501 -19.1109
   -18.7315 -18.2736 -17.9070  -9.4804  -9.3551  -9.1737  -8.6836  -8.5531
    -8.1882  -8.1643  -7.9578  -7.8744  -7.7734  -7.6400  -7.5744  -7.3966
    -7.2965  -7.1927  -7.1579  -6.9786  -6.9428  -6.8961  -6.7864  -6.5051
    -6.4234  -6.1335  -5.9579  -5.6504  -5.5629  -5.4766  -5.4009  -5.2943
    -5.1979  -5.0845  -5.0139  -4.9267  -4.7634  -4.6924  -4.5933  -4.4621
    -4.3647  -4.3538  -4.1413  -4.1076  -3.9993  -3.8923  -3.6733  -3.6098
    -3.4177  -3.3372  -3.3112  -3.2493  -3.2161  -3.2052  -3.1004  -3.0249
    -3.0068  -2.9429  -2.8249  -2.6397  -2.5489  -2.4845  -2.3225  -1.0404
    -0.6871  -0.5396  -0.1255  -0.1020   0.1137   0.3498   0.4997   0.6149
     0.7020   0.7718   1.0008   1.0901   1.2714   1.3263   1.5510   1.9466
     2.6852   3.0573   3.1472   3.1841   3.4011   3.4863   3.5111   3.6586
     4.0318   4.1217   4.2440   4.5412   4.5985   4.6510   4.8009   4.8330
     4.9233   5.0067   5.0250   5.1209   5.2992   5.4165   5.4590   6.0287
     6.2009   6.3830   6.6324   6.9001   7.4555   7.6193   7.6715   7.8451
     7.8963   8.0694   8.1340   8.1621   8.3307   8.3750   8.6063   8.7296
     8.8396   8.9025   8.9673   9.0424   9.1120   9.1838   9.2447   9.3513
     9.5014   9.6371   9.7844   9.7939   9.8634   9.9219  10.0488  10.1305
    10.2151  10.2545  10.4696  10.5313  10.5780  10.6824  10.7560  10.9395
    11.0601  11.1895  11.2276  11.3297  11.4785  11.4862  11.5721  11.7197
    11.8547  11.9362  11.9706  12.0189  12.1632  12.2679  12.2791  12.5123
    12.6717  12.7368  12.8739  12.9207  13.0124  13.0900  13.1088  13.1414
    13.1828  13.2373  13.2690  13.3066  13.3564  13.4279  13.4853  13.5268
    13.5722  13.6189  13.7131  13.8952  13.9431  13.9865  14.0261  14.0542
    14.0906  14.1232  14.1658  14.2659  14.3109  14.3376  14.4182  14.5641
    14.7088  14.8042  14.8945  14.9526  15.0400  15.0653  15.1040  15.1321
    15.2870  15.4562  15.5011  15.5298  15.5543  15.7040  15.7621  15.9064
    15.9675  16.0041  16.0986  16.1322  16.2768  16.3114  16.5382  16.5971
    16.6462  16.7084  16.8007  16.8691  16.9794  17.0007  17.1502  17.2106
    17.2208  17.2612  17.3525  17.4897  17.5289  17.5589  17.5928  17.6784
    17.7614  17.9175  17.9814  18.0782  18.1676  18.3350  18.3541  18.4021
    18.5853  18.6824  18.7270  18.7983  18.8884  18.9632  19.0034  19.0198
    19.1371  19.2202  19.3172  19.3469  19.4603  19.4724  19.6615  19.7105
    19.7296  19.8210  20.0000  20.0434  20.0773  20.1327  20.2073  20.2331
    20.4530  20.4594  20.5441  20.5749  20.6748  20.7645  20.7908  20.9582
    20.9785  21.0843  21.1837  21.2746  21.2940  21.4876  21.5026  21.5447
    21.5830  21.7411  21.8300  21.8530  21.9353  22.0052  22.0548  22.1193
    22.1670  22.2193  22.2665  22.3004  22.3725  22.3991  22.4121  22.4541
    22.5389  22.5548  22.5861  22.6443  22.7265  22.7356  22.8507  22.8752
    22.9098  22.9628  23.0418  23.0610  23.1594  23.1644

          k = 0.0000 0.1914 0.0000 ( 29141 PWs)   bands (ev):

   -81.5083 -81.4197 -81.3258 -81.2826 -81.2257 -81.0426 -80.9905 -80.9872
   -43.7061 -43.5573 -43.4047 -43.4009 -43.3724 -43.3049 -43.2841 -43.2798
   -43.2530 -43.2468 -43.2086 -43.1774 -43.1001 -43.0319 -42.9663 -42.9519
   -42.9387 -42.8957 -42.8923 -42.8523 -42.8356 -42.6653 -42.4793 -42.4003
   -21.0120 -20.4684 -20.4263 -20.3087 -20.1145 -19.8132 -19.7878 -19.7244
   -19.5522 -19.4860 -19.3760 -19.3665 -19.2887 -19.1082 -18.9661 -18.9186
   -18.7296 -18.2703 -17.9068  -9.2772  -8.9596  -8.8918  -8.6990  -8.6153
    -8.2353  -8.2091  -8.1886  -8.1837  -8.1760  -8.1118  -7.8300  -7.5522
    -7.4709  -7.2464  -7.1481  -6.7882  -6.4784  -6.4274  -6.3065  -6.2036
    -6.0796  -6.0237  -5.9356  -5.7792  -5.6932  -5.6599  -5.4873  -5.4659
    -5.3791  -5.3362  -5.0940  -5.0694  -4.8060  -4.7256  -4.6005  -4.4368
    -4.3297  -4.2744  -4.2010  -4.0459  -3.9441  -3.8451  -3.6143  -3.5701
    -3.4948  -3.4486  -3.3943  -3.2799  -3.2038  -3.0684  -3.0557  -2.9322
    -2.8472  -2.8041  -2.6490  -2.6175  -2.5414  -2.5012  -2.3793  -1.1348
    -1.0415  -0.9812  -0.7818  -0.0811   0.1574   0.6830   0.8600   0.9530
     1.0116   1.0498   1.1074   1.1420   1.2842   1.3297   1.4807   1.7394
     2.4597   3.2317   3.3203   3.3303   3.4317   3.4358   3.4950   3.7770
     3.8075   4.0213   4.1234   4.1916   4.2607   4.3139   4.3329   4.5131
     4.9108   5.0932   5.1274   5.3429   5.5573   5.8035   6.1545   6.2975
     6.5081   6.5741   6.6397   6.7235   6.7928   7.0350   7.2270   7.5417
     7.7140   7.8762   8.0010   8.1703   8.2665   8.4135   8.6643   8.8212
     8.9569   9.0885   9.1625   9.2849   9.3540   9.4812   9.6053   9.6750
     9.7109   9.8709   9.9680  10.0017  10.0673  10.1037  10.2938  10.3333
    10.4435  10.4960  10.6096  10.6503  10.7632  10.8209  10.9038  11.0473
    11.1473  11.2220  11.2779  11.3615  11.4677  11.5258  11.6281  11.6738
    11.7244  11.8194  11.9083  11.9254  12.0583  12.1399  12.2034  12.3066
    12.3409  12.3796  12.4275  12.5295  12.5572  12.6026  12.7241  12.8648
    12.9724  13.0242  13.1498  13.2348  13.3133  13.3811  13.4409  13.5841
    13.6512  13.7135  13.8048  13.8389  13.8744  13.9526  14.0390  14.1130
    14.1535  14.2537  14.3611  14.4461  14.4885  14.5967  14.6330  14.6653
    14.7240  14.8304  14.8807  14.9070  14.9501  15.0146  15.1159  15.1626
    15.2850  15.3353  15.3882  15.4743  15.5803  15.6486  15.6887  15.7422
    15.8252  15.8474  15.8962  15.9272  15.9655  16.2037  16.3313  16.3948
    16.5332  16.6437  16.6923  16.8477  16.8981  16.9538  17.0333  17.1535
    17.1878  17.3086  17.3616  17.3849  17.4485  17.6373  17.7316  17.8244
    17.9803  18.0872  18.1463  18.2678  18.2934  18.4128  18.5609  18.6234
    18.6840  18.7757  18.8279  18.9246  18.9990  19.0488  19.0779  19.1144
    19.2030  19.2943  19.3291  19.4094  19.4768  19.5971  19.6145  19.6317
    19.6824  19.7117  19.7948  19.8939  19.9706  20.0398  20.0879  20.2010
    20.2958  20.3351  20.3505  20.3965  20.4936  20.5137  20.5442  20.7067
    20.8093  20.8651  20.9173  20.9805  21.0223  21.0779  21.1390  21.2086
    21.4029  21.4718  21.5331  21.5871  21.6407  21.6792  21.7226  21.7832
    21.8780  21.9587  22.0012  22.1870  22.2190  22.2660  22.3139  22.4284
    22.4860  22.5441  22.5774  22.6091  22.6652  22.7147  22.7605  22.8605
    22.9431  22.9659  23.0320  23.0984  23.2543  23.3100

          k = 0.0000-0.3828 0.0000 ( 29262 PWs)   bands (ev):

   -81.5083 -81.4197 -81.3258 -81.2826 -81.2257 -81.0426 -80.9905 -80.9872
   -43.7063 -43.5575 -43.4032 -43.4009 -43.3735 -43.2914 -43.2842 -43.2813
   -43.2659 -43.2452 -43.2086 -43.1763 -43.1002 -43.0320 -42.9663 -42.9520
   -42.9406 -42.8964 -42.8923 -42.8521 -42.8356 -42.6653 -42.4794 -42.4003
   -20.9677 -20.4187 -20.3334 -20.2146 -19.9585 -19.9253 -19.9097 -19.8580
   -19.6770 -19.6064 -19.4784 -19.3812 -19.3690 -19.1081 -18.7949 -18.7371
   -18.7174 -18.2678 -17.9066  -9.2411  -8.7620  -8.6844  -8.6496  -8.6175
    -8.4087  -8.2891  -8.2647  -8.1740  -8.1224  -8.0639  -7.7370  -7.5730
    -7.4258  -7.1677  -7.1615  -7.1454  -6.9518  -6.7307  -6.5948  -6.3413
    -6.0221  -5.7844  -5.7155  -5.7052  -5.5531  -5.4928  -5.3903  -5.3125
    -5.2733  -5.2252  -5.0872  -5.0519  -4.9652  -4.7230  -4.6036  -4.5679
    -4.4059  -4.3435  -4.0948  -3.9733  -3.7195  -3.7045  -3.6845  -3.6547
    -3.6229  -3.5014  -3.4840  -3.3819  -3.2737  -3.0817  -3.0199  -2.8085
    -2.6905  -2.6789  -2.6566  -2.5655  -2.4856  -2.4301  -2.3005  -1.4246
    -1.3622  -1.2885  -1.0307  -0.1414   0.5584   0.7240   0.8362   0.9710
     0.9988   1.2647   1.2945   1.3045   1.5024   1.5154   1.6202   1.6849
     2.2291   2.7919   2.8143   3.3557   3.4263   3.4726   3.6050   3.6827
     3.8179   3.9373   4.0082   4.1259   4.2104   4.3940   4.7543   4.8589
     4.8851   5.1282   5.2156   5.3048   5.6322   5.7500   6.0024   6.1414
     6.3835   6.5357   6.6782   6.7397   6.9905   7.0342   7.1705   7.1747
     7.3856   7.6585   7.7454   8.0958   8.3342   8.6452   8.7058   8.7575
     8.8058   8.9212   9.2282   9.4241   9.4898   9.5902   9.8904   9.9499
     9.9840  10.0200  10.3035  10.3397  10.4172  10.5064  10.6460  10.6684
    10.7897  10.7953  10.8634  10.9949  11.0144  11.0453  11.1571  11.2069
    11.3020  11.3931  11.4526  11.4892  11.5053  11.5108  11.5537  11.5933
    11.6332  11.7420  11.8030  11.8216  11.8691  11.9525  12.0448  12.0544
    12.1596  12.2273  12.3055  12.3461  12.3686  12.4015  12.4656  12.5705
    12.6078  12.7470  12.9282  12.9946  13.0120  13.0584  13.1728  13.4124
    13.4966  13.5518  13.5786  13.6507  13.6789  13.7225  13.8317  13.8684
    13.9500  14.0700  14.0881  14.2134  14.2369  14.3101  14.3735  14.4443
    14.4714  14.7222  14.7738  14.9264  14.9543  15.0952  15.1339  15.4085
    15.4504  15.5405  15.6239  15.6883  15.7642  15.9124  15.9748  16.1336
    16.1866  16.3302  16.4313  16.4758  16.5898  16.6284  16.7390  16.7975
    16.8304  16.9083  16.9554  17.0374  17.0456  17.1091  17.1325  17.1939
    17.2999  17.3701  17.4221  17.5005  17.5269  17.5832  17.6222  17.6363
    17.7080  17.7864  17.8021  17.8995  17.9169  17.9937  18.0920  18.1624
    18.3255  18.3541  18.4396  18.5500  18.5715  18.6135  18.6563  18.7703
    18.8132  18.8308  18.9458  19.0849  19.1056  19.1108  19.1704  19.2853
    19.4765  19.6855  19.7595  19.8438  19.8956  19.9471  19.9985  20.0306
    20.0939  20.2137  20.2244  20.3022  20.4081  20.4881  20.5716  20.7369
    20.8497  20.8660  20.8972  20.9376  21.0594  21.2343  21.2920  21.3282
    21.3943  21.3982  21.4957  21.5671  21.6181  21.8089  21.9764  22.0584
    22.0865  22.2145  22.2705  22.3174  22.3536  22.3895  22.5983  22.6479
    22.7038  22.7484  22.7962  22.8777  22.9511  23.0028  23.0559  23.1523
    23.2096  23.2597  23.2913  23.3192  23.4336  23.5125

          k = 0.2500 0.0000 0.0000 ( 29190 PWs)   bands (ev):

   -81.5038 -81.4242 -81.3247 -81.2745 -81.2338 -81.0345 -80.9953 -80.9916
   -43.5851 -43.4336 -43.3920 -43.3880 -43.3031 -43.2929 -43.2676 -43.2644
   -43.2380 -43.1997 -43.1908 -43.1590 -43.0794 -43.0121 -42.9737 -42.9686
   -42.9684 -42.9246 -42.9118 -42.9010 -42.8651 -42.8018 -42.6034 -42.5337
   -20.8988 -20.4370 -20.3869 -20.2702 -20.1859 -19.7294 -19.6262 -19.5049
   -19.4612 -19.4119 -19.3992 -19.3472 -19.3026 -19.2422 -19.1862 -19.1298
   -18.8294 -18.2938 -18.0191  -9.1192  -9.0247  -8.9086  -8.5578  -8.3660
    -8.0559  -8.0208  -7.9412  -7.7344  -7.6529  -7.5750  -7.5321  -7.4200
    -7.3767  -7.3065  -7.0583  -6.9130  -6.7224  -6.6058  -6.5279  -6.4529
    -6.3783  -6.3083  -6.1315  -6.0889  -5.7313  -5.6737  -5.6195  -5.3941
    -5.1650  -5.1298  -4.9041  -4.8164  -4.7242  -4.5694  -4.5363  -4.4896
    -4.4676  -4.3850  -4.2666  -4.2317  -4.1589  -3.9726  -3.9292  -3.8327
    -3.6795  -3.6219  -3.5021  -3.3822  -3.3242  -3.2894  -3.1154  -3.0463
    -2.8798  -2.7053  -2.6049  -2.4549  -2.4141  -2.2775  -1.8617  -0.7565
    -0.6760  -0.4686  -0.3104  -0.1181  -0.0661   0.2679   0.3848   0.5713
     0.5796   0.6281   0.9467   1.1701   1.2668   1.4161   1.5048   1.5217
     1.7943   1.8483   1.9636   2.1378   2.5547   3.4765   3.6757   3.9946
     4.0879   4.3008   4.3726   4.4774   4.5390   4.7420   4.8337   4.8434
     4.9261   5.0120   5.1687   5.2154   5.3724   5.7143   5.8176   6.2517
     6.3175   6.5168   6.7133   6.9966   7.0844   7.5578   7.6780   7.7589
     8.0152   8.0661   8.0973   8.2287   8.3003   8.3990   8.4566   8.5378
     8.6645   8.7562   8.8799   8.9626   9.1141   9.1941   9.3052   9.3938
     9.4678   9.5333   9.6446   9.7508   9.8577   9.9263   9.9778  10.0399
    10.1341  10.1691  10.3914  10.4537  10.5485  10.6544  10.8210  10.8381
    10.9621  11.0347  11.0662  11.2234  11.2588  11.3284  11.3731  11.5529
    11.6244  11.7644  11.8621  11.9402  12.1205  12.2838  12.3781  12.4398
    12.4753  12.5336  12.6597  12.7547  12.8982  13.0157  13.1104  13.2542
    13.3090  13.3457  13.3947  13.4866  13.5525  13.6415  13.7393  13.7718
    13.9034  13.9469  14.0324  14.1355  14.2208  14.3526  14.4238  14.4722
    14.5398  14.5810  14.6185  14.7761  14.8717  14.9471  15.0360  15.1196
    15.1922  15.2594  15.3482  15.3979  15.5253  15.6294  15.6505  15.8120
    15.8835  15.8905  15.9162  16.0861  16.1412  16.1907  16.2957  16.3570
    16.4129  16.4829  16.5824  16.6439  16.7205  16.7581  16.8181  16.8853
    16.9453  17.0883  17.1622  17.2473  17.3471  17.3673  17.4246  17.4533
    17.5238  17.5701  17.6448  17.6813  17.7483  17.7933  17.8532  18.0046
    18.0371  18.0968  18.1452  18.2341  18.3217  18.3378  18.3721  18.5294
    18.5769  18.6260  18.7786  18.8468  18.9187  19.0099  19.0793  19.1298
    19.1632  19.2250  19.3508  19.3977  19.4628  19.5279  19.5703  19.6328
    19.7052  19.8713  19.9103  19.9468  19.9819  20.0954  20.1313  20.2060
    20.2394  20.3006  20.3726  20.4189  20.4789  20.5056  20.5280  20.5449
    20.6352  20.8033  20.8670  20.8781  20.9073  20.9827  20.9900  21.0474
    21.0823  21.1776  21.2698  21.3419  21.3920  21.4767  21.5999  21.7409
    21.7694  21.8432  21.9188  21.9931  22.0623  22.1023  22.1632  22.2158
    22.2975  22.3456  22.3870  22.4366  22.4649  22.4965  22.5594  22.6671
    22.7005  22.7696  22.8883  22.9342  22.9866  23.0552

          k = 0.2500 0.1914 0.0000 ( 29229 PWs)   bands (ev):

   -81.5038 -81.4242 -81.3247 -81.2745 -81.2338 -81.0345 -80.9953 -80.9916
   -43.5853 -43.4338 -43.3920 -43.3868 -43.2957 -43.2929 -43.2676 -43.2667
   -43.2441 -43.2013 -43.1874 -43.1586 -43.0794 -43.0121 -42.9737 -42.9693
   -42.9684 -42.9256 -42.9118 -42.9019 -42.8650 -42.8017 -42.6034 -42.5337
   -20.8627 -20.4101 -20.3319 -20.2146 -20.1320 -19.7972 -19.7303 -19.7168
   -19.5466 -19.4316 -19.4189 -19.3685 -19.2740 -19.1400 -19.0979 -19.0665
   -18.8250 -18.2917 -18.0200  -8.9819  -8.6769  -8.6266  -8.5822  -8.3852
    -8.3019  -8.2643  -8.0440  -8.0029  -7.9152  -7.6704  -7.6104  -7.4050
    -7.3116  -7.1935  -6.9570  -6.8468  -6.7669  -6.6411  -6.5102  -6.4111
    -6.3767  -6.0216  -5.9018  -5.7788  -5.6495  -5.5912  -5.4833  -5.4515
    -5.3815  -5.1269  -4.9927  -4.9739  -4.8253  -4.7587  -4.7162  -4.6311
    -4.5811  -4.5217  -4.4114  -4.2661  -4.1282  -3.9757  -3.8981  -3.8255
    -3.6687  -3.5888  -3.4897  -3.4000  -3.3482  -3.2608  -3.1380  -2.9916
    -2.8183  -2.6690  -2.5985  -2.4566  -2.0335  -1.8792  -1.8251  -0.9880
    -0.8895  -0.7631  -0.6598  -0.0623   0.0599   0.5305   0.5788   0.6562
     0.7750   0.8688   0.9572   1.1603   1.3438   1.3650   1.5207   1.6889
     1.7156   1.9510   2.0076   2.1399   2.3895   3.6216   3.6516   3.7151
     3.7563   3.9379   3.9880   4.2417   4.4534   4.5758   4.6867   4.8640
     4.9275   5.1786   5.3748   5.6029   5.8235   5.8889   6.1156   6.2434
     6.4098   6.5002   6.6940   6.9129   7.0077   7.0699   7.3221   7.5506
     7.7805   7.8149   7.8778   8.1554   8.2058   8.3716   8.4820   8.6236
     8.6594   8.6958   8.9027   9.0688   9.1329   9.3805   9.4367   9.5501
     9.6405   9.7016   9.8108   9.8569   9.9376  10.0341  10.0940  10.1720
    10.2832  10.3068  10.3653  10.4306  10.4996  10.7000  10.7414  10.8841
    10.9914  11.0717  11.1805  11.3393  11.4562  11.5217  11.6686  11.7654
    11.8318  11.9085  12.0596  12.2334  12.2695  12.4994  12.6081  12.6568
    12.6864  12.7139  12.8036  12.8773  12.9505  13.0122  13.1224  13.2355
    13.2858  13.4520  13.4914  13.6239  13.6664  13.7684  13.8367  13.8836
    13.9169  13.9594  14.0138  14.1098  14.1425  14.2509  14.2989  14.3739
    14.4865  14.5390  14.6034  14.6401  14.7012  14.7845  14.8279  14.8850
    14.9462  14.9778  15.0295  15.1187  15.1403  15.1986  15.2970  15.4552
    15.5018  15.5784  15.6633  15.7800  15.8215  15.9382  16.0899  16.1174
    16.1685  16.2865  16.3681  16.4235  16.5389  16.5816  16.6331  16.6819
    16.8026  16.8703  16.9670  16.9969  17.1001  17.1991  17.2391  17.3006
    17.3879  17.4764  17.5722  17.6687  17.7347  17.7831  17.8821  17.9450
    18.0151  18.0668  18.0812  18.2155  18.2873  18.3010  18.3689  18.4445
    18.4948  18.6050  18.6258  18.6807  18.7966  18.8681  18.9513  19.0356
    19.0682  19.1994  19.3099  19.3640  19.4908  19.5726  19.6151  19.6952
    19.7641  19.8400  19.9489  20.0523  20.1099  20.1940  20.2269  20.3156
    20.4211  20.5231  20.5531  20.6115  20.6951  20.7375  20.7648  20.8211
    20.8708  20.9632  21.0494  21.1176  21.1886  21.2378  21.2866  21.3308
    21.3820  21.4465  21.5113  21.5752  21.6242  21.6727  21.7669  21.8719
    21.9600  21.9872  22.0744  22.1301  22.1788  22.2520  22.3218  22.3897
    22.4256  22.4584  22.4837  22.5706  22.6185  22.6869  22.7278  22.7647
    22.7956  22.8292  22.8867  22.9131  23.0116  23.0628

          k = 0.2500-0.3828 0.0000 ( 29202 PWs)   bands (ev):

   -81.5038 -81.4242 -81.3247 -81.2745 -81.2338 -81.0345 -80.9953 -80.9916
   -43.5856 -43.4339 -43.3919 -43.3855 -43.2929 -43.2854 -43.2689 -43.2676
   -43.2532 -43.2022 -43.1846 -43.1582 -43.0794 -43.0121 -42.9737 -42.9704
   -42.9684 -42.9261 -42.9118 -42.9029 -42.8650 -42.8017 -42.6033 -42.5337
   -20.8291 -20.4016 -20.2550 -20.1757 -19.9261 -19.8486 -19.8358 -19.8082
   -19.7014 -19.5307 -19.4905 -19.4322 -19.2990 -19.1316 -18.9747 -18.9240
   -18.8130 -18.2902 -18.0213  -8.9596  -8.6347  -8.5831  -8.5758  -8.3437
    -8.0788  -8.0408  -8.0173  -7.9038  -7.8045  -7.7041  -7.6447  -7.6134
    -7.6004  -7.4310  -7.3105  -6.9395  -6.9157  -6.7112  -6.5573  -6.2713
    -5.8700  -5.7785  -5.7214  -5.6654  -5.6158  -5.5732  -5.5247  -5.4430
    -5.3163  -5.2055  -5.1333  -4.9995  -4.9570  -4.8592  -4.8137  -4.7943
    -4.7278  -4.6041  -4.4973  -4.3203  -4.1236  -3.8754  -3.8190  -3.7739
    -3.6839  -3.5681  -3.5302  -3.4386  -3.3429  -3.2876  -3.0680  -2.8664
    -2.7713  -2.6489  -2.5369  -2.5112  -1.9106  -1.7729  -1.6265  -1.2023
    -1.1548  -1.0560  -0.7738  -0.0260   0.3238   0.4246   0.7266   0.9346
     1.0133   1.0963   1.1592   1.2710   1.3035   1.3044   1.6085   1.7141
     1.9737   1.9968   2.1035   2.2102   2.3882   2.7863   2.8584   3.3566
     3.4631   3.7788   3.9141   4.3163   4.5258   4.6780   4.9295   5.1062
     5.2543   5.3299   5.3816   5.5757   5.9640   6.0853   6.2306   6.2926
     6.3512   6.5011   6.7443   6.7844   6.8777   6.9030   7.1331   7.2334
     7.5261   7.7993   7.8522   7.9449   8.0457   8.3809   8.4618   8.6324
     8.6638   8.7506   8.9301   9.0387   9.1119   9.1505   9.2168   9.3256
     9.5163   9.6910   9.7888   9.8844  10.0898  10.2662  10.4109  10.4232
    10.4991  10.5846  10.5943  10.6707  10.7737  10.8514  10.9953  11.1280
    11.2657  11.3656  11.4281  11.4585  11.7644  11.8370  11.9833  12.0198
    12.1490  12.1666  12.2086  12.2789  12.2967  12.3610  12.4224  12.5338
    12.6454  12.7200  12.7550  12.8064  12.9945  13.1023  13.2290  13.2651
    13.3363  13.4421  13.5725  13.6640  13.6917  13.7405  13.8286  13.9055
    13.9452  14.0106  14.0473  14.1121  14.1351  14.1482  14.2884  14.3278
    14.3974  14.4450  14.4808  14.5619  14.6191  14.6305  14.6990  14.7167
    14.7701  14.7872  14.8449  14.8843  14.9733  15.1634  15.2638  15.3683
    15.4147  15.4564  15.4878  15.5275  15.6034  15.6907  15.7630  15.8628
    15.8941  15.9783  16.0604  16.1251  16.2212  16.2908  16.3571  16.4410
    16.5627  16.5980  16.6378  16.7417  16.8730  16.9253  16.9873  17.0323
    17.2254  17.3756  17.4363  17.4713  17.5264  17.6138  17.6703  17.7775
    17.8349  17.8611  18.0188  18.0900  18.1656  18.2096  18.3039  18.4196
    18.4634  18.5989  18.8192  18.8705  18.8989  18.9979  19.1189  19.2877
    19.3685  19.4054  19.5752  19.6508  19.6734  19.7553  19.8151  19.8484
    19.9602  19.9868  20.0855  20.1580  20.1892  20.2305  20.2544  20.2826
    20.3145  20.3950  20.4631  20.5177  20.5903  20.8045  20.9040  20.9336
    21.0544  21.0843  21.1150  21.2312  21.2775  21.2909  21.3415  21.3776
    21.4065  21.4929  21.5401  21.6123  21.6778  21.7561  21.8073  21.8570
    21.8966  21.9363  21.9871  22.0329  22.1305  22.1686  22.2147  22.3185
    22.3685  22.4216  22.5201  22.5798  22.6236  22.6630  22.6903  22.7484
    22.8019  22.8630  22.9058  22.9653  23.0849  23.1603

          k =-0.5000 0.0000 0.0000 ( 29180 PWs)   bands (ev):

   -81.4987 -81.4294 -81.3236 -81.2586 -81.2497 -81.0154 -81.0145 -80.9927
   -43.3819 -43.3623 -43.3082 -43.3035 -43.2990 -43.2908 -43.2530 -43.2253
   -43.2106 -43.2061 -43.1287 -43.1252 -43.0657 -43.0279 -43.0188 -42.9976
   -42.9624 -42.9460 -42.9073 -42.8966 -42.8932 -42.8449 -42.8406 -42.8133
   -20.5520 -20.5058 -20.3923 -20.0830 -19.9397 -19.9000 -19.8494 -19.5970
   -19.4518 -19.4375 -19.3466 -19.3407 -19.3079 -19.2639 -19.1580 -19.0768
   -19.0455 -18.3230 -18.1358  -8.5099  -8.3970  -8.3458  -8.3114  -8.3084
    -8.2779  -8.2198  -8.0280  -7.9812  -7.9590  -7.4726  -7.3368  -7.3028
    -7.2678  -7.1281  -6.8858  -6.8622  -6.7152  -6.6673  -6.4316  -6.0700
    -5.9892  -5.9264  -5.8939  -5.8462  -5.8107  -5.7628  -5.6258  -5.5421
    -5.2513  -5.1943  -5.1698  -5.1341  -5.0665  -4.9839  -4.9185  -4.8480
    -4.6998  -4.6536  -4.6046  -4.5348  -4.4584  -4.2408  -3.9963  -3.9575
    -3.4904  -3.4754  -3.4161  -3.4065  -3.2966  -3.1417  -3.0814  -3.0009
    -2.8330  -2.7692  -2.7579  -2.4279  -0.9046  -0.8992  -0.7859  -0.7567
    -0.6253  -0.5371  -0.5294  -0.4988  -0.3786  -0.3343  -0.1103  -0.1029
     0.2358   0.3813   0.4562   0.6860   0.7179   0.7505   0.8908   1.0105
     1.5078   1.5601   1.8647   2.0723   2.1491   3.5427   3.9203   4.0307
     4.2586   4.4433   4.4681   4.5384   4.5551   4.6830   4.8196   4.8719
     4.9416   5.1245   5.2613   5.5451   5.7335   5.9836   6.1758   6.1820
     6.3839   6.5563   6.6769   6.8097   6.9089   7.0596   7.3450   7.4903
     7.7037   7.8067   8.0340   8.1216   8.5115   8.5845   8.6087   8.6585
     8.7286   9.0814   9.1749   9.2363   9.2527   9.2773   9.3371   9.3630
     9.3708   9.4509   9.6745   9.7040   9.7847   9.8176   9.8599   9.9075
     9.9507  10.0270  10.2753  10.3520  10.4055  10.4838  10.5528  10.5942
    10.6516  10.7294  10.8225  10.8808  10.9821  11.0574  11.3583  11.4738
    11.5349  11.7194  11.8798  11.9338  11.9678  12.1454  12.1727  12.2372
    12.3554  12.3806  12.7489  12.7966  12.9953  13.2367  13.3080  13.3719
    13.4686  13.4982  13.6319  13.6769  13.7874  13.8335  13.8994  14.2060
    14.4047  14.4560  14.4640  14.4837  14.6039  14.7455  14.8704  14.9085
    15.0587  15.1561  15.2254  15.2969  15.3852  15.4950  15.5199  15.5557
    15.5707  15.6500  15.6899  15.7604  15.8332  15.9686  16.0711  16.1967
    16.3173  16.3724  16.4222  16.4575  16.5224  16.5256  16.5928  16.6368
    16.7287  16.7863  16.9243  16.9717  17.0246  17.0610  17.1073  17.1160
    17.3675  17.4140  17.4375  17.4659  17.5454  17.5694  17.7800  17.8438
    17.9093  18.0143  18.0980  18.1370  18.1764  18.3157  18.3261  18.3401
    18.4340  18.4605  18.5110  18.6504  18.6602  18.6951  18.7207  18.7445
    18.9259  18.9940  19.0067  19.0471  19.1240  19.2010  19.2762  19.2977
    19.3436  19.4174  19.4702  19.4769  19.4919  19.5565  19.5853  19.6148
    19.6752  19.6839  19.7595  19.7919  19.8082  19.8163  19.8536  19.9509
    20.0363  20.0893  20.1088  20.1583  20.2207  20.2234  20.2950  20.3501
    20.3818  20.4222  20.4367  20.6907  20.7625  20.7821  20.8416  20.9158
    20.9319  20.9434  21.0116  21.0293  21.0685  21.0825  21.1428  21.1621
    21.2944  21.3150  21.3786  21.4623  21.4931  21.5465  21.6102  21.7225
    21.7377  21.7797  21.8428  22.0218  22.0773  22.1360  22.2390  22.3596
    22.3914  22.4158  22.4523  22.4719  22.5405  22.6749

          k =-0.5000 0.1914 0.0000 ( 29244 PWs)   bands (ev):

   -81.4987 -81.4294 -81.3236 -81.2586 -81.2497 -81.0154 -81.0145 -80.9927
   -43.3819 -43.3616 -43.3084 -43.3036 -43.2982 -43.2858 -43.2532 -43.2254
   -43.2158 -43.2060 -43.1286 -43.1253 -43.0650 -43.0279 -43.0189 -42.9976
   -42.9625 -42.9461 -42.9084 -42.8973 -42.8938 -42.8448 -42.8406 -42.8130
   -20.5393 -20.4990 -20.3900 -20.0237 -19.9087 -19.8464 -19.8163 -19.6794
   -19.5496 -19.5180 -19.3398 -19.3103 -19.2989 -19.2741 -19.1512 -19.0777
   -19.0435 -18.3234 -18.1361  -8.5071  -8.4271  -8.3532  -8.3152  -8.2827
    -8.2743  -8.2377  -8.0521  -7.9889  -7.9652  -7.2612  -7.2073  -7.1061
    -7.0234  -7.0087  -6.8747  -6.8315  -6.6599  -6.5521  -6.4165  -6.2527
    -6.2335  -6.1888  -6.1549  -6.0083  -5.8577  -5.7249  -5.5831  -5.5054
    -5.3920  -5.3601  -5.2414  -5.2025  -5.1116  -5.0028  -4.8759  -4.8510
    -4.7728  -4.7421  -4.6653  -4.5675  -4.3498  -4.1781  -3.9918  -3.9512
    -3.5150  -3.4648  -3.4238  -3.3625  -3.2943  -3.1674  -3.0914  -3.0160
    -2.7835  -2.6599  -2.6110  -2.4210  -0.9198  -0.8439  -0.8070  -0.7541
    -0.5970  -0.5121  -0.4183  -0.3950  -0.3096  -0.1179  -0.0472   0.0273
     0.2895   0.3703   0.5710   0.5851   0.7640   0.9014   1.0885   1.1219
     1.4460   1.4693   1.8077   1.9488   2.1210   3.5199   3.6232   3.6904
     3.6954   3.7071   4.0163   4.3734   4.4682   4.8373   5.1459   5.2873
     5.3850   5.4022   5.4754   5.6536   5.7396   6.0245   6.3410   6.3610
     6.4933   6.5462   6.7667   6.8254   6.9993   7.0784   7.2243   7.3472
     7.5991   7.7213   7.8768   7.9515   8.0526   8.1092   8.1741   8.2925
     8.4395   8.6051   8.6589   8.8371   8.9825   9.1379   9.2226   9.4116
     9.4625   9.5428   9.5928   9.7078   9.8629   9.9847  10.0865  10.2068
    10.5101  10.5925  10.6475  10.6875  10.7252  10.7749  10.8082  10.9300
    10.9658  11.0360  11.0938  11.2187  11.3836  11.4615  11.5603  11.6310
    11.7802  11.8952  11.9761  12.1034  12.1748  12.3008  12.3962  12.4614
    12.5592  12.7535  12.7956  12.8752  12.9766  13.1044  13.2089  13.4580
    13.5660  13.6133  13.7292  13.7995  13.8427  13.9883  14.1900  14.2443
    14.3575  14.4013  14.4643  14.5458  14.6021  14.6367  14.7215  14.8389
    14.8740  14.9486  14.9812  15.0676  15.1099  15.2052  15.2484  15.3835
    15.5222  15.5423  15.5771  15.6995  15.7835  15.8297  15.8851  15.9253
    15.9719  16.0727  16.1547  16.2200  16.2484  16.3298  16.3948  16.4693
    16.5565  16.5661  16.6463  16.7266  16.8089  16.8421  16.8565  16.9524
    16.9902  17.0702  17.1074  17.2372  17.2482  17.2732  17.3022  17.3475
    17.4317  17.5508  17.6154  17.6896  17.7574  17.9029  17.9690  17.9794
    18.0031  18.1039  18.2353  18.2603  18.3082  18.3354  18.3865  18.4496
    18.5368  18.6153  18.6561  18.7089  18.8145  18.9180  18.9427  19.0659
    19.1410  19.2057  19.2857  19.3709  19.4372  19.4953  19.6026  19.6452
    19.6915  19.7453  19.7843  19.8974  19.9683  19.9910  20.1743  20.1984
    20.2346  20.3421  20.3708  20.4865  20.5664  20.6307  20.7490  20.8153
    20.8403  20.8653  20.9906  21.0391  21.0754  21.1552  21.2084  21.2913
    21.3879  21.4167  21.4703  21.5284  21.5962  21.6244  21.7288  21.7692
    21.7892  21.8159  21.8702  21.8936  21.9388  21.9618  21.9899  22.0348
    22.1051  22.1946  22.3034  22.3619  22.4125  22.4336  22.4757  22.5240
    22.5667  22.6144  22.7192  22.7267  22.7884  22.8124

          k =-0.5000-0.3828 0.0000 ( 29192 PWs)   bands (ev):

   -81.4987 -81.4294 -81.3236 -81.2586 -81.2498 -81.0154 -81.0145 -80.9927
   -43.3820 -43.3609 -43.3086 -43.3037 -43.2974 -43.2799 -43.2534 -43.2267
   -43.2207 -43.2059 -43.1285 -43.1252 -43.0643 -43.0279 -43.0189 -42.9976
   -42.9624 -42.9461 -42.9095 -42.8979 -42.8945 -42.8448 -42.8405 -42.8127
   -20.5265 -20.4926 -20.3878 -19.8820 -19.8714 -19.8588 -19.7552 -19.6886
   -19.6749 -19.6590 -19.3687 -19.2920 -19.2808 -19.2792 -19.1459 -19.0786
   -19.0416 -18.3237 -18.1363  -8.4840  -8.4283  -8.3321  -8.3200  -8.3145
    -8.2522  -8.2112  -8.0469  -7.9788  -7.9576  -7.2172  -7.1224  -7.0095
    -6.8136  -6.7816  -6.7637  -6.6790  -6.6633  -6.6156  -6.5670  -6.5449
    -6.4583  -6.1644  -6.1438  -6.0199  -5.8396  -5.5946  -5.5302  -5.4912
    -5.4623  -5.4509  -5.3453  -5.3041  -5.2901  -5.1829  -5.0042  -4.9290
    -4.8879  -4.7704  -4.7124  -4.6699  -4.1507  -4.1213  -3.9929  -3.9040
    -3.6144  -3.5377  -3.4128  -3.3795  -3.2615  -3.1492  -3.0589  -3.0033
    -2.7535  -2.5361  -2.4852  -2.4078  -0.9863  -0.9535  -0.9243  -0.7818
    -0.6582  -0.5958  -0.5464  -0.3643  -0.1437   0.0460   0.3330   0.4209
     0.5519   0.5643   0.7315   0.8642   0.9660   1.0861   1.1604   1.1846
     1.5165   1.5702   1.5905   1.7101   2.1427   2.8533   2.8673   2.9278
     2.9568   3.6082   4.0579   4.5274   4.5633   4.9221   5.3072   5.4580
     5.4936   5.6622   5.7820   5.9226   6.0446   6.2277   6.2478   6.4681
     6.4713   6.6420   6.9122   6.9152   7.0440   7.0565   7.2084   7.2529
     7.3331   7.4219   7.5406   7.7005   7.7850   7.9120   7.9950   8.1688
     8.1899   8.4838   8.5401   8.7241   8.7693   8.8218   8.9214   9.1403
     9.2566   9.4846   9.6766   9.9304   9.9908  10.0457  10.0995  10.2618
    10.5123  10.5814  10.7886  10.9452  11.0209  11.0842  11.1474  11.2292
    11.3197  11.3661  11.4492  11.5296  11.6526  11.7716  11.8107  12.1651
    12.2023  12.3964  12.5296  12.6126  12.7870  12.8832  12.9638  13.0506
    13.0982  13.1230  13.1300  13.2109  13.2510  13.3243  13.3531  13.3978
    13.4204  13.4438  13.5718  13.6752  13.7297  13.8023  13.8420  13.8816
    13.9219  13.9830  14.0868  14.1716  14.3039  14.3213  14.4453  14.5849
    14.6007  14.6415  14.6654  14.7218  14.7377  14.9627  15.0528  15.1335
    15.1821  15.2441  15.2950  15.3608  15.4049  15.4795  15.4828  15.6848
    15.8354  15.8532  15.9358  16.0408  16.1236  16.1761  16.2846  16.3345
    16.3464  16.4073  16.5359  16.6244  16.7586  16.7638  16.8206  16.8255
    16.9394  17.0558  17.1020  17.2235  17.2516  17.3129  17.3359  17.3981
    17.4939  17.6117  17.6391  17.6507  17.7135  17.7476  17.7892  17.8066
    17.8850  17.9407  18.0572  18.1048  18.1189  18.1818  18.2589  18.2746
    18.3141  18.3402  18.3869  18.4423  18.5533  18.6163  18.6699  18.7016
    18.8318  18.9079  18.9247  18.9562  19.0501  19.0807  19.2413  19.3758
    19.5053  19.6381  19.6939  19.7359  19.8960  19.9892  20.1122  20.1442
    20.2329  20.2976  20.4259  20.4803  20.6682  20.6947  20.7423  20.7886
    20.8180  20.9068  21.0094  21.2607  21.3131  21.3180  21.3851  21.3954
    21.4736  21.5108  21.6959  21.7492  21.7879  21.8436  21.9933  22.1108
    22.1247  22.1556  22.2408  22.2818  22.3711  22.3743  22.4611  22.5043
    22.6338  22.7774  22.8187  22.8243  22.8920  22.9305  22.9692  23.0222
    23.0592  23.1460  23.2230  23.2463  23.3312  23.4342

          k =-0.2500 0.1914 0.0000 ( 29229 PWs)   bands (ev):

   -81.5038 -81.4242 -81.3247 -81.2745 -81.2338 -81.0345 -80.9953 -80.9916
   -43.5853 -43.4338 -43.3920 -43.3867 -43.2957 -43.2929 -43.2675 -43.2667
   -43.2440 -43.2013 -43.1874 -43.1586 -43.0794 -43.0121 -42.9737 -42.9697
   -42.9684 -42.9252 -42.9118 -42.9019 -42.8650 -42.8017 -42.6034 -42.5337
   -20.8628 -20.4102 -20.3318 -20.2145 -20.1320 -19.7968 -19.7302 -19.7162
   -19.5467 -19.4331 -19.4182 -19.3697 -19.2741 -19.1398 -19.0980 -19.0662
   -18.8245 -18.2917 -18.0200  -8.9812  -8.6761  -8.6266  -8.5800  -8.3907
    -8.3064  -8.2632  -8.0519  -7.9957  -7.8952  -7.6813  -7.6313  -7.3763
    -7.2947  -7.2406  -6.9615  -6.8597  -6.7381  -6.6244  -6.5157  -6.3886
    -6.3620  -6.0265  -5.9176  -5.7579  -5.7009  -5.6041  -5.5363  -5.4547
    -5.3270  -5.0814  -4.9973  -4.9657  -4.8551  -4.7580  -4.7163  -4.6448
    -4.5816  -4.4984  -4.3880  -4.2798  -4.1616  -3.9663  -3.8772  -3.8132
    -3.6879  -3.5814  -3.5493  -3.3668  -3.3184  -3.2557  -3.1356  -3.0213
    -2.7952  -2.6916  -2.5990  -2.4553  -2.0328  -1.8813  -1.8271  -0.9896
    -0.8603  -0.7664  -0.6465  -0.0799   0.0458   0.5226   0.5719   0.6520
     0.7722   0.8546   0.9892   1.1695   1.3506   1.3688   1.5164   1.6850
     1.7123   1.9519   2.0067   2.1388   2.3890   3.6212   3.6507   3.7156
     3.7584   3.9398   3.9885   4.2410   4.4483   4.5783   4.6846   4.8587
     4.9384   5.1774   5.3737   5.6052   5.8260   5.8912   6.1136   6.2578
     6.4139   6.4782   6.6864   6.9156   7.0034   7.0780   7.3248   7.5751
     7.6924   7.8031   7.9418   8.1402   8.2747   8.3272   8.5088   8.5782
     8.6262   8.7282   8.9337   9.0372   9.1236   9.3758   9.4636   9.5891
     9.6233   9.6882   9.8223   9.8887   9.9122  10.0024  10.0942  10.1724
    10.2542  10.3324  10.3744  10.4256  10.4982  10.7315  10.7436  10.8930
    11.0005  11.1117  11.1542  11.2631  11.4775  11.5308  11.6855  11.7607
    11.8264  11.9266  12.0257  12.2197  12.3429  12.4477  12.5963  12.6311
    12.6591  12.7388  12.8235  12.8679  12.9538  13.0279  13.1153  13.2355
    13.2880  13.4358  13.5236  13.6190  13.6927  13.7468  13.8492  13.8579
    13.9262  13.9600  13.9830  14.0690  14.1452  14.2467  14.3082  14.4268
    14.4914  14.5292  14.5786  14.6437  14.7127  14.7437  14.8531  14.8844
    14.9542  15.0028  15.0493  15.0835  15.1445  15.2160  15.3068  15.4730
    15.5004  15.5949  15.6712  15.7331  15.8437  15.9383  16.0774  16.1385
    16.1891  16.2356  16.3168  16.4851  16.5203  16.5783  16.6411  16.6806
    16.7924  16.8829  16.9562  16.9913  17.1177  17.2110  17.2498  17.2795
    17.3662  17.4780  17.6283  17.6736  17.7364  17.7967  17.8462  17.9413
    17.9708  18.0653  18.1320  18.1594  18.2627  18.2968  18.4110  18.4417
    18.5075  18.5907  18.6413  18.7130  18.7551  18.8750  18.9386  19.0210
    19.0717  19.2353  19.3031  19.3333  19.4884  19.5405  19.6378  19.6723
    19.7532  19.8541  19.9409  20.0296  20.1205  20.1704  20.2317  20.2976
    20.4538  20.5224  20.5702  20.6214  20.6953  20.7322  20.7742  20.8384
    20.8853  20.9708  21.0001  21.1490  21.1820  21.2327  21.2779  21.3182
    21.4004  21.4366  21.5149  21.6090  21.6578  21.7031  21.7643  21.8566
    21.9374  22.0169  22.0941  22.1133  22.2233  22.2508  22.3157  22.3749
    22.4272  22.4651  22.4976  22.5584  22.6369  22.6765  22.7117  22.7516
    22.7707  22.8444  22.9016  22.9348  23.0135  23.0727

 ------ SPIN DOWN ----------


          k = 0.0000 0.0000 0.0000 ( 29221 PWs)   bands (ev):

   -81.5083 -81.4197 -81.3258 -81.2826 -81.2257 -81.0426 -80.9905 -80.9872
   -43.7059 -43.5573 -43.4062 -43.4009 -43.3714 -43.3136 -43.2841 -43.2781
   -43.2487 -43.2448 -43.2085 -43.1787 -43.1001 -43.0319 -42.9662 -42.9519
   -42.9369 -42.8951 -42.8923 -42.8527 -42.8356 -42.6653 -42.4793 -42.4003
   -21.0588 -20.5572 -20.4743 -20.3670 -20.1190 -19.8119 -19.5239 -19.5234
   -19.4663 -19.4490 -19.3755 -19.2786 -19.2319 -19.2045 -19.1501 -19.1109
   -18.7315 -18.2736 -17.9070  -9.4804  -9.3551  -9.1737  -8.6836  -8.5531
    -8.1882  -8.1643  -7.9578  -7.8744  -7.7734  -7.6400  -7.5744  -7.3966
    -7.2965  -7.1927  -7.1579  -6.9786  -6.9428  -6.8961  -6.7864  -6.5051
    -6.4234  -6.1335  -5.9579  -5.6504  -5.5629  -5.4766  -5.4009  -5.2943
    -5.1979  -5.0845  -5.0139  -4.9267  -4.7634  -4.6924  -4.5933  -4.4621
    -4.3647  -4.3538  -4.1412  -4.1076  -3.9993  -3.8923  -3.6733  -3.6098
    -3.4177  -3.3372  -3.3112  -3.2493  -3.2161  -3.2052  -3.1004  -3.0249
    -3.0068  -2.9429  -2.8249  -2.6397  -2.5489  -2.4845  -2.3225  -1.0404
    -0.6871  -0.5396  -0.1255  -0.1020   0.1137   0.3498   0.4997   0.6149
     0.7020   0.7718   1.0008   1.0901   1.2714   1.3263   1.5510   1.9466
     2.6852   3.0573   3.1472   3.1841   3.4011   3.4863   3.5111   3.6586
     4.0318   4.1217   4.2440   4.5412   4.5985   4.6510   4.8009   4.8330
     4.9233   5.0067   5.0251   5.1209   5.2992   5.4165   5.4590   6.0287
     6.2009   6.3830   6.6324   6.9001   7.4555   7.6193   7.6715   7.8451
     7.8963   8.0694   8.1340   8.1621   8.3307   8.3750   8.6063   8.7296
     8.8396   8.9025   8.9673   9.0424   9.1120   9.1838   9.2447   9.3513
     9.5014   9.6371   9.7844   9.7939   9.8634   9.9219  10.0488  10.1305
    10.2151  10.2545  10.4696  10.5313  10.5780  10.6824  10.7560  10.9395
    11.0601  11.1895  11.2276  11.3297  11.4785  11.4862  11.5721  11.7197
    11.8547  11.9362  11.9706  12.0189  12.1632  12.2679  12.2791  12.5123
    12.6717  12.7368  12.8739  12.9207  13.0124  13.0900  13.1088  13.1414
    13.1828  13.2373  13.2690  13.3066  13.3564  13.4279  13.4853  13.5268
    13.5722  13.6189  13.7131  13.8952  13.9431  13.9865  14.0261  14.0542
    14.0906  14.1232  14.1658  14.2659  14.3109  14.3376  14.4182  14.5641
    14.7088  14.8042  14.8945  14.9526  15.0400  15.0653  15.1040  15.1321
    15.2870  15.4562  15.5011  15.5298  15.5543  15.7040  15.7621  15.9064
    15.9675  16.0041  16.0986  16.1322  16.2768  16.3114  16.5382  16.5971
    16.6462  16.7084  16.8007  16.8691  16.9794  17.0007  17.1502  17.2106
    17.2208  17.2612  17.3525  17.4897  17.5289  17.5589  17.5928  17.6784
    17.7614  17.9175  17.9814  18.0782  18.1676  18.3350  18.3541  18.4021
    18.5853  18.6824  18.7270  18.7983  18.8884  18.9632  19.0034  19.0198
    19.1371  19.2202  19.3172  19.3470  19.4603  19.4724  19.6615  19.7105
    19.7296  19.8210  20.0000  20.0434  20.0773  20.1327  20.2073  20.2331
    20.4530  20.4594  20.5441  20.5749  20.6748  20.7645  20.7908  20.9582
    20.9785  21.0843  21.1837  21.2746  21.2940  21.4876  21.5026  21.5447
    21.5830  21.7411  21.8300  21.8530  21.9353  22.0052  22.0548  22.1193
    22.1670  22.2193  22.2665  22.3004  22.3725  22.3991  22.4121  22.4541
    22.5389  22.5548  22.5861  22.6443  22.7265  22.7356  22.8507  22.8752
    22.9099  22.9628  23.0418  23.0609  23.1595  23.1644

          k = 0.0000 0.1914 0.0000 ( 29141 PWs)   bands (ev):

   -81.5083 -81.4197 -81.3258 -81.2826 -81.2257 -81.0426 -80.9905 -80.9872
   -43.7061 -43.5573 -43.4047 -43.4009 -43.3724 -43.3048 -43.2841 -43.2798
   -43.2530 -43.2468 -43.2086 -43.1774 -43.1001 -43.0319 -42.9662 -42.9519
   -42.9387 -42.8957 -42.8923 -42.8523 -42.8356 -42.6653 -42.4793 -42.4003
   -21.0119 -20.4684 -20.4263 -20.3087 -20.1145 -19.8132 -19.7878 -19.7244
   -19.5522 -19.4860 -19.3760 -19.3665 -19.2887 -19.1082 -18.9661 -18.9186
   -18.7296 -18.2703 -17.9068  -9.2772  -8.9596  -8.8918  -8.6990  -8.6153
    -8.2353  -8.2091  -8.1886  -8.1837  -8.1760  -8.1118  -7.8300  -7.5522
    -7.4709  -7.2464  -7.1481  -6.7882  -6.4784  -6.4274  -6.3065  -6.2036
    -6.0796  -6.0237  -5.9356  -5.7792  -5.6932  -5.6599  -5.4873  -5.4659
    -5.3791  -5.3362  -5.0940  -5.0694  -4.8060  -4.7256  -4.6005  -4.4368
    -4.3297  -4.2744  -4.2010  -4.0459  -3.9441  -3.8451  -3.6143  -3.5701
    -3.4948  -3.4486  -3.3942  -3.2799  -3.2038  -3.0684  -3.0557  -2.9322
    -2.8472  -2.8041  -2.6490  -2.6175  -2.5414  -2.5012  -2.3793  -1.1348
    -1.0415  -0.9812  -0.7818  -0.0811   0.1574   0.6830   0.8600   0.9530
     1.0116   1.0498   1.1074   1.1420   1.2842   1.3297   1.4807   1.7394
     2.4597   3.2317   3.3203   3.3303   3.4317   3.4358   3.4950   3.7770
     3.8075   4.0213   4.1234   4.1916   4.2607   4.3139   4.3329   4.5131
     4.9108   5.0932   5.1274   5.3429   5.5573   5.8035   6.1545   6.2975
     6.5081   6.5741   6.6397   6.7235   6.7928   7.0350   7.2270   7.5417
     7.7140   7.8762   8.0010   8.1703   8.2665   8.4135   8.6643   8.8212
     8.9569   9.0885   9.1625   9.2849   9.3540   9.4812   9.6053   9.6750
     9.7109   9.8709   9.9680  10.0017  10.0673  10.1037  10.2938  10.3333
    10.4435  10.4960  10.6096  10.6503  10.7632  10.8209  10.9038  11.0473
    11.1473  11.2220  11.2779  11.3615  11.4677  11.5258  11.6281  11.6738
    11.7244  11.8194  11.9083  11.9254  12.0583  12.1399  12.2034  12.3066
    12.3409  12.3796  12.4275  12.5295  12.5572  12.6026  12.7241  12.8648
    12.9724  13.0242  13.1498  13.2348  13.3133  13.3811  13.4409  13.5841
    13.6512  13.7135  13.8048  13.8389  13.8744  13.9526  14.0390  14.1130
    14.1535  14.2537  14.3611  14.4461  14.4885  14.5967  14.6330  14.6653
    14.7240  14.8304  14.8807  14.9070  14.9501  15.0146  15.1159  15.1626
    15.2850  15.3353  15.3882  15.4743  15.5803  15.6486  15.6887  15.7422
    15.8252  15.8474  15.8962  15.9272  15.9655  16.2037  16.3313  16.3948
    16.5332  16.6437  16.6923  16.8477  16.8981  16.9538  17.0333  17.1535
    17.1878  17.3086  17.3616  17.3849  17.4485  17.6373  17.7316  17.8244
    17.9803  18.0872  18.1463  18.2678  18.2934  18.4128  18.5609  18.6234
    18.6840  18.7757  18.8279  18.9246  18.9990  19.0488  19.0779  19.1144
    19.2030  19.2943  19.3291  19.4094  19.4768  19.5971  19.6145  19.6317
    19.6824  19.7117  19.7948  19.8939  19.9706  20.0398  20.0879  20.2010
    20.2958  20.3351  20.3505  20.3965  20.4936  20.5137  20.5442  20.7067
    20.8093  20.8651  20.9173  20.9805  21.0223  21.0779  21.1390  21.2086
    21.4029  21.4718  21.5331  21.5871  21.6407  21.6792  21.7226  21.7832
    21.8780  21.9587  22.0012  22.1870  22.2190  22.2660  22.3139  22.4284
    22.4860  22.5441  22.5774  22.6091  22.6652  22.7147  22.7605  22.8605
    22.9431  22.9659  23.0320  23.0984  23.2543  23.3100

          k = 0.0000-0.3828 0.0000 ( 29262 PWs)   bands (ev):

   -81.5083 -81.4197 -81.3258 -81.2826 -81.2257 -81.0426 -80.9905 -80.9872
   -43.7063 -43.5575 -43.4032 -43.4009 -43.3735 -43.2914 -43.2842 -43.2813
   -43.2659 -43.2452 -43.2086 -43.1763 -43.1002 -43.0320 -42.9663 -42.9520
   -42.9406 -42.8964 -42.8923 -42.8521 -42.8356 -42.6653 -42.4794 -42.4003
   -20.9677 -20.4187 -20.3334 -20.2146 -19.9585 -19.9253 -19.9097 -19.8580
   -19.6770 -19.6064 -19.4784 -19.3812 -19.3690 -19.1081 -18.7949 -18.7371
   -18.7174 -18.2678 -17.9066  -9.2411  -8.7620  -8.6844  -8.6496  -8.6175
    -8.4087  -8.2891  -8.2647  -8.1740  -8.1224  -8.0639  -7.7370  -7.5730
    -7.4258  -7.1677  -7.1615  -7.1454  -6.9518  -6.7307  -6.5948  -6.3413
    -6.0221  -5.7844  -5.7155  -5.7052  -5.5531  -5.4928  -5.3903  -5.3125
    -5.2733  -5.2252  -5.0872  -5.0519  -4.9652  -4.7230  -4.6036  -4.5679
    -4.4059  -4.3435  -4.0948  -3.9733  -3.7195  -3.7045  -3.6845  -3.6547
    -3.6229  -3.5014  -3.4840  -3.3819  -3.2737  -3.0817  -3.0199  -2.8085
    -2.6905  -2.6789  -2.6566  -2.5655  -2.4856  -2.4301  -2.3005  -1.4246
    -1.3622  -1.2885  -1.0307  -0.1414   0.5584   0.7240   0.8362   0.9710
     0.9989   1.2647   1.2945   1.3045   1.5024   1.5154   1.6202   1.6849
     2.2291   2.7919   2.8143   3.3557   3.4263   3.4726   3.6050   3.6827
     3.8179   3.9373   4.0082   4.1259   4.2104   4.3940   4.7543   4.8589
     4.8851   5.1282   5.2156   5.3048   5.6322   5.7500   6.0024   6.1414
     6.3835   6.5357   6.6782   6.7397   6.9905   7.0342   7.1705   7.1747
     7.3856   7.6585   7.7454   8.0958   8.3342   8.6452   8.7058   8.7575
     8.8058   8.9212   9.2282   9.4241   9.4898   9.5902   9.8904   9.9499
     9.9840  10.0200  10.3035  10.3397  10.4172  10.5064  10.6460  10.6684
    10.7897  10.7953  10.8634  10.9949  11.0144  11.0453  11.1571  11.2069
    11.3020  11.3931  11.4526  11.4892  11.5053  11.5108  11.5537  11.5933
    11.6332  11.7420  11.8030  11.8216  11.8691  11.9525  12.0448  12.0544
    12.1596  12.2273  12.3055  12.3461  12.3686  12.4015  12.4656  12.5705
    12.6078  12.7470  12.9282  12.9946  13.0120  13.0584  13.1728  13.4124
    13.4966  13.5518  13.5786  13.6507  13.6789  13.7225  13.8317  13.8684
    13.9500  14.0700  14.0881  14.2134  14.2369  14.3101  14.3735  14.4443
    14.4714  14.7222  14.7738  14.9264  14.9543  15.0952  15.1339  15.4085
    15.4504  15.5405  15.6239  15.6883  15.7642  15.9124  15.9748  16.1336
    16.1866  16.3302  16.4313  16.4758  16.5898  16.6284  16.7390  16.7975
    16.8304  16.9083  16.9554  17.0374  17.0456  17.1091  17.1325  17.1939
    17.2999  17.3701  17.4221  17.5005  17.5269  17.5832  17.6222  17.6363
    17.7080  17.7864  17.8021  17.8995  17.9169  17.9937  18.0920  18.1624
    18.3255  18.3541  18.4396  18.5500  18.5715  18.6135  18.6563  18.7703
    18.8132  18.8308  18.9458  19.0849  19.1056  19.1108  19.1704  19.2853
    19.4765  19.6855  19.7595  19.8438  19.8956  19.9471  19.9985  20.0306
    20.0939  20.2137  20.2244  20.3022  20.4081  20.4881  20.5716  20.7369
    20.8497  20.8660  20.8972  20.9376  21.0594  21.2343  21.2920  21.3282
    21.3943  21.3982  21.4957  21.5671  21.6181  21.8089  21.9764  22.0584
    22.0865  22.2145  22.2705  22.3174  22.3536  22.3895  22.5983  22.6479
    22.7038  22.7484  22.7962  22.8777  22.9511  23.0028  23.0559  23.1523
    23.2096  23.2597  23.2913  23.3192  23.4336  23.5125

          k = 0.2500 0.0000 0.0000 ( 29190 PWs)   bands (ev):

   -81.5038 -81.4242 -81.3247 -81.2745 -81.2338 -81.0345 -80.9953 -80.9916
   -43.5851 -43.4336 -43.3920 -43.3880 -43.3031 -43.2929 -43.2676 -43.2644
   -43.2380 -43.1997 -43.1908 -43.1590 -43.0794 -43.0121 -42.9737 -42.9686
   -42.9683 -42.9246 -42.9118 -42.9010 -42.8651 -42.8018 -42.6034 -42.5337
   -20.8988 -20.4370 -20.3869 -20.2702 -20.1859 -19.7294 -19.6262 -19.5049
   -19.4612 -19.4119 -19.3992 -19.3472 -19.3026 -19.2422 -19.1862 -19.1298
   -18.8294 -18.2938 -18.0191  -9.1192  -9.0247  -8.9086  -8.5578  -8.3660
    -8.0559  -8.0208  -7.9412  -7.7344  -7.6529  -7.5750  -7.5321  -7.4200
    -7.3767  -7.3065  -7.0583  -6.9130  -6.7224  -6.6058  -6.5279  -6.4529
    -6.3783  -6.3083  -6.1315  -6.0889  -5.7313  -5.6737  -5.6195  -5.3941
    -5.1650  -5.1298  -4.9041  -4.8164  -4.7242  -4.5694  -4.5363  -4.4896
    -4.4676  -4.3850  -4.2666  -4.2317  -4.1589  -3.9726  -3.9292  -3.8327
    -3.6795  -3.6219  -3.5021  -3.3822  -3.3242  -3.2894  -3.1154  -3.0463
    -2.8798  -2.7053  -2.6049  -2.4549  -2.4141  -2.2775  -1.8617  -0.7565
    -0.6759  -0.4686  -0.3104  -0.1181  -0.0661   0.2679   0.3848   0.5713
     0.5796   0.6281   0.9467   1.1701   1.2668   1.4161   1.5048   1.5217
     1.7943   1.8483   1.9636   2.1378   2.5547   3.4765   3.6757   3.9946
     4.0879   4.3008   4.3726   4.4774   4.5391   4.7420   4.8337   4.8434
     4.9262   5.0120   5.1687   5.2154   5.3724   5.7143   5.8176   6.2517
     6.3175   6.5168   6.7133   6.9966   7.0844   7.5578   7.6780   7.7589
     8.0152   8.0661   8.0973   8.2287   8.3003   8.3990   8.4566   8.5378
     8.6645   8.7562   8.8799   8.9626   9.1141   9.1941   9.3052   9.3938
     9.4678   9.5333   9.6446   9.7508   9.8577   9.9263   9.9778  10.0399
    10.1341  10.1691  10.3914  10.4537  10.5485  10.6544  10.8210  10.8381
    10.9621  11.0347  11.0662  11.2234  11.2588  11.3284  11.3731  11.5529
    11.6244  11.7644  11.8621  11.9402  12.1205  12.2838  12.3781  12.4398
    12.4753  12.5336  12.6597  12.7547  12.8982  13.0157  13.1104  13.2542
    13.3090  13.3457  13.3947  13.4866  13.5525  13.6415  13.7393  13.7718
    13.9034  13.9469  14.0324  14.1355  14.2208  14.3526  14.4238  14.4722
    14.5398  14.5810  14.6185  14.7762  14.8717  14.9471  15.0360  15.1196
    15.1922  15.2594  15.3482  15.3979  15.5254  15.6294  15.6505  15.8120
    15.8835  15.8905  15.9162  16.0861  16.1412  16.1907  16.2957  16.3570
    16.4129  16.4829  16.5824  16.6439  16.7205  16.7581  16.8181  16.8853
    16.9453  17.0883  17.1622  17.2473  17.3471  17.3673  17.4246  17.4533
    17.5238  17.5701  17.6448  17.6813  17.7483  17.7933  17.8532  18.0046
    18.0371  18.0968  18.1452  18.2341  18.3217  18.3378  18.3721  18.5294
    18.5769  18.6260  18.7786  18.8468  18.9187  19.0099  19.0793  19.1298
    19.1632  19.2250  19.3508  19.3977  19.4628  19.5279  19.5703  19.6328
    19.7052  19.8713  19.9103  19.9468  19.9819  20.0954  20.1313  20.2060
    20.2394  20.3006  20.3726  20.4189  20.4789  20.5056  20.5280  20.5449
    20.6352  20.8033  20.8670  20.8781  20.9073  20.9827  20.9900  21.0474
    21.0823  21.1776  21.2698  21.3419  21.3920  21.4767  21.5999  21.7409
    21.7694  21.8432  21.9188  21.9931  22.0623  22.1023  22.1632  22.2158
    22.2975  22.3456  22.3870  22.4366  22.4649  22.4965  22.5594  22.6671
    22.7005  22.7696  22.8883  22.9342  22.9866  23.0552

          k = 0.2500 0.1914 0.0000 ( 29229 PWs)   bands (ev):

   -81.5038 -81.4242 -81.3247 -81.2745 -81.2338 -81.0345 -80.9953 -80.9916
   -43.5853 -43.4338 -43.3920 -43.3868 -43.2957 -43.2929 -43.2676 -43.2667
   -43.2441 -43.2013 -43.1874 -43.1586 -43.0794 -43.0121 -42.9737 -42.9693
   -42.9684 -42.9256 -42.9118 -42.9019 -42.8650 -42.8017 -42.6034 -42.5337
   -20.8627 -20.4101 -20.3319 -20.2146 -20.1320 -19.7972 -19.7303 -19.7168
   -19.5466 -19.4316 -19.4189 -19.3685 -19.2740 -19.1400 -19.0979 -19.0665
   -18.8250 -18.2917 -18.0200  -8.9819  -8.6769  -8.6266  -8.5822  -8.3852
    -8.3019  -8.2643  -8.0440  -8.0029  -7.9152  -7.6704  -7.6104  -7.4050
    -7.3116  -7.1935  -6.9570  -6.8468  -6.7669  -6.6411  -6.5102  -6.4111
    -6.3767  -6.0216  -5.9018  -5.7788  -5.6495  -5.5912  -5.4833  -5.4515
    -5.3815  -5.1269  -4.9927  -4.9739  -4.8253  -4.7587  -4.7162  -4.6311
    -4.5811  -4.5217  -4.4114  -4.2660  -4.1282  -3.9757  -3.8981  -3.8255
    -3.6687  -3.5888  -3.4897  -3.4000  -3.3482  -3.2608  -3.1380  -2.9916
    -2.8183  -2.6690  -2.5985  -2.4566  -2.0335  -1.8792  -1.8251  -0.9880
    -0.8895  -0.7631  -0.6598  -0.0623   0.0599   0.5305   0.5788   0.6563
     0.7750   0.8688   0.9572   1.1603   1.3438   1.3650   1.5207   1.6889
     1.7156   1.9510   2.0076   2.1399   2.3895   3.6216   3.6516   3.7151
     3.7563   3.9379   3.9880   4.2417   4.4534   4.5758   4.6867   4.8640
     4.9275   5.1786   5.3748   5.6029   5.8235   5.8889   6.1156   6.2434
     6.4098   6.5002   6.6940   6.9129   7.0077   7.0699   7.3221   7.5506
     7.7805   7.8149   7.8778   8.1554   8.2058   8.3716   8.4820   8.6236
     8.6594   8.6958   8.9027   9.0688   9.1329   9.3805   9.4367   9.5501
     9.6405   9.7016   9.8108   9.8569   9.9376  10.0341  10.0940  10.1720
    10.2832  10.3068  10.3653  10.4306  10.4996  10.7000  10.7414  10.8841
    10.9914  11.0717  11.1805  11.3393  11.4562  11.5217  11.6686  11.7654
    11.8318  11.9085  12.0596  12.2334  12.2695  12.4994  12.6081  12.6568
    12.6864  12.7139  12.8036  12.8773  12.9505  13.0122  13.1224  13.2355
    13.2858  13.4520  13.4914  13.6239  13.6664  13.7684  13.8367  13.8836
    13.9169  13.9594  14.0138  14.1098  14.1425  14.2509  14.2989  14.3739
    14.4865  14.5390  14.6034  14.6401  14.7012  14.7845  14.8279  14.8850
    14.9462  14.9778  15.0295  15.1187  15.1403  15.1986  15.2970  15.4552
    15.5018  15.5784  15.6633  15.7800  15.8215  15.9382  16.0899  16.1174
    16.1685  16.2865  16.3681  16.4235  16.5389  16.5816  16.6331  16.6819
    16.8026  16.8703  16.9670  16.9969  17.1001  17.1991  17.2391  17.3006
    17.3879  17.4764  17.5722  17.6687  17.7347  17.7831  17.8821  17.9450
    18.0151  18.0668  18.0812  18.2155  18.2873  18.3010  18.3689  18.4445
    18.4948  18.6050  18.6258  18.6807  18.7966  18.8681  18.9513  19.0356
    19.0682  19.1994  19.3099  19.3640  19.4908  19.5726  19.6151  19.6952
    19.7641  19.8400  19.9489  20.0523  20.1099  20.1940  20.2269  20.3156
    20.4211  20.5231  20.5531  20.6115  20.6951  20.7375  20.7648  20.8211
    20.8708  20.9632  21.0494  21.1176  21.1886  21.2378  21.2866  21.3308
    21.3820  21.4465  21.5113  21.5752  21.6242  21.6727  21.7669  21.8719
    21.9600  21.9872  22.0744  22.1301  22.1788  22.2520  22.3218  22.3897
    22.4256  22.4584  22.4837  22.5706  22.6185  22.6869  22.7278  22.7647
    22.7956  22.8292  22.8867  22.9131  23.0116  23.0629

          k = 0.2500-0.3828 0.0000 ( 29202 PWs)   bands (ev):

   -81.5038 -81.4242 -81.3247 -81.2745 -81.2338 -81.0345 -80.9953 -80.9916
   -43.5856 -43.4339 -43.3919 -43.3855 -43.2929 -43.2854 -43.2689 -43.2676
   -43.2532 -43.2022 -43.1846 -43.1582 -43.0794 -43.0121 -42.9737 -42.9704
   -42.9684 -42.9261 -42.9118 -42.9029 -42.8650 -42.8017 -42.6033 -42.5337
   -20.8291 -20.4016 -20.2550 -20.1757 -19.9261 -19.8486 -19.8357 -19.8082
   -19.7014 -19.5307 -19.4905 -19.4322 -19.2990 -19.1316 -18.9747 -18.9240
   -18.8130 -18.2902 -18.0213  -8.9596  -8.6347  -8.5831  -8.5758  -8.3437
    -8.0788  -8.0408  -8.0173  -7.9038  -7.8045  -7.7041  -7.6447  -7.6134
    -7.6004  -7.4310  -7.3105  -6.9395  -6.9157  -6.7112  -6.5573  -6.2713
    -5.8700  -5.7785  -5.7214  -5.6654  -5.6158  -5.5732  -5.5247  -5.4430
    -5.3163  -5.2055  -5.1333  -4.9995  -4.9570  -4.8592  -4.8137  -4.7943
    -4.7278  -4.6041  -4.4973  -4.3203  -4.1236  -3.8754  -3.8190  -3.7739
    -3.6839  -3.5681  -3.5302  -3.4386  -3.3429  -3.2876  -3.0680  -2.8664
    -2.7713  -2.6489  -2.5369  -2.5112  -1.9106  -1.7729  -1.6265  -1.2023
    -1.1548  -1.0560  -0.7738  -0.0260   0.3238   0.4246   0.7266   0.9346
     1.0134   1.0964   1.1592   1.2710   1.3035   1.3044   1.6085   1.7141
     1.9737   1.9968   2.1035   2.2102   2.3883   2.7863   2.8584   3.3566
     3.4631   3.7788   3.9141   4.3163   4.5258   4.6780   4.9295   5.1062
     5.2543   5.3299   5.3816   5.5757   5.9640   6.0853   6.2306   6.2926
     6.3512   6.5011   6.7443   6.7844   6.8777   6.9030   7.1331   7.2334
     7.5261   7.7993   7.8522   7.9449   8.0457   8.3809   8.4618   8.6324
     8.6638   8.7506   8.9301   9.0387   9.1119   9.1505   9.2168   9.3256
     9.5163   9.6910   9.7888   9.8844  10.0898  10.2662  10.4109  10.4232
    10.4991  10.5846  10.5943  10.6707  10.7737  10.8514  10.9953  11.1280
    11.2657  11.3656  11.4281  11.4585  11.7644  11.8370  11.9833  12.0198
    12.1490  12.1666  12.2086  12.2789  12.2967  12.3610  12.4224  12.5338
    12.6454  12.7200  12.7550  12.8064  12.9945  13.1023  13.2290  13.2651
    13.3363  13.4421  13.5725  13.6640  13.6917  13.7405  13.8286  13.9055
    13.9452  14.0106  14.0473  14.1121  14.1351  14.1482  14.2884  14.3278
    14.3974  14.4450  14.4808  14.5619  14.6191  14.6305  14.6990  14.7167
    14.7701  14.7872  14.8449  14.8843  14.9733  15.1634  15.2638  15.3683
    15.4147  15.4564  15.4878  15.5275  15.6034  15.6907  15.7630  15.8628
    15.8941  15.9783  16.0604  16.1251  16.2212  16.2908  16.3571  16.4410
    16.5627  16.5980  16.6378  16.7418  16.8730  16.9253  16.9873  17.0323
    17.2254  17.3756  17.4363  17.4713  17.5264  17.6138  17.6703  17.7775
    17.8349  17.8611  18.0188  18.0900  18.1656  18.2096  18.3039  18.4196
    18.4634  18.5989  18.8192  18.8705  18.8989  18.9979  19.1189  19.2877
    19.3685  19.4054  19.5752  19.6508  19.6734  19.7553  19.8151  19.8484
    19.9602  19.9868  20.0855  20.1580  20.1892  20.2305  20.2544  20.2826
    20.3145  20.3950  20.4631  20.5177  20.5903  20.8045  20.9040  20.9336
    21.0544  21.0843  21.1150  21.2312  21.2775  21.2909  21.3415  21.3776
    21.4065  21.4929  21.5401  21.6123  21.6778  21.7561  21.8073  21.8570
    21.8966  21.9363  21.9871  22.0329  22.1305  22.1686  22.2147  22.3185
    22.3685  22.4216  22.5201  22.5798  22.6236  22.6630  22.6903  22.7484
    22.8019  22.8630  22.9058  22.9653  23.0849  23.1603

          k =-0.5000 0.0000 0.0000 ( 29180 PWs)   bands (ev):

   -81.4987 -81.4294 -81.3236 -81.2586 -81.2497 -81.0154 -81.0145 -80.9927
   -43.3819 -43.3623 -43.3082 -43.3035 -43.2990 -43.2908 -43.2530 -43.2253
   -43.2106 -43.2061 -43.1287 -43.1252 -43.0657 -43.0279 -43.0188 -42.9976
   -42.9624 -42.9460 -42.9073 -42.8966 -42.8932 -42.8449 -42.8406 -42.8133
   -20.5520 -20.5058 -20.3923 -20.0830 -19.9397 -19.9000 -19.8494 -19.5970
   -19.4518 -19.4375 -19.3466 -19.3407 -19.3079 -19.2639 -19.1580 -19.0768
   -19.0455 -18.3230 -18.1358  -8.5099  -8.3970  -8.3458  -8.3114  -8.3084
    -8.2779  -8.2198  -8.0280  -7.9812  -7.9590  -7.4726  -7.3368  -7.3028
    -7.2678  -7.1281  -6.8858  -6.8622  -6.7152  -6.6673  -6.4316  -6.0700
    -5.9892  -5.9264  -5.8939  -5.8462  -5.8107  -5.7628  -5.6258  -5.5421
    -5.2513  -5.1943  -5.1698  -5.1341  -5.0665  -4.9839  -4.9185  -4.8480
    -4.6998  -4.6536  -4.6046  -4.5348  -4.4584  -4.2408  -3.9962  -3.9575
    -3.4904  -3.4754  -3.4161  -3.4065  -3.2966  -3.1417  -3.0814  -3.0009
    -2.8330  -2.7692  -2.7579  -2.4279  -0.9046  -0.8992  -0.7859  -0.7567
    -0.6253  -0.5371  -0.5294  -0.4988  -0.3786  -0.3343  -0.1103  -0.1029
     0.2358   0.3813   0.4562   0.6860   0.7179   0.7505   0.8908   1.0105
     1.5078   1.5601   1.8647   2.0723   2.1491   3.5427   3.9203   4.0307
     4.2586   4.4433   4.4681   4.5384   4.5552   4.6830   4.8196   4.8719
     4.9416   5.1245   5.2613   5.5451   5.7335   5.9836   6.1758   6.1820
     6.3839   6.5563   6.6769   6.8097   6.9089   7.0596   7.3450   7.4903
     7.7037   7.8067   8.0340   8.1216   8.5115   8.5845   8.6087   8.6585
     8.7286   9.0814   9.1749   9.2363   9.2527   9.2773   9.3371   9.3630
     9.3708   9.4509   9.6745   9.7040   9.7847   9.8176   9.8599   9.9075
     9.9507  10.0270  10.2753  10.3520  10.4055  10.4838  10.5528  10.5942
    10.6516  10.7294  10.8225  10.8808  10.9821  11.0574  11.3583  11.4738
    11.5349  11.7194  11.8798  11.9338  11.9678  12.1454  12.1727  12.2372
    12.3554  12.3806  12.7489  12.7966  12.9953  13.2367  13.3080  13.3719
    13.4686  13.4982  13.6319  13.6769  13.7874  13.8335  13.8994  14.2060
    14.4047  14.4560  14.4640  14.4837  14.6039  14.7455  14.8704  14.9085
    15.0587  15.1561  15.2254  15.2969  15.3852  15.4950  15.5199  15.5557
    15.5707  15.6500  15.6899  15.7604  15.8332  15.9686  16.0711  16.1967
    16.3173  16.3724  16.4222  16.4575  16.5224  16.5256  16.5928  16.6368
    16.7287  16.7863  16.9243  16.9717  17.0246  17.0610  17.1073  17.1160
    17.3675  17.4140  17.4375  17.4659  17.5454  17.5694  17.7800  17.8438
    17.9093  18.0143  18.0980  18.1370  18.1764  18.3157  18.3261  18.3401
    18.4340  18.4605  18.5110  18.6504  18.6602  18.6951  18.7207  18.7445
    18.9259  18.9940  19.0067  19.0471  19.1240  19.2010  19.2762  19.2977
    19.3436  19.4174  19.4702  19.4769  19.4919  19.5565  19.5853  19.6148
    19.6752  19.6839  19.7595  19.7919  19.8082  19.8163  19.8536  19.9509
    20.0363  20.0893  20.1088  20.1583  20.2207  20.2234  20.2950  20.3501
    20.3818  20.4222  20.4367  20.6907  20.7625  20.7821  20.8416  20.9158
    20.9319  20.9434  21.0116  21.0293  21.0685  21.0825  21.1428  21.1621
    21.2944  21.3150  21.3786  21.4623  21.4931  21.5465  21.6102  21.7225
    21.7377  21.7797  21.8428  22.0218  22.0773  22.1360  22.2390  22.3596
    22.3914  22.4158  22.4523  22.4719  22.5405  22.6750

          k =-0.5000 0.1914 0.0000 ( 29244 PWs)   bands (ev):

   -81.4987 -81.4294 -81.3236 -81.2586 -81.2497 -81.0154 -81.0145 -80.9927
   -43.3819 -43.3616 -43.3084 -43.3036 -43.2982 -43.2858 -43.2532 -43.2254
   -43.2158 -43.2060 -43.1286 -43.1253 -43.0650 -43.0279 -43.0189 -42.9976
   -42.9625 -42.9461 -42.9084 -42.8973 -42.8938 -42.8448 -42.8406 -42.8130
   -20.5393 -20.4990 -20.3900 -20.0237 -19.9087 -19.8464 -19.8163 -19.6794
   -19.5496 -19.5180 -19.3397 -19.3103 -19.2989 -19.2741 -19.1512 -19.0777
   -19.0435 -18.3234 -18.1361  -8.5071  -8.4271  -8.3532  -8.3152  -8.2827
    -8.2743  -8.2377  -8.0521  -7.9889  -7.9652  -7.2612  -7.2073  -7.1061
    -7.0234  -7.0087  -6.8747  -6.8315  -6.6599  -6.5521  -6.4165  -6.2527
    -6.2335  -6.1888  -6.1549  -6.0083  -5.8577  -5.7249  -5.5831  -5.5054
    -5.3920  -5.3601  -5.2414  -5.2025  -5.1116  -5.0028  -4.8759  -4.8510
    -4.7728  -4.7421  -4.6653  -4.5675  -4.3498  -4.1781  -3.9918  -3.9512
    -3.5150  -3.4648  -3.4238  -3.3624  -3.2943  -3.1674  -3.0914  -3.0160
    -2.7835  -2.6599  -2.6110  -2.4210  -0.9198  -0.8439  -0.8070  -0.7541
    -0.5969  -0.5121  -0.4183  -0.3950  -0.3096  -0.1179  -0.0472   0.0273
     0.2895   0.3703   0.5710   0.5851   0.7640   0.9014   1.0885   1.1219
     1.4460   1.4693   1.8077   1.9488   2.1210   3.5199   3.6232   3.6904
[...]
    10.6647  10.7279  10.8217  10.8666  10.9784  11.0570  11.3705  11.4825
    11.5415  11.7200  11.8785  11.9333  11.9683  12.1412  12.1811  12.2455
    12.3549  12.3852  12.7545  12.8077  13.0058  13.2374  13.3056  13.3582
    13.4696  13.4885  13.6334  13.6790  13.7926  13.8413  13.8993  14.2010
    14.4122  14.4584  14.4802  14.4930  14.6101  14.7497  14.8872  14.9201
    15.0733  15.1733  15.2191  15.2964  15.3831  15.5037  15.5215  15.5685
    15.5726  15.6600  15.6954  15.7729  15.8476  15.9759  16.0728  16.2168
    16.3282  16.3868  16.4367  16.4635  16.5166  16.5262  16.5908  16.6387
    16.7261  16.7764  16.9189  16.9726  17.0293  17.0563  17.1006  17.1115
    17.3596  17.4173  17.4417  17.4670  17.5239  17.5667  17.7788  17.8437
    17.9123  18.0069  18.0898  18.1311  18.1702  18.3112  18.3238  18.3369
    18.4283  18.4596  18.5025  18.6503  18.6536  18.6966  18.7096  18.7316
    18.9239  18.9919  19.0032  19.0377  19.1252  19.1995  19.2737  19.2972
    19.3360  19.4102  19.4658  19.4734  19.4816  19.5479  19.5767  19.6094
    19.6723  19.6776  19.7496  19.7854  19.8042  19.8052  19.8434  19.9462
    20.0340  20.0834  20.1011  20.1499  20.2096  20.2125  20.2925  20.3449
    20.3738  20.4171  20.4319  20.6870  20.7623  20.7818  20.8463  20.9180
    20.9271  20.9401  21.0124  21.0262  21.0697  21.0784  21.1429  21.1565
    21.2914  21.3102  21.3720  21.4614  21.4880  21.5386  21.6064  21.7272
    21.7463  21.7821  21.8392  22.0287  22.0786  22.1450  22.2397  22.3578
    22.3897  22.4066  22.4548  22.4733  22.5368  22.6785

          k =-0.5000 0.1914 0.0000 ( 29244 PWs)   bands (ev):

   -81.4772 -81.4060 -81.3008 -81.2402 -81.2370 -81.0023 -81.0003 -80.9602
   -43.3602 -43.3404 -43.2872 -43.2804 -43.2755 -43.2610 -43.2311 -43.2083
   -43.1996 -43.1827 -43.1170 -43.1137 -43.0404 -43.0092 -43.0035 -42.9765
   -42.9478 -42.9212 -42.8839 -42.8799 -42.8760 -42.8295 -42.8254 -42.7813
   -20.5181 -20.4702 -20.3681 -19.9977 -19.8887 -19.8243 -19.7954 -19.6513
   -19.5332 -19.4960 -19.3140 -19.2919 -19.2809 -19.2481 -19.1267 -19.0634
   -19.0320 -18.3161 -18.1153  -8.5092  -8.4135  -8.3338  -8.2982  -8.2638
    -8.2548  -8.2198  -8.0468  -7.9717  -7.9489  -7.2343  -7.1819  -7.0804
    -7.0028  -6.9854  -6.8570  -6.8178  -6.6376  -6.5265  -6.3913  -6.2330
    -6.2163  -6.1708  -6.1390  -5.9928  -5.8423  -5.7057  -5.5555  -5.4794
    -5.3835  -5.3465  -5.2294  -5.1833  -5.0872  -4.9811  -4.8513  -4.8287
    -4.7505  -4.7221  -4.6463  -4.5442  -4.3288  -4.1578  -3.9651  -3.9220
    -3.4976  -3.4476  -3.4020  -3.3416  -3.2725  -3.1541  -3.0747  -2.9990
    -2.7506  -2.6481  -2.6040  -2.4196  -0.9025  -0.8205  -0.7833  -0.7291
    -0.5643  -0.4917  -0.3872  -0.3659  -0.2913  -0.0944  -0.0236   0.0533
     0.3118   0.3898   0.5906   0.6063   0.7849   0.9236   1.1068   1.1367
     1.4637   1.4848   1.8324   1.9668   2.1421   3.5300   3.6461   3.7158
     3.7220   3.7427   4.0318   4.3958   4.4931   4.8453   5.1723   5.3083
     5.4009   5.4186   5.4972   5.6691   5.7578   6.0269   6.3396   6.3570
     6.4973   6.5554   6.7672   6.8339   7.0004   7.0756   7.2233   7.3496
     7.6003   7.7239   7.8734   7.9456   8.0460   8.1083   8.1721   8.2888
     8.4360   8.6008   8.6578   8.8424   8.9836   9.1433   9.2309   9.4155
     9.4668   9.5459   9.5928   9.7104   9.8639  10.0000  10.1010  10.2127
    10.5157  10.6009  10.6596  10.6992  10.7368  10.7738  10.8195  10.9281
    10.9605  11.0352  11.0937  11.2205  11.3771  11.4557  11.5651  11.6390
    11.7929  11.8950  11.9749  12.1052  12.1854  12.2977  12.3961  12.4606
    12.5559  12.7434  12.7972  12.8756  12.9879  13.1071  13.2131  13.4554
    13.5612  13.6160  13.7351  13.7969  13.8471  13.9940  14.1907  14.2527
    14.3688  14.4170  14.4817  14.5597  14.6184  14.6519  14.7330  14.8332
    14.8685  14.9430  14.9724  15.0608  15.1136  15.2037  15.2528  15.3818
    15.5202  15.5459  15.5743  15.7040  15.7956  15.8312  15.8870  15.9322
    15.9675  16.0761  16.1619  16.2247  16.2529  16.3345  16.3990  16.4679
    16.5571  16.5708  16.6500  16.7265  16.8134  16.8368  16.8485  16.9526
    16.9934  17.0722  17.1061  17.2330  17.2425  17.2699  17.2943  17.3446
    17.4259  17.5528  17.6120  17.6909  17.7521  17.8996  17.9659  17.9818
    18.0091  18.0975  18.2325  18.2551  18.3055  18.3308  18.3804  18.4410
    18.5315  18.6026  18.6497  18.7108  18.8149  18.9116  18.9356  19.0694
    19.1383  19.2045  19.2812  19.3621  19.4302  19.4900  19.5931  19.6391
    19.6855  19.7479  19.7870  19.9093  19.9762  19.9932  20.1766  20.2003
    20.2352  20.3368  20.3718  20.4848  20.5624  20.6289  20.7473  20.8143
    20.8414  20.8605  20.9812  21.0354  21.0696  21.1544  21.2042  21.2884
    21.3894  21.4195  21.4632  21.5245  21.5917  21.6177  21.7271  21.7618
    21.7790  21.8116  21.8616  21.8899  21.9335  21.9546  21.9880  22.0322
    22.1080  22.1994  22.3038  22.3620  22.4116  22.4333  22.4737  22.5275
    22.5662  22.6197  22.7215  22.7242  22.8007  22.8151

          k =-0.5000-0.3828 0.0000 ( 29192 PWs)   bands (ev):

   -81.4772 -81.4060 -81.3008 -81.2402 -81.2370 -81.0023 -81.0003 -80.9602
   -43.3602 -43.3397 -43.2873 -43.2804 -43.2747 -43.2541 -43.2313 -43.2083
   -43.2067 -43.1826 -43.1169 -43.1137 -43.0397 -43.0092 -43.0035 -42.9765
   -42.9478 -42.9212 -42.8846 -42.8806 -42.8770 -42.8295 -42.8254 -42.7810
   -20.5052 -20.4634 -20.3658 -19.8591 -19.8438 -19.8365 -19.7363 -19.6656
   -19.6522 -19.6418 -19.3439 -19.2734 -19.2617 -19.2516 -19.1221 -19.0648
   -19.0304 -18.3165 -18.1156  -8.4895  -8.4127  -8.3173  -8.3006  -8.2922
    -8.2318  -8.1936  -8.0428  -7.9616  -7.9418  -7.1879  -7.0958  -6.9861
    -6.7952  -6.7565  -6.7402  -6.6569  -6.6443  -6.6006  -6.5456  -6.5251
    -6.4325  -6.1497  -6.1276  -6.0045  -5.8293  -5.5751  -5.5159  -5.4738
    -5.4523  -5.4378  -5.3121  -5.2800  -5.2629  -5.1596  -4.9837  -4.9032
    -4.8669  -4.7534  -4.6938  -4.6478  -4.1258  -4.1026  -3.9702  -3.8735
    -3.5959  -3.5193  -3.3954  -3.3589  -3.2400  -3.1357  -3.0407  -2.9840
    -2.7191  -2.5292  -2.4799  -2.4101  -0.9660  -0.9341  -0.9031  -0.7588
    -0.6316  -0.5605  -0.5148  -0.3365  -0.1118   0.0810   0.3463   0.4407
     0.5766   0.5919   0.7418   0.8778   0.9904   1.1060   1.1813   1.2055
     1.5379   1.5875   1.6035   1.7279   2.1619   2.8761   2.8910   2.9566
     2.9973   3.6140   4.0741   4.5533   4.5896   4.9196   5.3252   5.4794
     5.5136   5.6661   5.7991   5.9363   6.0645   6.2573   6.2801   6.4708
     6.4716   6.6473   6.9056   6.9106   7.0331   7.0464   7.2005   7.2449
     7.3249   7.4162   7.5374   7.6943   7.7812   7.9101   7.9977   8.1750
     8.1945   8.4919   8.5456   8.7255   8.7726   8.8241   8.9228   9.1423
     9.2539   9.4966   9.6762   9.9357   9.9954  10.0526  10.0974  10.2684
    10.5282  10.6052  10.7963  10.9745  11.0307  11.0930  11.1478  11.2281
    11.3245  11.3711  11.4567  11.5390  11.6618  11.7732  11.8222  12.1735
    12.1951  12.4042  12.5363  12.6251  12.8023  12.8889  12.9567  13.0471
    13.0748  13.1116  13.1228  13.2041  13.2438  13.3330  13.3495  13.3969
    13.4282  13.4451  13.5679  13.6682  13.7252  13.7977  13.8373  13.8786
    13.9277  13.9851  14.0851  14.1699  14.2939  14.3182  14.4458  14.5872
    14.6098  14.6542  14.6756  14.7214  14.7454  14.9654  15.0488  15.1220
    15.1774  15.2462  15.3004  15.3860  15.4155  15.4733  15.4978  15.6851
    15.8432  15.8603  15.9406  16.0441  16.1296  16.1796  16.2872  16.3369
    16.3508  16.4057  16.5382  16.6216  16.7651  16.7707  16.8176  16.8207
    16.9379  17.0543  17.1048  17.2207  17.2472  17.3099  17.3352  17.3907
    17.4872  17.6023  17.6339  17.6485  17.7064  17.7431  17.7832  17.8005
    17.8833  17.9486  18.0676  18.1191  18.1265  18.1816  18.2520  18.2702
    18.3152  18.3332  18.3856  18.4411  18.5508  18.6126  18.6637  18.6962
    18.8226  18.9098  18.9222  18.9493  19.0583  19.0863  19.2451  19.3568
    19.5011  19.6350  19.6900  19.7334  19.8843  19.9852  20.1098  20.1441
    20.2270  20.2825  20.4292  20.4989  20.6584  20.6984  20.7420  20.7911
    20.8260  20.9172  21.0125  21.2668  21.3106  21.3268  21.3802  21.4011
    21.4687  21.5101  21.6836  21.7501  21.7890  21.8419  21.9887  22.1164
    22.1330  22.1641  22.2549  22.2701  22.3710  22.3768  22.4679  22.5162
    22.6242  22.7682  22.8221  22.8294  22.8877  22.9408  22.9761  23.0313
    23.0559  23.1451  23.2191  23.2505  23.3361  23.4369

          k =-0.2500 0.1914 0.0000 ( 29229 PWs)   bands (ev):

   -81.4822 -81.4010 -81.3018 -81.2585 -81.2186 -81.0209 -80.9817 -80.9591
   -43.5643 -43.4225 -43.3701 -43.3651 -43.2720 -43.2693 -43.2448 -43.2402
   -43.2255 -43.1792 -43.1695 -43.1429 -43.0623 -42.9955 -42.9566 -42.9485
   -42.9399 -42.9110 -42.8967 -42.8702 -42.8511 -42.7900 -42.5743 -42.5185
   -20.8379 -20.3885 -20.3066 -20.1942 -20.1076 -19.7741 -19.7093 -19.6968
   -19.5178 -19.4177 -19.3969 -19.3511 -19.2563 -19.1136 -19.0772 -19.0428
   -18.8124 -18.2799 -18.0017  -8.9757  -8.6589  -8.6066  -8.5639  -8.3741
    -8.2863  -8.2449  -8.0362  -7.9788  -7.8867  -7.6599  -7.6096  -7.3600
    -7.2815  -7.2163  -6.9447  -6.8336  -6.7147  -6.6049  -6.4988  -6.3704
    -6.3407  -6.0029  -5.9039  -5.7466  -5.6836  -5.5921  -5.5063  -5.4242
    -5.3036  -5.0580  -4.9789  -4.9432  -4.8389  -4.7416  -4.6974  -4.6286
    -4.5590  -4.4831  -4.3668  -4.2561  -4.1266  -3.9422  -3.8550  -3.7914
    -3.6706  -3.5668  -3.5254  -3.3441  -3.3003  -3.2292  -3.1148  -2.9991
    -2.7820  -2.6770  -2.5956  -2.4489  -2.0139  -1.8531  -1.8012  -0.9663
    -0.8384  -0.7405  -0.6210  -0.0564   0.0699   0.5474   0.5905   0.6694
     0.7894   0.8774   1.0082   1.1856   1.3700   1.3923   1.5391   1.7052
     1.7337   1.9740   2.0252   2.1599   2.4107   3.6407   3.6655   3.7436
     3.7760   3.9624   4.0156   4.2591   4.4686   4.6024   4.7126   4.8800
     4.9518   5.1808   5.3729   5.6133   5.8435   5.8954   6.1202   6.2699
     6.4325   6.4887   6.6914   6.9121   7.0060   7.0804   7.3211   7.5693
     7.6929   7.8059   7.9456   8.1363   8.2761   8.3337   8.5129   8.5852
     8.6273   8.7275   8.9386   9.0443   9.1295   9.3798   9.4624   9.5957
     9.6301   9.6915   9.8211   9.8892   9.9148  10.0019  10.0974  10.1824
    10.2519  10.3414  10.3844  10.4325  10.5054  10.7305  10.7561  10.8934
    11.0069  11.1182  11.1654  11.2675  11.4759  11.5309  11.6876  11.7546
    11.8278  11.9207  12.0381  12.2270  12.3455  12.4516  12.5938  12.6368
    12.6537  12.7407  12.8219  12.8774  12.9497  13.0372  13.1113  13.2295
    13.2839  13.4309  13.5187  13.6237  13.6915  13.7468  13.8406  13.8555
    13.9385  13.9608  13.9914  14.0701  14.1443  14.2463  14.3123  14.4181
    14.4946  14.5243  14.5766  14.6467  14.7162  14.7424  14.8523  14.8904
    14.9540  15.0019  15.0434  15.0897  15.1419  15.2133  15.3057  15.4684
    15.5091  15.5991  15.6699  15.7366  15.8395  15.9384  16.0784  16.1435
    16.1923  16.2418  16.3154  16.4850  16.5228  16.5865  16.6307  16.6868
    16.7926  16.8807  16.9565  17.0055  17.1212  17.2138  17.2493  17.2783
    17.3677  17.4855  17.6238  17.6728  17.7399  17.7933  17.8440  17.9418
    17.9700  18.0582  18.1281  18.1574  18.2648  18.2935  18.4038  18.4467
    18.5077  18.5893  18.6422  18.7106  18.7590  18.8713  18.9384  19.0182
    19.0802  19.2383  19.3048  19.3397  19.4847  19.5457  19.6366  19.6785
    19.7462  19.8493  19.9369  20.0270  20.1233  20.1718  20.2285  20.2960
    20.4488  20.5201  20.5698  20.6206  20.6926  20.7388  20.7760  20.8373
    20.8863  20.9740  20.9975  21.1479  21.1754  21.2282  21.2679  21.3214
    21.4104  21.4373  21.5134  21.6118  21.6587  21.7043  21.7625  21.8509
    21.9391  22.0160  22.0969  22.1166  22.2241  22.2466  22.3187  22.3729
    22.4213  22.4681  22.4955  22.5603  22.6357  22.6780  22.7108  22.7506
    22.7808  22.8460  22.8977  22.9334  23.0123  23.0781

     the Fermi energy is     0.6112 ev

!    total energy              =   -2176.55934018 Ry
     Harris-Foulkes estimate   =   -2176.55934018 Ry
     estimated scf accuracy    <          5.3E-09 Ry

     The total energy is the sum of the following terms:

     one-electron contribution =  -24246.17288801 Ry
     hartree contribution      =   12140.24395235 Ry
     xc contribution           =    -594.98119779 Ry
     ewald contribution        =   10524.35245686 Ry
     smearing contrib. (-TS)   =      -0.00166360 Ry

     total magnetization       =     0.00 Bohr mag/cell
     absolute magnetization    =     0.01 Bohr mag/cell

     convergence has been achieved in  19 iterations

     Forces acting on atoms (Ry/au):


     negative rho (up, down):  0.123E+00 0.124E+00
     atom    1 type  1   force =    -0.00546337   -0.00737872   -0.00055088
     atom    2 type  1   force =     0.00004478    0.00573017    0.00003205
     atom    3 type  2   force =     0.02979921   -0.00389644    0.00017765
     atom    4 type  2   force =     0.00184786    0.00780091    0.00015743
     atom    5 type  1   force =     0.00273031    0.01371184   -0.00008405
     atom    6 type  1   force =     0.00101780   -0.01467224   -0.00006710
     atom    7 type  1   force =     0.00322911    0.00011462    0.00016258
     atom    8 type  1   force =     0.00298606   -0.00158696    0.00074782
     atom    9 type  2   force =    -0.02348293    0.00156525   -0.00026723
     atom   10 type  2   force =    -0.00677876   -0.00045462    0.00036517
     atom   11 type  1   force =    -0.00521542   -0.01575120    0.00021779
     atom   12 type  1   force =    -0.00534490    0.01582582    0.00024706
     atom   13 type  1   force =    -0.00080721   -0.00007563    0.00022654
     atom   14 type  1   force =    -0.00269377   -0.00668981   -0.00032336
     atom   15 type  1   force =     0.00027129    0.00451674    0.00000377
     atom   16 type  2   force =    -0.03046380   -0.00390011    0.00005629
     atom   17 type  2   force =     0.00128059    0.00820365   -0.00006939
     atom   18 type  1   force =     0.00118352    0.01425727   -0.00010813
     atom   19 type  1   force =    -0.00076504   -0.01501935   -0.00006385
     atom   20 type  1   force =    -0.00230690   -0.00126502    0.00059381
     atom   21 type  1   force =     0.00195622   -0.00160292    0.00014711
     atom   22 type  2   force =     0.01965701    0.00171029   -0.00025874
     atom   23 type  2   force =    -0.00116205   -0.00062519   -0.00036262
     atom   24 type  1   force =     0.00862841   -0.01448554    0.00029741
     atom   25 type  1   force =     0.00847316    0.01410675    0.00027843
     atom   26 type  1   force =     0.00071325   -0.00052530   -0.00062260
     atom   27 type  3   force =     0.00000922    0.00023714    0.00041278
     atom   28 type  3   force =     0.00000101    0.00017768    0.00038841
     atom   29 type  3   force =     0.00008480    0.00010384   -0.00050160
     atom   30 type  3   force =    -0.00003792   -0.00003684   -0.00043915
     atom   31 type  1   force =     0.00030450    0.00001392   -0.00074514
     atom   32 type  3   force =     0.00030396   -0.00010999   -0.00004825

     Total force =     0.002051     Total SCF correction =     0.000175

     bfgs converged in  10 scf cycles and   9 bfgs steps
     (criteria: energy < 0.10E-03, force < 0.10E-02)

     End of BFGS Geometry Optimization

     Final energy   =   -2176.5593401843 Ry
Begin final coordinates

ATOMIC_POSITIONS (crystal)
O0       0.000000000   0.000000000   0.370620133    0   0   1
O0       0.000000000   0.500000000   0.382072075    0   0   1
Re1      0.250000000   0.500000000   0.441754657    0   0   1
Re1      0.000000000   0.000000000   0.443390161    0   0   1
O0       0.250000000   0.780000000   0.441752471    0   0   1
O0       0.250000000   0.220000000   0.441609916    0   0   1
O0       0.000000000   0.500000000   0.497079792    0   0   1
O0       0.000000000   0.000000000   0.515031102    0   0   1
Re1      0.250000000   0.000000000   0.574831646    0   0   1
Re1      0.000000000   0.500000000   0.566419663    0   0   1
O0       0.250000000   0.720000000   0.572988774    0   0   1
O0       0.250000000   0.280000000   0.573051657    0   0   1
O0       0.000000000   0.000000000   0.627096338    0   0   1
O0       0.500000000   0.000000000   0.370655983    0   0   1
O0       0.500000000   0.500000000   0.382358478    0   0   1
Re1      0.750000000   0.500000000   0.441780201    0   0   1
Re1      0.500000000   0.000000000   0.443236224    0   0   1
O0       0.750000000   0.780000000   0.441698005    0   0   1
O0       0.750000000   0.220000000   0.441675312    0   0   1
O0       0.500000000   0.500000000   0.498999282    0   0   1
O0       0.500000000   0.000000000   0.514901400    0   0   1
Re1      0.750000000   0.000000000   0.574685457    0   0   1
Re1      0.500000000   0.500000000   0.572651502    0   0   1
O0       0.750000000   0.720000000   0.572175869    0   0   1
O0       0.750000000   0.280000000   0.572176484    0   0   1
O0       0.500000000   0.000000000   0.626452168    0   0   1
H2      -0.000363631   0.625074871   0.365176465
H2       0.499617319   0.623145912   0.364547953
H2       0.169499420   0.023144034   0.356502707
H2       0.670445541   0.021882479   0.356679878
O0       0.527756626   0.499666077   0.643907629
H2       0.378821414   0.499172945   0.665050619
End final coordinates



     init_run     :    112.66s CPU    148.10s WALL (       1 calls)
     electrons    :  49539.50s CPU  64716.61s WALL (      10 calls)
     update_pot   :     58.28s CPU     68.92s WALL (       9 calls)
     forces       :    822.22s CPU    846.87s WALL (      10 calls)

     Called by init_run:
     wfcinit      :     83.47s CPU    116.78s WALL (       1 calls)
     potinit      :      2.89s CPU      3.89s WALL (       1 calls)

     Called by electrons:
     c_bands      :  37314.20s CPU  49292.10s WALL (     164 calls)
     sum_band     :   8495.93s CPU  11374.36s WALL (     164 calls)
     v_of_rho     :    168.69s CPU    274.45s WALL (     166 calls)
     newd         :   3713.41s CPU   3806.47s WALL (     166 calls)
     mix_rho      :     31.15s CPU     54.42s WALL (     164 calls)

     Called by c_bands:
     init_us_2    :     66.53s CPU     67.09s WALL (    6780 calls)
     cegterg      :  36961.62s CPU  48938.35s WALL (    3280 calls)

     Called by *egterg:
     h_psi        :  20681.74s CPU  31343.52s WALL (    7821 calls)
     s_psi        :   1790.55s CPU   1791.99s WALL (    7821 calls)
     g_psi        :     29.69s CPU     29.69s WALL (    4521 calls)
     cdiaghg      :   7086.90s CPU   7363.74s WALL (    7461 calls)

     Called by h_psi:
     add_vuspsi   :   1808.15s CPU   1814.82s WALL (    7821 calls)

     General routines
     calbec       :   2896.97s CPU   3197.65s WALL (   11301 calls)
     fft          :    358.73s CPU    686.08s WALL (    5300 calls)
     ffts         :      5.42s CPU     10.15s WALL (     660 calls)
     fftw         :  18558.04s CPU  31583.22s WALL ( 6016338 calls)
     interpolate  :     37.10s CPU     67.85s WALL (     660 calls)

     Parallel routines
     fft_scatter  :  13567.00s CPU  26858.15s WALL ( 6022298 calls)

     PWSCF        :    14h 5m CPU       18h20m WALL


   This run was terminated on:  15:54: 5   8Apr2014            

=------------------------------------------------------------------------------=
   JOB DONE.
=------------------------------------------------------------------------------=
---------------------------------------
Running PBS batch system epilogue script
Job id: 329699.audhumbla.fysik.dtu.dk
Username: zhonxu
Groupname: campgst
Jobname: ReO2/Eads-2-layers/OH-relax-surf
Sessionid: 25376
Resources limits: neednodes=2:ppn=8:xeon8,nodes=2:ppn=8:xeon8,walltime=48:00:00
Resources used: cput=293:08:17,mem=9932596kb,vmem=13405764kb,walltime=18:20:23
Queuename: verylong
Accounting:
This job has allocated the following 16 nodes:
b044 b044 b044 b044 b044 b044 b044 b044 b033 b033 b033 b033 b033 b033 b033 b033
Finished epilogue job 329699.audhumbla.fysik.dtu.dk for zhonxu
