
     Program PWSCF v.5.0.2 (svn rev. 9656) starts on 24Jan2014 at 15:48: 0 

     This program is part of the open-source Quantum ESPRESSO suite
     for quantum simulation of materials; please cite
         "P. Giannozzi et al., J. Phys.:Condens. Matter 21 395502 (2009);
          URL http://www.quantum-espresso.org", 
     in publications or presentations arising from this work. More details at
     http://www.quantum-espresso.org/quote.php

     Parallel version (MPI), running on     4 processors
     R & G space division:  proc/nbgrp/npool/nimage =       4

     Current dimensions of program PWSCF are:
     Max number of different atomic species (ntypx) = 10
     Max number of k-points (npk) =  40000
     Max angular momentum in pseudopotentials (lmaxx) =  3
     Reading input from MoO2-v-0.90.in

     Subspace diagonalization in iterative solution of the eigenvalue problem:
     a serial algorithm will be used


     Parallelization info
     --------------------
     sticks:   dense  smooth     PW     G-vecs:    dense   smooth      PW
     Min         723     233     70                18932     3423     566
     Max         724     234     72                18933     3432     567
     Sum        2893     933    285                75731    13707    2265



     bravais-lattice index     =            0
     lattice parameter (alat)  =       8.5383  a.u.
     unit-cell volume          =     401.1426 (a.u.)^3
     number of atoms/cell      =            6
     number of atomic types    =            2
     number of electrons       =        52.00
     number of Kohn-Sham states=           78
     kinetic-energy cutoff     =      40.0000  Ry
     charge density cutoff     =     500.0000  Ry
     convergence threshold     =      1.0E-06
     mixing beta               =       0.3000
     number of iterations used =            8  plain     mixing
     Exchange-correlation      = SLA  PW   PBE  PBE ( 1 4 3 4 0)
     EXX-fraction              =        0.00
     nstep                     =           50


     celldm(1)=   8.538294  celldm(2)=   0.000000  celldm(3)=   0.000000
     celldm(4)=   0.000000  celldm(5)=   0.000000  celldm(6)=   0.000000

     crystal axes: (cart. coord. in units of alat)
               a(1) = (   1.000000   0.000000   0.000000 )  
               a(2) = (   0.000000   1.000000   0.000000 )  
               a(3) = (   0.000000   0.000000   0.644444 )  

     reciprocal axes: (cart. coord. in units 2 pi/alat)
               b(1) = (  1.000000  0.000000  0.000000 )  
               b(2) = (  0.000000  1.000000  0.000000 )  
               b(3) = (  0.000000  0.000000  1.551724 )  


     PseudoPot. # 1 for Mo read from file:
     /home/camp/zhonxu/pseudo/mo_pbe_v1.uspp.F.UPF
     MD5 check sum: 30c4dcd161f5d35cd49bb5239c51a633
     Pseudo is Ultrasoft + core correction, Zval = 14.0
     Generated by new atomic code, or converted to UPF format
     Using radial grid of  889 points,  6 beta functions with: 
                l(1) =   0
                l(2) =   0
                l(3) =   1
                l(4) =   1
                l(5) =   2
                l(6) =   2
     Q(r) pseudized with  6 coefficients,  rinner =    1.000   1.000   1.000
                                                       1.000   1.000

     PseudoPot. # 2 for O  read from file:
     /home/camp/zhonxu/pseudo/o_pbe_v1.01.uspp.F.UPF
     MD5 check sum: 2bcb18d16ea4b960afae9ec6d52f22d2
     Pseudo is Ultrasoft + core correction, Zval =  6.0
     Generated by new atomic code, or converted to UPF format
     Using radial grid of  737 points,  5 beta functions with: 
                l(1) =   0
                l(2) =   0
                l(3) =   1
                l(4) =   1
                l(5) =   2
     Q(r) pseudized with  8 coefficients,  rinner =    0.900   0.900   0.900
                                                       0.900   0.900

     atomic species   valence    mass     pseudopotential
        Mo0           14.00    95.94000     Mo( 1.00)
        O1             6.00    15.99940     O ( 1.00)

     Starting magnetic structure 
     atomic species   magnetization
        Mo0          0.000
        O1           0.000

     16 Sym. Ops., with inversion, found ( 8 have fractional translation)



   Cartesian axes

     site n.     atom                  positions (alat units)
         1           Mo0 tau(   1) = (   0.0000000   0.0000000   0.0000000  )
         2           Mo0 tau(   2) = (   0.5000000   0.5000000   0.3222222  )
         3           O1  tau(   3) = (   0.3050000   0.3050000   0.0000000  )
         4           O1  tau(   4) = (  -0.3050000  -0.3050000   0.0000000  )
         5           O1  tau(   5) = (   0.8050000   0.1950000   0.3222222  )
         6           O1  tau(   6) = (   0.1950000   0.8050000   0.3222222  )

     number of k points=    36  Methfessel-Paxton smearing, width (Ry)=  0.0100
                       cart. coord. in units 2pi/alat
        k(    1) = (   0.0000000   0.0000000   0.0000000), wk =   0.0080000
        k(    2) = (   0.0000000   0.0000000   0.3103448), wk =   0.0160000
        k(    3) = (   0.0000000   0.0000000   0.6206897), wk =   0.0160000
        k(    4) = (   0.0000000   0.2000000   0.0000000), wk =   0.0320000
        k(    5) = (   0.0000000   0.2000000   0.3103448), wk =   0.0640000
        k(    6) = (   0.0000000   0.2000000   0.6206897), wk =   0.0640000
        k(    7) = (   0.0000000   0.4000000   0.0000000), wk =   0.0320000
        k(    8) = (   0.0000000   0.4000000   0.3103448), wk =   0.0640000
        k(    9) = (   0.0000000   0.4000000   0.6206897), wk =   0.0640000
        k(   10) = (   0.2000000   0.2000000   0.0000000), wk =   0.0320000
        k(   11) = (   0.2000000   0.2000000   0.3103448), wk =   0.0640000
        k(   12) = (   0.2000000   0.2000000   0.6206897), wk =   0.0640000
        k(   13) = (   0.2000000   0.4000000   0.0000000), wk =   0.0640000
        k(   14) = (   0.2000000   0.4000000   0.3103448), wk =   0.1280000
        k(   15) = (   0.2000000   0.4000000   0.6206897), wk =   0.1280000
        k(   16) = (   0.4000000   0.4000000   0.0000000), wk =   0.0320000
        k(   17) = (   0.4000000   0.4000000   0.3103448), wk =   0.0640000
        k(   18) = (   0.4000000   0.4000000   0.6206897), wk =   0.0640000
        k(   19) = (   0.0000000   0.0000000   0.0000000), wk =   0.0080000
        k(   20) = (   0.0000000   0.0000000   0.3103448), wk =   0.0160000
        k(   21) = (   0.0000000   0.0000000   0.6206897), wk =   0.0160000
        k(   22) = (   0.0000000   0.2000000   0.0000000), wk =   0.0320000
        k(   23) = (   0.0000000   0.2000000   0.3103448), wk =   0.0640000
        k(   24) = (   0.0000000   0.2000000   0.6206897), wk =   0.0640000
        k(   25) = (   0.0000000   0.4000000   0.0000000), wk =   0.0320000
        k(   26) = (   0.0000000   0.4000000   0.3103448), wk =   0.0640000
        k(   27) = (   0.0000000   0.4000000   0.6206897), wk =   0.0640000
        k(   28) = (   0.2000000   0.2000000   0.0000000), wk =   0.0320000
        k(   29) = (   0.2000000   0.2000000   0.3103448), wk =   0.0640000
        k(   30) = (   0.2000000   0.2000000   0.6206897), wk =   0.0640000
        k(   31) = (   0.2000000   0.4000000   0.0000000), wk =   0.0640000
        k(   32) = (   0.2000000   0.4000000   0.3103448), wk =   0.1280000
        k(   33) = (   0.2000000   0.4000000   0.6206897), wk =   0.1280000
        k(   34) = (   0.4000000   0.4000000   0.0000000), wk =   0.0320000
        k(   35) = (   0.4000000   0.4000000   0.3103448), wk =   0.0640000
        k(   36) = (   0.4000000   0.4000000   0.6206897), wk =   0.0640000

     Dense  grid:    75731 G-vectors     FFT dimensions: (  64,  64,  40)

     Smooth grid:    13707 G-vectors     FFT dimensions: (  36,  36,  24)

     Largest allocated arrays     est. size (Mb)     dimensions
        Kohn-Sham Wavefunctions         0.51 Mb     (    428,   78)
        NL pseudopotentials             0.57 Mb     (    428,   88)
        Each V/rho on FFT grid          1.25 Mb     (  40960,   2)
        Each G-vector array             0.14 Mb     (  18933)
        G-vector shells                 0.14 Mb     (  18933)
     Largest temporary arrays     est. size (Mb)     dimensions
        Auxiliary wavefunctions         2.04 Mb     (    428,  312)
        Each subspace H/S matrix        1.49 Mb     ( 312, 312)
        Each <psi_i|beta_j> matrix      0.10 Mb     (     88,   78)
        Arrays for rho mixing           5.00 Mb     (  40960,   8)

     Check: negative/imaginary core charge=   -0.000008    0.000000

     Initial potential from superposition of free atoms

     starting charge   51.99787, renormalised to   52.00000
     Starting wfc are   42 randomized atomic wfcs

     total cpu time spent up to now is        9.9 secs

     per-process dynamical memory:    45.1 Mb

     Self-consistent Calculation

     iteration #  1     ecut=    40.00 Ry     beta=0.30
     Davidson diagonalization with overlap
     ethr =  1.00E-02,  avg # of iterations =  5.2

     total cpu time spent up to now is       54.6 secs

     total energy              =    -407.38673851 Ry
     Harris-Foulkes estimate   =    -408.05556970 Ry
     estimated scf accuracy    <       1.56034734 Ry

     total magnetization       =    -0.00 Bohr mag/cell
     absolute magnetization    =     0.00 Bohr mag/cell

     iteration #  2     ecut=    40.00 Ry     beta=0.30
     Davidson diagonalization with overlap
     ethr =  3.00E-03,  avg # of iterations =  1.0

     total cpu time spent up to now is       71.0 secs

     total energy              =    -407.66637247 Ry
     Harris-Foulkes estimate   =    -407.67674775 Ry
     estimated scf accuracy    <       0.05517067 Ry

     total magnetization       =    -0.00 Bohr mag/cell
     absolute magnetization    =     0.00 Bohr mag/cell

     iteration #  3     ecut=    40.00 Ry     beta=0.30
     Davidson diagonalization with overlap
     ethr =  1.06E-04,  avg # of iterations =  1.7

     total cpu time spent up to now is       88.5 secs

     total energy              =    -407.66877042 Ry
     Harris-Foulkes estimate   =    -407.67045060 Ry
     estimated scf accuracy    <       0.01875837 Ry

     total magnetization       =    -0.00 Bohr mag/cell
     absolute magnetization    =     0.00 Bohr mag/cell

     iteration #  4     ecut=    40.00 Ry     beta=0.30
     Davidson diagonalization with overlap
     ethr =  3.61E-05,  avg # of iterations =  1.3

     total cpu time spent up to now is      105.2 secs

     total energy              =    -407.67012107 Ry
     Harris-Foulkes estimate   =    -407.67018353 Ry
     estimated scf accuracy    <       0.00203438 Ry

     total magnetization       =    -0.00 Bohr mag/cell
     absolute magnetization    =     0.00 Bohr mag/cell

     iteration #  5     ecut=    40.00 Ry     beta=0.30
     Davidson diagonalization with overlap
     ethr =  3.91E-06,  avg # of iterations =  3.2

     total cpu time spent up to now is      125.6 secs

     total energy              =    -407.67035207 Ry
     Harris-Foulkes estimate   =    -407.67049268 Ry
     estimated scf accuracy    <       0.00041614 Ry

     total magnetization       =    -0.00 Bohr mag/cell
     absolute magnetization    =     0.00 Bohr mag/cell

     iteration #  6     ecut=    40.00 Ry     beta=0.30
     Davidson diagonalization with overlap
     ethr =  8.00E-07,  avg # of iterations =  1.0

     total cpu time spent up to now is      141.8 secs

     total energy              =    -407.67045277 Ry
     Harris-Foulkes estimate   =    -407.67044264 Ry
     estimated scf accuracy    <       0.00001802 Ry

     total magnetization       =    -0.00 Bohr mag/cell
     absolute magnetization    =     0.00 Bohr mag/cell

     iteration #  7     ecut=    40.00 Ry     beta=0.30
     Davidson diagonalization with overlap
     ethr =  3.47E-08,  avg # of iterations =  1.0

     total cpu time spent up to now is      157.3 secs

     End of self-consistent calculation

 ------ SPIN UP ------------


          k = 0.0000 0.0000 0.0000 (  1715 PWs)   bands (ev):

   -46.4339 -46.4053 -20.7993 -20.7993 -20.5740 -20.5019 -20.4901 -20.4901
    -5.7918  -4.9946  -3.3603  -3.3603   5.8674   6.1541   6.9142   7.8099
     7.8099  10.2684  10.2684  10.8714  11.8454  11.9553  11.9553  12.5966
    14.7707  15.2016  15.6677  15.7843  15.7843  19.2921  19.3482  20.9649
    22.4659  22.4659  24.0546  24.7167  24.7167  28.2639  30.5262  31.2626
    31.5024  32.0409  33.1652  33.1652  35.7438  35.9595  36.5233  36.5233
    37.3473  37.3473  38.5612  42.6054  42.6054  42.9897  43.2897  43.8963
    45.6685  46.5204  46.5204  47.0205  47.2432  47.2432  47.5698  47.7077
    49.2804  49.5364  49.5364  49.7761  51.6515  53.6345  54.2706  54.2706
    54.9765  55.2394  55.4687  55.4687  56.3999  56.5715

          k = 0.0000 0.0000 0.3103 (  1715 PWs)   bands (ev):

   -46.4061 -46.3830 -20.8808 -20.8261 -20.7233 -20.7233 -20.4724 -20.4724
    -5.2331  -4.5595  -3.8083  -3.8083   6.5118   6.9406   7.4212   7.8401
     7.8401   9.6497  10.3834  10.6861  10.6861  11.2970  11.2970  12.3210
    15.3714  15.6435  15.9017  16.3460  16.3460  18.6817  20.1452  21.8237
    21.8562  21.8562  23.6313  26.5446  26.5446  28.5080  29.3425  30.8032
    31.0273  31.9785  32.4241  32.4241  34.0868  37.1857  37.2224  37.2224
    37.7642  37.7642  40.7387  41.6036  41.7822  41.9168  42.3425  42.3425
    42.5236  43.8463  44.0481  44.0481  49.0149  49.0149  49.3125  49.7980
    50.5240  50.7235  50.7235  51.5971  52.4699  53.0765  53.4763  53.4763
    54.2831  55.0804  55.0804  56.7060  57.5856  58.0751

          k = 0.0000 0.0000 0.6207 (  1703 PWs)   bands (ev):

   -46.3582 -46.3493 -21.3403 -21.3212 -20.5870 -20.5870 -20.4535 -20.4535
    -4.4826  -4.4826  -4.2378  -3.9584   7.4591   7.7603   8.1848   8.1848
     8.7804   8.8510   9.0762   9.8684   9.8684  10.8279  11.4212  11.4212
    15.8375  16.4251  17.1339  17.2238  17.2238  17.2477  20.9437  21.1607
    21.8135  21.8135  24.9077  26.9709  29.0036  29.0036  29.1908  29.9911
    31.0002  31.0002  31.2865  31.4028  32.5618  33.9795  37.2384  37.2384
    39.0060  39.0060  39.8721  40.6178  41.0053  41.0076  42.3808  42.3808
    42.8977  44.4309  44.4309  46.8528  48.3593  48.6676  48.6676  50.7472
    50.7472  50.9763  50.9763  51.0428  51.9564  51.9711  53.0765  54.5483
    54.5483  55.5656  55.6902  57.0297  57.3654  57.3654

          k = 0.0000 0.2000 0.0000 (  1721 PWs)   bands (ev):

   -46.4311 -46.4080 -20.7734 -20.7710 -20.5671 -20.5225 -20.5198 -20.5088
    -5.6186  -4.9151  -3.5726  -3.5095   6.1865   6.4727   7.2220   7.8415
     7.8512   9.8450  10.0245  10.7972  11.1931  11.5590  11.6205  12.4367
    15.1249  15.5952  16.0532  16.0892  16.1093  18.9100  19.7277  21.4878
    22.2195  22.2499  23.5789  24.7000  25.0803  28.1253  29.9864  30.2674
    31.7245  31.9734  33.1236  34.2071  35.2796  35.7222  35.8559  36.3494
    37.7311  38.3140  40.1157  41.0791  42.6436  42.7279  43.6331  44.5138
    45.3445  45.8381  46.1980  46.7670  47.3549  47.9577  48.4166  48.9590
    49.4849  49.6348  50.2431  50.6883  51.6877  52.4686  53.7133  53.9252
    54.1671  54.5588  54.9208  55.0368  55.4253  55.5921

          k = 0.0000 0.2000 0.3103 (  1715 PWs)   bands (ev):

   -46.4039 -46.3851 -20.8857 -20.8393 -20.6968 -20.6922 -20.4956 -20.4933
    -5.1023  -4.5001  -3.9509  -3.8944   6.7637   7.0897   7.4898   7.8444
     8.1983   9.3954   9.6437  10.7075  10.7482  11.1378  11.1394  12.1896
    15.3721  16.0716  16.1264  16.3274  16.7238  18.4223  20.3718  21.0847
    21.5943  22.8336  23.3183  26.1105  26.7720  28.7456  29.3939  30.1829
    30.7186  31.7124  31.8204  33.8644  34.4392  36.2295  36.9848  37.4173
    37.5300  38.3419  40.9266  41.0713  41.1867  41.5177  42.1623  42.8826
    43.9316  43.9494  44.7325  45.5596  48.6803  49.1998  49.2737  49.8067
    50.7067  50.7891  51.0755  51.3590  52.5247  53.0412  53.1269  53.4247
    53.5966  54.2390  55.3475  56.1167  56.7964  57.5151

          k = 0.0000 0.2000 0.6207 (  1708 PWs)   bands (ev):

   -46.3573 -46.3502 -21.3443 -21.3288 -20.5763 -20.5746 -20.4600 -20.4584
    -4.7635  -4.7097  -3.9009  -3.7253   7.2718   7.4292   7.8449   8.2091
     8.8109   9.0080   9.6443  10.0072  10.2724  11.0898  11.1897  11.2161
    15.3791  16.3501  16.6294  17.1342  17.5065  17.7258  20.5841  20.8153
    22.0406  22.5529  24.8061  26.5021  28.2194  29.0491  29.2153  29.8085
    30.5153  30.9097  31.7732  32.1829  33.3692  34.0683  36.7879  36.9865
    38.2245  38.9298  40.1575  40.1921  41.3147  41.6976  42.5227  43.2480
    43.9542  44.1703  44.4520  47.4107  48.6542  48.9443  49.1531  49.3590
    50.5208  50.5546  50.7664  51.7195  51.9939  52.4111  52.7757  54.0397
    54.2770  55.4275  55.5984  57.0060  57.6660  57.9324

          k = 0.0000 0.4000 0.0000 (  1709 PWs)   bands (ev):

   -46.4239 -46.4151 -20.7040 -20.6979 -20.6020 -20.5957 -20.5490 -20.5267
    -5.1792  -4.8291  -3.9421  -3.8339   6.9152   7.0679   7.9037   7.9142
     8.1756   9.0807   9.2344   9.7007  10.7720  11.0528  11.6015  12.0061
    15.6852  15.9201  16.5357  16.5896  17.0032  18.0254  20.8475  21.8168
    21.8503  22.2778  22.7757  24.0234  26.1799  27.6238  29.3123  29.5076
    31.5884  32.7944  33.0791  33.2898  33.6869  34.9685  37.2125  38.1439
    38.3453  39.5788  40.5572  41.3645  42.5581  42.7509  42.8112  43.0212
    45.1519  45.5416  46.3119  47.0748  47.9280  48.2642  48.7488  49.2361
    50.4034  50.4439  51.3080  51.5714  51.8575  51.8648  53.3144  53.4863
    53.6882  54.0668  54.4073  54.4139  55.2692  55.3260

          k = 0.0000 0.4000 0.3103 (  1723 PWs)   bands (ev):

   -46.3981 -46.3909 -20.8837 -20.8647 -20.6331 -20.6236 -20.5565 -20.5492
    -4.7557  -4.3381  -4.3120  -4.1033   7.3353   7.4111   7.7583   7.8441
     8.6380   8.8276   9.4131  10.0966  10.1006  10.5611  11.6081  11.9281
    15.8008  16.1820  16.5420  16.6707  17.3247  17.8332  20.5609  20.5917
    21.5680  22.4914  24.0062  25.1304  27.5833  28.8025  29.3269  29.6876
    30.4012  30.6395  32.1245  33.5283  35.3473  36.5115  37.1324  37.3530
    37.6262  38.9272  39.9893  40.2204  41.2100  41.3969  42.6514  42.8266
    44.5443  45.8469  46.1987  47.0044  47.9556  48.6093  49.3001  49.8079
    50.6110  50.9042  51.1152  51.4588  52.2297  52.4368  53.1030  53.1198
    54.1623  54.8285  55.3828  56.0822  56.4508  57.2690

          k = 0.0000 0.4000 0.6207 (  1710 PWs)   bands (ev):

   -46.3551 -46.3523 -21.3487 -21.3427 -20.5551 -20.5528 -20.4725 -20.4703
    -4.9662  -4.9424  -3.5773  -3.5113   7.0552   7.0620   7.6605   7.7808
     9.2786   9.6026   9.8321  10.4322  10.5943  10.7197  11.0233  11.5657
    14.8793  15.3585  16.9561  17.1261  17.8073  17.8773  20.2540  20.4520
    22.6389  23.0371  24.9338  25.6344  28.0183  28.4222  28.9181  29.1387
    30.5082  31.2772  32.3300  32.9947  34.1162  34.1301  36.0184  36.3837
    38.6563  38.9544  40.1108  40.2957  41.5649  41.7858  43.2978  43.5449
    44.4700  44.5510  46.8744  47.0343  47.1485  48.2555  49.4220  49.4736
    50.3372  50.5576  51.0863  51.6783  52.1677  52.2039  53.3075  54.1856
    55.0008  55.3399  55.9491  56.4842  56.8286  57.2008

          k = 0.2000 0.2000 0.0000 (  1730 PWs)   bands (ev):

   -46.4289 -46.4101 -20.8087 -20.6933 -20.6055 -20.5615 -20.5144 -20.4841
    -5.5313  -4.8389  -3.8757  -3.4049   6.0023   7.0579   7.4942   7.7827
     7.9184   9.2335  10.1627  10.7544  10.8878  11.4948  11.5254  12.3037
    14.8982  15.7983  15.8816  16.4558  16.5612  18.6835  19.8872  21.8348
    22.1345  22.4582  23.1163  24.8969  25.1788  27.8341  29.2286  29.5335
    31.7803  32.4424  33.0952  35.4646  35.5950  35.7545  36.4874  36.5753
    36.9162  37.9817  39.8444  40.5540  42.0527  43.1549  43.4801  43.4887
    45.2448  46.3899  46.4931  47.9744  48.0097  48.5948  48.7767  49.1864
    49.3796  49.9246  49.9364  51.7816  51.8833  52.1104  52.5382  53.5609
    53.6436  54.0497  54.6646  55.4788  55.9097  55.9906

          k = 0.2000 0.2000 0.3103 (  1726 PWs)   bands (ev):

   -46.4021 -46.3869 -20.8832 -20.8443 -20.7312 -20.6221 -20.5581 -20.4677
    -5.0211  -4.4200  -4.1711  -3.8469   6.7086   7.3788   7.4325   8.0386
     8.3388   8.9673  10.0171  10.1592  10.5339  11.2496  11.3333  12.0188
    15.4145  15.7246  16.3146  16.8031  16.8102  18.2089  20.4310  20.7883
    21.8120  22.9640  23.3401  25.9987  26.6225  28.6941  29.1029  29.5773
    30.8290  31.5409  32.8349  33.4233  34.8220  36.0968  36.4804  37.5918
    37.7180  38.6804  40.5771  40.6746  41.2858  41.4106  42.8026  43.3044
    43.8100  44.5580  45.8846  46.0438  48.3125  48.6513  48.9984  49.7066
    50.6946  51.0315  51.3263  51.7648  52.5746  52.5921  53.1389  53.4643
    53.5770  54.0783  54.4684  55.1191  57.3473  57.7299

          k = 0.2000 0.2000 0.6207 (  1703 PWs)   bands (ev):

   -46.3566 -46.3508 -21.3466 -21.3295 -20.5904 -20.5525 -20.4719 -20.4531
    -4.9550  -4.5145  -4.0678  -3.5363   7.1315   7.5487   7.7099   8.0613
     8.4859   9.5892   9.8788   9.9067  10.4751  10.7889  11.2362  11.4697
    15.1551  16.5466  16.6483  16.8454  17.2021  18.0126  20.2242  21.3293
    21.7779  22.8013  24.7539  26.4269  26.9921  28.6862  29.1614  29.8668
    31.1006  31.4033  31.5799  32.4415  33.8240  34.3119  36.0378  36.8525
    38.1398  38.7857  39.4797  41.4335  41.7469  42.6123  42.9648  43.6598
    44.0562  44.1329  45.0766  47.7054  48.1136  48.6671  49.1521  49.5600
    49.8762  50.6332  50.7484  51.1145  52.0021  52.4756  52.9124  53.8627
    54.0727  54.9486  56.1809  56.3218  57.1727  57.2808

          k = 0.2000 0.4000 0.0000 (  1720 PWs)   bands (ev):

   -46.4230 -46.4159 -20.7869 -20.7137 -20.5878 -20.5468 -20.5288 -20.5109
    -5.2699  -4.9245  -3.9182  -3.5989   6.3306   7.0258   7.8087   7.8932
     8.3067   9.1934   9.5856  10.4337  10.8837  11.2259  11.2462  11.7887
    15.2799  15.8047  16.0985  16.5715  17.2264  18.0479  20.7580  21.8286
    22.0148  22.2249  23.2695  24.3464  26.1991  27.4247  28.3595  28.5034
    31.9099  32.6151  33.7500  34.8994  35.0998  35.3197  37.0577  37.9636
    38.2169  38.6198  39.6505  40.4546  41.5375  41.6462  42.3103  43.9132
    45.2720  45.5711  47.0999  47.9035  48.3662  48.4006  49.5771  50.0216
    50.3361  50.6419  51.1375  52.0265  52.2618  52.3889  52.5625  53.0536
    53.8009  53.9000  54.3320  55.1894  55.2696  56.3008

          k = 0.2000 0.4000 0.3103 (  1714 PWs)   bands (ev):

   -46.3973 -46.3915 -20.8764 -20.8612 -20.7061 -20.6380 -20.5440 -20.4865
    -4.8011  -4.4948  -4.2095  -3.9724   6.9444   7.3879   7.5442   7.8163
     8.8397   9.0804   9.6939  10.2118  10.3461  10.8924  11.3209  11.6595
    15.8096  16.0157  16.2858  16.7112  17.2022  17.6963  20.5962  21.0534
    21.6289  22.3132  24.2482  25.1750  27.2741  28.3957  28.7624  28.9378
    30.9457  31.2238  32.7593  33.5681  35.0137  35.6142  37.0949  38.1244
    38.2587  38.9358  40.0489  40.2300  41.4962  42.0313  42.5632  43.2681
    44.5653  45.3192  46.3434  47.0616  48.0119  48.7764  49.1360  49.7611
    50.1340  50.9392  51.3966  51.5916  51.7445  52.5618  52.6964  53.0612
    54.0533  54.5222  55.0259  55.3693  55.9603  56.6939

          k = 0.2000 0.4000 0.6207 (  1705 PWs)   bands (ev):

   -46.3548 -46.3526 -21.3450 -21.3364 -20.5803 -20.5562 -20.4706 -20.4582
    -4.9593  -4.7515  -3.7898  -3.5319   7.0355   7.2271   7.7320   8.0568
     8.6521   9.4335   9.9585  10.2600  10.4508  10.9384  11.3413  11.7331
    15.0320  15.6453  16.8902  17.0609  17.3316  17.8253  20.3200  20.8790
    22.3391  22.8414  24.8780  25.5617  26.8141  27.6456  29.1392  29.8050
    31.1058  31.3155  32.2573  33.0647  33.9163  34.6258  35.5869  36.3874
    38.9410  39.2396  39.7394  41.1282  42.4164  42.7874  43.5971  43.7376
    44.7373  45.4991  46.6534  47.0453  47.2577  48.2969  48.9219  49.4690
    49.8261  50.1283  50.3928  51.1448  52.0372  52.9298  53.0698  53.5995
    53.9682  54.2620  55.4789  55.7339  56.6954  57.2624

          k = 0.4000 0.4000 0.0000 (  1726 PWs)   bands (ev):

   -46.4208 -46.4181 -20.8238 -20.7959 -20.5412 -20.5343 -20.5046 -20.4744
    -5.3110  -5.1700  -3.6375  -3.4737   6.0330   6.3492   7.7385   7.7856
     8.9620   9.6944   9.9604  10.5714  10.9957  11.2123  11.4178  11.6546
    14.8475  15.2588  15.8235  16.1122  17.6560  17.9628  20.9873  21.4675
    22.2182  22.4459  24.0624  24.5459  26.5350  27.0589  27.3973  27.4472
    32.1826  32.5339  35.0467  36.0035  36.6514  36.9137  37.0231  37.4242
    37.6513  37.9433  38.0533  39.2906  40.5894  41.7314  42.3596  43.8465
    44.7226  45.5625  46.4403  47.1346  48.3443  49.3392  50.3144  50.4784
    50.6110  50.7360  51.7725  52.5526  52.6168  53.2253  53.3453  53.5723
    53.6822  54.4475  54.7256  55.1694  55.6971  55.7062

          k = 0.4000 0.4000 0.3103 (  1704 PWs)   bands (ev):

   -46.3955 -46.3933 -20.8621 -20.8540 -20.7440 -20.7128 -20.4816 -20.4600
    -4.8096  -4.7018  -4.0085  -3.9069   6.7496   6.9589   7.4391   7.5566
     9.5720   9.6017  10.0504  10.2931  10.7528  10.8956  10.9189  11.3451
    15.6987  16.0136  16.0548  16.3210  17.1693  17.3871  21.1661  21.4561
    21.7333  21.9202  24.6714  25.0459  27.1211  27.6394  28.4714  28.6197
    30.8999  30.9066  33.4238  33.8713  34.5966  35.4942  37.5420  38.6083
    38.8161  38.9726  40.3057  40.7247  41.9449  42.4671  43.0857  43.7700
    44.8006  44.8464  46.1976  46.3627  47.9787  48.9354  49.1136  49.4242
    49.8697  49.9807  50.4671  51.1053  51.2244  52.5877  52.9203  53.2568
    53.9597  54.1247  55.7097  55.8576  56.4236  56.7275

          k = 0.4000 0.4000 0.6207 (  1695 PWs)   bands (ev):

   -46.3540 -46.3531 -21.3350 -21.3301 -20.5960 -20.5832 -20.4576 -20.4522
    -4.7644  -4.5645  -3.9943  -3.7659   7.1804   7.4373   8.0251   8.0979
     8.4162   8.7813   9.7911  10.0320  10.7355  10.9859  11.7627  11.9236
    15.5172  16.1267  16.6520  16.8816  16.9571  17.2928  20.8306  21.5321
    21.6956  22.3197  24.6940  24.9703  26.8008  27.7491  28.0731  29.0801
    31.3181  31.4632  32.9139  33.2531  34.1402  34.6754  35.8804  36.3330
    39.9094  39.9150  40.0820  41.2559  43.0767  43.1494  44.6291  45.1144
    45.3573  46.4090  47.0830  47.3978  47.8634  48.0809  48.4533  48.7949
    49.3373  49.3517  50.0373  50.1259  50.9711  51.2367  51.6036  53.4003
    54.1085  54.5437  54.5472  55.7119  55.7937  56.1283

 ------ SPIN DOWN ----------


          k = 0.0000 0.0000 0.0000 (  1715 PWs)   bands (ev):

   -46.4339 -46.4053 -20.7993 -20.7993 -20.5741 -20.5019 -20.4901 -20.4901
    -5.7918  -4.9946  -3.3603  -3.3603   5.8674   6.1541   6.9141   7.8099
     7.8099  10.2684  10.2684  10.8714  11.8454  11.9553  11.9553  12.5966
    14.7707  15.2016  15.6677  15.7843  15.7843  19.2921  19.3482  20.9649
    22.4659  22.4659  24.0546  24.7167  24.7167  28.2639  30.5262  31.2626
    31.5023  32.0409  33.1652  33.1652  35.7438  35.9595  36.5233  36.5233
    37.3473  37.3473  38.5612  42.6053  42.6053  42.9897  43.2897  43.8963
    45.6685  46.5204  46.5204  47.0205  47.2432  47.2432  47.5698  47.7077
    49.2804  49.5364  49.5364  49.7761  51.6515  53.6345  54.2706  54.2706
    54.9765  55.2394  55.4687  55.4687  56.4002  56.5715

          k = 0.0000 0.0000 0.3103 (  1715 PWs)   bands (ev):

   -46.4062 -46.3830 -20.8808 -20.8261 -20.7233 -20.7233 -20.4724 -20.4724
    -5.2331  -4.5595  -3.8083  -3.8083   6.5118   6.9406   7.4212   7.8401
     7.8401   9.6497  10.3834  10.6861  10.6861  11.2970  11.2970  12.3210
    15.3714  15.6435  15.9017  16.3460  16.3460  18.6817  20.1452  21.8237
    21.8562  21.8562  23.6313  26.5446  26.5446  28.5080  29.3425  30.8032
    31.0273  31.9785  32.4241  32.4241  34.0868  37.1857  37.2224  37.2224
    37.7642  37.7642  40.7387  41.6036  41.7822  41.9168  42.3425  42.3425
    42.5236  43.8463  44.0481  44.0481  49.0149  49.0149  49.3125  49.7980
    50.5240  50.7235  50.7235  51.5971  52.4699  53.0765  53.4763  53.4763
    54.2831  55.0804  55.0804  56.7060  57.5856  58.0751

          k = 0.0000 0.0000 0.6207 (  1703 PWs)   bands (ev):

   -46.3583 -46.3493 -21.3403 -21.3212 -20.5870 -20.5870 -20.4535 -20.4535
    -4.4827  -4.4827  -4.2378  -3.9584   7.4591   7.7603   8.1848   8.1848
     8.7804   8.8510   9.0762   9.8684   9.8684  10.8279  11.4212  11.4212
    15.8375  16.4251  17.1339  17.2238  17.2238  17.2477  20.9436  21.1607
    21.8135  21.8135  24.9077  26.9709  29.0036  29.0036  29.1908  29.9911
    31.0002  31.0002  31.2865  31.4028  32.5618  33.9795  37.2384  37.2384
    39.0060  39.0060  39.8721  40.6178  41.0053  41.0076  42.3808  42.3808
    42.8977  44.4309  44.4309  46.8528  48.3593  48.6676  48.6676  50.7472
    50.7472  50.9763  50.9763  51.0428  51.9564  51.9710  53.0765  54.5482
    54.5482  55.5656  55.6902  57.0297  57.3654  57.3654

          k = 0.0000 0.2000 0.0000 (  1721 PWs)   bands (ev):

   -46.4311 -46.4080 -20.7734 -20.7710 -20.5671 -20.5225 -20.5198 -20.5088
    -5.6186  -4.9151  -3.5726  -3.5095   6.1865   6.4727   7.2220   7.8415
     7.8512   9.8449  10.0245  10.7972  11.1931  11.5590  11.6205  12.4367
    15.1249  15.5952  16.0531  16.0892  16.1092  18.9100  19.7277  21.4878
    22.2195  22.2499  23.5789  24.7000  25.0803  28.1253  29.9864  30.2674
    31.7245  31.9734  33.1235  34.2071  35.2796  35.7222  35.8559  36.3494
    37.7311  38.3140  40.1157  41.0791  42.6436  42.7279  43.6331  44.5138
    45.3445  45.8381  46.1980  46.7670  47.3549  47.9577  48.4166  48.9589
    49.4849  49.6348  50.2431  50.6883  51.6877  52.4686  53.7133  53.9252
    54.1671  54.5588  54.9208  55.0368  55.4253  55.5921

          k = 0.0000 0.2000 0.3103 (  1715 PWs)   bands (ev):

   -46.4039 -46.3852 -20.8857 -20.8393 -20.6968 -20.6922 -20.4956 -20.4933
    -5.1023  -4.5001  -3.9509  -3.8944   6.7637   7.0897   7.4898   7.8444
     8.1983   9.3954   9.6437  10.7075  10.7482  11.1378  11.1394  12.1896
    15.3721  16.0716  16.1263  16.3274  16.7238  18.4223  20.3718  21.0847
    21.5943  22.8336  23.3183  26.1105  26.7719  28.7456  29.3939  30.1829
    30.7186  31.7124  31.8204  33.8643  34.4391  36.2294  36.9848  37.4173
    37.5300  38.3419  40.9266  41.0713  41.1867  41.5177  42.1623  42.8826
    43.9316  43.9494  44.7325  45.5596  48.6803  49.1998  49.2736  49.8067
    50.7067  50.7891  51.0755  51.3590  52.5247  53.0412  53.1269  53.4247
    53.5966  54.2390  55.3475  56.1167  56.7964  57.5151

          k = 0.0000 0.2000 0.6207 (  1708 PWs)   bands (ev):

   -46.3573 -46.3502 -21.3443 -21.3288 -20.5763 -20.5746 -20.4600 -20.4584
    -4.7635  -4.7097  -3.9009  -3.7253   7.2718   7.4291   7.8449   8.2091
     8.8109   9.0080   9.6443  10.0072  10.2723  11.0898  11.1897  11.2161
    15.3790  16.3501  16.6294  17.1342  17.5065  17.7257  20.5841  20.8153
    22.0406  22.5529  24.8061  26.5021  28.2194  29.0491  29.2153  29.8085
    30.5153  30.9097  31.7732  32.1829  33.3692  34.0683  36.7879  36.9864
    38.2245  38.9298  40.1575  40.1921  41.3147  41.6976  42.5226  43.2480
    43.9542  44.1703  44.4520  47.4107  48.6542  48.9443  49.1531  49.3590
    50.5208  50.5546  50.7664  51.7195  51.9939  52.4110  52.7757  54.0397
    54.2770  55.4275  55.5984  57.0060  57.6657  57.9326

          k = 0.0000 0.4000 0.0000 (  1709 PWs)   bands (ev):

   -46.4239 -46.4151 -20.7040 -20.6979 -20.6020 -20.5957 -20.5490 -20.5267
    -5.1792  -4.8291  -3.9421  -3.8339   6.9152   7.0679   7.9037   7.9142
     8.1756   9.0807   9.2344   9.7007  10.7720  11.0527  11.6015  12.0061
    15.6852  15.9201  16.5356  16.5895  17.0032  18.0254  20.8475  21.8168
    21.8503  22.2778  22.7757  24.0234  26.1799  27.6238  29.3123  29.5076
    31.5884  32.7944  33.0791  33.2898  33.6869  34.9685  37.2125  38.1439
    38.3453  39.5788  40.5572  41.3645  42.5581  42.7509  42.8112  43.0212
    45.1519  45.5416  46.3119  47.0748  47.9280  48.2641  48.7488  49.2361
    50.4034  50.4439  51.3080  51.5714  51.8575  51.8648  53.3144  53.4863
    53.6882  54.0667  54.4073  54.4139  55.2692  55.3260

          k = 0.0000 0.4000 0.3103 (  1723 PWs)   bands (ev):

   -46.3981 -46.3909 -20.8837 -20.8648 -20.6331 -20.6236 -20.5565 -20.5492
    -4.7557  -4.3381  -4.3120  -4.1033   7.3353   7.4111   7.7583   7.8441
     8.6380   8.8276   9.4131  10.0966  10.1006  10.5611  11.6081  11.9281
    15.8008  16.1820  16.5420  16.6707  17.3247  17.8331  20.5609  20.5917
    21.5680  22.4914  24.0062  25.1304  27.5833  28.8025  29.3269  29.6876
    30.4012  30.6394  32.1245  33.5283  35.3473  36.5115  37.1324  37.3530
    37.6261  38.9272  39.9893  40.2204  41.2100  41.3969  42.6514  42.8266
    44.5443  45.8469  46.1987  47.0044  47.9556  48.6093  49.3001  49.8079
    50.6110  50.9041  51.1152  51.4588  52.2297  52.4368  53.1030  53.1198
    54.1623  54.8285  55.3828  56.0822  56.4508  57.2690

          k = 0.0000 0.4000 0.6207 (  1710 PWs)   bands (ev):

   -46.3551 -46.3523 -21.3487 -21.3428 -20.5552 -20.5528 -20.4725 -20.4703
    -4.9662  -4.9424  -3.5773  -3.5113   7.0552   7.0620   7.6605   7.7808
     9.2786   9.6026   9.8321  10.4322  10.5943  10.7197  11.0233  11.5657
    14.8792  15.3584  16.9561  17.1261  17.8072  17.8773  20.2540  20.4520
    22.6388  23.0371  24.9338  25.6344  28.0183  28.4222  28.9181  29.1387
    30.5082  31.2772  32.3300  32.9947  34.1162  34.1301  36.0184  36.3837
    38.6563  38.9544  40.1108  40.2957  41.5649  41.7858  43.2978  43.5449
    44.4700  44.5509  46.8744  47.0343  47.1485  48.2555  49.4220  49.4736
    50.3372  50.5576  51.0863  51.6783  52.1677  52.2039  53.3075  54.1856
    55.0008  55.3399  55.9491  56.4841  56.8286  57.2008

          k = 0.2000 0.2000 0.0000 (  1730 PWs)   bands (ev):

   -46.4289 -46.4102 -20.8087 -20.6933 -20.6055 -20.5615 -20.5144 -20.4842
    -5.5313  -4.8389  -3.8757  -3.4049   6.0023   7.0579   7.4942   7.7827
     7.9184   9.2335  10.1627  10.7544  10.8878  11.4948  11.5254  12.3037
    14.8982  15.7982  15.8816  16.4558  16.5612  18.6835  19.8872  21.8348
    22.1345  22.4582  23.1163  24.8969  25.1788  27.8341  29.2286  29.5334
    31.7803  32.4424  33.0952  35.4646  35.5950  35.7545  36.4874  36.5753
    36.9162  37.9817  39.8444  40.5540  42.0526  43.1549  43.4801  43.4887
    45.2448  46.3899  46.4931  47.9744  48.0097  48.5948  48.7767  49.1864
    49.3796  49.9246  49.9364  51.7816  51.8833  52.1104  52.5382  53.5609
    53.6436  54.0497  54.6646  55.4788  55.9097  55.9906

          k = 0.2000 0.2000 0.3103 (  1726 PWs)   bands (ev):

   -46.4021 -46.3869 -20.8833 -20.8443 -20.7312 -20.6221 -20.5581 -20.4677
    -5.0211  -4.4200  -4.1711  -3.8469   6.7086   7.3788   7.4325   8.0386
     8.3388   8.9672  10.0171  10.1592  10.5339  11.2496  11.3333  12.0187
    15.4145  15.7246  16.3146  16.8031  16.8101  18.2089  20.4309  20.7883
    21.8120  22.9640  23.3401  25.9987  26.6225  28.6941  29.1029  29.5773
    30.8290  31.5409  32.8348  33.4233  34.8220  36.0968  36.4804  37.5918
    37.7180  38.6804  40.5771  40.6746  41.2858  41.4106  42.8026  43.3044
    43.8100  44.5580  45.8846  46.0438  48.3125  48.6513  48.9984  49.7066
    50.6946  51.0315  51.3263  51.7647  52.5746  52.5921  53.1389  53.4643
    53.5770  54.0782  54.4684  55.1191  57.3473  57.7301

          k = 0.2000 0.2000 0.6207 (  1703 PWs)   bands (ev):

   -46.3566 -46.3508 -21.3467 -21.3295 -20.5904 -20.5525 -20.4719 -20.4531
    -4.9550  -4.5145  -4.0678  -3.5363   7.1315   7.5487   7.7099   8.0613
     8.4859   9.5892   9.8788   9.9067  10.4751  10.7889  11.2362  11.4697
    15.1551  16.5465  16.6483  16.8454  17.2021  18.0126  20.2242  21.3293
    21.7779  22.8013  24.7539  26.4269  26.9921  28.6862  29.1614  29.8668
    31.1006  31.4033  31.5799  32.4415  33.8240  34.3119  36.0378  36.8525
    38.1398  38.7857  39.4797  41.4335  41.7469  42.6123  42.9648  43.6598
    44.0561  44.1329  45.0765  47.7054  48.1136  48.6671  49.1521  49.5600
    49.8762  50.6332  50.7484  51.1145  52.0021  52.4755  52.9124  53.8627
    54.0727  54.9486  56.1809  56.3218  57.1728  57.2808

          k = 0.2000 0.4000 0.0000 (  1720 PWs)   bands (ev):

   -46.4231 -46.4159 -20.7869 -20.7137 -20.5878 -20.5468 -20.5288 -20.5110
    -5.2699  -4.9245  -3.9182  -3.5989   6.3306   7.0258   7.8087   7.8932
     8.3067   9.1934   9.5856  10.4337  10.8837  11.2259  11.2462  11.7887
    15.2799  15.8047  16.0984  16.5715  17.2264  18.0479  20.7580  21.8286
    22.0148  22.2249  23.2695  24.3464  26.1991  27.4247  28.3595  28.5034
    31.9099  32.6151  33.7500  34.8994  35.0998  35.3197  37.0577  37.9636
    38.2169  38.6198  39.6505  40.4546  41.5375  41.6462  42.3103  43.9132
    45.2720  45.5711  47.0999  47.9035  48.3662  48.4006  49.5771  50.0216
    50.3361  50.6419  51.1375  52.0265  52.2618  52.3889  52.5625  53.0536
    53.8009  53.9000  54.3320  55.1894  55.2696  56.3008

          k = 0.2000 0.4000 0.3103 (  1714 PWs)   bands (ev):

   -46.3973 -46.3915 -20.8764 -20.8612 -20.7061 -20.6380 -20.5440 -20.4865
    -4.8011  -4.4948  -4.2095  -3.9724   6.9444   7.3879   7.5442   7.8163
     8.8397   9.0804   9.6939  10.2118  10.3461  10.8924  11.3209  11.6595
    15.8096  16.0157  16.2858  16.7111  17.2022  17.6963  20.5962  21.0534
    21.6289  22.3132  24.2482  25.1750  27.2741  28.3957  28.7624  28.9378
    30.9457  31.2238  32.7593  33.5681  35.0137  35.6142  37.0949  38.1244
    38.2587  38.9358  40.0489  40.2300  41.4962  42.0313  42.5631  43.2681
    44.5653  45.3192  46.3434  47.0616  48.0119  48.7764  49.1360  49.7611
    50.1340  50.9392  51.3966  51.5916  51.7445  52.5618  52.6964  53.0612
    54.0533  54.5222  55.0259  55.3693  55.9603  56.6939

          k = 0.2000 0.4000 0.6207 (  1705 PWs)   bands (ev):

   -46.3548 -46.3526 -21.3450 -21.3365 -20.5803 -20.5562 -20.4706 -20.4582
    -4.9593  -4.7515  -3.7898  -3.5319   7.0355   7.2271   7.7320   8.0568
     8.6521   9.4335   9.9585  10.2600  10.4508  10.9384  11.3413  11.7331
    15.0320  15.6453  16.8902  17.0609  17.3316  17.8253  20.3200  20.8790
    22.3391  22.8414  24.8780  25.5617  26.8141  27.6456  29.1392  29.8050
    31.1058  31.3155  32.2573  33.0647  33.9163  34.6258  35.5869  36.3874
    38.9410  39.2396  39.7394  41.1282  42.4164  42.7874  43.5971  43.7376
    44.7373  45.4991  46.6534  47.0453  47.2577  48.2969  48.9219  49.4690
    49.8261  50.1283  50.3928  51.1448  52.0372  52.9297  53.0697  53.5995
    53.9682  54.2620  55.4789  55.7339  56.6954  57.2624

          k = 0.4000 0.4000 0.0000 (  1726 PWs)   bands (ev):

   -46.4208 -46.4181 -20.8238 -20.7959 -20.5412 -20.5343 -20.5046 -20.4744
    -5.3110  -5.1700  -3.6375  -3.4737   6.0330   6.3492   7.7385   7.7856
     8.9620   9.6944   9.9604  10.5714  10.9957  11.2123  11.4178  11.6546
    14.8475  15.2588  15.8234  16.1122  17.6560  17.9628  20.9873  21.4675
    22.2182  22.4459  24.0624  24.5459  26.5350  27.0588  27.3973  27.4472
    32.1826  32.5339  35.0467  36.0035  36.6514  36.9137  37.0231  37.4242
    37.6512  37.9433  38.0533  39.2906  40.5894  41.7314  42.3596  43.8465
    44.7226  45.5625  46.4403  47.1346  48.3443  49.3392  50.3144  50.4784
    50.6110  50.7360  51.7725  52.5526  52.6168  53.2253  53.3453  53.5723
    53.6822  54.4475  54.7256  55.1694  55.6974  55.7062

          k = 0.4000 0.4000 0.3103 (  1704 PWs)   bands (ev):

   -46.3955 -46.3933 -20.8621 -20.8540 -20.7440 -20.7128 -20.4816 -20.4601
    -4.8096  -4.7018  -4.0085  -3.9069   6.7496   6.9589   7.4391   7.5566
     9.5720   9.6017  10.0504  10.2931  10.7528  10.8956  10.9189  11.3451
    15.6987  16.0136  16.0547  16.3210  17.1692  17.3871  21.1661  21.4561
    21.7333  21.9202  24.6714  25.0459  27.1211  27.6394  28.4713  28.6197
    30.8999  30.9066  33.4238  33.8713  34.5966  35.4942  37.5420  38.6083
    38.8161  38.9726  40.3057  40.7247  41.9449  42.4671  43.0857  43.7700
    44.8006  44.8464  46.1976  46.3627  47.9787  48.9354  49.1136  49.4242
    49.8697  49.9807  50.4671  51.1052  51.2244  52.5877  52.9203  53.2568
    53.9597  54.1247  55.7097  55.8576  56.4236  56.7275

          k = 0.4000 0.4000 0.6207 (  1695 PWs)   bands (ev):

   -46.3540 -46.3531 -21.3350 -21.3301 -20.5960 -20.5832 -20.4576 -20.4522
    -4.7644  -4.5645  -3.9944  -3.7659   7.1804   7.4373   8.0251   8.0979
     8.4162   8.7813   9.7911  10.0320  10.7355  10.9859  11.7627  11.9236
    15.5172  16.1267  16.6519  16.8816  16.9571  17.2928  20.8306  21.5321
    21.6956  22.3197  24.6940  24.9703  26.8008  27.7491  28.0731  29.0801
    31.3180  31.4632  32.9139  33.2531  34.1402  34.6754  35.8804  36.3330
    39.9093  39.9150  40.0820  41.2559  43.0767  43.1494  44.6291  45.1144
    45.3572  46.4090  47.0830  47.3978  47.8634  48.0809  48.4533  48.7949
    49.3373  49.3517  50.0373  50.1259  50.9711  51.2367  51.6036  53.4003
    54.1085  54.5437  54.5472  55.7119  55.7937  56.1283

     the Fermi energy is    16.1023 ev

!    total energy              =    -407.67046741 Ry
     Harris-Foulkes estimate   =    -407.67045564 Ry
     estimated scf accuracy    <       0.00000100 Ry

     The total energy is the sum of the following terms:

     one-electron contribution =     -94.26026293 Ry
     hartree contribution      =      80.48660698 Ry
     xc contribution           =     -68.11939326 Ry
     ewald contribution        =    -325.77675580 Ry
     smearing contrib. (-TS)   =      -0.00066239 Ry

     total magnetization       =    -0.00 Bohr mag/cell
     absolute magnetization    =     0.00 Bohr mag/cell

     convergence has been achieved in   7 iterations

     Forces acting on atoms (Ry/au):

     atom    1 type  1   force =     0.00000000    0.00000000    0.00000000
     atom    2 type  1   force =     0.00000000    0.00000000    0.00000000
     atom    3 type  2   force =    -0.07025000   -0.07025000    0.00000000
     atom    4 type  2   force =     0.07025000    0.07025000   -0.00000000
     atom    5 type  2   force =    -0.07025000    0.07025000    0.00000000
     atom    6 type  2   force =     0.07025000   -0.07025000    0.00000000

     Total force =     0.198697     Total SCF correction =     0.000426


     entering subroutine stress ...

          total   stress  (Ry/bohr**3)                   (kbar)     P=  481.60
   0.00326537   0.00000000   0.00000000        480.35      0.00      0.00
   0.00000000   0.00326537   0.00000000          0.00    480.35      0.00
   0.00000000   0.00000000   0.00329077          0.00      0.00    484.09

     Volume is kept fixed: isostatic pressure set to zero

     BFGS Geometry Optimization

     number of scf cycles    =   1
     number of bfgs steps    =   0

     enthalpy new            =    -407.6704674078 Ry

     new trust radius        =       0.0993485005 bohr
     new conv_thr            =       0.0000010000 Ry

     new unit-cell volume =    401.14260 a.u.^3 (    59.44320 Ang^3 )

CELL_PARAMETERS (alat=  8.53829393)
   0.999788428   0.000000000   0.000000000
   0.000000000   0.999788428   0.000000000
   0.000000000   0.000000000   0.644717223

ATOMIC_POSITIONS (crystal)
Mo0      0.000000000   0.000000000   0.000000000    0   0   0
Mo0      0.500000000   0.500000000   0.500000000    0   0   0
O1       0.296772361   0.296772361   0.000000000    1   1   0
O1      -0.296772361  -0.296772361   0.000000000    1   1   0
O1       0.796772361   0.203227639   0.500000000    1   1   0
O1       0.203227639   0.796772361   0.500000000    1   1   0


     NEW-OLD atomic charge density approx. for the potential
     NEW k-points:
        k(    1) = (   0.0000000   0.0000000   0.0000000), wk =   0.0080000
        k(    2) = (   0.0000000   0.0000000   0.3102135), wk =   0.0160000
        k(    3) = (   0.0000000   0.0000000   0.6204270), wk =   0.0160000
        k(    4) = (   0.0000000   0.2000423   0.0000000), wk =   0.0320000
        k(    5) = (   0.0000000   0.2000423   0.3102135), wk =   0.0640000
        k(    6) = (   0.0000000   0.2000423   0.6204270), wk =   0.0640000
        k(    7) = (   0.0000000   0.4000846   0.0000000), wk =   0.0320000
        k(    8) = (   0.0000000   0.4000846   0.3102135), wk =   0.0640000
        k(    9) = (   0.0000000   0.4000846   0.6204270), wk =   0.0640000
        k(   10) = (   0.2000423   0.2000423   0.0000000), wk =   0.0320000
        k(   11) = (   0.2000423   0.2000423   0.3102135), wk =   0.0640000
        k(   12) = (   0.2000423   0.2000423   0.6204270), wk =   0.0640000
        k(   13) = (   0.2000423   0.4000846   0.0000000), wk =   0.0640000
        k(   14) = (   0.2000423   0.4000846   0.3102135), wk =   0.1280000
        k(   15) = (   0.2000423   0.4000846   0.6204270), wk =   0.1280000
        k(   16) = (   0.4000846   0.4000846   0.0000000), wk =   0.0320000
        k(   17) = (   0.4000846   0.4000846   0.3102135), wk =   0.0640000
        k(   18) = (   0.4000846   0.4000846   0.6204270), wk =   0.0640000
        k(   19) = (   0.0000000   0.0000000   0.0000000), wk =   0.0080000
        k(   20) = (   0.0000000   0.0000000   0.3102135), wk =   0.0160000
        k(   21) = (   0.0000000   0.0000000   0.6204270), wk =   0.0160000
        k(   22) = (   0.0000000   0.2000423   0.0000000), wk =   0.0320000
        k(   23) = (   0.0000000   0.2000423   0.3102135), wk =   0.0640000
        k(   24) = (   0.0000000   0.2000423   0.6204270), wk =   0.0640000
        k(   25) = (   0.0000000   0.4000846   0.0000000), wk =   0.0320000
        k(   26) = (   0.0000000   0.4000846   0.3102135), wk =   0.0640000
        k(   27) = (   0.0000000   0.4000846   0.6204270), wk =   0.0640000
        k(   28) = (   0.2000423   0.2000423   0.0000000), wk =   0.0320000
        k(   29) = (   0.2000423   0.2000423   0.3102135), wk =   0.0640000
        k(   30) = (   0.2000423   0.2000423   0.6204270), wk =   0.0640000
        k(   31) = (   0.2000423   0.4000846   0.0000000), wk =   0.0640000
        k(   32) = (   0.2000423   0.4000846   0.3102135), wk =   0.1280000
        k(   33) = (   0.2000423   0.4000846   0.6204270), wk =   0.1280000
        k(   34) = (   0.4000846   0.4000846   0.0000000), wk =   0.0320000
        k(   35) = (   0.4000846   0.4000846   0.3102135), wk =   0.0640000
        k(   36) = (   0.4000846   0.4000846   0.6204270), wk =   0.0640000

     Check: negative/imaginary core charge=   -0.000008    0.000000

     total cpu time spent up to now is      186.3 secs

     per-process dynamical memory:    47.2 Mb

     Self-consistent Calculation

     iteration #  1     ecut=    40.00 Ry     beta=0.30
     Davidson diagonalization with overlap
     ethr =  1.00E-06,  avg # of iterations =  5.4

     total cpu time spent up to now is      228.6 secs

     total energy              =    -407.69717023 Ry
     Harris-Foulkes estimate   =    -407.69883028 Ry
     estimated scf accuracy    <       0.00618902 Ry

     total magnetization       =    -0.00 Bohr mag/cell
     absolute magnetization    =     0.00 Bohr mag/cell

     iteration #  2     ecut=    40.00 Ry     beta=0.30
     Davidson diagonalization with overlap
     ethr =  1.19E-05,  avg # of iterations =  1.0

     total cpu time spent up to now is      244.1 secs

     total energy              =    -407.69672583 Ry
     Harris-Foulkes estimate   =    -407.69741246 Ry
     estimated scf accuracy    <       0.00200469 Ry

     total magnetization       =    -0.00 Bohr mag/cell
     absolute magnetization    =     0.00 Bohr mag/cell

     iteration #  3     ecut=    40.00 Ry     beta=0.30
     Davidson diagonalization with overlap
     ethr =  3.86E-06,  avg # of iterations =  1.0

     total cpu time spent up to now is      259.4 secs

     total energy              =    -407.69694458 Ry
     Harris-Foulkes estimate   =    -407.69691210 Ry
     estimated scf accuracy    <       0.00016589 Ry

     total magnetization       =    -0.00 Bohr mag/cell
     absolute magnetization    =     0.00 Bohr mag/cell

     iteration #  4     ecut=    40.00 Ry     beta=0.30
     Davidson diagonalization with overlap
     ethr =  3.19E-07,  avg # of iterations =  1.1

     total cpu time spent up to now is      274.9 secs

     total energy              =    -407.69698047 Ry
     Harris-Foulkes estimate   =    -407.69695683 Ry
     estimated scf accuracy    <       0.00003151 Ry

     total magnetization       =    -0.00 Bohr mag/cell
     absolute magnetization    =     0.00 Bohr mag/cell

     iteration #  5     ecut=    40.00 Ry     beta=0.30
     Davidson diagonalization with overlap
     ethr =  6.06E-08,  avg # of iterations =  1.0

     total cpu time spent up to now is      290.4 secs

     total energy              =    -407.69699607 Ry
     Harris-Foulkes estimate   =    -407.69698275 Ry
     estimated scf accuracy    <       0.00000115 Ry

     total magnetization       =    -0.00 Bohr mag/cell
     absolute magnetization    =     0.00 Bohr mag/cell

     iteration #  6     ecut=    40.00 Ry     beta=0.30
     Davidson diagonalization with overlap
     ethr =  2.22E-09,  avg # of iterations =  1.0

     total cpu time spent up to now is      306.0 secs

     End of self-consistent calculation

 ------ SPIN UP ------------


          k = 0.0000 0.0000 0.0000 (  1715 PWs)   bands (ev):

   -46.4916 -46.4629 -20.9252 -20.9252 -20.5588 -20.5588 -20.5384 -20.4640
    -5.7163  -4.9068  -3.3508  -3.3508   5.9292   6.3055   6.8212   8.1352
     8.1352  10.3607  10.3607  10.8331  11.8544  11.9900  11.9900  12.7854
    14.5611  14.7246  15.4216  15.7510  15.7510  19.3239  19.5504  20.9415
    21.9238  21.9238  24.3149  24.5137  24.5137  28.5049  30.2433  31.2089
    31.4636  31.8683  33.4041  33.4041  35.9206  36.2172  36.5878  36.5878
    37.2695  37.2695  38.3159  42.6419  42.6419  43.0853  43.3392  43.5245
    45.6077  46.4529  46.9881  46.9881  47.6409  47.6409  47.7677  47.9696
    48.8480  49.1424  49.2324  49.2324  51.3916  53.7488  54.0844  54.0844
    54.8319  55.3582  55.5316  55.5316  56.3776  56.6182

          k = 0.0000 0.0000 0.3102 (  1715 PWs)   bands (ev):

   -46.4655 -46.4422 -20.8715 -20.8715 -20.8176 -20.7608 -20.5260 -20.5260
    -5.2290  -4.5536  -3.7235  -3.7235   6.5194   7.0432   7.3207   7.9876
     7.9876   9.6599  10.4280  10.9023  10.9023  11.2295  11.2295  12.3405
    15.3162  15.3556  15.7303  16.2547  16.2547  18.7682  20.3048  21.4724
    21.4724  22.0905  23.7172  26.3468  26.3468  28.6932  29.5028  30.6037
    30.6218  31.8102  32.6227  32.6227  34.1723  37.2563  37.2563  37.3038
    37.8138  37.8138  40.6488  41.4543  41.4877  42.0101  42.2942  42.5185
    42.5185  43.8554  44.2856  44.2856  49.0387  49.0387  49.0451  49.6679
    49.8416  50.8208  50.8208  51.3979  52.5849  53.3128  53.5848  53.5848
    54.2868  54.9878  54.9878  56.9426  57.5456  58.4104

          k = 0.0000 0.0000 0.6204 (  1703 PWs)   bands (ev):

   -46.4202 -46.4112 -21.2381 -21.2182 -20.7871 -20.7871 -20.4677 -20.4677
    -4.3518  -4.2978  -4.2978  -4.0779   7.3672   7.6963   8.1926   8.1926
     8.7294   8.8513   9.1455   9.8676   9.8676  10.6964  11.4734  11.4734
    16.0443  16.5356  17.0784  17.0784  17.2168  17.4313  21.0782  21.4746
    21.4746  21.6490  24.8065  27.1320  29.0759  29.0759  29.2088  29.8116
    30.8076  31.1617  31.1617  31.1619  32.5284  33.8553  37.4915  37.4915
    39.1337  39.1337  39.8724  40.4610  40.6219  40.8172  42.4899  42.4899
    42.8583  44.2120  44.2120  46.5070  48.3808  49.2545  49.2545  50.3020
    50.3020  50.9188  50.9188  51.2526  51.5506  51.9254  53.1711  55.2250
    55.2250  55.8818  56.0645  57.0673  57.1600  57.1600

          k = 0.0000 0.2000 0.0000 (  1721 PWs)   bands (ev):

   -46.4888 -46.4656 -20.9032 -20.9012 -20.5871 -20.5848 -20.5312 -20.4710
    -5.5281  -4.8000  -3.5954  -3.5177   6.2795   6.6484   7.1425   8.1813
     8.1970   9.8689  10.0322  10.7209  11.2250  11.5173  11.6773  12.6008
    14.9001  15.1670  15.8918  16.0752  16.1493  18.9022  19.9047  21.4171
    21.6327  21.6736  23.8710  24.6292  24.9540  28.3244  29.8277  30.2138
    31.5653  31.9393  33.2821  34.2569  35.1711  35.8754  36.1104  36.3543
    37.7187  38.2332  40.1835  40.9876  42.6161  42.7686  44.0060  44.1184
    45.4187  45.9461  46.4858  46.5601  47.6993  48.2886  48.5080  48.8480
    48.9037  49.4142  50.0017  50.5398  51.2033  52.7241  53.5032  53.8492
    54.1301  54.7948  54.8044  54.9998  55.6731  55.7059

          k = 0.0000 0.2000 0.3102 (  1715 PWs)   bands (ev):

   -46.4632 -46.4444 -20.8854 -20.8675 -20.7825 -20.7578 -20.5441 -20.5410
    -5.0947  -4.4966  -3.8644  -3.8140   6.7759   7.1658   7.4669   8.0024
     8.3213   9.4297   9.7134  10.6686  10.7318  11.2008  11.2714  12.2757
    15.3001  15.7570  15.9348  16.2421  16.7029  18.4865  20.5368  20.8963
    21.2166  22.7269  23.5633  26.0589  26.6228  28.8632  29.4965  29.9461
    30.5609  31.5554  31.8996  33.9601  34.4693  36.1776  37.1390  37.3897
    37.4867  38.4340  40.8163  41.1214  41.1279  41.6765  42.0861  42.8689
    43.8949  44.1142  45.0377  45.5253  48.5408  49.2595  49.4457  49.6616
    50.0793  50.1880  51.2228  51.6151  52.4993  52.9604  53.2840  53.2888
    53.8186  54.3051  55.2520  56.2661  56.6392  57.3690

          k = 0.0000 0.2000 0.6204 (  1708 PWs)   bands (ev):

   -46.4193 -46.4121 -21.2465 -21.2301 -20.7751 -20.7740 -20.4705 -20.4696
    -4.7195  -4.6332  -3.8704  -3.7313   7.1850   7.4202   7.7218   8.1685
     8.8247   8.9538   9.7127  10.0124  10.3542  11.0821  11.1825  11.2772
    15.4955  16.3324  16.7138  17.1593  17.4849  17.7423  20.5733  20.7651
    21.9358  22.6859  24.7705  26.6921  28.2678  29.0773  29.1687  29.7931
    30.1530  30.8321  31.7261  32.2403  33.2912  34.0540  36.8917  37.0822
    38.2306  38.9634  40.0169  40.0990  41.1780  41.7074  42.6976  43.2774
    43.9378  44.1115  44.3081  47.0708  48.8832  48.9807  49.2850  49.6307
    50.1778  50.2102  50.8748  51.6919  51.7046  52.2724  52.9425  54.6368
    54.7079  55.4374  55.8833  57.0635  57.7043  57.8429

          k = 0.0000 0.4001 0.0000 (  1709 PWs)   bands (ev):

   -46.4816 -46.4727 -20.8547 -20.8517 -20.6431 -20.6398 -20.5125 -20.4895
    -5.0310  -4.6049  -4.0829  -3.9026   7.1317   7.3301   8.1510   8.2760
     8.2945   8.9497   9.0500   9.6977  10.6398  10.9361  11.7223  12.1516
    15.4084  15.5690  16.6736  16.7472  16.8701  17.9482  20.9290  21.1403
    21.1884  21.9918  23.3133  24.1974  26.1440  27.6747  29.3195  29.4622
    31.4018  32.6707  33.1002  33.2811  33.6171  35.0866  37.3349  38.2900
    38.3386  39.4855  40.3750  41.2793  42.7916  42.8857  42.9669  43.1971
    45.0834  45.8617  46.2434  46.8561  48.0976  48.3716  48.6404  48.8900
    49.8950  49.9482  51.4674  51.7802  51.9006  52.0432  52.6716  53.1651
    54.1584  54.3214  54.5178  54.6159  55.0360  55.3929

          k = 0.0000 0.4001 0.3102 (  1723 PWs)   bands (ev):

   -46.4574 -46.4502 -20.8874 -20.8734 -20.7374 -20.7359 -20.5786 -20.5738
    -4.7441  -4.4043  -4.1575  -4.0277   7.3462   7.4441   7.8642   8.0488
     8.7777   8.8497   9.3572  10.0182  10.0520  10.6121  11.7469  12.0581
    15.6948  15.9952  16.3556  16.5248  17.3584  17.8663  20.2751  20.3717
    21.5591  22.5125  24.1530  25.2093  27.5512  28.8589  29.3811  29.5578
    30.3314  30.5857  31.9231  33.4356  35.3707  36.5232  37.1333  37.4391
    37.5219  39.0347  39.7946  40.0962  41.4664  41.5818  42.7856  42.8649
    44.6208  45.8784  46.4464  47.0312  47.7917  48.3796  49.1297  49.6664
    50.2911  50.7962  51.3317  51.5225  52.2479  52.4066  52.8394  52.9680
    54.4581  54.6674  55.5001  55.9982  56.3249  57.0748

          k = 0.0000 0.4001 0.6204 (  1710 PWs)   bands (ev):

   -46.4171 -46.4143 -21.2570 -21.2506 -20.7555 -20.7544 -20.4745 -20.4737
    -4.9303  -4.8987  -3.5327  -3.4758   7.0041   7.0529   7.4623   7.6199
     9.3333   9.5644   9.9342  10.4350  10.7152  10.7186  11.1873  11.5936
    14.8897  15.3175  17.0259  17.1710  17.7968  17.8549  20.1120  20.2936
    22.7275  23.2006  25.0515  25.8320  28.0655  28.4336  28.7934  29.0086
    30.3559  31.2915  32.1087  32.9579  34.0706  34.1981  36.0883  36.4356
    38.6556  38.8051  39.8846  40.2916  41.5739  41.8257  43.5572  43.5642
    44.4883  44.6165  46.7258  47.0270  47.1663  47.9554  49.1724  49.6431
    49.9790  50.0338  51.3214  52.0324  52.0978  52.8452  53.1664  54.5172
    54.9329  55.4642  55.7817  56.4746  56.5847  57.3647

          k = 0.2000 0.2000 0.0000 (  1730 PWs)   bands (ev):

   -46.4866 -46.4678 -20.9337 -20.8493 -20.6445 -20.5537 -20.5254 -20.4767
    -5.4401  -4.6641  -3.9757  -3.3976   6.0940   7.3302   7.4224   8.1042
     8.2974   9.0754  10.2236  10.6373  10.9597  11.5013  11.5518  12.4053
    14.6050  15.5263  15.7714  16.2990  16.7078  18.6638  20.0170  21.1664
    21.9141  22.0207  23.4499  24.8035  25.2325  27.9964  29.1816  29.4470
    31.5431  32.4122  33.2104  35.3660  35.6029  36.0843  36.6075  36.6235
    36.7143  37.9181  39.8896  40.6481  42.1032  43.1909  43.2675  43.5205
    45.4237  46.6073  46.6262  47.8836  48.1372  48.5000  48.5838  48.7906
    49.6187  49.8183  49.9582  51.3415  51.3911  52.2835  52.5468  53.5749
    54.0072  54.0220  54.9450  55.0514  55.7915  56.0417

          k = 0.2000 0.2000 0.3102 (  1726 PWs)   bands (ev):

   -46.4614 -46.4462 -20.8799 -20.8780 -20.7925 -20.7311 -20.5778 -20.5228
    -5.0120  -4.4302  -4.0745  -3.7646   6.7494   7.4138   7.4777   8.2749
     8.3577   8.9950  10.0621  10.0870  10.6550  11.1801  11.4426  12.1485
    15.3038  15.4936  16.0608  16.7711  16.7907  18.2592  20.2917  20.8118
    21.4315  22.9517  23.5499  25.9617  26.6128  28.6940  29.0776  29.5231
    30.7886  31.3441  32.8937  33.4958  34.7388  35.9924  36.4685  37.7327
    37.7329  38.7143  40.5115  40.7796  41.2071  41.3155  42.9354  43.3277
    44.0978  44.4931  46.0054  46.0865  48.2124  48.5547  49.1993  49.5603
    50.0627  50.6710  51.5455  52.0062  52.2366  52.7118  53.1742  53.3213
    53.4827  54.2421  54.7334  55.0452  57.3011  57.5911

          k = 0.2000 0.2000 0.6204 (  1703 PWs)   bands (ev):

   -46.4186 -46.4127 -21.2535 -21.2282 -20.7896 -20.7540 -20.4740 -20.4682
    -4.9188  -4.3320  -4.1775  -3.4978   7.1146   7.3674   7.6943   8.0030
     8.4870   9.5011   9.8816  10.0924  10.3964  11.0224  11.2829  11.3536
    15.2581  16.5306  16.6889  16.7994  17.3094  17.9998  20.0886  21.4435
    21.6313  22.9329  24.7540  26.6198  27.0097  28.7981  28.9029  29.9198
    31.0219  31.0657  31.6349  32.4791  33.8060  34.2973  36.0473  36.8692
    38.1024  38.7330  39.5077  41.2592  41.7508  42.5305  43.3258  43.5351
    43.9411  44.1744  45.0591  47.3316  48.2872  48.6732  49.3375  49.4628
    49.7928  50.3491  50.6047  51.4562  51.6522  52.2428  53.2919  53.9105
    54.4943  55.2918  56.3448  56.3723  57.1477  57.2833

          k = 0.2000 0.4001 0.0000 (  1720 PWs)   bands (ev):

   -46.4807 -46.4735 -20.9149 -20.8606 -20.6359 -20.5777 -20.5103 -20.4917
    -5.1596  -4.7389  -4.0252  -3.6174   6.4516   7.2674   8.1449   8.2607
     8.2659   9.1147   9.5226  10.4651  10.7654  11.1867  11.2925  11.8626
    14.9849  15.4856  16.1371  16.7234  17.1242  17.9899  20.8343  21.1574
    21.6403  21.9770  23.5606  24.4810  26.2292  27.4580  28.3166  28.5386
    31.6706  32.5158  33.7428  34.8883  35.1275  35.4469  37.1799  37.9913
    38.1237  38.5194  39.5835  40.5683  41.4705  41.7563  42.2789  43.9108
    45.2428  46.0032  47.3389  47.7856  48.3397  48.4435  49.2826  49.8159
    50.0818  50.1593  51.3226  52.1269  52.1678  52.4984  52.7129  52.7560
    53.7957  54.0672  54.4941  54.9883  55.4222  56.3970

          k = 0.2000 0.4001 0.3102 (  1714 PWs)   bands (ev):

   -46.4566 -46.4508 -20.8865 -20.8790 -20.7760 -20.7355 -20.5734 -20.5376
    -4.7894  -4.4967  -4.1207  -3.8940   6.9827   7.4035   7.6685   8.0288
     8.8714   9.0882   9.6815  10.2038  10.3171  10.8693  11.4510  11.8026
    15.6595  15.8465  16.0594  16.6341  17.2264  17.7248  20.3132  20.9408
    21.5272  22.3890  24.3476  25.2422  27.3093  28.3831  28.6895  28.9058
    30.9806  31.1441  32.6614  33.5144  35.0106  35.6038  36.9404  38.0298
    38.3143  38.9712  40.0060  40.1495  41.4974  42.1076  42.6668  43.5022
    44.7230  45.4234  46.3489  47.1380  47.9820  48.7140  48.7555  49.5068
    50.1647  50.8173  51.1880  51.7404  52.1930  52.2965  52.7145  53.0531
    53.8295  54.5233  54.8591  55.4884  55.8491  56.7064

          k = 0.2000 0.4001 0.6204 (  1705 PWs)   bands (ev):

   -46.4167 -46.4145 -21.2527 -21.2388 -20.7779 -20.7560 -20.4743 -20.4706
    -4.9164  -4.6771  -3.7915  -3.4966   7.0210   7.1952   7.5420   7.9295
     8.6917   9.4877  10.0028  10.2983  10.4832  10.9023  11.4765  11.7580
    15.0683  15.6156  16.9698  17.0547  17.3624  17.7895  20.1670  20.7847
    22.4296  22.9734  24.9544  25.6639  26.8920  27.6617  29.0529  29.7647
    30.9703  31.3191  32.2198  32.9905  33.9354  34.5446  35.5617  36.3693
    38.7723  39.2922  39.8049  40.9333  42.5020  42.7994  43.6294  43.8494
    44.7876  45.5498  46.4494  47.0006  47.2435  48.0213  48.7571  49.4126
    49.4642  49.8360  50.6820  51.8124  52.1101  52.7246  53.0506  53.6826
    54.0650  54.4402  55.3757  55.7610  56.6829  57.3822

          k = 0.4001 0.4001 0.0000 (  1726 PWs)   bands (ev):

   -46.4784 -46.4757 -20.9477 -20.9229 -20.5724 -20.5453 -20.5045 -20.4973
    -5.2203  -5.0599  -3.6595  -3.4698   6.1186   6.4636   8.0539   8.1181
     8.9659   9.8086   9.9584  10.6842  10.9120  11.1595  11.4034  11.6001
    14.5386  14.9551  15.8068  16.1564  17.5986  17.9205  21.0835  21.5621
    21.6315  21.8986  24.2304  24.6366  26.6408  27.0291  27.3028  27.5098
    32.0542  32.5109  35.0499  36.1282  36.6441  37.0585  37.0706  37.0911
    37.6927  37.7697  38.0925  39.3854  40.4326  41.6031  42.3466  43.8354
    44.3731  45.7131  46.8837  47.2508  48.7002  49.6644  49.8609  50.1240
    50.4750  51.0560  51.7759  52.4271  52.4770  52.7834  53.3138  53.6924
    53.7014  54.2921  54.9160  55.0516  55.6799  56.1654

          k = 0.4001 0.4001 0.3102 (  1704 PWs)   bands (ev):

   -46.4548 -46.4525 -20.8888 -20.8877 -20.7912 -20.7709 -20.5343 -20.5173
    -4.7976  -4.6894  -3.9317  -3.8284   6.7941   6.9939   7.5653   7.7144
     9.6036   9.6094  10.0598  10.2787  10.7668  10.9315  10.9990  11.4008
    15.4761  15.8108  15.9160  16.2622  17.1951  17.4112  20.9414  21.3607
    21.6212  22.0150  24.7379  25.0988  27.1732  27.6352  28.3382  28.4971
    31.0106  31.1036  33.4937  33.8917  34.4157  35.3414  37.3377  38.5086
    38.5510  38.8354  40.3959  40.8556  41.8506  42.3970  43.1566  44.0534
    45.0211  45.1114  46.0126  46.3628  47.9769  48.7192  49.2108  49.3361
    49.7530  50.0353  50.3046  51.6367  51.6529  52.1863  53.0351  53.1445
    53.4596  53.7112  55.5087  55.9560  56.4116  56.8056

          k = 0.4001 0.4001 0.6204 (  1695 PWs)   bands (ev):

   -46.4160 -46.4151 -21.2366 -21.2278 -20.7937 -20.7798 -20.4710 -20.4690
    -4.6832  -4.3858  -4.1068  -3.7765   7.1680   7.4314   7.9244   7.9960
     8.4388   8.8518   9.7796  10.0981  10.6344  10.9034  11.8717  11.9803
    15.5663  16.2805  16.4447  16.9563  17.0529  17.2301  20.7333  21.3708
    21.8884  22.4178  24.7172  24.9722  26.8907  27.5440  28.3316  29.0909
    31.3165  31.4955  33.0437  33.4191  33.8300  34.4427  35.7012  36.1680
    39.7321  40.2436  40.3657  40.8798  43.1796  43.2691  44.5959  44.9396
    45.5016  46.1690  46.8119  47.0773  47.9456  48.0490  48.6093  48.7237
    48.9497  49.2318  49.9951  50.5478  51.1416  51.3554  51.6641  52.9924
    53.9210  54.6571  54.8949  55.6186  55.9794  56.0450

 ------ SPIN DOWN ----------


          k = 0.0000 0.0000 0.0000 (  1715 PWs)   bands (ev):

   -46.4916 -46.4629 -20.9252 -20.9252 -20.5588 -20.5588 -20.5384 -20.4640
    -5.7163  -4.9068  -3.3508  -3.3508   5.9292   6.3055   6.8212   8.1352
     8.1352  10.3607  10.3607  10.8331  11.8544  11.9900  11.9900  12.7854
    14.5611  14.7246  15.4216  15.7510  15.7510  19.3239  19.5504  20.9415
    21.9238  21.9238  24.3149  24.5137  24.5137  28.5049  30.2433  31.2089
    31.4636  31.8683  33.4041  33.4041  35.9206  36.2172  36.5878  36.5878
    37.2695  37.2695  38.3159  42.6419  42.6419  43.0853  43.3392  43.5245
    45.6077  46.4529  46.9881  46.9881  47.6409  47.6409  47.7677  47.9696
    48.8480  49.1424  49.2324  49.2324  51.3916  53.7488  54.0844  54.0844
    54.8319  55.3581  55.5316  55.5316  56.3775  56.3776

          k = 0.0000 0.0000 0.3102 (  1715 PWs)   bands (ev):

   -46.4655 -46.4422 -20.8715 -20.8715 -20.8176 -20.7608 -20.5261 -20.5261
    -5.2290  -4.5536  -3.7235  -3.7235   6.5194   7.0432   7.3207   7.9876
     7.9876   9.6599  10.4280  10.9023  10.9023  11.2295  11.2295  12.3405
    15.3162  15.3556  15.7303  16.2547  16.2547  18.7682  20.3048  21.4724
    21.4724  22.0905  23.7172  26.3468  26.3468  28.6932  29.5028  30.6037
    30.6218  31.8102  32.6227  32.6227  34.1723  37.2563  37.2563  37.3038
    37.8138  37.8138  40.6488  41.4543  41.4877  42.0101  42.2942  42.5185
    42.5185  43.8554  44.2856  44.2856  49.0387  49.0387  49.0450  49.6679
    49.8416  50.8208  50.8208  51.3979  52.5849  53.3128  53.5848  53.5848
    54.2868  54.9878  54.9878  56.9426  57.5456  58.4101

          k = 0.0000 0.0000 0.6204 (  1703 PWs)   bands (ev):

   -46.4202 -46.4112 -21.2381 -21.2182 -20.7871 -20.7871 -20.4677 -20.4677
    -4.3518  -4.2978  -4.2978  -4.0779   7.3672   7.6963   8.1926   8.1926
     8.7294   8.8513   9.1455   9.8676   9.8676  10.6964  11.4734  11.4734
    16.0443  16.5356  17.0784  17.0784  17.2168  17.4313  21.0782  21.4746
    21.4746  21.6490  24.8065  27.1320  29.0759  29.0759  29.2088  29.8116
    30.8076  31.1617  31.1617  31.1619  32.5284  33.8553  37.4915  37.4915
    39.1337  39.1337  39.8724  40.4610  40.6219  40.8172  42.4899  42.4899
    42.8583  44.2119  44.2119  46.5070  48.3808  49.2545  49.2545  50.3020
    50.3020  50.9188  50.9188  51.2526  51.5506  51.9254  53.1711  55.2250
    55.2250  55.8818  56.0645  57.0673  57.1599  57.1599

          k = 0.0000 0.2000 0.0000 (  1721 PWs)   bands (ev):

   -46.4888 -46.4656 -20.9032 -20.9012 -20.5871 -20.5848 -20.5312 -20.4710
    -5.5281  -4.8000  -3.5954  -3.5178   6.2795   6.6484   7.1425   8.1813
     8.1970   9.8689  10.0322  10.7208  11.2250  11.5172  11.6773  12.6008
    14.9001  15.1670  15.8917  16.0752  16.1493  18.9022  19.9047  21.4171
    21.6326  21.6736  23.8710  24.6292  24.9540  28.3244  29.8277  30.2138
    31.5653  31.9393  33.2821  34.2569  35.1711  35.8754  36.1104  36.3543
    37.7187  38.2332  40.1835  40.9876  42.6161  42.7686  44.0060  44.1184
    45.4187  45.9461  46.4858  46.5600  47.6992  48.2886  48.5080  48.8480
    48.9037  49.4142  50.0017  50.5397  51.2033  52.7241  53.5031  53.8492
    54.1301  54.7948  54.8044  54.9998  55.6731  55.7059

          k = 0.0000 0.2000 0.3102 (  1715 PWs)   bands (ev):

   -46.4632 -46.4444 -20.8854 -20.8675 -20.7825 -20.7578 -20.5441 -20.5410
    -5.0947  -4.4966  -3.8644  -3.8140   6.7759   7.1658   7.4669   8.0024
     8.3213   9.4297   9.7134  10.6686  10.7318  11.2008  11.2714  12.2757
    15.3001  15.7570  15.9348  16.2421  16.7029  18.4865  20.5368  20.8963
    21.2166  22.7269  23.5633  26.0589  26.6227  28.8632  29.4965  29.9461
    30.5609  31.5554  31.8996  33.9600  34.4693  36.1776  37.1390  37.3897
    37.4867  38.4340  40.8163  41.1214  41.1279  41.6765  42.0861  42.8689
    43.8949  44.1142  45.0377  45.5253  48.5408  49.2594  49.4457  49.6616
    50.0793  50.1880  51.2228  51.6151  52.4993  52.9604  53.2840  53.2888
    53.8186  54.3051  55.2520  56.2661  56.6391  57.3690

          k = 0.0000 0.2000 0.6204 (  1708 PWs)   bands (ev):

   -46.4193 -46.4121 -21.2465 -21.2302 -20.7751 -20.7740 -20.4705 -20.4696
    -4.7195  -4.6332  -3.8704  -3.7313   7.1850   7.4202   7.7218   8.1685
     8.8247   8.9538   9.7127  10.0124  10.3542  11.0821  11.1825  11.2772
    15.4955  16.3324  16.7138  17.1593  17.4849  17.7423  20.5733  20.7650
    21.9358  22.6859  24.7705  26.6921  28.2678  29.0773  29.1687  29.7931
    30.1530  30.8321  31.7261  32.2403  33.2912  34.0540  36.8917  37.0822
    38.2306  38.9634  40.0169  40.0990  41.1780  41.7074  42.6976  43.2774
    43.9378  44.1115  44.3081  47.0708  48.8832  48.9807  49.2850  49.6307
    50.1778  50.2102  50.8748  51.6919  51.7046  52.2724  52.9425  54.6368
    54.7079  55.4374  55.8833  57.0635  57.7043  57.8429

          k = 0.0000 0.4001 0.0000 (  1709 PWs)   bands (ev):

   -46.4816 -46.4727 -20.8547 -20.8517 -20.6431 -20.6399 -20.5125 -20.4895
    -5.0310  -4.6049  -4.0829  -3.9026   7.1317   7.3301   8.1510   8.2760
     8.2944   8.9497   9.0500   9.6977  10.6398  10.9361  11.7223  12.1516
    15.4084  15.5690  16.6736  16.7472  16.8701  17.9482  20.9290  21.1403
    21.1884  21.9918  23.3133  24.1974  26.1440  27.6747  29.3195  29.4622
    31.4018  32.6707  33.1002  33.2811  33.6170  35.0866  37.3349  38.2900
    38.3386  39.4855  40.3750  41.2793  42.7916  42.8857  42.9669  43.1971
    45.0834  45.8617  46.2433  46.8561  48.0976  48.3716  48.6404  48.8900
    49.8950  49.9482  51.4674  51.7802  51.9006  52.0432  52.6716  53.1651
    54.1584  54.3213  54.5178  54.6159  55.0360  55.3929

          k = 0.0000 0.4001 0.3102 (  1723 PWs)   bands (ev):

   -46.4574 -46.4502 -20.8874 -20.8734 -20.7374 -20.7360 -20.5786 -20.5738
    -4.7441  -4.4043  -4.1575  -4.0277   7.3462   7.4440   7.8642   8.0488
     8.7777   8.8497   9.3572  10.0182  10.0520  10.6121  11.7469  12.0581
    15.6948  15.9951  16.3556  16.5248  17.3584  17.8663  20.2751  20.3717
    21.5591  22.5125  24.1530  25.2093  27.5512  28.8589  29.3811  29.5578
    30.3314  30.5857  31.9231  33.4356  35.3707  36.5232  37.1333  37.4391
    37.5219  39.0347  39.7946  40.0962  41.4664  41.5818  42.7856  42.8649
    44.6208  45.8784  46.4464  47.0312  47.7917  48.3796  49.1297  49.6664
    50.2911  50.7962  51.3317  51.5225  52.2479  52.4066  52.8394  52.9679
    54.4581  54.6674  55.5001  55.9982  56.3249  57.0748

          k = 0.0000 0.4001 0.6204 (  1710 PWs)   bands (ev):

   -46.4171 -46.4143 -21.2570 -21.2506 -20.7555 -20.7544 -20.4746 -20.4737
    -4.9303  -4.8987  -3.5327  -3.4758   7.0040   7.0529   7.4623   7.6199
     9.3333   9.5644   9.9342  10.4350  10.7152  10.7186  11.1873  11.5936
    14.8897  15.3175  17.0259  17.1710  17.7968  17.8549  20.1120  20.2936
    22.7275  23.2006  25.0515  25.8320  28.0655  28.4336  28.7934  29.0086
    30.3559  31.2915  32.1087  32.9579  34.0706  34.1981  36.0883  36.4356
    38.6556  38.8051  39.8846  40.2916  41.5739  41.8257  43.5572  43.5642
    44.4883  44.6165  46.7258  47.0270  47.1663  47.9554  49.1724  49.6431
    49.9790  50.0338  51.3214  52.0324  52.0978  52.8452  53.1664  54.5172
    54.9329  55.4642  55.7817  56.4746  56.5847  57.3647

          k = 0.2000 0.2000 0.0000 (  1730 PWs)   bands (ev):

   -46.4866 -46.4678 -20.9338 -20.8493 -20.6445 -20.5537 -20.5254 -20.4768
    -5.4401  -4.6641  -3.9757  -3.3976   6.0940   7.3302   7.4224   8.1042
     8.2974   9.0754  10.2236  10.6373  10.9597  11.5013  11.5518  12.4053
    14.6050  15.5263  15.7713  16.2990  16.7077  18.6637  20.0170  21.1664
    21.9141  22.0207  23.4499  24.8034  25.2325  27.9964  29.1816  29.4470
    31.5431  32.4122  33.2104  35.3660  35.6029  36.0843  36.6075  36.6235
    36.7143  37.9181  39.8896  40.6481  42.1032  43.1909  43.2675  43.5205
    45.4237  46.6073  46.6262  47.8836  48.1372  48.5000  48.5838  48.7906
    49.6187  49.8183  49.9582  51.3415  51.3911  52.2835  52.5468  53.5749
    54.0072  54.0220  54.9450  55.0514  55.7914  56.0416

          k = 0.2000 0.2000 0.3102 (  1726 PWs)   bands (ev):

   -46.4615 -46.4462 -20.8799 -20.8780 -20.7925 -20.7311 -20.5778 -20.5228
    -5.0120  -4.4302  -4.0745  -3.7646   6.7494   7.4138   7.4777   8.2749
     8.3577   8.9950  10.0621  10.0870  10.6550  11.1801  11.4426  12.1485
    15.3037  15.4936  16.0608  16.7711  16.7907  18.2592  20.2917  20.8118
    21.4315  22.9517  23.5499  25.9617  26.6128  28.6940  29.0776  29.5231
    30.7886  31.3441  32.8937  33.4958  34.7388  35.9924  36.4685  37.7327
    37.7329  38.7143  40.5115  40.7796  41.2071  41.3155  42.9354  43.3277
    44.0978  44.4931  46.0054  46.0865  48.2124  48.5547  49.1993  49.5603
    50.0627  50.6710  51.5455  52.0062  52.2366  52.7117  53.1742  53.3213
    53.4827  54.2421  54.7334  55.0452  57.3011  57.5911

          k = 0.2000 0.2000 0.6204 (  1703 PWs)   bands (ev):

   -46.4186 -46.4128 -21.2535 -21.2282 -20.7896 -20.7540 -20.4740 -20.4682
    -4.9188  -4.3320  -4.1775  -3.4978   7.1146   7.3674   7.6943   8.0030
     8.4870   9.5011   9.8816  10.0924  10.3964  11.0224  11.2829  11.3536
    15.2581  16.5306  16.6889  16.7994  17.3093  17.9998  20.0886  21.4435
    21.6313  22.9329  24.7540  26.6198  27.0097  28.7981  28.9029  29.9198
    31.0219  31.0657  31.6349  32.4791  33.8060  34.2973  36.0473  36.8692
    38.1024  38.7330  39.5077  41.2592  41.7507  42.5305  43.3258  43.5350
    43.9411  44.1744  45.0591  47.3316  48.2872  48.6732  49.3375  49.4628
    49.7928  50.3491  50.6047  51.4562  51.6522  52.2428  53.2919  53.9105
    54.4943  55.2918  56.3448  56.3723  57.1477  57.2833

          k = 0.2000 0.4001 0.0000 (  1720 PWs)   bands (ev):

   -46.4807 -46.4735 -20.9150 -20.8606 -20.6359 -20.5777 -20.5103 -20.4917
    -5.1596  -4.7389  -4.0252  -3.6174   6.4516   7.2674   8.1449   8.2607
     8.2659   9.1147   9.5226  10.4651  10.7654  11.1867  11.2925  11.8626
    14.9849  15.4856  16.1371  16.7234  17.1242  17.9899  20.8343  21.1574
    21.6403  21.9770  23.5606  24.4810  26.2292  27.4580  28.3166  28.5386
    31.6706  32.5158  33.7428  34.8883  35.1275  35.4469  37.1799  37.9913
    38.1236  38.5194  39.5835  40.5683  41.4705  41.7563  42.2789  43.9108
    45.2428  46.0032  47.3389  47.7856  48.3397  48.4435  49.2826  49.8159
    50.0818  50.1593  51.3226  52.1269  52.1678  52.4984  52.7129  52.7560
    53.7957  54.0671  54.4941  54.9883  55.4222  56.3970

          k = 0.2000 0.4001 0.3102 (  1714 PWs)   bands (ev):

   -46.4567 -46.4508 -20.8865 -20.8790 -20.7760 -20.7355 -20.5734 -20.5376
    -4.7894  -4.4967  -4.1207  -3.8940   6.9827   7.4035   7.6685   8.0288
     8.8714   9.0882   9.6815  10.2038  10.3171  10.8693  11.4510  11.8026
    15.6595  15.8465  16.0594  16.6341  17.2264  17.7248  20.3132  20.9408
    21.5272  22.3890  24.3476  25.2422  27.3093  28.3831  28.6895  28.9058
    30.9806  31.1441  32.6614  33.5144  35.0106  35.6038  36.9404  38.0298
    38.3143  38.9712  40.0060  40.1495  41.4974  42.1076  42.6668  43.5022
    44.7230  45.4234  46.3489  47.1380  47.9820  48.7140  48.7555  49.5068
    50.1646  50.8173  51.1880  51.7404  52.1930  52.2965  52.7145  53.0531
    53.8295  54.5233  54.8591  55.4884  55.8491  56.7064

          k = 0.2000 0.4001 0.6204 (  1705 PWs)   bands (ev):

   -46.4168 -46.4146 -21.2527 -21.2388 -20.7779 -20.7560 -20.4743 -20.4706
    -4.9164  -4.6771  -3.7915  -3.4966   7.0210   7.1952   7.5420   7.9295
     8.6917   9.4877  10.0028  10.2983  10.4832  10.9023  11.4765  11.7580
    15.0682  15.6156  16.9698  17.0547  17.3624  17.7895  20.1670  20.7847
    22.4296  22.9734  24.9544  25.6639  26.8920  27.6617  29.0529  29.7647
    30.9703  31.3191  32.2198  32.9905  33.9354  34.5446  35.5617  36.3693
    38.7723  39.2922  39.8049  40.9333  42.5020  42.7994  43.6294  43.8494
    44.7876  45.5498  46.4494  47.0006  47.2435  48.0213  48.7571  49.4126
    49.4642  49.8360  50.6820  51.8124  52.1101  52.7246  53.0506  53.6826
    54.0650  54.4402  55.3757  55.7610  56.6829  57.3823

          k = 0.4001 0.4001 0.0000 (  1726 PWs)   bands (ev):

   -46.4784 -46.4757 -20.9477 -20.9230 -20.5724 -20.5453 -20.5045 -20.4973
    -5.2203  -5.0599  -3.6595  -3.4698   6.1186   6.4636   8.0539   8.1181
     8.9659   9.8086   9.9584  10.6842  10.9120  11.1595  11.4034  11.6001
    14.5386  14.9550  15.8068  16.1564  17.5986  17.9205  21.0835  21.5621
    21.6315  21.8986  24.2304  24.6366  26.6408  27.0291  27.3028  27.5098
    32.0542  32.5109  35.0499  36.1282  36.6441  37.0585  37.0706  37.0911
    37.6927  37.7697  38.0924  39.3854  40.4326  41.6031  42.3465  43.8354
    44.3731  45.7131  46.8837  47.2508  48.7002  49.6644  49.8609  50.1240
    50.4750  51.0560  51.7759  52.4271  52.4770  52.7834  53.3138  53.6924
    53.7014  54.2921  54.9160  55.0516  55.6800  56.1654

          k = 0.4001 0.4001 0.3102 (  1704 PWs)   bands (ev):

   -46.4548 -46.4525 -20.8888 -20.8877 -20.7912 -20.7709 -20.5343 -20.5173
    -4.7976  -4.6894  -3.9317  -3.8284   6.7941   6.9939   7.5653   7.7144
     9.6036   9.6094  10.0598  10.2787  10.7668  10.9315  10.9990  11.4008
    15.4761  15.8107  15.9159  16.2622  17.1951  17.4112  20.9414  21.3607
    21.6212  22.0150  24.7379  25.0988  27.1732  27.6352  28.3382  28.4971
    31.0106  31.1036  33.4937  33.8917  34.4157  35.3414  37.3377  38.5086
    38.5510  38.8354  40.3959  40.8556  41.8506  42.3970  43.1566  44.0534
    45.0211  45.1114  46.0126  46.3628  47.9769  48.7192  49.2108  49.3361
    49.7530  50.0353  50.3046  51.6367  51.6528  52.1863  53.0351  53.1445
    53.4596  53.7112  55.5087  55.9560  56.4116  56.8056

          k = 0.4001 0.4001 0.6204 (  1695 PWs)   bands (ev):

   -46.4160 -46.4151 -21.2367 -21.2278 -20.7937 -20.7798 -20.4710 -20.4690
    -4.6832  -4.3858  -4.1068  -3.7765   7.1680   7.4314   7.9244   7.9960
     8.4388   8.8518   9.7796  10.0981  10.6344  10.9034  11.8717  11.9803
    15.5663  16.2805  16.4447  16.9563  17.0529  17.2301  20.7333  21.3708
    21.8884  22.4178  24.7172  24.9722  26.8907  27.5440  28.3316  29.0909
    31.3165  31.4955  33.0437  33.4191  33.8300  34.4427  35.7012  36.1680
    39.7321  40.2436  40.3657  40.8798  43.1796  43.2691  44.5959  44.9396
    45.5016  46.1690  46.8119  47.0773  47.9456  48.0490  48.6093  48.7237
    48.9497  49.2318  49.9951  50.5478  51.1416  51.3554  51.6640  52.9924
    53.9209  54.6571  54.8949  55.6186  55.9794  56.0450

     the Fermi energy is    15.9803 ev

!    total energy              =    -407.69701029 Ry
     Harris-Foulkes estimate   =    -407.69699619 Ry
     estimated scf accuracy    <       0.00000005 Ry

     The total energy is the sum of the following terms:

     one-electron contribution =     -92.31769608 Ry
     hartree contribution      =      79.48076454 Ry
     xc contribution           =     -68.07765278 Ry
     ewald contribution        =    -326.78252237 Ry
     smearing contrib. (-TS)   =       0.00009640 Ry

     total magnetization       =    -0.00 Bohr mag/cell
     absolute magnetization    =     0.00 Bohr mag/cell

     convergence has been achieved in   6 iterations

     Forces acting on atoms (Ry/au):

     atom    1 type  1   force =     0.00000000    0.00000000    0.00000000
     atom    2 type  1   force =     0.00000000    0.00000000    0.00000000
     atom    3 type  2   force =    -0.02233328   -0.02233328    0.00000000
     atom    4 type  2   force =     0.02233328    0.02233328   -0.00000000
     atom    5 type  2   force =    -0.02233328    0.02233328    0.00000000
     atom    6 type  2   force =     0.02233328   -0.02233328   -0.00000000

     Total force =     0.063168     Total SCF correction =     0.000131


     entering subroutine stress ...

          total   stress  (Ry/bohr**3)                   (kbar)     P=  446.09
   0.00352381   0.00000000   0.00000000        518.37      0.00      0.00
   0.00000000   0.00352381   0.00000000          0.00    518.37      0.00
   0.00000000   0.00000000   0.00204967          0.00      0.00    301.52

     Volume is kept fixed: isostatic pressure set to zero

     number of scf cycles    =   2
     number of bfgs steps    =   1

     enthalpy old            =    -407.6704674078 Ry
     enthalpy new            =    -407.6970102871 Ry

     CASE: enthalpy_new < enthalpy_old

     new trust radius        =       0.1414873265 bohr
     new conv_thr            =       0.0000002233 Ry

     new unit-cell volume =    401.14260 a.u.^3 (    59.44320 Ang^3 )

CELL_PARAMETERS (alat=  8.53829393)
   1.017774225   0.000000000   0.000000000
   0.000000000   1.017774225   0.000000000
   0.000000000   0.000000000   0.622132068

ATOMIC_POSITIONS (crystal)
[...]
    54.1759  54.6392  56.2979  56.7462  57.0839  57.2654

          k = 0.3779 0.3779 0.3477 (  1716 PWs)   bands (ev):

   -46.8524 -46.8510 -21.3672 -21.3574 -20.9867 -20.9731 -20.8227 -20.8204
    -4.7919  -4.6960  -3.9374  -3.8563   7.1080   7.1357   7.9388   8.1615
     9.2970   9.7377   9.8888  10.1790  10.5872  10.6292  11.3954  11.6445
    14.4607  14.6340  15.7323  16.0023  17.0955  17.3163  20.1751  20.6908
    21.2968  21.6520  24.7687  25.1524  27.1617  27.4460  29.6224  29.7032
    31.2849  31.5514  33.3365  34.2386  34.2389  34.5157  37.0146  38.6097
    39.1153  39.4910  39.8656  40.8014  40.8250  41.6070  42.0249  43.3597
    44.0819  44.9820  47.0885  47.3931  48.1203  48.1546  49.2481  49.4187
    50.1604  50.3072  50.5180  51.2668  51.4024  51.5380  52.0207  52.0568
    53.1277  54.4710  55.2118  55.6579  56.6989  57.2426

          k = 0.3779 0.3779 0.6953 (  1719 PWs)   bands (ev):

   -46.7356 -46.7351 -21.7105 -21.7070 -21.2324 -21.2264 -20.8085 -20.8073
    -4.5634  -4.2593  -4.0278  -3.6791   6.9577   7.3287   7.5942   7.9304
     8.3127   8.6466   8.9169   9.8690  10.4873  10.7239  11.7734  11.9060
    15.0053  15.2301  16.2136  16.6233  18.2772  18.3910  20.2695  21.2757
    21.7055  22.4662  25.0180  25.2276  26.7497  26.8113  29.6645  29.7550
    31.9461  32.2384  32.8997  33.0220  34.3615  34.7019  35.6810  36.1758
    39.4804  39.6829  39.9664  40.4984  42.1107  42.8733  43.7206  44.1690
    45.4846  45.8093  46.2462  46.8435  47.3524  47.8548  48.3616  48.7154
    49.2497  49.5819  49.8858  50.6112  51.1945  51.3039  51.9016  51.9916
    53.4817  54.5880  57.1805  57.5689  57.9052  58.2944

 ------ SPIN DOWN ----------


          k = 0.0000 0.0000 0.0000 (  1701 PWs)   bands (ev):

   -46.9312 -46.9133 -21.4409 -21.4409 -21.0752 -21.0752 -20.2483 -20.2077
    -5.6868  -4.9241  -3.5501  -3.5501   5.9839   6.5771   6.6492   9.7532
     9.7532  10.0282  10.0282  11.8002  11.8002  11.8323  12.3318  12.5024
    12.7331  12.7908  14.7264  16.3915  16.3915  19.0447  19.1537  20.8210
    20.8210  20.8855  23.7159  24.9537  24.9537  27.8401  28.9514  30.3477
    32.2149  32.5228  32.5228  34.5825  34.5825  35.1716  35.7076  35.7076
    37.9100  38.0019  39.9094  41.2321  42.5351  44.0580  44.0580  44.7586
    44.7586  45.0200  45.9790  47.3486  47.3486  47.4144  47.8270  49.4554
    49.8824  50.3442  50.3442  51.6747  53.3555  53.3834  53.3834  53.5934
    53.5934  54.4223  54.5685  55.4036  56.1558  56.3911

          k = 0.0000 0.0000 0.3477 (  1690 PWs)   bands (ev):

   -46.8591 -46.8445 -21.3580 -21.3580 -20.9782 -20.9782 -20.8376 -20.8090
    -5.1670  -4.5358  -3.7788  -3.7788   6.7360   7.1899   7.5429   8.1847
     8.1847   9.9067  10.5421  11.0068  11.0068  11.1021  11.1021  12.6050
    14.1383  14.5902  14.7162  16.0903  16.0903  18.5770  19.8717  20.7587
    20.7587  22.4449  23.3791  27.4116  27.4116  28.0173  29.3192  29.5317
    31.5326  31.8455  32.2419  32.2419  35.1495  35.5428  35.5428  36.6902
    36.6902  39.7848  40.2132  40.9276  42.1207  42.5558  42.5558  44.2410
    44.9480  45.3378  45.3378  45.5676  46.1718  46.1718  49.3440  49.4954
    50.8674  51.3564  51.3564  52.3526  52.4073  53.2733  53.2733  54.1987
    54.1987  54.5651  55.0346  56.3143  56.7831  56.8351

          k = 0.0000 0.0000 0.6953 (  1726 PWs)   bands (ev):

   -46.7382 -46.7326 -21.7118 -21.7027 -21.2297 -21.2297 -20.8068 -20.8068
    -4.2247  -4.2009  -4.2009  -3.9663   7.3776   7.6072   7.7470   7.7470
     8.8811   8.8939   8.9803   9.0847   9.0847  11.0906  11.3354  11.3354
    15.6485  16.0159  16.0159  17.2564  18.1524  18.1776  20.3363  21.3461
    21.3461  22.1380  25.2133  27.5268  28.5408  29.3443  29.7984  30.2719
    30.4749  30.4749  31.3512  31.3512  32.5637  35.6698  36.6988  36.6988
    37.9964  38.0636  38.1077  38.1077  40.4115  40.6061  42.8321  42.8321
    45.7323  45.7323  46.2417  48.3166  48.3166  49.3501  49.5211  50.2639
    51.3053  51.3053  51.7619  51.8398  52.2553  52.2553  53.0123  55.7597
    55.7597  56.0534  57.0037  57.0958  57.0958  58.8851

          k = 0.0000 0.1890 0.0000 (  1716 PWs)   bands (ev):

   -46.9295 -46.9151 -21.4254 -21.4246 -21.0941 -21.0932 -20.2444 -20.2115
    -5.5107  -4.8162  -3.7824  -3.7010   6.3056   6.8339   6.9987   9.5445
     9.5874   9.8119   9.8271  10.9009  11.4717  11.6993  12.2291  12.6271
    12.9508  13.0763  15.3352  16.6955  16.7476  18.6225  19.4817  20.5626
    20.5922  21.2650  23.3350  24.9130  25.3369  27.8007  28.8460  30.0213
    30.7296  32.7868  33.0610  33.8900  35.2139  35.5451  35.5801  36.7144
    38.4736  39.2599  39.7505  41.8943  42.2165  42.3700  43.5229  44.4927
    44.9661  45.7037  46.1762  46.2597  47.3783  47.6538  47.9785  49.1357
    49.1812  50.2594  50.9550  51.8432  52.3275  52.7569  53.0205  53.3742
    53.3967  53.9799  54.7347  55.4605  55.6861  56.2271

          k = 0.0000 0.1890 0.3477 (  1707 PWs)   bands (ev):

   -46.8577 -46.8459 -21.3503 -21.3491 -20.9924 -20.9898 -20.8326 -20.8082
    -5.0484  -4.4918  -3.8943  -3.8496   6.8650   7.3441   7.4513   8.2493
     8.5366   9.8193   9.9040  10.7139  10.7388  11.1780  11.2719  12.4840
    14.5250  14.6010  15.0792  16.0192  16.4210  18.2967  19.9099  20.2668
    20.7770  22.6689  23.4519  26.4573  27.6184  28.7686  29.2404  29.5860
    31.2877  31.4606  31.6490  33.3710  34.5720  35.8784  35.9992  37.0382
    37.0526  39.4870  40.1051  40.7575  42.1379  42.2342  42.9540  44.0377
    45.2108  45.5131  45.6617  45.8619  46.2251  46.7536  48.4675  49.6303
    50.0138  50.9716  51.4573  52.3710  52.9953  53.0053  53.4178  53.6811
    53.8929  54.7369  54.7635  55.6220  55.8006  56.5251

          k = 0.0000 0.1890 0.6953 (  1708 PWs)   bands (ev):

   -46.7376 -46.7331 -21.7150 -21.7075 -21.2244 -21.2240 -20.8083 -20.8081
    -4.5997  -4.5191  -3.7575  -3.6255   6.8936   7.2284   7.2650   7.8874
     8.4219   8.8478   9.5212   9.8910  10.1818  10.9871  11.2037  11.3604
    14.8935  15.4800  16.4863  17.2951  18.2258  18.3688  20.1031  20.3388
    21.8157  23.0310  25.1881  27.2447  28.0635  28.6972  29.2095  29.5140
    31.0849  31.3766  31.6800  32.2875  32.8124  35.4261  36.0900  36.4629
    37.3027  37.6853  39.4670  39.7994  40.4964  40.5248  42.9319  43.2031
    44.9771  46.0472  46.9385  47.8280  48.3596  48.9118  49.1537  49.6325
    50.9216  51.2542  51.9496  52.1653  52.3283  52.7731  53.1521  54.6076
    55.2650  55.8892  56.5745  57.0181  57.6502  57.7625

          k = 0.0000 0.3779 0.0000 (  1694 PWs)   bands (ev):

   -46.9250 -46.9195 -21.3952 -21.3943 -21.1286 -21.1275 -20.2342 -20.2216
    -5.0351  -4.5737  -4.2927  -4.0633   7.1460   7.4608   7.9602   8.5497
     8.5870   9.4117   9.9356   9.9563  11.5455  11.6646  11.7498  12.1621
    13.4290  13.4355  16.4603  17.2818  17.3399  17.6311  20.0802  20.1209
    20.3758  21.3899  23.2802  24.3058  26.2759  27.3832  28.8563  29.2437
    30.4459  31.7183  32.9096  33.0644  36.7620  36.7766  37.3290  38.4990
    38.5517  39.1663  39.6390  40.8526  41.2032  42.1323  43.8041  44.6138
    45.2317  45.3103  45.5343  46.9312  47.4042  48.0566  48.0776  48.4725
    49.0252  49.0496  49.5911  50.4709  51.6940  51.8262  52.9013  53.0543
    53.6924  54.3043  54.5446  55.2707  56.4590  56.5676

          k = 0.0000 0.3779 0.3477 (  1716 PWs)   bands (ev):

   -46.8540 -46.8495 -21.3356 -21.3343 -21.0139 -21.0113 -20.8213 -20.8112
    -4.7436  -4.4594  -4.1036  -4.0156   7.1150   7.2566   7.9840   8.3946
     8.9675   9.1144   9.5977  10.0005  10.5793  10.9550  11.6911  12.1365
    14.6570  14.7827  15.9392  16.2337  17.0589  17.6378  19.4323  19.4519
    21.4580  22.3015  24.2121  25.2993  28.2867  28.8967  29.1153  29.7205
    30.9486  30.9685  31.4968  33.0370  35.5976  36.7163  36.7622  37.4565
    38.4240  38.5152  38.6628  40.0141  42.2740  42.6533  43.6130  43.8383
    44.5118  45.0289  45.7332  45.7738  47.3797  48.5381  48.6316  49.2852
    50.6107  50.6532  51.5749  51.9544  52.2404  52.2564  52.5684  53.0886
    53.3156  53.9513  54.5031  54.6135  55.9014  56.7822

          k = 0.0000 0.3779 0.6953 (  1726 PWs)   bands (ev):

   -46.7363 -46.7345 -21.7190 -21.7161 -21.2157 -21.2154 -20.8106 -20.8104
    -4.8029  -4.7725  -3.4138  -3.3606   6.5743   6.6805   6.9392   7.1277
     9.2607   9.3525  10.0022  10.2670  10.7744  10.8892  11.2145  11.6628
    14.1509  14.5387  16.9165  17.1966  18.4420  18.7198  19.3525  19.5546
    22.8044  23.4540  25.5010  26.3200  28.0574  28.2351  28.5252  28.6569
    31.1988  31.2849  32.9697  33.4886  33.8022  34.7342  35.4575  36.1818
    37.5236  37.5436  40.3385  40.9004  41.3302  41.4540  42.4359  43.0495
    44.8271  45.7639  47.1498  47.4646  48.3631  48.5010  48.5152  48.6461
    51.5547  51.6156  51.9653  52.3156  52.5969  52.8264  53.4216  53.6380
    55.2474  55.5200  55.9505  55.9990  57.2293  57.4973

          k = 0.1890 0.1890 0.0000 (  1711 PWs)   bands (ev):

   -46.9281 -46.9164 -21.4458 -21.3929 -21.1294 -21.0719 -20.2412 -20.2146
    -5.4340  -4.6604  -4.1629  -3.5855   6.2241   7.1534   7.5299   8.6550
     9.7376   9.8449   9.9534  10.8890  11.1490  11.5666  12.2494  12.4187
    12.5380  13.4317  15.8636  16.4059  17.3076  18.3916  19.6867  20.1030
    20.8146  21.5495  23.1082  25.0369  25.4724  27.7083  28.4526  29.4973
    30.7075  32.2778  34.1753  34.2667  35.5369  35.6844  35.9881  36.2325
    38.6873  39.7765  39.9513  41.5198  42.0504  42.3756  42.9562  43.9296
    44.2554  45.4895  46.2672  46.5776  46.7509  47.8403  48.5024  49.0317
    49.4300  50.5334  51.0317  51.1428  52.1316  52.6189  52.7062  53.5655
    54.0596  54.1129  54.5892  55.0638  55.6765  56.0131

          k = 0.1890 0.1890 0.3477 (  1711 PWs)   bands (ev):

   -46.8565 -46.8470 -21.3615 -21.3338 -21.0134 -20.9763 -20.8294 -20.8100
    -4.9774  -4.4520  -4.0542  -3.8089   6.9603   7.3198   7.5538   8.3480
     8.6247   9.4597  10.2166  10.5359  10.5752  10.9682  11.3634  12.3381
    14.3991  14.7999  15.1009  16.4758  16.5153  18.0783  19.3721  20.6942
    20.7342  22.6239  23.6281  26.1390  27.3756  28.7759  29.3276  29.6585
    31.2062  31.3419  32.0642  33.5938  34.5324  35.7488  35.7906  37.0389
    37.7676  39.7502  40.3304  40.6377  41.1972  42.3837  43.5143  44.2384
    44.2742  45.2909  45.9698  46.5569  46.7409  47.3445  48.4561  48.9007
    49.8724  51.0130  51.0935  52.0186  52.3638  52.6079  53.3121  53.4428
    53.6554  54.4614  55.0700  55.2096  56.0114  57.1104

          k = 0.1890 0.1890 0.6953 (  1715 PWs)   bands (ev):

   -46.7372 -46.7335 -21.7177 -21.7070 -21.2307 -21.2152 -20.8104 -20.8069
    -4.7912  -4.2235  -4.0728  -3.3812   6.6469   6.9755   7.5088   7.8828
     8.3752   8.8970   9.6380   9.9299  10.4751  11.0331  11.1059  11.5243
    14.7694  15.2778  16.3828  17.3494  18.2322  18.5115  19.3437  21.3259
    21.4055  23.1987  25.1129  26.9135  27.2725  28.1536  29.3754  30.0685
    31.1881  31.6783  31.8068  32.4341  33.2576  35.2856  35.6673  36.5457
    37.1470  38.5827  39.3552  39.7876  41.2451  41.2802  43.3083  43.4613
    44.5322  45.8636  47.1458  47.3690  48.4203  48.5395  49.1750  49.3596
    50.8801  51.0308  51.0404  52.0133  52.4925  52.9387  52.9978  53.1007
    55.0134  55.4637  56.3520  56.4689  57.7257  57.9341

          k = 0.1890 0.3779 0.0000 (  1699 PWs)   bands (ev):

   -46.9244 -46.9200 -21.4321 -21.3983 -21.1254 -21.0887 -20.2329 -20.2228
    -5.1745  -4.7497  -4.1902  -3.7846   6.5649   7.3614   7.9570   8.8420
     9.0942   9.7966   9.9354  10.0931  11.1538  11.6373  11.7884  11.9990
    12.9791  13.4153  16.7401  16.8213  17.3207  17.7295  20.0950  20.3755
    20.5685  21.2722  23.5574  24.5480  26.2391  27.2383  28.1666  28.5928
    30.9269  31.7510  33.9343  34.3433  36.3085  37.1657  37.3804  37.8144
    38.8280  38.9576  39.4454  40.5173  40.5280  41.9120  42.9483  44.1765
    44.3488  44.6560  45.3878  47.0632  47.5187  47.7509  48.6271  49.4422
    49.5203  50.3506  50.3932  51.2156  51.3513  51.7547  52.3166  52.5296
    53.5448  54.8432  55.5651  55.8247  56.1348  57.0624

          k = 0.1890 0.3779 0.3477 (  1713 PWs)   bands (ev):

   -46.8536 -46.8499 -21.3544 -21.3370 -21.0115 -20.9884 -20.8218 -20.8145
    -4.7829  -4.5341  -4.0800  -3.9099   7.1045   7.2128   7.9671   8.4088
     8.8707   9.2761   9.7758  10.1415  10.6471  10.8870  11.5148  11.9498
    14.5852  14.7571  15.6506  16.3662  16.9902  17.5431  19.4088  20.2051
    21.3690  22.1126  24.3720  25.2922  27.6214  28.1853  29.6018  29.8926
    30.9169  31.2436  32.1876  33.5270  35.1999  35.3846  36.4334  38.2327
    38.5126  38.9843  39.6754  40.3807  41.5632  42.2166  42.7860  43.4349
    45.1852  45.4445  45.9019  46.1952  47.6554  48.5412  48.8811  49.4550
    49.7296  50.2509  51.0269  51.8027  52.0214  52.2304  52.3900  52.8125
    52.9007  53.6741  54.5562  55.9831  56.1011  57.0005

          k = 0.1890 0.3779 0.6953 (  1730 PWs)   bands (ev):

   -46.7361 -46.7347 -21.7172 -21.7113 -21.2256 -21.2161 -20.8105 -20.8084
    -4.7892  -4.5595  -3.6878  -3.3825   6.6385   6.9109   7.0695   7.5994
     8.4980   9.2709   9.8516  10.2037  10.6298  10.7476  11.4154  11.7683
    14.4631  14.7590  16.6200  17.0859  18.3645  18.6334  19.3554  20.3606
    22.4674  23.1614  25.2672  25.8958  27.1826  27.4257  29.3919  29.6356
    31.3102  31.6022  32.8699  33.1202  34.0607  34.7354  35.4906  36.2814
    38.0027  38.5738  39.8100  40.5802  42.2580  42.4065  42.7386  43.2422
    45.0035  46.0009  46.5781  47.1459  47.5414  48.0796  48.7914  49.1187
    50.6454  50.7979  51.2854  51.3390  52.1568  52.2011  52.4758  53.4417
    54.2038  55.4550  56.1117  56.6011  56.9825  57.7342

          k = 0.3779 0.3779 0.0000 (  1687 PWs)   bands (ev):

   -46.9230 -46.9213 -21.4538 -21.4365 -21.0855 -21.0664 -20.2297 -20.2259
    -5.2440  -5.0892  -3.8176  -3.6406   6.2671   6.5788   8.6690   9.4304
     9.7128   9.7830   9.8286  10.5166  10.5190  11.1971  11.9853  12.1951
    12.5007  12.9502  16.4301  16.7534  17.4114  17.7425  20.5623  20.5715
    20.8048  20.9320  24.2356  24.6942  26.4605  27.1490  27.1966  27.6323
    31.5828  32.0354  35.2938  35.8383  36.0362  36.8423  37.9017  38.3476
    38.9408  39.2242  39.4241  39.5042  40.3069  40.5032  41.5325  42.0584
    42.7775  44.1236  45.4130  46.3260  47.7763  48.7428  49.3095  49.9025
    50.5097  50.6422  51.4537  52.0127  52.2348  52.2640  52.5482  53.5257
    54.1759  54.6392  56.2979  56.7462  57.0839  57.2654

          k = 0.3779 0.3779 0.3477 (  1716 PWs)   bands (ev):

   -46.8524 -46.8510 -21.3672 -21.3574 -20.9867 -20.9731 -20.8227 -20.8204
    -4.7919  -4.6960  -3.9374  -3.8563   7.1080   7.1357   7.9388   8.1615
     9.2970   9.7377   9.8888  10.1790  10.5872  10.6292  11.3954  11.6445
    14.4607  14.6340  15.7323  16.0023  17.0955  17.3163  20.1751  20.6908
    21.2968  21.6520  24.7687  25.1524  27.1617  27.4460  29.6224  29.7032
    31.2849  31.5514  33.3365  34.2386  34.2389  34.5157  37.0146  38.6097
    39.1153  39.4910  39.8656  40.8014  40.8250  41.6070  42.0249  43.3597
    44.0819  44.9820  47.0885  47.3931  48.1203  48.1546  49.2481  49.4187
    50.1604  50.3072  50.5180  51.2668  51.4024  51.5380  52.0207  52.0568
    53.1277  54.4710  55.2118  55.6579  56.6989  57.2426

          k = 0.3779 0.3779 0.6953 (  1719 PWs)   bands (ev):

   -46.7356 -46.7351 -21.7105 -21.7070 -21.2324 -21.2264 -20.8085 -20.8073
    -4.5634  -4.2593  -4.0278  -3.6791   6.9577   7.3287   7.5942   7.9304
     8.3127   8.6466   8.9169   9.8690  10.4873  10.7239  11.7734  11.9060
    15.0053  15.2301  16.2136  16.6233  18.2772  18.3910  20.2695  21.2757
    21.7055  22.4662  25.0180  25.2276  26.7497  26.8113  29.6645  29.7550
    31.9461  32.2384  32.8997  33.0220  34.3615  34.7019  35.6810  36.1758
    39.4804  39.6829  39.9664  40.4984  42.1107  42.8733  43.7206  44.1690
    45.4846  45.8093  46.2462  46.8435  47.3524  47.8548  48.3616  48.7154
    49.2497  49.5819  49.8858  50.6112  51.1945  51.3039  51.9016  51.9916
    53.4817  54.5880  57.1805  57.5689  57.9052  58.2944

     the Fermi energy is    15.2556 ev

!    total energy              =    -407.77202962 Ry
     Harris-Foulkes estimate   =    -407.77202687 Ry
     estimated scf accuracy    <          4.7E-09 Ry

     The total energy is the sum of the following terms:

     one-electron contribution =     -97.81580560 Ry
     hartree contribution      =      81.87283492 Ry
     xc contribution           =     -68.03793138 Ry
     ewald contribution        =    -323.79102849 Ry
     smearing contrib. (-TS)   =      -0.00009907 Ry

     total magnetization       =     0.00 Bohr mag/cell
     absolute magnetization    =     0.00 Bohr mag/cell

     convergence has been achieved in   9 iterations

     Forces acting on atoms (Ry/au):


     negative rho (up, down):  0.786E-05 0.786E-05
     atom    1 type  1   force =     0.00000000    0.00000000   -0.00000000
     atom    2 type  1   force =     0.00000000    0.00000000    0.00000000
     atom    3 type  2   force =    -0.00001871   -0.00001871    0.00000000
     atom    4 type  2   force =     0.00001871    0.00001871    0.00000000
     atom    5 type  2   force =    -0.00001871    0.00001871    0.00000000
     atom    6 type  2   force =     0.00001871   -0.00001871    0.00000000

     Total force =     0.000053     Total SCF correction =     0.000120
     SCF correction compared to forces is large: reduce conv_thr to get better values


     entering subroutine stress ...


     negative rho (up, down):  0.786E-05 0.786E-05
          total   stress  (Ry/bohr**3)                   (kbar)     P=  382.54
   0.00260687   0.00000000   0.00000000        383.48      0.00      0.00
   0.00000000   0.00260687   0.00000000          0.00    383.48      0.00
   0.00000000   0.00000000   0.00258768          0.00      0.00    380.66


     init_run     :     17.18s CPU     17.47s WALL (       2 calls)
     electrons    :   1341.01s CPU   1382.50s WALL (      10 calls)
     update_pot   :     30.98s CPU     32.13s WALL (       8 calls)
     forces       :     73.14s CPU     73.26s WALL (      10 calls)
     stress       :    178.05s CPU    178.33s WALL (      10 calls)

     Called by init_run:
     wfcinit      :     13.84s CPU     14.10s WALL (       3 calls)
     potinit      :      2.60s CPU      2.62s WALL (       3 calls)

     Called by electrons:
     c_bands      :   1102.44s CPU   1138.12s WALL (      63 calls)
     sum_band     :    155.50s CPU    157.59s WALL (      63 calls)
     v_of_rho     :     14.97s CPU     15.06s WALL (      73 calls)
     newd         :     78.92s CPU     79.05s WALL (      73 calls)
     mix_rho      :      1.24s CPU      1.25s WALL (      63 calls)

     Called by c_bands:
     init_us_2    :      4.96s CPU      4.98s WALL (    5364 calls)
     cegterg      :   1086.03s CPU   1121.62s WALL (    2268 calls)

     Called by *egterg:
     h_psi        :    482.05s CPU    496.17s WALL (    7455 calls)
     s_psi        :     35.63s CPU     35.67s WALL (    7455 calls)
     g_psi        :      2.99s CPU      2.98s WALL (    5079 calls)
     cdiaghg      :    322.59s CPU    323.36s WALL (    7059 calls)

     Called by h_psi:
     add_vuspsi   :     35.45s CPU     35.70s WALL (    7455 calls)

     General routines
     calbec       :     62.55s CPU     66.82s WALL (   10443 calls)
     fft          :     12.20s CPU     12.29s WALL (    2603 calls)
     ffts         :      0.21s CPU      0.20s WALL (     272 calls)
     fftw         :    401.93s CPU    414.16s WALL ( 1058816 calls)
     interpolate  :      1.51s CPU      1.53s WALL (     272 calls)

     Parallel routines
     fft_scatter  :    136.79s CPU    132.71s WALL ( 1061691 calls)

     PWSCF        : 27m36.45s CPU    28m20.02s WALL


   This run was terminated on:  16:16:20  24Jan2014            

=------------------------------------------------------------------------------=
   JOB DONE.
=------------------------------------------------------------------------------=
