
     Program PWSCF v.5.0.2 (svn rev. 9656) starts on 24Jan2014 at 15:16:27 

     This program is part of the open-source Quantum ESPRESSO suite
     for quantum simulation of materials; please cite
         "P. Giannozzi et al., J. Phys.:Condens. Matter 21 395502 (2009);
          URL http://www.quantum-espresso.org", 
     in publications or presentations arising from this work. More details at
     http://www.quantum-espresso.org/quote.php

     Parallel version (MPI), running on     4 processors
     R & G space division:  proc/nbgrp/npool/nimage =       4

     Current dimensions of program PWSCF are:
     Max number of different atomic species (ntypx) = 10
     Max number of k-points (npk) =  40000
     Max angular momentum in pseudopotentials (lmaxx) =  3
     Reading input from PtO2-v-0.95.in

     Subspace diagonalization in iterative solution of the eigenvalue problem:
     a serial algorithm will be used


     Parallelization info
     --------------------
     sticks:   dense  smooth     PW     G-vecs:    dense   smooth      PW
     Min         767     243     73                20605     3725     611
     Max         768     244     74                20606     3731     614
     Sum        3069     973    293                82421    14915    2449



     bravais-lattice index     =            0
     lattice parameter (alat)  =       8.7809  a.u.
     unit-cell volume          =     436.3207 (a.u.)^3
     number of atoms/cell      =            6
     number of atomic types    =            2
     number of electrons       =        56.00
     number of Kohn-Sham states=           84
     kinetic-energy cutoff     =      40.0000  Ry
     charge density cutoff     =     500.0000  Ry
     convergence threshold     =      1.0E-06
     mixing beta               =       0.3000
     number of iterations used =            8  plain     mixing
     Exchange-correlation      = SLA  PW   PBE  PBE ( 1 4 3 4 0)
     EXX-fraction              =        0.00
     nstep                     =           50


     celldm(1)=   8.780922  celldm(2)=   0.000000  celldm(3)=   0.000000
     celldm(4)=   0.000000  celldm(5)=   0.000000  celldm(6)=   0.000000

     crystal axes: (cart. coord. in units of alat)
               a(1) = (   1.000000   0.000000   0.000000 )  
               a(2) = (   0.000000   1.000000   0.000000 )  
               a(3) = (   0.000000   0.000000   0.644444 )  

     reciprocal axes: (cart. coord. in units 2 pi/alat)
               b(1) = (  1.000000  0.000000  0.000000 )  
               b(2) = (  0.000000  1.000000  0.000000 )  
               b(3) = (  0.000000  0.000000  1.551724 )  


     PseudoPot. # 1 for Pt read from file:
     /home/camp/zhonxu/pseudo/pt_pbe_v1.uspp.F.UPF
     MD5 check sum: 4c71d6ad5ef119f1eb26a4d0b7884226
     Pseudo is Ultrasoft + core correction, Zval = 16.0
     Generated by new atomic code, or converted to UPF format
     Using radial grid of  985 points,  6 beta functions with: 
                l(1) =   0
                l(2) =   0
                l(3) =   1
                l(4) =   1
                l(5) =   2
                l(6) =   2
     Q(r) pseudized with  8 coefficients,  rinner =    1.300   1.300   1.300
                                                       1.300   1.300

     PseudoPot. # 2 for O  read from file:
     /home/camp/zhonxu/pseudo/o_pbe_v1.01.uspp.F.UPF
     MD5 check sum: 2bcb18d16ea4b960afae9ec6d52f22d2
     Pseudo is Ultrasoft + core correction, Zval =  6.0
     Generated by new atomic code, or converted to UPF format
     Using radial grid of  737 points,  5 beta functions with: 
                l(1) =   0
                l(2) =   0
                l(3) =   1
                l(4) =   1
                l(5) =   2
     Q(r) pseudized with  8 coefficients,  rinner =    0.900   0.900   0.900
                                                       0.900   0.900

     atomic species   valence    mass     pseudopotential
        Pt0           16.00   195.08000     Pt( 1.00)
        O1             6.00    15.99940     O ( 1.00)

     Starting magnetic structure 
     atomic species   magnetization
        Pt0          0.600
        O1           0.000

      8 Sym. Ops., with inversion, found
          (note:  8 additional sym.ops. were found but ignored
           their fractional translations are incommensurate with FFT grid)


   Cartesian axes

     site n.     atom                  positions (alat units)
         1           Pt0 tau(   1) = (   0.0000000   0.0000000   0.0000000  )
         2           Pt0 tau(   2) = (   0.5000000   0.5000000   0.3222222  )
         3           O1  tau(   3) = (   0.3050000   0.3050000   0.0000000  )
         4           O1  tau(   4) = (  -0.3050000  -0.3050000   0.0000000  )
         5           O1  tau(   5) = (   0.8050000   0.1950000   0.3222222  )
         6           O1  tau(   6) = (   0.1950000   0.8050000   0.3222222  )

     number of k points=    54  Methfessel-Paxton smearing, width (Ry)=  0.0100
                       cart. coord. in units 2pi/alat
        k(    1) = (   0.0000000   0.0000000   0.0000000), wk =   0.0080000
        k(    2) = (   0.0000000   0.0000000   0.3103448), wk =   0.0160000
        k(    3) = (   0.0000000   0.0000000   0.6206897), wk =   0.0160000
        k(    4) = (   0.0000000   0.2000000   0.0000000), wk =   0.0320000
        k(    5) = (   0.0000000   0.2000000   0.3103448), wk =   0.0640000
        k(    6) = (   0.0000000   0.2000000   0.6206897), wk =   0.0640000
        k(    7) = (   0.0000000   0.4000000   0.0000000), wk =   0.0320000
        k(    8) = (   0.0000000   0.4000000   0.3103448), wk =   0.0640000
        k(    9) = (   0.0000000   0.4000000   0.6206897), wk =   0.0640000
        k(   10) = (   0.2000000   0.2000000   0.0000000), wk =   0.0160000
        k(   11) = (   0.2000000   0.2000000   0.3103448), wk =   0.0320000
        k(   12) = (   0.2000000   0.2000000   0.6206897), wk =   0.0320000
        k(   13) = (   0.2000000   0.4000000   0.0000000), wk =   0.0320000
        k(   14) = (   0.2000000   0.4000000   0.3103448), wk =   0.0640000
        k(   15) = (   0.2000000   0.4000000   0.6206897), wk =   0.0640000
        k(   16) = (   0.4000000   0.4000000   0.0000000), wk =   0.0160000
        k(   17) = (   0.4000000   0.4000000   0.3103448), wk =   0.0320000
        k(   18) = (   0.4000000   0.4000000   0.6206897), wk =   0.0320000
        k(   19) = (  -0.2000000   0.2000000   0.0000000), wk =   0.0160000
        k(   20) = (  -0.2000000   0.2000000  -0.3103448), wk =   0.0320000
        k(   21) = (  -0.2000000   0.2000000  -0.6206897), wk =   0.0320000
        k(   22) = (  -0.2000000   0.4000000   0.0000000), wk =   0.0320000
        k(   23) = (  -0.2000000   0.4000000  -0.3103448), wk =   0.0640000
        k(   24) = (  -0.2000000   0.4000000  -0.6206897), wk =   0.0640000
        k(   25) = (  -0.4000000   0.4000000   0.0000000), wk =   0.0160000
        k(   26) = (  -0.4000000   0.4000000  -0.3103448), wk =   0.0320000
        k(   27) = (  -0.4000000   0.4000000  -0.6206897), wk =   0.0320000
        k(   28) = (   0.0000000   0.0000000   0.0000000), wk =   0.0080000
        k(   29) = (   0.0000000   0.0000000   0.3103448), wk =   0.0160000
        k(   30) = (   0.0000000   0.0000000   0.6206897), wk =   0.0160000
        k(   31) = (   0.0000000   0.2000000   0.0000000), wk =   0.0320000
        k(   32) = (   0.0000000   0.2000000   0.3103448), wk =   0.0640000
        k(   33) = (   0.0000000   0.2000000   0.6206897), wk =   0.0640000
        k(   34) = (   0.0000000   0.4000000   0.0000000), wk =   0.0320000
        k(   35) = (   0.0000000   0.4000000   0.3103448), wk =   0.0640000
        k(   36) = (   0.0000000   0.4000000   0.6206897), wk =   0.0640000
        k(   37) = (   0.2000000   0.2000000   0.0000000), wk =   0.0160000
        k(   38) = (   0.2000000   0.2000000   0.3103448), wk =   0.0320000
        k(   39) = (   0.2000000   0.2000000   0.6206897), wk =   0.0320000
        k(   40) = (   0.2000000   0.4000000   0.0000000), wk =   0.0320000
        k(   41) = (   0.2000000   0.4000000   0.3103448), wk =   0.0640000
        k(   42) = (   0.2000000   0.4000000   0.6206897), wk =   0.0640000
        k(   43) = (   0.4000000   0.4000000   0.0000000), wk =   0.0160000
        k(   44) = (   0.4000000   0.4000000   0.3103448), wk =   0.0320000
        k(   45) = (   0.4000000   0.4000000   0.6206897), wk =   0.0320000
        k(   46) = (  -0.2000000   0.2000000   0.0000000), wk =   0.0160000
        k(   47) = (  -0.2000000   0.2000000  -0.3103448), wk =   0.0320000
        k(   48) = (  -0.2000000   0.2000000  -0.6206897), wk =   0.0320000
        k(   49) = (  -0.2000000   0.4000000   0.0000000), wk =   0.0320000
        k(   50) = (  -0.2000000   0.4000000  -0.3103448), wk =   0.0640000
        k(   51) = (  -0.2000000   0.4000000  -0.6206897), wk =   0.0640000
        k(   52) = (  -0.4000000   0.4000000   0.0000000), wk =   0.0160000
        k(   53) = (  -0.4000000   0.4000000  -0.3103448), wk =   0.0320000
        k(   54) = (  -0.4000000   0.4000000  -0.6206897), wk =   0.0320000

     Dense  grid:    82421 G-vectors     FFT dimensions: (  64,  64,  45)

     Smooth grid:    14915 G-vectors     FFT dimensions: (  36,  36,  24)

     Largest allocated arrays     est. size (Mb)     dimensions
        Kohn-Sham Wavefunctions         0.61 Mb     (    473,   84)
        NL pseudopotentials             0.64 Mb     (    473,   88)
        Each V/rho on FFT grid          1.50 Mb     (  49152,   2)
        Each G-vector array             0.16 Mb     (  20606)
        G-vector shells                 0.16 Mb     (  20606)
     Largest temporary arrays     est. size (Mb)     dimensions
        Auxiliary wavefunctions         2.43 Mb     (    473,  336)
        Each subspace H/S matrix        1.72 Mb     ( 336, 336)
        Each <psi_i|beta_j> matrix      0.11 Mb     (     88,   84)
        Arrays for rho mixing           6.00 Mb     (  49152,   8)

     Check: negative/imaginary core charge=   -0.000005    0.000000

     Initial potential from superposition of free atoms
     Check: negative starting charge=(component1):   -0.306421
     Check: negative starting charge=(component2):   -0.076054

     starting charge   54.99997, renormalised to   56.00000

     negative rho (up, down):  0.312E+00 0.774E-01
     Starting wfc are   40 randomized atomic wfcs

     total cpu time spent up to now is       14.1 secs

     per-process dynamical memory:    61.9 Mb

     Self-consistent Calculation

     iteration #  1     ecut=    40.00 Ry     beta=0.30
     Davidson diagonalization with overlap
     ethr =  1.00E-02,  avg # of iterations =  6.2

     negative rho (up, down):  0.277E+00 0.109E+00

     total cpu time spent up to now is       96.0 secs

     total energy              =    -542.71279773 Ry
     Harris-Foulkes estimate   =    -544.91936207 Ry
     estimated scf accuracy    <       6.61551779 Ry

     total magnetization       =     6.88 Bohr mag/cell
     absolute magnetization    =     6.91 Bohr mag/cell

     iteration #  2     ecut=    40.00 Ry     beta=0.30
     Davidson diagonalization with overlap
     ethr =  1.00E-02,  avg # of iterations =  1.0

     negative rho (up, down):  0.258E+00 0.131E+00

     total cpu time spent up to now is      125.2 secs

     total energy              =    -544.25175916 Ry
     Harris-Foulkes estimate   =    -543.90847419 Ry
     estimated scf accuracy    <       1.08179411 Ry

     total magnetization       =     3.21 Bohr mag/cell
     absolute magnetization    =     3.57 Bohr mag/cell

     iteration #  3     ecut=    40.00 Ry     beta=0.30
     Davidson diagonalization with overlap
     ethr =  1.93E-03,  avg # of iterations =  1.0

     negative rho (up, down):  0.205E+00 0.189E+00

     total cpu time spent up to now is      154.6 secs

     total energy              =    -544.76508071 Ry
     Harris-Foulkes estimate   =    -544.28137376 Ry
     estimated scf accuracy    <       0.57445805 Ry

     total magnetization       =     2.44 Bohr mag/cell
     absolute magnetization    =     2.85 Bohr mag/cell

     iteration #  4     ecut=    40.00 Ry     beta=0.30
     Davidson diagonalization with overlap
     ethr =  1.03E-03,  avg # of iterations =  1.5

     negative rho (up, down):  0.197E+00 0.198E+00

     total cpu time spent up to now is      183.2 secs

     total energy              =    -544.88905720 Ry
     Harris-Foulkes estimate   =    -544.87349690 Ry
     estimated scf accuracy    <       0.05074267 Ry

     total magnetization       =     0.83 Bohr mag/cell
     absolute magnetization    =     1.07 Bohr mag/cell

     iteration #  5     ecut=    40.00 Ry     beta=0.30
     Davidson diagonalization with overlap
     ethr =  9.06E-05,  avg # of iterations =  2.6

     negative rho (up, down):  0.196E+00 0.199E+00

     total cpu time spent up to now is      216.5 secs

     total energy              =    -544.90128159 Ry
     Harris-Foulkes estimate   =    -544.90032146 Ry
     estimated scf accuracy    <       0.00825083 Ry

     total magnetization       =     0.42 Bohr mag/cell
     absolute magnetization    =     0.53 Bohr mag/cell

     iteration #  6     ecut=    40.00 Ry     beta=0.30
     Davidson diagonalization with overlap
     ethr =  1.47E-05,  avg # of iterations =  2.2

     negative rho (up, down):  0.195E+00 0.200E+00

     total cpu time spent up to now is      247.9 secs

     total energy              =    -544.90433854 Ry
     Harris-Foulkes estimate   =    -544.90421664 Ry
     estimated scf accuracy    <       0.00275381 Ry

     total magnetization       =     0.15 Bohr mag/cell
     absolute magnetization    =     0.24 Bohr mag/cell

     iteration #  7     ecut=    40.00 Ry     beta=0.30
     Davidson diagonalization with overlap
     ethr =  4.92E-06,  avg # of iterations =  1.9

     negative rho (up, down):  0.197E+00 0.197E+00

     total cpu time spent up to now is      278.5 secs

     total energy              =    -544.90567432 Ry
     Harris-Foulkes estimate   =    -544.90517946 Ry
     estimated scf accuracy    <       0.00075028 Ry

     total magnetization       =     0.08 Bohr mag/cell
     absolute magnetization    =     0.12 Bohr mag/cell

     iteration #  8     ecut=    40.00 Ry     beta=0.30
     Davidson diagonalization with overlap
     ethr =  1.34E-06,  avg # of iterations =  1.1

     negative rho (up, down):  0.197E+00 0.197E+00

     total cpu time spent up to now is      306.7 secs

     total energy              =    -544.90590613 Ry
     Harris-Foulkes estimate   =    -544.90582294 Ry
     estimated scf accuracy    <       0.00006044 Ry

     total magnetization       =     0.05 Bohr mag/cell
     absolute magnetization    =     0.06 Bohr mag/cell

     iteration #  9     ecut=    40.00 Ry     beta=0.30
     Davidson diagonalization with overlap
     ethr =  1.08E-07,  avg # of iterations =  1.5

     negative rho (up, down):  0.197E+00 0.197E+00

     total cpu time spent up to now is      336.5 secs

     total energy              =    -544.90593494 Ry
     Harris-Foulkes estimate   =    -544.90592013 Ry
     estimated scf accuracy    <       0.00004549 Ry

     total magnetization       =     0.03 Bohr mag/cell
     absolute magnetization    =     0.04 Bohr mag/cell

     iteration # 10     ecut=    40.00 Ry     beta=0.30
     Davidson diagonalization with overlap
     ethr =  8.12E-08,  avg # of iterations =  1.0

     negative rho (up, down):  0.197E+00 0.197E+00

     total cpu time spent up to now is      364.3 secs

     total energy              =    -544.90594867 Ry
     Harris-Foulkes estimate   =    -544.90594350 Ry
     estimated scf accuracy    <       0.00001132 Ry

     total magnetization       =     0.02 Bohr mag/cell
     absolute magnetization    =     0.02 Bohr mag/cell

     iteration # 11     ecut=    40.00 Ry     beta=0.30
     Davidson diagonalization with overlap
     ethr =  2.02E-08,  avg # of iterations =  1.0

     negative rho (up, down):  0.197E+00 0.197E+00

     total cpu time spent up to now is      392.3 secs

     total energy              =    -544.90595240 Ry
     Harris-Foulkes estimate   =    -544.90595166 Ry
     estimated scf accuracy    <       0.00000237 Ry

     total magnetization       =     0.01 Bohr mag/cell
     absolute magnetization    =     0.01 Bohr mag/cell

     iteration # 12     ecut=    40.00 Ry     beta=0.30
     Davidson diagonalization with overlap
     ethr =  4.23E-09,  avg # of iterations =  2.0

     negative rho (up, down):  0.197E+00 0.197E+00

     total cpu time spent up to now is      424.0 secs

     End of self-consistent calculation

 ------ SPIN UP ------------


          k = 0.0000 0.0000 0.0000 (  1875 PWs)   bands (ev):

   -40.9819 -40.9741 -40.8832 -40.8830 -40.8094 -40.8092  -7.2283  -6.0231
    -5.0584  -5.0584   3.6873   3.8732   5.5029   5.5029   5.8755   8.7155
     8.7155   9.1384   9.5835   9.9952  10.0478  10.2195  10.2196  10.4430
    11.0945  11.0945  12.1616  12.9673  14.1297  16.8831  16.8831  17.5558
    18.3699  22.5678  22.5678  24.9915  26.0359  26.7110  28.8549  29.7034
    29.7034  30.8380  30.8441  31.3547  31.3746  33.7066  34.4688  34.4688
    35.8048  35.8049  37.4017  39.4286  39.5862  39.7238  39.7238  41.2169
    41.5785  42.1655  42.5165  44.0357  44.2250  44.2250  44.4684  44.4684
    45.3021  45.3022  45.6937  47.8356  49.1925  50.9448  50.9448  50.9599
    52.1272  52.1680  52.1680  53.2848  53.3591  53.3591  53.5599  53.8075
    54.6267  54.6407  54.8316  59.5021

          k = 0.0000 0.0000 0.3103 (  1879 PWs)   bands (ev):

   -41.0259 -41.0196 -40.8761 -40.8760 -40.8068 -40.8067  -6.8147  -5.7789
    -5.2819  -5.2819   4.3397   4.3436   5.6610   5.6611   6.3159   7.4104
     8.1660   8.8128   8.8128   9.2562   9.2562  10.0877  10.4500  11.0103
    11.6661  12.3102  12.3102  13.7414  14.0007  16.1495  16.1496  17.1495
    19.4616  24.0734  24.0734  25.0274  25.9465  26.8759  27.3493  29.2175
    29.3849  29.3850  29.7494  31.3719  31.3832  34.7334  34.7334  34.8503
    35.3578  35.3926  35.3926  39.1168  39.1388  40.1475  40.1475  40.4248
    41.2588  41.5583  41.5583  41.6479  43.4391  45.0587  45.0587  47.0069
    47.7104  47.7701  48.0790  48.0790  49.0845  49.5036  50.1757  50.1757
    51.3358  51.8114  51.8114  54.1873  54.3174  54.5280  55.3946  55.3946
    56.8832  57.4855  57.4856  57.5244

          k = 0.0000 0.0000 0.6207 (  1848 PWs)   bands (ev):

   -41.0958 -41.0934 -40.8645 -40.8643 -40.8028 -40.8026  -5.9513  -5.6240
    -5.6240  -5.5092   5.1242   5.4645   6.0300   6.2543   6.2544   6.6882
     7.5190   7.5190   7.5466   9.2002   9.6126   9.6126  10.7221  11.2928
    11.7393  12.7712  13.2706  13.2706  14.8656  15.4860  15.6868  15.6869
    22.1264  24.3281  25.2935  25.4835  26.4148  26.4148  27.4469  28.3572
    28.3572  28.4157  28.7804  30.5019  31.3874  31.4060  33.9789  33.9789
    36.1639  36.1639  37.7494  37.8898  38.7430  39.5766  39.7115  40.1409
    40.1409  42.0327  42.0327  42.6066  45.1839  45.1840  46.6481  47.5136
    47.5137  48.3896  48.4631  48.9856  48.9856  49.3573  50.1521  51.4238
    52.0717  52.1946  52.1946  53.1608  54.1610  54.1610  56.2418  56.2762
    56.6887  56.6887  57.7195  59.2003

          k = 0.0000 0.2000 0.0000 (  1878 PWs)   bands (ev):

   -40.9812 -40.9748 -40.8825 -40.8824 -40.8100 -40.8098  -7.0886  -6.0451
    -5.2054  -5.1261   4.0302   4.1332   5.5270   5.5346   6.1239   7.9418
     7.9700   8.8486   9.2430   9.4835  10.2186  10.3621  10.6934  10.9940
    11.1505  11.2474  12.1790  13.6923  13.9167  16.7096  16.7475  17.6830
    18.5077  22.3877  22.6773  24.7823  26.1759  26.7051  27.9845  30.1836
    30.3078  31.2022  31.3283  31.3339  31.3712  33.2608  33.5994  33.9588
    35.0159  36.4712  37.4849  38.8845  39.5081  39.7609  40.8859  41.2708
    41.4534  41.7074  42.5494  43.0942  44.0043  44.9295  45.1971  45.4114
    45.8656  46.2716  47.1367  47.9469  48.8163  50.2484  50.3535  50.7825
    50.7989  51.3344  51.4823  51.5085  52.7818  53.1136  53.9149  55.4880
    55.9304  56.6756  57.2696  57.4625

          k = 0.0000 0.2000 0.3103 (  1864 PWs)   bands (ev):

   -41.0253 -41.0202 -40.8756 -40.8755 -40.8072 -40.8071  -6.6938  -5.7727
    -5.4162  -5.3290   4.5598   4.5686   5.6541   5.6869   6.5934   7.2293
     7.6576   8.4872   8.6557   8.9301   9.1360  10.0899  11.1245  11.4648
    11.6388  12.1218  12.3779  13.5407  14.4335  15.6229  16.0620  17.3751
    19.8386  23.5683  24.0731  25.0726  26.1012  27.0288  27.4875  28.9242
    29.0186  29.3973  30.7581  31.3640  31.3936  33.2840  33.3593  35.0785
    35.4071  35.5843  36.9625  38.6254  39.1633  39.2014  39.8125  40.7994
    40.9682  41.8691  42.4048  43.6411  44.5539  44.9176  45.6607  46.4380
    46.5633  47.2910  48.0075  48.6393  49.5143  49.5969  49.8197  50.2469
    50.4447  51.7213  52.2537  53.6430  53.7676  54.3854  55.5417  55.8355
    56.7096  57.6010  57.8486  58.2666

          k = 0.0000 0.2000 0.6207 (  1864 PWs)   bands (ev):

   -41.0956 -41.0937 -40.8644 -40.8643 -40.8028 -40.8027  -5.9810  -5.7680
    -5.5437  -5.3965   5.1190   5.3810   5.4793   6.0399   6.5255   6.9201
     7.5093   7.9801   8.0419   9.1827   9.2819   9.6080  10.9005  11.3572
    11.4083  12.3080  13.3692  13.3943  14.4314  14.5291  16.2485  16.7534
    22.2609  24.3478  24.7545  25.0382  26.5966  26.7098  27.6648  27.7796
    28.1518  28.4809  29.9905  30.0432  31.3913  31.3989  33.4405  33.8446
    35.8105  36.3061  37.3156  37.9882  39.3014  39.7914  39.9490  40.1389
    41.1645  41.7627  42.1129  43.4900  45.2213  45.5850  46.5580  46.5855
    47.4032  47.6536  48.2051  49.1287  49.4453  49.7317  50.0333  51.2926
    51.5102  52.1484  53.2134  53.2781  54.6702  54.8171  55.2793  55.6352
    55.9332  57.6446  58.2450  58.7038

          k = 0.0000 0.4000 0.0000 (  1874 PWs)   bands (ev):

   -40.9792 -40.9767 -40.8815 -40.8813 -40.8111 -40.8109  -6.7127  -6.2635
    -5.3632  -5.2762   4.7422   4.7553   5.5757   5.5839   6.7985   6.9286
     6.9554   8.0044   8.6407   8.8647  10.6717  10.7112  10.9272  11.1304
    11.3662  11.5863  12.5889  13.2780  15.2261  16.4448  16.4873  16.7061
    19.8957  21.4435  23.2018  24.1050  26.5359  27.0980  27.4044  29.1296
    30.9817  31.3430  31.3637  32.0740  32.1225  32.7114  33.0909  34.3525
    34.8248  36.0711  37.7706  38.4454  38.5082  38.7024  39.7631  39.9441
    42.7183  42.7985  43.9024  44.0609  44.9099  45.2814  45.8652  45.8923
    47.3702  47.6667  47.7230  48.9711  49.0197  49.2030  49.3072  49.8330
    49.8670  50.5150  50.5755  51.2831  51.8315  51.9316  55.0673  55.1380
    55.5972  57.1412  57.6067  57.7856

          k = 0.0000 0.4000 0.3103 (  1859 PWs)   bands (ev):

   -41.0238 -41.0218 -40.8749 -40.8747 -40.8079 -40.8078  -6.3660  -5.9530
    -5.5377  -5.4409   5.0499   5.1013   5.5893   5.7106   6.7790   7.0062
     7.4950   7.7561   7.8506   8.4324   9.6337   9.9514  11.7101  11.8084
    11.9689  12.0668  12.6025  13.0582  14.8751  15.0149  16.2923  17.0523
    20.9833  22.3942  24.3184  24.8064  26.5332  27.1946  27.6840  28.3319
    28.9233  29.9580  31.0005  31.3054  31.3978  31.8083  33.3194  35.1468
    35.5651  35.6012  37.6933  37.8852  39.0162  39.1839  39.6644  39.7719
    41.1397  43.0559  43.5129  44.4198  44.9488  45.3154  46.2802  46.9175
    47.1402  47.6129  47.8664  48.5259  49.4178  49.5512  49.7531  49.8870
    50.8424  51.2712  51.8282  53.2964  53.7273  54.0961  54.7373  54.8531
    55.8874  56.5240  56.7315  57.4205

          k = 0.0000 0.4000 0.6207 (  1860 PWs)   bands (ev):

   -41.0952 -41.0945 -40.8643 -40.8642 -40.8029 -40.8028  -5.9896  -5.9175
    -5.4087  -5.3418   5.1391   5.2101   5.2475   5.4476   6.9658   7.3696
     7.7406   8.2712   8.6601   8.6749   9.1448   9.9184  10.8842  11.2164
    11.4331  11.4843  13.4919  13.4981  13.7915  13.9938  17.0901  17.3767
    22.7451  23.6525  24.4472  24.6896  26.8048  27.0172  27.3009  27.5128
    28.0633  28.9910  29.5619  30.7870  31.3939  31.3969  32.8501  33.5514
    35.9631  36.3968  37.2924  37.7107  39.6427  39.8927  40.3117  40.3269
    41.2023  41.9240  43.9935  44.1575  44.8666  45.0281  46.0846  46.6183
    47.4411  47.4417  48.0285  48.9125  49.1067  49.1830  51.1693  52.1393
    52.6645  52.6819  52.9920  53.6761  54.2561  54.3211  54.7247  56.0088
    56.2072  56.7174  56.9945  57.7102

          k = 0.2000 0.2000 0.0000 (  1865 PWs)   bands (ev):

   -40.9805 -40.9753 -40.8832 -40.8814 -40.8109 -40.8092  -6.9806  -6.0961
    -5.3302  -5.0998   3.7890   4.7628   5.4862   5.5856   6.3567   6.9020
     8.4742   8.6648   9.5055   9.7202   9.8296  10.1400  10.2257  10.8585
    11.4146  11.5308  12.4198  13.7949  13.9536  16.4653  16.8781  17.3276
    19.0844  22.2992  22.8373  24.4272  26.5275  26.5483  27.6016  29.3349
    31.2926  31.3665  31.5915  31.6442  31.9977  33.0349  33.5227  33.8805
    34.4423  35.7720  36.9530  38.3946  39.6311  39.6554  40.7451  41.0804
    41.9982  42.2264  43.2750  43.4150  43.7242  44.1228  46.1522  46.2545
    46.3967  47.2093  47.2151  47.8489  48.8419  49.0244  49.4625  50.6123
    50.7096  50.7702  52.0673  52.0866  53.9198  53.9602  54.1004  54.3228
    54.5618  55.7838  57.3952  57.6090

          k = 0.2000 0.2000 0.3103 (  1859 PWs)   bands (ev):

   -41.0249 -41.0207 -40.8761 -40.8748 -40.8078 -40.8067  -6.5983  -5.7992
    -5.5198  -5.3175   4.3389   5.0688   5.5436   5.7157   6.8402   6.9649
     7.7657   7.8731   8.6229   9.1408   9.3736  10.0401  10.7275  11.6351
    11.7765  12.0168  12.6544  13.4238  14.5673  15.3455  16.1703  17.2781
    20.2559  23.4253  23.9490  24.7784  26.1691  27.0306  27.5219  28.6921
    28.9747  30.5378  30.5770  31.3413  31.4108  31.9203  33.9448  35.0711
    35.5496  35.6534  36.7439  38.3479  39.0501  39.5585  40.0323  40.3027
    41.0416  42.1624  43.6113  43.6298  44.8941  45.0757  45.5749  46.0494
    46.6902  47.6113  47.9593  49.0380  49.0955  49.2546  49.8961  49.9769
    50.7495  51.2021  52.0771  52.7751  54.3895  54.5804  55.7098  55.8497
    56.8988  57.1690  57.1981  57.8067

          k = 0.2000 0.2000 0.6207 (  1859 PWs)   bands (ev):

   -41.0955 -41.0939 -40.8644 -40.8643 -40.8028 -40.8027  -5.9963  -5.6847
    -5.6520  -5.3457   5.1792   5.2729   5.4642   5.9999   6.1148   7.3985
     7.4341   8.1691   8.4420   8.5827   9.2808  10.0234  10.9364  11.1667
    11.4186  12.3975  12.8907  13.6298  13.7837  15.4612  15.6890  17.1567
    22.3494  24.2375  24.3857  25.1545  25.3421  26.7820  27.3380  28.2523
    28.8363  29.0104  29.9928  30.3699  31.3921  31.4041  33.1229  33.8766
    35.4885  35.9648  36.6157  38.7947  39.3924  40.3312  40.4289  40.6642
    41.3537  41.6861  42.6040  43.6965  44.8833  45.5571  45.9465  46.8453
    47.1892  47.2780  48.2091  48.9768  49.1791  49.4420  50.3572  50.8491
    51.6468  52.6879  52.8925  53.2182  53.9298  55.0236  55.6165  55.8298
    56.3929  56.9603  58.0138  58.5024

          k = 0.2000 0.4000 0.0000 (  1876 PWs)   bands (ev):

   -40.9789 -40.9769 -40.8827 -40.8816 -40.8109 -40.8098  -6.6921  -6.3343
    -5.3438  -5.2048   4.0849   4.7481   5.5084   5.5704   6.8972   7.0686
     7.8243   8.3830   8.7424   9.2332  10.1535  10.3498  10.8148  10.8785
    10.9544  11.4903  12.9509  13.4624  14.9378  16.2537  16.4634  16.7251
    20.4461  21.7616  23.1641  23.8769  26.4630  26.8418  27.3392  28.6310
    31.3018  31.3507  32.3061  32.3099  32.8746  32.8811  33.1038  33.9676
    34.8441  34.9423  36.2767  38.4189  38.4362  39.4137  39.8162  40.0593
    42.4791  42.8016  43.8406  43.8973  44.5867  45.2371  46.4999  46.9958
    47.1506  47.2888  47.5853  48.6208  49.0176  49.4549  50.0470  50.0724
    50.5652  50.8227  51.1514  51.7662  52.0859  52.8291  53.2000  53.9812
    55.7054  56.7707  56.8023  58.1449

          k = 0.2000 0.4000 0.3103 (  1866 PWs)   bands (ev):

   -41.0236 -41.0220 -40.8757 -40.8750 -40.8077 -40.8071  -6.3436  -6.0211
    -5.5109  -5.3971   4.5636   5.0872   5.5485   5.6029   6.9604   7.2863
     7.6831   7.8602   8.3722   8.5838   9.4651   9.7752  11.2620  11.6421
    11.7256  12.0013  12.8291  13.1174  14.9403  15.3094  16.2147  16.8013
    21.3180  22.5405  24.0693  24.4666  26.4283  26.9919  27.6239  28.1074
    29.2255  30.1664  31.0541  31.3595  31.4144  32.0605  33.5184  35.1293
    35.6650  35.9875  37.2329  37.5972  39.0628  39.4068  39.8155  40.4951
    41.0062  42.3797  43.4407  43.7445  45.0869  45.8027  46.4006  46.6771
    46.9887  47.6391  47.9562  48.6640  49.1864  49.5151  49.8712  50.1195
    50.8467  51.4377  52.3669  52.7080  53.0181  53.6465  54.1446  54.9176
    56.7725  57.0724  57.4816  57.5755

          k = 0.2000 0.4000 0.6207 (  1863 PWs)   bands (ev):

   -41.0950 -41.0945 -40.8643 -40.8643 -40.8028 -40.8028  -5.9601  -5.8398
    -5.4957  -5.3664   5.1379   5.2269   5.3692   5.6885   6.4332   7.1309
     7.6761   8.0617   8.6052   8.9952   9.3728  10.1919  10.9955  11.1073
    11.3256  11.7637  13.1228  13.4771  13.8922  14.6530  16.6327  17.2499
    22.6902  23.4073  24.2243  24.4821  25.6352  26.2941  27.2385  27.9908
    29.0845  29.6272  30.2915  31.3231  31.3898  31.5660  32.6762  33.8606
    35.4996  36.0607  36.4172  37.5918  40.2680  40.4478  40.6468  41.0924
    41.7521  42.8040  43.4169  43.7714  44.9174  45.1315  45.8880  46.5616
    46.8603  47.0968  47.4577  48.3159  49.1585  50.2529  50.6026  50.9017
    51.4612  52.0798  52.4137  53.2867  54.1514  54.4437  55.2740  56.1779
    56.8107  56.9625  57.1882  57.7890

          k = 0.4000 0.4000 0.0000 (  1848 PWs)   bands (ev):

   -40.9782 -40.9774 -40.8835 -40.8829 -40.8095 -40.8089  -6.6183  -6.4852
    -5.2407  -5.1647   3.7964   4.0862   5.4601   5.4950   7.5616   8.0401
     8.0810   8.9876   9.2247   9.6394   9.7262   9.8125  10.2363  10.4934
    10.5652  10.8951  13.4224  13.6009  14.7813  15.3520  16.7217  16.8713
    21.5544  22.3292  22.8469  23.3613  26.1667  26.2915  27.9035  28.5875
    31.1913  31.2965  32.2410  32.5310  32.8637  32.9239  33.8025  34.3159
    34.6225  34.8693  36.9520  37.0364  37.8345  39.3017  40.0017  41.0135
    41.1454  42.7378  42.9694  43.1137  44.6877  45.6896  45.9404  46.8830
    47.7415  48.1986  48.3751  49.3076  49.6100  49.9014  50.0778  50.2062
    50.9976  51.3942  51.8299  52.0081  52.2577  53.0521  53.2452  54.3763
    55.8521  56.6141  56.6546  57.3908

          k = 0.4000 0.4000 0.3103 (  1870 PWs)   bands (ev):

   -41.0230 -41.0224 -40.8763 -40.8760 -40.8069 -40.8065  -6.2730  -6.1557
    -5.4301  -5.3736   4.3355   4.5649   5.4622   5.5144   7.4753   7.8025
     7.9120   8.3649   8.5659   8.8560   9.1780   9.6110  10.6875  11.2466
    11.6248  11.6698  13.0545  13.1445  15.3049  15.4992  16.1843  16.3260
    22.0813  22.7522  23.4653  23.8471  26.7114  26.9390  27.5519  28.1720
    28.5031  29.2579  31.3641  31.3711  32.4067  33.4116  33.6844  35.0404
    35.5154  35.7078  37.7096  37.9678  38.8394  39.6953  39.7837  40.2809
    41.7127  42.1183  42.6222  43.4142  44.1091  44.8893  46.6971  46.7824
    47.1216  47.5006  47.6493  48.4673  49.2839  50.3323  50.6438  50.7001
    51.5220  51.8986  52.0792  52.5975  52.7732  53.8366  54.7724  55.1411
    55.2421  55.8873  57.1352  58.4586

          k = 0.4000 0.4000 0.6207 (  1873 PWs)   bands (ev):

   -41.0948 -41.0945 -40.8645 -40.8645 -40.8028 -40.8028  -5.8475  -5.6964
    -5.6416  -5.4832   5.1973   5.3631   5.7200   5.7880   6.0738   6.5387
     7.4163   7.6830   8.8653   9.0451   9.9229  10.3120  11.0139  11.1163
    11.5888  12.2302  12.5674  13.0647  14.6653  15.6879  15.7064  16.6554
    22.6876  22.9621  23.7212  23.7733  25.7789  26.3127  26.5543  27.1508
    30.2291  30.3988  31.3551  31.3718  31.8590  32.3537  33.0829  34.1575
    35.3437  35.4812  35.9174  36.9597  40.5092  40.5864  41.0756  41.5920
    42.5028  43.0022  43.5401  44.5888  44.9073  45.5385  45.8938  46.2966
    46.6084  46.8564  47.1125  47.6865  48.4013  48.9104  49.1944  50.8749
    51.2409  52.0081  52.6007  52.8813  53.0495  53.5200  55.0035  55.6548
    56.0493  56.8598  57.2212  58.0041

          k =-0.2000 0.2000 0.0000 (  1865 PWs)   bands (ev):

   -40.9805 -40.9753 -40.8833 -40.8812 -40.8111 -40.8091  -6.9806  -6.0961
    -5.3302  -5.0998   3.7890   4.7628   5.4862   5.5857   6.3567   6.9020
     8.4742   8.6648   9.5055   9.7201   9.8296  10.1400  10.2258  10.8586
    11.4146  11.5307  12.4198  13.7949  13.9536  16.4653  16.8780  17.3276
    19.0844  22.2992  22.8373  24.4272  26.5275  26.5483  27.6016  29.3349
    31.2925  31.3665  31.5915  31.6442  31.9977  33.0350  33.5227  33.8805
    34.4423  35.7719  36.9530  38.3946  39.6311  39.6554  40.7451  41.0805
    41.9982  42.2264  43.2750  43.4150  43.7242  44.1228  46.1523  46.2545
    46.3967  47.2092  47.2151  47.8489  48.8420  49.0244  49.4625  50.6123
    50.7095  50.7702  52.0673  52.0866  53.9198  53.9602  54.1004  54.3228
    54.5618  55.7839  57.3952  57.6090

          k =-0.2000 0.2000-0.3103 (  1859 PWs)   bands (ev):

   -41.0249 -41.0207 -40.8762 -40.8747 -40.8079 -40.8065  -6.5983  -5.7992
    -5.5198  -5.3175   4.3389   5.0688   5.5436   5.7157   6.8402   6.9649
     7.7657   7.8731   8.6229   9.1408   9.3736  10.0401  10.7275  11.6351
    11.7765  12.0168  12.6544  13.4238  14.5673  15.3455  16.1702  17.2781
    20.2559  23.4253  23.9490  24.7784  26.1691  27.0306  27.5219  28.6921
    28.9747  30.5378  30.5770  31.3413  31.4108  31.9203  33.9448  35.0711
    35.5496  35.6534  36.7439  38.3479  39.0501  39.5584  40.0323  40.3027
    41.0416  42.1624  43.6113  43.6298  44.8941  45.0757  45.5749  46.0494
    46.6902  47.6113  47.9593  49.0380  49.0955  49.2546  49.8961  49.9769
    50.7495  51.2021  52.0771  52.7751  54.3895  54.5804  55.7098  55.8497
    56.8988  57.1690  57.1981  57.8065

          k =-0.2000 0.2000-0.6207 (  1859 PWs)   bands (ev):

   -41.0955 -41.0939 -40.8645 -40.8641 -40.8029 -40.8027  -5.9964  -5.6847
    -5.6520  -5.3457   5.1792   5.2729   5.4642   5.9999   6.1148   7.3985
     7.4341   8.1692   8.4420   8.5827   9.2808  10.0234  10.9363  11.1667
    11.4186  12.3975  12.8907  13.6298  13.7837  15.4612  15.6889  17.1567
    22.3494  24.2375  24.3857  25.1545  25.3421  26.7820  27.3380  28.2523
    28.8363  29.0104  29.9928  30.3699  31.3923  31.4040  33.1229  33.8766
    35.4885  35.9648  36.6157  38.7947  39.3924  40.3311  40.4289  40.6642
    41.3537  41.6861  42.6040  43.6965  44.8833  45.5571  45.9464  46.8453
    47.1892  47.2780  48.2091  48.9768  49.1791  49.4420  50.3572  50.8491
    51.6468  52.6879  52.8925  53.2182  53.9298  55.0236  55.6165  55.8298
    56.3929  56.9603  58.0138  58.5024

          k =-0.2000 0.4000 0.0000 (  1876 PWs)   bands (ev):

   -40.9789 -40.9769 -40.8828 -40.8815 -40.8110 -40.8097  -6.6921  -6.3343
    -5.3438  -5.2048   4.0849   4.7481   5.5083   5.5704   6.8972   7.0686
     7.8243   8.3830   8.7423   9.2333  10.1535  10.3498  10.8148  10.8786
    10.9544  11.4903  12.9509  13.4624  14.9378  16.2537  16.4635  16.7251
    20.4461  21.7616  23.1641  23.8769  26.4630  26.8417  27.3392  28.6310
    31.3018  31.3507  32.3061  32.3099  32.8746  32.8811  33.1038  33.9676
    34.8441  34.9422  36.2767  38.4189  38.4362  39.4137  39.8162  40.0593
    42.4791  42.8016  43.8406  43.8973  44.5867  45.2371  46.4999  46.9958
    47.1506  47.2888  47.5853  48.6207  49.0176  49.4550  50.0470  50.0723
    50.5652  50.8227  51.1513  51.7662  52.0859  52.8291  53.2000  53.9812
    55.7054  56.7707  56.8023  58.1449

          k =-0.2000 0.4000-0.3103 (  1866 PWs)   bands (ev):

   -41.0236 -41.0220 -40.8758 -40.8749 -40.8079 -40.8070  -6.3436  -6.0211
    -5.5110  -5.3971   4.5636   5.0872   5.5485   5.6030   6.9603   7.2862
     7.6831   7.8602   8.3722   8.5839   9.4651   9.7752  11.2620  11.6421
    11.7257  12.0013  12.8291  13.1174  14.9403  15.3094  16.2147  16.8013
    21.3180  22.5405  24.0694  24.4666  26.4283  26.9919  27.6239  28.1074
    29.2256  30.1663  31.0541  31.3596  31.4143  32.0605  33.5184  35.1293
    35.6650  35.9874  37.2329  37.5972  39.0628  39.4068  39.8156  40.4951
    41.0061  42.3798  43.4407  43.7445  45.0869  45.8026  46.4006  46.6771
    46.9887  47.6391  47.9562  48.6640  49.1864  49.5151  49.8712  50.1195
    50.8467  51.4377  52.3669  52.7080  53.0181  53.6465  54.1446  54.9176
    56.7725  57.0724  57.4816  57.5755

          k =-0.2000 0.4000-0.6207 (  1863 PWs)   bands (ev):

   -41.0950 -41.0945 -40.8645 -40.8642 -40.8029 -40.8027  -5.9601  -5.8398
    -5.4957  -5.3664   5.1378   5.2269   5.3692   5.6885   6.4332   7.1309
     7.6761   8.0617   8.6052   8.9952   9.3728  10.1919  10.9954  11.1072
    11.3257  11.7637  13.1227  13.4771  13.8922  14.6530  16.6327  17.2499
    22.6903  23.4072  24.2243  24.4821  25.6352  26.2941  27.2385  27.9908
    29.0845  29.6272  30.2914  31.3230  31.3900  31.5659  32.6762  33.8606
    35.4997  36.0607  36.4172  37.5918  40.2680  40.4478  40.6468  41.0924
    41.7521  42.8039  43.4169  43.7714  44.9174  45.1315  45.8880  46.5616
    46.8603  47.0968  47.4577  48.3159  49.1585  50.2529  50.6026  50.9017
    51.4612  52.0798  52.4137  53.2867  54.1514  54.4437  55.2740  56.1779
    56.8107  56.9625  57.1882  57.7891

          k =-0.4000 0.4000 0.0000 (  1848 PWs)   bands (ev):

   -40.9782 -40.9774 -40.8836 -40.8828 -40.8096 -40.8088  -6.6183  -6.4852
    -5.2407  -5.1647   3.7964   4.0862   5.4601   5.4951   7.5616   8.0401
     8.0810   8.9876   9.2247   9.6394   9.7262   9.8125  10.2364  10.4934
    10.5653  10.8951  13.4224  13.6009  14.7813  15.3519  16.7217  16.8713
    21.5544  22.3292  22.8469  23.3613  26.1668  26.2914  27.9035  28.5875
    31.1913  31.2965  32.2410  32.5310  32.8636  32.9239  33.8025  34.3159
    34.6225  34.8693  36.9520  37.0364  37.8345  39.3017  40.0017  41.0135
    41.1453  42.7378  42.9694  43.1138  44.6877  45.6896  45.9404  46.8830
    47.7415  48.1987  48.3751  49.3076  49.6100  49.9014  50.0778  50.2062
    50.9976  51.3942  51.8300  52.0081  52.2577  53.0521  53.2451  54.3762
    55.8521  56.6141  56.6546  57.3908

          k =-0.4000 0.4000-0.3103 (  1870 PWs)   bands (ev):

   -41.0230 -41.0224 -40.8765 -40.8758 -40.8070 -40.8064  -6.2730  -6.1557
    -5.4301  -5.3735   4.3356   4.5649   5.4622   5.5144   7.4753   7.8025
     7.9119   8.3649   8.5659   8.8561   9.1780   9.6110  10.6874  11.2466
    11.6248  11.6698  13.0545  13.1445  15.3049  15.4992  16.1843  16.3260
    22.0813  22.7522  23.4653  23.8471  26.7114  26.9390  27.5519  28.1720
    28.5032  29.2579  31.3641  31.3711  32.4067  33.4116  33.6844  35.0404
    35.5154  35.7078  37.7096  37.9678  38.8394  39.6953  39.7837  40.2809
    41.7126  42.1183  42.6222  43.4142  44.1091  44.8893  46.6971  46.7824
    47.1216  47.5007  47.6493  48.4673  49.2839  50.3323  50.6438  50.7000
    51.5220  51.8986  52.0792  52.5976  52.7732  53.8366  54.7724  55.1410
    55.2421  55.8873  57.1352  58.4586

          k =-0.4000 0.4000-0.6207 (  1873 PWs)   bands (ev):

   -41.0947 -41.0945 -40.8647 -40.8644 -40.8029 -40.8027  -5.8476  -5.6964
    -5.6416  -5.4832   5.1973   5.3632   5.7200   5.7880   6.0738   6.5387
     7.4163   7.6830   8.8654   9.0450   9.9229  10.3120  11.0138  11.1164
    11.5888  12.2302  12.5674  13.0647  14.6653  15.6878  15.7065  16.6554
    22.6876  22.9621  23.7212  23.7734  25.7789  26.3127  26.5543  27.1508
    30.2291  30.3989  31.3550  31.3718  31.8590  32.3537  33.0829  34.1574
    35.3437  35.4813  35.9173  36.9597  40.5092  40.5864  41.0757  41.5920
    42.5027  43.0022  43.5401  44.5888  44.9072  45.5385  45.8938  46.2966
    46.6085  46.8564  47.1125  47.6865  48.4013  48.9104  49.1944  50.8749
    51.2409  52.0081  52.6007  52.8813  53.0495  53.5200  55.0035  55.6548
    56.0494  56.8598  57.2212  58.0041

 ------ SPIN DOWN ----------


          k = 0.0000 0.0000 0.0000 (  1875 PWs)   bands (ev):

   -40.9818 -40.9741 -40.8833 -40.8831 -40.8102 -40.8100  -7.2278  -6.0226
    -5.0579  -5.0579   3.6879   3.8738   5.5038   5.5039   5.8746   8.7159
     8.7159   9.1394   9.5835   9.9937  10.0475  10.2188  10.2189  10.4442
    11.0942  11.0942  12.1605  12.9680  14.1282  16.8843  16.8843  17.5561
    18.3706  22.5681  22.5682  24.9919  26.0354  26.7103  28.8555  29.7033
    29.7033  30.8378  30.8445  31.3549  31.3749  33.7071  34.4689  34.4689
    35.8049  35.8049  37.4014  39.4293  39.5859  39.7239  39.7239  41.2168
    41.5787  42.1653  42.5162  44.0358  44.2254  44.2254  44.4679  44.4679
    45.3025  45.3025  45.6941  47.8353  49.1935  50.9454  50.9454  50.9598
    52.1267  52.1675  52.1675  53.2841  53.3595  53.3595  53.5600  53.8070
    54.6269  54.6408  54.8319  59.5016

          k = 0.0000 0.0000 0.3103 (  1879 PWs)   bands (ev):

   -41.0259 -41.0195 -40.8762 -40.8761 -40.8076 -40.8075  -6.8143  -5.7784
    -5.2814  -5.2814   4.3403   4.3443   5.6619   5.6619   6.3150   7.4112
     8.1666   8.8123   8.8123   9.2570   9.2570  10.0862  10.4498  11.0106
    11.6652  12.3095  12.3096  13.7399  14.0014  16.1506  16.1506  17.1501
    19.4621  24.0738  24.0738  25.0278  25.9462  26.8753  27.3499  29.2179
    29.3849  29.3849  29.7491  31.3721  31.3835  34.7335  34.7335  34.8504
    35.3581  35.3927  35.3927  39.1166  39.1391  40.1474  40.1474  40.4246
    41.2586  41.5585  41.5585  41.6480  43.4396  45.0589  45.0589  47.0073
    47.7112  47.7698  48.0791  48.0791  49.0844  49.5037  50.1758  50.1759
    51.3353  51.8114  51.8115  54.1868  54.3175  54.5275  55.3947  55.3947
    56.8832  57.4854  57.4855  57.5247

          k = 0.0000 0.0000 0.6207 (  1848 PWs)   bands (ev):

   -41.0957 -41.0933 -40.8646 -40.8644 -40.8036 -40.8034  -5.9509  -5.6235
    -5.6235  -5.5087   5.1251   5.4653   6.0307   6.2547   6.2547   6.6889
     7.5194   7.5195   7.5456   9.1990   9.6130   9.6130  10.7217  11.2925
    11.7382  12.7699  13.2698  13.2698  14.8663  15.4868  15.6879  15.6879
    22.1270  24.3286  25.2937  25.4840  26.4152  26.4152  27.4463  28.3573
    28.3573  28.4152  28.7806  30.5020  31.3876  31.4062  33.9790  33.9790
    36.1640  36.1640  37.7497  37.8901  38.7429  39.5765  39.7116  40.1410
    40.1410  42.0326  42.0326  42.6070  45.1844  45.1845  46.6478  47.5139
    47.5139  48.3899  48.4626  48.9856  48.9856  49.3578  50.1518  51.4238
    52.0722  52.1946  52.1947  53.1605  54.1609  54.1609  56.2421  56.2757
    56.6887  56.6887  57.7195  58.8851

          k = 0.0000 0.2000 0.0000 (  1878 PWs)   bands (ev):

   -40.9811 -40.9748 -40.8826 -40.8825 -40.8108 -40.8106  -7.0882  -6.0446
    -5.2050  -5.1256   4.0307   4.1338   5.5280   5.5355   6.1230   7.9422
     7.9706   8.8493   9.2422   9.4837  10.2185  10.3616  10.6932  10.9938
    11.1508  11.2467  12.1780  13.6927  13.9155  16.7109  16.7487  17.6836
    18.5080  22.3880  22.6775  24.7826  26.1756  26.7046  27.9849  30.1836
    30.3078  31.2022  31.3285  31.3340  31.3714  33.2608  33.5999  33.9588
    35.0160  36.4711  37.4849  38.8843  39.5081  39.7610  40.8859  41.2708
    41.4532  41.7079  42.5491  43.0943  44.0046  44.9297  45.1968  45.4115
    45.8659  46.2718  47.1370  47.9467  48.8171  50.2486  50.3534  50.7824
    50.7992  51.3347  51.4822  51.5082  52.7813  53.1133  53.9150  55.4880
    55.9304  56.6757  57.2698  57.4623

          k = 0.0000 0.2000 0.3103 (  1864 PWs)   bands (ev):

   -41.0253 -41.0201 -40.8757 -40.8756 -40.8080 -40.8079  -6.6934  -5.7722
    -5.4157  -5.3285   4.5604   4.5693   5.6549   5.6876   6.5926   7.2299
     7.6580   8.4879   8.6564   8.9297   9.1356  10.0889  11.1244  11.4649
    11.6381  12.1211  12.3771  13.5393  14.4342  15.6239  16.0631  17.3759
    19.8391  23.5686  24.0734  25.0729  26.1010  27.0284  27.4880  28.9242
    29.0189  29.3972  30.7580  31.3642  31.3938  33.2841  33.3594  35.0787
    35.4072  35.5845  36.9626  38.6253  39.1634  39.2012  39.8125  40.7994
    40.9682  41.8692  42.4047  43.6412  44.5543  44.9177  45.6609  46.4381
    46.5636  47.2914  48.0080  48.6394  49.5143  49.5970  49.8199  50.2470
    50.4445  51.7213  52.2536  53.6426  53.7672  54.3853  55.5417  55.8354
    56.7096  57.6009  57.8486  58.2670

          k = 0.0000 0.2000 0.6207 (  1864 PWs)   bands (ev):

   -41.0956 -41.0937 -40.8645 -40.8644 -40.8036 -40.8035  -5.9805  -5.7675
    -5.5432  -5.3961   5.1198   5.3819   5.4797   6.0403   6.5262   6.9205
     7.5096   7.9804   8.0412   9.1826   9.2822   9.6073  10.9001  11.3569
    11.4074  12.3069  13.3683  13.3933  14.4322  14.5298  16.2496  16.7544
    22.2615  24.3483  24.7549  25.0384  26.5966  26.7101  27.6647  27.7797
    28.1518  28.4808  29.9904  30.0432  31.3915  31.3991  33.4406  33.8446
    35.8106  36.3062  37.3159  37.9884  39.3014  39.7913  39.9491  40.1389
    41.1646  41.7627  42.1129  43.4903  45.2215  45.5855  46.5581  46.5854
    47.4033  47.6534  48.2052  49.1288  49.4458  49.7316  50.0336  51.2926
    51.5102  52.1485  53.2133  53.2783  54.6700  54.8169  55.2789  55.6352
    55.9335  57.6449  58.2448  58.7042

          k = 0.0000 0.4000 0.0000 (  1874 PWs)   bands (ev):

   -40.9791 -40.9766 -40.8816 -40.8814 -40.8119 -40.8117  -6.7123  -6.2631
    -5.3628  -5.2757   4.7427   4.7557   5.5767   5.5849   6.7985   6.9293
     6.9552   8.0035   8.6411   8.8650  10.6716  10.7106  10.9269  11.1296
    11.3662  11.5865  12.5876  13.2766  15.2268  16.4461  16.4886  16.7068
    19.8960  21.4437  23.2019  24.1050  26.5359  27.0983  27.4042  29.1297
    30.9817  31.3433  31.3639  32.0740  32.1227  32.7115  33.0912  34.3524
    34.8248  36.0713  37.7705  38.4451  38.5082  38.7023  39.7632  39.9442
    42.7180  42.7982  43.9025  44.0610  44.9102  45.2816  45.8655  45.8924
    47.3707  47.6669  47.7230  48.9711  49.0199  49.2029  49.3075  49.8334
    49.8672  50.5153  50.5756  51.2832  51.8316  51.9313  55.0670  55.1378
    55.5971  57.1411  57.6068  57.7854

          k = 0.0000 0.4000 0.3103 (  1859 PWs)   bands (ev):

   -41.0238 -41.0218 -40.8750 -40.8748 -40.8087 -40.8086  -6.3655  -5.9526
    -5.5372  -5.4404   5.0508   5.1021   5.5899   5.7110   6.7791   7.0064
     7.4947   7.7569   7.8514   8.4319   9.6333   9.9508  11.7093  11.8084
    11.9682  12.0669  12.6014  13.0569  14.8760  15.0159  16.2933  17.0532
    20.9837  22.3945  24.3185  24.8065  26.5333  27.1948  27.6840  28.3321
    28.9234  29.9580  31.0006  31.3056  31.3980  31.8084  33.3193  35.1469
    35.5652  35.6013  37.6933  37.8852  39.0163  39.1839  39.6643  39.7718
    41.1396  43.0558  43.5130  44.4198  44.9490  45.3156  46.2803  46.9177
    47.1406  47.6133  47.8668  48.5260  49.4179  49.5515  49.7534  49.8870
    50.8423  51.2711  51.8284  53.2964  53.7271  54.0960  54.7371  54.8530
    55.8875  56.5243  56.7317  57.4203

          k = 0.0000 0.4000 0.6207 (  1860 PWs)   bands (ev):

   -41.0951 -41.0944 -40.8644 -40.8642 -40.8037 -40.8036  -5.9891  -5.9170
    -5.4083  -5.3414   5.1398   5.2105   5.2483   5.4481   6.9665   7.3702
     7.7405   8.2709   8.6608   8.6755   9.1440   9.9173  10.8834  11.2161
    11.4329  11.4833  13.4910  13.4971  13.7923  13.9945  17.0911  17.3777
    22.7456  23.6529  24.4476  24.6900  26.8047  27.0175  27.3007  27.5129
    28.0633  28.9910  29.5621  30.7872  31.3941  31.3971  32.8501  33.5514
    35.9632  36.3969  37.2926  37.7108  39.6427  39.8927  40.3115  40.3268
    41.2024  41.9240  43.9936  44.1576  44.8667  45.0280  46.0850  46.6184
    47.4413  47.4419  48.0287  48.9126  49.1069  49.1832  51.1692  52.1394
    52.6644  52.6819  52.9922  53.6760  54.2559  54.3211  54.7250  56.0087
    56.2072  56.7177  56.9944  57.7100

          k = 0.2000 0.2000 0.0000 (  1865 PWs)   bands (ev):

   -40.9805 -40.9753 -40.8833 -40.8815 -40.8117 -40.8100  -6.9801  -6.0956
    -5.3297  -5.0993   3.7895   4.7632   5.4872   5.5867   6.3558   6.9028
     8.4738   8.6653   9.5054   9.7201   9.8306  10.1393  10.2251  10.8585
    11.4139  11.5309  12.4187  13.7935  13.9542  16.4665  16.8793  17.3283
    19.0847  22.2995  22.8374  24.4273  26.5274  26.5479  27.6021  29.3349
    31.2927  31.3667  31.5919  31.6440  31.9977  33.0352  33.5232  33.8804
    34.4422  35.7721  36.9530  38.3945  39.6309  39.6553  40.7452  41.0803
    41.9985  42.2261  43.2753  43.4147  43.7245  44.1231  46.1525  46.2545
    46.3968  47.2097  47.2154  47.8487  48.8428  49.0243  49.4628  50.6125
    50.7096  50.7701  52.0670  52.0863  53.9200  53.9599  54.1005  54.3229
    54.5615  55.7838  57.3953  57.6087

          k = 0.2000 0.2000 0.3103 (  1859 PWs)   bands (ev):

   -41.0248 -41.0207 -40.8762 -40.8749 -40.8086 -40.8075  -6.5978  -5.7987
    -5.5193  -5.3170   4.3395   5.0696   5.5443   5.7163   6.8394   6.9654
     7.7666   7.8737   8.6221   9.1411   9.3732  10.0395  10.7275  11.6341
    11.7762  12.0167  12.6535  13.4224  14.5681  15.3463  16.1713  17.2790
    20.2563  23.4258  23.9491  24.7785  26.1692  27.0304  27.5225  28.6920
    28.9751  30.5377  30.5769  31.3416  31.4110  31.9206  33.9447  35.0711
    35.5498  35.6534  36.7441  38.3478  39.0501  39.5583  40.0324  40.3026
    41.0418  42.1623  43.6113  43.6295  44.8942  45.0757  45.5754  46.0498
    46.6902  47.6119  47.9597  49.0382  49.0958  49.2547  49.8959  49.9769
    50.7497  51.2022  52.0768  52.7748  54.3896  54.5802  55.7098  55.8495
    56.8990  57.1693  57.1980  57.8065

          k = 0.2000 0.2000 0.6207 (  1859 PWs)   bands (ev):

   -41.0954 -41.0939 -40.8645 -40.8644 -40.8036 -40.8035  -5.9959  -5.6842
    -5.6515  -5.3453   5.1800   5.2736   5.4649   6.0000   6.1155   7.3990
     7.4347   8.1682   8.4424   8.5831   9.2803  10.0228  10.9360  11.1659
    11.4183  12.3963  12.8899  13.6287  13.7845  15.4619  15.6901  17.1578
    22.3499  24.2379  24.3860  25.1549  25.3419  26.7821  27.3384  28.2527
    28.8360  29.0105  29.9926  30.3699  31.3923  31.4044  33.1230  33.8767
    35.4887  35.9648  36.6158  38.7946  39.3926  40.3311  40.4291  40.6641
    41.3539  41.6859  42.6040  43.6969  44.8835  45.5571  45.9468  46.8456
    47.1892  47.2779  48.2090  48.9771  49.1791  49.4423  50.3573  50.8493
    51.6467  52.6877  52.8926  53.2183  53.9297  55.0232  55.6166  55.8299
    56.3928  56.9605  58.0140  58.5026

          k = 0.2000 0.4000 0.0000 (  1876 PWs)   bands (ev):

   -40.9789 -40.9768 -40.8828 -40.8817 -40.8117 -40.8106  -6.6916  -6.3339
    -5.3433  -5.2043   4.0855   4.7485   5.5094   5.5714   6.8975   7.0682
     7.8239   8.3830   8.7428   9.2337  10.1530  10.3494  10.8148  10.8785
    10.9538  11.4904  12.9496  13.4611  14.9384  16.2543  16.4647  16.7264
    20.4464  21.7619  23.1641  23.8769  26.4630  26.8420  27.3392  28.6311
    31.3020  31.3509  32.3065  32.3100  32.8746  32.8811  33.1043  33.9676
    34.8440  34.9423  36.2766  38.4189  38.4360  39.4138  39.8160  40.0593
    42.4788  42.8013  43.8406  43.8976  44.5870  45.2371  46.5003  46.9960
    47.1507  47.2893  47.5855  48.6206  49.0177  49.4553  50.0470  50.0726
    50.5651  50.8228  51.1516  51.7661  52.0861  52.8291  53.2001  53.9812
    55.7053  56.7706  56.8024  58.1448

          k = 0.2000 0.4000 0.3103 (  1866 PWs)   bands (ev):

   -41.0236 -41.0220 -40.8758 -40.8751 -40.8085 -40.8079  -6.3431  -6.0206
    -5.5105  -5.3967   4.5643   5.0880   5.5492   5.6035   6.9606   7.2863
     7.6829   7.8610   8.3716   8.5843   9.4647   9.7748  11.2622  11.6416
    11.7247  12.0011  12.8280  13.1161  14.9412  15.3102  16.2158  16.8022
    21.3184  22.5409  24.0694  24.4665  26.4285  26.9921  27.6241  28.1075
    29.2258  30.1665  31.0541  31.3597  31.4146  32.0604  33.5184  35.1294
    35.6650  35.9874  37.2329  37.5971  39.0628  39.4066  39.8155  40.4952
    41.0061  42.3797  43.4407  43.7445  45.0871  45.8028  46.4007  46.6773
    46.9890  47.6393  47.9564  48.6643  49.1865  49.5153  49.8713  50.1195
    50.8469  51.4377  52.3666  52.7080  53.0181  53.6465  54.1447  54.9176
    56.7725  57.0725  57.4812  57.5756

          k = 0.2000 0.4000 0.6207 (  1863 PWs)   bands (ev):

   -41.0950 -41.0944 -40.8644 -40.8644 -40.8036 -40.8036  -5.9596  -5.8393
    -5.4952  -5.3659   5.1385   5.2276   5.3699   5.6890   6.4338   7.1315
     7.6765   8.0620   8.6046   8.9949   9.3727  10.1916  10.9947  11.1069
    11.3253  11.7626  13.1217  13.4761  13.8930  14.6539  16.6337  17.2510
    22.6906  23.4076  24.2245  24.4821  25.6355  26.2943  27.2388  27.9910
    29.0845  29.6272  30.2914  31.3233  31.3900  31.5661  32.6762  33.8607
    35.4997  36.0607  36.4173  37.5918  40.2678  40.4477  40.6467  41.0925
    41.7522  42.8040  43.4170  43.7715  44.9174  45.1316  45.8882  46.5619
    46.8604  47.0969  47.4579  48.3162  49.1584  50.2530  50.6027  50.9018
    51.4612  52.0796  52.4138  53.2867  54.1513  54.4439  55.2738  56.1780
    56.8107  56.9624  57.1881  57.7894

          k = 0.4000 0.4000 0.0000 (  1848 PWs)   bands (ev):

   -40.9781 -40.9774 -40.8836 -40.8830 -40.8102 -40.8097  -6.6179  -6.4847
    -5.2402  -5.1642   3.7969   4.0867   5.4611   5.4960   7.5607   8.0407
     8.0800   8.9878   9.2252   9.6391   9.7259   9.8137  10.2357  10.4931
    10.5654  10.8951  13.4211  13.5996  14.7817  15.3524  16.7229  16.8725
    21.5548  22.3297  22.8467  23.3613  26.1669  26.2917  27.9035  28.5874
    31.1915  31.2967  32.2414  32.5314  32.8641  32.9242  33.8024  34.3157
    34.6223  34.8692  36.9517  37.0363  37.8345  39.3016  40.0013  41.0133
    41.1453  42.7376  42.9693  43.1135  44.6882  45.6900  45.9409  46.8836
    47.7416  48.1986  48.3755  49.3072  49.6104  49.9015  50.0781  50.2059
    50.9978  51.3940  51.8302  52.0083  52.2578  53.0520  53.2453  54.3764
    55.8524  56.6143  56.6544  57.3909

          k = 0.4000 0.4000 0.3103 (  1870 PWs)   bands (ev):

   -41.0230 -41.0224 -40.8764 -40.8761 -40.8077 -40.8073  -6.2726  -6.1553
    -5.4296  -5.3731   4.3362   4.5655   5.4629   5.5151   7.4759   7.8033
     7.9111   8.3638   8.5663   8.8558   9.1782   9.6115  10.6875  11.2468
    11.6241  11.6690  13.0533  13.1432  15.3056  15.4998  16.1854  16.3270
    22.0817  22.7527  23.4651  23.8470  26.7116  26.9391  27.5523  28.1721
    28.5036  29.2583  31.3643  31.3713  32.4065  33.4115  33.6843  35.0406
    35.5154  35.7076  37.7095  37.9678  38.8392  39.6954  39.7836  40.2811
    41.7127  42.1181  42.6223  43.4141  44.1092  44.8893  46.6971  46.7825
    47.1222  47.5008  47.6498  48.4678  49.2838  50.3320  50.6440  50.7001
    51.5218  51.8986  52.0794  52.5977  52.7734  53.8367  54.7725  55.1413
    55.2420  55.8874  57.1355  58.4588

          k = 0.4000 0.4000 0.6207 (  1873 PWs)   bands (ev):

   -41.0947 -41.0945 -40.8646 -40.8646 -40.8036 -40.8036  -5.8471  -5.6959
    -5.6412  -5.4828   5.1980   5.3639   5.7205   5.7881   6.0746   6.5393
     7.4169   7.6836   8.8642   9.0440   9.9234  10.3123  11.0135  11.1160
    11.5878  12.2290  12.5665  13.0637  14.6662  15.6890  15.7072  16.6564
    22.6880  22.9625  23.7212  23.7731  25.7794  26.3129  26.5550  27.1512
    30.2293  30.3990  31.3553  31.3720  31.8588  32.3536  33.0830  34.1577
    35.3436  35.4812  35.9174  36.9596  40.5088  40.5860  41.0760  41.5923
    42.5027  43.0022  43.5401  44.5889  44.9074  45.5385  45.8939  46.2966
    46.6086  46.8565  47.1129  47.6866  48.4016  48.9106  49.1943  50.8751
    51.2409  52.0083  52.6005  52.8813  53.0494  53.5198  55.0033  55.6545
    56.0496  56.8600  57.2216  58.0044

          k =-0.2000 0.2000 0.0000 (  1865 PWs)   bands (ev):

   -40.9805 -40.9753 -40.8835 -40.8813 -40.8119 -40.8099  -6.9801  -6.0956
    -5.3298  -5.0993   3.7895   4.7632   5.4871   5.5867   6.3558   6.9027
     8.4739   8.6652   9.5054   9.7201   9.8306  10.1393  10.2252  10.8585
    11.4139  11.5308  12.4187  13.7935  13.9542  16.4666  16.8792  17.3283
    19.0847  22.2995  22.8374  24.4273  26.5274  26.5479  27.6020  29.3349
    31.2927  31.3667  31.5919  31.6440  31.9977  33.0352  33.5232  33.8804
    34.4422  35.7721  36.9529  38.3945  39.6309  39.6553  40.7453  41.0803
    41.9984  42.2261  43.2753  43.4147  43.7245  44.1231  46.1525  46.2545
    46.3968  47.2097  47.2154  47.8488  48.8428  49.0244  49.4628  50.6125
    50.7095  50.7701  52.0670  52.0863  53.9200  53.9599  54.1004  54.3229
    54.5615  55.7838  57.3953  57.6087

          k =-0.2000 0.2000-0.3103 (  1859 PWs)   bands (ev):

   -41.0248 -41.0207 -40.8763 -40.8748 -40.8087 -40.8073  -6.5978  -5.7987
    -5.5194  -5.3170   4.3395   5.0696   5.5443   5.7163   6.8393   6.9653
     7.7666   7.8737   8.6222   9.1412   9.3732  10.0395  10.7275  11.6341
    11.7762  12.0167  12.6535  13.4224  14.5681  15.3464  16.1713  17.2790
    20.2563  23.4258  23.9491  24.7785  26.1692  27.0304  27.5225  28.6920
    28.9751  30.5377  30.5769  31.3415  31.4110  31.9205  33.9447  35.0712
    35.5498  35.6534  36.7441  38.3479  39.0501  39.5583  40.0324  40.3026
    41.0418  42.1623  43.6113  43.6295  44.8943  45.0758  45.5753  46.0497
    46.6902  47.6119  47.9597  49.0382  49.0958  49.2547  49.8959  49.9769
    50.7496  51.2022  52.0768  52.7748  54.3896  54.5802  55.7098  55.8495
    56.8990  57.1692  57.1980  57.8064

          k =-0.2000 0.2000-0.6207 (  1859 PWs)   bands (ev):

   -41.0954 -41.0939 -40.8646 -40.8642 -40.8037 -40.8035  -5.9959  -5.6842
    -5.6515  -5.3453   5.1800   5.2736   5.4649   6.0001   6.1155   7.3990
     7.4347   8.1682   8.4423   8.5830   9.2803  10.0228  10.9359  11.1659
    11.4184  12.3963  12.8899  13.6288  13.7845  15.4620  15.6900  17.1577
    22.3499  24.2379  24.3860  25.1549  25.3420  26.7821  27.3384  28.2526
    28.8360  29.0105  29.9926  30.3699  31.3925  31.4042  33.1230  33.8767
    35.4887  35.9648  36.6158  38.7946  39.3926  40.3311  40.4291  40.6641
    41.3538  41.6860  42.6040  43.6969  44.8835  45.5571  45.9468  46.8456
    47.1892  47.2779  48.2090  48.9771  49.1791  49.4423  50.3573  50.8493
    51.6467  52.6877  52.8926  53.2183  53.9297  55.0232  55.6166  55.8299
    56.3928  56.9605  58.0140  58.5026

          k =-0.2000 0.4000 0.0000 (  1876 PWs)   bands (ev):

   -40.9789 -40.9768 -40.8829 -40.8816 -40.8118 -40.8105  -6.6916  -6.3339
    -5.3434  -5.2043   4.0855   4.7485   5.5093   5.5715   6.8975   7.0682
     7.8239   8.3829   8.7427   9.2337  10.1530  10.3494  10.8148  10.8785
    10.9538  11.4903  12.9496  13.4611  14.9384  16.2543  16.4648  16.7263
    20.4464  21.7619  23.1641  23.8769  26.4630  26.8420  27.3392  28.6311
    31.3020  31.3509  32.3065  32.3100  32.8746  32.8811  33.1042  33.9676
    34.8440  34.9423  36.2766  38.4189  38.4360  39.4138  39.8160  40.0593
    42.4788  42.8013  43.8406  43.8976  44.5870  45.2371  46.5003  46.9960
    47.1507  47.2893  47.5855  48.6206  49.0177  49.4554  50.0470  50.0726
    50.5652  50.8228  51.1516  51.7661  52.0861  52.8291  53.2001  53.9812
    55.7053  56.7706  56.8024  58.1448

          k =-0.2000 0.4000-0.3103 (  1866 PWs)   bands (ev):

   -41.0236 -41.0220 -40.8759 -40.8750 -40.8087 -40.8077  -6.3431  -6.0206
    -5.5105  -5.3967   4.5643   5.0880   5.5492   5.6035   6.9606   7.2862
     7.6829   7.8610   8.3716   8.5843   9.4647   9.7748  11.2621  11.6417
    11.7248  12.0011  12.8280  13.1161  14.9412  15.3102  16.2157  16.8022
    21.3184  22.5409  24.0694  24.4665  26.4285  26.9921  27.6241  28.1075
    29.2259  30.1665  31.0541  31.3598  31.4145  32.0604  33.5184  35.1294
    35.6650  35.9874  37.2329  37.5971  39.0628  39.4066  39.8155  40.4952
    41.0061  42.3797  43.4407  43.7445  45.0871  45.8028  46.4007  46.6773
    46.9890  47.6393  47.9564  48.6643  49.1865  49.5153  49.8713  50.1195
    50.8468  51.4377  52.3666  52.7079  53.0181  53.6465  54.1447  54.9176
    56.7726  57.0725  57.4813  57.5756

          k =-0.2000 0.4000-0.6207 (  1863 PWs)   bands (ev):

   -41.0950 -41.0944 -40.8646 -40.8643 -40.8037 -40.8035  -5.9596  -5.8393
    -5.4952  -5.3659   5.1385   5.2276   5.3699   5.6890   6.4338   7.1315
     7.6765   8.0620   8.6046   8.9949   9.3727  10.1916  10.9946  11.1069
    11.3254  11.7626  13.1217  13.4761  13.8930  14.6539  16.6337  17.2510
    22.6906  23.4076  24.2245  24.4821  25.6355  26.2943  27.2388  27.9910
    29.0845  29.6272  30.2914  31.3231  31.3902  31.5660  32.6762  33.8606
    35.4998  36.0607  36.4173  37.5918  40.2678  40.4477  40.6467  41.0925
    41.7522  42.8040  43.4170  43.7716  44.9174  45.1316  45.8882  46.5619
    46.8604  47.0969  47.4579  48.3162  49.1584  50.2531  50.6027  50.9018
    51.4612  52.0796  52.4138  53.2866  54.1513  54.4439  55.2738  56.1779
    56.8107  56.9624  57.1881  57.7894

          k =-0.4000 0.4000 0.0000 (  1848 PWs)   bands (ev):

   -40.9781 -40.9773 -40.8837 -40.8829 -40.8104 -40.8095  -6.6179  -6.4847
    -5.2402  -5.1642   3.7969   4.0867   5.4611   5.4961   7.5607   8.0407
     8.0800   8.9878   9.2252   9.6390   9.7259   9.8137  10.2358  10.4931
    10.5654  10.8951  13.4211  13.5996  14.7817  15.3524  16.7229  16.8725
    21.5548  22.3297  22.8467  23.3613  26.1669  26.2917  27.9035  28.5875
    31.1915  31.2967  32.2414  32.5314  32.8641  32.9242  33.8024  34.3157
    34.6223  34.8692  36.9517  37.0363  37.8345  39.3016  40.0013  41.0133
    41.1453  42.7376  42.9693  43.1135  44.6882  45.6900  45.9409  46.8836
    47.7416  48.1986  48.3755  49.3073  49.6104  49.9015  50.0781  50.2059
    50.9978  51.3940  51.8302  52.0082  52.2578  53.0520  53.2453  54.3764
    55.8524  56.6143  56.6544  57.3909

          k =-0.4000 0.4000-0.3103 (  1870 PWs)   bands (ev):

   -41.0230 -41.0224 -40.8766 -40.8760 -40.8078 -40.8072  -6.2726  -6.1553
    -5.4296  -5.3731   4.3362   4.5655   5.4629   5.5151   7.4759   7.8032
     7.9111   8.3639   8.5663   8.8558   9.1782   9.6116  10.6875  11.2468
    11.6240  11.6690  13.0533  13.1432  15.3056  15.4999  16.1854  16.3270
    22.0817  22.7527  23.4651  23.8470  26.7116  26.9391  27.5523  28.1721
    28.5037  29.2583  31.3643  31.3713  32.4065  33.4115  33.6843  35.0406
    35.5155  35.7076  37.7095  37.9678  38.8392  39.6954  39.7836  40.2811
    41.7127  42.1181  42.6223  43.4141  44.1092  44.8893  46.6971  46.7825
    47.1221  47.5009  47.6499  48.4678  49.2838  50.3320  50.6440  50.7001
    51.5218  51.8986  52.0794  52.5978  52.7734  53.8367  54.7724  55.1413
    55.2420  55.8874  57.1355  58.4589

          k =-0.4000 0.4000-0.6207 (  1873 PWs)   bands (ev):

   -41.0947 -41.0945 -40.8648 -40.8645 -40.8037 -40.8035  -5.8471  -5.6959
    -5.6411  -5.4828   5.1979   5.3639   5.7205   5.7882   6.0746   6.5393
     7.4169   7.6836   8.8642   9.0440   9.9234  10.3123  11.0134  11.1161
    11.5878  12.2290  12.5665  13.0637  14.6662  15.6889  15.7073  16.6564
    22.6880  22.9625  23.7212  23.7732  25.7794  26.3129  26.5551  27.1512
    30.2293  30.3990  31.3552  31.3721  31.8588  32.3536  33.0830  34.1576
    35.3436  35.4812  35.9173  36.9595  40.5088  40.5860  41.0760  41.5922
    42.5027  43.0022  43.5401  44.5889  44.9074  45.5385  45.8939  46.2966
    46.6086  46.8566  47.1129  47.6866  48.4016  48.9106  49.1943  50.8750
    51.2409  52.0083  52.6005  52.8813  53.0494  53.5198  55.0032  55.6546
    56.0496  56.8600  57.2216  58.0044

     the Fermi energy is    13.7522 ev

!    total energy              =    -544.90595575 Ry
     Harris-Foulkes estimate   =    -544.90595477 Ry
     estimated scf accuracy    <       0.00000015 Ry

     The total energy is the sum of the following terms:

     one-electron contribution =    -132.52052269 Ry
     hartree contribution      =     104.99797477 Ry
     xc contribution           =    -137.50818660 Ry
     ewald contribution        =    -379.87532203 Ry
     smearing contrib. (-TS)   =       0.00010081 Ry

     total magnetization       =     0.00 Bohr mag/cell
     absolute magnetization    =     0.00 Bohr mag/cell

     convergence has been achieved in  12 iterations

     Forces acting on atoms (Ry/au):


     negative rho (up, down):  0.197E+00 0.197E+00
     atom    1 type  1   force =     0.00000000    0.00000000    0.00000000
     atom    2 type  1   force =     0.00000000    0.00000000    0.00000000
     atom    3 type  2   force =    -0.01705717   -0.01705717    0.00000000
     atom    4 type  2   force =     0.01705717    0.01705717    0.00000000
     atom    5 type  2   force =    -0.01704278    0.01704278    0.00000000
     atom    6 type  2   force =     0.01704278   -0.01704278    0.00000000

     Total force =     0.048225     Total SCF correction =     0.000107


     entering subroutine stress ...


     negative rho (up, down):  0.197E+00 0.197E+00
          total   stress  (Ry/bohr**3)                   (kbar)     P=  134.61
   0.00030822   0.00000004   0.00000000         45.34      0.01      0.00
   0.00000004   0.00030822   0.00000000          0.01     45.34      0.00
   0.00000000   0.00000000   0.00212881          0.00      0.00    313.16

     Volume is kept fixed: isostatic pressure set to zero

     BFGS Geometry Optimization

     number of scf cycles    =   1
     number of bfgs steps    =   0

     enthalpy new            =    -544.9059557488 Ry

     new trust radius        =       0.1267634389 bohr
     new conv_thr            =       0.0000010000 Ry

     new unit-cell volume =    436.32066 a.u.^3 (    64.65605 Ang^3 )

CELL_PARAMETERS (alat=  8.78092155)
   0.985052903   0.000001015   0.000000000
   0.000001015   0.985052903   0.000000000
   0.000000000   0.000000000   0.664150301

ATOMIC_POSITIONS (crystal)
Pt0      0.000000000   0.000000000   0.000000000    0   0   0
Pt0      0.500000000   0.500000000   0.500000000    0   0   0
O1       0.303057474   0.303057474   0.000000000    1   1   0
O1      -0.303057474  -0.303057474   0.000000000    1   1   0
O1       0.803059113   0.196940887   0.500000000    1   1   0
O1       0.196940887   0.803059113   0.500000000    1   1   0


     Check: negative starting charge=(component1):   -0.382475
     NEW-OLD atomic charge density approx. for the potential
     NEW k-points:
        k(    1) = (   0.0000000   0.0000000   0.0000000), wk =   0.0080000
        k(    2) = (   0.0000000   0.0000000   0.3011367), wk =   0.0160000
        k(    3) = (   0.0000000   0.0000000   0.6022733), wk =   0.0160000
        k(    4) = (  -0.0000002   0.2030348   0.0000000), wk =   0.0320000
        k(    5) = (  -0.0000002   0.2030348   0.3011367), wk =   0.0640000
        k(    6) = (  -0.0000002   0.2030348   0.6022733), wk =   0.0640000
        k(    7) = (  -0.0000004   0.4060696   0.0000000), wk =   0.0320000
        k(    8) = (  -0.0000004   0.4060696   0.3011367), wk =   0.0640000
        k(    9) = (  -0.0000004   0.4060696   0.6022733), wk =   0.0640000
        k(   10) = (   0.2030346   0.2030346   0.0000000), wk =   0.0160000
        k(   11) = (   0.2030346   0.2030346   0.3011367), wk =   0.0320000
        k(   12) = (   0.2030346   0.2030346   0.6022733), wk =   0.0320000
        k(   13) = (   0.2030344   0.4060694   0.0000000), wk =   0.0320000
        k(   14) = (   0.2030344   0.4060694   0.3011367), wk =   0.0640000
        k(   15) = (   0.2030344   0.4060694   0.6022733), wk =   0.0640000
        k(   16) = (   0.4060691   0.4060691   0.0000000), wk =   0.0160000
        k(   17) = (   0.4060691   0.4060691   0.3011367), wk =   0.0320000
        k(   18) = (   0.4060691   0.4060691   0.6022733), wk =   0.0320000
        k(   19) = (  -0.2030350   0.2030350   0.0000000), wk =   0.0160000
        k(   20) = (  -0.2030350   0.2030350  -0.3011367), wk =   0.0320000
        k(   21) = (  -0.2030350   0.2030350  -0.6022733), wk =   0.0320000
        k(   22) = (  -0.2030352   0.4060698   0.0000000), wk =   0.0320000
        k(   23) = (  -0.2030352   0.4060698  -0.3011367), wk =   0.0640000
        k(   24) = (  -0.2030352   0.4060698  -0.6022733), wk =   0.0640000
        k(   25) = (  -0.4060700   0.4060700   0.0000000), wk =   0.0160000
        k(   26) = (  -0.4060700   0.4060700  -0.3011367), wk =   0.0320000
        k(   27) = (  -0.4060700   0.4060700  -0.6022733), wk =   0.0320000
        k(   28) = (   0.0000000   0.0000000   0.0000000), wk =   0.0080000
        k(   29) = (   0.0000000   0.0000000   0.3011367), wk =   0.0160000
        k(   30) = (   0.0000000   0.0000000   0.6022733), wk =   0.0160000
        k(   31) = (  -0.0000002   0.2030348   0.0000000), wk =   0.0320000
        k(   32) = (  -0.0000002   0.2030348   0.3011367), wk =   0.0640000
        k(   33) = (  -0.0000002   0.2030348   0.6022733), wk =   0.0640000
        k(   34) = (  -0.0000004   0.4060696   0.0000000), wk =   0.0320000
        k(   35) = (  -0.0000004   0.4060696   0.3011367), wk =   0.0640000
        k(   36) = (  -0.0000004   0.4060696   0.6022733), wk =   0.0640000
        k(   37) = (   0.2030346   0.2030346   0.0000000), wk =   0.0160000
        k(   38) = (   0.2030346   0.2030346   0.3011367), wk =   0.0320000
        k(   39) = (   0.2030346   0.2030346   0.6022733), wk =   0.0320000
        k(   40) = (   0.2030344   0.4060694   0.0000000), wk =   0.0320000
        k(   41) = (   0.2030344   0.4060694   0.3011367), wk =   0.0640000
        k(   42) = (   0.2030344   0.4060694   0.6022733), wk =   0.0640000
        k(   43) = (   0.4060691   0.4060691   0.0000000), wk =   0.0160000
        k(   44) = (   0.4060691   0.4060691   0.3011367), wk =   0.0320000
        k(   45) = (   0.4060691   0.4060691   0.6022733), wk =   0.0320000
        k(   46) = (  -0.2030350   0.2030350   0.0000000), wk =   0.0160000
        k(   47) = (  -0.2030350   0.2030350  -0.3011367), wk =   0.0320000
        k(   48) = (  -0.2030350   0.2030350  -0.6022733), wk =   0.0320000
        k(   49) = (  -0.2030352   0.4060698   0.0000000), wk =   0.0320000
        k(   50) = (  -0.2030352   0.4060698  -0.3011367), wk =   0.0640000
        k(   51) = (  -0.2030352   0.4060698  -0.6022733), wk =   0.0640000
        k(   52) = (  -0.4060700   0.4060700   0.0000000), wk =   0.0160000
        k(   53) = (  -0.4060700   0.4060700  -0.3011367), wk =   0.0320000
        k(   54) = (  -0.4060700   0.4060700  -0.6022733), wk =   0.0320000

     Check: negative/imaginary core charge=   -0.000005    0.000000
     Check: negative starting charge=(component1):   -0.381666

     negative rho (up, down):  0.197E+00 0.197E+00

     total cpu time spent up to now is      462.3 secs

     per-process dynamical memory:    64.4 Mb

     Self-consistent Calculation

     iteration #  1     ecut=    40.00 Ry     beta=0.30
     Davidson diagonalization with overlap
     ethr =  1.00E-06,  avg # of iterations =  5.8

     negative rho (up, down):  0.197E+00 0.197E+00

     total cpu time spent up to now is      541.7 secs

     total energy              =    -544.92143553 Ry
     Harris-Foulkes estimate   =    -544.92159364 Ry
     estimated scf accuracy    <       0.00113066 Ry

     total magnetization       =     0.00 Bohr mag/cell
     absolute magnetization    =     0.00 Bohr mag/cell

     iteration #  2     ecut=    40.00 Ry     beta=0.30
     Davidson diagonalization with overlap
     ethr =  2.02E-06,  avg # of iterations =  1.0

     negative rho (up, down):  0.197E+00 0.197E+00

     total cpu time spent up to now is      569.4 secs

     total energy              =    -544.92157799 Ry
     Harris-Foulkes estimate   =    -544.92154663 Ry
     estimated scf accuracy    <       0.00028423 Ry

     total magnetization       =     0.00 Bohr mag/cell
     absolute magnetization    =     0.00 Bohr mag/cell

     iteration #  3     ecut=    40.00 Ry     beta=0.30
     Davidson diagonalization with overlap
     ethr =  5.08E-07,  avg # of iterations =  1.0

     negative rho (up, down):  0.196E+00 0.196E+00

     total cpu time spent up to now is      596.5 secs

     total energy              =    -544.92163353 Ry
     Harris-Foulkes estimate   =    -544.92159225 Ry
     estimated scf accuracy    <       0.00010150 Ry

     total magnetization       =     0.00 Bohr mag/cell
     absolute magnetization    =     0.00 Bohr mag/cell

     iteration #  4     ecut=    40.00 Ry     beta=0.30
     Davidson diagonalization with overlap
     ethr =  1.81E-07,  avg # of iterations =  1.0

     negative rho (up, down):  0.196E+00 0.196E+00

     total cpu time spent up to now is      624.5 secs

     total energy              =    -544.92165090 Ry
     Harris-Foulkes estimate   =    -544.92164062 Ry
     estimated scf accuracy    <       0.00001037 Ry

     total magnetization       =     0.00 Bohr mag/cell
     absolute magnetization    =     0.00 Bohr mag/cell

     iteration #  5     ecut=    40.00 Ry     beta=0.30
     Davidson diagonalization with overlap
     ethr =  1.85E-08,  avg # of iterations =  1.0

     negative rho (up, down):  0.196E+00 0.196E+00

     total cpu time spent up to now is      651.9 secs

     total energy              =    -544.92165502 Ry
     Harris-Foulkes estimate   =    -544.92165229 Ry
     estimated scf accuracy    <       0.00000423 Ry

     total magnetization       =     0.00 Bohr mag/cell
     absolute magnetization    =     0.00 Bohr mag/cell

     iteration #  6     ecut=    40.00 Ry     beta=0.30
     Davidson diagonalization with overlap
     ethr =  7.55E-09,  avg # of iterations =  1.0

     negative rho (up, down):  0.196E+00 0.196E+00

     total cpu time spent up to now is      679.3 secs

     End of self-consistent calculation

 ------ SPIN UP ------------


          k = 0.0000 0.0000 0.0000 (  1875 PWs)   bands (ev):

   -40.9508 -40.9417 -40.8365 -40.8364 -40.7782 -40.7781  -7.1696  -5.9253
    -4.9935  -4.9935   3.7534   3.9097   5.6129   5.6129   5.8862   8.8708
     8.8708   8.9234   9.7511  10.1430  10.1431  10.1706  10.1806  10.4227
    11.1450  11.1450  11.9977  13.1205  14.1395  16.6751  16.6752  17.7634
    18.3523  22.3324  22.3325  24.9732  26.2535  27.0161  28.7481  30.0525
    30.0581  30.0811  30.0812  31.3742  31.3957  33.1370  34.9850  34.9851
    36.2893  36.2893  37.1653  39.2519  39.2519  39.5955  40.1169  40.1388
    41.1589  41.7649  42.1978  43.7654  43.7655  44.0529  44.8663  44.8664
    45.3499  45.7870  45.7870  47.8183  47.9638  49.9278  51.0040  51.0040
    52.2485  52.5357  52.7478  52.7479  53.1461  53.1462  53.8903  54.5345
    54.6402  55.4952  55.5249  60.4009

          k = 0.0000 0.0000 0.3011 (  1879 PWs)   bands (ev):

   -40.9814 -40.9739 -40.8335 -40.8334 -40.7746 -40.7746  -6.8046  -5.7446
    -5.1806  -5.1806   4.3062   4.3345   5.8029   5.8029   6.2938   7.4223
     8.3513   8.9272   8.9272   9.3112   9.3113  10.0703  10.4681  10.9914
    11.7151  12.2581  12.2581  13.7932  14.0848  15.9203  15.9204  17.4617
    19.1830  23.7464  23.7465  24.8776  26.0928  27.1501  27.4410  28.9931
    29.3176  29.6745  29.6745  31.3918  31.3974  34.1633  34.9005  34.9809
    34.9809  35.9655  35.9656  39.2817  39.3952  40.0264  40.1464  40.1465
    41.3913  41.3913  41.4275  41.6828  42.7328  45.5064  45.5065  46.4170
    46.5789  48.0007  48.0008  48.0140  48.5304  49.6975  49.9634  49.9636
    51.9321  52.1348  52.1348  53.8766  54.6891  54.7653  55.3245  55.3246
    56.8110  57.1709  57.1710  57.2109

          k = 0.0000 0.0000 0.6023 (  1848 PWs)   bands (ev):

   -41.0297 -41.0268 -40.8284 -40.8283 -40.7689 -40.7688  -6.0314  -5.5872
    -5.4677  -5.4677   5.0228   5.3790   6.1530   6.3718   6.3719   6.8945
     7.4332   7.6923   7.6924   8.9793   9.7864   9.7864  10.5792  11.0448
    12.0096  12.9325  13.2092  13.2093  15.0539  15.2298  15.2299  15.8031
    21.7963  23.9466  25.5602  25.8709  25.9997  25.9998  27.5988  28.3370
    28.5797  28.5797  28.9370  30.5635  31.4055  31.4238  34.2919  34.2920
    36.4867  36.4868  37.1172  38.2155  39.2483  39.5448  39.9593  40.2730
    40.2731  41.2515  42.0027  42.0027  45.4007  45.4008  45.5892  47.2483
    47.2484  48.5061  48.9067  48.9067  48.9200  48.9313  50.7759  51.3885
    51.6563  51.8906  51.8906  52.6657  54.1280  54.1280  56.1010  56.3531
    56.8077  56.8078  57.0364  57.9965

          k =-0.0000 0.2030 0.0000 (  1878 PWs)   bands (ev):

   -40.9500 -40.9425 -40.8356 -40.8355 -40.7791 -40.7790  -7.0188  -5.9182
    -5.1814  -5.0750   4.1327   4.2013   5.6460   5.6588   6.1442   8.0547
     8.0738   8.6033   9.3337   9.3987  10.3680  10.5230  10.6684  10.9879
    11.2048  11.4234  11.9106  13.8001  13.9909  16.4648  16.5177  17.9682
    18.4634  22.2631  22.4999  24.7280  26.3439  26.9800  28.0955  30.4043
    30.4318  30.5687  30.5903  31.3499  31.3917  32.9988  33.5216  34.2068
    35.5238  36.8666  36.8736  38.6523  39.3038  39.9692  40.4897  41.2541
    41.5646  42.1037  42.2713  42.3306  43.5471  44.6905  45.5210  45.5243
    46.4773  46.6845  46.6956  47.6707  48.1263  49.4711  50.2928  50.9983
    51.1477  51.1830  51.3036  51.9685  53.0579  53.3344  53.8210  55.3058
    56.6086  56.9380  57.4110  58.5236

          k =-0.0000 0.2030 0.3011 (  1864 PWs)   bands (ev):

   -40.9808 -40.9746 -40.8328 -40.8327 -40.7752 -40.7752  -6.6736  -5.7137
    -5.3479  -5.2406   4.5591   4.5882   5.8073   5.8295   6.5999   7.2034
     7.7280   8.4910   8.6564   9.1059   9.3341  10.2382  11.0927  11.4063
    11.5325  12.0241  12.3858  13.5747  14.6035  15.4675  15.8131  17.5572
    19.6669  23.4170  23.8191  24.8599  26.2017  27.2094  27.6163  28.8235
    29.0980  29.1602  30.9528  31.3837  31.4124  33.1044  33.5144  34.4225
    35.6563  36.0981  36.9863  38.7351  39.0540  39.3078  39.6420  40.5369
    41.0785  41.8116  42.5055  43.6998  44.1384  45.0401  45.8477  46.3244
    46.6142  47.0963  47.4363  48.4176  49.4571  49.6628  49.7947  49.9194
    50.7732  51.8957  52.6738  53.8629  53.8889  54.3509  54.9742  55.5139
    56.3447  57.4373  57.7634  58.1959

          k =-0.0000 0.2030 0.6023 (  1864 PWs)   bands (ev):

   -41.0296 -41.0273 -40.8283 -40.8282 -40.7690 -40.7689  -6.0137  -5.7088
    -5.4377  -5.3810   5.0743   5.3368   5.5942   6.1128   6.6989   7.0068
     7.5794   8.0366   8.1541   9.1243   9.4515   9.6503  10.7572  11.1069
    11.6101  12.3565  13.3415  13.3945  14.3091  14.4684  16.0887  16.7401
    21.9960  24.0010  24.8047  25.0927  26.5048  26.7604  27.6618  27.6803
    28.2912  28.6725  30.1965  30.2000  31.4114  31.4186  33.6816  34.0171
    35.9797  36.4626  37.1834  38.3186  39.3439  39.5019  40.0845  40.2469
    41.2917  41.3886  42.4149  42.5711  45.4164  45.5088  46.1826  46.7880
    47.2790  47.4098  48.2259  48.9781  48.9832  49.6487  50.0556  51.4000
    51.5098  51.9504  52.9432  53.2205  54.5844  54.7968  55.4351  55.4787
    56.1062  57.4165  57.4788  58.2912

          k =-0.0000 0.4061 0.0000 (  1874 PWs)   bands (ev):

   -40.9476 -40.9447 -40.8341 -40.8340 -40.7807 -40.7806  -6.6081  -6.1086
    -5.3874  -5.2606   4.9164   4.9639   5.7156   5.7302   6.8095   6.9428
     6.9843   8.1035   8.3708   8.6325  10.7630  10.8934  10.9063  11.2809
    11.4362  11.7011  12.3996  13.1931  15.4571  16.1427  16.2039  16.9284
    19.9845  21.4943  23.1200  24.0528  26.6593  27.2238  27.6053  29.3648
    30.9732  31.3683  31.3831  31.3925  31.9957  32.1051  32.4209  34.1685
    34.7868  36.4842  37.8370  38.3867  38.9642  38.9963  39.3512  39.5687
    42.6765  43.1129  43.3719  43.3973  45.1852  45.2515  45.4571  46.4045
    46.7051  48.1344  48.2886  48.5101  48.8651  49.0425  49.1645  49.7978
    50.2946  50.4514  50.8707  51.0098  52.3595  52.4160  55.2083  55.9715
    56.0458  57.1083  57.7087  57.9350

          k =-0.0000 0.4061 0.3011 (  1859 PWs)   bands (ev):

   -40.9790 -40.9766 -40.8317 -40.8316 -40.7763 -40.7762  -6.3160  -5.8535
    -5.5247  -5.3850   5.1602   5.1765   5.7632   5.8889   6.7022   6.9700
     7.5146   7.7212   7.7959   8.5564   9.8979  10.2230  11.5166  11.6445
    11.8936  11.9740  12.6389  13.0708  14.9156  14.9397  16.2059  17.1261
    20.9503  22.3775  24.1697  24.6545  26.5958  27.2754  27.8118  28.2510
    28.8976  29.7913  30.9984  31.2694  31.4030  31.5905  33.4883  34.7428
    35.5302  35.9685  37.7194  37.8932  38.8703  39.2209  39.5404  39.8195
    41.0463  43.2045  43.5705  44.3524  44.7713  45.0006  46.2964  46.8565
    46.9183  47.6287  47.9056  48.3691  49.7057  49.7297  49.8355  50.0510
    51.0604  51.3760  51.8548  53.3186  53.6409  53.9286  54.7149  54.7754
    55.9505  56.5000  57.1111  57.6829

          k =-0.0000 0.4061 0.6023 (  1860 PWs)   bands (ev):

[...]
    52.6408  52.9258  53.2057  53.7486  54.4274  54.6698  54.8716  54.9667
    56.1513  57.0847  57.2243  57.9153

          k = 0.2064 0.2064 0.0000 (  1856 PWs)   bands (ev):

   -40.9506 -40.9437 -40.7909 -40.7893 -40.6779 -40.6763  -6.9298  -5.9994
    -5.2539  -4.9439   3.9187   5.0615   5.4507   5.5944   6.5047   7.1611
     8.2224   8.7776   9.5459   9.9434  10.0451  10.1038  10.2914  11.1410
    11.4884  11.5124  12.1734  13.7302  14.1985  16.3402  16.8165  17.5156
    19.1786  22.1696  22.5919  24.2439  26.7719  26.8850  28.0878  29.8675
    30.1658  30.2245  31.3534  31.4273  32.1073  32.3257  33.4694  34.4642
    35.1490  35.4956  36.3879  37.5914  39.6389  39.6981  40.2764  41.4308
    41.5999  41.9055  42.4165  42.5753  44.8327  44.8467  46.1283  46.1439
    46.4784  46.8520  47.2303  47.8090  48.3233  48.6742  48.9809  50.5245
    50.7231  51.4187  52.7138  52.9193  53.2853  53.8217  54.1368  55.4630
    56.2613  56.8823  58.5584  59.2176

          k = 0.2064 0.2064 0.2914 (  1871 PWs)   bands (ev):

   -40.9730 -40.9674 -40.7889 -40.7878 -40.6748 -40.6738  -6.6093  -5.7718
    -5.4161  -5.1265   4.3430   5.2940   5.6718   5.9575   6.8109   6.9479
     7.7676   7.9835   8.7458   9.3863   9.7524  10.3287  10.7719  11.3980
    11.5525  11.9255  12.6547  13.4251  14.7995  15.2209  15.9602  17.2913
    20.1238  23.1648  23.6059  24.3701  26.0933  27.0547  28.0026  28.6534
    28.8543  30.5622  30.8324  31.4174  31.4631  31.9450  34.0605  34.5135
    35.6050  35.9996  37.0450  38.0050  38.8612  39.4736  39.6938  39.8512
    41.0290  42.7985  43.1667  44.1994  44.4333  45.0729  45.6515  45.7654
    46.5653  47.0534  48.1126  48.7939  48.9661  49.8163  50.0252  50.0414
    50.8235  51.0082  52.5855  52.9985  53.2944  54.8623  55.6245  56.2838
    56.4040  56.6791  56.7739  57.1499

          k = 0.2064 0.2064 0.5828 (  1868 PWs)   bands (ev):

   -41.0083 -41.0062 -40.7857 -40.7852 -40.6698 -40.6697  -5.9972  -5.6966
    -5.4044  -5.4043   5.1918   5.4401   5.5597   6.1311   6.3973   7.4175
     7.8704   8.2038   8.6026   8.8743   9.2907  10.1189  10.5427  10.8422
    11.3761  12.5660  12.7872  13.6261  13.6613  14.9223  15.7036  16.9760
    22.0131  23.6926  24.5822  24.8537  25.0760  26.2920  27.8369  28.6289
    28.8892  29.7121  30.2794  31.0671  31.4507  31.5047  33.7964  33.8088
    35.7252  36.3455  36.9439  38.0102  39.4475  39.5130  40.5201  40.9882
    41.3944  41.7773  42.6016  43.0753  45.3079  45.3748  45.5401  46.8864
    47.0209  47.4346  48.1352  48.3703  48.9368  49.1875  50.1034  50.5047
    51.3811  52.2674  52.7137  52.9347  54.0788  54.5572  54.9499  55.6674
    56.1481  56.8111  57.3966  57.9291

          k = 0.2064 0.4128 0.0000 (  1858 PWs)   bands (ev):

   -40.9484 -40.9458 -40.7905 -40.7895 -40.6778 -40.6769  -6.6190  -6.2330
    -5.2723  -5.0817   4.2560   5.0390   5.4778   5.5671   7.1127   7.2936
     8.0891   8.3431   8.7722   8.9118  10.2173  10.7500  10.7790  10.9337
    11.1118  11.4590  12.7728  13.3459  15.2087  16.3398  16.5121  16.6414
    20.5514  21.7808  22.9903  23.7202  26.7482  26.9722  27.7606  28.9967
    30.9243  31.3658  31.4118  31.4912  31.7085  32.4394  33.1305  33.4857
    34.7492  35.4930  36.8973  37.4773  38.3458  39.4940  39.9885  40.3373
    42.4315  42.5435  42.8445  43.3983  44.6360  45.5753  45.6214  45.8833
    48.0302  48.1989  48.2871  48.3863  48.5551  49.3133  49.9698  50.0133
    50.4723  51.3896  51.7761  52.0855  52.7853  54.4726  54.7167  54.9864
    55.5695  56.0673  57.7552  58.5841

          k = 0.2064 0.4128 0.2914 (  1852 PWs)   bands (ev):

   -40.9713 -40.9692 -40.7886 -40.7879 -40.6747 -40.6741  -6.3312  -5.9776
    -5.4201  -5.2436   4.6252   5.3100   5.6875   5.7965   6.8520   7.3250
     7.7909   7.8993   8.5656   8.8430   9.7199  10.0804  11.2190  11.4440
    11.5293  11.8833  12.7925  13.0830  15.0520  15.3878  16.0478  16.7936
    21.2425  22.4306  23.7976  24.1899  26.1324  26.7536  28.0074  28.3368
    29.1948  30.1937  31.0017  31.4095  31.4475  32.1627  33.7335  34.6825
    35.6779  36.1785  37.2636  37.4417  38.5784  38.9866  39.8287  40.1768
    41.3585  42.2844  43.0605  43.8368  44.9559  45.0969  45.9546  46.6475
    47.4409  48.1433  48.3250  48.9800  49.3462  49.6811  50.1162  50.6113
    50.9084  51.6319  51.8919  52.4883  52.8665  54.2635  54.7031  55.4448
    56.2769  56.4204  57.0731  57.7966

          k = 0.2064 0.4128 0.5828 (  1880 PWs)   bands (ev):

   -41.0077 -41.0069 -40.7856 -40.7854 -40.6699 -40.6698  -5.8734  -5.7529
    -5.4374  -5.4326   5.2771   5.2843   5.6769   5.7677   6.6080   7.1969
     8.0030   8.2746   8.6546   9.0649   9.5873  10.3916  10.7237  10.8261
    10.9776  11.7776  13.1219  13.4894  13.6794  14.3091  16.4939  17.0711
    22.5112  23.3827  23.8932  24.2965  25.2981  25.9257  27.6349  28.5733
    29.3270  29.8963  30.5928  31.4056  31.4519  32.0036  33.3907  34.3344
    35.5938  36.1224  36.4319  37.6459  39.2819  39.7391  40.7407  40.9588
    41.8993  42.3508  42.9435  43.4397  44.9532  45.3788  45.8733  46.3698
    46.8327  47.6467  47.8973  48.6179  49.0829  49.7355  50.2515  50.5373
    51.2296  52.3618  52.5110  52.9384  53.9223  54.5481  55.2719  55.5254
    56.0304  56.4491  57.3976  57.8482

          k = 0.4128 0.4128 0.0000 (  1854 PWs)   bands (ev):

   -40.9476 -40.9466 -40.7913 -40.7907 -40.6768 -40.6762  -6.5523  -6.4092
    -5.1265  -5.0239   3.9206   4.2546   5.4067   5.4548   7.7790   8.3628
     8.3884   8.8974   9.3336   9.5060   9.7479  10.1209  10.1483  10.5768
    10.8002  10.8371  13.2805  13.4740  14.9761  15.5847  16.6362  16.8068
    21.5908  22.3661  22.6965  23.2637  26.3353  26.4299  28.1468  28.9520
    31.2167  31.2457  31.3591  31.5352  32.2937  32.3511  33.0075  33.3365
    35.0482  35.3901  36.3037  36.9465  37.7671  40.2296  40.3192  40.9573
    42.1015  43.0053  43.0855  43.4686  44.1870  44.2964  45.0026  45.2409
    48.2166  48.2622  48.4410  48.9434  49.1868  49.8235  50.7101  50.9045
    51.6876  52.1867  52.3199  52.4439  52.7010  53.0899  54.8205  55.0373
    56.4908  56.6103  57.1822  57.5996

          k = 0.4128 0.4128 0.2914 (  1856 PWs)   bands (ev):

   -40.9705 -40.9697 -40.7892 -40.7888 -40.6741 -40.6738  -6.2733  -6.1455
    -5.2860  -5.1984   4.3343   4.6208   5.5645   5.6375   7.4884   7.9375
     8.0727   8.5862   8.8478   9.0607   9.2547   9.8315  10.6773  11.2224
    11.5177  11.5511  13.0095  13.0990  15.4101  15.5790  15.9757  16.2082
    21.9749  22.6302  23.2890  23.6779  26.1437  26.4595  27.8785  28.4045
    28.5629  29.2861  31.4067  31.4127  32.5969  33.3688  34.0088  34.9789
    35.3187  35.5870  37.6115  38.0628  38.4931  39.3021  39.7720  39.8180
    41.2461  41.7389  42.7397  44.2342  44.5213  45.0181  46.2046  46.2251
    46.6535  47.2650  48.5829  48.9997  49.7321  50.5850  51.0652  51.6089
    51.6940  51.7769  52.3035  52.8198  52.9763  53.6885  54.6291  55.1392
    55.1633  55.5120  57.1360  58.0411

          k = 0.4128 0.4128 0.5828 (  1860 PWs)   bands (ev):

   -41.0072 -41.0070 -40.7858 -40.7857 -40.6698 -40.6698  -5.7966  -5.7475
    -5.4651  -5.4628   5.2139   5.2604   5.7430   5.8783   6.3330   6.7406
     7.9721   8.0732   8.9157   9.1183  10.0901  10.5657  10.5689  10.7172
    11.5992  12.3849  12.4509  13.0803  14.3064  14.9206  15.9189  16.4953
    22.6581  23.0515  23.5786  23.6396  25.2367  25.6926  26.8304  27.4161
    30.4014  30.4543  31.4094  31.4215  32.4844  33.0172  33.9680  34.9587
    35.3975  35.7017  35.8314  37.1941  39.4524  39.8840  40.5122  40.6256
    41.6573  42.3157  43.8458  44.9849  45.1526  45.4045  45.9543  46.3617
    46.9984  47.0966  48.0792  48.4641  48.9655  49.8454  50.0234  50.4715
    51.0058  51.4875  51.7234  52.5198  53.1746  53.8044  53.9862  54.2999
    55.8795  56.0046  56.7004  57.2071

          k =-0.2064 0.2064 0.0000 (  1856 PWs)   bands (ev):

   -40.9506 -40.9437 -40.7909 -40.7893 -40.6779 -40.6763  -6.9298  -5.9994
    -5.2539  -4.9439   3.9187   5.0615   5.4507   5.5944   6.5047   7.1612
     8.2224   8.7776   9.5459   9.9434  10.0451  10.1038  10.2913  11.1410
    11.4884  11.5124  12.1734  13.7302  14.1985  16.3402  16.8164  17.5156
    19.1786  22.1696  22.5919  24.2439  26.7719  26.8850  28.0878  29.8676
    30.1658  30.2245  31.3534  31.4273  32.1073  32.3257  33.4694  34.4642
    35.1490  35.4956  36.3879  37.5914  39.6389  39.6981  40.2764  41.4308
    41.6000  41.9055  42.4165  42.5753  44.8327  44.8467  46.1283  46.1439
    46.4784  46.8520  47.2303  47.8090  48.3233  48.6742  48.9810  50.5245
    50.7231  51.4187  52.7138  52.9193  53.2853  53.8217  54.1367  55.4630
    56.2613  56.8823  58.5584  59.2176

          k =-0.2064 0.2064-0.2914 (  1871 PWs)   bands (ev):

   -40.9730 -40.9674 -40.7889 -40.7878 -40.6748 -40.6738  -6.6093  -5.7718
    -5.4161  -5.1265   4.3430   5.2940   5.6718   5.9575   6.8109   6.9479
     7.7676   7.9835   8.7458   9.3863   9.7524  10.3287  10.7719  11.3980
    11.5525  11.9255  12.6547  13.4251  14.7995  15.2210  15.9602  17.2913
    20.1238  23.1648  23.6058  24.3701  26.0933  27.0547  28.0026  28.6534
    28.8543  30.5622  30.8324  31.4174  31.4631  31.9450  34.0605  34.5135
    35.6050  35.9996  37.0450  38.0050  38.8612  39.4736  39.6938  39.8512
    41.0290  42.7985  43.1667  44.1994  44.4333  45.0729  45.6515  45.7654
    46.5653  47.0534  48.1126  48.7939  48.9661  49.8163  50.0252  50.0414
    50.8235  51.0082  52.5854  52.9985  53.2944  54.8623  55.6245  56.2838
    56.4040  56.6791  56.7739  57.1499

          k =-0.2064 0.2064-0.5828 (  1868 PWs)   bands (ev):

   -41.0083 -41.0061 -40.7857 -40.7852 -40.6698 -40.6697  -5.9972  -5.6966
    -5.4044  -5.4043   5.1918   5.4401   5.5597   6.1311   6.3973   7.4175
     7.8704   8.2038   8.6026   8.8743   9.2907  10.1189  10.5427  10.8422
    11.3761  12.5660  12.7872  13.6261  13.6613  14.9223  15.7036  16.9760
    22.0131  23.6926  24.5822  24.8537  25.0760  26.2920  27.8369  28.6289
    28.8892  29.7121  30.2794  31.0671  31.4507  31.5047  33.7964  33.8088
    35.7252  36.3455  36.9438  38.0102  39.4475  39.5130  40.5201  40.9882
    41.3944  41.7773  42.6016  43.0753  45.3079  45.3748  45.5401  46.8864
    47.0209  47.4346  48.1352  48.3703  48.9368  49.1875  50.1034  50.5047
    51.3811  52.2674  52.7137  52.9347  54.0788  54.5572  54.9499  55.6674
    56.1481  56.8111  57.3966  57.9291

          k =-0.2064 0.4128 0.0000 (  1858 PWs)   bands (ev):

   -40.9484 -40.9458 -40.7905 -40.7895 -40.6778 -40.6768  -6.6190  -6.2330
    -5.2723  -5.0817   4.2560   5.0390   5.4778   5.5671   7.1127   7.2936
     8.0891   8.3431   8.7722   8.9118  10.2173  10.7500  10.7790  10.9337
    11.1118  11.4590  12.7728  13.3459  15.2087  16.3398  16.5121  16.6414
    20.5514  21.7808  22.9903  23.7202  26.7482  26.9722  27.7606  28.9967
    30.9243  31.3658  31.4118  31.4912  31.7085  32.4394  33.1305  33.4857
    34.7492  35.4930  36.8973  37.4773  38.3458  39.4940  39.9885  40.3373
    42.4315  42.5435  42.8445  43.3983  44.6360  45.5753  45.6214  45.8833
    48.0302  48.1989  48.2871  48.3863  48.5551  49.3133  49.9698  50.0133
    50.4723  51.3897  51.7761  52.0855  52.7853  54.4726  54.7167  54.9864
    55.5695  56.0673  57.7552  58.5841

          k =-0.2064 0.4128-0.2914 (  1852 PWs)   bands (ev):

   -40.9713 -40.9692 -40.7886 -40.7878 -40.6747 -40.6741  -6.3312  -5.9776
    -5.4201  -5.2437   4.6252   5.3101   5.6875   5.7965   6.8520   7.3250
     7.7909   7.8993   8.5656   8.8430   9.7199  10.0804  11.2190  11.4440
    11.5293  11.8833  12.7925  13.0830  15.0520  15.3878  16.0478  16.7936
    21.2425  22.4306  23.7976  24.1899  26.1324  26.7536  28.0074  28.3368
    29.1948  30.1937  31.0017  31.4095  31.4475  32.1627  33.7335  34.6825
    35.6779  36.1785  37.2636  37.4417  38.5784  38.9866  39.8287  40.1768
    41.3585  42.2844  43.0605  43.8368  44.9559  45.0969  45.9546  46.6475
    47.4409  48.1433  48.3250  48.9800  49.3462  49.6811  50.1162  50.6113
    50.9084  51.6319  51.8919  52.4883  52.8665  54.2635  54.7031  55.4448
    56.2769  56.4204  57.0731  57.7966

          k =-0.2064 0.4128-0.5828 (  1880 PWs)   bands (ev):

   -41.0077 -41.0069 -40.7856 -40.7854 -40.6699 -40.6698  -5.8734  -5.7529
    -5.4374  -5.4326   5.2771   5.2843   5.6769   5.7677   6.6080   7.1969
     8.0030   8.2746   8.6546   9.0649   9.5873  10.3916  10.7237  10.8261
    10.9776  11.7775  13.1219  13.4894  13.6794  14.3091  16.4939  17.0711
    22.5112  23.3827  23.8932  24.2965  25.2981  25.9256  27.6349  28.5733
    29.3270  29.8963  30.5928  31.4056  31.4519  32.0036  33.3907  34.3344
    35.5938  36.1224  36.4319  37.6459  39.2819  39.7391  40.7407  40.9588
    41.8993  42.3508  42.9435  43.4397  44.9532  45.3788  45.8733  46.3698
    46.8327  47.6467  47.8973  48.6179  49.0829  49.7354  50.2515  50.5373
    51.2296  52.3618  52.5110  52.9384  53.9223  54.5481  55.2719  55.5254
    56.0304  56.4491  57.3976  57.8482

          k =-0.4128 0.4128 0.0000 (  1854 PWs)   bands (ev):

   -40.9476 -40.9466 -40.7913 -40.7907 -40.6768 -40.6762  -6.5523  -6.4092
    -5.1265  -5.0239   3.9206   4.2546   5.4067   5.4548   7.7790   8.3628
     8.3884   8.8974   9.3336   9.5060   9.7479  10.1209  10.1483  10.5768
    10.8002  10.8372  13.2805  13.4740  14.9761  15.5847  16.6363  16.8068
    21.5908  22.3661  22.6965  23.2637  26.3353  26.4299  28.1468  28.9521
    31.2167  31.2457  31.3591  31.5352  32.2937  32.3511  33.0075  33.3365
    35.0482  35.3901  36.3037  36.9465  37.7671  40.2296  40.3192  40.9573
    42.1015  43.0053  43.0854  43.4686  44.1870  44.2964  45.0026  45.2408
    48.2166  48.2622  48.4410  48.9434  49.1868  49.8235  50.7100  50.9045
    51.6876  52.1867  52.3199  52.4439  52.7010  53.0899  54.8205  55.0373
    56.4908  56.6103  57.1822  57.5996

          k =-0.4128 0.4128-0.2914 (  1856 PWs)   bands (ev):

   -40.9705 -40.9697 -40.7892 -40.7888 -40.6741 -40.6737  -6.2733  -6.1455
    -5.2860  -5.1984   4.3343   4.6208   5.5645   5.6375   7.4884   7.9375
     8.0727   8.5862   8.8478   9.0607   9.2547   9.8315  10.6773  11.2224
    11.5177  11.5512  13.0095  13.0990  15.4101  15.5790  15.9757  16.2082
    21.9749  22.6302  23.2890  23.6780  26.1437  26.4595  27.8785  28.4045
    28.5629  29.2861  31.4067  31.4127  32.5969  33.3688  34.0088  34.9789
    35.3187  35.5870  37.6115  38.0628  38.4931  39.3021  39.7720  39.8180
    41.2461  41.7389  42.7397  44.2342  44.5213  45.0181  46.2046  46.2251
    46.6535  47.2650  48.5830  48.9997  49.7321  50.5850  51.0652  51.6089
    51.6940  51.7769  52.3035  52.8198  52.9763  53.6885  54.6291  55.1392
    55.1633  55.5120  57.1360  58.0411

          k =-0.4128 0.4128-0.5828 (  1860 PWs)   bands (ev):

   -41.0072 -41.0070 -40.7858 -40.7857 -40.6698 -40.6698  -5.7966  -5.7475
    -5.4651  -5.4628   5.2139   5.2604   5.7430   5.8783   6.3330   6.7406
     7.9720   8.0732   8.9157   9.1183  10.0901  10.5657  10.5689  10.7172
    11.5992  12.3849  12.4509  13.0803  14.3064  14.9206  15.9189  16.4953
    22.6581  23.0515  23.5786  23.6396  25.2367  25.6926  26.8304  27.4161
    30.4014  30.4543  31.4094  31.4215  32.4844  33.0172  33.9680  34.9587
    35.3975  35.7017  35.8314  37.1941  39.4524  39.8840  40.5122  40.6256
    41.6573  42.3157  43.8458  44.9849  45.1526  45.4045  45.9543  46.3617
    46.9984  47.0966  48.0792  48.4641  48.9655  49.8454  50.0234  50.4715
    51.0058  51.4875  51.7234  52.5198  53.1746  53.8044  53.9862  54.2999
    55.8795  56.0046  56.7004  57.2071

     the Fermi energy is    13.6365 ev

!    total energy              =    -544.92961566 Ry
     Harris-Foulkes estimate   =    -544.92961563 Ry
     estimated scf accuracy    <          7.0E-09 Ry

     The total energy is the sum of the following terms:

     one-electron contribution =    -126.27890488 Ry
     hartree contribution      =     101.95616440 Ry
     xc contribution           =    -137.40986206 Ry
     ewald contribution        =    -383.19687092 Ry
     smearing contrib. (-TS)   =      -0.00014220 Ry

     total magnetization       =     0.00 Bohr mag/cell
     absolute magnetization    =     0.00 Bohr mag/cell

     convergence has been achieved in  17 iterations

     Forces acting on atoms (Ry/au):


     negative rho (up, down):  0.196E+00 0.196E+00
     atom    1 type  1   force =     0.00000000    0.00000000    0.00000000
     atom    2 type  1   force =     0.00000000    0.00000000    0.00000000
     atom    3 type  2   force =    -0.00000795   -0.00000795   -0.00000000
     atom    4 type  2   force =     0.00000795    0.00000795   -0.00000000
     atom    5 type  2   force =    -0.00000911    0.00000911   -0.00000000
     atom    6 type  2   force =     0.00000911   -0.00000911   -0.00000000

     Total force =     0.000024     Total SCF correction =     0.000010
     SCF correction compared to forces is large: reduce conv_thr to get better values


     entering subroutine stress ...


     negative rho (up, down):  0.196E+00 0.196E+00
          total   stress  (Ry/bohr**3)                   (kbar)     P=   93.84
   0.00062253  -0.00000002   0.00000000         91.58     -0.00      0.00
  -0.00000002   0.00062253   0.00000000         -0.00     91.58      0.00
   0.00000000   0.00000000   0.00066868          0.00      0.00     98.37


     init_run     :     25.74s CPU     26.21s WALL (       2 calls)
     electrons    :   2106.81s CPU   2192.58s WALL (       7 calls)
     update_pot   :     22.57s CPU     22.73s WALL (       5 calls)
     forces       :     56.26s CPU     56.34s WALL (       7 calls)
     stress       :    148.45s CPU    148.66s WALL (       7 calls)

     Called by init_run:
     wfcinit      :     16.96s CPU     17.21s WALL (       2 calls)
     potinit      :      1.99s CPU      2.01s WALL (       2 calls)

     Called by electrons:
     c_bands      :   1730.40s CPU   1791.05s WALL (      61 calls)
     sum_band     :    286.18s CPU    289.81s WALL (      61 calls)
     v_of_rho     :     15.99s CPU     16.05s WALL (      66 calls)
     newd         :     80.10s CPU     80.18s WALL (      66 calls)
     mix_rho      :      1.70s CPU      1.72s WALL (      61 calls)

     Called by c_bands:
     init_us_2    :      8.05s CPU      8.10s WALL (    7452 calls)
     cegterg      :   1703.10s CPU   1763.66s WALL (    3294 calls)

     Called by *egterg:
     h_psi        :    846.08s CPU    865.31s WALL (    9386 calls)
     s_psi        :     54.74s CPU     54.78s WALL (    9386 calls)
     g_psi        :      4.50s CPU      4.52s WALL (    5984 calls)
     cdiaghg      :    422.21s CPU    423.02s WALL (    8900 calls)

     Called by h_psi:
     add_vuspsi   :     54.96s CPU     55.24s WALL (    9386 calls)

     General routines
     calbec       :     96.89s CPU    103.37s WALL (   13436 calls)
     fft          :     13.37s CPU     13.51s WALL (    2300 calls)
     ffts         :      0.19s CPU      0.20s WALL (     254 calls)
     fftw         :    657.61s CPU    657.85s WALL ( 1560878 calls)
     interpolate  :      1.84s CPU      1.87s WALL (     254 calls)

     Parallel routines
     fft_scatter  :    213.30s CPU    217.03s WALL ( 1563432 calls)

     PWSCF        : 39m26.42s CPU    40m53.19s WALL


   This run was terminated on:  15:57:21  24Jan2014            

=------------------------------------------------------------------------------=
   JOB DONE.
=------------------------------------------------------------------------------=
---------------------------------------
Running PBS batch system epilogue script
Job id: 251904.audhumbla.fysik.dtu.dk
Username: zhonxu
Groupname: campgst
Jobname: PtO2/fine-EOS/ferro/PtO2-v-0.95
Sessionid: 2684
Resources limits: neednodes=1:ppn=4:opteron4,nodes=1:ppn=4:opteron4,walltime=18:00:00
Resources used: cput=02:42:59,mem=380384kb,vmem=1277728kb,walltime=00:40:55
Queuename: verylong
Accounting:
This job has allocated the following 4 nodes:
q006 q006 q006 q006
Finished epilogue job 251904.audhumbla.fysik.dtu.dk for zhonxu
