ScientificPython/2.8-dl160g6-numpy-1.7.1-1(15):ERROR:151: Module 'ScientificPython/2.8-dl160g6-numpy-1.7.1-1' depends on one of the module(s) 'numpy/1.7.1-dl160g6-gfortran-internal-1'
ScientificPython/2.8-dl160g6-numpy-1.7.1-1(15):ERROR:102: Tcl command execution failed: prereq numpy/1.7.1-dl160g6-gfortran-internal-1


     Program PWSCF v.5.0.2 (svn rev. 9656) starts on  5Jun2014 at 21:31:50 

     This program is part of the open-source Quantum ESPRESSO suite
     for quantum simulation of materials; please cite
         "P. Giannozzi et al., J. Phys.:Condens. Matter 21 395502 (2009);
          URL http://www.quantum-espresso.org", 
     in publications or presentations arising from this work. More details at
     http://www.quantum-espresso.org/quote.php

     Parallel version (MPI), running on    16 processors
     K-points division:     npool     =       4
     R & G space division:  proc/nbgrp/npool/nimage =       4

     Current dimensions of program PWSCF are:
     Max number of different atomic species (ntypx) = 10
     Max number of k-points (npk) =  40000
     Max angular momentum in pseudopotentials (lmaxx) =  3
     Reading input from pwscf.in
Warning: card &CELL ignored
Warning: card / ignored

     Subspace diagonalization in iterative solution of the eigenvalue problem:
     a serial algorithm will be used


     Parallelization info
     --------------------
     sticks:   dense  smooth     PW     G-vecs:    dense   smooth      PW
     Min        1424     456    126               337026    61014    9038
     Max        1425     457    127               337029    61047    9044
     Sum        5697    1827    505              1348107   244131   36167



     bravais-lattice index     =            0
     lattice parameter (alat)  =      11.7541  a.u.
     unit-cell volume          =    7139.8207 (a.u.)^3
     number of atoms/cell      =           33
     number of atomic types    =            3
     number of electrons       =       245.00
     number of Kohn-Sham states=          367
     kinetic-energy cutoff     =      40.0000  Ry
     charge density cutoff     =     500.0000  Ry
     convergence threshold     =      1.0E-06
     mixing beta               =       0.3000
     number of iterations used =            8  plain     mixing
     Exchange-correlation      = SLA  PW   PBE  PBE ( 1 4 3 4 0)
     EXX-fraction              =        0.00
     nstep                     =           50


     celldm(1)=  11.754097  celldm(2)=   0.000000  celldm(3)=   0.000000
     celldm(4)=   0.000000  celldm(5)=   0.000000  celldm(6)=   0.000000

     crystal axes: (cart. coord. in units of alat)
               a(1) = (   1.000000   0.000000   0.000000 )  
               a(2) = (   0.000000   1.034513   0.000000 )  
               a(3) = (   0.000000   0.000000   4.249947 )  

     reciprocal axes: (cart. coord. in units 2 pi/alat)
               b(1) = (  1.000000  0.000000  0.000000 )  
               b(2) = (  0.000000  0.966638  0.000000 )  
               b(3) = (  0.000000  0.000000  0.235297 )  


     PseudoPot. # 1 for O  read from file:
     /home/camp/zhonxu/pseudo/o_pbe_v1.01.uspp.F.UPF
     MD5 check sum: 2bcb18d16ea4b960afae9ec6d52f22d2
     Pseudo is Ultrasoft + core correction, Zval =  6.0
     Generated by new atomic code, or converted to UPF format
     Using radial grid of  737 points,  5 beta functions with: 
                l(1) =   0
                l(2) =   0
                l(3) =   1
                l(4) =   1
                l(5) =   2
     Q(r) pseudized with  8 coefficients,  rinner =    0.900   0.900   0.900
                                                       0.900   0.900

     PseudoPot. # 2 for Rh read from file:
     /home/camp/zhonxu/pseudo/rh_pbe_v1.uspp.F.UPF
     MD5 check sum: 37b626987ad0dd8ec6bf4cc9ef289918
     Pseudo is Ultrasoft + core correction, Zval = 15.0
     Generated by new atomic code, or converted to UPF format
     Using radial grid of  969 points,  7 beta functions with: 
                l(1) =   0
                l(2) =   0
                l(3) =   1
                l(4) =   1
                l(5) =   2
                l(6) =   2
                l(7) =   2
     Q(r) pseudized with  6 coefficients,  rinner =    1.050   1.050   1.050
                                                       1.050   1.050

     PseudoPot. # 3 for H  read from file:
     /home/camp/zhonxu/pseudo/h_pbe_v1.uspp.F.UPF
     MD5 check sum: 3408e3ff4ec8b0a4e358431e7e038a48
     Pseudo is Ultrasoft, Zval =  1.0
     Generated by new atomic code, or converted to UPF format
     Using radial grid of  615 points,  2 beta functions with: 
                l(1) =   0
                l(2) =   0
     Q(r) pseudized with  8 coefficients,  rinner =    0.700

     atomic species   valence    mass     pseudopotential
        O0             6.00    15.99940     O ( 1.00)
        Rh1           15.00   102.90550     Rh( 1.00)
        H2             1.00     1.00794     H ( 1.00)


     Simplified LDA+U calculation (l_max = 2) with parameters (eV):
     atomic species    L          U    alpha       J0     beta
        Rh1            2     3.0000   0.0000   0.0000   0.0000



     No symmetry found



   Cartesian axes

     site n.     atom                  positions (alat units)
         1           O0  tau(   1) = (   0.0000000   0.0000000   1.6055876  )
         2           O0  tau(   2) = (   0.0000000   0.5172566   1.7058013  )
         3           Rh1 tau(   3) = (   0.2500000   0.5172566   1.9245886  )
         4           Rh1 tau(   4) = (   0.0000000   0.0000000   1.9225486  )
         5           O0  tau(   5) = (   0.2500000   0.8379556   1.9216561  )
         6           O0  tau(   6) = (   0.2500000   0.1965575   1.9210611  )
         7           O0  tau(   7) = (   0.0000000   0.5172566   2.1183012  )
         8           O0  tau(   8) = (   0.0000000   0.0000000   2.2433346  )
         9           Rh1 tau(   9) = (   0.2500000   0.0000000   2.4442296  )
        10           Rh1 tau(  10) = (   0.0000000   0.5172566   2.4248924  )
        11           O0  tau(  11) = (   0.2500000   0.7138141   2.4423597  )
        12           O0  tau(  12) = (   0.2500000   0.3206991   2.4526445  )
        13           O0  tau(  13) = (   0.0000000   0.0000000   2.6373472  )
        14           O0  tau(  14) = (   0.5000000   0.0000000   1.6058426  )
        15           O0  tau(  15) = (   0.5000000   0.5172566   1.7065663  )
        16           Rh1 tau(  16) = (   0.7500000   0.5172566   1.9245461  )
        17           Rh1 tau(  17) = (   0.5000000   0.0000000   1.9225486  )
        18           O0  tau(  18) = (   0.7500000   0.8379556   1.9215286  )
        19           O0  tau(  19) = (   0.7500000   0.1965575   1.9212311  )
        20           O0  tau(  20) = (   0.5000000   0.5172566   2.1254411  )
        21           O0  tau(  21) = (   0.5000000   0.0000000   2.2428246  )
        22           Rh1 tau(  22) = (   0.7500000   0.0000000   2.4442296  )
        23           Rh1 tau(  23) = (   0.5000000   0.5172566   2.4566820  )
        24           O0  tau(  24) = (   0.7500000   0.7138141   2.4423172  )
        25           O0  tau(  25) = (   0.7500000   0.3206991   2.4526445  )
        26           O0  tau(  26) = (   0.5000000   0.0000000   2.6350523  )
        27           H2  tau(  27) = (   0.0000500   0.6607849   1.6355072  )
        28           H2  tau(  28) = (   0.4999200   0.6608884   1.6361872  )
        29           H2  tau(  29) = (   0.1477700   0.0372011   1.5603681  )
        30           H2  tau(  30) = (   0.6484400   0.0346148   1.5604531  )
        31           O0  tau(  31) = (   0.4997300   0.5556577   2.7651007  )
        32           O0  tau(  32) = (   0.5003300   0.3573415   2.8834192  )
        33           H2  tau(  33) = (   0.4999300   0.4160398   3.0312324  )

     number of k points=    10  Methfessel-Paxton smearing, width (Ry)=  0.0100
                       cart. coord. in units 2pi/alat
        k(    1) = (   0.0000000   0.0000000   0.0000000), wk =   0.1250000
        k(    2) = (   0.0000000   0.2416596   0.0000000), wk =   0.2500000
        k(    3) = (   0.0000000  -0.4833191   0.0000000), wk =   0.1250000
        k(    4) = (   0.2500000   0.0000000   0.0000000), wk =   0.2500000
        k(    5) = (   0.2500000   0.2416596   0.0000000), wk =   0.2500000
        k(    6) = (   0.2500000  -0.4833191   0.0000000), wk =   0.2500000
        k(    7) = (  -0.5000000   0.0000000   0.0000000), wk =   0.1250000
        k(    8) = (  -0.5000000   0.2416596   0.0000000), wk =   0.2500000
        k(    9) = (  -0.5000000  -0.4833191   0.0000000), wk =   0.1250000
        k(   10) = (  -0.2500000   0.2416596   0.0000000), wk =   0.2500000

     Dense  grid:  1348107 G-vectors     FFT dimensions: (  90,  90, 360)

     Smooth grid:   244131 G-vectors     FFT dimensions: (  48,  50, 216)

     Largest allocated arrays     est. size (Mb)     dimensions
        Kohn-Sham Wavefunctions        42.99 Mb     (   7677,  367)
        Atomic wavefunctions           21.20 Mb     (   7677,  181)
        NL pseudopotentials            53.18 Mb     (   7677,  454)
        Each V/rho on FFT grid         11.12 Mb     ( 729000)
        Each G-vector array             2.57 Mb     ( 337026)
        G-vector shells                 1.12 Mb     ( 146445)
     Largest temporary arrays     est. size (Mb)     dimensions
        Auxiliary wavefunctions       171.96 Mb     (   7677, 1468)
        Each subspace H/S matrix       32.88 Mb     (1468,1468)
        Each <psi_i|beta_j> matrix      2.54 Mb     (    454,  367)
        Arrays for rho mixing          88.99 Mb     ( 729000,   8)

     Check: negative/imaginary core charge=   -0.000003    0.000000

     Initial potential from superposition of free atoms
     Check: negative starting charge=   -0.646062

     starting charge  240.99914, renormalised to  245.00000

     negative rho (up, down):  0.657E+00 0.000E+00
     Number of +U iterations with fixed ns =  0
     Starting occupations:
 --- enter write_ns ---
 LDA+U parameters:
U( 2)     =  3.00000000
alpha( 2) =  0.00000000
atom    3   Tr[ns(na)] =   7.00000
    eigenvalues: 
  0.700  0.700  0.700  0.700  0.700
    eigenvectors:
  1.000  0.000  0.000  0.000  0.000
  0.000  1.000  0.000  0.000  0.000
  0.000  0.000  1.000  0.000  0.000
  0.000  0.000  0.000  1.000  0.000
  0.000  0.000  0.000  0.000  1.000
    occupations:
  0.700  0.000  0.000  0.000  0.000
  0.000  0.700  0.000  0.000  0.000
  0.000  0.000  0.700  0.000  0.000
  0.000  0.000  0.000  0.700  0.000
  0.000  0.000  0.000  0.000  0.700
atom    4   Tr[ns(na)] =   7.00000
    eigenvalues: 
  0.700  0.700  0.700  0.700  0.700
    eigenvectors:
  1.000  0.000  0.000  0.000  0.000
  0.000  1.000  0.000  0.000  0.000
  0.000  0.000  1.000  0.000  0.000
  0.000  0.000  0.000  1.000  0.000
  0.000  0.000  0.000  0.000  1.000
    occupations:
  0.700  0.000  0.000  0.000  0.000
  0.000  0.700  0.000  0.000  0.000
  0.000  0.000  0.700  0.000  0.000
  0.000  0.000  0.000  0.700  0.000
  0.000  0.000  0.000  0.000  0.700
atom    9   Tr[ns(na)] =   7.00000
    eigenvalues: 
  0.700  0.700  0.700  0.700  0.700
    eigenvectors:
  1.000  0.000  0.000  0.000  0.000
  0.000  1.000  0.000  0.000  0.000
  0.000  0.000  1.000  0.000  0.000
  0.000  0.000  0.000  1.000  0.000
  0.000  0.000  0.000  0.000  1.000
    occupations:
  0.700  0.000  0.000  0.000  0.000
  0.000  0.700  0.000  0.000  0.000
  0.000  0.000  0.700  0.000  0.000
  0.000  0.000  0.000  0.700  0.000
  0.000  0.000  0.000  0.000  0.700
atom   10   Tr[ns(na)] =   7.00000
    eigenvalues: 
  0.700  0.700  0.700  0.700  0.700
    eigenvectors:
  1.000  0.000  0.000  0.000  0.000
  0.000  1.000  0.000  0.000  0.000
  0.000  0.000  1.000  0.000  0.000
  0.000  0.000  0.000  1.000  0.000
  0.000  0.000  0.000  0.000  1.000
    occupations:
  0.700  0.000  0.000  0.000  0.000
  0.000  0.700  0.000  0.000  0.000
  0.000  0.000  0.700  0.000  0.000
  0.000  0.000  0.000  0.700  0.000
  0.000  0.000  0.000  0.000  0.700
atom   16   Tr[ns(na)] =   7.00000
    eigenvalues: 
  0.700  0.700  0.700  0.700  0.700
    eigenvectors:
  1.000  0.000  0.000  0.000  0.000
  0.000  1.000  0.000  0.000  0.000
  0.000  0.000  1.000  0.000  0.000
  0.000  0.000  0.000  1.000  0.000
  0.000  0.000  0.000  0.000  1.000
    occupations:
  0.700  0.000  0.000  0.000  0.000
  0.000  0.700  0.000  0.000  0.000
  0.000  0.000  0.700  0.000  0.000
  0.000  0.000  0.000  0.700  0.000
  0.000  0.000  0.000  0.000  0.700
atom   17   Tr[ns(na)] =   7.00000
    eigenvalues: 
  0.700  0.700  0.700  0.700  0.700
    eigenvectors:
  1.000  0.000  0.000  0.000  0.000
  0.000  1.000  0.000  0.000  0.000
  0.000  0.000  1.000  0.000  0.000
  0.000  0.000  0.000  1.000  0.000
  0.000  0.000  0.000  0.000  1.000
    occupations:
  0.700  0.000  0.000  0.000  0.000
  0.000  0.700  0.000  0.000  0.000
  0.000  0.000  0.700  0.000  0.000
  0.000  0.000  0.000  0.700  0.000
  0.000  0.000  0.000  0.000  0.700
atom   22   Tr[ns(na)] =   7.00000
    eigenvalues: 
  0.700  0.700  0.700  0.700  0.700
    eigenvectors:
  1.000  0.000  0.000  0.000  0.000
  0.000  1.000  0.000  0.000  0.000
  0.000  0.000  1.000  0.000  0.000
  0.000  0.000  0.000  1.000  0.000
  0.000  0.000  0.000  0.000  1.000
    occupations:
  0.700  0.000  0.000  0.000  0.000
  0.000  0.700  0.000  0.000  0.000
  0.000  0.000  0.700  0.000  0.000
  0.000  0.000  0.000  0.700  0.000
  0.000  0.000  0.000  0.000  0.700
atom   23   Tr[ns(na)] =   7.00000
    eigenvalues: 
  0.700  0.700  0.700  0.700  0.700
    eigenvectors:
  1.000  0.000  0.000  0.000  0.000
  0.000  1.000  0.000  0.000  0.000
  0.000  0.000  1.000  0.000  0.000
  0.000  0.000  0.000  1.000  0.000
  0.000  0.000  0.000  0.000  1.000
    occupations:
  0.700  0.000  0.000  0.000  0.000
  0.000  0.700  0.000  0.000  0.000
  0.000  0.000  0.700  0.000  0.000
  0.000  0.000  0.000  0.700  0.000
  0.000  0.000  0.000  0.000  0.700
N of occupied +U levels =  56.0000000
 --- exit write_ns ---
 Atomic wfc used for LDA+U Projector are NOT orthogonalized
     Starting wfc are  181 randomized atomic wfcs

     total cpu time spent up to now is      156.1 secs

     per-process dynamical memory:   432.8 Mb

     Self-consistent Calculation

     iteration #  1     ecut=    40.00 Ry     beta=0.30
     Davidson diagonalization with overlap
     ethr =  1.00E-02,  avg # of iterations =  5.9
 --- enter write_ns ---
 LDA+U parameters:
U( 2)     =  3.00000000
alpha( 2) =  0.00000000
atom    3   Tr[ns(na)] =   7.09503
    eigenvalues: 
  0.426  0.460  0.760  0.947  0.954
    eigenvectors:
  0.000  0.203  0.002  0.783  0.011
  0.997  0.003  0.000  0.000  0.000
  0.000  0.000  0.996  0.002  0.002
  0.002  0.794  0.000  0.201  0.003
  0.000  0.000  0.002  0.015  0.983
    occupations:
  0.847 -0.001  0.008 -0.196 -0.000
 -0.001  0.426  0.000  0.002 -0.007
  0.008  0.000  0.761 -0.005 -0.008
 -0.196  0.002 -0.005  0.559  0.000
 -0.000 -0.007 -0.008  0.000  0.954
atom    4   Tr[ns(na)] =   6.63798
    eigenvalues: 
  0.451  0.476  0.647  0.787  0.958
    eigenvectors:
  0.000  0.992  0.000  0.000  0.008
  0.000  0.000  0.028  0.972  0.000
  0.000  0.000  0.972  0.028  0.000
  0.000  0.008  0.000  0.000  0.992
  1.000  0.000  0.000  0.000  0.000
    occupations:
  0.480 -0.002 -0.001  0.043  0.000
 -0.002  0.783  0.023  0.000 -0.000
 -0.001  0.023  0.651 -0.001  0.000
  0.043  0.000 -0.001  0.954  0.000
  0.000 -0.000  0.000  0.000  0.451
atom    9   Tr[ns(na)] =   7.04474
    eigenvalues: 
  0.468  0.481  0.788  0.819  0.966
    eigenvectors:
  0.003  0.155  0.000  0.000  0.842
  0.987  0.013  0.000  0.000  0.000
  0.000  0.000  0.807  0.193  0.000
  0.011  0.831  0.000  0.000  0.158
  0.000  0.000  0.193  0.807  0.000
    occupations:
  0.890 -0.003 -0.001 -0.177  0.000
 -0.003  0.468  0.000 -0.000 -0.000
 -0.001  0.000  0.794 -0.007 -0.012
 -0.177 -0.000 -0.007  0.557  0.001
  0.000 -0.000 -0.012  0.001  0.813
atom   10   Tr[ns(na)] =   7.30998
    eigenvalues: 
  0.444  0.454  0.881  0.911  0.965
    eigenvectors:
  0.990  0.000  0.000  0.000  0.009
  0.000  0.001  0.000  0.999  0.000
  0.000  0.000  0.999  0.000  0.000
  0.009  0.000  0.000  0.000  0.991
  0.000  0.999  0.000  0.001  0.000
    occupations:
  0.449  0.000  0.007  0.050  0.000
  0.000  0.910 -0.001 -0.000 -0.013
  0.007 -0.001  0.881 -0.000  0.000
  0.050 -0.000 -0.000  0.960 -0.000
  0.000 -0.013  0.000 -0.000  0.454
atom   16   Tr[ns(na)] =   7.09477
    eigenvalues: 
  0.426  0.460  0.760  0.947  0.955
    eigenvectors:
  0.000  0.204  0.002  0.771  0.023
  0.997  0.003  0.000  0.000  0.000
  0.000  0.000  0.995  0.002  0.003
  0.002  0.794  0.000  0.198  0.006
  0.000  0.000  0.003  0.029  0.968
    occupations:
  0.847  0.001  0.008 -0.196  0.001
  0.001  0.426 -0.001 -0.002 -0.007
  0.008 -0.001  0.761 -0.005  0.010
 -0.196 -0.002 -0.005  0.559 -0.001
  0.001 -0.007  0.010 -0.001  0.954
atom   17   Tr[ns(na)] =   6.65749
    eigenvalues: 
  0.450  0.477  0.654  0.790  0.958
    eigenvectors:
  0.000  0.992  0.000  0.000  0.008
  0.000  0.000  0.024  0.975  0.000
  0.000  0.000  0.976  0.024  0.000
  0.000  0.008  0.000  0.000  0.992
  1.000  0.000  0.000  0.000  0.000
    occupations:
  0.480 -0.002 -0.001  0.043  0.000
 -0.002  0.787  0.021  0.001 -0.000
 -0.001  0.021  0.657 -0.001  0.000
  0.043  0.001 -0.001  0.954  0.000
  0.000 -0.000  0.000  0.000  0.450
atom   22   Tr[ns(na)] =   7.04494
    eigenvalues: 
  0.468  0.481  0.788  0.819  0.967
    eigenvectors:
  0.004  0.153  0.000  0.000  0.842
  0.977  0.023  0.000  0.000  0.000
  0.000  0.000  0.813  0.187  0.000
  0.019  0.823  0.000  0.000  0.158
  0.000  0.000  0.187  0.813  0.000
    occupations:
  0.890  0.003 -0.001 -0.177  0.000
  0.003  0.468  0.000  0.001 -0.000
 -0.001  0.000  0.794 -0.007  0.012
 -0.177  0.001 -0.007  0.557  0.000
  0.000 -0.000  0.012  0.000  0.813
atom   23   Tr[ns(na)] =   6.70142
    eigenvalues: 
  0.444  0.496  0.585  0.875  0.951
    eigenvectors:
  0.000  0.990  0.000  0.004  0.006
  0.005  0.000  0.995  0.000  0.000
  0.000  0.004  0.000  0.996  0.000
  0.000  0.006  0.000  0.000  0.994
  0.995  0.000  0.005  0.000  0.000
    occupations:
  0.500 -0.000  0.023  0.035  0.000
 -0.000  0.584 -0.001 -0.000 -0.010
  0.023 -0.001  0.873 -0.002  0.000
  0.035 -0.000 -0.002  0.948 -0.000
  0.000 -0.010  0.000 -0.000  0.445
N of occupied +U levels =  55.5863550
 --- exit write_ns ---

     negative rho (up, down):  0.665E+00 0.000E+00

     total cpu time spent up to now is      619.3 secs

     total energy              =   -2009.22263187 Ry
     Harris-Foulkes estimate   =   -2014.89351295 Ry
     estimated scf accuracy    <      13.27336381 Ry

     iteration #  2     ecut=    40.00 Ry     beta=0.30
     Davidson diagonalization with overlap
     ethr =  5.42E-03,  avg # of iterations =  2.0

     negative rho (up, down):  0.670E+00 0.000E+00

     total cpu time spent up to now is      861.8 secs

     total energy              =   -2007.37376091 Ry
     Harris-Foulkes estimate   =   -2013.88746026 Ry
     estimated scf accuracy    <      36.59770683 Ry

     iteration #  3     ecut=    40.00 Ry     beta=0.30
     Davidson diagonalization with overlap
     ethr =  5.42E-03,  avg # of iterations =  3.0

     negative rho (up, down):  0.674E+00 0.000E+00

     total cpu time spent up to now is     1124.7 secs

     total energy              =   -2006.38231216 Ry
     Harris-Foulkes estimate   =   -2016.88989134 Ry
     estimated scf accuracy    <     170.46649887 Ry

     iteration #  4     ecut=    40.00 Ry     beta=0.30
     Davidson diagonalization with overlap
     ethr =  5.42E-03,  avg # of iterations =  3.0

     negative rho (up, down):  0.678E+00 0.000E+00

     total cpu time spent up to now is     1387.3 secs

     total energy              =   -2012.14303164 Ry
     Harris-Foulkes estimate   =   -2013.20483630 Ry
     estimated scf accuracy    <       8.20913615 Ry

     iteration #  5     ecut=    40.00 Ry     beta=0.30
     Davidson diagonalization with overlap
     ethr =  3.35E-03,  avg # of iterations =  1.0

     negative rho (up, down):  0.681E+00 0.000E+00

     total cpu time spent up to now is     1629.9 secs

     total energy              =   -2012.40968544 Ry
     Harris-Foulkes estimate   =   -2012.55288739 Ry
     estimated scf accuracy    <       1.26001701 Ry

     iteration #  6     ecut=    40.00 Ry     beta=0.30
     Davidson diagonalization with overlap
     ethr =  5.14E-04,  avg # of iterations =  2.4

     negative rho (up, down):  0.683E+00 0.000E+00

     total cpu time spent up to now is     1874.6 secs

     total energy              =   -2012.39215865 Ry
     Harris-Foulkes estimate   =   -2012.46279884 Ry
     estimated scf accuracy    <       0.66916707 Ry

     iteration #  7     ecut=    40.00 Ry     beta=0.30
     Davidson diagonalization with overlap
     ethr =  2.73E-04,  avg # of iterations =  3.9

     negative rho (up, down):  0.687E+00 0.000E+00

     total cpu time spent up to now is     2133.1 secs

     total energy              =   -2012.40346247 Ry
     Harris-Foulkes estimate   =   -2012.44688628 Ry
     estimated scf accuracy    <       0.43572171 Ry

     iteration #  8     ecut=    40.00 Ry     beta=0.30
     Davidson diagonalization with overlap
     ethr =  1.78E-04,  avg # of iterations =  1.3

     negative rho (up, down):  0.688E+00 0.000E+00

     total cpu time spent up to now is     2379.1 secs

     total energy              =   -2012.43239733 Ry
     Harris-Foulkes estimate   =   -2012.46358058 Ry
     estimated scf accuracy    <       0.72571028 Ry

     iteration #  9     ecut=    40.00 Ry     beta=0.30
     Davidson diagonalization with overlap
     ethr =  1.78E-04,  avg # of iterations =  1.0

     negative rho (up, down):  0.689E+00 0.000E+00

     total cpu time spent up to now is     2622.4 secs

     total energy              =   -2012.40359098 Ry
     Harris-Foulkes estimate   =   -2012.46394261 Ry
     estimated scf accuracy    <       0.84970332 Ry

     iteration # 10     ecut=    40.00 Ry     beta=0.30
     Davidson diagonalization with overlap
     ethr =  1.78E-04,  avg # of iterations =  1.0

     negative rho (up, down):  0.691E+00 0.000E+00

     total cpu time spent up to now is     2863.5 secs

     total energy              =   -2012.43614485 Ry
     Harris-Foulkes estimate   =   -2012.44896476 Ry
     estimated scf accuracy    <       0.19100922 Ry

     iteration # 11     ecut=    40.00 Ry     beta=0.30
     Davidson diagonalization with overlap
     ethr =  7.80E-05,  avg # of iterations =  3.0

     negative rho (up, down):  0.691E+00 0.000E+00

     total cpu time spent up to now is     3109.6 secs

     total energy              =   -2012.43714029 Ry
     Harris-Foulkes estimate   =   -2012.44641741 Ry
     estimated scf accuracy    <       0.09467190 Ry

     iteration # 12     ecut=    40.00 Ry     beta=0.30
     Davidson diagonalization with overlap
     ethr =  3.86E-05,  avg # of iterations =  3.1

     negative rho (up, down):  0.691E+00 0.000E+00

     total cpu time spent up to now is     3369.1 secs

     total energy              =   -2012.43884791 Ry
     Harris-Foulkes estimate   =   -2012.44569090 Ry
     estimated scf accuracy    <       0.04162286 Ry

     iteration # 13     ecut=    40.00 Ry     beta=0.30
     Davidson diagonalization with overlap
     ethr =  1.70E-05,  avg # of iterations =  5.7

     negative rho (up, down):  0.692E+00 0.000E+00

     total cpu time spent up to now is     3630.9 secs

     total energy              =   -2012.44097298 Ry
     Harris-Foulkes estimate   =   -2012.44493218 Ry
     estimated scf accuracy    <       0.05192065 Ry

     iteration # 14     ecut=    40.00 Ry     beta=0.30
     Davidson diagonalization with overlap
     ethr =  1.70E-05,  avg # of iterations =  1.0

     negative rho (up, down):  0.692E+00 0.000E+00

     total cpu time spent up to now is     3879.0 secs

     total energy              =   -2012.44299405 Ry
     Harris-Foulkes estimate   =   -2012.44335581 Ry
     estimated scf accuracy    <       0.00285942 Ry

     iteration # 15     ecut=    40.00 Ry     beta=0.30
     Davidson diagonalization with overlap
     ethr =  1.17E-06,  avg # of iterations =  5.5

     negative rho (up, down):  0.692E+00 0.000E+00

     total cpu time spent up to now is     4143.5 secs

     total energy              =   -2012.44312968 Ry
     Harris-Foulkes estimate   =   -2012.44335294 Ry
     estimated scf accuracy    <       0.00226174 Ry

     iteration # 16     ecut=    40.00 Ry     beta=0.30
     Davidson diagonalization with overlap
     ethr =  9.23E-07,  avg # of iterations =  1.0

     negative rho (up, down):  0.692E+00 0.000E+00

     total cpu time spent up to now is     4382.8 secs

     total energy              =   -2012.44321632 Ry
     Harris-Foulkes estimate   =   -2012.44331662 Ry
     estimated scf accuracy    <       0.00090537 Ry

     iteration # 17     ecut=    40.00 Ry     beta=0.30
     Davidson diagonalization with overlap
     ethr =  3.70E-07,  avg # of iterations =  1.0

     negative rho (up, down):  0.692E+00 0.000E+00

     total cpu time spent up to now is     4624.9 secs

     total energy              =   -2012.44326318 Ry
     Harris-Foulkes estimate   =   -2012.44329385 Ry
     estimated scf accuracy    <       0.00027826 Ry

     iteration # 18     ecut=    40.00 Ry     beta=0.30
     Davidson diagonalization with overlap
     ethr =  1.14E-07,  avg # of iterations =  1.0

     negative rho (up, down):  0.692E+00 0.000E+00

     total cpu time spent up to now is     4862.0 secs

     total energy              =   -2012.44326313 Ry
     Harris-Foulkes estimate   =   -2012.44328817 Ry
     estimated scf accuracy    <       0.00015231 Ry

     iteration # 19     ecut=    40.00 Ry     beta=0.30
     Davidson diagonalization with overlap
     ethr =  6.22E-08,  avg # of iterations =  1.0

     negative rho (up, down):  0.692E+00 0.000E+00

     total cpu time spent up to now is     5096.9 secs

     total energy              =   -2012.44327019 Ry
     Harris-Foulkes estimate   =   -2012.44328130 Ry
     estimated scf accuracy    <       0.00013509 Ry

     iteration # 20     ecut=    40.00 Ry     beta=0.30
     Davidson diagonalization with overlap
     ethr =  5.51E-08,  avg # of iterations =  1.0

     negative rho (up, down):  0.692E+00 0.000E+00

     total cpu time spent up to now is     5338.0 secs

     total energy              =   -2012.44327563 Ry
     Harris-Foulkes estimate   =   -2012.44327956 Ry
     estimated scf accuracy    <       0.00002958 Ry

     iteration # 21     ecut=    40.00 Ry     beta=0.30
     Davidson diagonalization with overlap
     ethr =  1.21E-08,  avg # of iterations =  1.0

     negative rho (up, down):  0.692E+00 0.000E+00

     total cpu time spent up to now is     5582.0 secs

     total energy              =   -2012.44327564 Ry
     Harris-Foulkes estimate   =   -2012.44327912 Ry
     estimated scf accuracy    <       0.00004104 Ry

     iteration # 22     ecut=    40.00 Ry     beta=0.30
     Davidson diagonalization with overlap
     ethr =  1.21E-08,  avg # of iterations =  1.0

     negative rho (up, down):  0.692E+00 0.000E+00

     total cpu time spent up to now is     5826.7 secs

     total energy              =   -2012.44327602 Ry
     Harris-Foulkes estimate   =   -2012.44327856 Ry
     estimated scf accuracy    <       0.00002792 Ry

     iteration # 23     ecut=    40.00 Ry     beta=0.30
     Davidson diagonalization with overlap
     ethr =  1.14E-08,  avg # of iterations =  1.0

     negative rho (up, down):  0.692E+00 0.000E+00

     total cpu time spent up to now is     6069.6 secs

     total energy              =   -2012.44327630 Ry
     Harris-Foulkes estimate   =   -2012.44327852 Ry
     estimated scf accuracy    <       0.00002793 Ry

     iteration # 24     ecut=    40.00 Ry     beta=0.30
     Davidson diagonalization with overlap
     ethr =  1.14E-08,  avg # of iterations =  1.0

     negative rho (up, down):  0.692E+00 0.000E+00

     total cpu time spent up to now is     6316.1 secs

     total energy              =   -2012.44327716 Ry
     Harris-Foulkes estimate   =   -2012.44327791 Ry
     estimated scf accuracy    <       0.00000554 Ry

     iteration # 25     ecut=    40.00 Ry     beta=0.30
     Davidson diagonalization with overlap
     ethr =  2.26E-09,  avg # of iterations =  1.0

     negative rho (up, down):  0.692E+00 0.000E+00

     total cpu time spent up to now is     6562.1 secs

     total energy              =   -2012.44327738 Ry
     Harris-Foulkes estimate   =   -2012.44327775 Ry
     estimated scf accuracy    <       0.00000475 Ry

     iteration # 26     ecut=    40.00 Ry     beta=0.30
     Davidson diagonalization with overlap
     ethr =  1.94E-09,  avg # of iterations =  1.0

     negative rho (up, down):  0.692E+00 0.000E+00

     total cpu time spent up to now is     6803.4 secs

     total energy              =   -2012.44327752 Ry
     Harris-Foulkes estimate   =   -2012.44327766 Ry
     estimated scf accuracy    <       0.00000136 Ry

     iteration # 27     ecut=    40.00 Ry     beta=0.30
     Davidson diagonalization with overlap
     ethr =  5.53E-10,  avg # of iterations =  1.0

     negative rho (up, down):  0.692E+00 0.000E+00

     total cpu time spent up to now is     7053.4 secs

     End of self-consistent calculation
 --- enter write_ns ---
 LDA+U parameters:
U( 2)     =  3.00000000
alpha( 2) =  0.00000000
atom    3   Tr[ns(na)] =   8.02695
    eigenvalues: 
  0.587  0.608  0.891  0.955  0.972
    eigenvectors:
  0.016  0.185  0.003  0.000  0.796
  0.927  0.073  0.000  0.000  0.000
  0.000  0.000  0.988  0.010  0.003
  0.057  0.742  0.000  0.000  0.201
  0.000  0.000  0.009  0.990  0.001
    occupations:
  0.898 -0.005  0.002 -0.147 -0.001
 -0.005  0.589 -0.001 -0.004 -0.006
  0.002 -0.001  0.892 -0.005  0.006
 -0.147 -0.004 -0.005  0.680 -0.000
 -0.001 -0.006  0.006 -0.000  0.955
atom    4   Tr[ns(na)] =   8.02525
    eigenvalues: 
  0.600  0.649  0.871  0.916  0.976
    eigenvectors:
  0.001  0.992  0.000  0.000  0.007
  0.000  0.000  0.079  0.921  0.000
  0.000  0.000  0.921  0.079  0.000
  0.000  0.007  0.000  0.000  0.993
  0.999  0.001  0.000  0.000  0.000
    occupations:
  0.651 -0.004 -0.002  0.028  0.001
 -0.004  0.913  0.012  0.001 -0.000
 -0.002  0.012  0.875 -0.001  0.001
  0.028  0.001 -0.001  0.974  0.000
  0.001 -0.000  0.001  0.000  0.600
atom    9   Tr[ns(na)] =   8.01888
    eigenvalues: 
  0.638  0.648  0.854  0.892  0.978
    eigenvectors:
  0.002  0.149  0.000  0.000  0.848
  0.988  0.012  0.000  0.000  0.000
  0.000  0.000  0.981  0.018  0.000
  0.011  0.838  0.000  0.000  0.151
  0.000  0.000  0.018  0.982  0.000
    occupations:
  0.928 -0.001  0.000 -0.118 -0.001
 -0.001  0.638  0.000  0.002 -0.000
  0.000  0.000  0.854 -0.005 -0.005
 -0.118  0.002 -0.005  0.698  0.001
 -0.001 -0.000 -0.005  0.001  0.892
atom   10   Tr[ns(na)] =   8.01973
    eigenvalues: 
  0.594  0.600  0.916  0.924  0.976
    eigenvectors:
  0.000  0.991  0.001  0.000  0.009
  0.001  0.000  0.001  0.999  0.000
  0.000  0.001  0.999  0.001  0.000
  0.000  0.009  0.000  0.000  0.991
  0.999  0.000  0.000  0.001  0.000
    occupations:
  0.603  0.000  0.008  0.035 -0.000
  0.000  0.924 -0.000  0.000 -0.009
  0.008 -0.000  0.916  0.000  0.000
  0.035  0.000  0.000  0.973  0.000
 -0.000 -0.009  0.000  0.000  0.594
atom   16   Tr[ns(na)] =   8.02696
    eigenvalues: 
  0.587  0.608  0.891  0.955  0.972
    eigenvectors:
  0.015  0.186  0.003  0.000  0.796
  0.932  0.068  0.000  0.000  0.000
  0.000  0.000  0.992  0.005  0.003
  0.053  0.746  0.000  0.000  0.201
  0.000  0.000  0.005  0.994  0.001
    occupations:
  0.898  0.004  0.003 -0.147  0.001
  0.004  0.589 -0.000  0.004 -0.006
  0.003 -0.000  0.892 -0.004 -0.005
 -0.147  0.004 -0.004  0.680 -0.000
  0.001 -0.006 -0.005 -0.000  0.955
atom   17   Tr[ns(na)] =   8.02337
    eigenvalues: 
  0.601  0.650  0.868  0.917  0.977
    eigenvectors:
  0.001  0.992  0.000  0.000  0.008
  0.000  0.000  0.048  0.952  0.000
  0.000  0.000  0.952  0.048  0.000
  0.000  0.008  0.000  0.000  0.992
  0.999  0.001  0.000  0.000  0.000
    occupations:
  0.652 -0.004 -0.001  0.028  0.001
 -0.004  0.915  0.011  0.001 -0.001
 -0.001  0.011  0.870 -0.001  0.001
  0.028  0.001 -0.001  0.974  0.000
  0.001 -0.001  0.001  0.000  0.601
atom   22   Tr[ns(na)] =   8.01901
    eigenvalues: 
  0.638  0.648  0.854  0.892  0.978
    eigenvectors:
  0.000  0.151  0.001  0.000  0.849
  0.999  0.001  0.000  0.000  0.000
  0.000  0.000  0.983  0.016  0.000
  0.001  0.848  0.000  0.000  0.151
  0.000  0.000  0.016  0.984  0.000
    occupations:
  0.928  0.002  0.000 -0.118 -0.000
  0.002  0.638  0.001 -0.001 -0.000
  0.000  0.001  0.854 -0.005  0.005
 -0.118 -0.001 -0.005  0.698  0.000
 -0.000 -0.000  0.005  0.000  0.892
atom   23   Tr[ns(na)] =   8.03585
    eigenvalues: 
  0.600  0.634  0.860  0.949  0.974
    eigenvectors:
  0.000  0.994  0.000  0.003  0.003
  0.001  0.000  0.999  0.000  0.000
  0.000  0.003  0.000  0.996  0.001
  0.000  0.003  0.000  0.001  0.997
  0.999  0.000  0.001  0.000  0.000
    occupations:
  0.636 -0.000  0.018  0.018 -0.000
 -0.000  0.860 -0.001 -0.000 -0.010
  0.018 -0.001  0.948 -0.002  0.000
  0.018 -0.000 -0.002  0.973  0.000
 -0.000 -0.010  0.000  0.000  0.601
N of occupied +U levels =  64.1960003
 --- exit write_ns ---

          k = 0.0000 0.0000 0.0000 ( 30479 PWs)   bands (ev):

   -48.5527 -48.4619 -48.4530 -48.4480 -48.4091 -48.3880 -48.3615 -48.3470
   -48.3436 -48.3340 -48.3084 -48.2556 -48.2331 -48.2254 -48.1166 -48.1117
   -48.0918 -48.0732 -48.0410 -48.0345 -48.0226 -48.0132 -48.0078 -47.9703
   -24.0997 -20.9183 -20.5332 -20.4615 -20.3903 -19.9999 -19.7679 -19.7250
   -19.6870 -19.6452 -19.5713 -19.5261 -19.5034 -19.1897 -19.1300 -19.1093
   -19.0488 -18.4542 -18.2748 -17.5876  -9.6962  -9.6717  -9.3152  -9.1910
    -8.6461  -8.5449  -8.4939  -8.2733  -8.1449  -8.1113  -8.0586  -8.0262
    -7.9324  -7.8686  -7.7595  -7.6950  -7.6247  -7.4863  -7.4400  -7.3221
    -7.1337  -7.0060  -6.7199  -6.6727  -6.5629  -6.4310  -6.2338  -5.9567
    -5.9170  -5.8775  -5.7299  -5.7070  -5.6637  -5.3546  -5.2619  -5.1668
    -4.9884  -4.9007  -4.8767  -4.7342  -4.6622  -4.6456  -4.5287  -4.4492
    -4.3440  -4.2680  -4.1861  -4.1354  -4.0847  -4.0161  -3.9843  -3.9812
    -3.9640  -3.8993  -3.8883  -3.7943  -3.6952  -3.6243  -3.5742  -3.4758
    -3.4371  -3.3720  -3.3435  -3.1854  -3.1736  -3.0859  -2.8258  -2.7357
    -2.6621  -2.3833  -2.2641  -2.1274  -2.0349  -1.8969  -1.8686  -1.7850
    -1.4498  -1.3556  -1.3081  -1.1165  -0.9710  -0.7529  -0.6443  -0.6032
     0.1805   0.7672   0.7828   1.0098   1.0204   1.2082   1.3189   1.4779
     1.8829   1.9754   2.3993   2.5695   2.5748   2.8240   2.8645   3.0848
     3.5702   3.6609   4.0309   4.5754   4.9344   5.5269   6.0277   6.3522
     6.5684   6.8146   7.0158   7.1504   7.2371   7.3563   7.3700   7.5104
     7.5715   7.6967   7.7578   7.9330   7.9445   8.1568   8.2627   8.3113
     8.4767   8.4866   8.5537   8.7189   8.7688   8.8015   8.9483   9.1241
     9.1408   9.1714   9.3328   9.4942   9.5176   9.6866   9.7362   9.8284
     9.8514   9.9574  10.1916  10.2540  10.4412  10.4709  10.4904  10.5842
    10.8291  10.9263  10.9831  11.0224  11.0591  11.0796  11.1831  11.2916
    11.3563  11.4212  11.4904  11.5014  11.5690  11.5727  11.6792  11.7808
    11.8150  11.9359  11.9656  11.9845  12.1227  12.1826  12.2526  12.2813
    12.3867  12.3966  12.5099  12.5129  12.5360  12.6353  12.7552  12.8330
    12.8510  12.9138  12.9541  13.0312  13.0573  13.1420  13.2572  13.2967
    13.5612  13.6863  13.7069  13.7908  13.8639  13.8917  13.9361  13.9593
    14.2150  14.2841  14.3967  14.4268  14.6229  14.6494  14.7540  14.7904
    14.9226  15.1156  15.2093  15.2844  15.3313  15.5149  15.5443  15.6617
    15.7128  15.7378  15.7871  15.9649  16.0976  16.1321  16.2666  16.4292
    16.5328  16.5579  16.6639  16.7086  16.8892  16.9701  17.1157  17.1283
    17.1424  17.1928  17.3069  17.3378  17.3981  17.4675  17.6072  17.6891
    17.7602  17.9258  18.0000  18.1140  18.2410  18.3553  18.3904  18.4527
    18.4741  18.5064  18.5435  18.5829  18.6525  18.7074  18.8286  18.9011
    18.9521  18.9996  19.0198  19.0620  19.0928  19.1111  19.1940  19.2364
    19.3248  19.3333  19.4186  19.5492  19.5678  19.6062  19.7168  19.7512
    19.7757  19.8459  19.8702  19.9434  19.9835  20.0397  20.0849  20.1574
    20.2513  20.2821  20.3661  20.3839  20.4930  20.6211  20.6589  20.6972
    20.7966  20.8457  20.9217  20.9854  21.0805  21.1990  21.2093  21.2579
    21.3254  21.3921  21.5013  21.6054  21.6682  21.7380  21.7860  21.8152
    21.8673  21.9285  22.0514  22.0843  22.1060  22.1677  22.1908  22.2240
    22.2553  22.2775  22.3706  22.4249  22.4362  22.4733  22.5075  22.5269
    22.5402  22.6104  22.6294  22.6636  22.7023  22.7771  22.7971

          k = 0.0000 0.2417 0.0000 ( 30538 PWs)   bands (ev):

   -48.5535 -48.4615 -48.4527 -48.4484 -48.4091 -48.3880 -48.3616 -48.3471
   -48.3437 -48.3338 -48.3082 -48.2547 -48.2332 -48.2250 -48.1183 -48.1117
   -48.0916 -48.0736 -48.0411 -48.0345 -48.0227 -48.0133 -48.0079 -47.9704
   -24.0996 -20.8600 -20.4652 -20.4223 -20.3686 -19.9959 -19.8590 -19.8175
   -19.7999 -19.5455 -19.5161 -19.4817 -19.4473 -19.2645 -19.1880 -19.1801
   -19.0785 -18.4555 -18.2736 -17.5837  -9.3909  -9.3197  -9.2580  -9.1413
    -8.8495  -8.6212  -8.4947  -8.4398  -8.2976  -8.0569  -7.9783  -7.9766
    -7.8977  -7.8765  -7.6786  -7.6401  -7.6219  -7.4511  -7.3070  -7.2672
    -6.8153  -6.7669  -6.7014  -6.6405  -6.6249  -6.3509  -6.1928  -6.0145
    -5.9532  -5.9128  -5.8662  -5.7939  -5.7291  -5.4687  -5.3391  -5.2713
    -5.2331  -5.2173  -5.1602  -5.1002  -5.0154  -4.9226  -4.7261  -4.6135
    -4.4595  -4.3781  -4.2663  -4.1829  -4.1058  -4.0821  -3.9471  -3.8057
    -3.7645  -3.7057  -3.6031  -3.5810  -3.5471  -3.4929  -3.4333  -3.3712
    -3.2259  -3.1901  -3.1422  -3.0809  -3.0135  -2.9789  -2.8880  -2.8390
    -2.7942  -2.6898  -2.6285  -2.4185  -2.0566  -1.9021  -1.8382  -1.6135
    -1.4246  -1.3638  -1.1967  -1.0596  -0.8912  -0.8181  -0.7718  -0.4078
     0.0345   0.1111   0.4272   0.7968   1.0992   1.5094   1.7864   1.9716
     2.2336   2.3765   2.3947   2.4034   2.4450   2.7207   2.8275   3.1614
     3.7018   3.8600   4.2531   4.7803   5.1663   5.4265   5.6918   5.8896
     6.1145   6.3341   6.6466   6.7980   6.9778   7.2138   7.4323   7.4965
     7.5590   7.6641   7.9388   8.0096   8.1326   8.1576   8.3310   8.4058
     8.5145   8.6809   8.7716   8.8463   8.9513   9.1146   9.1570   9.2423
     9.2866   9.3982   9.5732   9.6006   9.6597   9.6838   9.7842   9.8063
     9.9169   9.9344   9.9552  10.0537  10.1558  10.2706  10.3223  10.3792
    10.3995  10.5668  10.7371  10.8223  10.9867  10.9979  11.0592  11.1609
    11.2410  11.2846  11.3336  11.3497  11.4094  11.5245  11.6639  11.8659
    11.9901  12.1098  12.2396  12.2829  12.3441  12.4385  12.5036  12.6056
    12.6600  12.7179  12.8168  12.8593  12.8963  13.0083  13.0417  13.2180
    13.2751  13.3648  13.4593  13.4714  13.4951  13.6030  13.6703  13.7083
    13.7211  13.8909  13.9411  14.0751  14.1339  14.1877  14.2768  14.2948
    14.3680  14.4042  14.4712  14.4918  14.5351  14.6404  14.8738  14.9074
    14.9359  14.9597  14.9870  15.1917  15.2576  15.3172  15.4196  15.5793
    15.5914  15.6555  15.7384  15.7898  15.8696  15.9146  16.0895  16.1663
    16.1816  16.3120  16.3662  16.4912  16.6321  16.6407  16.6979  16.7948
    16.8273  16.9701  16.9866  17.1901  17.2659  17.2967  17.3618  17.4009
    17.5195  17.6173  17.6698  17.7969  17.9024  17.9312  17.9807  18.0858
    18.1426  18.3877  18.4477  18.5104  18.5708  18.6090  18.6674  18.6886
    18.7646  18.8153  18.8581  18.9123  18.9541  18.9876  19.0278  19.0900
    19.1329  19.2513  19.2997  19.3088  19.4259  19.4670  19.5351  19.5641
    19.6039  19.7242  19.7631  19.7997  19.8481  19.9020  20.0035  20.0602
    20.1025  20.1853  20.2137  20.2513  20.3043  20.3655  20.3701  20.4521
    20.5404  20.5927  20.6515  20.7295  20.8051  20.8480  20.9478  21.0424
    21.0711  21.1044  21.1267  21.1587  21.1801  21.2503  21.3043  21.3577
    21.4543  21.4944  21.5979  21.6465  21.6975  21.7512  21.7978  21.8729
    21.9249  21.9649  22.0901  22.1408  22.1870  22.2489  22.2951  22.3526
    22.4126  22.4715  22.5159  22.6080  22.6735  22.6905  22.7171

          k = 0.0000-0.4833 0.0000 ( 30492 PWs)   bands (ev):

   -48.5541 -48.4610 -48.4522 -48.4486 -48.4091 -48.3880 -48.3615 -48.3470
   -48.3437 -48.3336 -48.3078 -48.2537 -48.2333 -48.2244 -48.1199 -48.1113
   -48.0912 -48.0740 -48.0411 -48.0344 -48.0227 -48.0132 -48.0079 -47.9704
   -24.0995 -20.7989 -20.4380 -20.3856 -20.2484 -19.9752 -19.9294 -19.8908
   -19.8853 -19.5451 -19.5247 -19.4170 -19.4054 -19.3764 -19.2841 -19.1852
   -19.0806 -18.4569 -18.2730 -17.5798  -9.3047  -9.1942  -9.0288  -8.8050
    -8.7796  -8.6869  -8.6355  -8.4897  -8.3294  -7.9565  -7.9232  -7.8866
    -7.8117  -7.6482  -7.6444  -7.6133  -7.6065  -7.4602  -7.3384  -7.2462
    -6.9040  -6.7873  -6.7002  -6.6987  -6.5933  -6.4704  -6.4278  -6.0559
    -6.0306  -5.9208  -5.9000  -5.7502  -5.7196  -5.6059  -5.5697  -5.5169
    -5.5111  -5.3671  -5.1452  -5.0940  -5.0546  -4.8499  -4.7006  -4.6759
    -4.5111  -4.4803  -4.3145  -4.2449  -4.2079  -3.9806  -3.8187  -3.7804
    -3.7664  -3.6804  -3.6408  -3.5830  -3.5615  -3.4551  -3.4526  -3.4254
    -3.1892  -3.1720  -3.1579  -3.1041  -2.9985  -2.9291  -2.8740  -2.7159
    -2.7025  -2.6089  -2.5640  -2.3441  -2.0296  -1.8413  -1.7929  -1.6679
    -1.5772  -1.4604  -1.3693  -0.9971  -0.8173  -0.7967  -0.7603  -0.3939
    -0.3516  -0.2579   0.6915   0.8219   1.3321   1.5848   1.9646   2.0944
     2.2088   2.2181   2.3161   2.4914   2.7185   2.8161   2.8562   3.2289
     3.8405   4.4064   4.6921   4.8175   4.9454   5.1519   5.4131   5.6482
     5.7184   6.1869   6.3153   6.8512   7.0034   7.1362   7.1729   7.2669
     7.8191   7.8503   7.8874   8.0281   8.0448   8.1370   8.3781   8.4227
     8.5847   8.7396   8.7772   8.8596   8.8902   9.0465   9.1672   9.1689
     9.2080   9.3375   9.4025   9.4640   9.4973   9.5471   9.6276   9.7530
     9.9131   9.9657  10.0673  10.1145  10.1693  10.1944  10.3725  10.5365
    10.7427  10.8040  10.8328  10.8694  10.9623  11.0782  11.2564  11.5084
    11.5179  11.5542  11.5959  11.6793  11.7004  11.7773  11.7832  11.8589
    11.9802  12.1384  12.1818  12.2327  12.3759  12.5421  12.6076  12.6356
    12.6685  12.7863  12.8704  12.9581  13.0630  13.1646  13.1769  13.3305
    13.3697  13.3786  13.4159  13.4685  13.5223  13.6635  13.7323  13.8236
    13.8439  13.9184  14.1671  14.2279  14.2445  14.2731  14.3719  14.4713
    14.4731  14.5976  14.7574  14.8383  14.8902  14.9643  15.0576  15.1502
    15.2870  15.3194  15.4119  15.4247  15.5089  15.5847  15.5899  15.6005
    15.7842  15.8087  15.8403  15.8706  15.8952  15.9990  16.0132  16.1022
    16.1454  16.1653  16.2314  16.2415  16.3004  16.3840  16.4978  16.5744
    16.6553  16.6711  16.7277  16.7507  16.8989  16.9205  17.0398  17.1500
    17.1520  17.3301  17.4561  17.5744  17.6951  17.6980  17.7646  17.8441
    17.8658  17.9013  17.9515  18.0753  18.0969  18.1427  18.2026  18.2190
    18.2751  18.2995  18.3920  18.4226  18.5107  18.6420  18.7668  18.7748
    18.8299  18.8981  18.9206  19.0650  19.1447  19.2177  19.2431  19.3053
    19.3606  19.5433  19.6094  19.6294  19.7481  19.7627  19.8407  19.9984
    20.1517  20.2357  20.2580  20.2729  20.2956  20.3360  20.3571  20.3979
    20.4342  20.4548  20.4706  20.4885  20.5229  20.6145  20.6867  20.7140
    20.7727  20.8414  20.9101  20.9374  20.9666  21.0530  21.0828  21.1122
    21.1551  21.2032  21.3789  21.4581  21.5063  21.5404  21.6196  21.6605
    21.6840  21.7250  21.8065  21.9050  21.9506  22.0170  22.0895  22.1913
    22.3051  22.3283  22.3971  22.4646  22.5302  22.5486  22.7655

          k = 0.2500 0.0000 0.0000 ( 30502 PWs)   bands (ev):

   -48.5468 -48.4607 -48.4545 -48.4328 -48.4091 -48.3877 -48.3623 -48.3474
   -48.3438 -48.3326 -48.3162 -48.2562 -48.2510 -48.2272 -48.1159 -48.1125
   -48.0775 -48.0723 -48.0383 -48.0354 -48.0254 -48.0152 -48.0097 -47.9828
   -24.0997 -20.8185 -20.4746 -20.4209 -20.3151 -20.0580 -19.8481 -19.7906
   -19.6950 -19.5856 -19.5179 -19.4980 -19.4531 -19.2185 -19.2098 -19.1506
   -19.1036 -18.4979 -18.3382 -17.5877  -9.4761  -9.4461  -9.2653  -9.0636
    -8.6323  -8.4122  -8.3867  -8.2516  -8.1891  -8.1456  -8.1005  -8.0106
    -7.9830  -7.9357  -7.8609  -7.6830  -7.5335  -7.4218  -7.3291  -7.1985
    -7.0812  -6.9251  -6.8308  -6.6848  -6.5363  -6.4596  -6.3817  -6.1079
    -5.8853  -5.7976  -5.7505  -5.6727  -5.6528  -5.5915  -5.5453  -5.3739
    -5.2481  -5.2337  -5.1599  -4.9467  -4.8911  -4.8451  -4.6985  -4.6685
    -4.5905  -4.5067  -4.3423  -4.3307  -4.2246  -4.1748  -4.1340  -4.0462
    -4.0051  -3.7951  -3.6453  -3.5593  -3.5169  -3.4586  -3.3936  -3.3631
    -3.3124  -3.1555  -3.0236  -2.9319  -2.8427  -2.7611  -2.6236  -2.5275
    -2.4648  -2.2696  -2.0609  -2.0421  -1.9992  -1.9118  -1.7442  -1.6213
    -1.5767  -1.4423  -1.3389  -1.2745  -1.1026  -0.9263  -0.7346  -0.4891
     0.3045   0.8796   0.8936   1.1534   1.1602   1.2083   1.3258   1.5117
     1.6106   1.9659   2.2385   2.2503   2.3493   2.3689   2.8026   3.2039
     3.7492   3.9064   4.2817   4.8292   5.1042   5.4106   5.7945   6.0178
     6.2361   6.3518   6.7114   6.8428   7.0062   7.2198   7.3601   7.4910
     7.6179   7.7681   7.8872   7.9127   7.9908   8.2977   8.3682   8.4591
     8.5074   8.6427   8.7203   8.9040   8.9840   9.0700   9.1388   9.2397
     9.2971   9.3851   9.4682   9.5589   9.6032   9.6542   9.7059   9.8291
     9.8545   9.9342  10.0535  10.1180  10.2078  10.2722  10.3102  10.4343
    10.4662  10.6404  10.7745  10.8734  10.9581  11.1034  11.1483  11.1894
    11.2451  11.2977  11.3528  11.4166  11.4832  11.5984  11.6922  11.7785
    11.9011  12.0169  12.1293  12.1941  12.2798  12.3677  12.4121  12.5708
    12.5848  12.6774  12.7253  12.7736  12.8474  12.9894  13.0550  13.1114
    13.3051  13.3497  13.4216  13.5015  13.6338  13.6885  13.7669  13.7818
    13.8809  13.9457  14.0322  14.0529  14.1097  14.1664  14.2158  14.3429
    14.3719  14.4130  14.4620  14.5505  14.6292  14.7257  14.8213  14.9926
    15.0497  15.2591  15.2748  15.3351  15.4233  15.5017  15.6011  15.6710
    15.7040  15.7740  15.8434  15.9168  15.9730  16.0464  16.1047  16.1492
    16.2257  16.3135  16.3553  16.4299  16.5104  16.5603  16.6375  16.7484
    16.7930  16.8910  17.0216  17.0724  17.1517  17.2666  17.3926  17.4234
    17.5113  17.5401  17.5950  17.6721  17.7720  17.8049  17.8962  18.0415
    18.2063  18.2875  18.2952  18.3876  18.4831  18.6303  18.6496  18.6879
    18.7771  18.8241  18.8677  18.9482  18.9750  19.1211  19.1903  19.2153
    19.2371  19.2609  19.3380  19.3532  19.4389  19.4816  19.5026  19.5388
    19.6026  19.6220  19.7180  19.7829  19.8158  19.8322  19.9591  20.0407
    20.0594  20.1206  20.1636  20.2430  20.2664  20.3678  20.4138  20.4734
    20.5120  20.5450  20.5873  20.6501  20.6672  20.7286  20.7540  20.8028
    20.8602  20.9737  21.0375  21.0750  21.0987  21.1506  21.2284  21.2707
    21.3666  21.4410  21.4733  21.5185  21.5813  21.6189  21.6894  21.7522
    21.8071  21.9326  21.9783  22.0024  22.0608  22.0875  22.1844  22.2375
    22.2972  22.3351  22.4200  22.5259  22.5484  22.5939  22.6809

          k = 0.2500 0.2417 0.0000 ( 30481 PWs)   bands (ev):

   -48.5474 -48.4604 -48.4540 -48.4329 -48.4091 -48.3878 -48.3623 -48.3475
   -48.3438 -48.3324 -48.3158 -48.2552 -48.2511 -48.2265 -48.1174 -48.1125
   -48.0772 -48.0725 -48.0384 -48.0354 -48.0254 -48.0152 -48.0097 -47.9828
   -24.0996 -20.7717 -20.4648 -20.3448 -20.2646 -20.0471 -19.8510 -19.8105
   -19.7233 -19.6181 -19.5117 -19.4791 -19.4624 -19.3305 -19.2478 -19.2153
   -19.0994 -18.4999 -18.3369 -17.5840  -9.2512  -9.1743  -9.0964  -8.9750
    -8.7365  -8.4285  -8.3926  -8.2581  -8.1901  -8.1028  -8.0238  -7.9818
    -7.9384  -7.8870  -7.8513  -7.6590  -7.5123  -7.4226  -7.3352  -7.1398
    -6.8892  -6.8839  -6.7408  -6.6880  -6.5200  -6.4672  -6.2925  -6.1962
    -6.0954  -5.9268  -5.8446  -5.7946  -5.7213  -5.6700  -5.5904  -5.5581
    -5.4872  -5.4001  -5.3148  -5.2391  -5.1259  -5.0759  -4.9476  -4.8375
    -4.6285  -4.5115  -4.4152  -4.2955  -4.2075  -4.1645  -4.0727  -3.9928
    -3.8758  -3.7663  -3.6085  -3.5411  -3.3901  -3.3302  -3.2623  -3.1454
    -3.0391  -2.9457  -2.8595  -2.7847  -2.7314  -2.7210  -2.6111  -2.5481
    -2.4819  -2.4527  -2.4214  -2.3291  -2.0527  -1.8140  -1.6368  -1.6142
    -1.4905  -1.4539  -1.2953  -1.2004  -1.0778  -0.9818  -0.9051  -0.3110
     0.2582   0.3264   0.5377   0.9195   1.1211   1.4396   1.5776   1.8266
     1.9510   2.1040   2.1656   2.3065   2.3845   2.4774   2.7516   3.2551
     3.8377   4.1653   4.4994   5.0283   5.2548   5.5451   5.9005   5.9726
     5.9888   6.2515   6.3645   6.5308   6.6092   6.9114   6.9508   7.2574
     7.4372   7.5412   7.7104   7.8383   7.8898   8.2025   8.2347   8.2870
     8.3911   8.4534   8.7016   8.8023   8.8865   8.9889   9.1221   9.2020
     9.3096   9.3893   9.4845   9.6016   9.7688   9.8540   9.9260   9.9771
    10.0924  10.1824  10.2911  10.3486  10.4538  10.5103  10.5730  10.6862
    10.8139  10.9037  11.0173  11.1079  11.1809  11.2416  11.3182  11.3994
    11.4677  11.5602  11.6627  11.7227  11.7550  11.7833  11.8537  11.9516
    11.9838  12.1447  12.2420  12.3215  12.3439  12.4717  12.5091  12.5677
    12.6347  12.6925  12.8052  12.8705  12.9280  12.9663  13.0537  13.1882
    13.2543  13.3985  13.4398  13.5494  13.6376  13.6666  13.7768  13.8461
    13.9091  13.9892  14.0530  14.1414  14.2410  14.3239  14.3839  14.4153
    14.4853  14.5084  14.5751  14.7100  14.7664  14.8005  14.9586  15.0294
    15.1276  15.1678  15.2637  15.3221  15.4504  15.4969  15.5500  15.6050
    15.7007  15.7356  15.8024  15.8501  15.9492  15.9853  16.0214  16.0883
    16.1589  16.2237  16.3337  16.4087  16.4548  16.4991  16.5302  16.6139
    16.6445  16.7115  16.7668  16.8649  16.9094  17.0309  17.0590  17.1650
    17.1883  17.2543  17.2831  17.3950  17.4369  17.5053  17.5645  17.6332
    17.6962  17.7486  17.8059  17.9018  17.9562  17.9980  18.0685  18.0867
    18.1830  18.2366  18.3434  18.3686  18.4972  18.6001  18.6550  18.7191
    18.8581  18.9027  18.9732  19.0132  19.0593  19.1469  19.2166  19.2691
    19.3373  19.3942  19.4872  19.5845  19.6323  19.6806  19.7650  19.8927
    19.9480  19.9961  20.0642  20.1247  20.2375  20.3222  20.3728  20.4615
    20.5581  20.6388  20.7016  20.7368  20.7745  20.9010  20.9482  21.0096
    21.0827  21.1065  21.1778  21.2487  21.2893  21.3356  21.3927  21.4464
    21.5392  21.5870  21.6871  21.7009  21.7410  21.7994  21.8292  21.9100
    22.0162  22.0643  22.0978  22.1805  22.2933  22.3588  22.4137  22.4372
    22.5281  22.5781  22.6487  22.7261  22.7984  22.8779  22.9134

          k = 0.2500-0.4833 0.0000 ( 30510 PWs)   bands (ev):

   -48.5480 -48.4601 -48.4536 -48.4332 -48.4091 -48.3877 -48.3622 -48.3473
   -48.3438 -48.3324 -48.3155 -48.2545 -48.2511 -48.2258 -48.1188 -48.1127
   -48.0770 -48.0729 -48.0385 -48.0355 -48.0253 -48.0152 -48.0098 -47.9827
   -24.0995 -20.7253 -20.4567 -20.2698 -20.1662 -20.0015 -19.8429 -19.8383
   -19.8123 -19.6454 -19.5199 -19.5006 -19.4674 -19.4409 -19.3259 -19.2142
   -19.0975 -18.5021 -18.3361 -17.5802  -9.2265  -9.0825  -8.8249  -8.5847
    -8.5409  -8.4509  -8.3985  -8.3831  -8.1853  -7.9908  -7.9583  -7.9364
    -7.8426  -7.8245  -7.7396  -7.6797  -7.4621  -7.3959  -7.3270  -7.1613
    -6.8861  -6.8698  -6.7804  -6.6789  -6.5714  -6.4328  -6.3698  -6.3111
    -6.2483  -6.2309  -6.0692  -5.9703  -5.9082  -5.8264  -5.7312  -5.6519
    -5.5858  -5.4828  -5.4249  -5.3532  -5.1975  -5.1513  -5.0273  -4.8223
    -4.6886  -4.5153  -4.4707  -4.3238  -4.2109  -4.0829  -3.9911  -3.8871
    -3.7958  -3.6877  -3.6165  -3.5106  -3.3129  -3.2285  -3.2152  -3.1266
    -3.0191  -2.9521  -2.8326  -2.7983  -2.7405  -2.7103  -2.6188  -2.5535
    -2.4280  -2.4121  -2.2304  -2.1924  -1.9731  -1.7664  -1.7281  -1.6164
    -1.5638  -1.5055  -1.4566  -1.1316  -1.0194  -0.9591  -0.9474  -0.2146
    -0.1497  -0.1102   0.7255   0.9463   1.3111   1.4122   1.6523   1.6969
     1.7617   2.2746   2.3342   2.3552   2.5810   2.6150   2.7616   3.2954
     3.9984   4.6772   4.9230   5.0700   5.1898   5.3950   5.5263   5.7312
     5.9398   6.2817   6.3093   6.5043   6.7500   6.8408   6.9113   7.1185
     7.1636   7.2417   7.3919   7.4649   7.6060   7.8212   7.9903   8.2102
     8.2747   8.4434   8.5113   8.5814   8.7352   8.8192   9.0677   9.1909
     9.3404   9.3943   9.4235   9.6863   9.7941   9.9863  10.1344  10.2165
    10.2855  10.3336  10.4533  10.6027  10.7370  10.8903  10.9663  11.0421
    11.1208  11.2365  11.2457  11.4297  11.4417  11.5038  11.5638  11.7347
    11.7627  11.7720  11.8067  11.8632  11.9471  12.0008  12.1152  12.1660
    12.2879  12.3636  12.4029  12.4504  12.5303  12.6250  12.6819  12.7731
    12.8646  12.9417  12.9790  13.0738  13.1187  13.1526  13.2293  13.3053
    13.3946  13.4490  13.5036  13.5761  13.6247  13.6600  13.7300  13.8250
    13.8908  13.9705  14.0987  14.1602  14.2030  14.2486  14.2932  14.3058
    14.3385  14.4619  14.5334  14.5875  14.6748  14.7072  14.7562  14.7885
    14.9075  15.0280  15.0628  15.1253  15.1658  15.1845  15.2500  15.3471
    15.4358  15.5412  15.5995  15.7116  15.7349  15.8206  15.8818  15.9620
    16.0945  16.1690  16.2736  16.3060  16.3607  16.4166  16.4344  16.5044
    16.5239  16.6152  16.7218  16.7635  16.7971  16.8901  16.9478  17.0215
    17.1201  17.1546  17.2075  17.2693  17.3117  17.3368  17.4143  17.4638
    17.5214  17.5721  17.6955  17.8462  17.8830  18.0176  18.0357  18.0847
    18.1382  18.1660  18.2210  18.2727  18.3324  18.4040  18.4864  18.5563
    18.6110  18.6684  18.6924  18.7095  18.7686  18.8335  18.9318  18.9718
    19.0711  19.2076  19.2496  19.3106  19.4489  19.4809  19.5283  19.5594
    19.6571  19.7410  19.8110  19.8192  19.8565  19.9654  20.0035  20.1330
    20.2442  20.2812  20.3553  20.4874  20.5150  20.5551  20.7121  20.7772
    20.8773  20.9171  20.9384  21.0538  21.1170  21.2273  21.2873  21.3144
    21.4660  21.4959  21.6787  21.7352  21.7999  21.8830  21.9674  22.0458
    22.0835  22.1597  22.1907  22.2299  22.3186  22.4017  22.4601  22.5273
    22.6025  22.7651  22.8605  22.9270  22.9590  23.0259  23.1304

          k =-0.5000 0.0000 0.0000 ( 30524 PWs)   bands (ev):

   -48.5403 -48.4584 -48.4570 -48.4091 -48.4022 -48.3906 -48.3806 -48.3566
   -48.3438 -48.3247 -48.2938 -48.2923 -48.2563 -48.2289 -48.1146 -48.1139
   -48.0713 -48.0461 -48.0396 -48.0365 -48.0326 -48.0311 -48.0028 -47.9988
   -24.0997 -20.6152 -20.5883 -20.2263 -20.1861 -20.0747 -20.0641 -19.9865
   -19.5755 -19.5543 -19.4043 -19.4021 -19.3382 -19.3342 -19.3207 -19.3041
   -19.1305 -18.5279 -18.4186 -17.5879  -9.2554  -8.9197  -8.8879  -8.8578
    -8.8395  -8.7389  -8.6978  -8.2476  -8.2172  -8.1430  -8.0852  -8.0454
    -7.9738  -7.8157  -7.7733  -7.6695  -7.5001  -7.4437  -7.3167  -7.1519
    -7.0612  -6.5872  -6.5735  -6.4699  -6.4047  -6.3765  -6.2949  -6.2383
    -6.1729  -6.1239  -6.0070  -5.9830  -5.8769  -5.7839  -5.7709  -5.6070
    -5.3978  -5.3001  -5.2457  -5.2280  -5.1901  -5.1511  -4.9942  -4.7531
    -4.7203  -4.5815  -4.5541  -4.2666  -4.2120  -4.1625  -4.1189  -3.9768
    -3.8661  -3.8582  -3.5137  -3.4153  -3.3990  -3.3503  -3.2480  -3.2413
    -3.1262  -3.1103  -2.8662  -2.8324  -2.8094  -2.4760  -2.4426  -2.2986
    -2.1878  -2.0934  -1.9769  -1.9661  -1.8473  -1.8415  -1.6551  -1.6077
    -1.5949  -1.4212  -1.4178  -1.3504  -1.2790  -1.1024  -1.0244  -0.3457
     0.5371   0.9739   1.0089   1.1939   1.2791   1.5526   1.5575   1.5978
     1.6075   1.6185   1.6307   1.6315   2.0681   2.4765   2.5106   3.3112
     4.0568   4.5471   4.6898   4.7023   5.0083   5.0430   5.5113   5.5644
     5.9781   6.1894   6.6030   6.9160   7.0796   7.1161   7.4359   7.5151
     7.5714   7.9080   8.0002   8.0760   8.2184   8.3318   8.3617   8.4681
     8.4776   8.5932   8.6117   8.6978   8.7160   8.7569   9.0464   9.1275
     9.2218   9.2617   9.3385   9.5467   9.6262   9.6802   9.8227   9.8562
     9.9672  10.0734  10.0798  10.1976  10.2480  10.3187  10.4274  10.4476
    10.5387  10.5889  10.7035  10.7727  10.8087  10.9843  11.0232  11.1229
    11.3923  11.5229  11.6748  11.7837  11.9090  11.9751  11.9808  12.0970
    12.1805  12.2000  12.2154  12.3706  12.5064  12.5209  12.6230  12.6935
    12.7856  12.8542  12.8794  12.9404  12.9953  13.0564  13.2115  13.2526
    13.3962  13.4578  13.5064  13.5699  13.6538  13.7335  13.8852  13.8920
    14.0733  14.1812  14.2473  14.2722  14.3595  14.3866  14.4310  14.5102
    14.6081  14.6142  14.6989  14.7657  14.8468  14.8756  15.0310  15.1595
    15.1860  15.2428  15.2714  15.3396  15.3833  15.4907  15.5575  15.7389
    15.7810  15.8818  15.9217  15.9992  16.0909  16.2165  16.2633  16.3311
    16.3529  16.3616  16.4014  16.4170  16.4353  16.5012  16.5605  16.6614
    16.6827  16.7186  16.7515  16.7790  16.8221  16.8927  16.9184  16.9950
    17.2093  17.2835  17.2979  17.3785  17.4228  17.4991  17.5737  17.7190
    17.7371  17.8107  17.9616  17.9642  18.0480  18.1449  18.1931  18.4009
    18.4371  18.5032  18.5441  18.6010  18.6494  18.7228  18.8219  18.8375
    18.9709  19.0554  19.0940  19.1459  19.2017  19.2121  19.2984  19.3161
    19.3910  19.4164  19.4418  19.4768  19.5725  19.6376  19.7005  19.7195
    19.7724  19.8710  20.0121  20.0195  20.0410  20.0683  20.1321  20.1590
    20.2290  20.2958  20.3419  20.3604  20.4291  20.5141  20.5571  20.5953
    20.6382  20.6938  20.9238  20.9298  20.9687  21.0081  21.0426  21.1693
    21.2156  21.2565  21.2907  21.3087  21.3703  21.4139  21.4669  21.4969
    21.5218  21.6472  21.6924  21.8364  21.9152  21.9241  21.9894  22.0875
    22.1320  22.2260  22.2472  22.2856  22.3999  22.4535  22.5755

          k =-0.5000 0.2417 0.0000 ( 30500 PWs)   bands (ev):

   -48.5409 -48.4581 -48.4565 -48.4092 -48.4023 -48.3908 -48.3807 -48.3566
   -48.3438 -48.3242 -48.2939 -48.2923 -48.2555 -48.2280 -48.1153 -48.1146
   -48.0715 -48.0460 -48.0395 -48.0367 -48.0326 -48.0311 -48.0028 -47.9988
   -24.0996 -20.6000 -20.5650 -20.1843 -20.1102 -20.0105 -19.9941 -19.9478
   -19.6215 -19.5897 -19.4831 -19.4709 -19.4450 -19.4398 -19.3150 -19.2937
   -19.1208 -18.5300 -18.4173 -17.5842  -9.2353  -8.7613  -8.7271  -8.5902
    -8.5539  -8.5202  -8.5145  -8.2308  -8.2050  -8.1508  -8.0741  -7.9764
    -7.9469  -7.8348  -7.7660  -7.6759  -7.5415  -7.5005  -7.3295  -6.9830
    -6.9056  -6.7722  -6.7465  -6.7081  -6.6563  -6.5651  -6.4777  -6.3227
    -6.1878  -6.1596  -6.0500  -6.0132  -5.9170  -5.7885  -5.7634  -5.5763
    -5.5333  -5.4370  -5.3765  -5.2398  -5.2076  -5.1875  -5.1192  -5.0179
    -4.8894  -4.6466  -4.5881  -4.4499  -4.4268  -4.2266  -4.1716  -3.9875
    -3.9020  -3.8606  -3.5709  -3.3559  -3.2676  -3.2188  -2.9284  -2.8412
    -2.8119  -2.7901  -2.7333  -2.7061  -2.6269  -2.5738  -2.5087  -2.3852
    -2.3030  -2.1959  -2.0271  -1.8666  -1.8441  -1.7906  -1.6933  -1.6171
    -1.5310  -1.4459  -1.4229  -1.3837  -1.3288  -1.1724  -1.1561  -0.2173
     0.6144   0.8598   0.8900   0.9018   0.9975   1.2335   1.2996   1.3882
     1.6132   1.9032   2.0086   2.1512   2.1831   2.5648   2.6157   3.3291
     4.1480   4.7484   4.9090   4.9261   5.2167   5.2516   5.7035   5.7458
     6.1511   6.2558   6.4900   6.5674   6.6484   6.7336   6.9216   7.0788
     7.1291   7.3201   7.3519   7.4932   7.6319   7.6874   8.0303   8.1835
     8.2817   8.5027   8.5612   8.7049   8.9140   8.9468   9.0405   9.0880
     9.3875   9.4974   9.6012   9.8009   9.9863  10.0316  10.1438  10.1772
    10.2115  10.3024  10.4208  10.4674  10.6209  10.6332  10.7420  10.7942
    10.8914  11.1122  11.1346  11.1608  11.2557  11.2628  11.4099  11.5566
    11.7187  11.8375  11.9043  11.9903  12.0448  12.0795  12.2107  12.2441
    12.4258  12.4468  12.4612  12.5554  12.6033  12.6504  12.8629  12.8996
    12.9418  12.9912  13.0167  13.0798  13.2284  13.2495  13.2816  13.3149
    13.5217  13.5586  13.6149  13.7510  13.7661  13.8418  13.8984  13.9382
    14.0719  14.1290  14.1956  14.2588  14.3170  14.3648  14.3985  14.4712
    14.5597  14.5879  14.6270  14.6867  14.7686  14.8010  14.8277  14.8514
    14.9805  15.0322  15.0798  15.1220  15.1611  15.2405  15.2709  15.3196
    15.3981  15.4162  15.5417  15.5790  15.5935  15.6342  15.7800  15.8063
    15.9299  15.9631  16.0526  16.1467  16.2062  16.2926  16.3189  16.4076
    16.4906  16.5283  16.5473  16.6266  16.6402  16.7012  16.8259  16.8488
    17.0416  17.0914  17.1257  17.1448  17.2327  17.2829  17.3821  17.4221
    17.5318  17.5856  17.7753  17.8192  17.8441  17.8706  17.9708  18.0167
    18.0392  18.1555  18.3035  18.3898  18.4115  18.4554  18.5494  18.5644
    18.6246  18.7033  18.7721  18.7894  18.8037  18.9314  19.0046  19.0620
    19.1936  19.2415  19.2949  19.3137  19.4680  19.5466  19.5646  19.6214
    19.6891  19.7332  19.8305  19.8558  19.8688  20.0073  20.1267  20.1796
    20.2606  20.3110  20.4313  20.4745  20.5569  20.7623  20.7842  20.8886
    20.9638  20.9951  21.0731  21.1081  21.1912  21.2061  21.3227  21.3695
    21.5725  21.5903  21.6880  21.7174  21.7856  21.8806  21.9679  22.0179
    22.0507  22.1412  22.2594  22.3185  22.3801  22.4353  22.4691  22.5277
    22.5601  22.6707  22.6830  22.7270  22.8837  22.9085  22.9909

          k =-0.5000-0.4833 0.0000 ( 30496 PWs)   bands (ev):

   -48.5414 -48.4582 -48.4559 -48.4092 -48.4024 -48.3909 -48.3808 -48.3567
   -48.3438 -48.3237 -48.2939 -48.2922 -48.2548 -48.2271 -48.1160 -48.1154
   -48.0717 -48.0459 -48.0394 -48.0369 -48.0327 -48.0311 -48.0028 -47.9988
   -24.0995 -20.5858 -20.5426 -20.1352 -19.9805 -19.9737 -19.8571 -19.7793
   -19.7110 -19.7020 -19.6739 -19.6398 -19.4930 -19.4805 -19.3124 -19.2937
   -19.1161 -18.5322 -18.4162 -17.5806  -9.2147  -8.7382  -8.6986  -8.2365
    -8.2174  -8.2033  -8.1758  -8.0177  -7.9900  -7.9474  -7.9167  -7.8878
    -7.8788  -7.8313  -7.7832  -7.7053  -7.6218  -7.6052  -7.5008  -7.3040
    -7.2123  -7.1801  -7.0614  -6.6525  -6.5983  -6.5558  -6.4467  -6.3746
    -6.2956  -6.1961  -6.1124  -6.0086  -5.9402  -5.8511  -5.7806  -5.7184
    -5.7087  -5.6717  -5.6124  -5.5690  -5.5393  -5.3481  -5.3147  -4.8564
    -4.7731  -4.6183  -4.5314  -4.4832  -4.4007  -4.2663  -4.1716  -3.9684
    -3.8587  -3.7925  -3.4510  -3.3024  -3.1729  -3.1571  -2.8715  -2.8506
    -2.8314  -2.6658  -2.6069  -2.5831  -2.4928  -2.4593  -2.3564  -2.3407
    -2.3242  -2.2868  -2.0177  -1.8245  -1.8186  -1.6809  -1.6380  -1.6158
    -1.5549  -1.4747  -1.4235  -1.3442  -1.3189  -1.2911  -1.2656  -0.1209
     0.4821   0.5379   0.5576   0.5652   0.8810   1.3021   1.3567   1.3724
     1.7085   2.0820   2.0925   2.3717   2.4460   2.6084   2.6275   3.3447
     4.2683   5.1532   5.3428   5.3655   5.6051   5.6321   5.7858   5.7934
     5.8649   5.9073   6.0965   6.1188   6.2781   6.4395   6.6068   6.6962
     6.7725   7.0689   7.1711   7.3795   7.4651   7.8387   7.8536   7.9834
     8.0817   8.1956   8.2374   8.3194   8.7644   8.9176   8.9444   9.0692
     9.2018   9.2728   9.5413   9.5763   9.9249   9.9616  10.1692  10.4490
    10.5742  10.5961  10.7766  10.9212  10.9388  10.9660  11.1160  11.4092
    11.6472  11.7998  11.8111  11.8658  11.8914  11.9750  12.0002  12.1732
    12.2624  12.3223  12.3437  12.4307  12.4451  12.5775  12.6242  12.7040
    12.8065  12.9056  12.9264  13.0340  13.0573  13.0807  13.1217  13.1359
    13.1750  13.2154  13.2933  13.3504  13.3774  13.3999  13.4354  13.4614
    13.4867  13.5088  13.5382  13.5442  13.5914  13.6519  13.6828  13.7301
    13.8033  13.8788  13.9453  13.9711  14.0328  14.0475  14.1055  14.1117
    14.1739  14.1854  14.2346  14.2584  14.3049  14.3818  14.4286  14.4439
    14.5085  14.6476  14.6970  14.8527  14.9326  15.0198  15.0428  15.0585
    15.1031  15.1763  15.2153  15.2338  15.2872  15.3157  15.4307  15.4461
    15.4927  15.5548  15.7826  15.8229  15.8512  16.0059  16.0522  16.0775
    16.1239  16.1731  16.2770  16.3858  16.4962  16.5340  16.6324  16.6434
    16.7185  16.7223  16.8392  16.8822  16.9914  17.0550  17.1038  17.1393
    17.1721  17.3315  17.4497  17.5096  17.5496  17.5920  17.6888  17.8052
    17.9905  18.1173  18.2428  18.2666  18.3350  18.4412  18.4956  18.5750
    18.6146  18.6546  18.6957  18.8479  18.9406  19.0184  19.1841  19.2211
    19.2680  19.2926  19.3269  19.4356  19.5880  19.7600  19.8940  19.9460
    19.9897  20.1234  20.1549  20.3152  20.3489  20.4666  20.5459  20.6670
    20.7418  20.7791  20.8256  20.8402  20.8632  20.9280  20.9800  21.0374
    21.0426  21.1066  21.1473  21.1856  21.2126  21.2572  21.3141  21.3659
    21.4558  21.5028  21.5468  21.6514  21.6583  21.7002  21.7302  21.7923
    21.8749  21.9849  22.0201  22.0594  22.0722  22.1595  22.1764  22.2841
    22.3023  22.4075  22.5360  22.5829  22.6445  22.6523  22.7102

          k =-0.2500 0.2417 0.0000 ( 30481 PWs)   bands (ev):

   -48.5474 -48.4604 -48.4540 -48.4330 -48.4091 -48.3878 -48.3623 -48.3473
   -48.3438 -48.3324 -48.3159 -48.2554 -48.2511 -48.2264 -48.1172 -48.1126
   -48.0772 -48.0725 -48.0384 -48.0354 -48.0254 -48.0152 -48.0097 -47.9828
   -24.0996 -20.7719 -20.4647 -20.3446 -20.2641 -20.0472 -19.8501 -19.8108
   -19.7226 -19.6244 -19.5100 -19.4786 -19.4597 -19.3306 -19.2485 -19.2149
   -19.0995 -18.4999 -18.3369 -17.5840  -9.2511  -9.1715  -9.0964  -8.9778
    -8.7347  -8.4376  -8.3920  -8.2614  -8.1653  -8.0999  -8.0343  -7.9865
    -7.9438  -7.8941  -7.8529  -7.6589  -7.5188  -7.4109  -7.3519  -7.1449
    -6.8768  -6.8381  -6.7623  -6.6428  -6.5161  -6.4792  -6.3195  -6.2147
    -6.0828  -5.9551  -5.8473  -5.7908  -5.7328  -5.6295  -5.5859  -5.5507
    -5.4845  -5.4175  -5.3308  -5.2114  -5.1475  -5.0785  -4.9470  -4.7972
    -4.6972  -4.5193  -4.4137  -4.3322  -4.2288  -4.1519  -4.0232  -3.9605
    -3.8785  -3.7814  -3.5763  -3.5336  -3.3862  -3.3088  -3.2692  -3.1366
    -3.0514  -2.9415  -2.8674  -2.7849  -2.7521  -2.7100  -2.6424  -2.5939
    -2.5003  -2.4531  -2.4066  -2.2821  -2.0320  -1.8196  -1.6296  -1.6104
    -1.5038  -1.4601  -1.3056  -1.1915  -1.0671  -0.9859  -0.9069  -0.3114
     0.2550   0.3264   0.5382   0.9199   1.1245   1.4400   1.5768   1.8270
     1.9425   2.1133   2.1669   2.3052   2.3846   2.4707   2.7552   3.2551
     3.8377   4.1613   4.4990   5.0282   5.2552   5.5493   5.9140   5.9907
     5.9978   6.2466   6.3693   6.5293   6.6062   6.9094   6.9490   7.2295
     7.4157   7.5330   7.7109   7.8322   7.8830   8.2080   8.2398   8.3028
     8.3859   8.4667   8.6790   8.7804   8.8962   9.0001   9.1245   9.1963
     9.3024   9.3841   9.4894   9.6269   9.7859   9.8498   9.9260   9.9753
    10.0692  10.1868  10.2911  10.3463  10.4549  10.5403  10.6102  10.6921
    10.7694  10.9029  11.0054  11.1137  11.1711  11.2483  11.2971  11.3643
    11.4871  11.5455  11.6754  11.7173  11.7653  11.7938  11.8647  11.9595
    11.9910  12.1633  12.2175  12.3187  12.3736  12.4762  12.5451  12.5649
    12.6309  12.7129  12.7909  12.8777  12.9336  12.9922  13.0733  13.1667
    13.2677  13.3725  13.4344  13.5561  13.6263  13.6713  13.7981  13.8508
    13.9028  13.9868  14.0367  14.1286  14.2240  14.3292  14.3683  14.4088
    14.5050  14.5311  14.5643  14.7077  14.7598  14.8070  14.9631  15.0123
    15.0768  15.1581  15.2516  15.3205  15.4441  15.5135  15.5455  15.6166
    15.7000  15.7472  15.7981  15.8420  15.9368  15.9835  16.0485  16.0555
    16.1416  16.1823  16.3410  16.3806  16.4312  16.4728  16.5361  16.6069
    16.6202  16.7087  16.7696  16.8557  16.9089  17.0286  17.0760  17.1710
    17.2306  17.2369  17.2929  17.3886  17.4475  17.4949  17.5610  17.6145
    17.7119  17.7271  17.7794  17.8913  17.9430  17.9877  18.0909  18.1143
    18.2156  18.2325  18.3455  18.4058  18.5140  18.6233  18.6564  18.7047
    18.8673  18.9226  18.9833  19.0185  19.0586  19.1764  19.2506  19.2891
    19.3452  19.4202  19.4822  19.5693  19.6201  19.6863  19.7582  19.8966
    19.9439  19.9866  20.1103  20.1647  20.2122  20.3285  20.3793  20.4809
    20.5827  20.6565  20.7211  20.7347  20.7769  20.8537  20.9245  20.9986
    21.0871  21.1212  21.1637  21.2170  21.2626  21.3573  21.4111  21.4673
    21.5281  21.5766  21.6676  21.6858  21.7519  21.8160  21.8302  21.9425
    22.0385  22.0771  22.1157  22.1876  22.2937  22.3449  22.4190  22.4420
    22.5183  22.5900  22.6611  22.7068  22.7965  22.8544  22.9196

     the Fermi energy is    -1.3634 ev

!    total energy              =   -2012.44327692 Ry
     Harris-Foulkes estimate   =   -2012.44327764 Ry
     estimated scf accuracy    <       0.00000085 Ry

     The total energy is the sum of the following terms:

     one-electron contribution =  -23698.31344336 Ry
     hartree contribution      =   11905.10775483 Ry
     xc contribution           =    -379.92434064 Ry
     ewald contribution        =   10159.50195509 Ry
     Hubbard energy            =       1.18557825 Ry
     smearing contrib. (-TS)   =      -0.00078109 Ry

     convergence has been achieved in  27 iterations

     Forces acting on atoms (Ry/au):


     negative rho (up, down):  0.692E+00 0.000E+00
     atom    1 type  1   force =    -0.00775243   -0.01291610    0.00276163
     atom    2 type  1   force =     0.00026984    0.00700331    0.00104259
     atom    3 type  2   force =     0.03225974    0.00419919   -0.00575765
     atom    4 type  2   force =     0.00804769    0.00835276   -0.00223388
     atom    5 type  1   force =    -0.00284865   -0.03238371    0.00088378
     atom    6 type  1   force =     0.00195015    0.03049801    0.00036790
     atom    7 type  1   force =    -0.00024124   -0.00400902    0.01419225
     atom    8 type  1   force =    -0.00271366    0.00099143    0.00169089
     atom    9 type  2   force =     0.00451951    0.00106131   -0.00359768
     atom   10 type  2   force =    -0.00017773   -0.00004972   -0.00396835
     atom   11 type  1   force =    -0.01157220    0.01820276   -0.00190609
     atom   12 type  1   force =    -0.00533618   -0.01233985   -0.00198408
     atom   13 type  1   force =    -0.00068968   -0.00296158    0.00089109
     atom   14 type  1   force =    -0.00682178   -0.01275593    0.00284287
     atom   15 type  1   force =     0.00015101    0.00707047    0.00171564
     atom   16 type  2   force =    -0.03234876    0.00442375   -0.00566094
     atom   17 type  2   force =     0.00800957    0.00912540   -0.00446182
     atom   18 type  1   force =    -0.00068317   -0.03310250    0.00085953
     atom   19 type  1   force =     0.00401207    0.02995038    0.00033932
     atom   20 type  1   force =    -0.00021610   -0.00557615    0.00461517
     atom   21 type  1   force =    -0.00297406    0.00116535    0.00159069
     atom   22 type  2   force =    -0.00190778    0.00098808   -0.00374387
     atom   23 type  2   force =    -0.00025373    0.00214337   -0.00161978
     atom   24 type  1   force =     0.01131513    0.01813125   -0.00186050
     atom   25 type  1   force =     0.00620821   -0.01243112   -0.00201115
     atom   26 type  1   force =    -0.00092975   -0.01065700    0.00285099
     atom   27 type  3   force =    -0.00007529   -0.00200985    0.00096669
     atom   28 type  3   force =    -0.00006752   -0.00215076    0.00125309
     atom   29 type  3   force =     0.00045383    0.00015473    0.00012555
     atom   30 type  3   force =     0.00038724    0.00018070    0.00032494
     atom   31 type  1   force =    -0.00013953   -0.00768745    0.00451928
     atom   32 type  1   force =     0.00015886    0.00698514   -0.00537217
     atom   33 type  3   force =     0.00000637    0.00040337    0.00034407

     Total force =     0.024047     Total SCF correction =     0.003179
     SCF correction compared to forces is large: reduce conv_thr to get better values


     entering subroutine stress ...


     negative rho (up, down):  0.692E+00 0.000E+00
          total   stress  (Ry/bohr**3)                   (kbar)     P=  -17.57
  -0.00011588   0.00000469   0.00000426        -17.05      0.69      0.63
   0.00000469  -0.00014700   0.00000608          0.69    -21.62      0.89
   0.00000426   0.00000608  -0.00009536          0.63      0.89    -14.03


     BFGS Geometry Optimization

     number of scf cycles    =   1
     number of bfgs steps    =   0

     energy   new            =   -2012.4432769165 Ry

     new trust radius        =       0.0141922517 bohr
     new conv_thr            =       0.0000010000 Ry


ATOMIC_POSITIONS (crystal)
O0       0.000000000   0.000000000   0.377845283    0   0   1
O0       0.000000000   0.500000000   0.401390871    0   0   1
Rh1      0.250000000   0.500000000   0.452734742    0   0   1
Rh1      0.000000000   0.000000000   0.452325282    0   0   1
O0       0.250000000   0.810000000   0.452177692    0   0   1
O0       0.250000000   0.190000000   0.452027365    0   0   1
O0       0.000000000   0.500000000   0.498714105    0   0   1
O0       0.000000000   0.000000000   0.527883849    0   0   1
Rh1      0.250000000   0.000000000   0.575047981    0   0   1
Rh1      0.000000000   0.500000000   0.570490560    0   0   1
O0       0.250000000   0.690000000   0.574641843    0   0   1
O0       0.250000000   0.310000000   0.577060282    0   0   1
O0       0.000000000   0.000000000   0.620577838    0   0   1
O0       0.500000000   0.000000000   0.377906909    0   0   1
O0       0.500000000   0.500000000   0.401584344    0   0   1
Rh1      0.750000000   0.500000000   0.452726678    0   0   1
Rh1      0.500000000   0.000000000   0.452280682    0   0   1
O0       0.750000000   0.810000000   0.452147206    0   0   1
O0       0.750000000   0.190000000   0.452066793    0   0   1
O0       0.500000000   0.500000000   0.500202388    0   0   1
O0       0.500000000   0.000000000   0.527761843    0   0   1
Rh1      0.750000000   0.000000000   0.575045054    0   0   1
Rh1      0.500000000   0.500000000   0.578017575    0   0   1
O0       0.750000000   0.690000000   0.574632756    0   0   1
O0       0.750000000   0.310000000   0.577059740    0   0   1
O0       0.500000000   0.000000000   0.620077072    0   0   1
H2       0.000043595   0.638574713   0.384849351
H2       0.499914256   0.638663125   0.385015085
H2       0.147808611   0.035972725   0.367152513
H2       0.648472946   0.033474860   0.367176505
O0       0.499718130   0.536487796   0.650710468
O0       0.500343515   0.345994446   0.678352458
H2       0.499930542   0.402193173   0.713246888


     Check: negative starting charge=   -0.646062
     NEW-OLD atomic charge density approx. for the potential

     Check: negative/imaginary core charge=   -0.000003    0.000000
     Check: negative starting charge=   -0.646035

     negative rho (up, down):  0.692E+00 0.000E+00
 Atomic wfc used for LDA+U Projector are NOT orthogonalized

     total cpu time spent up to now is     8193.2 secs

     per-process dynamical memory:   457.6 Mb

     Self-consistent Calculation

     iteration #  1     ecut=    40.00 Ry     beta=0.30
     Davidson diagonalization with overlap
     ethr =  1.00E-06,  avg # of iterations =  4.0
 --- enter write_ns ---
 LDA+U parameters:
U( 2)     =  3.00000000
alpha( 2) =  0.00000000
atom    3   Tr[ns(na)] =   8.03276
    eigenvalues: 
  0.586  0.607  0.892  0.957  0.973
    eigenvectors:
  0.016  0.186  0.003  0.000  0.795
  0.927  0.073  0.000  0.000  0.000
  0.000  0.000  0.987  0.010  0.003
  0.057  0.741  0.000  0.000  0.202
  0.000  0.000  0.010  0.989  0.001
    occupations:
  0.899 -0.005  0.002 -0.147 -0.001
 -0.005  0.588 -0.001 -0.004 -0.006
  0.002 -0.001  0.893 -0.005  0.006
 -0.147 -0.004 -0.005  0.680 -0.000
 -0.001 -0.006  0.006 -0.000  0.956
atom    4   Tr[ns(na)] =   8.02640
    eigenvalues: 
  0.600  0.649  0.872  0.917  0.976
    eigenvectors:
  0.001  0.992  0.000  0.000  0.007
  0.000  0.000  0.081  0.919  0.000
  0.000  0.000  0.919  0.081  0.000
  0.000  0.007  0.000  0.000  0.993
  0.999  0.001  0.000  0.000  0.000
    occupations:
  0.651 -0.004 -0.002  0.028  0.001
 -0.004  0.913  0.012  0.001 -0.000
 -0.002  0.012  0.875 -0.001  0.001
  0.028  0.001 -0.001  0.974  0.000
  0.001 -0.000  0.001  0.000  0.600
atom    9   Tr[ns(na)] =   8.01991
    eigenvalues: 
  0.638  0.648  0.854  0.892  0.978
    eigenvectors:
  0.002  0.150  0.000  0.000  0.848
  0.987  0.013  0.000  0.000  0.000
  0.000  0.000  0.982  0.018  0.000
  0.011  0.837  0.000  0.000  0.152
  0.000  0.000  0.018  0.982  0.000
    occupations:
  0.928 -0.001  0.000 -0.118 -0.001
 -0.001  0.638  0.000  0.002 -0.000
  0.000  0.000  0.855 -0.005 -0.005
 -0.118  0.002 -0.005  0.698  0.001
 -0.001 -0.000 -0.005  0.001  0.891
atom   10   Tr[ns(na)] =   8.01673
    eigenvalues: 
  0.594  0.598  0.915  0.925  0.976
    eigenvectors:
  0.000  0.991  0.001  0.000  0.009
  0.001  0.000  0.000  0.999  0.000
  0.000  0.001  0.999  0.000  0.000
  0.000  0.008  0.000  0.000  0.991
  0.999  0.000  0.000  0.001  0.000
    occupations:
  0.602  0.000  0.008  0.035 -0.000
  0.000  0.925 -0.000  0.000 -0.009
  0.008 -0.000  0.914  0.000  0.000
  0.035  0.000  0.000  0.973  0.000
 -0.000 -0.009  0.000  0.000  0.594
atom   16   Tr[ns(na)] =   8.03167
    eigenvalues: 
  0.586  0.607  0.892  0.957  0.973
    eigenvectors:
  0.015  0.186  0.003  0.000  0.795
  0.931  0.068  0.000  0.000  0.000
  0.000  0.000  0.991  0.006  0.003
  0.053  0.745  0.000  0.000  0.202
  0.000  0.000  0.006  0.993  0.001
    occupations:
  0.899  0.005  0.003 -0.147  0.001
  0.005  0.588 -0.000  0.003 -0.006
  0.003 -0.000  0.893 -0.004 -0.005
 -0.147  0.003 -0.004  0.680 -0.000
  0.001 -0.006 -0.005 -0.000  0.957
atom   17   Tr[ns(na)] =   8.02993
    eigenvalues: 
  0.601  0.650  0.869  0.918  0.977
    eigenvectors:
  0.001  0.992  0.000  0.000  0.008
  0.000  0.000  0.049  0.951  0.000
  0.000  0.000  0.951  0.049  0.000
  0.000  0.008  0.000  0.000  0.992
  0.999  0.001  0.000  0.000  0.000
    occupations:
  0.652 -0.004 -0.001  0.028  0.001
 -0.004  0.916  0.011  0.001 -0.001
 -0.001  0.011  0.872 -0.001  0.001
  0.028  0.001 -0.001  0.974  0.000
  0.001 -0.001  0.001  0.000  0.601
atom   22   Tr[ns(na)] =   8.01936
    eigenvalues: 
  0.638  0.648  0.854  0.892  0.978
    eigenvectors:
  0.000  0.151  0.001  0.000  0.848
  0.999  0.001  0.000  0.000  0.000
  0.000  0.000  0.983  0.016  0.000
  0.001  0.848  0.000  0.000  0.152
  0.000  0.000  0.016  0.984  0.000
    occupations:
  0.928  0.002  0.000 -0.118  0.000
  0.002  0.638  0.001 -0.001 -0.000
  0.000  0.001  0.854 -0.005  0.005
 -0.118 -0.001 -0.005  0.698  0.000
  0.000 -0.000  0.005  0.000  0.891
atom   23   Tr[ns(na)] =   8.03196
    eigenvalues: 
  0.600  0.634  0.858  0.949  0.974
    eigenvectors:
  0.000  0.994  0.000  0.003  0.003
  0.001  0.000  0.999  0.000  0.000
  0.000  0.003  0.000  0.996  0.001
  0.000  0.003  0.000  0.001  0.997
  0.999  0.000  0.001  0.000  0.000
    occupations:
  0.636 -0.000  0.018  0.018 -0.000
 -0.000  0.858 -0.001 -0.000 -0.010
  0.018 -0.001  0.948 -0.002  0.000
  0.018 -0.000 -0.002  0.973  0.000
 -0.000 -0.010  0.000  0.000  0.601
N of occupied +U levels =  64.2087283
 --- exit write_ns ---

     negative rho (up, down):  0.692E+00 0.000E+00

     total cpu time spent up to now is     8533.4 secs

     total energy              =   -2012.44268580 Ry
     Harris-Foulkes estimate   =   -2012.44365547 Ry
     estimated scf accuracy    <       0.00204209 Ry

     iteration #  2     ecut=    40.00 Ry     beta=0.30
     Davidson diagonalization with overlap
     ethr =  8.34E-07,  avg # of iterations =  4.6

     negative rho (up, down):  0.692E+00 0.000E+00

     total cpu time spent up to now is     8807.9 secs

     total energy              =   -2012.43791481 Ry
     Harris-Foulkes estimate   =   -2012.44997764 Ry
     estimated scf accuracy    <       0.28976486 Ry
[...]
    21.2198  21.2580  21.2917  21.3124  21.3749  21.4190  21.4676  21.4955
    21.5208  21.6562  21.6916  21.8550  21.9247  21.9458  21.9942  22.0857
    22.1279  22.2218  22.2517  22.2920  22.3964  22.4609  22.5805

          k =-0.5000 0.2417 0.0000 ( 30500 PWs)   bands (ev):

   -48.5275 -48.4378 -48.4362 -48.3986 -48.3833 -48.3722 -48.3628 -48.3553
   -48.3416 -48.3187 -48.2720 -48.2703 -48.2368 -48.2104 -48.0909 -48.0904
   -48.0581 -48.0364 -48.0181 -48.0123 -48.0116 -48.0102 -47.9829 -47.9789
   -24.2237 -20.6160 -20.5693 -20.1738 -20.0957 -19.9926 -19.9749 -19.9270
   -19.6104 -19.5831 -19.4660 -19.4524 -19.4321 -19.4246 -19.3075 -19.2899
   -19.1201 -18.4938 -18.3885 -17.5489  -9.2814  -8.7662  -8.7319  -8.5735
    -8.5413  -8.5035  -8.4983  -8.2268  -8.2026  -8.1450  -8.0862  -7.9704
    -7.9403  -7.8380  -7.7511  -7.6685  -7.5377  -7.4940  -7.3289  -6.9735
    -6.8954  -6.7585  -6.7323  -6.6960  -6.6481  -6.5616  -6.4738  -6.3263
    -6.1738  -6.1444  -6.0340  -5.9964  -5.9351  -5.7875  -5.7581  -5.5649
    -5.5208  -5.4230  -5.3668  -5.2245  -5.1956  -5.1670  -5.0963  -5.0016
    -4.8727  -4.6325  -4.5731  -4.4387  -4.4140  -4.2168  -4.1587  -3.9676
    -3.8764  -3.8364  -3.5574  -3.3379  -3.2470  -3.1986  -2.9163  -2.8212
    -2.7899  -2.7729  -2.7149  -2.6855  -2.6105  -2.5607  -2.4970  -2.3708
    -2.2832  -2.1783  -2.0048  -1.8451  -1.8206  -1.7718  -1.6770  -1.6048
    -1.5130  -1.4253  -1.3999  -1.3646  -1.3065  -1.1499  -1.1330  -0.1757
     0.6416   0.8811   0.9089   0.9216   1.0084   1.2654   1.3284   1.4201
     1.6390   1.9289   2.0384   2.1715   2.2078   2.5901   2.6443   3.4337
     4.1777   4.7408   4.9083   4.9237   5.2107   5.2459   5.6963   5.7404
     6.1476   6.2536   6.4905   6.5628   6.6446   6.7315   6.9164   7.0747
     7.1250   7.3183   7.3640   7.5117   7.6307   7.6855   8.0404   8.1826
     8.2857   8.5119   8.5688   8.7032   8.9148   8.9446   9.0592   9.1072
     9.3909   9.5025   9.5994   9.7998   9.9895  10.0325  10.1515  10.1832
    10.2166  10.3044  10.4329  10.4724  10.6230  10.6330  10.7470  10.8024
    10.8995  11.1167  11.1459  11.1632  11.2673  11.2731  11.4127  11.5547
    11.7205  11.8466  11.9192  11.9911  12.0592  12.0988  12.2324  12.2567
    12.4323  12.4505  12.4687  12.5621  12.6151  12.6561  12.8632  12.9021
    12.9440  12.9901  13.0219  13.0885  13.2287  13.2551  13.2886  13.3209
    13.5231  13.5576  13.6174  13.7561  13.7738  13.8492  13.9093  13.9479
    14.0799  14.1287  14.2013  14.2606  14.3280  14.3736  14.4048  14.4801
    14.5750  14.6004  14.6524  14.6977  14.7833  14.8039  14.8256  14.8612
    14.9835  15.0371  15.0906  15.1237  15.1768  15.2485  15.2740  15.3258
    15.4004  15.4223  15.5446  15.5787  15.5981  15.6381  15.7815  15.8065
    15.9266  15.9641  16.0491  16.1530  16.2063  16.2897  16.3223  16.4061
    16.4898  16.5273  16.5474  16.6247  16.6393  16.7010  16.8278  16.8499
    17.0431  17.0903  17.1291  17.1458  17.2345  17.2843  17.3819  17.4230
    17.5308  17.5863  17.7759  17.8199  17.8440  17.8700  17.9657  18.0122
    18.0382  18.1539  18.3107  18.3898  18.4125  18.4647  18.5519  18.5686
    18.6273  18.7036  18.7696  18.7892  18.8024  18.9280  19.0024  19.0568
    19.1947  19.2382  19.2946  19.3108  19.4699  19.5419  19.5654  19.6224
    19.6893  19.7317  19.8276  19.8475  19.8717  20.0026  20.1279  20.1826
    20.2580  20.3103  20.4315  20.4761  20.5607  20.7630  20.7826  20.8951
    20.9681  20.9952  21.0736  21.1076  21.1936  21.2103  21.3234  21.3649
    21.5698  21.5847  21.6910  21.7157  21.7862  21.8843  21.9656  22.0239
    22.0644  22.1482  22.2587  22.3192  22.3847  22.4487  22.4797  22.5380
    22.5647  22.6837  22.6946  22.7365  22.8962  22.9162  22.9952

          k =-0.5000-0.4833 0.0000 ( 30496 PWs)   bands (ev):

   -48.5280 -48.4379 -48.4356 -48.3987 -48.3834 -48.3723 -48.3629 -48.3553
   -48.3416 -48.3182 -48.2720 -48.2703 -48.2361 -48.2095 -48.0916 -48.0911
   -48.0583 -48.0366 -48.0179 -48.0122 -48.0117 -48.0103 -47.9829 -47.9789
   -24.2236 -20.6030 -20.5490 -20.1184 -19.9658 -19.9616 -19.8408 -19.7609
   -19.6931 -19.6842 -19.6535 -19.6191 -19.4847 -19.4751 -19.3054 -19.2906
   -19.1153 -18.4961 -18.3873 -17.5452  -9.2622  -8.7448  -8.7071  -8.2300
    -8.2120  -8.2015  -8.1816  -8.0078  -7.9778  -7.9317  -7.9059  -7.8774
    -7.8700  -7.8214  -7.7722  -7.6997  -7.6139  -7.5954  -7.4932  -7.2885
    -7.1993  -7.1661  -7.0602  -6.6495  -6.5964  -6.5595  -6.4373  -6.3563
    -6.2914  -6.1971  -6.0889  -5.9941  -5.9476  -5.8357  -5.7759  -5.7038
    -5.6880  -5.6641  -5.6064  -5.5590  -5.5360  -5.3352  -5.2996  -4.8407
    -4.7638  -4.5927  -4.5246  -4.4702  -4.3811  -4.2489  -4.1654  -3.9367
    -3.8408  -3.7603  -3.4355  -3.2837  -3.1558  -3.1393  -2.8630  -2.8382
    -2.8179  -2.6510  -2.5880  -2.5724  -2.4725  -2.4408  -2.3371  -2.3223
    -2.3025  -2.2653  -1.9923  -1.8003  -1.7951  -1.6667  -1.6235  -1.5975
    -1.5356  -1.4534  -1.4003  -1.3261  -1.2990  -1.2659  -1.2465  -0.0805
     0.5062   0.5586   0.5759   0.5841   0.8942   1.3360   1.3875   1.4038
     1.7344   2.1122   2.1217   2.3927   2.4724   2.6329   2.6476   3.4619
     4.2791   5.1422   5.3425   5.3626   5.6048   5.6274   5.7802   5.7898
     5.8592   5.9019   6.0931   6.1173   6.2704   6.4348   6.6036   6.6934
     6.7682   7.0673   7.1705   7.3783   7.4604   7.8384   7.8602   8.0022
     8.0887   8.2060   8.2493   8.3446   8.7927   8.9239   8.9405   9.0826
     9.2070   9.2782   9.5427   9.5793   9.9172   9.9598  10.1814  10.4621
    10.5817  10.6118  10.7923  10.9257  10.9439  10.9689  11.1198  11.4118
    11.6502  11.8128  11.8237  11.8682  11.8955  11.9875  12.0161  12.1811
    12.2567  12.3305  12.3579  12.4411  12.4574  12.5877  12.6339  12.7023
    12.8135  12.9139  12.9340  13.0407  13.0602  13.0815  13.1219  13.1356
    13.1802  13.2217  13.3086  13.3527  13.3795  13.4069  13.4447  13.4706
    13.4899  13.5094  13.5363  13.5545  13.5889  13.6528  13.6794  13.7421
    13.8132  13.8797  13.9516  13.9757  14.0447  14.0527  14.1141  14.1220
    14.1794  14.1822  14.2337  14.2601  14.3077  14.3831  14.4350  14.4436
    14.5108  14.6493  14.7072  14.8558  14.9370  15.0181  15.0422  15.0554
    15.1042  15.1830  15.2107  15.2353  15.2906  15.3161  15.4291  15.4496
    15.4934  15.5526  15.7853  15.8315  15.8586  16.0131  16.0572  16.0793
    16.1336  16.1797  16.2794  16.3889  16.5036  16.5468  16.6378  16.6502
    16.7197  16.7333  16.8365  16.8772  17.0003  17.0656  17.1153  17.1509
    17.1717  17.3255  17.4507  17.5098  17.5544  17.5909  17.6876  17.8042
    17.9896  18.1252  18.2448  18.2650  18.3380  18.4448  18.5043  18.5770
    18.6164  18.6565  18.6959  18.8464  18.9419  19.0207  19.1810  19.2143
    19.2665  19.2925  19.3281  19.4298  19.5778  19.7548  19.8909  19.9411
    19.9847  20.1204  20.1646  20.3084  20.3417  20.4722  20.5474  20.6667
    20.7493  20.7872  20.8231  20.8379  20.8583  20.9255  20.9787  21.0350
    21.0379  21.1051  21.1440  21.1821  21.2078  21.2502  21.3109  21.3618
    21.4524  21.4992  21.5412  21.6502  21.6590  21.6999  21.7322  21.7983
    21.8807  21.9875  22.0194  22.0663  22.0745  22.1584  22.1762  22.2868
    22.3102  22.4064  22.5353  22.5881  22.6508  22.6606  22.7239

          k =-0.2500 0.2417 0.0000 ( 30481 PWs)   bands (ev):

   -48.5343 -48.4400 -48.4337 -48.4136 -48.3987 -48.3706 -48.3552 -48.3464
   -48.3292 -48.3111 -48.3097 -48.2366 -48.2291 -48.2088 -48.0929 -48.0883
   -48.0598 -48.0499 -48.0346 -48.0174 -48.0045 -47.9906 -47.9882 -47.9613
   -24.2237 -20.7752 -20.4797 -20.3366 -20.2469 -20.0265 -19.8327 -19.7919
   -19.7133 -19.6120 -19.4928 -19.4755 -19.4488 -19.3118 -19.2308 -19.2120
   -19.0983 -18.4650 -18.3080 -17.5486  -9.2939  -9.1670  -9.0851  -8.9741
    -8.7326  -8.4369  -8.3870  -8.2521  -8.1592  -8.0912  -8.0226  -7.9868
    -7.9507  -7.8831  -7.8447  -7.6505  -7.5110  -7.4043  -7.3481  -7.1447
    -6.8643  -6.8341  -6.7540  -6.6380  -6.5062  -6.4801  -6.3129  -6.2052
    -6.0637  -5.9467  -5.8319  -5.7769  -5.7255  -5.6137  -5.5828  -5.5363
    -5.4693  -5.4062  -5.3177  -5.2049  -5.1364  -5.0856  -4.9413  -4.7744
    -4.6842  -4.5089  -4.3941  -4.3151  -4.2113  -4.1404  -4.0063  -3.9439
    -3.8512  -3.7611  -3.5511  -3.5158  -3.3614  -3.2914  -3.2520  -3.1190
    -3.0328  -2.9252  -2.8527  -2.7699  -2.7352  -2.6922  -2.6269  -2.5770
    -2.4833  -2.4347  -2.3885  -2.2660  -2.0121  -1.8017  -1.6120  -1.5936
    -1.4807  -1.4379  -1.2852  -1.1716  -1.0436  -0.9634  -0.8846  -0.2728
     0.2752   0.3450   0.5613   0.9532   1.1539   1.4640   1.6074   1.8479
     1.9659   2.1390   2.1875   2.3266   2.4136   2.4956   2.7862   3.3264
     3.8973   4.1611   4.4942   5.0225   5.2505   5.5464   5.9120   5.9885
     5.9967   6.2409   6.3651   6.5253   6.6152   6.9090   6.9465   7.2313
     7.4152   7.5299   7.7122   7.8365   7.8825   8.2061   8.2366   8.3081
     8.3959   8.4819   8.6833   8.7900   8.8974   9.0063   9.1272   9.2028
     9.3070   9.3882   9.4907   9.6282   9.7903   9.8549   9.9293   9.9803
    10.0751  10.1897  10.2987  10.3470  10.4588  10.5389  10.6139  10.6968
    10.7731  10.9042  11.0115  11.1220  11.1714  11.2588  11.3011  11.3726
    11.4933  11.5537  11.6805  11.7301  11.7682  11.8017  11.8751  11.9580
    11.9946  12.1626  12.2292  12.3239  12.3815  12.4791  12.5457  12.5672
    12.6350  12.7191  12.7981  12.9030  12.9437  13.0056  13.0779  13.1734
    13.2755  13.3845  13.4361  13.5649  13.6347  13.6773  13.7948  13.8560
    13.9159  13.9925  14.0494  14.1349  14.2319  14.3318  14.3844  14.4164
    14.5091  14.5338  14.5947  14.7110  14.7670  14.8128  14.9784  15.0125
    15.0873  15.1678  15.2598  15.3223  15.4473  15.5118  15.5507  15.6177
    15.7015  15.7547  15.8018  15.8436  15.9392  15.9861  16.0463  16.0597
    16.1401  16.1812  16.3404  16.3819  16.4319  16.4747  16.5356  16.6083
    16.6221  16.7116  16.7724  16.8568  16.9164  17.0376  17.0798  17.1716
    17.2311  17.2412  17.2924  17.3931  17.4505  17.4997  17.5627  17.6112
    17.7130  17.7282  17.7790  17.8913  17.9455  17.9853  18.0883  18.1153
    18.2109  18.2345  18.3473  18.4055  18.5168  18.6203  18.6560  18.7008
    18.8640  18.9202  18.9806  19.0151  19.0559  19.1743  19.2472  19.2925
    19.3517  19.4275  19.4834  19.5717  19.6222  19.6861  19.7613  19.8987
    19.9434  19.9940  20.1095  20.1759  20.2176  20.3298  20.3747  20.4811
    20.5867  20.6622  20.7204  20.7335  20.7762  20.8569  20.9266  20.9977
    21.0866  21.1210  21.1611  21.2139  21.2628  21.3579  21.4154  21.4667
    21.5277  21.5811  21.6693  21.6888  21.7545  21.8181  21.8342  21.9435
    22.0464  22.0799  22.1169  22.1936  22.2919  22.3451  22.4218  22.4459
    22.5254  22.5991  22.6604  22.7096  22.8024  22.8589  22.9194

     the Fermi energy is    -1.3418 ev

!    total energy              =   -2012.44374316 Ry
     Harris-Foulkes estimate   =   -2012.44374316 Ry
     estimated scf accuracy    <          3.4E-09 Ry

     The total energy is the sum of the following terms:

     one-electron contribution =  -23730.16193378 Ry
     hartree contribution      =   11921.15751276 Ry
     xc contribution           =    -379.95757566 Ry
     ewald contribution        =   10175.33427628 Ry
     Hubbard energy            =       1.18486399 Ry
     smearing contrib. (-TS)   =      -0.00088674 Ry

     convergence has been achieved in  15 iterations

     Forces acting on atoms (Ry/au):


     negative rho (up, down):  0.692E+00 0.000E+00
     atom    1 type  1   force =    -0.00713299   -0.01273453    0.00002733
     atom    2 type  1   force =     0.00017882    0.00468000   -0.00032723
     atom    3 type  2   force =     0.03093959    0.00445499   -0.00011018
     atom    4 type  2   force =     0.00808330    0.00826475    0.00001459
     atom    5 type  1   force =    -0.00303499   -0.03231555    0.00004554
     atom    6 type  1   force =     0.00196761    0.03040318    0.00014496
     atom    7 type  1   force =    -0.00027261   -0.00411643    0.00022419
     atom    8 type  1   force =    -0.00278232    0.00109264   -0.00017433
     atom    9 type  2   force =     0.00484889    0.00094547   -0.00006488
     atom   10 type  2   force =    -0.00016483    0.00014615   -0.00031282
     atom   11 type  1   force =    -0.01102257    0.01865472    0.00008786
     atom   12 type  1   force =    -0.00470707   -0.01287334    0.00015261
     atom   13 type  1   force =    -0.00069817   -0.00289003   -0.00007193
     atom   14 type  1   force =    -0.00586656   -0.01252939    0.00036272
     atom   15 type  1   force =     0.00009408    0.00466729   -0.00023982
     atom   16 type  2   force =    -0.03107257    0.00456006   -0.00008307
     atom   17 type  2   force =     0.00780496    0.00903241   -0.00013309
     atom   18 type  1   force =    -0.00077133   -0.03300755    0.00004051
     atom   19 type  1   force =     0.00412240    0.02988287    0.00014799
     atom   20 type  1   force =    -0.00015403   -0.00568331    0.00022285
     atom   21 type  1   force =    -0.00295925    0.00120806   -0.00028854
     atom   22 type  2   force =    -0.00224987    0.00097083   -0.00009766
     atom   23 type  2   force =    -0.00045123    0.00183774   -0.00010732
     atom   24 type  1   force =     0.01062962    0.01845837    0.00008806
     atom   25 type  1   force =     0.00576327   -0.01301658    0.00021060
     atom   26 type  1   force =    -0.00094704   -0.01051854    0.00036751
     atom   27 type  3   force =     0.00000575    0.00022563    0.00019832
     atom   28 type  3   force =     0.00000693    0.00017099    0.00026389
     atom   29 type  3   force =    -0.00003403    0.00002066    0.00012542
     atom   30 type  3   force =    -0.00024083   -0.00000986    0.00002868
     atom   31 type  1   force =    -0.00017000   -0.00010752    0.00010505
     atom   32 type  1   force =     0.00030705    0.00018660   -0.00030294
     atom   33 type  3   force =    -0.00001995   -0.00006078   -0.00054487

     Total force =     0.001334     Total SCF correction =     0.000141
     SCF correction compared to forces is large: reduce conv_thr to get better values


     entering subroutine stress ...


     negative rho (up, down):  0.692E+00 0.000E+00
          total   stress  (Ry/bohr**3)                   (kbar)     P=  -16.76
  -0.00011471   0.00000468   0.00000414        -16.87      0.69      0.61
   0.00000468  -0.00014253   0.00000431          0.69    -20.97      0.63
   0.00000414   0.00000431  -0.00008460          0.61      0.63    -12.44


     bfgs converged in   9 scf cycles and   8 bfgs steps
     (criteria: energy < 0.10E-03, force < 0.10E-02)

     End of BFGS Geometry Optimization

     Final energy   =   -2012.4437431589 Ry
Begin final coordinates

ATOMIC_POSITIONS (crystal)
O0       0.000000000   0.000000000   0.378000330    0   0   1
O0       0.000000000   0.500000000   0.401747941    0   0   1
Rh1      0.250000000   0.500000000   0.452987112    0   0   1
Rh1      0.000000000   0.000000000   0.452419196    0   0   1
O0       0.250000000   0.810000000   0.452312723    0   0   1
O0       0.250000000   0.190000000   0.452065618    0   0   1
O0       0.000000000   0.500000000   0.499011733    0   0   1
O0       0.000000000   0.000000000   0.527817074    0   0   1
Rh1      0.250000000   0.000000000   0.574908233    0   0   1
Rh1      0.000000000   0.500000000   0.570673990    0   0   1
O0       0.250000000   0.690000000   0.574329271    0   0   1
O0       0.250000000   0.310000000   0.576701968    0   0   1
O0       0.000000000   0.000000000   0.620425220    0   0   1
O0       0.500000000   0.000000000   0.377918003    0   0   1
O0       0.500000000   0.500000000   0.401897546    0   0   1
Rh1      0.750000000   0.500000000   0.452978222    0   0   1
Rh1      0.500000000   0.000000000   0.452263315    0   0   1
O0       0.750000000   0.810000000   0.452278312    0   0   1
O0       0.750000000   0.190000000   0.452098917    0   0   1
O0       0.500000000   0.500000000   0.500299278    0   0   1
O0       0.500000000   0.000000000   0.527665732    0   0   1
Rh1      0.750000000   0.000000000   0.574904542    0   0   1
Rh1      0.500000000   0.500000000   0.577783770    0   0   1
O0       0.750000000   0.690000000   0.574326758    0   0   1
O0       0.750000000   0.310000000   0.576701025    0   0   1
O0       0.500000000   0.000000000   0.619949010    0   0   1
H2      -0.000057829   0.637978234   0.384963763
H2       0.499827465   0.638234911   0.385175740
H2       0.147745897   0.036055257   0.367333198
H2       0.648558560   0.033645274   0.367324095
O0       0.499390771   0.536405844   0.650483480
O0       0.500774843   0.346069169   0.678160951
H2       0.499922064   0.402201211   0.713023933
End final coordinates



     init_run     :    152.98s CPU    155.55s WALL (       1 calls)
     electrons    :  37270.17s CPU  38353.95s WALL (       9 calls)
     update_pot   :    162.42s CPU    166.35s WALL (       8 calls)
     forces       :   1603.60s CPU   1631.12s WALL (       9 calls)
     stress       :   7739.23s CPU   7963.16s WALL (       9 calls)

     Called by init_run:
     wfcinit      :     48.92s CPU     50.67s WALL (       1 calls)
     potinit      :      7.94s CPU      8.23s WALL (       1 calls)

     Called by electrons:
     c_bands      :  17253.29s CPU  17819.14s WALL (     155 calls)
     sum_band     :   8041.39s CPU   8258.40s WALL (     155 calls)
     v_of_rho     :    190.63s CPU    201.39s WALL (     157 calls)
     newd         :  12451.47s CPU  12640.99s WALL (     157 calls)
     mix_rho      :     37.60s CPU     38.56s WALL (     155 calls)

     Called by c_bands:
     init_us_2    :     65.84s CPU     66.26s WALL (    1284 calls)
     cegterg      :  17003.55s CPU  17530.58s WALL (     465 calls)

     Called by *egterg:
     h_psi        :  10849.50s CPU  11170.01s WALL (    1148 calls)
     s_psi        :   1192.08s CPU   1206.55s WALL (    1445 calls)
     g_psi        :     18.75s CPU     18.77s WALL (     680 calls)
     cdiaghg      :   1125.83s CPU   1129.68s WALL (    1100 calls)

     Called by h_psi:
     add_vuspsi   :    934.15s CPU    948.18s WALL (    1148 calls)
     vhpsi        :   1037.53s CPU   1051.43s WALL (    1148 calls)

     General routines
     calbec       :   2797.21s CPU   2857.12s WALL (   12109 calls)
     fft          :    305.35s CPU    395.31s WALL (    2737 calls)
     ffts         :      3.15s CPU      3.29s WALL (     312 calls)
     fftw         :   5813.69s CPU   6165.77s WALL (  873847 calls)
     interpolate  :     31.66s CPU     32.16s WALL (     312 calls)
     davcio       :      0.12s CPU     32.58s WALL (    1527 calls)

     Parallel routines
     fft_scatter  :   2770.61s CPU   3202.45s WALL (  876896 calls)
     Hubbard U routines
     new_ns       :    207.53s CPU    219.96s WALL (     155 calls)
     vhpsi        :   1037.53s CPU   1051.43s WALL (    1148 calls)
     force_hub    :    396.38s CPU    405.29s WALL (       9 calls)
     stres_hub    :   3863.48s CPU   3939.75s WALL (       9 calls)

     PWSCF        :    13h14m CPU       13h37m WALL


   This run was terminated on:  11: 8:52   6Jun2014            

=------------------------------------------------------------------------------=
   JOB DONE.
=------------------------------------------------------------------------------=
---------------------------------------
Running PBS batch system epilogue script
Job id: 381421.audhumbla.fysik.dtu.dk
Username: zhonxu
Groupname: campgst
Jobname: RhO2/Eads-2-layers/OOH-U-3.0
Sessionid: 15403
Resources limits: neednodes=2:ppn=8:xeon8,nodes=2:ppn=8:xeon8,walltime=48:00:00
Resources used: cput=217:42:25,mem=17880752kb,vmem=21577704kb,walltime=13:37:03
Queuename: verylong
Accounting:
This job has allocated the following 16 nodes:
a117 a117 a117 a117 a117 a117 a117 a117 a048 a048 a048 a048 a048 a048 a048 a048
Finished epilogue job 381421.audhumbla.fysik.dtu.dk for zhonxu
