
     Program PWSCF v.5.0.2 (svn rev. 9656) starts on 24Jan2014 at 11: 5:22 

     This program is part of the open-source Quantum ESPRESSO suite
     for quantum simulation of materials; please cite
         "P. Giannozzi et al., J. Phys.:Condens. Matter 21 395502 (2009);
          URL http://www.quantum-espresso.org", 
     in publications or presentations arising from this work. More details at
     http://www.quantum-espresso.org/quote.php

     Parallel version (MPI), running on     4 processors
     R & G space division:  proc/nbgrp/npool/nimage =       4

     Current dimensions of program PWSCF are:
     Max number of different atomic species (ntypx) = 10
     Max number of k-points (npk) =  40000
     Max angular momentum in pseudopotentials (lmaxx) =  3
     Reading input from MoO2-v-1.00.in

     Subspace diagonalization in iterative solution of the eigenvalue problem:
     a serial algorithm will be used


     Parallelization info
     --------------------
     sticks:   dense  smooth     PW     G-vecs:    dense   smooth      PW
     Min         781     247     73                21061     3805     629
     Max         782     248     74                21062     3812     632
     Sum        3125     989    293                84245    15235    2521



     bravais-lattice index     =            0
     lattice parameter (alat)  =       8.8435  a.u.
     unit-cell volume          =     445.7140 (a.u.)^3
     number of atoms/cell      =            6
     number of atomic types    =            2
     number of electrons       =        52.00
     number of Kohn-Sham states=           78
     kinetic-energy cutoff     =      40.0000  Ry
     charge density cutoff     =     500.0000  Ry
     convergence threshold     =      1.0E-06
     mixing beta               =       0.3000
     number of iterations used =            8  plain     mixing
     Exchange-correlation      = SLA  PW   PBE  PBE ( 1 4 3 4 0)
     EXX-fraction              =        0.00
     nstep                     =           50


     celldm(1)=   8.843488  celldm(2)=   0.000000  celldm(3)=   0.000000
     celldm(4)=   0.000000  celldm(5)=   0.000000  celldm(6)=   0.000000

     crystal axes: (cart. coord. in units of alat)
               a(1) = (   1.000000   0.000000   0.000000 )  
               a(2) = (   0.000000   1.000000   0.000000 )  
               a(3) = (   0.000000   0.000000   0.644444 )  

     reciprocal axes: (cart. coord. in units 2 pi/alat)
               b(1) = (  1.000000  0.000000  0.000000 )  
               b(2) = (  0.000000  1.000000  0.000000 )  
               b(3) = (  0.000000  0.000000  1.551724 )  


     PseudoPot. # 1 for Mo read from file:
     /home/camp/zhonxu/pseudo/mo_pbe_v1.uspp.F.UPF
     MD5 check sum: 30c4dcd161f5d35cd49bb5239c51a633
     Pseudo is Ultrasoft + core correction, Zval = 14.0
     Generated by new atomic code, or converted to UPF format
     Using radial grid of  889 points,  6 beta functions with: 
                l(1) =   0
                l(2) =   0
                l(3) =   1
                l(4) =   1
                l(5) =   2
                l(6) =   2
     Q(r) pseudized with  6 coefficients,  rinner =    1.000   1.000   1.000
                                                       1.000   1.000

     PseudoPot. # 2 for O  read from file:
     /home/camp/zhonxu/pseudo/o_pbe_v1.01.uspp.F.UPF
     MD5 check sum: 2bcb18d16ea4b960afae9ec6d52f22d2
     Pseudo is Ultrasoft + core correction, Zval =  6.0
     Generated by new atomic code, or converted to UPF format
     Using radial grid of  737 points,  5 beta functions with: 
                l(1) =   0
                l(2) =   0
                l(3) =   1
                l(4) =   1
                l(5) =   2
     Q(r) pseudized with  8 coefficients,  rinner =    0.900   0.900   0.900
                                                       0.900   0.900

     atomic species   valence    mass     pseudopotential
        Mo0           14.00    95.94000     Mo( 1.00)
        O1             6.00    15.99940     O ( 1.00)

     Starting magnetic structure 
     atomic species   magnetization
        Mo0          0.600
        O1           0.000

      8 Sym. Ops., with inversion, found
          (note:  8 additional sym.ops. were found but ignored
           their fractional translations are incommensurate with FFT grid)


   Cartesian axes

     site n.     atom                  positions (alat units)
         1           Mo0 tau(   1) = (   0.0000000   0.0000000   0.0000000  )
         2           Mo0 tau(   2) = (   0.5000000   0.5000000   0.3222222  )
         3           O1  tau(   3) = (   0.3050000   0.3050000   0.0000000  )
         4           O1  tau(   4) = (  -0.3050000  -0.3050000   0.0000000  )
         5           O1  tau(   5) = (   0.8050000   0.1950000   0.3222222  )
         6           O1  tau(   6) = (   0.1950000   0.8050000   0.3222222  )

     number of k points=    54  Methfessel-Paxton smearing, width (Ry)=  0.0100
                       cart. coord. in units 2pi/alat
        k(    1) = (   0.0000000   0.0000000   0.0000000), wk =   0.0080000
        k(    2) = (   0.0000000   0.0000000   0.3103448), wk =   0.0160000
        k(    3) = (   0.0000000   0.0000000   0.6206897), wk =   0.0160000
        k(    4) = (   0.0000000   0.2000000   0.0000000), wk =   0.0320000
        k(    5) = (   0.0000000   0.2000000   0.3103448), wk =   0.0640000
        k(    6) = (   0.0000000   0.2000000   0.6206897), wk =   0.0640000
        k(    7) = (   0.0000000   0.4000000   0.0000000), wk =   0.0320000
        k(    8) = (   0.0000000   0.4000000   0.3103448), wk =   0.0640000
        k(    9) = (   0.0000000   0.4000000   0.6206897), wk =   0.0640000
        k(   10) = (   0.2000000   0.2000000   0.0000000), wk =   0.0160000
        k(   11) = (   0.2000000   0.2000000   0.3103448), wk =   0.0320000
        k(   12) = (   0.2000000   0.2000000   0.6206897), wk =   0.0320000
        k(   13) = (   0.2000000   0.4000000   0.0000000), wk =   0.0320000
        k(   14) = (   0.2000000   0.4000000   0.3103448), wk =   0.0640000
        k(   15) = (   0.2000000   0.4000000   0.6206897), wk =   0.0640000
        k(   16) = (   0.4000000   0.4000000   0.0000000), wk =   0.0160000
        k(   17) = (   0.4000000   0.4000000   0.3103448), wk =   0.0320000
        k(   18) = (   0.4000000   0.4000000   0.6206897), wk =   0.0320000
        k(   19) = (  -0.2000000   0.2000000   0.0000000), wk =   0.0160000
        k(   20) = (  -0.2000000   0.2000000  -0.3103448), wk =   0.0320000
        k(   21) = (  -0.2000000   0.2000000  -0.6206897), wk =   0.0320000
        k(   22) = (  -0.2000000   0.4000000   0.0000000), wk =   0.0320000
        k(   23) = (  -0.2000000   0.4000000  -0.3103448), wk =   0.0640000
        k(   24) = (  -0.2000000   0.4000000  -0.6206897), wk =   0.0640000
        k(   25) = (  -0.4000000   0.4000000   0.0000000), wk =   0.0160000
        k(   26) = (  -0.4000000   0.4000000  -0.3103448), wk =   0.0320000
        k(   27) = (  -0.4000000   0.4000000  -0.6206897), wk =   0.0320000
        k(   28) = (   0.0000000   0.0000000   0.0000000), wk =   0.0080000
        k(   29) = (   0.0000000   0.0000000   0.3103448), wk =   0.0160000
        k(   30) = (   0.0000000   0.0000000   0.6206897), wk =   0.0160000
        k(   31) = (   0.0000000   0.2000000   0.0000000), wk =   0.0320000
        k(   32) = (   0.0000000   0.2000000   0.3103448), wk =   0.0640000
        k(   33) = (   0.0000000   0.2000000   0.6206897), wk =   0.0640000
        k(   34) = (   0.0000000   0.4000000   0.0000000), wk =   0.0320000
        k(   35) = (   0.0000000   0.4000000   0.3103448), wk =   0.0640000
        k(   36) = (   0.0000000   0.4000000   0.6206897), wk =   0.0640000
        k(   37) = (   0.2000000   0.2000000   0.0000000), wk =   0.0160000
        k(   38) = (   0.2000000   0.2000000   0.3103448), wk =   0.0320000
        k(   39) = (   0.2000000   0.2000000   0.6206897), wk =   0.0320000
        k(   40) = (   0.2000000   0.4000000   0.0000000), wk =   0.0320000
        k(   41) = (   0.2000000   0.4000000   0.3103448), wk =   0.0640000
        k(   42) = (   0.2000000   0.4000000   0.6206897), wk =   0.0640000
        k(   43) = (   0.4000000   0.4000000   0.0000000), wk =   0.0160000
        k(   44) = (   0.4000000   0.4000000   0.3103448), wk =   0.0320000
        k(   45) = (   0.4000000   0.4000000   0.6206897), wk =   0.0320000
        k(   46) = (  -0.2000000   0.2000000   0.0000000), wk =   0.0160000
        k(   47) = (  -0.2000000   0.2000000  -0.3103448), wk =   0.0320000
        k(   48) = (  -0.2000000   0.2000000  -0.6206897), wk =   0.0320000
        k(   49) = (  -0.2000000   0.4000000   0.0000000), wk =   0.0320000
        k(   50) = (  -0.2000000   0.4000000  -0.3103448), wk =   0.0640000
        k(   51) = (  -0.2000000   0.4000000  -0.6206897), wk =   0.0640000
        k(   52) = (  -0.4000000   0.4000000   0.0000000), wk =   0.0160000
        k(   53) = (  -0.4000000   0.4000000  -0.3103448), wk =   0.0320000
        k(   54) = (  -0.4000000   0.4000000  -0.6206897), wk =   0.0320000

     Dense  grid:    84245 G-vectors     FFT dimensions: (  64,  64,  45)

     Smooth grid:    15235 G-vectors     FFT dimensions: (  36,  36,  24)

     Largest allocated arrays     est. size (Mb)     dimensions
        Kohn-Sham Wavefunctions         0.58 Mb     (    487,   78)
        NL pseudopotentials             0.65 Mb     (    487,   88)
        Each V/rho on FFT grid          1.50 Mb     (  49152,   2)
        Each G-vector array             0.16 Mb     (  21061)
        G-vector shells                 0.16 Mb     (  21061)
     Largest temporary arrays     est. size (Mb)     dimensions
        Auxiliary wavefunctions         2.32 Mb     (    487,  312)
        Each subspace H/S matrix        1.49 Mb     ( 312, 312)
        Each <psi_i|beta_j> matrix      0.10 Mb     (     88,   78)
        Arrays for rho mixing           6.00 Mb     (  49152,   8)

     Check: negative/imaginary core charge=   -0.000007    0.000000

     Initial potential from superposition of free atoms

     starting charge   51.99787, renormalised to   52.00000
     Starting wfc are   42 randomized atomic wfcs

     total cpu time spent up to now is       13.5 secs

     per-process dynamical memory:    61.0 Mb

     Self-consistent Calculation

     iteration #  1     ecut=    40.00 Ry     beta=0.30
     Davidson diagonalization with overlap
     ethr =  1.00E-02,  avg # of iterations =  5.3

     negative rho (up, down):  0.000E+00 0.173E-03

     total cpu time spent up to now is       82.5 secs

     total energy              =    -406.90234197 Ry
     Harris-Foulkes estimate   =    -407.11016973 Ry
     estimated scf accuracy    <       2.48200394 Ry

     total magnetization       =     4.00 Bohr mag/cell
     absolute magnetization    =     4.98 Bohr mag/cell

     iteration #  2     ecut=    40.00 Ry     beta=0.30
     Davidson diagonalization with overlap
     ethr =  4.77E-03,  avg # of iterations =  1.0

     negative rho (up, down):  0.000E+00 0.597E-03

     total cpu time spent up to now is      108.8 secs

     total energy              =    -407.46781147 Ry
     Harris-Foulkes estimate   =    -407.22473017 Ry
     estimated scf accuracy    <       0.44348683 Ry

     total magnetization       =     4.00 Bohr mag/cell
     absolute magnetization    =     5.25 Bohr mag/cell

     iteration #  3     ecut=    40.00 Ry     beta=0.30
     Davidson diagonalization with overlap
     ethr =  8.53E-04,  avg # of iterations =  1.0

     negative rho (up, down):  0.000E+00 0.217E-02

     total cpu time spent up to now is      134.9 secs

     total energy              =    -407.72195135 Ry
     Harris-Foulkes estimate   =    -407.47753327 Ry
     estimated scf accuracy    <       0.21745945 Ry

     total magnetization       =     4.00 Bohr mag/cell
     absolute magnetization    =     4.85 Bohr mag/cell

     iteration #  4     ecut=    40.00 Ry     beta=0.30
     Davidson diagonalization with overlap
     ethr =  4.18E-04,  avg # of iterations =  1.0

     negative rho (up, down):  0.000E+00 0.206E-02

     total cpu time spent up to now is      160.5 secs

     total energy              =    -407.74606754 Ry
     Harris-Foulkes estimate   =    -407.74237802 Ry
     estimated scf accuracy    <       0.01140412 Ry

     total magnetization       =     3.74 Bohr mag/cell
     absolute magnetization    =     3.91 Bohr mag/cell

     iteration #  5     ecut=    40.00 Ry     beta=0.30
     Davidson diagonalization with overlap
     ethr =  2.19E-05,  avg # of iterations =  3.1

     negative rho (up, down):  0.000E+00 0.163E-02

     total cpu time spent up to now is      192.4 secs

     total energy              =    -407.75154016 Ry
     Harris-Foulkes estimate   =    -407.75016025 Ry
     estimated scf accuracy    <       0.00284167 Ry

     total magnetization       =     3.37 Bohr mag/cell
     absolute magnetization    =     3.43 Bohr mag/cell

     iteration #  6     ecut=    40.00 Ry     beta=0.30
     Davidson diagonalization with overlap
     ethr =  5.46E-06,  avg # of iterations =  2.1

     negative rho (up, down):  0.000E+00 0.154E-02

     total cpu time spent up to now is      221.5 secs

     total energy              =    -407.75310286 Ry
     Harris-Foulkes estimate   =    -407.75332416 Ry
     estimated scf accuracy    <       0.00922339 Ry

     total magnetization       =     3.16 Bohr mag/cell
     absolute magnetization    =     3.19 Bohr mag/cell

     iteration #  7     ecut=    40.00 Ry     beta=0.30
     Davidson diagonalization with overlap
     ethr =  5.46E-06,  avg # of iterations =  1.0

     negative rho (up, down):  0.000E+00 0.109E-02

     total cpu time spent up to now is      247.1 secs

     total energy              =    -407.75396639 Ry
     Harris-Foulkes estimate   =    -407.75354733 Ry
     estimated scf accuracy    <       0.00162961 Ry

     total magnetization       =     3.11 Bohr mag/cell
     absolute magnetization    =     3.13 Bohr mag/cell

     iteration #  8     ecut=    40.00 Ry     beta=0.30
     Davidson diagonalization with overlap
     ethr =  3.13E-06,  avg # of iterations =  1.9

     negative rho (up, down):  0.000E+00 0.929E-03

     total cpu time spent up to now is      275.8 secs

     total energy              =    -407.75625336 Ry
     Harris-Foulkes estimate   =    -407.75566126 Ry
     estimated scf accuracy    <       0.00057025 Ry

     total magnetization       =     2.75 Bohr mag/cell
     absolute magnetization    =     2.77 Bohr mag/cell

     iteration #  9     ecut=    40.00 Ry     beta=0.30
     Davidson diagonalization with overlap
     ethr =  1.10E-06,  avg # of iterations =  1.4

     negative rho (up, down):  0.000E+00 0.783E-03

     total cpu time spent up to now is      303.3 secs

     total energy              =    -407.75712949 Ry
     Harris-Foulkes estimate   =    -407.75648753 Ry
     estimated scf accuracy    <       0.00049226 Ry

     total magnetization       =     2.62 Bohr mag/cell
     absolute magnetization    =     2.63 Bohr mag/cell

     iteration # 10     ecut=    40.00 Ry     beta=0.30
     Davidson diagonalization with overlap
     ethr =  9.47E-07,  avg # of iterations =  1.2

     negative rho (up, down):  0.000E+00 0.396E-03

     total cpu time spent up to now is      330.5 secs

     total energy              =    -407.75629650 Ry
     Harris-Foulkes estimate   =    -407.75740797 Ry
     estimated scf accuracy    <       0.00044640 Ry

     total magnetization       =     2.47 Bohr mag/cell
     absolute magnetization    =     2.48 Bohr mag/cell

     iteration # 11     ecut=    40.00 Ry     beta=0.30
     Davidson diagonalization with overlap
     ethr =  8.58E-07,  avg # of iterations =  3.0

     negative rho (up, down):  0.000E+00 0.418E-03

     total cpu time spent up to now is      371.1 secs

     total energy              =    -407.75904033 Ry
     Harris-Foulkes estimate   =    -407.75910732 Ry
     estimated scf accuracy    <       0.00030889 Ry

     total magnetization       =     1.99 Bohr mag/cell
     absolute magnetization    =     2.00 Bohr mag/cell

     iteration # 12     ecut=    40.00 Ry     beta=0.30
     Davidson diagonalization with overlap
     ethr =  5.94E-07,  avg # of iterations =  1.0

     negative rho (up, down):  0.000E+00 0.397E-03

     total cpu time spent up to now is      397.8 secs

     total energy              =    -407.75912206 Ry
     Harris-Foulkes estimate   =    -407.75906163 Ry
     estimated scf accuracy    <       0.00011913 Ry

     total magnetization       =     2.00 Bohr mag/cell
     absolute magnetization    =     2.01 Bohr mag/cell

     iteration # 13     ecut=    40.00 Ry     beta=0.30
     Davidson diagonalization with overlap
     ethr =  2.29E-07,  avg # of iterations =  1.0

     negative rho (up, down):  0.000E+00 0.198E-03

     total cpu time spent up to now is      424.5 secs

     total energy              =    -407.75846369 Ry
     Harris-Foulkes estimate   =    -407.75914404 Ry
     estimated scf accuracy    <       0.00006433 Ry

     total magnetization       =     1.96 Bohr mag/cell
     absolute magnetization    =     1.97 Bohr mag/cell

     iteration # 14     ecut=    40.00 Ry     beta=0.30
     Davidson diagonalization with overlap
     ethr =  1.24E-07,  avg # of iterations =  2.7

     negative rho (up, down):  0.000E+00 0.201E-03

     total cpu time spent up to now is      459.7 secs

     total energy              =    -407.75968191 Ry
     Harris-Foulkes estimate   =    -407.75966419 Ry
     estimated scf accuracy    <       0.00023047 Ry

     total magnetization       =     1.65 Bohr mag/cell
     absolute magnetization    =     1.66 Bohr mag/cell

     iteration # 15     ecut=    40.00 Ry     beta=0.30
     Davidson diagonalization with overlap
     ethr =  1.24E-07,  avg # of iterations =  1.8

     negative rho (up, down):  0.000E+00 0.181E-03

     total cpu time spent up to now is      488.6 secs

     total energy              =    -407.75970391 Ry
     Harris-Foulkes estimate   =    -407.75970319 Ry
     estimated scf accuracy    <       0.00004838 Ry

     total magnetization       =     1.65 Bohr mag/cell
     absolute magnetization    =     1.66 Bohr mag/cell

     iteration # 16     ecut=    40.00 Ry     beta=0.30
     Davidson diagonalization with overlap
     ethr =  9.30E-08,  avg # of iterations =  2.0

     negative rho (up, down):  0.000E+00 0.187E-03

     total cpu time spent up to now is      518.6 secs

     total energy              =    -407.75974081 Ry
     Harris-Foulkes estimate   =    -407.75973979 Ry
     estimated scf accuracy    <       0.00002069 Ry

     total magnetization       =     1.61 Bohr mag/cell
     absolute magnetization    =     1.62 Bohr mag/cell

     iteration # 17     ecut=    40.00 Ry     beta=0.30
     Davidson diagonalization with overlap
     ethr =  3.98E-08,  avg # of iterations =  1.0

     negative rho (up, down):  0.000E+00 0.210E-03

     total cpu time spent up to now is      545.2 secs

     total energy              =    -407.75970504 Ry
     Harris-Foulkes estimate   =    -407.75974425 Ry
     estimated scf accuracy    <       0.00002961 Ry

     total magnetization       =     1.62 Bohr mag/cell
     absolute magnetization    =     1.63 Bohr mag/cell

     iteration # 18     ecut=    40.00 Ry     beta=0.30
     Davidson diagonalization with overlap
     ethr =  3.98E-08,  avg # of iterations =  2.0

     negative rho (up, down):  0.000E+00 0.200E-03

     total cpu time spent up to now is      575.4 secs

     total energy              =    -407.75973816 Ry
     Harris-Foulkes estimate   =    -407.75972997 Ry
     estimated scf accuracy    <       0.00000435 Ry

     total magnetization       =     1.66 Bohr mag/cell
     absolute magnetization    =     1.67 Bohr mag/cell

     iteration # 19     ecut=    40.00 Ry     beta=0.30
     Davidson diagonalization with overlap
     ethr =  8.37E-09,  avg # of iterations =  2.0

     negative rho (up, down):  0.000E+00 0.197E-03

     total cpu time spent up to now is      605.4 secs

     End of self-consistent calculation

 ------ SPIN UP ------------


          k = 0.0000 0.0000 0.0000 (  1899 PWs)   bands (ev):

   -48.9013 -48.8855 -23.0955 -23.0955 -23.0504 -23.0064 -22.9087 -22.9086
    -7.1572  -6.3892  -5.2192  -5.2188   4.6596   4.7461   5.7779   6.3853
     6.3855   8.5636   8.5637   9.0649  10.0282  10.1983  10.1983  10.7916
    12.3763  12.7818  13.1228  13.1229  13.2502  16.2496  16.3783  18.2220
    19.2115  19.2117  20.6077  22.1544  22.1545  25.5883  27.4624  27.9165
    28.4499  29.1654  29.8575  29.8576  32.2681  32.6321  33.3737  33.3738
    34.3162  34.3162  35.6820  38.9766  38.9767  39.1512  39.9245  40.0197
    41.8076  42.7429  42.7430  42.9746  43.2133  43.2202  43.3459  43.3459
    44.2670  45.1646  45.1647  46.1179  47.3614  49.5389  49.5390  49.6474
    50.0490  50.7669  50.7670  50.9630  51.6662  52.1207

          k = 0.0000 0.0000 0.3103 (  1883 PWs)   bands (ev):

   -48.8846 -48.8718 -23.2497 -23.2157 -23.0499 -23.0499 -22.8949 -22.8949
    -6.7263  -6.0798  -5.5279  -5.5275   5.2005   5.4232   6.2353   6.3755
     6.3757   7.9527   8.6563   9.0120   9.0122   9.4376   9.4379  10.5863
    12.9894  13.1731  13.3488  13.7264  13.7265  15.8691  16.9679  18.6365
    18.6366  19.0059  20.3662  23.7683  23.7684  25.8141  26.5829  27.9118
    28.1015  28.3276  29.3313  29.3314  30.4284  33.9227  34.0330  34.0331
    34.3998  34.4000  36.6305  38.2173  38.3093  38.6036  38.8612  38.8612
    39.2516  40.2111  40.2313  40.2314  44.7270  44.7928  44.7929  46.1560
    46.3405  46.8077  46.8078  46.8667  47.9054  48.5305  48.8437  48.8438
    49.8318  50.5060  50.5060  52.2225  52.8684  53.2318

          k = 0.0000 0.0000 0.6207 (  1896 PWs)   bands (ev):

   -48.8559 -48.8511 -23.5548 -23.5428 -22.9728 -22.9728 -22.8748 -22.8746
    -6.0018  -6.0014  -5.9314  -5.6659   6.0027   6.2351   6.7113   6.7114
     7.0698   7.3943   7.5207   8.1383   8.1385   9.2846   9.5618   9.5618
    13.4190  13.8227  14.3555  14.5363  14.5364  14.6517  17.7154  18.0920
    18.4719  18.4720  22.1354  24.2940  26.0706  26.0707  26.4647  27.3249
    27.8961  28.1528  28.1529  28.1803  28.9190  30.6547  33.8270  33.8270
    35.3851  35.3852  36.5976  37.2777  37.3757  37.8243  38.8327  38.8328
    38.9548  40.7143  40.7143  42.3194  44.5800  44.5801  44.8122  46.5247
    46.5248  47.0843  47.1230  47.1230  47.5387  47.6486  48.7421  50.1620
    50.1621  51.0331  51.3164  52.1639  52.7689  52.7690

          k = 0.0000 0.2000 0.0000 (  1906 PWs)   bands (ev):

   -48.8998 -48.8870 -23.0792 -23.0779 -23.0462 -23.0105 -22.9280 -22.9267
    -7.0186  -6.3417  -5.3771  -5.3177   4.9181   5.0264   6.0413   6.4140
     6.4231   8.1867   8.3084   9.0003   9.4811   9.7462   9.9261  10.6561
    12.6861  13.1174  13.3537  13.4134  13.6318  16.0641  16.6358  18.7563
    19.0207  19.0465  20.1861  22.0393  22.4681  25.5273  26.9824  27.1892
    28.0190  29.5886  30.0106  30.7349  32.4677  32.6188  32.6238  32.7192
    34.3651  35.1078  36.8316  37.7878  38.9759  38.9855  39.9043  40.5523
    41.5291  41.6946  42.5309  43.0919  43.1345  43.7071  44.3877  44.5485
    45.1493  45.4050  45.8767  46.4872  47.3314  48.4234  49.1289  49.3697
    49.7334  49.9687  50.2036  50.2493  50.9471  51.3445

          k = 0.0000 0.2000 0.3103 (  1901 PWs)   bands (ev):

   -48.8834 -48.8730 -23.2498 -23.2219 -23.0347 -23.0336 -22.9090 -22.9084
    -6.6182  -6.0356  -5.6486  -5.5887   5.4232   5.5844   6.1967   6.3682
     6.7674   7.7493   8.0400   8.8842   8.9328   9.3832   9.4279  10.4558
    12.9548  13.5401  13.5637  13.6898  14.0674  15.6455  17.2016  18.0384
    18.4588  19.7605  20.2083  23.3241  23.9725  26.0419  26.5883  27.1851
    28.0344  28.1840  28.7307  30.3684  31.0244  32.9551  33.7655  33.9243
    34.3256  34.8887  37.2428  37.6140  37.7496  38.0333  38.6563  39.4458
    40.0425  40.5259  40.8976  41.9011  44.8513  44.9384  45.0158  45.4202
    46.1445  46.5437  46.8888  47.0209  48.3595  48.5550  48.5804  48.7543
    49.0954  50.0715  50.8316  51.6725  52.2326  52.8127

          k = 0.0000 0.2000 0.6207 (  1900 PWs)   bands (ev):

   -48.8555 -48.8515 -23.5566 -23.5468 -22.9675 -22.9669 -22.8779 -22.8773
    -6.2334  -6.1707  -5.6587  -5.5047   5.8953   6.0370   6.3118   6.6719
     7.1759   7.4822   7.9670   8.3211   8.5054   9.3260   9.3724   9.5651
    12.9984  13.8341  13.9826  14.3614  14.7867  15.0022  17.4259  17.5402
    18.7773  19.2604  22.1009  23.8673  25.4522  26.1196  26.5471  26.9117
    27.6025  27.9847  28.3421  28.6959  30.0872  30.6225  33.4188  33.6375
    34.8080  35.3675  36.5366  36.7948  38.0529  38.1806  38.9660  39.5029
    40.2769  40.3772  40.5958  43.0650  44.5594  44.9108  45.1550  45.4922
    46.2849  46.3745  46.7320  47.4737  47.9125  48.1618  48.5462  49.6681
    49.9555  50.9821  51.2950  52.2798  53.1671  53.3653

          k = 0.0000 0.4000 0.0000 (  1900 PWs)   bands (ev):

   -48.8958 -48.8910 -23.0352 -23.0349 -23.0315 -23.0215 -22.9772 -22.9738
    -6.6624  -6.3359  -5.6305  -5.5376   5.5056   5.5827   6.4705   6.4810
     6.8462   7.5190   7.5918   8.1193   8.9871   9.2604   9.9249  10.2794
    13.1619  13.3683  13.7650  13.8197  14.4338  15.3191  17.7186  18.7133
    18.7418  19.0746  20.0023  21.2894  23.4346  24.8430  26.5303  26.6120
    28.0777  29.4655  30.1786  30.7530  30.8994  32.1141  33.4806  34.6661
    34.7517  36.0058  36.8901  37.7794  38.8979  38.9112  39.0197  39.1053
    41.4403  41.6733  42.6610  43.2937  44.0026  44.2519  44.7391  45.0629
    46.2676  46.2936  47.2064  47.3848  47.4812  47.6822  48.6045  48.6154
    48.8479  49.3597  49.6694  50.0910  50.4122  50.7164

          k = 0.0000 0.4000 0.3103 (  1899 PWs)   bands (ev):

   -48.8802 -48.8762 -23.2459 -23.2350 -22.9971 -22.9949 -22.9449 -22.9432
    -6.3304  -5.9739  -5.8955  -5.7386   5.9539   5.9541   6.3185   6.3333
     7.1164   7.3155   7.8466   8.3410   8.3557   8.8690   9.8610  10.1787
    13.2683  13.5544  13.9564  14.0501  14.6055  15.1135  17.4852  17.5431
    18.5046  19.3134  21.1511  22.3274  24.6903  25.8195  26.5352  26.7424
    27.7828  27.8156  28.7309  30.1647  31.7707  32.7492  33.6302  34.2411
    34.4563  35.3275  36.6651  36.8315  37.8119  37.9496  38.9997  39.2037
    40.5901  41.9685  42.4059  43.1796  43.9749  44.5484  45.3290  45.5007
    46.1282  46.5944  46.9122  46.9140  48.0333  48.4047  48.4528  48.5658
    49.6992  50.3769  50.8244  51.6496  51.8771  52.6849

          k = 0.0000 0.4000 0.6207 (  1897 PWs)   bands (ev):

   -48.8542 -48.8527 -23.5581 -23.5543 -22.9576 -22.9569 -22.8835 -22.8828
    -6.3717  -6.3453  -5.4271  -5.3696   5.7311   5.7332   6.1924   6.3073
     7.5371   7.9574   8.0540   8.7243   8.8174   8.9370   9.3716   9.8953
    12.5364  12.9708  14.2342  14.3621  15.0543  15.1199  17.0467  17.1875
    19.4077  19.7449  22.3042  23.0106  25.2900  25.6724  26.2485  26.4243
    27.3903  27.9954  29.2107  29.4142  30.3154  30.7109  32.8820  33.2661
    35.1291  35.4589  36.5776  36.6125  38.2693  38.3927  39.5201  39.7378
    40.6886  40.7610  42.8763  43.2020  43.3094  44.0051  45.2527  45.2639
    46.2763  46.3230  46.7441  47.4486  47.8640  47.8697  49.2316  50.0219
    50.8559  51.1131  51.6188  51.8397  52.3315  52.7183

          k = 0.2000 0.2000 0.0000 (  1915 PWs)   bands (ev):

   -48.8986 -48.8883 -23.1009 -23.0428 -23.0285 -23.0139 -22.9797 -22.9050
    -6.9364  -6.3095  -5.5808  -5.2535   4.7065   5.5756   6.2809   6.3627
     6.4838   7.5752   8.5122   8.9666   9.2885   9.7093   9.7287  10.5348
    12.4905  13.1341  13.3394  13.7928  13.9642  15.8765  16.8146  18.7283
    19.2064  19.3616  19.7668  22.2398  22.4559  25.3719  26.0724  26.8539
    28.0536  29.7328  30.0112  32.2360  32.5669  32.5957  32.8949  33.3655
    33.3729  34.8156  36.7998  36.9185  38.5268  39.5140  39.5262  39.8964
    41.3672  42.2615  42.5605  43.8336  43.9483  44.4337  44.7584  44.9980
    45.0133  45.3139  46.1789  47.4236  47.4314  47.8229  47.8948  49.0398
    49.2259  49.4383  50.2476  50.7023  51.6996  51.7831

          k = 0.2000 0.2000 0.3103 (  1898 PWs)   bands (ev):

   -48.8824 -48.8740 -23.2480 -23.2250 -23.0543 -22.9926 -22.9469 -22.8922
    -6.5456  -5.9815  -5.8157  -5.5581   5.3097   5.9422   6.0936   6.4834
     6.9606   7.3958   8.3176   8.3760   8.9018   9.3899   9.5953  10.2882
    12.9821  13.2111  13.6773  14.1293  14.1882  15.4655  17.2916  17.7779
    18.6109  19.6888  20.4966  23.2909  23.7426  26.0758  26.3495  26.5223
    27.9435  28.1466  29.8454  30.0646  31.2958  32.4700  33.2925  34.3128
    34.5300  35.1907  36.8728  37.3520  37.8698  37.9422  39.2132  39.5531
    39.9573  40.9055  42.2451  42.2688  44.3619  44.3851  45.0597  45.4368
    45.9996  46.6706  46.9525  47.7602  48.0855  48.4352  48.4402  48.8558
    49.0432  49.6191  50.2091  50.8559  52.8693  52.9787

          k = 0.2000 0.2000 0.6207 (  1900 PWs)   bands (ev):

   -48.8551 -48.8518 -23.5573 -23.5475 -22.9745 -22.9566 -22.8834 -22.8745
    -6.3618  -6.0271  -5.7773  -5.3871   5.7839   6.1247   6.3256   6.4440
     6.8747   7.9756   8.0540   8.3329   8.6797   9.0382   9.4973   9.7721
    12.7874  14.0093  14.0508  14.1615  14.4438  15.2280  17.0184  18.1317
    18.4435  19.5462  22.1139  23.8128  24.4399  25.9719  26.2502  26.7667
    27.7723  28.2036  28.4424  29.5540  30.0956  31.0392  32.8671  33.5363
    34.6276  35.2221  35.8841  37.8425  38.2995  39.0102  39.4552  39.9818
    40.2969  40.3275  41.1592  43.3402  44.0717  44.6980  45.1888  45.6379
    45.6613  46.2412  46.6765  47.1933  47.6929  48.1359  48.6674  49.5935
    49.7236  50.7594  51.7497  51.9026  52.5152  52.8081

          k = 0.2000 0.4000 0.0000 (  1891 PWs)   bands (ev):

   -48.8953 -48.8914 -23.0869 -23.0409 -23.0338 -23.0228 -22.9687 -22.9212
    -6.7075  -6.4187  -5.6068  -5.3890   4.9748   5.5602   6.3874   6.4626
     6.9801   7.5825   8.0400   8.7085   9.0932   9.4375   9.5740  10.0744
    12.8245  13.2680  13.3958  13.7995  14.6371  15.3407  17.6141  18.7247
    18.7592  19.0280  20.5252  21.6310  23.3558  24.6798  25.5770  25.9621
    28.3816  29.2355  31.1692  31.8958  32.0312  32.3888  33.3871  34.5113
    34.5383  35.0150  36.1347  37.1396  37.9668  38.1350  38.7086  39.9621
    41.5511  41.6971  43.1529  43.6448  44.2575  44.3529  45.5371  45.7115
    46.1939  46.3244  46.5953  47.8080  47.8367  48.0958  48.2422  48.6459
    49.2430  49.4004  49.8303  50.3604  50.6501  51.6393

          k = 0.2000 0.4000 0.3103 (  1906 PWs)   bands (ev):

   -48.8798 -48.8766 -23.2426 -23.2336 -23.0409 -23.0015 -22.9393 -22.9041
    -6.3512  -6.0900  -5.8238  -5.6522   5.5168   5.9741   6.1463   6.2950
     7.3249   7.5728   8.0769   8.4391   8.6860   9.0702   9.6055   9.9304
    13.2779  13.4457  13.6723  14.0753  14.5500  15.0152  17.5326  17.9005
    18.5240  19.1142  21.4450  22.4518  24.3168  25.3811  26.1379  26.2111
    28.0138  28.0727  29.6127  30.2398  31.5441  32.1971  33.6083  34.8235
    34.9050  35.3803  36.6949  36.7412  38.0066  38.4826  38.9327  39.5778
    40.5701  41.4891  42.5001  43.1043  43.9545  44.8432  44.9820  45.5760
    45.7149  46.7000  46.9782  47.2832  47.5833  48.2888  48.3476  48.7300
    49.6992  49.9767  50.7257  50.9491  51.4012  52.1593

          k = 0.2000 0.4000 0.6207 (  1906 PWs)   bands (ev):

   -48.8541 -48.8528 -23.5561 -23.5513 -22.9695 -22.9582 -22.8830 -22.8772
    -6.3627  -6.2096  -5.5695  -5.3887   5.7054   5.8771   6.2595   6.4807
     7.0428   7.7103   8.2176   8.4662   8.8316   9.2286   9.5839   9.9985
    12.6739  13.2316  14.1772  14.3115  14.6525  15.0697  17.0967  17.6274
    19.0758  19.5870  22.3463  23.0445  24.2565  24.9911  26.1932  26.7114
    27.7171  27.9847  29.1588  29.8010  30.4688  31.4047  32.5206  33.2806
    35.2315  35.5769  36.0078  37.2821  38.8938  39.2246  39.8746  40.0245
    41.0331  41.7041  42.5639  43.2421  43.3340  43.9806  44.9372  45.1819
    45.6206  45.9975  46.2560  46.8501  47.9386  48.6784  48.9183  49.2544
    49.5730  50.2359  51.0689  51.3768  52.3311  52.8934

          k = 0.4000 0.4000 0.0000 (  1894 PWs)   bands (ev):

   -48.8941 -48.8926 -23.1095 -23.0921 -23.0304 -23.0261 -22.9176 -22.8993
    -6.7179  -6.6040  -5.4201  -5.3077   4.7188   4.9831   6.3264   6.3682
     7.5546   8.1194   8.4146   8.9213   9.2709   9.3998   9.5956   9.8647
    12.4455  12.8070  13.1539  13.4067  15.0116  15.2718  17.7499  18.1907
    19.0237  19.1992  21.3994  21.9425  23.4468  24.1857  24.8200  25.0441
    28.8151  29.2363  32.3344  32.8882  33.3057  33.4306  33.5556  33.7536
    34.0934  34.2086  35.2135  36.2309  37.0158  38.2513  38.8902  40.0839
    40.8737  41.8216  42.3125  42.8792  44.1738  45.0995  45.9051  46.1239
    46.2441  46.3538  47.6275  47.9436  48.3921  48.5483  48.7000  49.1348
    49.5208  49.7690  50.5251  50.6106  50.8710  51.3732

          k = 0.4000 0.4000 0.3103 (  1916 PWs)   bands (ev):

   -48.8788 -48.8776 -23.2359 -23.2322 -23.0614 -23.0450 -22.9013 -22.8878
    -6.3431  -6.2513  -5.6818  -5.6063   5.3245   5.5249   6.0520   6.1328
     7.9398   8.1053   8.3331   8.7243   9.0205   9.1243   9.2151   9.5016
    13.1846  13.4367  13.4911  13.6764  14.5914  14.7813  17.9893  18.2192
    18.5647  18.7195  22.0182  22.4890  23.9797  24.5246  25.9203  25.9852
    27.8947  28.0472  29.8479  30.2525  31.6091  32.4749  33.9641  35.1572
    35.1980  35.4030  36.8828  37.3368  38.2710  38.9241  39.3999  39.9151
    40.7943  40.8769  42.3208  42.3660  43.9192  44.5495  45.1614  45.2149
    45.7560  45.7569  46.2171  46.8684  47.3627  48.5171  48.6686  49.1222
    49.6870  49.9168  51.1420  51.3070  51.7527  52.2004

          k = 0.4000 0.4000 0.6207 (  1922 PWs)   bands (ev):

   -48.8537 -48.8532 -23.5510 -23.5483 -22.9773 -22.9709 -22.8771 -22.8742
    -6.2198  -6.0676  -5.7185  -5.5515   5.8262   6.0689   6.3912   6.5163
     6.8271   7.2030   8.0518   8.2426   9.1438   9.3418   9.9196  10.1024
    13.1252  13.7168  14.0153  14.1592  14.2285  14.6138  17.6003  18.3343
    18.3831  19.0763  22.3760  22.6939  24.0530  24.7851  25.3754  26.1020
    27.6047  27.7907  29.9150  30.1039  31.1577  31.6652  32.7493  33.2129
    36.0417  36.0578  36.0853  37.2526  39.2458  39.3437  41.0206  41.3167
    41.6877  41.9910  42.9232  43.2964  43.9596  44.0313  44.7692  44.7812
    45.2545  45.2582  45.8483  46.0809  47.0287  47.1587  47.3502  49.3708
    49.7556  50.1736  50.4923  51.2713  51.5435  51.6658

          k =-0.2000 0.2000 0.0000 (  1915 PWs)   bands (ev):

   -48.8986 -48.8883 -23.1009 -23.0428 -23.0284 -23.0139 -22.9797 -22.9051
    -6.9366  -6.3093  -5.5805  -5.2538   4.7062   5.5758   6.2809   6.3624
     6.4841   7.5754   8.5122   8.9668   9.2883   9.7091   9.7286  10.5348
    12.4903  13.1341  13.3396  13.7928  13.9643  15.8764  16.8146  18.7285
    19.2062  19.3617  19.7668  22.2398  22.4560  25.3719  26.0723  26.8540
    28.0536  29.7328  30.0112  32.2360  32.5668  32.5957  32.8949  33.3655
    33.3729  34.8156  36.7999  36.9185  38.5268  39.5139  39.5263  39.8964
    41.3673  42.2614  42.5605  43.8336  43.9483  44.4337  44.7585  44.9980
    45.0133  45.3138  46.1789  47.4236  47.4314  47.8229  47.8948  49.0399
    49.2259  49.4383  50.2477  50.7022  51.6996  51.7831

          k =-0.2000 0.2000-0.3103 (  1898 PWs)   bands (ev):

   -48.8824 -48.8740 -23.2480 -23.2251 -23.0543 -22.9927 -22.9468 -22.8922
    -6.5457  -5.9813  -5.8154  -5.5585   5.3095   5.9424   6.0934   6.4837
     6.9605   7.3960   8.3174   8.3763   8.9020   9.3896   9.5952  10.2882
    12.9821  13.2109  13.6774  14.1295  14.1883  15.4654  17.2916  17.7780
    18.6108  19.6888  20.4966  23.2908  23.7428  26.0757  26.3495  26.5223
    27.9435  28.1466  29.8454  30.0646  31.2958  32.4700  33.2925  34.3129
    34.5299  35.1907  36.8729  37.3520  37.8698  37.9421  39.2132  39.5531
    39.9573  40.9054  42.2451  42.2688  44.3619  44.3850  45.0597  45.4368
    45.9996  46.6707  46.9527  47.7601  48.0855  48.4352  48.4403  48.8558
    49.0431  49.6192  50.2092  50.8558  52.8693  52.9787

          k =-0.2000 0.2000-0.6207 (  1900 PWs)   bands (ev):

   -48.8551 -48.8518 -23.5573 -23.5476 -22.9744 -22.9567 -22.8832 -22.8746
    -6.3615  -6.0274  -5.7776  -5.3868   5.7841   6.1248   6.3256   6.4438
     6.8746   7.9754   8.0543   8.3327   8.6800   9.0382   9.4974   9.7721
    12.7873  14.0091  14.0508  14.1615  14.4438  15.2281  17.0184  18.1318
    18.4434  19.5463  22.1139  23.8128  24.4399  25.9719  26.2503  26.7667
    27.7723  28.2036  28.4423  29.5540  30.0956  31.0392  32.8671  33.5363
    34.6277  35.2220  35.8841  37.8425  38.2995  39.0101  39.4551  39.9818
    40.2969  40.3275  41.1592  43.3402  44.0717  44.6979  45.1889  45.6379
    45.6615  46.2413  46.6764  47.1934  47.6929  48.1359  48.6674  49.5935
    49.7236  50.7594  51.7497  51.9027  52.5152  52.8081

          k =-0.2000 0.4000 0.0000 (  1891 PWs)   bands (ev):

   -48.8953 -48.8914 -23.0869 -23.0408 -23.0338 -23.0228 -22.9687 -22.9213
    -6.7078  -6.4184  -5.6064  -5.3894   4.9745   5.5604   6.3871   6.4629
     6.9801   7.5827   8.0401   8.7082   9.0934   9.4373   9.5739  10.0744
    12.8243  13.2682  13.3958  13.7995  14.6371  15.3407  17.6141  18.7249
    18.7592  19.0278  20.5253  21.6310  23.3558  24.6798  25.5769  25.9621
    28.3816  29.2355  31.1692  31.8958  32.0312  32.3888  33.3871  34.5112
    34.5383  35.0150  36.1347  37.1396  37.9668  38.1350  38.7086  39.9621
    41.5511  41.6971  43.1530  43.6448  44.2575  44.3529  45.5371  45.7116
    46.1939  46.3244  46.5953  47.8081  47.8368  48.0959  48.2422  48.6459
    49.2430  49.4003  49.8303  50.3604  50.6502  51.6393

          k =-0.2000 0.4000-0.3103 (  1906 PWs)   bands (ev):

   -48.8798 -48.8766 -23.2425 -23.2336 -23.0409 -23.0015 -22.9392 -22.9042
    -6.3514  -6.0897  -5.8235  -5.6525   5.5165   5.9744   6.1461   6.2952
     7.3250   7.5727   8.0767   8.4394   8.6861   9.0699   9.6055   9.9304
    13.2779  13.4456  13.6722  14.0755  14.5501  15.0152  17.5326  17.9004
    18.5239  19.1143  21.4451  22.4518  24.3169  25.3810  26.1378  26.2112
    28.0138  28.0727  29.6127  30.2398  31.5441  32.1971  33.6083  34.8235
    34.9049  35.3803  36.6950  36.7412  38.0066  38.4826  38.9327  39.5778
    40.5701  41.4891  42.5001  43.1043  43.9544  44.8432  44.9820  45.5760
    45.7149  46.7001  46.9782  47.2832  47.5833  48.2888  48.3476  48.7300
    49.6992  49.9767  50.7256  50.9491  51.4012  52.1594

          k =-0.2000 0.4000-0.6207 (  1906 PWs)   bands (ev):

   -48.8541 -48.8528 -23.5560 -23.5514 -22.9694 -22.9583 -22.8828 -22.8773
    -6.3623  -6.2100  -5.5699  -5.3884   5.7055   5.8770   6.2597   6.4805
     7.0426   7.7104   8.2175   8.4664   8.8315   9.2287   9.5840   9.9985
    12.6739  13.2316  14.1770  14.3117  14.6524  15.0698  17.0968  17.6274
    19.0757  19.5871  22.3463  23.0445  24.2566  24.9911  26.1933  26.7114
    27.7171  27.9846  29.1588  29.8010  30.4688  31.4048  32.5207  33.2805
    35.2316  35.5769  36.0079  37.2820  38.8939  39.2246  39.8745  40.0245
    41.0331  41.7040  42.5639  43.2421  43.3340  43.9806  44.9372  45.1819
    45.6205  45.9976  46.2560  46.8502  47.9386  48.6784  48.9183  49.2543
    49.5730  50.2359  51.0689  51.3768  52.3311  52.8934

          k =-0.4000 0.4000 0.0000 (  1894 PWs)   bands (ev):

   -48.8941 -48.8926 -23.1095 -23.0920 -23.0304 -23.0261 -22.9175 -22.8993
    -6.7182  -6.6037  -5.4197  -5.3080   4.7185   4.9833   6.3261   6.3685
     7.5546   8.1194   8.4148   8.9212   9.2709   9.4001   9.5953   9.8646
    12.4453  12.8072  13.1539  13.4067  15.0116  15.2717  17.7499  18.1907
    19.0239  19.1990  21.3994  21.9425  23.4468  24.1857  24.8200  25.0441
    28.8151  29.2363  32.3344  32.8882  33.3057  33.4305  33.5555  33.7536
    34.0934  34.2086  35.2136  36.2309  37.0158  38.2514  38.8902  40.0839
    40.8736  41.8216  42.3125  42.8792  44.1738  45.0994  45.9051  46.1239
    46.2439  46.3538  47.6275  47.9436  48.3921  48.5484  48.7000  49.1348
    49.5207  49.7691  50.5251  50.6105  50.8711  51.3732

          k =-0.4000 0.4000-0.3103 (  1916 PWs)   bands (ev):

   -48.8788 -48.8776 -23.2358 -23.2322 -23.0614 -23.0450 -22.9013 -22.8878
    -6.3434  -6.2510  -5.6814  -5.6067   5.3243   5.5252   6.0519   6.1330
     7.9400   8.1052   8.3328   8.7246   9.0207   9.1243   9.2150   9.5014
    13.1844  13.4368  13.4912  13.6763  14.5915  14.7812  17.9893  18.2192
    18.5645  18.7196  22.0183  22.4890  23.9797  24.5245  25.9202  25.9853
    27.8947  28.0473  29.8480  30.2524  31.6091  32.4749  33.9642  35.1571
    35.1979  35.4031  36.8828  37.3368  38.2710  38.9241  39.3998  39.9152
    40.7943  40.8769  42.3208  42.3660  43.9193  44.5495  45.1614  45.2149
    45.7559  45.7568  46.2172  46.8684  47.3626  48.5172  48.6687  49.1221
    49.6869  49.9168  51.1420  51.3071  51.7528  52.2004

          k =-0.4000 0.4000-0.6207 (  1922 PWs)   bands (ev):

   -48.8537 -48.8532 -23.5509 -23.5485 -22.9772 -22.9710 -22.8769 -22.8743
    -6.2195  -6.0680  -5.7188  -5.5511   5.8263   6.0689   6.3911   6.5164
     6.8269   7.2031   8.0516   8.2428   9.1435   9.3421   9.9197  10.1023
    13.1251  13.7169  14.0152  14.1590  14.2287  14.6139  17.6004  18.3343
    18.3829  19.0763  22.3760  22.6939  24.0530  24.7852  25.3753  26.1020
    27.6048  27.7906  29.9150  30.1039  31.1577  31.6652  32.7494  33.2127
    36.0417  36.0578  36.0854  37.2525  39.2459  39.3436  41.0206  41.3166
    41.6877  41.9910  42.9231  43.2963  43.9596  44.0313  44.7692  44.7812
    45.2546  45.2582  45.8483  46.0808  47.0288  47.1587  47.3503  49.3707
    49.7556  50.1736  50.4923  51.2712  51.5435  51.6658

 ------ SPIN DOWN ----------


          k = 0.0000 0.0000 0.0000 (  1899 PWs)   bands (ev):

   -48.4000 -48.3839 -22.6219 -22.6218 -22.3979 -22.3770 -22.3769 -22.3526
    -7.0978  -6.3352  -5.1701  -5.1698   4.8257   4.9651   5.9182   6.5544
     6.5546   8.6336   8.6336   9.1293  10.0801  10.2417  10.2417  10.8485
    13.0301  13.2826  13.7146  14.0965  14.0965  16.6329  16.7559  18.4156
    19.5381  19.5383  20.8670  22.3785  22.3785  25.6597  27.6924  28.2586
    28.6783  29.2984  30.0859  30.0860  32.7637  32.8652  33.7670  33.7671
    34.6014  34.6014  35.7498  39.1800  39.1801  39.3267  40.0869  40.4588
    41.9041  42.8666  42.8667  43.2340  43.3760  43.4908  43.4909  43.7789
    44.5430  45.3633  45.3634  46.1818  47.6929  49.7828  49.7829  50.0277
    50.5303  51.0382  51.0383  51.3595  51.7834  52.3102

          k = 0.0000 0.0000 0.3103 (  1883 PWs)   bands (ev):

   -48.3832 -48.3701 -22.6043 -22.5695 -22.5676 -22.5675 -22.3704 -22.3703
    -6.6638  -6.0219  -5.4760  -5.4757   5.3559   5.6251   6.3725   6.5484
     6.5486   8.0586   8.7854   9.1167   9.1168   9.5726   9.5728  10.6205
    13.4738  13.6671  13.9719  14.5127  14.5127  16.2474  17.3592  18.9934
    18.9935  19.2003  20.6063  24.0032  24.0033  25.8894  26.7842  28.1465
    28.4347  28.4783  29.5455  29.5456  30.8782  34.0805  34.3123  34.3123
    34.7933  34.7933  36.9698  38.4620  38.4626  38.7563  39.0454  39.0454
    39.6273  40.4559  40.4560  40.4926  44.9997  45.0200  45.0200  46.2405
    46.6570  46.9254  46.9254  47.1328  48.1211  48.9296  49.0482  49.0482
    50.0339  50.7404  50.7405  52.4881  53.0632  53.4902

          k = 0.0000 0.0000 0.6207 (  1896 PWs)   bands (ev):

   -48.3544 -48.3494 -22.9195 -22.9073 -22.4638 -22.4637 -22.3742 -22.3741
    -5.9468  -5.9465  -5.8662  -5.6027   6.1513   6.4086   6.9496   6.9497
     7.1781   7.5228   7.6448   8.3081   8.3083   9.3697   9.6332   9.6332
    13.8476  14.3859  15.0143  15.0400  15.2356  15.2357  18.1208  18.3991
    18.8040  18.8041  22.2813  24.4645  26.3195  26.3195  26.5455  27.4123
    28.2530  28.3727  28.3727  28.4958  29.2606  30.9309  34.0645  34.0645
    35.5861  35.5861  36.8486  37.4454  37.6201  38.1170  39.2062  39.2063
    39.2787  41.1690  41.1691  42.5328  44.7795  44.7795  44.9579  46.7310
    46.7311  47.1961  47.3174  47.3175  48.0196  48.1266  48.8785  50.4678
    50.4679  51.1205  51.5475  52.4231  52.9967  52.9967

          k = 0.0000 0.2000 0.0000 (  1906 PWs)   bands (ev):

   -48.3984 -48.3854 -22.6091 -22.6081 -22.3937 -22.3926 -22.3916 -22.3569
    -6.9594  -6.2874  -5.3265  -5.2678   5.0837   5.2415   6.1796   6.5780
     6.5860   8.2855   8.3985   9.0986   9.5737   9.8482   9.9812  10.7067
    13.3001  13.6254  14.0697  14.3088  14.3541  16.4444  16.9841  18.9375
    19.3365  19.3627  20.4473  22.2327  22.7007  25.6492  27.1946  27.4425
    28.3615  29.7237  30.2003  31.0545  32.6682  32.8426  32.9791  33.1133
    34.7004  35.4286  37.1239  37.9584  39.1478  39.2000  40.2360  40.7975
    41.6351  41.8655  42.6650  43.3566  43.4236  43.8887  44.5559  44.8481
    45.4936  45.5529  46.0583  46.6075  47.6528  48.7708  49.3632  49.5826
    49.9990  50.1263  50.4820  50.7059  51.0944  51.7218

          k = 0.0000 0.2000 0.3103 (  1901 PWs)   bands (ev):

   -48.3819 -48.3714 -22.6105 -22.5775 -22.5560 -22.5495 -22.3801 -22.3785
    -6.5563  -5.9779  -5.5954  -5.5361   5.5777   5.7781   6.3547   6.5391
     6.9196   7.8840   8.1990   8.9681   9.0125   9.5297   9.5687  10.5019
    13.5303  14.0370  14.1549  14.4867  14.7787  16.0445  17.5711  18.3592
    18.7950  20.0133  20.4111  23.5018  24.2124  26.1767  26.8067  27.4010
    28.3074  28.4066  28.9304  30.7603  31.2921  33.3076  34.0793  34.1767
    34.5809  35.1439  37.5512  37.9108  37.9706  38.2130  38.9356  39.7322
    40.3071  40.6533  41.1330  42.1029  45.0157  45.1590  45.2524  45.6821
    46.3567  46.8334  47.1557  47.1900  48.6523  48.7280  48.8651  48.9583
    49.3239  50.2737  51.0570  51.9490  52.4499  53.0770

          k = 0.0000 0.2000 0.6207 (  1900 PWs)   bands (ev):

   -48.3539 -48.3499 -22.9222 -22.9121 -22.4601 -22.4589 -22.3754 -22.3743
    -6.1760  -6.1148  -5.5965  -5.4426   6.0812   6.2491   6.4786   6.8683
     7.3073   7.6057   8.0836   8.4839   8.6528   9.4073   9.4654   9.6401
    13.5099  14.3688  14.5666  15.0192  15.4303  15.5655  17.7635  17.9380
    19.0980  19.5627  22.2436  24.0304  25.5925  26.3569  26.6884  27.1275
    27.8266  28.2141  28.6552  29.0421  30.3423  30.9236  33.6894  33.8942
    35.0659  35.5906  36.7541  37.0102  38.3191  38.3730  39.3038  39.8288
    40.6924  40.7336  40.9945  43.2853  44.7521  45.1334  45.3206  45.6613
    46.5143  46.6581  46.9265  47.8442  48.1658  48.5004  48.7513  49.9727
    50.2351  51.1518  51.5416  52.5383  53.4093  53.5566

          k = 0.0000 0.4000 0.0000 (  1900 PWs)   bands (ev):

   -48.3944 -48.3894 -22.5827 -22.5814 -22.4223 -22.4209 -22.3823 -22.3683
    -6.6041  -6.2799  -5.5783  -5.4863   5.6763   5.7805   6.6246   6.6335
     6.9827   7.6492   7.7128   8.2479   9.1372   9.4158   9.9765  10.3296
    13.7366  13.9138  14.6987  14.7439  14.8427  15.7091  18.0116  19.0054
    19.0349  19.3400  20.1627  21.4424  23.6886  25.0994  26.6867  26.7983
    28.4497  29.8355  30.3520  30.8944  31.0719  32.2873  33.9456  34.9573
    35.0560  36.2908  37.1854  37.9879  39.0971  39.1366  39.2638  39.3838
    41.6788  41.8392  42.8348  43.5862  44.1973  44.4221  44.9366  45.3160
    46.4333  46.6017  47.5350  47.5356  47.6216  48.0070  48.8509  48.8545
    49.1044  49.6337  50.0160  50.2870  50.8601  50.9455

          k = 0.0000 0.4000 0.3103 (  1899 PWs)   bands (ev):

   -48.3787 -48.3747 -22.6088 -22.5944 -22.5329 -22.5270 -22.3975 -22.3952
    -6.2704  -5.9155  -5.8411  -5.6843   6.1049   6.1246   6.4907   6.5046
     7.2659   7.4871   8.0038   8.4488   8.4612   9.0116   9.9582  10.2540
    13.9482  14.3054  14.4793  14.5926  15.2469  15.6010  17.8185  17.8519
    18.7892  19.5810  21.3123  22.4737  24.9455  26.0859  26.7006  26.9435
    27.9322  28.0035  29.0712  30.5274  32.1412  33.1278  33.8838  34.4452
    34.6840  35.6093  36.8997  37.0667  38.0358  38.2331  39.2158  39.3983
    40.8772  42.2424  42.6063  43.4392  44.1624  44.8070  45.5543  45.7534
    46.3922  46.8511  47.1269  47.1503  48.2460  48.5620  48.7485  48.8999
    49.9475  50.5877  51.0243  51.9472  52.1105  52.9695

          k = 0.0000 0.4000 0.6207 (  1897 PWs)   bands (ev):

   -48.3526 -48.3511 -22.9250 -22.9211 -22.4531 -22.4518 -22.3766 -22.3755
    -6.3156  -6.2896  -5.3646  -5.3073   5.9580   5.9593   6.3495   6.4659
     7.6504   8.0610   8.1661   8.7997   8.9716   9.0362   9.4968   9.9381
    13.1485  13.5526  14.8442  15.0027  15.6557  15.6962  17.4097  17.5752
    19.7002  20.0307  22.4450  23.1563  25.4333  25.8295  26.4454  26.6268
    27.6394  28.2559  29.4774  29.7506  30.6787  30.9927  33.1550  33.5261
    35.4241  35.7293  36.8597  36.8983  38.4958  38.5829  39.6956  39.9699
    40.9506  41.1528  43.1739  43.5297  43.5835  44.2386  45.4931  45.5657
    46.4764  46.5715  46.9880  47.6758  48.1711  48.2037  49.4791  50.3270
    51.0708  51.3243  51.8950  52.0846  52.5988  52.8790

          k = 0.2000 0.2000 0.0000 (  1915 PWs)   bands (ev):

   -48.3972 -48.3867 -22.6265 -22.5801 -22.4229 -22.3902 -22.3743 -22.3604
    -6.8777  -6.2545  -5.5288  -5.2042   4.8934   5.7684   6.4159   6.5320
     6.6368   7.6998   8.6038   9.0971   9.3446   9.7915   9.8167  10.5799
    13.0984  13.8798  14.1076  14.3787  14.7205  16.2560  17.1434  19.0215
    19.5316  19.5388  20.0341  22.4048  22.6966  25.5221  26.3147  27.0714
    28.4111  30.0023  30.1479  32.4494  32.7154  32.8595  33.3389  33.6652
    33.6670  35.1017  37.0681  37.2204  38.7541  39.7493  39.7533  40.0922
    41.4957  42.5064  42.7651  44.0025  44.1306  44.6521  45.0561  45.2073
    45.2977  45.7032  46.2545  47.6231  47.7662  47.9993  48.1424  49.2524
    49.3951  49.9077  50.4089  50.9522  52.0408  52.0724

          k = 0.2000 0.2000 0.3103 (  1898 PWs)   bands (ev):

   -48.3809 -48.3724 -22.6066 -22.5822 -22.5715 -22.5280 -22.3972 -22.3683
    -6.4841  -5.9240  -5.7609  -5.5062   5.4802   6.1089   6.2579   6.6580
     7.1033   7.5715   8.4408   8.4756   9.0246   9.5075   9.6994  10.3475
    13.5958  13.7971  14.3750  14.8001  14.8142  15.8769  17.6393  18.0825
    18.9565  19.9587  20.6694  23.4308  23.9807  26.2574  26.5515  26.7604
    28.2994  28.3001  30.0399  30.4109  31.5770  32.8711  33.5765  34.5086
    34.7585  35.4589  37.1696  37.5841  38.0726  38.2527  39.4886  39.8931
    40.2368  41.0836  42.4055  42.4331  44.6095  44.6140  45.2352  45.6876
    46.2103  46.9509  47.2404  47.9240  48.3244  48.6627  48.7419  49.1683
    49.2131  49.8246  50.4107  51.1103  53.0988  53.3397

          k = 0.2000 0.2000 0.6207 (  1900 PWs)   bands (ev):

   -48.3535 -48.3502 -22.9235 -22.9128 -22.4655 -22.4518 -22.3761 -22.3741
    -6.3056  -5.9720  -5.7132  -5.3249   6.0073   6.2886   6.5515   6.5834
     7.0161   8.1061   8.1606   8.4780   8.7543   9.2116   9.5734   9.8366
    13.3339  14.4771  14.5981  14.9042  15.0809  15.8269  17.3892  18.4829
    18.7723  19.8353  22.2548  23.9798  24.5548  26.1283  26.4939  27.0188
    28.1389  28.3726  28.7248  29.7275  30.4588  31.3158  33.1336  33.7819
    34.9188  35.4884  36.0866  38.0869  38.5007  39.3973  39.6062  40.3545
    40.6186  40.7153  41.5249  43.5746  44.3005  44.8529  45.4441  45.8175
    45.8666  46.4774  46.8519  47.4632  47.9195  48.5641  49.0546  49.8214
    49.9667  50.9604  51.9812  52.1652  52.8231  53.0779

          k = 0.2000 0.4000 0.0000 (  1891 PWs)   bands (ev):

   -48.3939 -48.3899 -22.6153 -22.5855 -22.4190 -22.3878 -22.3809 -22.3695
    -6.6497  -6.3622  -5.5549  -5.3386   5.1605   5.7455   6.5515   6.6164
     7.1069   7.7059   8.1654   8.8117   9.2371   9.5453   9.6481  10.1328
    13.4000  13.8242  14.3449  14.7286  15.0278  15.7216  17.9179  19.0165
    19.0423  19.3421  20.6771  21.7716  23.6043  24.9310  25.7764  26.1690
    28.7238  29.5507  31.3108  32.0732  32.2233  32.5765  33.8473  34.7568
    34.9168  35.2624  36.3354  37.3904  38.1712  38.3626  39.0176  40.2459
    41.7413  41.8701  43.3839  43.8588  44.5393  44.5620  45.7479  45.9806
    46.3454  46.6297  46.8250  48.0026  48.2015  48.2730  48.5429  48.8341
    49.4356  49.7921  50.0319  50.5779  50.9820  51.8412

          k = 0.2000 0.4000 0.3103 (  1906 PWs)   bands (ev):

   -48.3783 -48.3750 -22.6035 -22.5947 -22.5570 -22.5308 -22.3947 -22.3762
    -6.2908  -6.0314  -5.7691  -5.5992   5.6859   6.1328   6.3140   6.4692
     7.4867   7.7190   8.2209   8.5506   8.8015   9.1912   9.7071  10.0152
    13.9665  14.0829  14.3358  14.6690  15.1193  15.4792  17.8481  18.2278
    18.8257  19.3910  21.5986  22.5834  24.5530  25.6139  26.3410  26.4263
    28.2862  28.3222  29.8729  30.5600  31.8748  32.4831  33.8600  35.0510
    35.1249  35.6491  36.9367  36.9863  38.2714  38.7041  39.2257  39.8244
    40.8926  41.7866  42.6771  43.3743  44.1407  45.0687  45.1996  45.8028
    45.9366  46.9386  47.2188  47.5431  47.8461  48.5035  48.6259  48.8805
    49.9829  50.2478  50.9372  51.2161  51.6260  52.4570

          k = 0.2000 0.4000 0.6207 (  1906 PWs)   bands (ev):

   -48.3525 -48.3512 -22.9225 -22.9172 -22.4618 -22.4533 -22.3759 -22.3746
    -6.3067  -6.1534  -5.5068  -5.3262   5.9291   6.0887   6.4200   6.6401
     7.1734   7.8216   8.3450   8.5755   8.9548   9.3226   9.6884  10.0441
    13.2665  13.7903  14.7932  14.9541  15.2644  15.6772  17.4638  17.9849
    19.3797  19.8699  22.4806  23.1762  24.4060  25.1676  26.4103  26.9437
    28.0553  28.2668  29.3840  30.0601  30.7745  31.6691  32.7749  33.5214
    35.5301  35.8797  36.2866  37.5682  39.1478  39.4684  40.0515  40.3166
    41.3645  41.9721  42.8621  43.4705  43.6194  44.2329  45.2644  45.4235
    45.8324  46.2077  46.4497  47.1487  48.2004  48.9386  49.2501  49.5420
    49.9298  50.3888  51.3148  51.6711  52.5389  53.1103

          k = 0.4000 0.4000 0.0000 (  1894 PWs)   bands (ev):

   -48.3926 -48.3911 -22.6340 -22.6194 -22.3851 -22.3773 -22.3729 -22.3698
    -6.6606  -6.5470  -5.3695  -5.2580   4.9062   5.1693   6.4962   6.5327
     7.6667   8.1969   8.5571   9.0244   9.3496   9.4962   9.6571   9.9195
    13.0465  13.3773  14.1274  14.3559  15.3826  15.6408  18.0750  18.5055
    19.3368  19.5223  21.5194  22.0408  23.7125  24.4362  25.0488  25.2754
    29.1418  29.5556  32.4653  33.1222  33.5517  33.7619  33.8137  33.8966
    34.3602  34.5288  35.4745  36.4521  37.1748  38.5322  39.2487  40.3285
    41.0852  42.0141  42.5422  43.1131  44.4311  45.3739  46.1463  46.3761
    46.5232  46.6057  47.7214  48.4719  48.5226  48.8971  49.0792  49.3500
    49.6826  49.9710  50.6902  50.8039  51.0707  51.5397

          k = 0.4000 0.4000 0.3103 (  1916 PWs)   bands (ev):

   -48.3773 -48.3760 -22.5948 -22.5893 -22.5778 -22.5576 -22.3742 -22.3649
    -6.2825  -6.1914  -5.6286  -5.5541   5.4951   5.6932   6.2215   6.3023
     8.0878   8.2365   8.4600   8.8643   9.1376   9.2012   9.3501   9.5699
    13.7797  14.0686  14.2152  14.5046  15.0064  15.1939  18.3155  18.5430
    18.8920  19.0171  22.1417  22.5848  24.2387  24.7651  26.1420  26.2102
    28.1909  28.3021  30.2237  30.6279  31.7781  32.6485  34.2027  35.3541
    35.4551  35.6539  37.1109  37.5735  38.5224  39.1835  39.7810  40.2136
    41.1682  41.1895  42.4685  42.5906  44.1715  44.7386  45.3651  45.3945
    46.0007  46.0296  46.5498  47.2088  47.5223  48.6647  48.8717  49.3157
    49.9185  50.1077  51.4430  51.5553  51.9575  52.4202

          k = 0.4000 0.4000 0.6207 (  1922 PWs)   bands (ev):

   -48.3521 -48.3516 -22.9161 -22.9132 -22.4683 -22.4631 -22.3744 -22.3739
    -6.1637  -6.0125  -5.6543  -5.4885   6.0368   6.2895   6.5213   6.6707
     6.9775   7.3454   8.1893   8.3729   9.2548   9.4433   9.9917  10.1544
    13.6655  14.1235  14.7321  14.8433  14.8628  15.2651  17.9468  18.6618
    18.7034  19.3706  22.4849  22.7900  24.2621  25.0682  25.5108  26.3119
    27.9595  28.1369  30.1691  30.4146  31.3271  31.8624  32.9855  33.4418
    36.3579  36.3984  36.4086  37.5240  39.4642  39.5631  41.3529  41.5616
    42.0842  42.2688  43.1601  43.5459  44.1988  44.2464  44.9666  44.9926
    45.4757  45.5824  46.2313  46.2623  47.2856  47.4245  47.6456  49.5839
    49.9666  50.5618  50.7596  51.5619  51.7491  51.8702

          k =-0.2000 0.2000 0.0000 (  1915 PWs)   bands (ev):

   -48.3972 -48.3867 -22.6264 -22.5802 -22.4230 -22.3902 -22.3742 -22.3604
    -6.8778  -6.2544  -5.5285  -5.2045   4.8933   5.7685   6.4159   6.5318
     6.6370   7.7000   8.6038   9.0972   9.3443   9.7914   9.8166  10.5799
    13.0985  13.8797  14.1076  14.3787  14.7205  16.2560  17.1433  19.0216
    19.5314  19.5389  20.0341  22.4048  22.6966  25.5221  26.3147  27.0714
    28.4111  30.0023  30.1479  32.4494  32.7154  32.8595  33.3389  33.6652
    33.6670  35.1018  37.0681  37.2204  38.7542  39.7492  39.7533  40.0921
    41.4957  42.5064  42.7652  44.0025  44.1306  44.6521  45.0561  45.2073
    45.2978  45.7032  46.2545  47.6232  47.7662  47.9993  48.1424  49.2524
    49.3951  49.9077  50.4088  50.9522  52.0408  52.0723

          k =-0.2000 0.2000-0.3103 (  1898 PWs)   bands (ev):

   -48.3809 -48.3724 -22.6066 -22.5822 -22.5714 -22.5281 -22.3973 -22.3683
    -6.4842  -5.9239  -5.7606  -5.5065   5.4801   6.1091   6.2578   6.6581
     7.1032   7.5716   8.4406   8.4758   9.0248   9.5073   9.6993  10.3475
    13.5958  13.7973  14.3749  14.8002  14.8142  15.8768  17.6394  18.0825
    18.9564  19.9587  20.6695  23.4308  23.9807  26.2574  26.5515  26.7604
    28.2994  28.3001  30.0399  30.4108  31.5770  32.8711  33.5765  34.5085
    34.7585  35.4589  37.1696  37.5842  38.0727  38.2527  39.4886  39.8931
    40.2369  41.0835  42.4055  42.4331  44.6094  44.6140  45.2352  45.6876
    46.2103  46.9508  47.2404  47.9240  48.3244  48.6627  48.7419  49.1684
    49.2130  49.8246  50.4107  51.1103  53.0988  53.3397

          k =-0.2000 0.2000-0.6207 (  1900 PWs)   bands (ev):

   -48.3535 -48.3502 -22.9236 -22.9127 -22.4654 -22.4519 -22.3761 -22.3740
    -6.3053  -5.9723  -5.7135  -5.3246   6.0074   6.2887   6.5515   6.5832
     7.0160   8.1059   8.1608   8.4778   8.7545   9.2115   9.5734   9.8366
    13.3339  14.4771  14.5982  14.9041  15.0808  15.8270  17.3892  18.4828
    18.7723  19.8354  22.2548  23.9798  24.5547  26.1282  26.4939  27.0188
    28.1389  28.3726  28.7248  29.7275  30.4587  31.3157  33.1336  33.7819
    34.9188  35.4883  36.0866  38.0870  38.5007  39.3973  39.6061  40.3545
    40.6186  40.7153  41.5250  43.5745  44.3005  44.8529  45.4441  45.8175
    45.8667  46.4774  46.8519  47.4632  47.9195  48.5641  49.0547  49.8214
    49.9667  50.9604  51.9812  52.1652  52.8231  53.0778

          k =-0.2000 0.4000 0.0000 (  1891 PWs)   bands (ev):

   -48.3939 -48.3899 -22.6152 -22.5856 -22.4191 -22.3878 -22.3809 -22.3695
    -6.6499  -6.3619  -5.5546  -5.3389   5.1604   5.7456   6.5513   6.6166
     7.1069   7.7061   8.1655   8.8114   9.2373   9.5451   9.6481  10.1328
    13.4001  13.8241  14.3449  14.7287  15.0278  15.7216  17.9179  19.0166
    19.0424  19.3420  20.6771  21.7716  23.6043  24.9310  25.7764  26.1690
    28.7237  29.5507  31.3108  32.0732  32.2233  32.5765  33.8473  34.7568
    34.9168  35.2624  36.3354  37.3904  38.1712  38.3626  39.0176  40.2459
    41.7412  41.8702  43.3840  43.8588  44.5393  44.5620  45.7479  45.9806
    46.3454  46.6296  46.8250  48.0026  48.2015  48.2730  48.5428  48.8341
    49.4356  49.7921  50.0319  50.5778  50.9820  51.8411

          k =-0.2000 0.4000-0.3103 (  1906 PWs)   bands (ev):

   -48.3783 -48.3750 -22.6035 -22.5947 -22.5569 -22.5309 -22.3947 -22.3762
    -6.2910  -6.0311  -5.7688  -5.5995   5.6858   6.1330   6.3139   6.4693
     7.4867   7.7190   8.2208   8.5508   8.8015   9.1910   9.7071  10.0152
    13.9665  14.0830  14.3357  14.6690  15.1194  15.4792  17.8481  18.2278
    18.8256  19.3910  21.5987  22.5834  24.5530  25.6139  26.3410  26.4264
    28.2862  28.3222  29.8729  30.5600  31.8748  32.4831  33.8600  35.0510
    35.1249  35.6491  36.9367  36.9863  38.2714  38.7041  39.2256  39.8244
    40.8927  41.7865  42.6771  43.3743  44.1407  45.0686  45.1996  45.8028
    45.9366  46.9386  47.2188  47.5431  47.8460  48.5035  48.6259  48.8805
    49.9829  50.2478  50.9372  51.2161  51.6260  52.4570

          k =-0.2000 0.4000-0.6207 (  1906 PWs)   bands (ev):

   -48.3525 -48.3512 -22.9226 -22.9171 -22.4617 -22.4534 -22.3760 -22.3745
    -6.3064  -6.1537  -5.5071  -5.3259   5.9292   6.0887   6.4202   6.6399
     7.1733   7.8217   8.3449   8.5756   8.9546   9.3227   9.6884  10.0441
    13.2665  13.7903  14.7933  14.9539  15.2643  15.6773  17.4638  17.9849
    19.3797  19.8699  22.4806  23.1761  24.4060  25.1676  26.4104  26.9436
    28.0554  28.2668  29.3840  30.0601  30.7745  31.6691  32.7748  33.5214
    35.5301  35.8796  36.2866  37.5683  39.1479  39.4684  40.0515  40.3166
    41.3645  41.9720  42.8622  43.4705  43.6194  44.2329  45.2644  45.4235
    45.8323  46.2076  46.4497  47.1487  48.2004  48.9386  49.2501  49.5420
    49.9298  50.3888  51.3148  51.6711  52.5389  53.1103

          k =-0.4000 0.4000 0.0000 (  1894 PWs)   bands (ev):

   -48.3926 -48.3911 -22.6339 -22.6195 -22.3851 -22.3773 -22.3729 -22.3697
    -6.6609  -6.5468  -5.3692  -5.2583   4.9061   5.1694   6.4960   6.5330
     7.6667   8.1969   8.5572   9.0242   9.3496   9.4964   9.6568   9.9194
    13.0467  13.3771  14.1274  14.3560  15.3827  15.6407  18.0750  18.5055
    19.3369  19.5222  21.5194  22.0409  23.7125  24.4362  25.0487  25.2754
    29.1418  29.5556  32.4653  33.1222  33.5517  33.7619  33.8137  33.8966
    34.3602  34.5288  35.4746  36.4521  37.1747  38.5323  39.2487  40.3284
    41.0852  42.0141  42.5421  43.1132  44.4311  45.3739  46.1464  46.3761
    46.5231  46.6058  47.7214  48.4719  48.5226  48.8971  49.0792  49.3500
    49.6825  49.9710  50.6903  50.8038  51.0707  51.5397

          k =-0.4000 0.4000-0.3103 (  1916 PWs)   bands (ev):

   -48.3773 -48.3760 -22.5949 -22.5892 -22.5777 -22.5577 -22.3742 -22.3648
    -6.2828  -6.1911  -5.6283  -5.5544   5.4950   5.6934   6.2214   6.3024
     8.0879   8.2364   8.4598   8.8645   9.1378   9.2012   9.3500   9.5697
    13.7798  14.0685  14.2152  14.5045  15.0064  15.1939  18.3156  18.5430
    18.8919  19.0171  22.1417  22.5848  24.2387  24.7651  26.1420  26.2102
    28.1909  28.3021  30.2237  30.6279  31.7781  32.6485  34.2027  35.3542
    35.4551  35.6539  37.1109  37.5735  38.5224  39.1835  39.7810  40.2137
    41.1683  41.1894  42.4685  42.5906  44.1715  44.7386  45.3651  45.3945
    46.0006  46.0296  46.5499  47.2088  47.5222  48.6647  48.8717  49.3156
    49.9185  50.1077  51.4431  51.5553  51.9575  52.4201

          k =-0.4000 0.4000-0.6207 (  1922 PWs)   bands (ev):

   -48.3521 -48.3516 -22.9162 -22.9131 -22.4682 -22.4632 -22.3745 -22.3739
    -6.1634  -6.0128  -5.6546  -5.4882   6.0368   6.2895   6.5212   6.6707
     6.9774   7.3455   8.1891   8.3730   9.2545   9.4435   9.9918  10.1544
    13.6656  14.1235  14.7322  14.8431  14.8629  15.2652  17.9469  18.6618
    18.7033  19.3707  22.4849  22.7900  24.2621  25.0682  25.5108  26.3118
    27.9596  28.1369  30.1691  30.4146  31.3271  31.8624  32.9854  33.4418
    36.3578  36.3984  36.4086  37.5240  39.4643  39.5630  41.3530  41.5616
    42.0841  42.2688  43.1601  43.5459  44.1988  44.2465  44.9666  44.9926
    45.4757  45.5824  46.2314  46.2623  47.2857  47.4245  47.6457  49.5839
    49.9666  50.5618  50.7596  51.5618  51.7492  51.8702

     the Fermi energy is    13.8568 ev

!    total energy              =    -407.75974983 Ry
     Harris-Foulkes estimate   =    -407.75974824 Ry
     estimated scf accuracy    <       0.00000079 Ry

     The total energy is the sum of the following terms:

     one-electron contribution =    -110.46638773 Ry
     hartree contribution      =      84.82648387 Ry
     xc contribution           =     -67.58622149 Ry
     ewald contribution        =    -314.53399948 Ry
     smearing contrib. (-TS)   =       0.00037499 Ry

     total magnetization       =     1.64 Bohr mag/cell
     absolute magnetization    =     1.65 Bohr mag/cell

     convergence has been achieved in  19 iterations

     Forces acting on atoms (Ry/au):


     negative rho (up, down):  0.000E+00 0.197E-03
     atom    1 type  1   force =     0.00000000    0.00000000    0.00000000
     atom    2 type  1   force =     0.00000000    0.00000000    0.00000000
     atom    3 type  2   force =    -0.03755046   -0.03755046    0.00000000
     atom    4 type  2   force =     0.03755046    0.03755046    0.00000000
     atom    5 type  2   force =    -0.03754195    0.03754195    0.00000000
     atom    6 type  2   force =     0.03754195   -0.03754195    0.00000000

     Total force =     0.106197     Total SCF correction =     0.000470


     entering subroutine stress ...


     negative rho (up, down):  0.000E+00 0.197E-03
          total   stress  (Ry/bohr**3)                   (kbar)     P=  100.23
   0.00087380  -0.00000025   0.00000000        128.54     -0.04      0.00
  -0.00000025   0.00087380   0.00000000         -0.04    128.54      0.00
   0.00000000   0.00000000   0.00029645          0.00      0.00     43.61

     Volume is kept fixed: isostatic pressure set to zero

     BFGS Geometry Optimization

     number of scf cycles    =   1
     number of bfgs steps    =   0

     enthalpy new            =    -407.7597498346 Ry

     new trust radius        =       0.0531043661 bohr
     new conv_thr            =       0.0000010000 Ry

     new unit-cell volume =    445.71400 a.u.^3 (    66.04800 Ang^3 )

CELL_PARAMETERS (alat=  8.84348815)
   1.004834584  -0.000006295   0.000000000
  -0.000006295   1.004834584   0.000000000
   0.000000000   0.000000000   0.638258101

ATOMIC_POSITIONS (crystal)
Mo0      0.000000000   0.000000000   0.000000000    0   0   0
Mo0      0.500000000   0.500000000   0.500000000    0   0   0
O1       0.300753886   0.300753886   0.000000000    1   1   0
O1      -0.300753886  -0.300753886   0.000000000    1   1   0
O1       0.800754848   0.199245152   0.500000000    1   1   0
O1       0.199245152   0.800754848   0.500000000    1   1   0


     NEW-OLD atomic charge density approx. for the potential
     NEW k-points:
        k(    1) = (   0.0000000   0.0000000   0.0000000), wk =   0.0080000
        k(    2) = (   0.0000000   0.0000000   0.3133529), wk =   0.0160000
        k(    3) = (   0.0000000   0.0000000   0.6267057), wk =   0.0160000
        k(    4) = (   0.0000012   0.1990377   0.0000000), wk =   0.0320000
        k(    5) = (   0.0000012   0.1990377   0.3133529), wk =   0.0640000
        k(    6) = (   0.0000012   0.1990377   0.6267057), wk =   0.0640000
        k(    7) = (   0.0000025   0.3980755   0.0000000), wk =   0.0320000
        k(    8) = (   0.0000025   0.3980755   0.3133529), wk =   0.0640000
        k(    9) = (   0.0000025   0.3980755   0.6267057), wk =   0.0640000
        k(   10) = (   0.1990390   0.1990390   0.0000000), wk =   0.0160000
        k(   11) = (   0.1990390   0.1990390   0.3133529), wk =   0.0320000
        k(   12) = (   0.1990390   0.1990390   0.6267057), wk =   0.0320000
        k(   13) = (   0.1990402   0.3980767   0.0000000), wk =   0.0320000
        k(   14) = (   0.1990402   0.3980767   0.3133529), wk =   0.0640000
        k(   15) = (   0.1990402   0.3980767   0.6267057), wk =   0.0640000
        k(   16) = (   0.3980780   0.3980780   0.0000000), wk =   0.0160000
        k(   17) = (   0.3980780   0.3980780   0.3133529), wk =   0.0320000
        k(   18) = (   0.3980780   0.3980780   0.6267057), wk =   0.0320000
        k(   19) = (  -0.1990365   0.1990365   0.0000000), wk =   0.0160000
        k(   20) = (  -0.1990365   0.1990365  -0.3133529), wk =   0.0320000
        k(   21) = (  -0.1990365   0.1990365  -0.6267057), wk =   0.0320000
        k(   22) = (  -0.1990352   0.3980742   0.0000000), wk =   0.0320000
        k(   23) = (  -0.1990352   0.3980742  -0.3133529), wk =   0.0640000
        k(   24) = (  -0.1990352   0.3980742  -0.6267057), wk =   0.0640000
        k(   25) = (  -0.3980730   0.3980730   0.0000000), wk =   0.0160000
        k(   26) = (  -0.3980730   0.3980730  -0.3133529), wk =   0.0320000
        k(   27) = (  -0.3980730   0.3980730  -0.6267057), wk =   0.0320000
        k(   28) = (   0.0000000   0.0000000   0.0000000), wk =   0.0080000
        k(   29) = (   0.0000000   0.0000000   0.3133529), wk =   0.0160000
        k(   30) = (   0.0000000   0.0000000   0.6267057), wk =   0.0160000
        k(   31) = (   0.0000012   0.1990377   0.0000000), wk =   0.0320000
        k(   32) = (   0.0000012   0.1990377   0.3133529), wk =   0.0640000
        k(   33) = (   0.0000012   0.1990377   0.6267057), wk =   0.0640000
        k(   34) = (   0.0000025   0.3980755   0.0000000), wk =   0.0320000
        k(   35) = (   0.0000025   0.3980755   0.3133529), wk =   0.0640000
        k(   36) = (   0.0000025   0.3980755   0.6267057), wk =   0.0640000
        k(   37) = (   0.1990390   0.1990390   0.0000000), wk =   0.0160000
        k(   38) = (   0.1990390   0.1990390   0.3133529), wk =   0.0320000
        k(   39) = (   0.1990390   0.1990390   0.6267057), wk =   0.0320000
        k(   40) = (   0.1990402   0.3980767   0.0000000), wk =   0.0320000
        k(   41) = (   0.1990402   0.3980767   0.3133529), wk =   0.0640000
        k(   42) = (   0.1990402   0.3980767   0.6267057), wk =   0.0640000
        k(   43) = (   0.3980780   0.3980780   0.0000000), wk =   0.0160000
        k(   44) = (   0.3980780   0.3980780   0.3133529), wk =   0.0320000
        k(   45) = (   0.3980780   0.3980780   0.6267057), wk =   0.0320000
        k(   46) = (  -0.1990365   0.1990365   0.0000000), wk =   0.0160000
        k(   47) = (  -0.1990365   0.1990365  -0.3133529), wk =   0.0320000
        k(   48) = (  -0.1990365   0.1990365  -0.6267057), wk =   0.0320000
        k(   49) = (  -0.1990352   0.3980742   0.0000000), wk =   0.0320000
        k(   50) = (  -0.1990352   0.3980742  -0.3133529), wk =   0.0640000
        k(   51) = (  -0.1990352   0.3980742  -0.6267057), wk =   0.0640000
        k(   52) = (  -0.3980730   0.3980730   0.0000000), wk =   0.0160000
        k(   53) = (  -0.3980730   0.3980730  -0.3133529), wk =   0.0320000
        k(   54) = (  -0.3980730   0.3980730  -0.6267057), wk =   0.0320000

     Check: negative/imaginary core charge=   -0.000007    0.000000

     negative rho (up, down):  0.000E+00 0.197E-03

     total cpu time spent up to now is      641.6 secs

     per-process dynamical memory:    63.3 Mb

     Self-consistent Calculation

     iteration #  1     ecut=    40.00 Ry     beta=0.30
     Davidson diagonalization with overlap
     ethr =  1.00E-06,  avg # of iterations =  5.0

     negative rho (up, down):  0.000E+00 0.180E-03

     total cpu time spent up to now is      709.3 secs

     total energy              =    -407.77303463 Ry
     Harris-Foulkes estimate   =    -407.77306702 Ry
     estimated scf accuracy    <       0.00157943 Ry

     total magnetization       =     1.40 Bohr mag/cell
     absolute magnetization    =     1.41 Bohr mag/cell

     iteration #  2     ecut=    40.00 Ry     beta=0.30
     Davidson diagonalization with overlap
     ethr =  3.04E-06,  avg # of iterations =  1.0

     negative rho (up, down):  0.000E+00 0.149E-03

     total cpu time spent up to now is      734.7 secs

     total energy              =    -407.77326836 Ry
     Harris-Foulkes estimate   =    -407.77309754 Ry
     estimated scf accuracy    <       0.00067143 Ry

     total magnetization       =     1.36 Bohr mag/cell
     absolute magnetization    =     1.37 Bohr mag/cell

     iteration #  3     ecut=    40.00 Ry     beta=0.30
     Davidson diagonalization with overlap
     ethr =  1.29E-06,  avg # of iterations =  1.0

     negative rho (up, down):  0.000E+00 0.143E-03

     total cpu time spent up to now is      760.0 secs

     total energy              =    -407.77343275 Ry
     Harris-Foulkes estimate   =    -407.77340907 Ry
     estimated scf accuracy    <       0.00040019 Ry

     total magnetization       =     1.29 Bohr mag/cell
     absolute magnetization    =     1.30 Bohr mag/cell

     iteration #  4     ecut=    40.00 Ry     beta=0.30
     Davidson diagonalization with overlap
     ethr =  7.70E-07,  avg # of iterations =  1.0

     negative rho (up, down):  0.000E+00 0.134E-03

     total cpu time spent up to now is      785.5 secs

     total energy              =    -407.77356860 Ry
     Harris-Foulkes estimate   =    -407.77349981 Ry
     estimated scf accuracy    <       0.00034748 Ry

     total magnetization       =     1.27 Bohr mag/cell
     absolute magnetization    =     1.28 Bohr mag/cell

     iteration #  5     ecut=    40.00 Ry     beta=0.30
     Davidson diagonalization with overlap
     ethr =  6.68E-07,  avg # of iterations =  1.0

     negative rho (up, down):  0.000E+00 0.110E-03

     total cpu time spent up to now is      810.8 secs

     total energy              =    -407.77369182 Ry
     Harris-Foulkes estimate   =    -407.77360013 Ry
     estimated scf accuracy    <       0.00006079 Ry

     total magnetization       =     1.24 Bohr mag/cell
     absolute magnetization    =     1.25 Bohr mag/cell

     iteration #  6     ecut=    40.00 Ry     beta=0.30
     Davidson diagonalization with overlap
     ethr =  1.17E-07,  avg # of iterations =  2.0

     negative rho (up, down):  0.000E+00 0.100E-03

     total cpu time spent up to now is      839.8 secs

     total energy              =    -407.77380541 Ry
     Harris-Foulkes estimate   =    -407.77378195 Ry
     estimated scf accuracy    <       0.00001231 Ry

     total magnetization       =     1.17 Bohr mag/cell
     absolute magnetization    =     1.18 Bohr mag/cell

     iteration #  7     ecut=    40.00 Ry     beta=0.30
     Davidson diagonalization with overlap
     ethr =  2.37E-08,  avg # of iterations =  2.0

     negative rho (up, down):  0.000E+00 0.934E-04

     total cpu time spent up to now is      869.6 secs

     total energy              =    -407.77383216 Ry
     Harris-Foulkes estimate   =    -407.77383384 Ry
     estimated scf accuracy    <       0.00000259 Ry

     total magnetization       =     1.12 Bohr mag/cell
     absolute magnetization    =     1.13 Bohr mag/cell

     iteration #  8     ecut=    40.00 Ry     beta=0.30
     Davidson diagonalization with overlap
     ethr =  4.97E-09,  avg # of iterations =  2.0

     negative rho (up, down):  0.000E+00 0.929E-04

     total cpu time spent up to now is      901.1 secs

     End of self-consistent calculation

 ------ SPIN UP ------------


          k = 0.0000 0.0000 0.0000 (  1899 PWs)   bands (ev):

   -48.8658 -48.8505 -23.0815 -23.0813 -22.9483 -22.9057 -22.8680 -22.8680
    -7.1268  -6.3541  -5.2411  -5.2405   4.6885   4.8122   5.7407   6.5916
     6.5921   8.5379   8.5379   9.1209  10.0631  10.1734  10.1735  10.8423
    12.3353  12.5780  13.2339  13.2584  13.2585  16.3328  16.4573  18.2372
    19.0103  19.0104  20.6396  22.1499  22.1500  25.6214  27.2369  27.8627
    28.4321  29.4289  29.9032  29.9035  32.4879  33.0597  33.3360  33.3362
    34.1745  34.1749  35.6110  39.0859  39.2001  39.2003  39.6140  40.2232
    42.0020  43.1160  43.1161  43.2878  43.2945  43.4093  43.4793  43.4796
    44.3245  44.8759  44.8760  45.7321  47.6837  49.3671  49.3672  49.7447
    50.5352  50.5979  50.5980  51.4550  51.6452  52.0650

          k = 0.0000 0.0000 0.3134 (  1883 PWs)   bands (ev):

   -48.8478 -48.8354 -23.1560 -23.1232 -23.0442 -23.0440 -22.8427 -22.8427
    -6.7111  -6.0638  -5.5291  -5.5286   5.2269   5.4915   6.2031   6.4448
     6.4452   7.9928   8.6838   9.0898   9.0901   9.3800   9.3804  10.6047
    13.0323  13.0801  13.3601  13.7673  13.7674  15.9607  17.0547  18.5439
    18.5440  19.2049  20.3143  23.8152  23.8154  25.8345  26.6935  27.6489
    27.9886  28.3920  29.4116  29.4119  30.5838  33.9473  33.9475  34.2589
    34.3724  34.3726  36.7602  38.0947  38.1166  38.8757  38.9646  38.9647
    39.1293  40.2734  40.4950  40.4951  44.6802  44.6805  44.8769  46.1190
    46.1541  46.9778  46.9781  47.1605  48.1484  48.6345  48.7411  48.7413
    49.7219  50.4469  50.4469  52.3309  52.7491  53.6824

          k = 0.0000 0.0000 0.6267 (  1896 PWs)   bands (ev):

   -48.8171 -48.8124 -23.4742 -23.4627 -22.9872 -22.9871 -22.7968 -22.7967
    -5.9774  -5.9768  -5.9438  -5.6802   5.9993   6.2315   6.7060   6.7062
     7.1208   7.4173   7.4998   8.0574   8.0577   9.2732   9.5759   9.5760
    13.5215  14.0576  14.4926  14.4927  14.6271  14.7594  17.7926  18.2666
    18.5101  18.5102  22.1393  24.3828  26.2841  26.2843  26.4514  27.2873
    27.7479  27.9506  28.2534  28.2536  28.8221  30.6008  33.8313  33.8314
    35.4081  35.4083  36.5601  37.1220  37.1723  37.5063  38.9178  38.9179
    39.3018  40.8195  40.8197  42.6473  44.7678  44.7681  45.2040  46.4022
    46.4023  47.0693  47.1670  47.1672  47.4973  47.6841  48.6422  50.5944
    50.5947  51.2777  51.5601  52.4515  52.6925  52.6929

          k = 0.0000 0.1990 0.0000 (  1906 PWs)   bands (ev):

   -48.8643 -48.8520 -23.0673 -23.0663 -22.9443 -22.9097 -22.8849 -22.8839
    -6.9850  -6.2979  -5.4079  -5.3421   4.9541   5.0975   6.0064   6.6245
     6.6350   8.1453   8.2473   9.0475   9.4573   9.7785   9.9249  10.7010
    12.6343  12.9441  13.5011  13.5623  13.6344  16.1323  16.6947  18.7508
    18.8074  18.8354  20.2289  22.0581  22.4770  25.5547  26.8366  27.2704
    27.8176  29.8491  30.0996  30.6785  32.4035  32.6676  32.8589  33.0232
    34.2883  34.9777  37.0336  37.8158  38.7682  39.2528  40.2559  40.3286
    41.5679  41.8923  42.8187  43.1573  43.2636  43.8852  44.5171  44.7105
    45.0410  45.2967  45.6330  46.3901  47.4498  48.7609  48.9006  49.2772
    49.6211  49.9254  50.0266  50.6806  50.9544  51.7671

          k = 0.0000 0.1990 0.3134 (  1901 PWs)   bands (ev):

   -48.8467 -48.8366 -23.1588 -23.1318 -23.0295 -23.0284 -22.8536 -22.8530
    -6.6036  -6.0202  -5.6481  -5.5883   5.4446   5.6333   6.2207   6.4377
     6.7957   7.7991   8.0847   8.8551   8.9116   9.3996   9.4717  10.4879
    12.9956  13.4606  13.5673  13.7327  14.1264  15.7338  17.2718  18.0055
    18.3703  19.9391  20.0952  23.3726  24.0266  26.0716  26.7178  27.0391
    27.8802  28.2364  28.7983  30.4985  31.0136  32.8991  33.7806  34.1130
    34.3195  34.9984  37.3295  37.6268  37.6312  38.2502  38.6897  39.4136
    40.2806  40.6238  41.0333  41.8961  44.6755  44.9574  45.0600  45.5062
    46.1529  46.3656  47.1951  47.2863  48.3499  48.4186  48.6275  48.7151
    49.1283  49.9956  50.7159  51.7409  52.1638  52.7066

          k = 0.0000 0.1990 0.6267 (  1900 PWs)   bands (ev):

   -48.8167 -48.8128 -23.4765 -23.4671 -22.9826 -22.9822 -22.7984 -22.7981
    -6.2342  -6.1653  -5.6440  -5.4975   5.8718   6.0488   6.2528   6.6746
     7.1352   7.5017   7.9669   8.2858   8.5132   9.3368   9.4054   9.5527
    13.0717  13.8565  14.2069  14.5858  14.8193  15.0392  17.4891  17.5879
    18.8476  19.3916  22.1242  23.9948  25.5162  26.3347  26.5425  26.9366
    27.3717  27.9327  28.3779  28.7469  30.0152  30.6042  33.3706  33.6102
    34.8348  35.3953  36.5283  36.6901  37.8765  38.0672  39.0704  39.7016
    40.4117  40.5039  40.7013  43.3444  44.6759  45.1277  45.1641  45.5444
    46.1681  46.3639  46.8609  47.5312  47.9124  48.2403  48.5357  49.9928
    50.2059  51.0595  51.4112  52.4158  53.1828  53.3524

          k = 0.0000 0.3981 0.0000 (  1900 PWs)   bands (ev):

   -48.8605 -48.8558 -23.0357 -23.0341 -22.9336 -22.9204 -22.9198 -22.9182
    -6.6158  -6.2685  -5.6857  -5.5735   5.5788   5.6784   6.6896   6.7019
     6.8187   7.4272   7.4735   8.0936   9.0186   9.2877   9.9569  10.3210
    13.0847  13.2490  13.9380  13.9953  14.4603  15.3666  17.7230  18.4758
    18.5074  19.0083  20.1081  21.3472  23.4523  24.8526  26.5363  26.5597
    27.9142  29.3766  30.2398  30.8996  31.0145  32.4311  33.7517  34.6284
    34.9291  35.9015  36.7577  37.6914  38.8181  39.0448  39.2498  39.4813
    41.3367  41.9133  42.7973  43.3641  44.0927  44.3217  44.6737  44.9957
[...]
    41.5269  41.5966  41.7416  43.2366  43.8841  44.2988  44.3783  44.4383
    45.1925  45.1953  45.8755  46.5963  47.1970  47.2195  48.9851  49.0063
    49.3001  49.6993  50.4026  50.8855  51.7999  51.9383

          k =-0.0000 0.3795 0.3448 (  1903 PWs)   bands (ev):

   -49.0473 -49.0447 -23.3727 -23.3722 -23.0794 -23.0782 -22.9778 -22.9713
    -6.2948  -6.0209  -5.7766  -5.6935   5.7794   5.8585   6.6593   6.7933
     7.2898   7.5843   7.9853   8.4008   8.7833   9.1380   9.9682  10.3573
    12.6411  12.7535  13.7130  13.9341  14.6524  15.1557  16.6679  16.7025
    18.4205  19.2244  21.4260  22.5770  25.3402  25.7809  26.0801  26.7752
    28.3294  28.4959  28.5010  29.9575  32.3389  33.2650  33.5197  34.1557
    35.2244  35.4600  35.4782  36.5625  38.8734  39.1862  39.8336  39.8593
    40.8986  41.3296  42.1479  42.2221  43.6305  44.6232  44.8030  45.2026
    46.2904  46.7560  47.3157  47.3819  47.7082  47.9770  48.6046  48.9240
    49.3312  49.7302  50.1859  50.1977  51.4397  52.5640

          k =-0.0000 0.3795 0.6897 (  1914 PWs)   bands (ev):

   -48.9763 -48.9752 -23.5896 -23.5877 -23.2972 -23.2971 -22.9515 -22.9514
    -6.2671  -6.2362  -5.2577  -5.2094   5.3496   5.3965   5.7236   5.8502
     7.6128   7.8234   8.2950   8.6479   8.9263   9.0311   9.5483   9.9726
    12.2018  12.5469  14.5604  14.7887  15.6775  15.9741  16.4845  16.6986
    19.6440  20.1791  22.7578  23.5766  25.3126  25.5174  26.0562  26.1210
    28.1168  28.3121  29.7373  29.8444  30.6590  30.8576  32.2677  32.9551
    34.3910  34.4362  36.7458  37.3286  37.9873  38.1648  38.8481  39.3776
    41.5232  42.3344  42.9393  43.3404  44.0064  44.3273  44.6119  44.7517
    47.2885  47.3624  47.8891  48.0841  48.6573  48.7409  49.3137  49.3191
    50.9850  51.1755  51.4932  51.6946  52.6698  53.0429

          k = 0.1897 0.1897 0.0000 (  1899 PWs)   bands (ev):

   -49.0922 -49.0855 -23.4332 -23.4095 -23.1532 -23.1277 -22.5908 -22.5739
    -6.8449  -6.1536  -5.8178  -5.4096   4.8918   5.9328   6.0359   7.0307
     8.0300   8.2084   8.2106   9.2961   9.4051   9.7148  10.3431  10.6194
    10.8422  11.5990  13.6752  13.9878  14.7462  15.8118  16.7107  17.3853
    17.9582  18.7367  20.0810  22.4267  22.7767  25.2932  25.3973  26.4126
    27.6903  29.1901  31.3709  31.5406  32.5914  32.6996  33.1201  33.4123
    34.9945  36.1508  36.8546  37.9619  38.8196  39.0665  39.2439  40.1820
    40.8262  41.7563  42.4128  43.0742  43.1892  43.7813  44.2232  45.4147
    45.5754  46.4264  46.5438  47.1109  47.7884  48.0928  48.6294  49.0132
    49.4277  49.9838  50.2291  50.7622  51.6247  51.9691

          k = 0.1897 0.1897 0.3448 (  1908 PWs)   bands (ev):

   -49.0487 -49.0432 -23.3842 -23.3720 -23.0791 -23.0621 -22.9828 -22.9702
    -6.4816  -5.9821  -5.7420  -5.5580   5.5566   5.8575   6.3195   6.9301
     6.9508   7.8204   8.5366   8.7565   9.0004   9.1324   9.6668  10.5275
    12.3816  12.7774  12.9681  14.1417  14.1866  15.5268  16.6065  17.6792
    17.8467  19.5751  20.7812  23.5517  24.3315  25.6917  26.5690  26.6244
    28.1596  28.7756  29.2862  30.5079  31.2889  32.5952  32.7422  34.1102
    34.4863  36.6325  36.9804  37.4454  37.5135  38.3008  39.8630  40.1802
    40.6945  41.7279  42.4051  42.5338  43.0301  43.6304  44.7840  45.0665
    45.5706  46.8395  47.1841  47.6362  47.7984  48.3466  48.9508  49.0250
    49.3604  50.2843  50.4907  51.0698  51.6604  52.6380

          k = 0.1897 0.1897 0.6897 (  1911 PWs)   bands (ev):

   -48.9768 -48.9747 -23.5887 -23.5808 -23.3069 -23.2970 -22.9514 -22.9500
    -6.2565  -5.8257  -5.7282  -5.2259   5.3801   5.7522   6.2126   6.4361
     6.7687   7.3284   8.2052   8.2859   8.5694   9.2963   9.4048   9.8637
    12.6907  13.2238  14.0875  14.9179  15.5084  15.8131  16.4931  18.2895
    18.3169  19.9584  22.4234  24.3254  24.5512  25.3407  26.8309  27.1198
    28.4187  28.4462  28.9288  29.0903  30.0185  31.4188  32.4110  33.2037
    34.1105  35.1487  36.1100  36.1988  37.9067  37.9463  39.6891  40.1331
    40.7075  41.7384  43.0314  43.6939  44.3711  44.8248  45.1323  45.2848
    46.6251  46.7372  46.9709  47.6181  48.4869  48.8493  48.9184  48.9796
    50.5962  51.2483  51.9035  52.0408  53.2693  53.3107

          k = 0.1897 0.3795 0.0000 (  1897 PWs)   bands (ev):

   -49.0901 -49.0876 -23.4266 -23.4117 -23.1517 -23.1357 -22.5856 -22.5792
    -6.6182  -6.2800  -5.8186  -5.5468   5.1621   5.8373   6.7253   7.1903
     7.6661   8.0790   8.1946   8.3645   9.5293   9.7892  10.0788  10.1117
    11.2047  11.5832  14.2716  14.4857  14.7554  15.2546  17.3563  17.3796
    17.7581  18.2401  20.7759  21.8332  23.5202  24.5415  25.4182  25.7807
    27.9081  28.7704  31.2327  31.5348  33.0694  34.1890  34.2153  34.5979
    35.5147  35.7257  35.7348  36.8907  37.2965  38.5056  39.4816  40.6733
    40.7507  41.2343  41.6682  43.3534  43.9603  44.0664  44.7544  45.4154
    45.5252  46.3408  46.6944  46.9556  47.1347  47.5190  48.0540  48.3510
    49.4342  50.5317  51.0925  51.2080  51.4580  52.1587

          k = 0.1897 0.3795 0.3448 (  1893 PWs)   bands (ev):

   -49.0470 -49.0449 -23.3809 -23.3733 -23.0784 -23.0679 -22.9780 -22.9733
    -6.3081  -6.0888  -5.7490  -5.6297   5.6722   5.8248   6.5629   6.8295
     7.3863   7.6985   8.2027   8.5323   8.8494   9.0875   9.7899  10.1718
    12.5610  12.7343  13.4319  14.0562  14.5992  15.0772  16.6593  17.3485
    18.3120  19.0138  21.6536  22.6631  24.5428  25.0871  26.7348  27.0583
    28.0368  28.4603  29.4627  30.4929  31.9562  32.1401  33.1481  34.8953
    35.2733  35.8292  36.4006  36.9471  38.1621  38.3811  39.1793  39.9461
    41.5468  41.6831  42.2223  42.4654  43.8533  44.5523  44.8621  45.5288
    45.7071  46.3208  46.9042  47.4518  47.6980  47.9469  48.1127  48.5568
    48.7929  49.6011  50.3116  51.4861  51.8014  52.6045

          k = 0.1897 0.3795 0.6897 (  1909 PWs)   bands (ev):

   -48.9761 -48.9753 -23.5884 -23.5840 -23.3035 -23.2974 -22.9515 -22.9506
    -6.2532  -6.0795  -5.4457  -5.2294   5.3803   5.6766   5.7909   6.1960
     7.0028   7.6289   8.1603   8.5418   8.8122   9.0990   9.7067  10.0534
    12.4526  12.7491  14.3047  14.7047  15.6355  15.8755  16.5223  17.3977
    19.3073  19.9468  22.6847  23.4216  24.3378  24.5870  26.7396  26.8728
    28.4480  28.6268  29.5883  29.6604  30.6064  31.2624  32.1811  33.0142
    34.7728  35.1796  36.2527  37.0239  38.8012  39.0085  39.2877  39.5403
    41.6321  42.3586  42.7220  43.1634  43.5777  44.0920  44.6821  45.0024
    46.6030  46.7513  46.9941  47.2099  47.9609  48.1118  48.3902  49.1745
    50.0713  51.3276  51.8116  52.1866  52.4205  53.1753

          k = 0.3795 0.3795 0.0000 (  1904 PWs)   bands (ev):

   -49.0894 -49.0884 -23.4370 -23.4287 -23.1343 -23.1253 -22.5836 -22.5811
    -6.6491  -6.5267  -5.5729  -5.4525   4.8995   5.1621   7.3603   8.0077
     8.0186   8.0670   8.1074   8.7618   8.9324   9.5001  10.0932  10.2783
    10.8094  11.1790  14.0068  14.2819  14.9696  15.2486  17.4779  17.7532
    17.8238  17.9503  21.5720  22.1197  23.4545  23.9992  24.9432  25.1113
    28.6021  29.0756  32.3062  32.6551  32.7528  33.4764  34.7227  35.2771
    35.5992  35.7970  36.0164  36.4717  36.8759  37.4154  38.3856  38.7162
    39.1416  40.4092  42.1142  43.0019  44.1238  44.7257  45.3405  46.2573
    46.5436  46.6676  46.9921  47.6095  47.6990  47.9464  48.1702  49.4319
    49.9034  50.0155  52.1223  52.2901  52.4668  52.6451

          k = 0.3795 0.3795 0.3448 (  1889 PWs)   bands (ev):

   -49.0464 -49.0456 -23.3867 -23.3822 -23.0672 -23.0608 -22.9782 -22.9769
    -6.2964  -6.2154  -5.6518  -5.5953   5.5990   5.6774   6.5291   6.6589
     7.8861   8.1112   8.4337   8.5229   8.8678   8.9155   9.5977   9.8309
    12.4351  12.6057  13.4995  13.7342  14.6899  14.8821  17.3291  17.8129
    18.1674  18.5409  22.1915  22.6780  23.9356  24.2783  26.9389  26.9861
    28.3025  28.6477  30.6303  30.8780  31.1593  31.4282  33.6690  35.3908
    35.5376  36.0554  36.6774  37.2919  37.5870  38.1699  38.4251  39.8950
    40.4238  41.3481  43.3725  43.4446  44.2192  44.3892  44.8340  45.0811
    46.0661  46.5675  46.6754  47.0992  47.2606  47.4037  47.6740  47.7989
    49.2356  50.3316  50.9730  51.2702  52.1825  52.9627

          k = 0.3795 0.3795 0.6897 (  1902 PWs)   bands (ev):

   -48.9759 -48.9755 -23.5835 -23.5808 -23.3078 -23.3039 -22.9507 -22.9502
    -6.0829  -5.8547  -5.6918  -5.4385   5.6876   6.0518   6.1833   6.4895
     6.6934   7.1620   7.3119   8.0571   8.9507   9.1425  10.0113  10.1506
    12.9203  13.1642  13.9461  14.3152  15.5809  15.6717  17.3341  18.2475
    18.5853  19.3260  22.6989  23.0286  23.6756  23.7972  26.8651  26.9201
    29.1893  29.2648  29.4181  29.6530  30.9360  31.3696  32.3496  32.8772
    35.7713  36.0758  36.5175  36.8857  38.5798  39.1491  40.3660  40.7131
    41.6835  42.0053  42.6505  43.4185  43.5749  44.0932  44.2946  45.0769
    45.5079  45.5685  45.6895  46.4947  46.8822  47.0704  47.6637  47.7329
    49.2053  50.3166  52.9896  53.0595  53.5379  53.7794

          k =-0.1897 0.1897 0.0000 (  1899 PWs)   bands (ev):

   -49.0922 -49.0855 -23.4332 -23.4095 -23.1532 -23.1277 -22.5908 -22.5739
    -6.8449  -6.1536  -5.8178  -5.4096   4.8918   5.9328   6.0359   7.0308
     8.0300   8.2084   8.2106   9.2961   9.4051   9.7148  10.3431  10.6194
    10.8422  11.5990  13.6753  13.9878  14.7462  15.8118  16.7107  17.3853
    17.9582  18.7367  20.0810  22.4267  22.7767  25.2932  25.3973  26.4126
    27.6903  29.1901  31.3709  31.5406  32.5914  32.6996  33.1201  33.4123
    34.9945  36.1508  36.8546  37.9620  38.8196  39.0665  39.2439  40.1819
    40.8263  41.7563  42.4128  43.0742  43.1892  43.7813  44.2232  45.4147
    45.5754  46.4263  46.5437  47.1109  47.7884  48.0928  48.6295  49.0132
    49.4277  49.9838  50.2291  50.7622  51.6247  51.9691

          k =-0.1897 0.1897-0.3448 (  1908 PWs)   bands (ev):

   -49.0487 -49.0432 -23.3842 -23.3720 -23.0791 -23.0621 -22.9828 -22.9702
    -6.4816  -5.9821  -5.7420  -5.5580   5.5566   5.8575   6.3195   6.9301
     6.9508   7.8204   8.5366   8.7565   9.0004   9.1324   9.6668  10.5275
    12.3816  12.7775  12.9681  14.1417  14.1866  15.5268  16.6065  17.6792
    17.8467  19.5751  20.7812  23.5517  24.3316  25.6917  26.5690  26.6243
    28.1596  28.7756  29.2862  30.5079  31.2889  32.5953  32.7422  34.1102
    34.4863  36.6324  36.9804  37.4454  37.5135  38.3008  39.8630  40.1802
    40.6945  41.7279  42.4050  42.5338  43.0301  43.6304  44.7840  45.0665
    45.5706  46.8395  47.1841  47.6362  47.7984  48.3466  48.9508  49.0250
    49.3604  50.2842  50.4907  51.0698  51.6604  52.6380

          k =-0.1897 0.1897-0.6897 (  1911 PWs)   bands (ev):

   -48.9768 -48.9747 -23.5887 -23.5808 -23.3070 -23.2970 -22.9515 -22.9499
    -6.2565  -5.8257  -5.7282  -5.2258   5.3801   5.7522   6.2126   6.4361
     6.7687   7.3284   8.2052   8.2859   8.5694   9.2963   9.4048   9.8637
    12.6907  13.2238  14.0875  14.9179  15.5084  15.8131  16.4932  18.2895
    18.3169  19.9584  22.4234  24.3254  24.5512  25.3408  26.8309  27.1198
    28.4187  28.4462  28.9288  29.0903  30.0185  31.4188  32.4110  33.2037
    34.1105  35.1487  36.1100  36.1988  37.9067  37.9463  39.6891  40.1331
    40.7075  41.7383  43.0314  43.6939  44.3711  44.8248  45.1323  45.2848
    46.6250  46.7373  46.9709  47.6181  48.4869  48.8493  48.9185  48.9796
    50.5962  51.2483  51.9035  52.0408  53.2693  53.3107

          k =-0.1897 0.3795 0.0000 (  1897 PWs)   bands (ev):

   -49.0901 -49.0876 -23.4266 -23.4116 -23.1517 -23.1356 -22.5856 -22.5792
    -6.6182  -6.2799  -5.8186  -5.5468   5.1621   5.8373   6.7253   7.1903
     7.6661   8.0790   8.1946   8.3645   9.5293   9.7892  10.0788  10.1117
    11.2047  11.5832  14.2716  14.4857  14.7554  15.2546  17.3563  17.3797
    17.7581  18.2401  20.7759  21.8332  23.5202  24.5415  25.4182  25.7807
    27.9081  28.7704  31.2327  31.5348  33.0694  34.1890  34.2153  34.5979
    35.5147  35.7257  35.7348  36.8907  37.2965  38.5056  39.4816  40.6733
    40.7507  41.2343  41.6682  43.3534  43.9603  44.0664  44.7544  45.4154
    45.5252  46.3407  46.6944  46.9555  47.1347  47.5190  48.0540  48.3510
    49.4342  50.5317  51.0925  51.2080  51.4580  52.1587

          k =-0.1897 0.3795-0.3448 (  1893 PWs)   bands (ev):

   -49.0470 -49.0449 -23.3809 -23.3733 -23.0784 -23.0679 -22.9780 -22.9733
    -6.3081  -6.0888  -5.7490  -5.6297   5.6722   5.8248   6.5629   6.8295
     7.3863   7.6985   8.2027   8.5323   8.8494   9.0875   9.7899  10.1719
    12.5610  12.7343  13.4319  14.0562  14.5992  15.0772  16.6594  17.3485
    18.3120  19.0138  21.6536  22.6631  24.5428  25.0871  26.7348  27.0583
    28.0368  28.4603  29.4627  30.4929  31.9562  32.1401  33.1481  34.8953
    35.2733  35.8292  36.4006  36.9471  38.1621  38.3811  39.1793  39.9461
    41.5468  41.6832  42.2223  42.4654  43.8533  44.5523  44.8621  45.5288
    45.7071  46.3208  46.9042  47.4518  47.6980  47.9469  48.1127  48.5568
    48.7929  49.6011  50.3116  51.4861  51.8014  52.6045

          k =-0.1897 0.3795-0.6897 (  1909 PWs)   bands (ev):

   -48.9761 -48.9753 -23.5884 -23.5840 -23.3035 -23.2974 -22.9515 -22.9506
    -6.2532  -6.0795  -5.4457  -5.2294   5.3804   5.6766   5.7909   6.1960
     7.0028   7.6289   8.1603   8.5418   8.8122   9.0990   9.7067  10.0534
    12.4526  12.7491  14.3046  14.7047  15.6355  15.8755  16.5223  17.3977
    19.3073  19.9468  22.6848  23.4216  24.3378  24.5870  26.7396  26.8728
    28.4480  28.6268  29.5883  29.6604  30.6064  31.2624  32.1811  33.0142
    34.7728  35.1796  36.2527  37.0239  38.8012  39.0085  39.2877  39.5403
    41.6321  42.3586  42.7220  43.1634  43.5777  44.0920  44.6821  45.0024
    46.6030  46.7513  46.9941  47.2099  47.9609  48.1118  48.3902  49.1745
    50.0713  51.3276  51.8116  52.1867  52.4205  53.1753

          k =-0.3795 0.3795 0.0000 (  1904 PWs)   bands (ev):

   -49.0894 -49.0884 -23.4370 -23.4286 -23.1343 -23.1252 -22.5836 -22.5811
    -6.6491  -6.5267  -5.5728  -5.4525   4.8995   5.1621   7.3603   8.0078
     8.0186   8.0670   8.1074   8.7617   8.9324   9.5001  10.0932  10.2783
    10.8094  11.1790  14.0068  14.2819  14.9696  15.2486  17.4779  17.7532
    17.8238  17.9503  21.5720  22.1197  23.4545  23.9992  24.9432  25.1113
    28.6021  29.0756  32.3062  32.6551  32.7528  33.4764  34.7227  35.2771
    35.5992  35.7970  36.0164  36.4717  36.8759  37.4154  38.3856  38.7162
    39.1416  40.4092  42.1142  43.0019  44.1238  44.7258  45.3405  46.2573
    46.5436  46.6676  46.9921  47.6095  47.6990  47.9464  48.1702  49.4319
    49.9033  50.0155  52.1223  52.2901  52.4668  52.6451

          k =-0.3795 0.3795-0.3448 (  1889 PWs)   bands (ev):

   -49.0464 -49.0456 -23.3867 -23.3822 -23.0672 -23.0607 -22.9782 -22.9769
    -6.2964  -6.2154  -5.6518  -5.5954   5.5990   5.6774   6.5291   6.6589
     7.8861   8.1112   8.4337   8.5229   8.8678   8.9155   9.5977   9.8309
    12.4351  12.6057  13.4995  13.7342  14.6899  14.8821  17.3291  17.8129
    18.1674  18.5409  22.1915  22.6780  23.9356  24.2783  26.9389  26.9861
    28.3025  28.6477  30.6303  30.8780  31.1593  31.4282  33.6690  35.3908
    35.5376  36.0554  36.6774  37.2919  37.5870  38.1699  38.4251  39.8950
    40.4238  41.3481  43.3725  43.4447  44.2193  44.3892  44.8340  45.0811
    46.0661  46.5675  46.6754  47.0992  47.2606  47.4037  47.6740  47.7989
    49.2356  50.3316  50.9730  51.2702  52.1825  52.9627

          k =-0.3795 0.3795-0.6897 (  1902 PWs)   bands (ev):

   -48.9759 -48.9755 -23.5835 -23.5808 -23.3078 -23.3039 -22.9507 -22.9501
    -6.0829  -5.8547  -5.6918  -5.4385   5.6876   6.0518   6.1833   6.4895
     6.6934   7.1620   7.3118   8.0571   8.9507   9.1425  10.0113  10.1506
    12.9203  13.1642  13.9461  14.3152  15.5809  15.6717  17.3341  18.2474
    18.5853  19.3260  22.6989  23.0286  23.6756  23.7972  26.8651  26.9201
    29.1894  29.2648  29.4181  29.6530  30.9360  31.3696  32.3496  32.8772
    35.7713  36.0758  36.5175  36.8857  38.5798  39.1491  40.3660  40.7131
    41.6835  42.0053  42.6505  43.4185  43.5749  44.0932  44.2946  45.0769
    45.5080  45.5685  45.6895  46.4947  46.8822  47.0704  47.6637  47.7329
    49.2053  50.3166  52.9897  53.0595  53.5379  53.7794

     the Fermi energy is    13.1939 ev

!    total energy              =    -407.83232179 Ry
     Harris-Foulkes estimate   =    -407.83232168 Ry
     estimated scf accuracy    <          9.6E-09 Ry

     The total energy is the sum of the following terms:

     one-electron contribution =    -113.50353536 Ry
     hartree contribution      =      85.92677416 Ry
     xc contribution           =     -67.46515927 Ry
     ewald contribution        =    -312.79033825 Ry
     smearing contrib. (-TS)   =      -0.00006307 Ry

     total magnetization       =     0.00 Bohr mag/cell
     absolute magnetization    =     0.00 Bohr mag/cell

     convergence has been achieved in  16 iterations

     Forces acting on atoms (Ry/au):

     atom    1 type  1   force =     0.00000000    0.00000000    0.00000000
     atom    2 type  1   force =     0.00000000    0.00000000    0.00000000
     atom    3 type  2   force =    -0.00005513   -0.00005513   -0.00000000
     atom    4 type  2   force =     0.00005513    0.00005513    0.00000000
     atom    5 type  2   force =    -0.00005807    0.00005807   -0.00000000
     atom    6 type  2   force =     0.00005807   -0.00005807    0.00000000

     Total force =     0.000160     Total SCF correction =     0.000053
     SCF correction compared to forces is large: reduce conv_thr to get better values


     entering subroutine stress ...

          total   stress  (Ry/bohr**3)                   (kbar)     P=   12.62
   0.00008971  -0.00000005   0.00000000         13.20     -0.01      0.00
  -0.00000005   0.00008971   0.00000000         -0.01     13.20      0.00
   0.00000000   0.00000000   0.00007793          0.00      0.00     11.46


     init_run     :     25.33s CPU     25.91s WALL (       2 calls)
     electrons    :   3298.92s CPU   3393.37s WALL (      11 calls)
     update_pot   :     38.87s CPU     39.18s WALL (       9 calls)
     forces       :     89.70s CPU     89.80s WALL (      11 calls)
     stress       :    232.40s CPU    232.79s WALL (      11 calls)

     Called by init_run:
     wfcinit      :     16.79s CPU     17.03s WALL (       2 calls)
     potinit      :      1.96s CPU      1.98s WALL (       2 calls)

     Called by electrons:
     c_bands      :   2674.11s CPU   2756.38s WALL (     102 calls)
     sum_band     :    465.66s CPU    471.44s WALL (     102 calls)
     v_of_rho     :     27.79s CPU     27.96s WALL (     111 calls)
     newd         :    139.80s CPU    140.03s WALL (     111 calls)
     mix_rho      :      3.15s CPU      3.17s WALL (     102 calls)

     Called by c_bands:
     init_us_2    :     12.95s CPU     12.97s WALL (   12312 calls)
     cegterg      :   2628.55s CPU   2710.41s WALL (    5508 calls)

     Called by *egterg:
     h_psi        :   1343.30s CPU   1374.24s WALL (   16130 calls)
     s_psi        :     89.79s CPU     89.92s WALL (   16130 calls)
     g_psi        :      7.28s CPU      7.38s WALL (   10514 calls)
     cdiaghg      :    610.04s CPU    611.42s WALL (   15428 calls)

     Called by h_psi:
     add_vuspsi   :     90.14s CPU     90.66s WALL (   16130 calls)

     General routines
     calbec       :    150.93s CPU    161.16s WALL (   22826 calls)
     fft          :     24.01s CPU     24.23s WALL (    3831 calls)
     ffts         :      0.32s CPU      0.33s WALL (     426 calls)
     fftw         :   1029.06s CPU   1027.34s WALL ( 2428744 calls)
     interpolate  :      3.25s CPU      3.31s WALL (     426 calls)

     Parallel routines
     fft_scatter  :    350.06s CPU    342.56s WALL ( 2433001 calls)

     PWSCF        :     1h 1m CPU        1h 3m WALL


   This run was terminated on:  12: 8:35  24Jan2014            

=------------------------------------------------------------------------------=
   JOB DONE.
=------------------------------------------------------------------------------=
