
     Program PWSCF v.5.0.2 (svn rev. 9656) starts on 14Feb2014 at 14:42:50 

     This program is part of the open-source Quantum ESPRESSO suite
     for quantum simulation of materials; please cite
         "P. Giannozzi et al., J. Phys.:Condens. Matter 21 395502 (2009);
          URL http://www.quantum-espresso.org", 
     in publications or presentations arising from this work. More details at
     http://www.quantum-espresso.org/quote.php

     Parallel version (MPI), running on    16 processors
     R & G space division:  proc/nbgrp/npool/nimage =      16

     Current dimensions of program PWSCF are:
     Max number of different atomic species (ntypx) = 10
     Max number of k-points (npk) =  40000
     Max angular momentum in pseudopotentials (lmaxx) =  3
     Reading input from alpha_-0.07/alpha_-0.07.in
Warning: card &IONS ignored
Warning: card / ignored
Warning: card &CELL ignored
Warning: card / ignored

     Subspace diagonalization in iterative solution of the eigenvalue problem:
     a serial algorithm will be used


     Parallelization info
     --------------------
     sticks:   dense  smooth     PW     G-vecs:    dense   smooth      PW
     Min         681     219     61                35432     6413     959
     Max         682     220     62                35433     6424     961
     Sum       10901    3505    981               566923   102685   15363



     bravais-lattice index     =            0
     lattice parameter (alat)  =      16.5540  a.u.
     unit-cell volume          =    3003.5358 (a.u.)^3
     number of atoms/cell      =           48
     number of atomic types    =            3
     number of electrons       =       416.00
     number of Kohn-Sham states=          600
     kinetic-energy cutoff     =      40.0000  Ry
     charge density cutoff     =     500.0000  Ry
     convergence threshold     =      1.0E-06
     mixing beta               =       0.7000
     number of iterations used =            8  plain     mixing
     Exchange-correlation      = SLA  PW   PBE  PBE ( 1 4 3 4 0)
     EXX-fraction              =        0.00

     celldm(1)=  16.554001  celldm(2)=   0.000000  celldm(3)=   0.000000
     celldm(4)=   0.000000  celldm(5)=   0.000000  celldm(6)=   0.000000

     crystal axes: (cart. coord. in units of alat)
               a(1) = (   1.000000   0.000000   0.000000 )  
               a(2) = (   0.000000   1.000000   0.000000 )  
               a(3) = (   0.000000   0.000000   0.662100 )  

     reciprocal axes: (cart. coord. in units 2 pi/alat)
               b(1) = (  1.000000  0.000000  0.000000 )  
               b(2) = (  0.000000  1.000000  0.000000 )  
               b(3) = (  0.000000  0.000000  1.510345 )  


     PseudoPot. # 1 for Cr read from file:
     /home/camp/zhonxu/pseudo/cr_pbe_v1.uspp.F.UPF
     MD5 check sum: 68b6f918d1762dccfb11451fe85b0e0e
     Pseudo is Ultrasoft + core correction, Zval = 14.0
     Generated by new atomic code, or converted to UPF format
     Using radial grid of  857 points,  6 beta functions with: 
                l(1) =   0
                l(2) =   0
                l(3) =   1
                l(4) =   1
                l(5) =   2
                l(6) =   2
     Q(r) pseudized with  6 coefficients,  rinner =    1.000   1.000   1.000
                                                       1.000   1.000

     PseudoPot. # 2 for Cr read from file:
     /home/camp/zhonxu/pseudo/cr_pbe_v1.uspp.F.UPF
     MD5 check sum: 68b6f918d1762dccfb11451fe85b0e0e
     Pseudo is Ultrasoft + core correction, Zval = 14.0
     Generated by new atomic code, or converted to UPF format
     Using radial grid of  857 points,  6 beta functions with: 
                l(1) =   0
                l(2) =   0
                l(3) =   1
                l(4) =   1
                l(5) =   2
                l(6) =   2
     Q(r) pseudized with  6 coefficients,  rinner =    1.000   1.000   1.000
                                                       1.000   1.000

     PseudoPot. # 3 for O  read from file:
     /home/camp/zhonxu/pseudo/o_pbe_v1.01.uspp.F.UPF
     MD5 check sum: 2bcb18d16ea4b960afae9ec6d52f22d2
     Pseudo is Ultrasoft + core correction, Zval =  6.0
     Generated by new atomic code, or converted to UPF format
     Using radial grid of  737 points,  5 beta functions with: 
                l(1) =   0
                l(2) =   0
                l(3) =   1
                l(4) =   1
                l(5) =   2
     Q(r) pseudized with  8 coefficients,  rinner =    0.900   0.900   0.900
                                                       0.900   0.900

     atomic species   valence    mass     pseudopotential
        Cr0           14.00    51.99600     Cr( 1.00)
        Cr1           14.00    51.99600     Cr( 1.00)
        O2             6.00    15.99940     O ( 1.00)

     Starting magnetic structure 
     atomic species   magnetization
        Cr0          0.600
        Cr1          0.600
        O2           0.000


     Simplified LDA+U calculation (l_max = 2) with parameters (eV):
     atomic species    L          U    alpha       J0     beta
        Cr0            2     0.0000  -0.0700   0.0000   0.0000
        Cr1            2     0.0000   0.0000   0.0000   0.0000
        O2             1     0.0000   0.0000   0.0000   0.0000



      8 Sym. Ops., with inversion, found



   Cartesian axes

     site n.     atom                  positions (alat units)
         1           Cr0 tau(   1) = (   0.0000000   0.0000000   0.0000000  )
         2           Cr1 tau(   2) = (   0.2500000   0.2500000   0.1655251  )
         3           Cr1 tau(   3) = (   0.0000000   0.0000000   0.3310502  )
         4           Cr1 tau(   4) = (   0.2500000   0.2500000   0.4965753  )
         5           Cr1 tau(   5) = (   0.0000000   0.5000000   0.0000000  )
         6           Cr1 tau(   6) = (   0.2500000   0.7500000   0.1655251  )
         7           Cr1 tau(   7) = (   0.0000000   0.5000000   0.3310502  )
         8           Cr1 tau(   8) = (   0.2500000   0.7500000   0.4965753  )
         9           Cr1 tau(   9) = (   0.5000000   0.0000000   0.0000000  )
        10           Cr1 tau(  10) = (   0.7500000   0.2500000   0.1655251  )
        11           Cr1 tau(  11) = (   0.5000000   0.0000000   0.3310502  )
        12           Cr1 tau(  12) = (   0.7500000   0.2500000   0.4965753  )
        13           Cr1 tau(  13) = (   0.5000000   0.5000000   0.0000000  )
        14           Cr1 tau(  14) = (   0.7500000   0.7500000   0.1655251  )
        15           Cr1 tau(  15) = (   0.5000000   0.5000000   0.3310502  )
        16           Cr1 tau(  16) = (   0.7500000   0.7500000   0.4965753  )
        17           O2  tau(  17) = (   0.1500000   0.1500000   0.0000000  )
        18           O2  tau(  18) = (  -0.1500000  -0.1500000   0.0000000  )
        19           O2  tau(  19) = (   0.4000000   0.1000000   0.1655251  )
        20           O2  tau(  20) = (   0.1000000   0.4000000   0.1655251  )
        21           O2  tau(  21) = (   0.1500000   0.1500000   0.3310502  )
        22           O2  tau(  22) = (  -0.1500000  -0.1500000   0.3310502  )
        23           O2  tau(  23) = (   0.4000000   0.1000000   0.4965753  )
        24           O2  tau(  24) = (   0.1000000   0.4000000   0.4965753  )
        25           O2  tau(  25) = (   0.1500000   0.6500000   0.0000000  )
        26           O2  tau(  26) = (  -0.1500000   0.3500000   0.0000000  )
        27           O2  tau(  27) = (   0.4000000   0.6000000   0.1655251  )
        28           O2  tau(  28) = (   0.1000000   0.9000000   0.1655251  )
        29           O2  tau(  29) = (   0.1500000   0.6500000   0.3310502  )
        30           O2  tau(  30) = (  -0.1500000   0.3500000   0.3310502  )
        31           O2  tau(  31) = (   0.4000000   0.6000000   0.4965753  )
        32           O2  tau(  32) = (   0.1000000   0.9000000   0.4965753  )
        33           O2  tau(  33) = (   0.6500000   0.1500000   0.0000000  )
        34           O2  tau(  34) = (   0.3500000  -0.1500000   0.0000000  )
        35           O2  tau(  35) = (   0.9000000   0.1000000   0.1655251  )
        36           O2  tau(  36) = (   0.6000000   0.4000000   0.1655251  )
        37           O2  tau(  37) = (   0.6500000   0.1500000   0.3310502  )
        38           O2  tau(  38) = (   0.3500000  -0.1500000   0.3310502  )
        39           O2  tau(  39) = (   0.9000000   0.1000000   0.4965753  )
        40           O2  tau(  40) = (   0.6000000   0.4000000   0.4965753  )
        41           O2  tau(  41) = (   0.6500000   0.6500000   0.0000000  )
        42           O2  tau(  42) = (   0.3500000   0.3500000   0.0000000  )
        43           O2  tau(  43) = (   0.9000000   0.6000000   0.1655251  )
        44           O2  tau(  44) = (   0.6000000   0.9000000   0.1655251  )
        45           O2  tau(  45) = (   0.6500000   0.6500000   0.3310502  )
        46           O2  tau(  46) = (   0.3500000   0.3500000   0.3310502  )
        47           O2  tau(  47) = (   0.9000000   0.6000000   0.4965753  )
        48           O2  tau(  48) = (   0.6000000   0.9000000   0.4965753  )

     number of k points=    42  Methfessel-Paxton smearing, width (Ry)=  0.0100
                       cart. coord. in units 2pi/alat
        k(    1) = (   0.0000000   0.0000000   0.0000000), wk =   0.0156250
        k(    2) = (   0.0000000   0.0000000   0.3775862), wk =   0.0312500
        k(    3) = (   0.0000000   0.0000000  -0.7551724), wk =   0.0156250
        k(    4) = (   0.0000000   0.2500000   0.0000000), wk =   0.0625000
        k(    5) = (   0.0000000   0.2500000   0.3775862), wk =   0.1250000
        k(    6) = (   0.0000000   0.2500000  -0.7551724), wk =   0.0625000
        k(    7) = (   0.0000000  -0.5000000   0.0000000), wk =   0.0312500
        k(    8) = (   0.0000000  -0.5000000   0.3775862), wk =   0.0625000
        k(    9) = (   0.0000000  -0.5000000  -0.7551724), wk =   0.0312500
        k(   10) = (   0.2500000   0.2500000   0.0000000), wk =   0.0312500
        k(   11) = (   0.2500000   0.2500000   0.3775862), wk =   0.0625000
        k(   12) = (   0.2500000   0.2500000  -0.7551724), wk =   0.0312500
        k(   13) = (   0.2500000  -0.5000000   0.0000000), wk =   0.0625000
        k(   14) = (   0.2500000  -0.5000000   0.3775862), wk =   0.1250000
        k(   15) = (   0.2500000  -0.5000000  -0.7551724), wk =   0.0625000
        k(   16) = (  -0.5000000  -0.5000000   0.0000000), wk =   0.0156250
        k(   17) = (  -0.5000000  -0.5000000   0.3775862), wk =   0.0312500
        k(   18) = (  -0.5000000  -0.5000000  -0.7551724), wk =   0.0156250
        k(   19) = (  -0.2500000   0.2500000   0.0000000), wk =   0.0312500
        k(   20) = (  -0.2500000   0.2500000  -0.3775862), wk =   0.0625000
        k(   21) = (  -0.2500000   0.2500000   0.7551724), wk =   0.0312500
        k(   22) = (   0.0000000   0.0000000   0.0000000), wk =   0.0156250
        k(   23) = (   0.0000000   0.0000000   0.3775862), wk =   0.0312500
        k(   24) = (   0.0000000   0.0000000  -0.7551724), wk =   0.0156250
        k(   25) = (   0.0000000   0.2500000   0.0000000), wk =   0.0625000
        k(   26) = (   0.0000000   0.2500000   0.3775862), wk =   0.1250000
        k(   27) = (   0.0000000   0.2500000  -0.7551724), wk =   0.0625000
        k(   28) = (   0.0000000  -0.5000000   0.0000000), wk =   0.0312500
        k(   29) = (   0.0000000  -0.5000000   0.3775862), wk =   0.0625000
        k(   30) = (   0.0000000  -0.5000000  -0.7551724), wk =   0.0312500
        k(   31) = (   0.2500000   0.2500000   0.0000000), wk =   0.0312500
        k(   32) = (   0.2500000   0.2500000   0.3775862), wk =   0.0625000
        k(   33) = (   0.2500000   0.2500000  -0.7551724), wk =   0.0312500
        k(   34) = (   0.2500000  -0.5000000   0.0000000), wk =   0.0625000
        k(   35) = (   0.2500000  -0.5000000   0.3775862), wk =   0.1250000
        k(   36) = (   0.2500000  -0.5000000  -0.7551724), wk =   0.0625000
        k(   37) = (  -0.5000000  -0.5000000   0.0000000), wk =   0.0156250
        k(   38) = (  -0.5000000  -0.5000000   0.3775862), wk =   0.0312500
        k(   39) = (  -0.5000000  -0.5000000  -0.7551724), wk =   0.0156250
        k(   40) = (  -0.2500000   0.2500000   0.0000000), wk =   0.0312500
        k(   41) = (  -0.2500000   0.2500000  -0.3775862), wk =   0.0625000
        k(   42) = (  -0.2500000   0.2500000   0.7551724), wk =   0.0312500

     Dense  grid:   566923 G-vectors     FFT dimensions: ( 120, 120,  80)

     Smooth grid:   102685 G-vectors     FFT dimensions: (  72,  72,  45)

     Largest allocated arrays     est. size (Mb)     dimensions
        Kohn-Sham Wavefunctions         7.38 Mb     (    806,  600)
        Atomic wavefunctions            3.54 Mb     (    806,  288)
        NL pseudopotentials             8.66 Mb     (    806,  704)
        Each V/rho on FFT grid          2.20 Mb     (  72000,   2)
        Each G-vector array             0.27 Mb     (  35433)
        G-vector shells                 0.10 Mb     (  13625)
     Largest temporary arrays     est. size (Mb)     dimensions
        Auxiliary wavefunctions        29.52 Mb     (    806, 2400)
        Each subspace H/S matrix       87.89 Mb     (2400,2400)
        Each <psi_i|beta_j> matrix      6.45 Mb     (    704,  600)
        Arrays for rho mixing           8.79 Mb     (  72000,   8)

     Check: negative/imaginary core charge=   -0.000034    0.000000

     The initial density is read from file :
     alpha_-0.07/pwscf.save/charge-density.dat

     Number of +U iterations with fixed ns =  0
     Starting occupations:
 --- enter write_ns ---
 LDA+U parameters:
U( 1)     =  0.00000000
alpha( 1) = -0.07000000
U( 2)     =  0.00000000
alpha( 2) =  0.00000000
U( 3)     =  0.00000000
alpha( 3) =  0.00000000
atom    1   Tr[ns(na)] (up, down, total) =   3.40813  1.32710  4.73523
   spin  1
    eigenvalues: 
  0.480  0.519  0.637  0.799  0.973
    eigenvectors:
  0.000  0.290  0.000  0.000  0.710
  0.500  0.000  0.000  0.500  0.000
  0.500  0.000  0.000  0.500  0.000
  0.000  0.000  1.000  0.000  0.000
  0.000  0.710  0.000  0.000  0.290
    occupations:
  0.841 -0.000 -0.000 -0.000  0.206
 -0.000  0.640  0.160  0.000  0.000
 -0.000  0.160  0.640  0.000  0.000
 -0.000  0.000  0.000  0.637 -0.000
  0.206  0.000  0.000 -0.000  0.650
   spin  2
    eigenvalues: 
  0.134  0.188  0.215  0.389  0.400
    eigenvectors:
  0.711  0.000  0.000  0.000  0.289
  0.000  0.500  0.000  0.500  0.000
  0.000  0.500  0.000  0.500  0.000
  0.000  0.000  1.000  0.000  0.000
  0.289  0.000  0.000  0.000  0.711
    occupations:
  0.211 -0.000 -0.000  0.000 -0.120
 -0.000  0.289 -0.101  0.000  0.000
 -0.000 -0.101  0.289  0.000  0.000
  0.000  0.000  0.000  0.215 -0.000
 -0.120  0.000  0.000 -0.000  0.323
atomic mag. moment =     2.081023
atom    2   Tr[ns(na)] (up, down, total) =   3.40805  1.32709  4.73514
   spin  1
    eigenvalues: 
  0.480  0.519  0.637  0.799  0.973
    eigenvectors:
  0.000  0.290  0.000  0.000  0.710
  0.500  0.000  0.000  0.500  0.000
  0.500  0.000  0.000  0.500  0.000
  0.000  0.000  1.000  0.000  0.000
  0.000  0.710  0.000  0.000  0.290
    occupations:
  0.841  0.000  0.000  0.000 -0.206
  0.000  0.640 -0.160 -0.000 -0.000
  0.000 -0.160  0.640  0.000 -0.000
  0.000 -0.000  0.000  0.637 -0.000
 -0.206 -0.000 -0.000 -0.000  0.650
   spin  2
    eigenvalues: 
  0.134  0.188  0.215  0.389  0.400
    eigenvectors:
  0.711  0.000  0.000  0.000  0.289
  0.000  0.500  0.000  0.500  0.000
  0.000  0.500  0.000  0.500  0.000
  0.000  0.000  1.000  0.000  0.000
  0.289  0.000  0.000  0.000  0.711
    occupations:
  0.211 -0.000 -0.000 -0.000  0.120
 -0.000  0.289  0.101 -0.000 -0.000
 -0.000  0.101  0.289  0.000 -0.000
 -0.000 -0.000  0.000  0.215 -0.000
  0.120 -0.000 -0.000 -0.000  0.323
atomic mag. moment =     2.080954
atom    3   Tr[ns(na)] (up, down, total) =   3.40817  1.32711  4.73528
   spin  1
    eigenvalues: 
  0.480  0.519  0.637  0.799  0.973
    eigenvectors:
  0.000  0.290  0.000  0.000  0.710
  0.500  0.000  0.000  0.500  0.000
  0.500  0.000  0.000  0.500  0.000
  0.000  0.000  1.000  0.000  0.000
  0.000  0.710  0.000  0.000  0.290
    occupations:
  0.841 -0.000 -0.000 -0.000  0.206
 -0.000  0.640  0.160  0.000  0.000
 -0.000  0.160  0.640  0.000  0.000
 -0.000  0.000  0.000  0.637 -0.000
  0.206  0.000  0.000 -0.000  0.650
   spin  2
    eigenvalues: 
  0.134  0.188  0.215  0.389  0.400
    eigenvectors:
  0.711  0.000  0.000  0.000  0.289
  0.000  0.500  0.000  0.500  0.000
  0.000  0.500  0.000  0.500  0.000
  0.000  0.000  1.000  0.000  0.000
  0.289  0.000  0.000  0.000  0.711
    occupations:
  0.211 -0.000 -0.000  0.000 -0.120
 -0.000  0.289 -0.101  0.000  0.000
 -0.000 -0.101  0.289  0.000  0.000
  0.000  0.000  0.000  0.215 -0.000
 -0.120  0.000  0.000 -0.000  0.323
atomic mag. moment =     2.081057
atom    4   Tr[ns(na)] (up, down, total) =   3.40805  1.32709  4.73514
   spin  1
    eigenvalues: 
  0.480  0.519  0.637  0.799  0.973
    eigenvectors:
  0.000  0.290  0.000  0.000  0.710
  0.500  0.000  0.000  0.500  0.000
  0.500  0.000  0.000  0.500  0.000
  0.000  0.000  1.000  0.000  0.000
  0.000  0.710  0.000  0.000  0.290
    occupations:
  0.841 -0.000 -0.000  0.000 -0.206
 -0.000  0.640 -0.160  0.000  0.000
 -0.000 -0.160  0.640 -0.000  0.000
  0.000  0.000 -0.000  0.637 -0.000
 -0.206  0.000  0.000 -0.000  0.650
   spin  2
    eigenvalues: 
  0.134  0.188  0.215  0.389  0.400
    eigenvectors:
  0.711  0.000  0.000  0.000  0.289
  0.000  0.500  0.000  0.500  0.000
  0.000  0.500  0.000  0.500  0.000
  0.000  0.000  1.000  0.000  0.000
  0.289  0.000  0.000  0.000  0.711
    occupations:
  0.211  0.000  0.000 -0.000  0.120
  0.000  0.289  0.101  0.000  0.000
  0.000  0.101  0.289 -0.000  0.000
 -0.000  0.000 -0.000  0.215 -0.000
  0.120  0.000  0.000 -0.000  0.323
atomic mag. moment =     2.080954
atom    5   Tr[ns(na)] (up, down, total) =   3.40851  1.32724  4.73575
   spin  1
    eigenvalues: 
  0.480  0.519  0.637  0.799  0.973
    eigenvectors:
  0.000  0.290  0.000  0.000  0.710
  0.500  0.000  0.000  0.500  0.000
  0.500  0.000  0.000  0.500  0.000
  0.000  0.000  1.000  0.000  0.000
  0.000  0.710  0.000  0.000  0.290
    occupations:
  0.841 -0.000 -0.000  0.000  0.206
 -0.000  0.640  0.160  0.000  0.000
 -0.000  0.160  0.640  0.000  0.000
  0.000  0.000  0.000  0.637 -0.000
  0.206  0.000  0.000 -0.000  0.650
   spin  2
    eigenvalues: 
  0.134  0.188  0.215  0.390  0.400
    eigenvectors:
  0.711  0.000  0.000  0.000  0.289
  0.000  0.500  0.000  0.500  0.000
  0.000  0.500  0.000  0.500  0.000
  0.000  0.000  1.000  0.000  0.000
  0.289  0.000  0.000  0.000  0.711
    occupations:
  0.211 -0.000 -0.000  0.000 -0.120
 -0.000  0.289 -0.101  0.000  0.000
 -0.000 -0.101  0.289  0.000  0.000
  0.000  0.000  0.000  0.215  0.000
 -0.120  0.000  0.000  0.000  0.323
atomic mag. moment =     2.081272
atom    6   Tr[ns(na)] (up, down, total) =   3.40806  1.32710  4.73516
   spin  1
    eigenvalues: 
  0.480  0.519  0.637  0.799  0.973
    eigenvectors:
  0.000  0.290  0.000  0.000  0.710
  0.500  0.000  0.000  0.500  0.000
  0.500  0.000  0.000  0.500  0.000
  0.000  0.000  1.000  0.000  0.000
  0.000  0.710  0.000  0.000  0.290
    occupations:
  0.841  0.000 -0.000  0.000 -0.206
  0.000  0.640 -0.160 -0.000  0.000
 -0.000 -0.160  0.640 -0.000 -0.000
  0.000 -0.000 -0.000  0.637 -0.000
 -0.206  0.000 -0.000 -0.000  0.650
   spin  2
    eigenvalues: 
  0.134  0.188  0.215  0.389  0.400
    eigenvectors:
  0.711  0.000  0.000  0.000  0.289
  0.000  0.500  0.000  0.500  0.000
  0.000  0.500  0.000  0.500  0.000
  0.000  0.000  1.000  0.000  0.000
  0.289  0.000  0.000  0.000  0.711
    occupations:
  0.211 -0.000  0.000 -0.000  0.120
 -0.000  0.289  0.101  0.000 -0.000
  0.000  0.101  0.289  0.000  0.000
 -0.000  0.000  0.000  0.215 -0.000
  0.120 -0.000  0.000 -0.000  0.323
atomic mag. moment =     2.080962
atom    7   Tr[ns(na)] (up, down, total) =   3.40802  1.32708  4.73510
   spin  1
    eigenvalues: 
  0.480  0.519  0.637  0.799  0.973
    eigenvectors:
  0.000  0.290  0.000  0.000  0.710
  0.500  0.000  0.000  0.500  0.000
  0.500  0.000  0.000  0.500  0.000
  0.000  0.000  1.000  0.000  0.000
  0.000  0.710  0.000  0.000  0.290
    occupations:
  0.841 -0.000 -0.000  0.000  0.206
 -0.000  0.640  0.160  0.000  0.000
 -0.000  0.160  0.640  0.000  0.000
  0.000  0.000  0.000  0.637 -0.000
  0.206  0.000  0.000 -0.000  0.650
   spin  2
    eigenvalues: 
  0.134  0.188  0.215  0.389  0.400
    eigenvectors:
  0.711  0.000  0.000  0.000  0.289
  0.000  0.500  0.000  0.500  0.000
  0.000  0.500  0.000  0.500  0.000
  0.000  0.000  1.000  0.000  0.000
  0.289  0.000  0.000  0.000  0.711
    occupations:
  0.211 -0.000 -0.000  0.000 -0.120
 -0.000  0.289 -0.101  0.000  0.000
 -0.000 -0.101  0.289  0.000  0.000
  0.000  0.000  0.000  0.215  0.000
 -0.120  0.000  0.000  0.000  0.323
atomic mag. moment =     2.080931
atom    8   Tr[ns(na)] (up, down, total) =   3.40806  1.32710  4.73516
   spin  1
    eigenvalues: 
  0.480  0.519  0.637  0.799  0.973
    eigenvectors:
  0.000  0.290  0.000  0.000  0.710
  0.500  0.000  0.000  0.500  0.000
  0.500  0.000  0.000  0.500  0.000
  0.000  0.000  1.000  0.000  0.000
  0.000  0.710  0.000  0.000  0.290
    occupations:
  0.841 -0.000  0.000  0.000 -0.206
 -0.000  0.640 -0.160  0.000 -0.000
  0.000 -0.160  0.640  0.000  0.000
  0.000  0.000  0.000  0.637 -0.000
 -0.206 -0.000  0.000 -0.000  0.650
   spin  2
    eigenvalues: 
  0.134  0.188  0.215  0.389  0.400
    eigenvectors:
  0.711  0.000  0.000  0.000  0.289
  0.000  0.500  0.000  0.500  0.000
  0.000  0.500  0.000  0.500  0.000
  0.000  0.000  1.000  0.000  0.000
  0.289  0.000  0.000  0.000  0.711
    occupations:
  0.211  0.000 -0.000 -0.000  0.120
  0.000  0.289  0.101 -0.000  0.000
 -0.000  0.101  0.289 -0.000 -0.000
 -0.000 -0.000 -0.000  0.215 -0.000
  0.120  0.000 -0.000 -0.000  0.323
atomic mag. moment =     2.080962
atom    9   Tr[ns(na)] (up, down, total) =   3.40851  1.32724  4.73575
   spin  1
    eigenvalues: 
  0.480  0.519  0.637  0.799  0.973
    eigenvectors:
  0.000  0.290  0.000  0.000  0.710
  0.500  0.000  0.000  0.500  0.000
  0.500  0.000  0.000  0.500  0.000
  0.000  0.000  1.000  0.000  0.000
  0.000  0.710  0.000  0.000  0.290
    occupations:
  0.841 -0.000 -0.000 -0.000  0.206
 -0.000  0.640  0.160  0.000  0.000
 -0.000  0.160  0.640  0.000  0.000
 -0.000  0.000  0.000  0.637  0.000
  0.206  0.000  0.000  0.000  0.650
   spin  2
    eigenvalues: 
  0.134  0.188  0.215  0.390  0.400
    eigenvectors:
  0.711  0.000  0.000  0.000  0.289
  0.000  0.500  0.000  0.500  0.000
  0.000  0.500  0.000  0.500  0.000
  0.000  0.000  1.000  0.000  0.000
  0.289  0.000  0.000  0.000  0.711
    occupations:
  0.211 -0.000 -0.000 -0.000 -0.120
 -0.000  0.289 -0.101  0.000  0.000
 -0.000 -0.101  0.289  0.000  0.000
 -0.000  0.000  0.000  0.215 -0.000
 -0.120  0.000  0.000 -0.000  0.323
atomic mag. moment =     2.081272
atom   10   Tr[ns(na)] (up, down, total) =   3.40806  1.32710  4.73516
   spin  1
    eigenvalues: 
  0.480  0.519  0.637  0.799  0.973
    eigenvectors:
  0.000  0.290  0.000  0.000  0.710
  0.500  0.000  0.000  0.500  0.000
  0.500  0.000  0.000  0.500  0.000
  0.000  0.000  1.000  0.000  0.000
  0.000  0.710  0.000  0.000  0.290
    occupations:
  0.841 -0.000  0.000  0.000 -0.206
 -0.000  0.640 -0.160  0.000 -0.000
  0.000 -0.160  0.640  0.000  0.000
  0.000  0.000  0.000  0.637 -0.000
 -0.206 -0.000  0.000 -0.000  0.650
   spin  2
    eigenvalues: 
  0.134  0.188  0.215  0.389  0.400
    eigenvectors:
  0.711  0.000  0.000  0.000  0.289
  0.000  0.500  0.000  0.500  0.000
  0.000  0.500  0.000  0.500  0.000
  0.000  0.000  1.000  0.000  0.000
  0.289  0.000  0.000  0.000  0.711
    occupations:
  0.211  0.000 -0.000 -0.000  0.120
  0.000  0.289  0.101 -0.000  0.000
 -0.000  0.101  0.289 -0.000 -0.000
 -0.000 -0.000 -0.000  0.215 -0.000
  0.120  0.000 -0.000 -0.000  0.323
atomic mag. moment =     2.080962
atom   11   Tr[ns(na)] (up, down, total) =   3.40802  1.32708  4.73510
   spin  1
    eigenvalues: 
  0.480  0.519  0.637  0.799  0.973
    eigenvectors:
  0.000  0.290  0.000  0.000  0.710
  0.500  0.000  0.000  0.500  0.000
  0.500  0.000  0.000  0.500  0.000
  0.000  0.000  1.000  0.000  0.000
  0.000  0.710  0.000  0.000  0.290
    occupations:
  0.841 -0.000 -0.000 -0.000  0.206
 -0.000  0.640  0.160  0.000  0.000
 -0.000  0.160  0.640  0.000  0.000
 -0.000  0.000  0.000  0.637  0.000
  0.206  0.000  0.000  0.000  0.650
   spin  2
    eigenvalues: 
  0.134  0.188  0.215  0.389  0.400
    eigenvectors:
  0.711  0.000  0.000  0.000  0.289
  0.000  0.500  0.000  0.500  0.000
  0.000  0.500  0.000  0.500  0.000
  0.000  0.000  1.000  0.000  0.000
  0.289  0.000  0.000  0.000  0.711
    occupations:
  0.211 -0.000 -0.000 -0.000 -0.120
 -0.000  0.289 -0.101  0.000  0.000
 -0.000 -0.101  0.289  0.000  0.000
 -0.000  0.000  0.000  0.215 -0.000
 -0.120  0.000  0.000 -0.000  0.323
atomic mag. moment =     2.080931
atom   12   Tr[ns(na)] (up, down, total) =   3.40806  1.32710  4.73516
   spin  1
    eigenvalues: 
  0.480  0.519  0.637  0.799  0.973
    eigenvectors:
  0.000  0.290  0.000  0.000  0.710
  0.500  0.000  0.000  0.500  0.000
  0.500  0.000  0.000  0.500  0.000
  0.000  0.000  1.000  0.000  0.000
  0.000  0.710  0.000  0.000  0.290
    occupations:
  0.841  0.000 -0.000  0.000 -0.206
  0.000  0.640 -0.160 -0.000  0.000
 -0.000 -0.160  0.640 -0.000 -0.000
  0.000 -0.000 -0.000  0.637 -0.000
 -0.206  0.000 -0.000 -0.000  0.650
   spin  2
    eigenvalues: 
  0.134  0.188  0.215  0.389  0.400
    eigenvectors:
  0.711  0.000  0.000  0.000  0.289
  0.000  0.500  0.000  0.500  0.000
  0.000  0.500  0.000  0.500  0.000
  0.000  0.000  1.000  0.000  0.000
  0.289  0.000  0.000  0.000  0.711
    occupations:
  0.211 -0.000  0.000 -0.000  0.120
 -0.000  0.289  0.101  0.000 -0.000
  0.000  0.101  0.289  0.000  0.000
 -0.000  0.000  0.000  0.215 -0.000
  0.120 -0.000  0.000 -0.000  0.323
atomic mag. moment =     2.080962
atom   13   Tr[ns(na)] (up, down, total) =   3.40820  1.32716  4.73536
   spin  1
    eigenvalues: 
  0.480  0.519  0.637  0.799  0.973
    eigenvectors:
  0.000  0.290  0.000  0.000  0.710
  0.500  0.000  0.000  0.500  0.000
  0.500  0.000  0.000  0.500  0.000
  0.000  0.000  1.000  0.000  0.000
  0.000  0.710  0.000  0.000  0.290
    occupations:
  0.841 -0.000 -0.000 -0.000  0.206
 -0.000  0.640  0.160  0.000  0.000
 -0.000  0.160  0.640  0.000  0.000
 -0.000  0.000  0.000  0.637 -0.000
  0.206  0.000  0.000 -0.000  0.650
   spin  2
    eigenvalues: 
  0.134  0.188  0.215  0.389  0.400
    eigenvectors:
  0.711  0.000  0.000  0.000  0.289
  0.000  0.500  0.000  0.500  0.000
  0.000  0.500  0.000  0.500  0.000
  0.000  0.000  1.000  0.000  0.000
  0.289  0.000  0.000  0.000  0.711
    occupations:
  0.211 -0.000 -0.000  0.000 -0.120
 -0.000  0.289 -0.101  0.000  0.000
 -0.000 -0.101  0.289  0.000  0.000
  0.000  0.000  0.000  0.215 -0.000
 -0.120  0.000  0.000 -0.000  0.323
atomic mag. moment =     2.081039
atom   14   Tr[ns(na)] (up, down, total) =   3.40805  1.32709  4.73514
   spin  1
    eigenvalues: 
  0.480  0.519  0.637  0.799  0.973
    eigenvectors:
  0.000  0.290  0.000  0.000  0.710
  0.500  0.000  0.000  0.500  0.000
  0.500  0.000  0.000  0.500  0.000
  0.000  0.000  1.000  0.000  0.000
  0.000  0.710  0.000  0.000  0.290
    occupations:
  0.841 -0.000 -0.000  0.000 -0.206
 -0.000  0.640 -0.160  0.000  0.000
 -0.000 -0.160  0.640 -0.000  0.000
  0.000  0.000 -0.000  0.637 -0.000
 -0.206  0.000  0.000 -0.000  0.650
   spin  2
    eigenvalues: 
  0.134  0.188  0.215  0.389  0.400
    eigenvectors:
  0.711  0.000  0.000  0.000  0.289
  0.000  0.500  0.000  0.500  0.000
  0.000  0.500  0.000  0.500  0.000
  0.000  0.000  1.000  0.000  0.000
  0.289  0.000  0.000  0.000  0.711
    occupations:
  0.211  0.000  0.000 -0.000  0.120
  0.000  0.289  0.101  0.000  0.000
  0.000  0.101  0.289 -0.000  0.000
 -0.000  0.000 -0.000  0.215 -0.000
  0.120  0.000  0.000 -0.000  0.323
atomic mag. moment =     2.080954
atom   15   Tr[ns(na)] (up, down, total) =   3.40806  1.32712  4.73518
   spin  1
    eigenvalues: 
  0.480  0.519  0.637  0.799  0.973
    eigenvectors:
  0.000  0.290  0.000  0.000  0.710
  0.500  0.000  0.000  0.500  0.000
  0.500  0.000  0.000  0.500  0.000
  0.000  0.000  1.000  0.000  0.000
  0.000  0.710  0.000  0.000  0.290
    occupations:
  0.841 -0.000 -0.000 -0.000  0.206
 -0.000  0.640  0.160  0.000  0.000
 -0.000  0.160  0.640  0.000  0.000
 -0.000  0.000  0.000  0.637 -0.000
  0.206  0.000  0.000 -0.000  0.650
   spin  2
    eigenvalues: 
  0.134  0.188  0.215  0.389  0.400
    eigenvectors:
  0.711  0.000  0.000  0.000  0.289
  0.000  0.500  0.000  0.500  0.000
  0.000  0.500  0.000  0.500  0.000
  0.000  0.000  1.000  0.000  0.000
  0.289  0.000  0.000  0.000  0.711
    occupations:
  0.211 -0.000 -0.000  0.000 -0.120
 -0.000  0.289 -0.101  0.000  0.000
 -0.000 -0.101  0.289  0.000  0.000
  0.000  0.000  0.000  0.215 -0.000
 -0.120  0.000  0.000 -0.000  0.323
atomic mag. moment =     2.080946
atom   16   Tr[ns(na)] (up, down, total) =   3.40805  1.32709  4.73514
   spin  1
    eigenvalues: 
  0.480  0.519  0.637  0.799  0.973
    eigenvectors:
  0.000  0.290  0.000  0.000  0.710
  0.500  0.000  0.000  0.500  0.000
  0.500  0.000  0.000  0.500  0.000
  0.000  0.000  1.000  0.000  0.000
  0.000  0.710  0.000  0.000  0.290
    occupations:
  0.841  0.000  0.000  0.000 -0.206
  0.000  0.640 -0.160 -0.000 -0.000
  0.000 -0.160  0.640  0.000 -0.000
  0.000 -0.000  0.000  0.637 -0.000
 -0.206 -0.000 -0.000 -0.000  0.650
   spin  2
    eigenvalues: 
  0.134  0.188  0.215  0.389  0.400
    eigenvectors:
  0.711  0.000  0.000  0.000  0.289
  0.000  0.500  0.000  0.500  0.000
  0.000  0.500  0.000  0.500  0.000
  0.000  0.000  1.000  0.000  0.000
  0.289  0.000  0.000  0.000  0.711
    occupations:
  0.211 -0.000 -0.000 -0.000  0.120
 -0.000  0.289  0.101 -0.000 -0.000
 -0.000  0.101  0.289  0.000 -0.000
 -0.000 -0.000  0.000  0.215 -0.000
  0.120 -0.000 -0.000 -0.000  0.323
atomic mag. moment =     2.080954
atom   17   Tr[ns(na)] (up, down, total) =   2.61442  2.69607  5.31048
   spin  1
    eigenvalues: 
  0.854  0.873  0.888
    eigenvectors:
  0.000  0.000  1.000
  0.500  0.500  0.000
  0.500  0.500  0.000
    occupations:
  0.888 -0.000 -0.000
 -0.000  0.863  0.010
 -0.000  0.010  0.863
   spin  2
    eigenvalues: 
  0.888  0.899  0.909
    eigenvectors:
  0.000  1.000  0.000
  0.500  0.000  0.500
  0.500  0.000  0.500
    occupations:
  0.899 -0.000 -0.000
 -0.000  0.899 -0.011
 -0.000 -0.011  0.899
atomic mag. moment =    -0.081651
atom   18   Tr[ns(na)] (up, down, total) =   2.61442  2.69607  5.31048
   spin  1
    eigenvalues: 
  0.854  0.873  0.888
    eigenvectors:
  0.000  0.000  1.000
  0.500  0.500  0.000
  0.500  0.500  0.000
    occupations:
  0.888 -0.000 -0.000
 -0.000  0.863  0.010
 -0.000  0.010  0.863
   spin  2
    eigenvalues: 
  0.888  0.899  0.909
    eigenvectors:
  0.000  1.000  0.000
  0.500  0.000  0.500
  0.500  0.000  0.500
    occupations:
  0.899 -0.000 -0.000
 -0.000  0.899 -0.011
 -0.000 -0.011  0.899
atomic mag. moment =    -0.081651
atom   19   Tr[ns(na)] (up, down, total) =   2.61441  2.69605  5.31046
   spin  1
    eigenvalues: 
  0.854  0.873  0.888
    eigenvectors:
  0.000  0.000  1.000
  0.500  0.500  0.000
  0.500  0.500  0.000
    occupations:
  0.888 -0.000  0.000
 -0.000  0.863 -0.010
  0.000 -0.010  0.863
   spin  2
    eigenvalues: 
  0.888  0.899  0.909
    eigenvectors:
  0.000  1.000  0.000
  0.500  0.000  0.500
  0.500  0.000  0.500
    occupations:
  0.899 -0.000  0.000
 -0.000  0.899  0.011
  0.000  0.011  0.899
atomic mag. moment =    -0.081644
atom   20   Tr[ns(na)] (up, down, total) =   2.61441  2.69605  5.31046
   spin  1
    eigenvalues: 
  0.854  0.873  0.888
    eigenvectors:
  0.000  0.000  1.000
  0.500  0.500  0.000
  0.500  0.500  0.000
    occupations:
  0.888  0.000 -0.000
  0.000  0.863 -0.010
 -0.000 -0.010  0.863
   spin  2
    eigenvalues: 
  0.888  0.899  0.909
    eigenvectors:
  0.000  1.000  0.000
  0.500  0.000  0.500
  0.500  0.000  0.500
    occupations:
  0.899  0.000 -0.000
  0.000  0.899  0.011
 -0.000  0.011  0.899
atomic mag. moment =    -0.081644
atom   21   Tr[ns(na)] (up, down, total) =   2.61444  2.69608  5.31052
   spin  1
    eigenvalues: 
  0.854  0.873  0.888
    eigenvectors:
  0.000  0.000  1.000
  0.500  0.500  0.000
  0.500  0.500  0.000
    occupations:
  0.888 -0.000 -0.000
 -0.000  0.863  0.010
 -0.000  0.010  0.863
   spin  2
    eigenvalues: 
  0.888  0.899  0.909
    eigenvectors:
  0.000  1.000  0.000
  0.500  0.000  0.500
  0.500  0.000  0.500
    occupations:
  0.899 -0.000 -0.000
 -0.000  0.899 -0.011
 -0.000 -0.011  0.899
atomic mag. moment =    -0.081639
atom   22   Tr[ns(na)] (up, down, total) =   2.61444  2.69608  5.31052
   spin  1
    eigenvalues: 
  0.854  0.873  0.888
    eigenvectors:
  0.000  0.000  1.000
  0.500  0.500  0.000
  0.500  0.500  0.000
    occupations:
  0.888 -0.000 -0.000
 -0.000  0.863  0.010
 -0.000  0.010  0.863
   spin  2
    eigenvalues: 
  0.888  0.899  0.909
    eigenvectors:
  0.000  1.000  0.000
  0.500  0.000  0.500
  0.500  0.000  0.500
    occupations:
  0.899 -0.000 -0.000
 -0.000  0.899 -0.011
 -0.000 -0.011  0.899
atomic mag. moment =    -0.081639
atom   23   Tr[ns(na)] (up, down, total) =   2.61441  2.69605  5.31046
   spin  1
    eigenvalues: 
  0.854  0.873  0.888
    eigenvectors:
  0.000  0.000  1.000
  0.500  0.500  0.000
  0.500  0.500  0.000
    occupations:
  0.888  0.000 -0.000
  0.000  0.863 -0.010
 -0.000 -0.010  0.863
   spin  2
    eigenvalues: 
  0.888  0.899  0.909
    eigenvectors:
  0.000  1.000  0.000
  0.500  0.000  0.500
  0.500  0.000  0.500
    occupations:
  0.899  0.000 -0.000
  0.000  0.899  0.011
 -0.000  0.011  0.899
atomic mag. moment =    -0.081644
atom   24   Tr[ns(na)] (up, down, total) =   2.61441  2.69605  5.31046
   spin  1
    eigenvalues: 
  0.854  0.873  0.888
    eigenvectors:
  0.000  0.000  1.000
  0.500  0.500  0.000
  0.500  0.500  0.000
    occupations:
  0.888 -0.000  0.000
 -0.000  0.863 -0.010
  0.000 -0.010  0.863
   spin  2
    eigenvalues: 
  0.888  0.899  0.909
    eigenvectors:
  0.000  1.000  0.000
  0.500  0.000  0.500
  0.500  0.000  0.500
    occupations:
  0.899 -0.000  0.000
 -0.000  0.899  0.011
  0.000  0.011  0.899
atomic mag. moment =    -0.081644
atom   25   Tr[ns(na)] (up, down, total) =   2.61439  2.69604  5.31044
   spin  1
    eigenvalues: 
  0.854  0.873  0.888
    eigenvectors:
  0.000  0.000  1.000
  0.500  0.500  0.000
  0.500  0.500  0.000
    occupations:
  0.888 -0.000 -0.000
 -0.000  0.863  0.010
 -0.000  0.010  0.863
   spin  2
    eigenvalues: 
  0.888  0.899  0.909
    eigenvectors:
  0.000  1.000  0.000
  0.500  0.000  0.500
  0.500  0.000  0.500
    occupations:
  0.899 -0.000 -0.000
 -0.000  0.899 -0.011
 -0.000 -0.011  0.899
atomic mag. moment =    -0.081650
atom   26   Tr[ns(na)] (up, down, total) =   2.61439  2.69604  5.31044
   spin  1
    eigenvalues: 
  0.854  0.873  0.888
    eigenvectors:
  0.000  0.000  1.000
  0.500  0.500  0.000
  0.500  0.500  0.000
    occupations:
  0.888 -0.000 -0.000
 -0.000  0.863  0.010
 -0.000  0.010  0.863
   spin  2
    eigenvalues: 
  0.888  0.899  0.909
    eigenvectors:
  0.000  1.000  0.000
  0.500  0.000  0.500
  0.500  0.000  0.500
    occupations:
  0.899 -0.000 -0.000
 -0.000  0.899 -0.011
 -0.000 -0.011  0.899
atomic mag. moment =    -0.081650
atom   27   Tr[ns(na)] (up, down, total) =   2.61438  2.69605  5.31043
   spin  1
    eigenvalues: 
  0.854  0.873  0.888
    eigenvectors:
  0.000  0.000  1.000
  0.500  0.500  0.000
  0.500  0.500  0.000
    occupations:
  0.888 -0.000  0.000
 -0.000  0.863 -0.010
  0.000 -0.010  0.863
   spin  2
    eigenvalues: 
  0.888  0.899  0.909
    eigenvectors:
  0.000  1.000  0.000
  0.500  0.000  0.500
  0.500  0.000  0.500
    occupations:
  0.899 -0.000  0.000
 -0.000  0.899  0.011
  0.000  0.011  0.899
atomic mag. moment =    -0.081663
atom   28   Tr[ns(na)] (up, down, total) =   2.61443  2.69607  5.31050
   spin  1
    eigenvalues: 
  0.854  0.873  0.888
    eigenvectors:
  0.000  0.000  1.000
  0.500  0.500  0.000
  0.500  0.500  0.000
    occupations:
  0.888 -0.000  0.000
 -0.000  0.863 -0.010
  0.000 -0.010  0.863
   spin  2
    eigenvalues: 
  0.888  0.899  0.909
    eigenvectors:
  0.000  1.000  0.000
  0.500  0.000  0.500
  0.500  0.000  0.500
    occupations:
  0.899 -0.000  0.000
 -0.000  0.899  0.011
  0.000  0.011  0.899
atomic mag. moment =    -0.081639
atom   29   Tr[ns(na)] (up, down, total) =   2.61441  2.69607  5.31048
   spin  1
    eigenvalues: 
  0.854  0.873  0.888
    eigenvectors:
  0.000  0.000  1.000
  0.500  0.500  0.000
  0.500  0.500  0.000
    occupations:
  0.888 -0.000 -0.000
 -0.000  0.863  0.010
 -0.000  0.010  0.863
   spin  2
    eigenvalues: 
  0.888  0.899  0.909
    eigenvectors:
  0.000  1.000  0.000
  0.500  0.000  0.500
  0.500  0.000  0.500
    occupations:
  0.899 -0.000 -0.000
 -0.000  0.899 -0.011
 -0.000 -0.011  0.899
atomic mag. moment =    -0.081655
atom   30   Tr[ns(na)] (up, down, total) =   2.61441  2.69607  5.31048
   spin  1
    eigenvalues: 
  0.854  0.873  0.888
    eigenvectors:
  0.000  0.000  1.000
  0.500  0.500  0.000
  0.500  0.500  0.000
    occupations:
  0.888 -0.000 -0.000
 -0.000  0.863  0.010
 -0.000  0.010  0.863
   spin  2
    eigenvalues: 
  0.888  0.899  0.909
    eigenvectors:
  0.000  1.000  0.000
  0.500  0.000  0.500
  0.500  0.000  0.500
    occupations:
  0.899 -0.000 -0.000
 -0.000  0.899 -0.011
 -0.000 -0.011  0.899
atomic mag. moment =    -0.081655
atom   31   Tr[ns(na)] (up, down, total) =   2.61438  2.69605  5.31043
   spin  1
    eigenvalues: 
  0.854  0.873  0.888
    eigenvectors:
  0.000  0.000  1.000
  0.500  0.500  0.000
  0.500  0.500  0.000
    occupations:
  0.888  0.000 -0.000
  0.000  0.863 -0.010
 -0.000 -0.010  0.863
   spin  2
    eigenvalues: 
  0.888  0.899  0.909
    eigenvectors:
  0.000  1.000  0.000
  0.500  0.000  0.500
  0.500  0.000  0.500
    occupations:
  0.899  0.000 -0.000
  0.000  0.899  0.011
 -0.000  0.011  0.899
atomic mag. moment =    -0.081663
atom   32   Tr[ns(na)] (up, down, total) =   2.61443  2.69607  5.31050
   spin  1
    eigenvalues: 
  0.854  0.873  0.888
    eigenvectors:
  0.000  0.000  1.000
  0.500  0.500  0.000
  0.500  0.500  0.000
    occupations:
  0.888  0.000 -0.000
  0.000  0.863 -0.010
 -0.000 -0.010  0.863
   spin  2
    eigenvalues: 
  0.888  0.899  0.909
    eigenvectors:
  0.000  1.000  0.000
  0.500  0.000  0.500
  0.500  0.000  0.500
    occupations:
  0.899  0.000 -0.000
  0.000  0.899  0.011
 -0.000  0.011  0.899
atomic mag. moment =    -0.081639
atom   33   Tr[ns(na)] (up, down, total) =   2.61439  2.69604  5.31044
   spin  1
    eigenvalues: 
  0.854  0.873  0.888
    eigenvectors:
  0.000  0.000  1.000
  0.500  0.500  0.000
  0.500  0.500  0.000
    occupations:
  0.888 -0.000 -0.000
 -0.000  0.863  0.010
 -0.000  0.010  0.863
   spin  2
    eigenvalues: 
  0.888  0.899  0.909
    eigenvectors:
  0.000  1.000  0.000
  0.500  0.000  0.500
  0.500  0.000  0.500
    occupations:
  0.899 -0.000 -0.000
 -0.000  0.899 -0.011
 -0.000 -0.011  0.899
atomic mag. moment =    -0.081650
atom   34   Tr[ns(na)] (up, down, total) =   2.61439  2.69604  5.31044
   spin  1
    eigenvalues: 
  0.854  0.873  0.888
    eigenvectors:
  0.000  0.000  1.000
  0.500  0.500  0.000
  0.500  0.500  0.000
    occupations:
  0.888 -0.000 -0.000
 -0.000  0.863  0.010
 -0.000  0.010  0.863
   spin  2
    eigenvalues: 
  0.888  0.899  0.909
    eigenvectors:
  0.000  1.000  0.000
  0.500  0.000  0.500
  0.500  0.000  0.500
    occupations:
  0.899 -0.000 -0.000
 -0.000  0.899 -0.011
 -0.000 -0.011  0.899
atomic mag. moment =    -0.081650
atom   35   Tr[ns(na)] (up, down, total) =   2.61443  2.69607  5.31050
   spin  1
    eigenvalues: 
  0.854  0.873  0.888
    eigenvectors:
  0.000  0.000  1.000
  0.500  0.500  0.000
  0.500  0.500  0.000
    occupations:
  0.888  0.000 -0.000
  0.000  0.863 -0.010
 -0.000 -0.010  0.863
   spin  2
    eigenvalues: 
  0.888  0.899  0.909
    eigenvectors:
  0.000  1.000  0.000
  0.500  0.000  0.500
  0.500  0.000  0.500
    occupations:
  0.899  0.000 -0.000
  0.000  0.899  0.011
 -0.000  0.011  0.899
atomic mag. moment =    -0.081639
atom   36   Tr[ns(na)] (up, down, total) =   2.61438  2.69605  5.31043
   spin  1
    eigenvalues: 
  0.854  0.873  0.888
    eigenvectors:
  0.000  0.000  1.000
  0.500  0.500  0.000
  0.500  0.500  0.000
    occupations:
  0.888  0.000 -0.000
  0.000  0.863 -0.010
 -0.000 -0.010  0.863
   spin  2
    eigenvalues: 
  0.888  0.899  0.909
    eigenvectors:
  0.000  1.000  0.000
  0.500  0.000  0.500
  0.500  0.000  0.500
    occupations:
  0.899  0.000 -0.000
  0.000  0.899  0.011
 -0.000  0.011  0.899
atomic mag. moment =    -0.081663
atom   37   Tr[ns(na)] (up, down, total) =   2.61441  2.69607  5.31048
   spin  1
    eigenvalues: 
  0.854  0.873  0.888
    eigenvectors:
  0.000  0.000  1.000
  0.500  0.500  0.000
  0.500  0.500  0.000
    occupations:
  0.888 -0.000 -0.000
 -0.000  0.863  0.010
 -0.000  0.010  0.863
   spin  2
    eigenvalues: 
  0.888  0.899  0.909
    eigenvectors:
  0.000  1.000  0.000
  0.500  0.000  0.500
  0.500  0.000  0.500
    occupations:
  0.899 -0.000 -0.000
 -0.000  0.899 -0.011
 -0.000 -0.011  0.899
atomic mag. moment =    -0.081655
atom   38   Tr[ns(na)] (up, down, total) =   2.61441  2.69607  5.31048
   spin  1
    eigenvalues: 
  0.854  0.873  0.888
    eigenvectors:
  0.000  0.000  1.000
  0.500  0.500  0.000
  0.500  0.500  0.000
    occupations:
  0.888 -0.000 -0.000
 -0.000  0.863  0.010
 -0.000  0.010  0.863
   spin  2
    eigenvalues: 
  0.888  0.899  0.909
    eigenvectors:
  0.000  1.000  0.000
  0.500  0.000  0.500
  0.500  0.000  0.500
    occupations:
  0.899 -0.000 -0.000
 -0.000  0.899 -0.011
 -0.000 -0.011  0.899
atomic mag. moment =    -0.081655
atom   39   Tr[ns(na)] (up, down, total) =   2.61443  2.69607  5.31050
   spin  1
    eigenvalues: 
  0.854  0.873  0.888
    eigenvectors:
  0.000  0.000  1.000
  0.500  0.500  0.000
  0.500  0.500  0.000
    occupations:
  0.888 -0.000  0.000
 -0.000  0.863 -0.010
  0.000 -0.010  0.863
   spin  2
    eigenvalues: 
  0.888  0.899  0.909
    eigenvectors:
  0.000  1.000  0.000
  0.500  0.000  0.500
  0.500  0.000  0.500
    occupations:
  0.899 -0.000  0.000
 -0.000  0.899  0.011
  0.000  0.011  0.899
atomic mag. moment =    -0.081639
atom   40   Tr[ns(na)] (up, down, total) =   2.61438  2.69605  5.31043
   spin  1
    eigenvalues: 
  0.854  0.873  0.888
    eigenvectors:
  0.000  0.000  1.000
  0.500  0.500  0.000
  0.500  0.500  0.000
    occupations:
  0.888 -0.000  0.000
 -0.000  0.863 -0.010
  0.000 -0.010  0.863
   spin  2
    eigenvalues: 
  0.888  0.899  0.909
    eigenvectors:
  0.000  1.000  0.000
  0.500  0.000  0.500
  0.500  0.000  0.500
    occupations:
  0.899 -0.000  0.000
 -0.000  0.899  0.011
  0.000  0.011  0.899
atomic mag. moment =    -0.081663
atom   41   Tr[ns(na)] (up, down, total) =   2.61437  2.69604  5.31042
   spin  1
    eigenvalues: 
  0.854  0.873  0.888
    eigenvectors:
  0.000  0.000  1.000
  0.500  0.500  0.000
  0.500  0.500  0.000
    occupations:
  0.888 -0.000 -0.000
 -0.000  0.863  0.010
 -0.000  0.010  0.863
   spin  2
    eigenvalues: 
  0.888  0.899  0.909
    eigenvectors:
  0.000  1.000  0.000
  0.500  0.000  0.500
  0.500  0.000  0.500
    occupations:
  0.899 -0.000 -0.000
 -0.000  0.899 -0.011
 -0.000 -0.011  0.899
atomic mag. moment =    -0.081668
atom   42   Tr[ns(na)] (up, down, total) =   2.61437  2.69604  5.31042
   spin  1
    eigenvalues: 
  0.854  0.873  0.888
    eigenvectors:
  0.000  0.000  1.000
  0.500  0.500  0.000
  0.500  0.500  0.000
    occupations:
  0.888 -0.000 -0.000
 -0.000  0.863  0.010
 -0.000  0.010  0.863
   spin  2
    eigenvalues: 
  0.888  0.899  0.909
    eigenvectors:
  0.000  1.000  0.000
  0.500  0.000  0.500
  0.500  0.000  0.500
    occupations:
  0.899 -0.000 -0.000
 -0.000  0.899 -0.011
 -0.000 -0.011  0.899
atomic mag. moment =    -0.081668
atom   43   Tr[ns(na)] (up, down, total) =   2.61441  2.69605  5.31046
   spin  1
    eigenvalues: 
  0.854  0.873  0.888
    eigenvectors:
  0.000  0.000  1.000
  0.500  0.500  0.000
  0.500  0.500  0.000
    occupations:
  0.888 -0.000  0.000
 -0.000  0.863 -0.010
  0.000 -0.010  0.863
   spin  2
    eigenvalues: 
  0.888  0.899  0.909
    eigenvectors:
  0.000  1.000  0.000
  0.500  0.000  0.500
  0.500  0.000  0.500
    occupations:
  0.899 -0.000  0.000
 -0.000  0.899  0.011
  0.000  0.011  0.899
atomic mag. moment =    -0.081644
atom   44   Tr[ns(na)] (up, down, total) =   2.61441  2.69605  5.31046
   spin  1
    eigenvalues: 
  0.854  0.873  0.888
    eigenvectors:
  0.000  0.000  1.000
  0.500  0.500  0.000
  0.500  0.500  0.000
    occupations:
  0.888  0.000 -0.000
  0.000  0.863 -0.010
 -0.000 -0.010  0.863
   spin  2
    eigenvalues: 
  0.888  0.899  0.909
    eigenvectors:
  0.000  1.000  0.000
  0.500  0.000  0.500
  0.500  0.000  0.500
    occupations:
  0.899  0.000 -0.000
  0.000  0.899  0.011
 -0.000  0.011  0.899
atomic mag. moment =    -0.081644
atom   45   Tr[ns(na)] (up, down, total) =   2.61439  2.69606  5.31045
   spin  1
    eigenvalues: 
  0.854  0.873  0.888
    eigenvectors:
  0.000  0.000  1.000
  0.500  0.500  0.000
  0.500  0.500  0.000
    occupations:
  0.888 -0.000 -0.000
 -0.000  0.863  0.010
 -0.000  0.010  0.863
   spin  2
    eigenvalues: 
  0.888  0.899  0.909
    eigenvectors:
  0.000  1.000  0.000
  0.500  0.000  0.500
  0.500  0.000  0.500
    occupations:
  0.899 -0.000 -0.000
 -0.000  0.899 -0.011
 -0.000 -0.011  0.899
atomic mag. moment =    -0.081662
atom   46   Tr[ns(na)] (up, down, total) =   2.61439  2.69606  5.31045
   spin  1
    eigenvalues: 
  0.854  0.873  0.888
    eigenvectors:
  0.000  0.000  1.000
  0.500  0.500  0.000
  0.500  0.500  0.000
    occupations:
  0.888 -0.000 -0.000
 -0.000  0.863  0.010
 -0.000  0.010  0.863
   spin  2
    eigenvalues: 
  0.888  0.899  0.909
    eigenvectors:
  0.000  1.000  0.000
  0.500  0.000  0.500
  0.500  0.000  0.500
    occupations:
  0.899 -0.000 -0.000
 -0.000  0.899 -0.011
 -0.000 -0.011  0.899
atomic mag. moment =    -0.081662
atom   47   Tr[ns(na)] (up, down, total) =   2.61441  2.69605  5.31046
   spin  1
    eigenvalues: 
  0.854  0.873  0.888
    eigenvectors:
  0.000  0.000  1.000
  0.500  0.500  0.000
  0.500  0.500  0.000
    occupations:
  0.888  0.000 -0.000
  0.000  0.863 -0.010
 -0.000 -0.010  0.863
   spin  2
    eigenvalues: 
  0.888  0.899  0.909
    eigenvectors:
  0.000  1.000  0.000
  0.500  0.000  0.500
  0.500  0.000  0.500
    occupations:
  0.899  0.000 -0.000
  0.000  0.899  0.011
 -0.000  0.011  0.899
atomic mag. moment =    -0.081644
atom   48   Tr[ns(na)] (up, down, total) =   2.61441  2.69605  5.31046
   spin  1
    eigenvalues: 
  0.854  0.873  0.888
    eigenvectors:
  0.000  0.000  1.000
  0.500  0.500  0.000
  0.500  0.500  0.000
    occupations:
  0.888 -0.000  0.000
 -0.000  0.863 -0.010
  0.000 -0.010  0.863
   spin  2
    eigenvalues: 
  0.888  0.899  0.909
    eigenvectors:
  0.000  1.000  0.000
  0.500  0.000  0.500
  0.500  0.000  0.500
    occupations:
  0.899 -0.000  0.000
 -0.000  0.899  0.011
  0.000  0.011  0.899
atomic mag. moment =    -0.081644
N of occupied +U levels = 245.6986752
 --- exit write_ns ---
 Atomic wfc used for LDA+U Projector are NOT orthogonalized
     Starting wfc from file

     total cpu time spent up to now is       37.8 secs

     per-process dynamical memory:    83.1 Mb

     Self-consistent Calculation

     iteration #  1     ecut=    40.00 Ry     beta=0.70
     Davidson diagonalization with overlap
     ethr =  9.47E-10,  avg # of iterations =  5.4
 --- enter write_ns ---
 LDA+U parameters:
U( 1)     =  0.00000000
alpha( 1) = -0.07000000
U( 2)     =  0.00000000
alpha( 2) =  0.00000000
U( 3)     =  0.00000000
alpha( 3) =  0.00000000
atom    1   Tr[ns(na)] (up, down, total) =   3.44702  1.34391  4.79093
   spin  1
    eigenvalues: 
  0.484  0.523  0.652  0.813  0.975
    eigenvectors:
  0.000  0.290  0.000  0.000  0.710
  0.500  0.000  0.000  0.500  0.000
  0.500  0.000  0.000  0.500  0.000
  0.000  0.000  1.000  0.000  0.000
  0.000  0.710  0.000  0.000  0.290
    occupations:
  0.844 -0.000 -0.000 -0.000  0.205
 -0.000  0.649  0.164  0.000  0.000
 -0.000  0.164  0.649  0.000  0.000
 -0.000  0.000  0.000  0.652 -0.000
  0.205  0.000  0.000 -0.000  0.654
   spin  2
    eigenvalues: 
  0.137  0.191  0.220  0.393  0.403
    eigenvectors:
  0.712  0.000  0.000  0.000  0.288
  0.000  0.500  0.000  0.500  0.000
  0.000  0.500  0.000  0.500  0.000
  0.000  0.000  1.000  0.000  0.000
  0.288  0.000  0.000  0.000  0.712
    occupations:
  0.213 -0.000 -0.000  0.000 -0.121
 -0.000  0.292 -0.101  0.000  0.000
 -0.000 -0.101  0.292  0.000  0.000
  0.000  0.000  0.000  0.220 -0.000
 -0.121  0.000  0.000 -0.000  0.327
atomic mag. moment =     2.103111
atom    2   Tr[ns(na)] (up, down, total) =   3.40728  1.32724  4.73452
   spin  1
    eigenvalues: 
  0.480  0.519  0.637  0.798  0.973
    eigenvectors:
  0.000  0.290  0.000  0.000  0.710
  0.500  0.000  0.000  0.500  0.000
  0.500  0.000  0.000  0.500  0.000
  0.000  0.000  1.000  0.000  0.000
  0.000  0.710  0.000  0.000  0.290
    occupations:
  0.841 -0.000 -0.000  0.000 -0.206
 -0.000  0.639 -0.159  0.000  0.000
 -0.000 -0.159  0.639 -0.000  0.000
  0.000  0.000 -0.000  0.637 -0.000
 -0.206  0.000  0.000 -0.000  0.650
   spin  2
    eigenvalues: 
  0.134  0.188  0.215  0.389  0.400
    eigenvectors:
  0.711  0.000  0.000  0.000  0.289
  0.000  0.500  0.000  0.500  0.000
  0.000  0.500  0.000  0.500  0.000
  0.000  0.000  1.000  0.000  0.000
  0.289  0.000  0.000  0.000  0.711
    occupations:
  0.211  0.000  0.000 -0.000  0.120
  0.000  0.289  0.101  0.000  0.000
  0.000  0.101  0.289 -0.000  0.000
 -0.000  0.000 -0.000  0.215 -0.000
  0.120  0.000  0.000 -0.000  0.323
atomic mag. moment =     2.080041
atom    3   Tr[ns(na)] (up, down, total) =   3.40210  1.32658  4.72869
   spin  1
    eigenvalues: 
  0.480  0.518  0.636  0.796  0.973
    eigenvectors:
  0.000  0.290  0.000  0.000  0.710
  0.500  0.000  0.000  0.500  0.000
  0.500  0.000  0.000  0.500  0.000
  0.000  0.000  1.000  0.000  0.000
  0.000  0.710  0.000  0.000  0.290
    occupations:
  0.841 -0.000 -0.000 -0.000  0.206
 -0.000  0.638  0.158  0.000  0.000
 -0.000  0.158  0.638  0.000  0.000
 -0.000  0.000  0.000  0.636 -0.000
  0.206  0.000  0.000 -0.000  0.650
   spin  2
    eigenvalues: 
  0.134  0.188  0.215  0.389  0.400
    eigenvectors:
  0.711  0.000  0.000  0.000  0.289
  0.000  0.500  0.000  0.500  0.000
  0.000  0.500  0.000  0.500  0.000
  0.000  0.000  1.000  0.000  0.000
  0.289  0.000  0.000  0.000  0.711
    occupations:
  0.211 -0.000 -0.000  0.000 -0.120
 -0.000  0.289 -0.101  0.000  0.000
 -0.000 -0.101  0.289  0.000  0.000
  0.000  0.000  0.000  0.215 -0.000
 -0.120  0.000  0.000 -0.000  0.323
atomic mag. moment =     2.075520
atom    4   Tr[ns(na)] (up, down, total) =   3.40728  1.32724  4.73452
   spin  1
    eigenvalues: 
  0.480  0.519  0.637  0.798  0.973
    eigenvectors:
  0.000  0.290  0.000  0.000  0.710
  0.500  0.000  0.000  0.500  0.000
  0.500  0.000  0.000  0.500  0.000
  0.000  0.000  1.000  0.000  0.000
  0.000  0.710  0.000  0.000  0.290
    occupations:
  0.841  0.000  0.000  0.000 -0.206
  0.000  0.639 -0.159 -0.000 -0.000
  0.000 -0.159  0.639  0.000 -0.000
  0.000 -0.000  0.000  0.637 -0.000
 -0.206 -0.000 -0.000 -0.000  0.650
   spin  2
    eigenvalues: 
  0.134  0.188  0.215  0.389  0.400
    eigenvectors:
  0.711  0.000  0.000  0.000  0.289
  0.000  0.500  0.000  0.500  0.000
  0.000  0.500  0.000  0.500  0.000
  0.000  0.000  1.000  0.000  0.000
  0.289  0.000  0.000  0.000  0.711
    occupations:
  0.211 -0.000 -0.000 -0.000  0.120
 -0.000  0.289  0.101 -0.000 -0.000
 -0.000  0.101  0.289  0.000 -0.000
 -0.000 -0.000  0.000  0.215 -0.000
  0.120 -0.000 -0.000 -0.000  0.323
atomic mag. moment =     2.080041
atom    5   Tr[ns(na)] (up, down, total) =   3.40114  1.32545  4.72658
   spin  1
    eigenvalues: 
  0.479  0.518  0.635  0.796  0.972
    eigenvectors:
  0.000  0.290  0.000  0.000  0.710
  0.500  0.000  0.000  0.500  0.000
  0.500  0.000  0.000  0.500  0.000
  0.000  0.000  1.000  0.000  0.000
  0.000  0.710  0.000  0.000  0.290
    occupations:
  0.841 -0.000 -0.000  0.000  0.206
 -0.000  0.638  0.158  0.000  0.000
 -0.000  0.158  0.638  0.000  0.000
  0.000  0.000  0.000  0.635 -0.000
  0.206  0.000  0.000 -0.000  0.650
   spin  2
    eigenvalues: 
  0.134  0.188  0.215  0.389  0.400
    eigenvectors:
  0.711  0.000  0.000  0.000  0.289
  0.000  0.500  0.000  0.500  0.000
  0.000  0.500  0.000  0.500  0.000
  0.000  0.000  1.000  0.000  0.000
  0.289  0.000  0.000  0.000  0.711
    occupations:
  0.211 -0.000 -0.000 -0.000 -0.120
 -0.000  0.288 -0.101  0.000  0.000
 -0.000 -0.101  0.288  0.000  0.000
 -0.000  0.000  0.000  0.215 -0.000
 -0.120  0.000  0.000 -0.000  0.323
atomic mag. moment =     2.075686
atom    6   Tr[ns(na)] (up, down, total) =   3.40716  1.32719  4.73434
   spin  1
    eigenvalues: 
  0.480  0.519  0.636  0.800  0.973
    eigenvectors:
  0.000  0.290  0.000  0.000  0.710
  0.500  0.000  0.000  0.500  0.000
  0.500  0.000  0.000  0.500  0.000
  0.000  0.000  1.000  0.000  0.000
  0.000  0.710  0.000  0.000  0.290
    occupations:
  0.841 -0.000  0.000  0.000 -0.206
 -0.000  0.640 -0.160  0.000 -0.000
  0.000 -0.160  0.640  0.000  0.000
  0.000  0.000  0.000  0.636 -0.000
 -0.206 -0.000  0.000 -0.000  0.650
   spin  2
    eigenvalues: 
  0.134  0.188  0.215  0.390  0.400
    eigenvectors:
  0.711  0.000  0.000  0.000  0.289
  0.000  0.500  0.000  0.500  0.000
  0.000  0.500  0.000  0.500  0.000
  0.000  0.000  1.000  0.000  0.000
  0.289  0.000  0.000  0.000  0.711
    occupations:
  0.211  0.000 -0.000 -0.000  0.120
  0.000  0.289  0.101  0.000  0.000
 -0.000  0.101  0.289  0.000 -0.000
 -0.000  0.000  0.000  0.215 -0.000
  0.120  0.000 -0.000 -0.000  0.323
atomic mag. moment =     2.079972
atom    7   Tr[ns(na)] (up, down, total) =   3.40828  1.32739  4.73567
   spin  1
    eigenvalues: 
  0.480  0.519  0.637  0.799  0.973
    eigenvectors:
  0.000  0.290  0.000  0.000  0.710
  0.500  0.000  0.000  0.500  0.000
  0.500  0.000  0.000  0.500  0.000
  0.000  0.000  1.000  0.000  0.000
  0.000  0.710  0.000  0.000  0.290
    occupations:
  0.841 -0.000 -0.000 -0.000  0.206
 -0.000  0.640  0.160  0.000  0.000
 -0.000  0.160  0.640  0.000  0.000
 -0.000  0.000  0.000  0.637 -0.000
  0.206  0.000  0.000 -0.000  0.650
   spin  2
    eigenvalues: 
  0.134  0.188  0.215  0.390  0.400
    eigenvectors:
  0.711  0.000  0.000  0.000  0.289
  0.000  0.500  0.000  0.500  0.000
  0.000  0.500  0.000  0.500  0.000
  0.000  0.000  1.000  0.000  0.000
  0.289  0.000  0.000  0.000  0.711
    occupations:
  0.211 -0.000 -0.000  0.000 -0.120
 -0.000  0.289 -0.101  0.000  0.000
 -0.000 -0.101  0.289  0.000  0.000
  0.000  0.000  0.000  0.215  0.000
 -0.120  0.000  0.000  0.000  0.323
atomic mag. moment =     2.080893
atom    8   Tr[ns(na)] (up, down, total) =   3.40716  1.32719  4.73434
   spin  1
    eigenvalues: 
  0.480  0.519  0.636  0.800  0.973
    eigenvectors:
  0.000  0.290  0.000  0.000  0.710
  0.500  0.000  0.000  0.500  0.000
  0.500  0.000  0.000  0.500  0.000
  0.000  0.000  1.000  0.000  0.000
  0.000  0.710  0.000  0.000  0.290
    occupations:
  0.841  0.000 -0.000  0.000 -0.206
  0.000  0.640 -0.160 -0.000  0.000
 -0.000 -0.160  0.640 -0.000 -0.000
  0.000 -0.000 -0.000  0.636 -0.000
 -0.206  0.000 -0.000 -0.000  0.650
   spin  2
    eigenvalues: 
  0.134  0.188  0.215  0.390  0.400
    eigenvectors:
  0.711  0.000  0.000  0.000  0.289
  0.000  0.500  0.000  0.500  0.000
  0.000  0.500  0.000  0.500  0.000
  0.000  0.000  1.000  0.000  0.000
  0.289  0.000  0.000  0.000  0.711
    occupations:
  0.211 -0.000  0.000 -0.000  0.120
 -0.000  0.289  0.101 -0.000 -0.000
  0.000  0.101  0.289 -0.000  0.000
 -0.000 -0.000 -0.000  0.215 -0.000
  0.120 -0.000  0.000 -0.000  0.323
atomic mag. moment =     2.079972
atom    9   Tr[ns(na)] (up, down, total) =   3.40114  1.32545  4.72658
   spin  1
    eigenvalues: 
  0.479  0.518  0.635  0.796  0.972
    eigenvectors:
  0.000  0.290  0.000  0.000  0.710
  0.500  0.000  0.000  0.500  0.000
  0.500  0.000  0.000  0.500  0.000
  0.000  0.000  1.000  0.000  0.000
  0.000  0.710  0.000  0.000  0.290
    occupations:
  0.841 -0.000 -0.000 -0.000  0.206
 -0.000  0.638  0.158  0.000  0.000
 -0.000  0.158  0.638  0.000  0.000
 -0.000  0.000  0.000  0.635  0.000
  0.206  0.000  0.000  0.000  0.650
   spin  2
    eigenvalues: 
  0.134  0.188  0.215  0.389  0.400
    eigenvectors:
  0.711  0.000  0.000  0.000  0.289
  0.000  0.500  0.000  0.500  0.000
  0.000  0.500  0.000  0.500  0.000
  0.000  0.000  1.000  0.000  0.000
  0.289  0.000  0.000  0.000  0.711
    occupations:
  0.211 -0.000 -0.000  0.000 -0.120
 -0.000  0.288 -0.101  0.000  0.000
 -0.000 -0.101  0.288  0.000  0.000
  0.000  0.000  0.000  0.215  0.000
 -0.120  0.000  0.000  0.000  0.323
atomic mag. moment =     2.075686
atom   10   Tr[ns(na)] (up, down, total) =   3.40716  1.32719  4.73434
   spin  1
    eigenvalues: 
  0.480  0.519  0.636  0.800  0.973
    eigenvectors:
  0.000  0.290  0.000  0.000  0.710
  0.500  0.000  0.000  0.500  0.000
  0.500  0.000  0.000  0.500  0.000
  0.000  0.000  1.000  0.000  0.000
  0.000  0.710  0.000  0.000  0.290
    occupations:
  0.841  0.000 -0.000  0.000 -0.206
  0.000  0.640 -0.160 -0.000  0.000
 -0.000 -0.160  0.640 -0.000 -0.000
  0.000 -0.000 -0.000  0.636 -0.000
 -0.206  0.000 -0.000 -0.000  0.650
   spin  2
    eigenvalues: 
  0.134  0.188  0.215  0.390  0.400
    eigenvectors:
  0.711  0.000  0.000  0.000  0.289
  0.000  0.500  0.000  0.500  0.000
  0.000  0.500  0.000  0.500  0.000
  0.000  0.000  1.000  0.000  0.000
  0.289  0.000  0.000  0.000  0.711
    occupations:
  0.211 -0.000  0.000 -0.000  0.120
 -0.000  0.289  0.101 -0.000 -0.000
  0.000  0.101  0.289 -0.000  0.000
 -0.000 -0.000 -0.000  0.215 -0.000
  0.120 -0.000  0.000 -0.000  0.323
atomic mag. moment =     2.079972
atom   11   Tr[ns(na)] (up, down, total) =   3.40828  1.32739  4.73567
   spin  1
    eigenvalues: 
  0.480  0.519  0.637  0.799  0.973
    eigenvectors:
  0.000  0.290  0.000  0.000  0.710
  0.500  0.000  0.000  0.500  0.000
  0.500  0.000  0.000  0.500  0.000
  0.000  0.000  1.000  0.000  0.000
  0.000  0.710  0.000  0.000  0.290
    occupations:
  0.841 -0.000 -0.000  0.000  0.206
 -0.000  0.640  0.160  0.000  0.000
 -0.000  0.160  0.640  0.000  0.000
  0.000  0.000  0.000  0.637  0.000
  0.206  0.000  0.000  0.000  0.650
   spin  2
    eigenvalues: 
  0.134  0.188  0.215  0.390  0.400
    eigenvectors:
  0.711  0.000  0.000  0.000  0.289
  0.000  0.500  0.000  0.500  0.000
  0.000  0.500  0.000  0.500  0.000
  0.000  0.000  1.000  0.000  0.000
  0.289  0.000  0.000  0.000  0.711
    occupations:
  0.211 -0.000 -0.000 -0.000 -0.120
 -0.000  0.289 -0.101  0.000  0.000
 -0.000 -0.101  0.289  0.000  0.000
 -0.000  0.000  0.000  0.215 -0.000
 -0.120  0.000  0.000 -0.000  0.323
atomic mag. moment =     2.080893
atom   12   Tr[ns(na)] (up, down, total) =   3.40716  1.32719  4.73434
   spin  1
    eigenvalues: 
  0.480  0.519  0.636  0.800  0.973
    eigenvectors:
  0.000  0.290  0.000  0.000  0.710
  0.500  0.000  0.000  0.500  0.000
  0.500  0.000  0.000  0.500  0.000
  0.000  0.000  1.000  0.000  0.000
  0.000  0.710  0.000  0.000  0.290
    occupations:
  0.841 -0.000  0.000  0.000 -0.206
 -0.000  0.640 -0.160  0.000 -0.000
  0.000 -0.160  0.640  0.000  0.000
  0.000  0.000  0.000  0.636 -0.000
 -0.206 -0.000  0.000 -0.000  0.650
   spin  2
    eigenvalues: 
  0.134  0.188  0.215  0.390  0.400
    eigenvectors:
  0.711  0.000  0.000  0.000  0.289
  0.000  0.500  0.000  0.500  0.000
  0.000  0.500  0.000  0.500  0.000
  0.000  0.000  1.000  0.000  0.000
  0.289  0.000  0.000  0.000  0.711
    occupations:
  0.211  0.000 -0.000 -0.000  0.120
  0.000  0.289  0.101  0.000  0.000
 -0.000  0.101  0.289  0.000 -0.000
 -0.000  0.000  0.000  0.215 -0.000
  0.120  0.000 -0.000 -0.000  0.323
atomic mag. moment =     2.079972
atom   13   Tr[ns(na)] (up, down, total) =   3.40791  1.32668  4.73459
   spin  1
    eigenvalues: 
  0.480  0.519  0.637  0.799  0.973
    eigenvectors:
  0.000  0.290  0.000  0.000  0.710
  0.500  0.000  0.000  0.500  0.000
  0.500  0.000  0.000  0.500  0.000
  0.000  0.000  1.000  0.000  0.000
  0.000  0.710  0.000  0.000  0.290
    occupations:
  0.842 -0.000 -0.000 -0.000  0.206
 -0.000  0.640  0.160  0.000  0.000
 -0.000  0.160  0.640  0.000  0.000
 -0.000  0.000  0.000  0.637 -0.000
  0.206  0.000  0.000 -0.000  0.650
   spin  2
    eigenvalues: 
  0.134  0.188  0.215  0.389  0.400
    eigenvectors:
  0.711  0.000  0.000  0.000  0.289
  0.000  0.500  0.000  0.500  0.000
  0.000  0.500  0.000  0.500  0.000
  0.000  0.000  1.000  0.000  0.000
  0.289  0.000  0.000  0.000  0.711
    occupations:
  0.211 -0.000 -0.000  0.000 -0.120
 -0.000  0.289 -0.101  0.000  0.000
 -0.000 -0.101  0.289  0.000  0.000
  0.000  0.000  0.000  0.215 -0.000
 -0.120  0.000  0.000 -0.000  0.323
atomic mag. moment =     2.081237
atom   14   Tr[ns(na)] (up, down, total) =   3.40728  1.32724  4.73452
   spin  1
    eigenvalues: 
  0.480  0.519  0.637  0.798  0.973
    eigenvectors:
  0.000  0.290  0.000  0.000  0.710
  0.500  0.000  0.000  0.500  0.000
  0.500  0.000  0.000  0.500  0.000
  0.000  0.000  1.000  0.000  0.000
  0.000  0.710  0.000  0.000  0.290
    occupations:
  0.841  0.000  0.000  0.000 -0.206
  0.000  0.639 -0.159 -0.000 -0.000
  0.000 -0.159  0.639  0.000 -0.000
  0.000 -0.000  0.000  0.637 -0.000
 -0.206 -0.000 -0.000 -0.000  0.650
   spin  2
    eigenvalues: 
  0.134  0.188  0.215  0.389  0.400
    eigenvectors:
  0.711  0.000  0.000  0.000  0.289
  0.000  0.500  0.000  0.500  0.000
  0.000  0.500  0.000  0.500  0.000
  0.000  0.000  1.000  0.000  0.000
  0.289  0.000  0.000  0.000  0.711
    occupations:
  0.211 -0.000 -0.000 -0.000  0.120
 -0.000  0.289  0.101 -0.000 -0.000
 -0.000  0.101  0.289  0.000 -0.000
 -0.000 -0.000  0.000  0.215 -0.000
  0.120 -0.000 -0.000 -0.000  0.323
atomic mag. moment =     2.080041
atom   15   Tr[ns(na)] (up, down, total) =   3.40975  1.32726  4.73701
   spin  1
    eigenvalues: 
  0.480  0.519  0.638  0.800  0.973
    eigenvectors:
  0.000  0.290  0.000  0.000  0.710
  0.500  0.000  0.000  0.500  0.000
  0.500  0.000  0.000  0.500  0.000
  0.000  0.000  1.000  0.000  0.000
  0.000  0.710  0.000  0.000  0.290
    occupations:
  0.841 -0.000 -0.000 -0.000  0.206
 -0.000  0.640  0.160  0.000  0.000
 -0.000  0.160  0.640  0.000  0.000
 -0.000  0.000  0.000  0.638 -0.000
  0.206  0.000  0.000 -0.000  0.650
   spin  2
    eigenvalues: 
  0.134  0.188  0.215  0.389  0.400
    eigenvectors:
  0.711  0.000  0.000  0.000  0.289
  0.000  0.500  0.000  0.500  0.000
  0.000  0.500  0.000  0.500  0.000
  0.000  0.000  1.000  0.000  0.000
  0.289  0.000  0.000  0.000  0.711
    occupations:
  0.211 -0.000 -0.000  0.000 -0.120
 -0.000  0.289 -0.101  0.000  0.000
 -0.000 -0.101  0.289  0.000  0.000
  0.000  0.000  0.000  0.215 -0.000
 -0.120  0.000  0.000 -0.000  0.323
atomic mag. moment =     2.082492
atom   16   Tr[ns(na)] (up, down, total) =   3.40728  1.32724  4.73452
   spin  1
    eigenvalues: 
  0.480  0.519  0.637  0.798  0.973
    eigenvectors:
  0.000  0.290  0.000  0.000  0.710
  0.500  0.000  0.000  0.500  0.000
  0.500  0.000  0.000  0.500  0.000
  0.000  0.000  1.000  0.000  0.000
  0.000  0.710  0.000  0.000  0.290
    occupations:
  0.841 -0.000 -0.000  0.000 -0.206
 -0.000  0.639 -0.159  0.000  0.000
 -0.000 -0.159  0.639 -0.000  0.000
  0.000  0.000 -0.000  0.637 -0.000
 -0.206  0.000  0.000 -0.000  0.650
   spin  2
    eigenvalues: 
  0.134  0.188  0.215  0.389  0.400
    eigenvectors:
  0.711  0.000  0.000  0.000  0.289
  0.000  0.500  0.000  0.500  0.000
  0.000  0.500  0.000  0.500  0.000
  0.000  0.000  1.000  0.000  0.000
  0.289  0.000  0.000  0.000  0.711
    occupations:
  0.211  0.000  0.000 -0.000  0.120
  0.000  0.289  0.101  0.000  0.000
  0.000  0.101  0.289 -0.000  0.000
 -0.000  0.000 -0.000  0.215 -0.000
  0.120  0.000  0.000 -0.000  0.323
atomic mag. moment =     2.080041
atom   17   Tr[ns(na)] (up, down, total) =   2.61312  2.69418  5.30730
   spin  1
    eigenvalues: 
  0.853  0.872  0.888
    eigenvectors:
  0.000  0.000  1.000
  0.500  0.500  0.000
  0.500  0.500  0.000
    occupations:
  0.888 -0.000 -0.000
 -0.000  0.863  0.010
 -0.000  0.010  0.863
   spin  2
    eigenvalues: 
  0.887  0.898  0.908
    eigenvectors:
  0.000  1.000  0.000
  0.500  0.000  0.500
  0.500  0.000  0.500
    occupations:
  0.898 -0.000 -0.000
 -0.000  0.898 -0.011
 -0.000 -0.011  0.898
atomic mag. moment =    -0.081057
atom   18   Tr[ns(na)] (up, down, total) =   2.61312  2.69418  5.30730
   spin  1
    eigenvalues: 
  0.853  0.872  0.888
    eigenvectors:
  0.000  0.000  1.000
  0.500  0.500  0.000
  0.500  0.500  0.000
    occupations:
  0.888 -0.000 -0.000
 -0.000  0.863  0.010
 -0.000  0.010  0.863
   spin  2
    eigenvalues: 
  0.887  0.898  0.908
    eigenvectors:
  0.000  1.000  0.000
  0.500  0.000  0.500
  0.500  0.000  0.500
    occupations:
  0.898 -0.000 -0.000
 -0.000  0.898 -0.011
 -0.000 -0.011  0.898
atomic mag. moment =    -0.081057
atom   19   Tr[ns(na)] (up, down, total) =   2.61415  2.69610  5.31025
   spin  1
    eigenvalues: 
  0.854  0.873  0.888
    eigenvectors:
  0.000  0.000  1.000
  0.500  0.500  0.000
  0.500  0.500  0.000
    occupations:
  0.888  0.000 -0.000
  0.000  0.863 -0.010
 -0.000 -0.010  0.863
   spin  2
    eigenvalues: 
  0.888  0.899  0.909
    eigenvectors:
  0.000  1.000  0.000
  0.500  0.000  0.500
  0.500  0.000  0.500
    occupations:
  0.899  0.000 -0.000
  0.000  0.899  0.011
 -0.000  0.011  0.899
atomic mag. moment =    -0.081958
atom   20   Tr[ns(na)] (up, down, total) =   2.61415  2.69610  5.31025
   spin  1
    eigenvalues: 
  0.854  0.873  0.888
    eigenvectors:
  0.000  0.000  1.000
  0.500  0.500  0.000
  0.500  0.500  0.000
    occupations:
  0.888 -0.000  0.000
 -0.000  0.863 -0.010
  0.000 -0.010  0.863
   spin  2
    eigenvalues: 
  0.888  0.899  0.909
    eigenvectors:
  0.000  1.000  0.000
  0.500  0.000  0.500
  0.500  0.000  0.500
    occupations:
  0.899 -0.000  0.000
 -0.000  0.899  0.011
  0.000  0.011  0.899
atomic mag. moment =    -0.081958
atom   21   Tr[ns(na)] (up, down, total) =   2.61413  2.69591  5.31005
   spin  1
    eigenvalues: 
  0.854  0.873  0.888
    eigenvectors:
  0.000  0.000  1.000
  0.500  0.500  0.000
  0.500  0.500  0.000
    occupations:
  0.888 -0.000 -0.000
 -0.000  0.863  0.010
 -0.000  0.010  0.863
   spin  2
    eigenvalues: 
  0.888  0.899  0.909
    eigenvectors:
  0.000  1.000  0.000
  0.500  0.000  0.500
  0.500  0.000  0.500
    occupations:
  0.899 -0.000 -0.000
 -0.000  0.899 -0.011
 -0.000 -0.011  0.899
atomic mag. moment =    -0.081777
atom   22   Tr[ns(na)] (up, down, total) =   2.61413  2.69591  5.31005
   spin  1
    eigenvalues: 
  0.854  0.873  0.888
    eigenvectors:
  0.000  0.000  1.000
  0.500  0.500  0.000
  0.500  0.500  0.000
    occupations:
  0.888 -0.000 -0.000
 -0.000  0.863  0.010
 -0.000  0.010  0.863
   spin  2
    eigenvalues: 
  0.888  0.899  0.909
    eigenvectors:
  0.000  1.000  0.000
  0.500  0.000  0.500
  0.500  0.000  0.500
    occupations:
  0.899 -0.000 -0.000
 -0.000  0.899 -0.011
 -0.000 -0.011  0.899
atomic mag. moment =    -0.081777
atom   23   Tr[ns(na)] (up, down, total) =   2.61415  2.69610  5.31025
   spin  1
    eigenvalues: 
  0.854  0.873  0.888
    eigenvectors:
  0.000  0.000  1.000
  0.500  0.500  0.000
  0.500  0.500  0.000
    occupations:
  0.888 -0.000  0.000
 -0.000  0.863 -0.010
  0.000 -0.010  0.863
   spin  2
    eigenvalues: 
  0.888  0.899  0.909
    eigenvectors:
  0.000  1.000  0.000
  0.500  0.000  0.500
  0.500  0.000  0.500
    occupations:
  0.899 -0.000  0.000
 -0.000  0.899  0.011
  0.000  0.011  0.899
atomic mag. moment =    -0.081958
atom   24   Tr[ns(na)] (up, down, total) =   2.61415  2.69610  5.31025
   spin  1
    eigenvalues: 
  0.854  0.873  0.888
    eigenvectors:
  0.000  0.000  1.000
  0.500  0.500  0.000
  0.500  0.500  0.000
    occupations:
  0.888  0.000 -0.000
  0.000  0.863 -0.010
 -0.000 -0.010  0.863
   spin  2
    eigenvalues: 
  0.888  0.899  0.909
    eigenvectors:
  0.000  1.000  0.000
  0.500  0.000  0.500
  0.500  0.000  0.500
    occupations:
  0.899  0.000 -0.000
  0.000  0.899  0.011
 -0.000  0.011  0.899
atomic mag. moment =    -0.081958
atom   25   Tr[ns(na)] (up, down, total) =   2.61416  2.69615  5.31031
   spin  1
    eigenvalues: 
  0.854  0.873  0.888
    eigenvectors:
  0.000  0.000  1.000
  0.499  0.501  0.000
  0.501  0.499  0.000
    occupations:
  0.888 -0.000 -0.000
 -0.000  0.863  0.010
 -0.000  0.010  0.863
   spin  2
    eigenvalues: 
  0.888  0.899  0.909
    eigenvectors:
  0.000  1.000  0.000
  0.500  0.000  0.500
  0.500  0.000  0.500
    occupations:
  0.899 -0.000 -0.000
 -0.000  0.899 -0.011
 -0.000 -0.011  0.899
atomic mag. moment =    -0.081988
atom   26   Tr[ns(na)] (up, down, total) =   2.61416  2.69615  5.31031
   spin  1
    eigenvalues: 
  0.854  0.873  0.888
    eigenvectors:
  0.000  0.000  1.000
  0.499  0.501  0.000
  0.501  0.499  0.000
    occupations:
  0.888 -0.000 -0.000
 -0.000  0.863  0.010
 -0.000  0.010  0.863
   spin  2
    eigenvalues: 
  0.888  0.899  0.909
    eigenvectors:
  0.000  1.000  0.000
  0.500  0.000  0.500
  0.500  0.000  0.500
    occupations:
  0.899 -0.000 -0.000
 -0.000  0.899 -0.011
 -0.000 -0.011  0.899
atomic mag. moment =    -0.081988
atom   27   Tr[ns(na)] (up, down, total) =   2.61436  2.69610  5.31046
   spin  1
    eigenvalues: 
  0.854  0.873  0.888
    eigenvectors:
  0.000  0.000  1.000
  0.500  0.500  0.000
  0.500  0.500  0.000
    occupations:
  0.888 -0.000  0.000
 -0.000  0.863 -0.010
  0.000 -0.010  0.863
   spin  2
    eigenvalues: 
  0.888  0.899  0.909
    eigenvectors:
  0.000  1.000  0.000
  0.500  0.000  0.500
  0.500  0.000  0.500
    occupations:
  0.899  0.000 -0.000
  0.000  0.899  0.011
 -0.000  0.011  0.899
atomic mag. moment =    -0.081745
atom   28   Tr[ns(na)] (up, down, total) =   2.61338  2.69435  5.30772
   spin  1
    eigenvalues: 
  0.854  0.873  0.887
    eigenvectors:
  0.000  0.001  0.999
  0.500  0.499  0.001
  0.500  0.499  0.001
    occupations:
  0.887  0.000 -0.000
  0.000  0.863 -0.010
 -0.000 -0.010  0.863
   spin  2
    eigenvalues: 
  0.887  0.898  0.909
    eigenvectors:
  0.000  1.000  0.000
  0.500  0.000  0.500
  0.500  0.000  0.500
    occupations:
  0.898  0.000 -0.000
  0.000  0.898  0.011
 -0.000  0.011  0.898
atomic mag. moment =    -0.080970
atom   29   Tr[ns(na)] (up, down, total) =   2.61416  2.69597  5.31014
   spin  1
    eigenvalues: 
  0.854  0.873  0.888
    eigenvectors:
  0.000  0.000  1.000
  0.502  0.498  0.000
  0.498  0.502  0.000
    occupations:
  0.888 -0.000 -0.000
 -0.000  0.863  0.010
 -0.000  0.010  0.863
   spin  2
    eigenvalues: 
  0.888  0.899  0.909
    eigenvectors:
  0.000  1.000  0.000
  0.500  0.000  0.500
  0.500  0.000  0.500
    occupations:
  0.899 -0.000 -0.000
 -0.000  0.899 -0.011
 -0.000 -0.011  0.899
atomic mag. moment =    -0.081810
atom   30   Tr[ns(na)] (up, down, total) =   2.61416  2.69597  5.31014
   spin  1
    eigenvalues: 
  0.854  0.873  0.888
    eigenvectors:
  0.000  0.000  1.000
  0.502  0.498  0.000
  0.498  0.502  0.000
    occupations:
  0.888 -0.000 -0.000
 -0.000  0.863  0.010
 -0.000  0.010  0.863
   spin  2
    eigenvalues: 
  0.888  0.899  0.909
    eigenvectors:
  0.000  1.000  0.000
  0.500  0.000  0.500
  0.500  0.000  0.500
    occupations:
  0.899 -0.000 -0.000
 -0.000  0.899 -0.011
 -0.000 -0.011  0.899
atomic mag. moment =    -0.081810
atom   31   Tr[ns(na)] (up, down, total) =   2.61436  2.69610  5.31046
   spin  1
    eigenvalues: 
  0.854  0.873  0.888
    eigenvectors:
  0.000  0.000  1.000
  0.500  0.500  0.000
  0.500  0.500  0.000
    occupations:
  0.888  0.000 -0.000
  0.000  0.863 -0.010
 -0.000 -0.010  0.863
   spin  2
    eigenvalues: 
  0.888  0.899  0.909
    eigenvectors:
  0.000  1.000  0.000
  0.500  0.000  0.500
  0.500  0.000  0.500
    occupations:
  0.899 -0.000  0.000
 -0.000  0.899  0.011
  0.000  0.011  0.899
atomic mag. moment =    -0.081745
atom   32   Tr[ns(na)] (up, down, total) =   2.61338  2.69435  5.30772
   spin  1
    eigenvalues: 
  0.854  0.873  0.887
    eigenvectors:
  0.000  0.001  0.999
  0.500  0.499  0.001
  0.500  0.499  0.001
    occupations:
  0.887 -0.000  0.000
 -0.000  0.863 -0.010
  0.000 -0.010  0.863
   spin  2
    eigenvalues: 
  0.887  0.898  0.909
    eigenvectors:
  0.000  1.000  0.000
  0.500  0.000  0.500
  0.500  0.000  0.500
    occupations:
  0.898 -0.000  0.000
 -0.000  0.898  0.011
  0.000  0.011  0.898
atomic mag. moment =    -0.080970
atom   33   Tr[ns(na)] (up, down, total) =   2.61416  2.69615  5.31031
   spin  1
    eigenvalues: 
  0.854  0.873  0.888
    eigenvectors:
  0.000  0.000  1.000
  0.501  0.499  0.000
  0.499  0.501  0.000
    occupations:
  0.888 -0.000 -0.000
 -0.000  0.863  0.010
 -0.000  0.010  0.863
   spin  2
    eigenvalues: 
  0.888  0.899  0.909
    eigenvectors:
  0.000  1.000  0.000
  0.500  0.000  0.500
  0.500  0.000  0.500
    occupations:
  0.899 -0.000 -0.000
 -0.000  0.899 -0.011
 -0.000 -0.011  0.899
atomic mag. moment =    -0.081988
atom   34   Tr[ns(na)] (up, down, total) =   2.61416  2.69615  5.31031
   spin  1
    eigenvalues: 
  0.854  0.873  0.888
    eigenvectors:
  0.000  0.000  1.000
  0.501  0.499  0.000
  0.499  0.501  0.000
    occupations:
  0.888 -0.000 -0.000
 -0.000  0.863  0.010
 -0.000  0.010  0.863
   spin  2
    eigenvalues: 
  0.888  0.899  0.909
    eigenvectors:
  0.000  1.000  0.000
  0.500  0.000  0.500
  0.500  0.000  0.500
    occupations:
  0.899 -0.000 -0.000
 -0.000  0.899 -0.011
 -0.000 -0.011  0.899
atomic mag. moment =    -0.081988
atom   35   Tr[ns(na)] (up, down, total) =   2.61338  2.69435  5.30772
   spin  1
    eigenvalues: 
  0.854  0.873  0.887
    eigenvectors:
  0.000  0.001  0.999
  0.500  0.499  0.001
  0.500  0.499  0.001
    occupations:
  0.887 -0.000  0.000
 -0.000  0.863 -0.010
  0.000 -0.010  0.863
   spin  2
    eigenvalues: 
  0.887  0.898  0.909
    eigenvectors:
  0.000  1.000  0.000
  0.500  0.000  0.500
  0.500  0.000  0.500
    occupations:
  0.898 -0.000  0.000
 -0.000  0.898  0.011
  0.000  0.011  0.898
atomic mag. moment =    -0.080970
atom   36   Tr[ns(na)] (up, down, total) =   2.61436  2.69610  5.31046
   spin  1
    eigenvalues: 
  0.854  0.873  0.888
    eigenvectors:
  0.000  0.000  1.000
  0.500  0.500  0.000
  0.500  0.500  0.000
    occupations:
  0.888  0.000 -0.000
  0.000  0.863 -0.010
 -0.000 -0.010  0.863
   spin  2
    eigenvalues: 
  0.888  0.899  0.909
    eigenvectors:
  0.000  1.000  0.000
  0.500  0.000  0.500
  0.500  0.000  0.500
    occupations:
  0.899 -0.000  0.000
 -0.000  0.899  0.011
  0.000  0.011  0.899
atomic mag. moment =    -0.081745
atom   37   Tr[ns(na)] (up, down, total) =   2.61416  2.69597  5.31014
   spin  1
    eigenvalues: 
  0.854  0.873  0.888
    eigenvectors:
  0.000  0.000  1.000
  0.498  0.502  0.000
  0.502  0.498  0.000
    occupations:
  0.888 -0.000 -0.000
 -0.000  0.863  0.010
 -0.000  0.010  0.863
   spin  2
    eigenvalues: 
  0.888  0.899  0.909
    eigenvectors:
  0.000  1.000  0.000
  0.500  0.000  0.500
  0.500  0.000  0.500
    occupations:
  0.899 -0.000 -0.000
 -0.000  0.899 -0.011
 -0.000 -0.011  0.899
atomic mag. moment =    -0.081810
atom   38   Tr[ns(na)] (up, down, total) =   2.61416  2.69597  5.31014
   spin  1
    eigenvalues: 
  0.854  0.873  0.888
    eigenvectors:
  0.000  0.000  1.000
  0.498  0.502  0.000
  0.502  0.498  0.000
    occupations:
  0.888 -0.000 -0.000
 -0.000  0.863  0.010
 -0.000  0.010  0.863
   spin  2
    eigenvalues: 
  0.888  0.899  0.909
    eigenvectors:
  0.000  1.000  0.000
  0.500  0.000  0.500
  0.500  0.000  0.500
    occupations:
  0.899 -0.000 -0.000
 -0.000  0.899 -0.011
 -0.000 -0.011  0.899
atomic mag. moment =    -0.081810
atom   39   Tr[ns(na)] (up, down, total) =   2.61338  2.69435  5.30772
   spin  1
    eigenvalues: 
  0.854  0.873  0.887
    eigenvectors:
  0.000  0.001  0.999
  0.500  0.499  0.001
  0.500  0.499  0.001
    occupations:
  0.887  0.000 -0.000
  0.000  0.863 -0.010
 -0.000 -0.010  0.863
   spin  2
    eigenvalues: 
  0.887  0.898  0.909
    eigenvectors:
  0.000  1.000  0.000
  0.500  0.000  0.500
  0.500  0.000  0.500
    occupations:
  0.898  0.000 -0.000
  0.000  0.898  0.011
 -0.000  0.011  0.898
atomic mag. moment =    -0.080970
atom   40   Tr[ns(na)] (up, down, total) =   2.61436  2.69610  5.31046
   spin  1
    eigenvalues: 
  0.854  0.873  0.888
    eigenvectors:
  0.000  0.000  1.000
  0.500  0.500  0.000
  0.500  0.500  0.000
    occupations:
  0.888 -0.000  0.000
 -0.000  0.863 -0.010
  0.000 -0.010  0.863
   spin  2
    eigenvalues: 
  0.888  0.899  0.909
    eigenvectors:
  0.000  1.000  0.000
  0.500  0.000  0.500
  0.500  0.000  0.500
    occupations:
  0.899  0.000 -0.000
  0.000  0.899  0.011
 -0.000  0.011  0.899
atomic mag. moment =    -0.081745
atom   41   Tr[ns(na)] (up, down, total) =   2.61445  2.69611  5.31056
   spin  1
    eigenvalues: 
  0.854  0.873  0.888
    eigenvectors:
  0.000  0.000  1.000
  0.500  0.500  0.000
  0.500  0.500  0.000
    occupations:
  0.888 -0.000 -0.000
 -0.000  0.863  0.010
 -0.000  0.010  0.863
   spin  2
    eigenvalues: 
  0.888  0.899  0.909
    eigenvectors:
  0.000  1.000  0.000
  0.500  0.000  0.500
  0.500  0.000  0.500
    occupations:
  0.899 -0.000 -0.000
 -0.000  0.899 -0.011
 -0.000 -0.011  0.899
atomic mag. moment =    -0.081668
atom   42   Tr[ns(na)] (up, down, total) =   2.61445  2.69611  5.31056
   spin  1
    eigenvalues: 
  0.854  0.873  0.888
    eigenvectors:
  0.000  0.000  1.000
  0.500  0.500  0.000
  0.500  0.500  0.000
    occupations:
  0.888 -0.000 -0.000
 -0.000  0.863  0.010
 -0.000  0.010  0.863
   spin  2
    eigenvalues: 
  0.888  0.899  0.909
    eigenvectors:
  0.000  1.000  0.000
  0.500  0.000  0.500
  0.500  0.000  0.500
    occupations:
  0.899 -0.000 -0.000
 -0.000  0.899 -0.011
 -0.000 -0.011  0.899
atomic mag. moment =    -0.081668
atom   43   Tr[ns(na)] (up, down, total) =   2.61415  2.69610  5.31025
   spin  1
    eigenvalues: 
  0.854  0.873  0.888
    eigenvectors:
  0.000  0.000  1.000
  0.500  0.500  0.000
  0.500  0.500  0.000
    occupations:
  0.888  0.000 -0.000
  0.000  0.863 -0.010
 -0.000 -0.010  0.863
   spin  2
    eigenvalues: 
  0.888  0.899  0.909
    eigenvectors:
  0.000  1.000  0.000
  0.500  0.000  0.500
  0.500  0.000  0.500
    occupations:
  0.899  0.000 -0.000
  0.000  0.899  0.011
 -0.000  0.011  0.899
atomic mag. moment =    -0.081958
atom   44   Tr[ns(na)] (up, down, total) =   2.61415  2.69610  5.31025
   spin  1
    eigenvalues: 
  0.854  0.873  0.888
    eigenvectors:
  0.000  0.000  1.000
  0.500  0.500  0.000
  0.500  0.500  0.000
    occupations:
  0.888 -0.000  0.000
 -0.000  0.863 -0.010
  0.000 -0.010  0.863
   spin  2
    eigenvalues: 
  0.888  0.899  0.909
    eigenvectors:
  0.000  1.000  0.000
  0.500  0.000  0.500
  0.500  0.000  0.500
    occupations:
  0.899 -0.000  0.000
 -0.000  0.899  0.011
  0.000  0.011  0.899
atomic mag. moment =    -0.081958
atom   45   Tr[ns(na)] (up, down, total) =   2.61451  2.69603  5.31054
   spin  1
    eigenvalues: 
  0.854  0.873  0.888
    eigenvectors:
  0.000  0.000  1.000
  0.500  0.500  0.000
  0.500  0.500  0.000
    occupations:
  0.888 -0.000 -0.000
[...]
   -59.9673 -59.9673 -59.9672 -59.9671 -59.9671 -59.9671 -59.9671 -59.9091
   -31.6508 -31.6497 -31.6489 -31.6488 -31.6487 -31.6481 -31.6470 -31.6417
   -31.6340 -31.6336 -31.6333 -31.6333 -31.6331 -31.6330 -31.6324 -31.5763
   -31.2921 -31.2919 -31.2901 -31.2901 -31.2900 -31.2882 -31.2878 -31.2776
   -31.2578 -31.2570 -31.2562 -31.2560 -31.2559 -31.2546 -31.2540 -31.2161
   -31.2108 -31.2098 -31.2091 -31.2090 -31.2081 -31.2074 -31.1995 -31.1840
   -31.0208 -31.0162 -31.0150 -31.0125 -31.0098 -31.0083 -31.0042 -30.9763
    -8.6440  -8.1954  -8.1950  -7.9575  -7.6585  -7.5068  -7.5066  -7.2101
    -7.1958  -7.1953  -7.1680  -7.1518  -7.1510  -7.1242  -7.0685  -7.0385
    -6.9390  -6.8548  -6.8423  -6.8423  -6.8357  -6.7986  -6.7982  -6.7951
    -6.7716  -6.7566  -6.7451  -6.7443  -6.6803  -6.6801  -6.6682  -6.6071
     3.9956   4.2063   4.4607   4.4618   4.5132   4.6019   4.6939   4.6955
     4.7370   4.8641   4.8647   4.9639   4.9649   4.9669   4.9714   4.9818
     5.0749   5.1071   5.3186   5.3548   5.4269   5.4275   5.7755   5.7784
     5.7790   5.8921   5.8934   5.9126   5.9828   5.9830   6.1432   6.1873
     6.2102   6.2191   6.2224   6.2248   6.2630   6.2799   6.2801   6.4171
     6.6228   6.6618   6.6628   6.7074   6.7078   6.9195   7.0077   7.0081
     7.0460   7.0831   7.1178   7.1543   7.1675   7.1680   7.1687   7.1996
     7.2726   7.3420   7.3421   7.5867   7.6835   7.7098   7.9050   7.9055
     7.9493   7.9857   7.9866   8.0169   8.0170   8.3280   8.3442   8.3717
     8.3730   8.3976   8.4146   8.4793   8.5999   8.6082   8.6092   8.6521
     8.6572   8.8732   8.8735   8.9582   8.9586   9.1562   9.1563   9.1966
     9.2013   9.2201   9.3274   9.4318   9.5647   9.6216   9.6217  10.1412
    12.0374  12.0396  12.1711  12.1996  12.1998  12.2527  12.2538  12.3704
    12.4416  12.4600  12.5159  12.5224  12.5246  12.6054  12.6436  12.6901
    12.7694  12.7694  12.7806  12.7832  12.8374  12.8383  12.9068  13.0065
    13.0074  13.1311  13.1333  13.1613  13.3867  13.3985  13.4072  13.4096
    13.4175  13.4176  13.4310  13.4311  13.4381  13.5427  13.6465  13.6474
    13.6550  13.6927  13.6931  13.6934  13.9013  13.9014  13.9486  14.1492
    14.2689  14.3667  14.3669  14.5170  14.6467  14.6820  14.6821  15.2063
    15.2068  15.3087  15.3091  15.3739  15.4174  15.6124  15.6127  15.6896
    15.8658  15.8721  15.8729  15.8743  15.9344  16.0792  16.0898  16.1255
    16.3389  16.3474  16.3479  16.4498  16.4506  16.6715  16.6729  17.2340
    19.6368  20.9037  20.9047  21.9001  22.2770  22.2781  22.6637  22.6706
    22.7572  22.8389  23.2554  23.3836  23.3841  23.5625  23.6978  23.6982
    23.8541  23.8576  23.8586  23.9370  24.7632  24.9342  25.0091  25.0095
    25.1503  25.1516  25.7747  25.7831  25.7836  25.8738  25.9490  26.0484
    26.0826  26.2544  26.3426  26.3670  26.4655  26.4659  26.8715  27.0666
    27.0872  27.0884  27.2067  27.2666  27.5119  27.5129  27.5329  27.5331
    28.0249  28.0459  28.0464  28.2197  28.3290  28.4747  28.4767  28.5035
    28.5050  28.5997  29.0584  29.0803  29.0823  29.2793  29.2892  29.3486
    29.3488  29.3712  29.5922  29.5998  29.6516  29.6519  29.8000  29.8806
    30.2427  30.2441  30.4373  30.6052  30.6071  30.7208  30.7571  30.9843
    31.2044  31.2537  31.2547  31.3983  31.6660  31.8014  31.8618  31.8625
    32.3103  32.4144  32.4150  32.7229  32.8432  32.8456  33.2763  33.2958
    33.3198  33.4413  33.5450  33.5456  33.5643  33.8627  33.8632  34.0892
    34.1068  34.1121  34.3037  34.3043  34.4823  34.6566  34.6625  34.6638
    34.9224  34.9236  35.0779  35.0787  35.1164  35.6193  35.8994  36.5702
    36.5769  36.9197  37.0222  37.0606  37.0617  37.0691  37.3146  37.4339
    37.4339  37.4580  37.7208  37.7217  37.7222  37.7225  38.2115  38.2127
    38.2275  38.3607  38.3612  38.4630  38.5415  38.5420  38.6980  39.0883
    39.3040  39.5124  39.5447  39.9813  39.9831  40.1472  40.1706  40.1720
    40.2709  40.3428  40.3643  40.3657  40.4409  40.4416  40.5756  40.5780
    41.0430  41.0832  41.0840  41.2150  41.3272  41.4013  41.4901  41.8721
    42.0271  42.0277  42.3705  42.3711  42.3792  42.4176  42.6796  42.7521
    42.7529  42.9269  43.1021  43.1479  43.2268  43.7110  43.7119  43.7888
    43.9463  43.9767  43.9804  44.0113  44.1376  44.3047  44.3147  44.3158
    44.3444  44.3736  44.4082  44.4085  44.4184  44.4200  44.5639  44.5640
    44.7012  44.7354  44.7365  44.8553  44.9402  45.1234  45.1248  45.2116
    45.2136  45.2451  45.4089  45.5504  45.7358  46.0386  46.4127  46.5479
    46.5687  46.5692  46.6275  46.6290  46.8154  46.9449  47.0545  47.0846
    47.2006  47.3421  47.3429  47.3475  47.3498  47.6211  47.6921  47.8153
    47.8162  47.8506  48.2791  48.2792  48.4257  48.5716  48.5726  48.8207
    48.8373  49.3257  49.3874  49.5493  49.5509  49.7621  49.7642  49.8221
    49.8367  49.8384  50.0177  50.1672  50.1684  50.2766  50.2814  50.2817
    50.3959  50.4111  50.4319  50.5120  50.5124  50.5493  50.7232  50.8967
    51.1943  51.2792  51.4725  51.4736  51.5660  51.7170  51.7260  51.8516
    51.8677  51.8723  51.8725  51.8918  51.8923  52.1577  52.1591  52.2531
    52.6664  52.6665  52.8992  52.9009  52.9031  52.9161  52.9473  52.9481
    53.0432  53.1139  53.2568  53.2915  53.3867  53.3869  53.5078  53.6143
    53.6144  53.7213  53.7765  53.8788  53.8793  54.0434  54.0767  54.0837
    54.0910  54.1503  54.1511  54.1809  54.2592  54.3346  54.4863  54.4878
    54.5616  54.5678  54.7180  54.8137  54.8146  55.0056  55.0068  55.0214
    55.1084  55.2904  55.3421  55.3440  55.3795  55.4305  55.4315  55.6591

          k =-0.2500 0.2500-0.3776 ( 12832 PWs)   bands (ev):

   -59.9833 -59.9818 -59.9815 -59.9808 -59.9800 -59.9795 -59.9784 -59.9754
   -59.9705 -59.9699 -59.9698 -59.9695 -59.9692 -59.9690 -59.9685 -59.9096
   -31.6482 -31.6473 -31.6466 -31.6465 -31.6464 -31.6458 -31.6450 -31.6412
   -31.6359 -31.6358 -31.6356 -31.6355 -31.6355 -31.6351 -31.6349 -31.5767
   -31.2867 -31.2865 -31.2849 -31.2849 -31.2849 -31.2833 -31.2829 -31.2753
   -31.2617 -31.2612 -31.2606 -31.2604 -31.2603 -31.2595 -31.2590 -31.2091
   -31.1848 -31.1823 -31.1819 -31.1811 -31.1802 -31.1790 -31.1784 -31.1573
   -31.0496 -31.0452 -31.0441 -31.0419 -31.0394 -31.0380 -31.0343 -31.0043
    -8.4988  -8.0723  -8.0718  -7.8437  -7.6138  -7.5588  -7.4192  -7.4190
    -7.4001  -7.3997  -7.2513  -7.1072  -7.1064  -7.0991  -7.0080  -6.9478
    -6.9113  -6.8811  -6.8392  -6.8392  -6.8220  -6.8212  -6.8016  -6.7966
    -6.7961  -6.7823  -6.7722  -6.7714  -6.7082  -6.7082  -6.7046  -6.6399
     4.1674   4.3340   4.6067   4.6074   4.6476   4.7617   4.8684   4.9325
     4.9336   4.9720   4.9802   5.0512   5.0857   5.1055   5.1233   5.1242
     5.1313   5.1322   5.2736   5.2740   5.3381   5.3518   5.5826   5.5883
     5.6160   5.6163   5.7162   5.7165   5.7455   5.9475   5.9487   5.9508
     5.9511   6.0319   6.0521   6.2688   6.3214   6.4365   6.4371   6.5045
     6.6458   6.6981   6.6990   6.7798   6.8993   6.8994   6.9493   6.9496
     6.9923   7.0072   7.1369   7.1373   7.3991   7.4375   7.4378   7.4398
     7.4403   7.4600   7.4793   7.5410   7.5947   7.5971   7.6111   7.7504
     7.7727   7.7734   7.8401   7.9247   7.9251   8.0571   8.2141   8.3436
     8.3441   8.4007   8.4710   8.4715   8.4992   8.5117   8.5242   8.5399
     8.5590   8.8081   8.8701   8.8705   8.9587   9.1765   9.2012   9.2014
     9.2612   9.2613   9.2979   9.3036   9.4012   9.5969   9.5970   9.9908
    12.0310  12.0329  12.1623  12.3036  12.3055  12.3968  12.4628  12.4927
    12.4940  12.5432  12.5779  12.5780  12.7272  12.7273  12.7450  12.7905
    12.8088  12.8324  12.8769  12.9144  12.9154  12.9291  13.0564  13.0939
    13.1390  13.1391  13.2161  13.2976  13.2986  13.3103  13.3269  13.3293
    13.3615  13.3755  13.3957  13.4553  13.4554  13.5304  13.5700  13.5746
    13.6430  13.6434  13.6439  13.6442  13.8081  13.8083  13.8402  14.0590
    14.3668  14.3671  14.4807  14.6394  14.7485  14.7746  14.7748  15.1278
    15.1283  15.3349  15.3361  15.3597  15.3802  15.3806  15.4449  15.6041
    15.6275  15.7064  15.7073  15.7338  15.8720  15.8727  16.0419  16.2043
    16.2049  16.2190  16.2669  16.4875  16.4883  16.6169  16.6182  17.0816
    20.0522  21.2678  21.2687  22.1513  22.3885  22.6671  22.6680  22.8222
    22.8522  22.8524  22.9962  23.2341  23.2528  23.3403  23.9489  23.9495
    24.1781  24.1784  24.2837  24.8605  25.0344  25.2580  25.3335  25.3340
    25.4577  25.5254  25.5266  25.7966  25.9949  26.1288  26.1545  26.1550
    26.2688  26.2693  26.3308  26.4177  26.5548  26.5552  26.6037  26.8254
    26.8261  26.9287  27.1012  27.1024  27.2412  27.3506  27.4686  27.4688
    27.8959  27.8972  27.9577  28.2221  28.3493  28.4514  28.4540  28.6406
    28.6415  28.6876  28.9873  29.1496  29.2138  29.2381  29.2389  29.2892
    29.3912  29.3928  29.4078  29.4081  29.4362  29.5968  29.6482  29.6714
    29.6980  29.9459  29.9468  30.1183  30.1189  30.4882  30.6866  30.7832
    30.9415  30.9503  30.9505  30.9581  30.9849  30.9867  31.1960  31.3262
    31.6105  31.8415  31.9867  31.9891  32.7090  32.7093  32.8505  33.3663
    33.3998  33.5058  33.5069  33.6155  33.6161  34.1014  34.1344  34.1762
    34.5699  34.5835  34.6736  34.6737  34.7831  34.8327  35.0777  35.1549
    35.1558  35.4571  35.4571  35.9347  36.0628  36.0630  36.1298  36.3642
    36.5630  36.6330  37.4327  37.4329  37.4662  37.5047  37.5781  37.5793
    37.6183  37.6840  37.7271  37.8558  37.8561  37.8912  38.0414  38.0550
    38.1887  38.1890  38.3637  38.3641  38.4272  38.8003  38.8010  38.9819
    39.0550  39.0562  39.3676  39.4014  39.5411  39.6460  39.6800  40.0597
    40.0608  40.2438  40.2446  40.4895  40.4899  40.8637  40.9139  40.9148
    40.9395  40.9398  41.1354  41.2616  41.2994  41.3039  41.3860  41.5698
    41.6639  41.6641  41.7463  41.8832  41.8832  41.9107  42.0550  42.2441
    42.2445  42.4100  42.4165  42.4171  42.5156  42.5650  42.5940  43.1238
    43.5732  43.7959  43.7966  43.7969  43.8446  43.8446  44.3539  44.5967
    44.6947  44.7799  44.7803  44.9978  45.0225  45.1330  45.1618  45.2917
    45.4528  45.5406  45.7362  45.7365  45.7837  45.7844  45.9488  45.9498
    46.1782  46.1796  46.2088  46.3116  46.3132  46.3680  46.4377  46.6188
    46.6777  46.6831  46.9317  46.9941  47.1348  47.3188  47.3191  47.4060
    47.4072  47.4595  47.6705  47.6718  47.7617  47.9137  48.0315  48.0935
    48.0937  48.3152  48.4099  48.9034  48.9037  48.9490  48.9494  48.9705
    49.1552  49.2293  49.6173  49.6189  49.7938  49.7952  49.8844  49.9925
    49.9941  50.1979  50.2242  50.2948  50.2982  50.3686  50.3736  50.3748
    50.5397  50.7589  50.7589  50.9120  50.9125  50.9154  50.9838  51.0783
    51.0792  51.1424  51.1685  51.2981  51.3100  51.3576  51.3577  51.4020
    51.4031  51.5695  51.7741  51.7754  51.7894  51.9388  52.0474  52.0474
    52.1215  52.2086  52.2295  52.2829  52.4181  52.4182  52.4999  52.5944
    52.6784  52.8003  52.8009  52.8109  52.8180  52.8827  52.8830  52.9149
    52.9157  52.9493  53.0831  53.1473  53.2104  53.5690  53.6297  53.8264
    53.8782  53.9041  53.9054  53.9219  54.0558  54.0569  54.0610  54.0612
    54.1331  54.2272  54.5602  54.5603  54.7715  54.7720  54.8059  54.8356
    54.8366  54.8666  54.8731  54.8747  54.9059  54.9926  55.4209  55.4232

          k =-0.2500 0.2500 0.7552 ( 12844 PWs)   bands (ev):

   -59.9773 -59.9770 -59.9761 -59.9760 -59.9759 -59.9757 -59.9755 -59.9751
   -59.9747 -59.9745 -59.9743 -59.9742 -59.9742 -59.9732 -59.9730 -59.9100
   -31.6420 -31.6417 -31.6416 -31.6415 -31.6410 -31.6410 -31.6410 -31.6410
   -31.6410 -31.6405 -31.6405 -31.6404 -31.6404 -31.6403 -31.6403 -31.5772
   -31.2738 -31.2738 -31.2736 -31.2735 -31.2728 -31.2726 -31.2726 -31.2726
   -31.2724 -31.2724 -31.2723 -31.2714 -31.2714 -31.2711 -31.2710 -31.2103
   -31.1189 -31.1182 -31.1145 -31.1145 -31.1144 -31.1138 -31.1133 -31.1123
   -31.1112 -31.1102 -31.1091 -31.1091 -31.1090 -31.1066 -31.1059 -31.0512
    -8.1109  -8.1105  -7.7571  -7.7569  -7.7567  -7.7561  -7.5573  -7.5571
    -7.3180  -7.3177  -7.2224  -7.2222  -7.2218  -7.2217  -6.8864  -6.8853
    -6.8527  -6.8520  -6.8461  -6.8455  -6.8297  -6.8285  -6.8284  -6.8283
    -6.7966  -6.7954  -6.7746  -6.7736  -6.7736  -6.7735  -6.7204  -6.7198
     4.5955   4.5956   4.6274   4.6277   4.9357   4.9363   4.9363   4.9369
     4.9401   4.9412   5.1388   5.1401   5.1652   5.1668   5.2506   5.2520
     5.3339   5.3346   5.3353   5.3357   5.3499   5.3501   5.4159   5.4168
     5.4172   5.4184   5.7368   5.7386   5.7387   5.7388   5.8089   5.8095
     6.1346   6.1348   6.1807   6.1818   6.1820   6.1829   6.3511   6.3519
     6.6899   6.6901   6.6901   6.6906   6.8118   6.8121   6.8384   6.8388
     6.8392   6.8396   7.1360   7.1363   7.2314   7.2315   7.4239   7.4239
     7.4240   7.4242   7.5452   7.5459   7.7012   7.7018   7.7019   7.7025
     7.7127   7.7137   7.8309   7.8310   8.0422   8.0428   8.1127   8.1132
     8.3230   8.3232   8.4818   8.4819   8.4823   8.4826   8.5822   8.5834
     8.7365   8.7372   8.9104   8.9106   9.0713   9.0714   9.0716   9.0717
     9.1009   9.1011   9.4558   9.4559   9.4560   9.4561   9.5976   9.5977
    12.0834  12.0840  12.2723  12.2743  12.2746  12.2746  12.5299  12.5313
    12.7487  12.7510  12.7511  12.7511  12.7758  12.7759  12.8278  12.8280
    13.0549  13.0550  13.1104  13.1115  13.1562  13.1610  13.1645  13.1673
    13.1674  13.1675  13.1980  13.1991  13.2269  13.2280  13.2405  13.2421
    13.3592  13.3592  13.3594  13.3596  13.4139  13.4146  13.5395  13.5399
    13.5400  13.5401  13.6360  13.6362  13.6365  13.6365  13.8382  13.8382
    14.6294  14.6295  14.6297  14.6299  14.8260  14.8260  15.0476  15.0477
    15.0477  15.0483  15.0544  15.0547  15.2469  15.2469  15.5144  15.5145
    15.5170  15.5172  15.7209  15.7217  15.8701  15.8702  15.8706  15.8711
    16.1431  16.1433  16.5358  16.5359  16.5360  16.5377  16.6388  16.6394
    21.0906  21.0915  22.0481  22.0484  22.0487  22.0496  22.5972  22.5977
    23.3287  23.3298  23.4329  23.4332  23.4332  23.4344  24.4396  24.4400
    24.5844  24.5862  25.0625  25.0638  25.3384  25.3388  25.3392  25.3397
    25.7500  25.7509  25.9340  25.9354  26.2292  26.2295  26.2295  26.2309
    26.3112  26.3121  26.4023  26.4036  26.4964  26.4965  26.5587  26.5589
    26.5596  26.5609  26.9414  26.9420  26.9424  26.9431  27.7319  27.7330
    28.1008  28.1010  28.1015  28.1032  28.1539  28.1540  28.4362  28.4366
    28.8113  28.8123  28.9160  28.9162  28.9168  28.9193  29.0388  29.0389
    29.0394  29.0402  29.1120  29.1124  29.2412  29.2427  29.4887  29.4898
    29.7765  29.7772  30.1037  30.1040  30.1043  30.1060  30.3562  30.3569
    30.3986  30.4013  30.8068  30.8079  30.8083  30.8099  31.2193  31.2195
    31.7824  31.7825  31.7827  31.7855  31.8787  31.8813  32.8147  32.8159
    33.1726  33.1737  33.1742  33.1742  33.6748  33.6769  33.7687  33.7698
    34.8978  34.8985  35.4684  35.4694  35.4698  35.4701  35.7785  35.7796
    35.8087  35.8098  35.8840  35.8845  36.7575  36.7575  36.8591  36.8592
    36.8592  36.8595  37.1738  37.1748  37.2383  37.2388  37.4467  37.4468
    37.4469  37.4488  38.0254  38.0255  38.0255  38.0259  38.2564  38.2576
    38.2592  38.2597  38.2603  38.2610  38.5486  38.5496  38.6585  38.6588
    39.3962  39.3972  39.4343  39.4349  39.4352  39.4353  39.8893  39.8896
    39.8905  39.8913  40.0340  40.0342  40.4559  40.4560  40.6574  40.6579
    40.6625  40.6633  40.6640  40.6641  40.9558  40.9558  41.0469  41.0470
    41.0480  41.0481  41.8601  41.8604  41.8607  41.8608  42.1870  42.1874
    42.4956  42.4958  42.4961  42.4962  42.6600  42.6606  43.3526  43.3528
    43.8539  43.8547  43.8548  43.8549  44.0310  44.0312  44.1213  44.1223
    44.5328  44.5329  44.6255  44.6259  44.9623  44.9623  44.9630  44.9635
    45.1610  45.1611  45.6016  45.6018  45.6018  45.6025  46.0454  46.0464
    46.8415  46.8428  46.8679  46.8681  46.8685  46.8696  47.1464  47.1480
    47.4025  47.4026  47.5258  47.5263  48.0500  48.0508  48.3377  48.3378
    48.3385  48.3393  48.3593  48.3602  48.3603  48.3610  48.4017  48.4019
    48.5564  48.5574  48.8731  48.8734  48.8746  48.8749  48.9920  48.9922
    49.4325  49.4332  49.7033  49.7038  49.9450  49.9451  49.9451  49.9458
    50.0427  50.0428  50.2008  50.2014  50.2022  50.2029  50.5723  50.5724
    50.7301  50.7310  50.8816  50.8818  50.8829  50.8832  50.8904  50.8912
    51.2138  51.2139  51.2140  51.2141  51.3170  51.3171  51.3595  51.3600
    51.4412  51.4417  51.6974  51.6976  51.6983  51.7007  51.9033  51.9034
    51.9035  51.9048  52.0168  52.0178  52.0268  52.0281  52.1465  52.1467
    52.5428  52.5435  52.6110  52.6111  52.6112  52.6118  52.6254  52.6259
    52.6358  52.6363  52.7742  52.7743  52.8134  52.8138  52.9532  52.9537
    52.9546  52.9554  53.4927  53.4928  53.4928  53.4936  53.6925  53.6944
    54.0843  54.0849  54.4124  54.4125  54.4130  54.4139  54.5564  54.5565
    54.5569  54.5581  54.8095  54.8111  54.9906  54.9914  55.0079  55.0091

     the Fermi energy is    11.2577 ev

!    total energy              =   -3849.35701046 Ry
     Harris-Foulkes estimate   =   -3849.35701053 Ry
     estimated scf accuracy    <       0.00000010 Ry

     The total energy is the sum of the following terms:

     one-electron contribution =   -1589.11475741 Ry
     hartree contribution      =    1012.69049218 Ry
     xc contribution           =    -596.48748704 Ry
     ewald contribution        =   -2676.42062880 Ry
     Hubbard energy            =      -0.02440923 Ry
     smearing contrib. (-TS)   =      -0.00022017 Ry

     total magnetization       =    32.00 Bohr mag/cell
     absolute magnetization    =    36.72 Bohr mag/cell

     convergence has been achieved in  10 iterations

     Writing output data file pwscf.save

     init_run     :     31.41s CPU     36.21s WALL (       1 calls)
     electrons    :  12162.39s CPU  14365.00s WALL (       1 calls)

     Called by init_run:
     wfcinit      :     15.24s CPU     17.51s WALL (       1 calls)
     potinit      :      1.03s CPU      2.12s WALL (       1 calls)

     Called by electrons:
     c_bands      :  11390.25s CPU  13178.88s WALL (      10 calls)
     sum_band     :    649.07s CPU   1042.66s WALL (      10 calls)
     v_of_rho     :      5.18s CPU      7.83s WALL (      11 calls)
     newd         :    128.34s CPU    142.00s WALL (      11 calls)
     mix_rho      :      0.80s CPU      1.36s WALL (      10 calls)

     Called by c_bands:
     init_us_2    :      4.37s CPU      4.82s WALL (     882 calls)
     cegterg      :  11370.99s CPU  13097.07s WALL (     420 calls)

     Called by *egterg:
     h_psi        :   2489.99s CPU   3655.10s WALL (    1223 calls)
     s_psi        :    272.81s CPU    273.88s WALL (    1265 calls)
     g_psi        :      3.30s CPU      3.30s WALL (     803 calls)
     cdiaghg      :   6986.18s CPU   7115.85s WALL (    1181 calls)

     Called by h_psi:
     add_vuspsi   :    267.80s CPU    269.57s WALL (    1223 calls)
     vhpsi        :    509.74s CPU    680.95s WALL (    1223 calls)

     General routines
     calbec       :    840.79s CPU   1148.99s WALL (    3328 calls)
     fft          :      7.02s CPU     12.91s WALL (     329 calls)
     ffts         :      0.17s CPU      0.33s WALL (      42 calls)
     fftw         :   1595.57s CPU   2732.37s WALL ( 1328042 calls)
     interpolate  :      1.01s CPU      1.89s WALL (      42 calls)
     davcio       :      1.68s CPU    160.84s WALL (    2604 calls)

     Parallel routines
     fft_scatter  :   1022.06s CPU   2141.48s WALL ( 1328413 calls)
     Hubbard U routines
     new_ns       :    101.15s CPU    253.63s WALL (      10 calls)
     vhpsi        :    509.74s CPU    680.95s WALL (    1223 calls)

     PWSCF        :     3h23m CPU        4h 0m WALL


   This run was terminated on:  18:42:55  14Feb2014            

=------------------------------------------------------------------------------=
   JOB DONE.
=------------------------------------------------------------------------------=
