
     Program PWSCF v.5.0.2 (svn rev. 9656) starts on 10May2014 at  8:31:32 

     This program is part of the open-source Quantum ESPRESSO suite
     for quantum simulation of materials; please cite
         "P. Giannozzi et al., J. Phys.:Condens. Matter 21 395502 (2009);
          URL http://www.quantum-espresso.org", 
     in publications or presentations arising from this work. More details at
     http://www.quantum-espresso.org/quote.php

     Parallel version (MPI), running on    16 processors
     K-points division:     npool     =       4
     R & G space division:  proc/nbgrp/npool/nimage =       4

     Current dimensions of program PWSCF are:
     Max number of different atomic species (ntypx) = 10
     Max number of k-points (npk) =  40000
     Max angular momentum in pseudopotentials (lmaxx) =  3
     Reading input from pwscf.in
Warning: card &CELL ignored
Warning: card / ignored

     Subspace diagonalization in iterative solution of the eigenvalue problem:
     a serial algorithm will be used


     Parallelization info
     --------------------
     sticks:   dense  smooth     PW     G-vecs:    dense   smooth      PW
     Min        1467     469    131               355494    64365    9519
     Max        1469     470    132               355497    64388    9524
     Sum        5871    1877    527              1421981   257505   38087



     bravais-lattice index     =            0
     lattice parameter (alat)  =      11.1872  a.u.
     unit-cell volume          =    7531.8600 (a.u.)^3
     number of atoms/cell      =           32
     number of atomic types    =            3
     number of electrons       =       223.00
     number of Kohn-Sham states=          334
     kinetic-energy cutoff     =      40.0000  Ry
     charge density cutoff     =     500.0000  Ry
     convergence threshold     =      1.0E-06
     mixing beta               =       0.7000
     number of iterations used =            8  plain     mixing
     Exchange-correlation      = SLA  PW   PBE  PBE ( 1 4 3 4 0)
     EXX-fraction              =        0.00
     nstep                     =           50


     celldm(1)=  11.187179  celldm(2)=   0.000000  celldm(3)=   0.000000
     celldm(4)=   0.000000  celldm(5)=   0.000000  celldm(6)=   0.000000

     crystal axes: (cart. coord. in units of alat)
               a(1) = (   1.000000   0.000000   0.000000 )  
               a(2) = (   0.000000   1.180104   0.000000 )  
               a(3) = (   0.000000   0.000000   4.558482 )  

     reciprocal axes: (cart. coord. in units 2 pi/alat)
               b(1) = (  1.000000  0.000000  0.000000 )  
               b(2) = (  0.000000  0.847383  0.000000 )  
               b(3) = (  0.000000  0.000000  0.219371 )  


     PseudoPot. # 1 for O  read from file:
     /home/camp/zhonxu/pseudo/o_pbe_v1.01.uspp.F.UPF
     MD5 check sum: 2bcb18d16ea4b960afae9ec6d52f22d2
     Pseudo is Ultrasoft + core correction, Zval =  6.0
     Generated by new atomic code, or converted to UPF format
     Using radial grid of  737 points,  5 beta functions with: 
                l(1) =   0
                l(2) =   0
                l(3) =   1
                l(4) =   1
                l(5) =   2
     Q(r) pseudized with  8 coefficients,  rinner =    0.900   0.900   0.900
                                                       0.900   0.900

     PseudoPot. # 2 for Nb read from file:
     /home/camp/zhonxu/pseudo/nb_pbe_v1.uspp.F.UPF
     MD5 check sum: 573aab8a2fa660278ed4a62cd769473f
     Pseudo is Ultrasoft + core correction, Zval = 13.0
     Generated by new atomic code, or converted to UPF format
     Using radial grid of  887 points,  6 beta functions with: 
                l(1) =   0
                l(2) =   0
                l(3) =   1
                l(4) =   1
                l(5) =   2
                l(6) =   2
     Q(r) pseudized with  6 coefficients,  rinner =    1.000   1.000   1.000
                                                       1.000   1.000

     PseudoPot. # 3 for H  read from file:
     /home/camp/zhonxu/pseudo/h_pbe_v1.uspp.F.UPF
     MD5 check sum: 3408e3ff4ec8b0a4e358431e7e038a48
     Pseudo is Ultrasoft, Zval =  1.0
     Generated by new atomic code, or converted to UPF format
     Using radial grid of  615 points,  2 beta functions with: 
                l(1) =   0
                l(2) =   0
     Q(r) pseudized with  8 coefficients,  rinner =    0.700

     atomic species   valence    mass     pseudopotential
        O0             6.00    15.99940     O ( 1.00)
        Nb1           13.00    92.90640     Nb( 1.00)
        H2             1.00     1.00794     H ( 1.00)


     Simplified LDA+U calculation (l_max = 2) with parameters (eV):
     atomic species    L          U    alpha       J0     beta
        Nb1            2     0.0000   0.0000   0.0000   0.0000



     No symmetry found



   Cartesian axes

     site n.     atom                  positions (alat units)
         1           O0  tau(   1) = (   0.0000000   0.0000000   1.6962568  )
         2           O0  tau(   2) = (   0.0000000   0.5900519   1.7738878  )
         3           Nb1 tau(   3) = (   0.2500000   0.5900519   2.0270203  )
         4           Nb1 tau(   4) = (   0.0000000   0.0000000   2.0275217  )
         5           O0  tau(   5) = (   0.2500000   0.9322821   2.0383253  )
         6           O0  tau(   6) = (   0.2500000   0.2478218   2.0383253  )
         7           O0  tau(   7) = (   0.0000000   0.5900519   2.2801984  )
         8           O0  tau(   8) = (   0.0000000   0.0000000   2.3861375  )
         9           Nb1 tau(   9) = (   0.2500000   0.0000000   2.6321588  )
        10           Nb1 tau(  10) = (   0.0000000   0.5900519   2.5957821  )
        11           O0  tau(  11) = (   0.2500000   0.8378738   2.6252299  )
        12           O0  tau(  12) = (   0.2500000   0.3422301   2.6252299  )
        13           O0  tau(  13) = (   0.0000000   0.0000000   2.8359230  )
        14           O0  tau(  14) = (   0.5000000   0.0000000   1.6977155  )
        15           O0  tau(  15) = (   0.5000000   0.5900519   1.7812725  )
        16           Nb1 tau(  16) = (   0.7500000   0.5900519   2.0271571  )
        17           Nb1 tau(  17) = (   0.5000000   0.0000000   2.0300745  )
        18           O0  tau(  18) = (   0.7500000   0.9322821   2.0383253  )
        19           O0  tau(  19) = (   0.7500000   0.2478218   2.0383709  )
        20           O0  tau(  20) = (   0.5000000   0.5900519   2.2745003  )
        21           O0  tau(  21) = (   0.5000000   0.0000000   2.3862287  )
        22           Nb1 tau(  22) = (   0.7500000   0.0000000   2.6327514  )
        23           Nb1 tau(  23) = (   0.5000000   0.5900519   2.6327970  )
        24           O0  tau(  24) = (   0.7500000   0.8378738   2.6254579  )
        25           O0  tau(  25) = (   0.7500000   0.3422301   2.6255034  )
        26           O0  tau(  26) = (   0.5000000   0.0000000   2.8354216  )
        27           H2  tau(  27) = (  -0.0004800   0.5922115   1.6084605  )
        28           H2  tau(  28) = (   0.4995300   0.5922233   1.6161643  )
        29           H2  tau(  29) = (   0.1505800   0.0006019   1.6239593  )
        30           H2  tau(  30) = (   0.6505400   0.0006019   1.6254180  )
        31           O0  tau(  31) = (   0.5024200   0.5900519   2.9584550  )
        32           H2  tau(  32) = (   0.3976800   0.5901109   3.0854543  )

     number of k points=    10  Methfessel-Paxton smearing, width (Ry)=  0.0100
                       cart. coord. in units 2pi/alat
        k(    1) = (   0.0000000   0.0000000   0.0000000), wk =   0.1250000
        k(    2) = (   0.0000000   0.2118458   0.0000000), wk =   0.2500000
        k(    3) = (   0.0000000  -0.4236915   0.0000000), wk =   0.1250000
        k(    4) = (   0.2500000   0.0000000   0.0000000), wk =   0.2500000
        k(    5) = (   0.2500000   0.2118458   0.0000000), wk =   0.2500000
        k(    6) = (   0.2500000  -0.4236915   0.0000000), wk =   0.2500000
        k(    7) = (  -0.5000000   0.0000000   0.0000000), wk =   0.1250000
        k(    8) = (  -0.5000000   0.2118458   0.0000000), wk =   0.2500000
        k(    9) = (  -0.5000000  -0.4236915   0.0000000), wk =   0.1250000
        k(   10) = (  -0.2500000   0.2118458   0.0000000), wk =   0.2500000

     Dense  grid:  1421981 G-vectors     FFT dimensions: (  80,  96, 375)

     Smooth grid:   257505 G-vectors     FFT dimensions: (  45,  54, 216)

     Largest allocated arrays     est. size (Mb)     dimensions
        Kohn-Sham Wavefunctions        41.21 Mb     (   8086,  334)
        Atomic wavefunctions           22.83 Mb     (   8086,  185)
        NL pseudopotentials            49.48 Mb     (   8086,  401)
        Each V/rho on FFT grid         11.02 Mb     ( 721920)
        Each G-vector array             2.71 Mb     ( 355495)
        G-vector shells                 1.17 Mb     ( 153576)
     Largest temporary arrays     est. size (Mb)     dimensions
        Auxiliary wavefunctions       164.84 Mb     (   8086, 1336)
        Each subspace H/S matrix       27.24 Mb     (1336,1336)
        Each <psi_i|beta_j> matrix      2.04 Mb     (    401,  334)
        Arrays for rho mixing          88.13 Mb     ( 721920,   8)

     Check: negative/imaginary core charge=   -0.000003    0.000000

     Initial potential from superposition of free atoms
     Check: negative starting charge=   -0.003641

     starting charge  222.97806, renormalised to  223.00000

     negative rho (up, down):  0.364E-02 0.000E+00
     Number of +U iterations with fixed ns =  0
     Starting occupations:
 --- enter write_ns ---
 LDA+U parameters:
U( 2)     =  0.00000000
alpha( 2) =  0.00000000
atom    3   Tr[ns(na)] =   3.00000
    eigenvalues: 
  0.300  0.300  0.300  0.300  0.300
    eigenvectors:
  1.000  0.000  0.000  0.000  0.000
  0.000  1.000  0.000  0.000  0.000
  0.000  0.000  1.000  0.000  0.000
  0.000  0.000  0.000  1.000  0.000
  0.000  0.000  0.000  0.000  1.000
    occupations:
  0.300  0.000  0.000  0.000  0.000
  0.000  0.300  0.000  0.000  0.000
  0.000  0.000  0.300  0.000  0.000
  0.000  0.000  0.000  0.300  0.000
  0.000  0.000  0.000  0.000  0.300
atom    4   Tr[ns(na)] =   3.00000
    eigenvalues: 
  0.300  0.300  0.300  0.300  0.300
    eigenvectors:
  1.000  0.000  0.000  0.000  0.000
  0.000  1.000  0.000  0.000  0.000
  0.000  0.000  1.000  0.000  0.000
  0.000  0.000  0.000  1.000  0.000
  0.000  0.000  0.000  0.000  1.000
    occupations:
  0.300  0.000  0.000  0.000  0.000
  0.000  0.300  0.000  0.000  0.000
  0.000  0.000  0.300  0.000  0.000
  0.000  0.000  0.000  0.300  0.000
  0.000  0.000  0.000  0.000  0.300
atom    9   Tr[ns(na)] =   3.00000
    eigenvalues: 
  0.300  0.300  0.300  0.300  0.300
    eigenvectors:
  1.000  0.000  0.000  0.000  0.000
  0.000  1.000  0.000  0.000  0.000
  0.000  0.000  1.000  0.000  0.000
  0.000  0.000  0.000  1.000  0.000
  0.000  0.000  0.000  0.000  1.000
    occupations:
  0.300  0.000  0.000  0.000  0.000
  0.000  0.300  0.000  0.000  0.000
  0.000  0.000  0.300  0.000  0.000
  0.000  0.000  0.000  0.300  0.000
  0.000  0.000  0.000  0.000  0.300
atom   10   Tr[ns(na)] =   3.00000
    eigenvalues: 
  0.300  0.300  0.300  0.300  0.300
    eigenvectors:
  1.000  0.000  0.000  0.000  0.000
  0.000  1.000  0.000  0.000  0.000
  0.000  0.000  1.000  0.000  0.000
  0.000  0.000  0.000  1.000  0.000
  0.000  0.000  0.000  0.000  1.000
    occupations:
  0.300  0.000  0.000  0.000  0.000
  0.000  0.300  0.000  0.000  0.000
  0.000  0.000  0.300  0.000  0.000
  0.000  0.000  0.000  0.300  0.000
  0.000  0.000  0.000  0.000  0.300
atom   16   Tr[ns(na)] =   3.00000
    eigenvalues: 
  0.300  0.300  0.300  0.300  0.300
    eigenvectors:
  1.000  0.000  0.000  0.000  0.000
  0.000  1.000  0.000  0.000  0.000
  0.000  0.000  1.000  0.000  0.000
  0.000  0.000  0.000  1.000  0.000
  0.000  0.000  0.000  0.000  1.000
    occupations:
  0.300  0.000  0.000  0.000  0.000
  0.000  0.300  0.000  0.000  0.000
  0.000  0.000  0.300  0.000  0.000
  0.000  0.000  0.000  0.300  0.000
  0.000  0.000  0.000  0.000  0.300
atom   17   Tr[ns(na)] =   3.00000
    eigenvalues: 
  0.300  0.300  0.300  0.300  0.300
    eigenvectors:
  1.000  0.000  0.000  0.000  0.000
  0.000  1.000  0.000  0.000  0.000
  0.000  0.000  1.000  0.000  0.000
  0.000  0.000  0.000  1.000  0.000
  0.000  0.000  0.000  0.000  1.000
    occupations:
  0.300  0.000  0.000  0.000  0.000
  0.000  0.300  0.000  0.000  0.000
  0.000  0.000  0.300  0.000  0.000
  0.000  0.000  0.000  0.300  0.000
  0.000  0.000  0.000  0.000  0.300
atom   22   Tr[ns(na)] =   3.00000
    eigenvalues: 
  0.300  0.300  0.300  0.300  0.300
    eigenvectors:
  1.000  0.000  0.000  0.000  0.000
  0.000  1.000  0.000  0.000  0.000
  0.000  0.000  1.000  0.000  0.000
  0.000  0.000  0.000  1.000  0.000
  0.000  0.000  0.000  0.000  1.000
    occupations:
  0.300  0.000  0.000  0.000  0.000
  0.000  0.300  0.000  0.000  0.000
  0.000  0.000  0.300  0.000  0.000
  0.000  0.000  0.000  0.300  0.000
  0.000  0.000  0.000  0.000  0.300
atom   23   Tr[ns(na)] =   3.00000
    eigenvalues: 
  0.300  0.300  0.300  0.300  0.300
    eigenvectors:
  1.000  0.000  0.000  0.000  0.000
  0.000  1.000  0.000  0.000  0.000
  0.000  0.000  1.000  0.000  0.000
  0.000  0.000  0.000  1.000  0.000
  0.000  0.000  0.000  0.000  1.000
    occupations:
  0.300  0.000  0.000  0.000  0.000
  0.000  0.300  0.000  0.000  0.000
  0.000  0.000  0.300  0.000  0.000
  0.000  0.000  0.000  0.300  0.000
  0.000  0.000  0.000  0.000  0.300
N of occupied +U levels =  24.0000000
 --- exit write_ns ---
 Atomic wfc used for LDA+U Projector are NOT orthogonalized
     Starting wfc are  185 randomized atomic wfcs

     total cpu time spent up to now is      107.4 secs

     per-process dynamical memory:   405.0 Mb

     Self-consistent Calculation

     iteration #  1     ecut=    40.00 Ry     beta=0.70
     Davidson diagonalization with overlap
     ethr =  1.00E-02,  avg # of iterations =  6.0
 --- enter write_ns ---
 LDA+U parameters:
U( 2)     =  0.00000000
alpha( 2) =  0.00000000
atom    3   Tr[ns(na)] =   4.15844
    eigenvalues: 
  0.291  0.339  0.427  0.463  0.559
    eigenvectors:
  0.000  0.000  0.000  0.541  0.459
  0.000  0.000  0.999  0.001  0.000
  1.000  0.000  0.000  0.000  0.000
  0.000  0.000  0.001  0.459  0.541
  0.000  1.000  0.000  0.000  0.000
    occupations:
  0.507  0.000  0.000 -0.048 -0.000
  0.000  0.427 -0.000 -0.002 -0.000
  0.000 -0.000  0.291 -0.000  0.000
 -0.048 -0.002 -0.000  0.515  0.000
 -0.000 -0.000  0.000  0.000  0.339
atom    4   Tr[ns(na)] =   4.23593
    eigenvalues: 
  0.253  0.401  0.439  0.463  0.561
    eigenvectors:
  0.000  0.001  0.000  0.975  0.024
  0.000  0.999  0.000  0.001  0.000
  1.000  0.000  0.000  0.000  0.000
  0.000  0.000  0.000  0.024  0.976
  0.000  0.000  1.000  0.000  0.000
    occupations:
  0.466  0.002  0.000 -0.015 -0.000
  0.002  0.402  0.000 -0.002 -0.000
  0.000  0.000  0.253 -0.000  0.001
 -0.015 -0.002 -0.000  0.559  0.000
 -0.000 -0.000  0.001  0.000  0.439
atom    9   Tr[ns(na)] =   3.81916
    eigenvalues: 
  0.297  0.308  0.313  0.496  0.497
    eigenvectors:
  0.881  0.000  0.000  0.014  0.105
  0.000  0.000  0.000  0.879  0.121
  0.000  0.789  0.211  0.000  0.000
  0.119  0.000  0.000  0.107  0.774
  0.000  0.211  0.789  0.000  0.000
    occupations:
  0.320 -0.000  0.000  0.065  0.000
 -0.000  0.496 -0.000 -0.000 -0.000
  0.000 -0.000  0.309  0.000  0.002
  0.065 -0.000  0.000  0.473 -0.000
  0.000 -0.000  0.002 -0.000  0.311
atom   10   Tr[ns(na)] =   3.91433
    eigenvalues: 
  0.245  0.332  0.386  0.433  0.562
    eigenvectors:
  0.000  0.000  0.994  0.000  0.006
  0.000  1.000  0.000  0.000  0.000
  1.000  0.000  0.000  0.000  0.000
  0.000  0.000  0.006  0.000  0.994
  0.000  0.000  0.000  1.000  0.000
    occupations:
  0.387  0.001  0.000 -0.013  0.000
  0.001  0.332 -0.000 -0.001  0.000
  0.000 -0.000  0.245 -0.000  0.000
 -0.013 -0.001 -0.000  0.561  0.000
  0.000  0.000  0.000  0.000  0.433
atom   16   Tr[ns(na)] =   4.16418
    eigenvalues: 
  0.291  0.340  0.427  0.463  0.562
    eigenvectors:
  0.000  0.000  0.000  0.538  0.462
  0.000  0.000  0.999  0.001  0.000
  0.995  0.005  0.000  0.000  0.000
  0.000  0.000  0.001  0.462  0.538
  0.005  0.995  0.000  0.000  0.000
    occupations:
  0.508 -0.001  0.000 -0.049  0.000
 -0.001  0.427 -0.000  0.002 -0.000
  0.000 -0.000  0.291 -0.000 -0.003
 -0.049  0.002 -0.000  0.516 -0.000
  0.000 -0.000 -0.003 -0.000  0.340
atom   17   Tr[ns(na)] =   4.21549
    eigenvalues: 
  0.253  0.404  0.439  0.464  0.548
    eigenvectors:
  0.000  0.001  0.000  0.969  0.029
  0.000  0.999  0.000  0.001  0.000
  1.000  0.000  0.000  0.000  0.000
  0.000  0.000  0.000  0.030  0.970
  0.000  0.000  1.000  0.000  0.000
    occupations:
  0.467  0.002  0.000 -0.014  0.000
  0.002  0.404  0.000 -0.002 -0.000
  0.000  0.000  0.253  0.000  0.001
 -0.014 -0.002  0.000  0.545  0.000
  0.000 -0.000  0.001  0.000  0.439
atom   22   Tr[ns(na)] =   3.82046
    eigenvalues: 
  0.297  0.307  0.314  0.496  0.497
    eigenvectors:
  0.882  0.000  0.000  0.012  0.106
  0.000  0.000  0.000  0.900  0.100
  0.000  0.749  0.251  0.000  0.000
  0.118  0.000  0.000  0.089  0.793
  0.000  0.251  0.749  0.000  0.000
    occupations:
  0.321  0.000 -0.000  0.064 -0.000
  0.000  0.496  0.000  0.000 -0.000
 -0.000  0.000  0.308  0.000 -0.003
  0.064  0.000  0.000  0.473  0.000
 -0.000 -0.000 -0.003  0.000  0.312
atom   23   Tr[ns(na)] =   4.17242
    eigenvalues: 
  0.268  0.368  0.439  0.468  0.543
    eigenvectors:
  0.000  0.001  0.000  0.983  0.016
  0.000  0.999  0.000  0.001  0.000
  1.000  0.000  0.000  0.000  0.000
  0.000  0.000  0.000  0.016  0.984
  0.000  0.000  1.000  0.000  0.000
    occupations:
  0.470  0.003 -0.000 -0.009  0.000
  0.003  0.369 -0.000 -0.001  0.000
 -0.000 -0.000  0.268 -0.000 -0.000
 -0.009 -0.001 -0.000  0.542 -0.000
  0.000  0.000 -0.000 -0.000  0.439
N of occupied +U levels =  32.5004078
 --- exit write_ns ---

     negative rho (up, down):  0.336E-02 0.000E+00

     total cpu time spent up to now is      441.7 secs

     total energy              =   -1556.63841046 Ry
     Harris-Foulkes estimate   =   -1567.43915396 Ry
     estimated scf accuracy    <      13.73601943 Ry

     iteration #  2     ecut=    40.00 Ry     beta=0.70
     Davidson diagonalization with overlap
     ethr =  6.16E-03,  avg # of iterations =  2.0

     negative rho (up, down):  0.111E-01 0.000E+00

     total cpu time spent up to now is      623.1 secs

     total energy              =   -1542.08141401 Ry
     Harris-Foulkes estimate   =   -1574.99523589 Ry
     estimated scf accuracy    <     116.01342150 Ry

     iteration #  3     ecut=    40.00 Ry     beta=0.70
     Davidson diagonalization with overlap
     ethr =  6.16E-03,  avg # of iterations =  4.1

     negative rho (up, down):  0.594E-02 0.000E+00

     total cpu time spent up to now is      846.0 secs

     total energy              =   -1523.90527952 Ry
     Harris-Foulkes estimate   =   -1588.58562716 Ry
     estimated scf accuracy    <    1280.12484835 Ry

     iteration #  4     ecut=    40.00 Ry     beta=0.70
     Davidson diagonalization with overlap
     ethr =  6.16E-03,  avg # of iterations =  4.0

     negative rho (up, down):  0.166E-02 0.000E+00

     total cpu time spent up to now is     1062.8 secs

     total energy              =   -1563.30980035 Ry
     Harris-Foulkes estimate   =   -1564.83588865 Ry
     estimated scf accuracy    <       8.50843253 Ry

     iteration #  5     ecut=    40.00 Ry     beta=0.70
     Davidson diagonalization with overlap
     ethr =  3.82E-03,  avg # of iterations =  2.9

     negative rho (up, down):  0.176E-02 0.000E+00

     total cpu time spent up to now is     1242.3 secs

     total energy              =   -1563.85348731 Ry
     Harris-Foulkes estimate   =   -1564.25729159 Ry
     estimated scf accuracy    <       3.14160255 Ry

     iteration #  6     ecut=    40.00 Ry     beta=0.70
     Davidson diagonalization with overlap
     ethr =  1.41E-03,  avg # of iterations =  2.1

     negative rho (up, down):  0.166E-02 0.000E+00

     total cpu time spent up to now is     1412.0 secs

     total energy              =   -1563.86774627 Ry
     Harris-Foulkes estimate   =   -1564.03799433 Ry
     estimated scf accuracy    <       1.21978631 Ry

     iteration #  7     ecut=    40.00 Ry     beta=0.70
     Davidson diagonalization with overlap
     ethr =  5.47E-04,  avg # of iterations =  3.1

     negative rho (up, down):  0.164E-02 0.000E+00

     total cpu time spent up to now is     1589.5 secs

     total energy              =   -1563.80383418 Ry
     Harris-Foulkes estimate   =   -1563.90860119 Ry
     estimated scf accuracy    <       0.68533126 Ry

     iteration #  8     ecut=    40.00 Ry     beta=0.70
     Davidson diagonalization with overlap
     ethr =  3.07E-04,  avg # of iterations =  4.3

     negative rho (up, down):  0.314E-02 0.000E+00

     total cpu time spent up to now is     1776.5 secs

     total energy              =   -1563.72254814 Ry
     Harris-Foulkes estimate   =   -1563.82490690 Ry
     estimated scf accuracy    <       0.39293288 Ry

     iteration #  9     ecut=    40.00 Ry     beta=0.70
     Davidson diagonalization with overlap
     ethr =  1.76E-04,  avg # of iterations =  5.3

     negative rho (up, down):  0.147E-01 0.000E+00

     total cpu time spent up to now is     1966.3 secs

     total energy              =   -1563.70297700 Ry
     Harris-Foulkes estimate   =   -1563.75889597 Ry
     estimated scf accuracy    <       0.18930308 Ry

     iteration # 10     ecut=    40.00 Ry     beta=0.70
     Davidson diagonalization with overlap
     ethr =  8.49E-05,  avg # of iterations =  6.6

     negative rho (up, down):  0.155E-01 0.000E+00

     total cpu time spent up to now is     2163.0 secs

     total energy              =   -1563.72021680 Ry
     Harris-Foulkes estimate   =   -1563.73509807 Ry
     estimated scf accuracy    <       0.12096321 Ry

     iteration # 11     ecut=    40.00 Ry     beta=0.70
     Davidson diagonalization with overlap
     ethr =  5.42E-05,  avg # of iterations =  1.0

     negative rho (up, down):  0.133E-01 0.000E+00

     total cpu time spent up to now is     2332.7 secs

     total energy              =   -1563.72222452 Ry
     Harris-Foulkes estimate   =   -1563.72676002 Ry
     estimated scf accuracy    <       0.03599000 Ry

     iteration # 12     ecut=    40.00 Ry     beta=0.70
     Davidson diagonalization with overlap
     ethr =  1.61E-05,  avg # of iterations =  4.6

     negative rho (up, down):  0.292E-02 0.000E+00

     total cpu time spent up to now is     2515.0 secs

     total energy              =   -1563.70955746 Ry
     Harris-Foulkes estimate   =   -1563.72411131 Ry
     estimated scf accuracy    <       0.03055265 Ry

     iteration # 13     ecut=    40.00 Ry     beta=0.70
     Davidson diagonalization with overlap
     ethr =  1.37E-05,  avg # of iterations =  6.6

     negative rho (up, down):  0.295E-02 0.000E+00

     total cpu time spent up to now is     2732.7 secs

     total energy              =   -1563.70802634 Ry
     Harris-Foulkes estimate   =   -1563.73337680 Ry
     estimated scf accuracy    <       0.16625428 Ry

     iteration # 14     ecut=    40.00 Ry     beta=0.70
     Davidson diagonalization with overlap
     ethr =  1.37E-05,  avg # of iterations =  6.0

     negative rho (up, down):  0.279E-02 0.000E+00

     total cpu time spent up to now is     2944.3 secs

     total energy              =   -1563.71883842 Ry
     Harris-Foulkes estimate   =   -1563.72081535 Ry
     estimated scf accuracy    <       0.00776539 Ry

     iteration # 15     ecut=    40.00 Ry     beta=0.70
     Davidson diagonalization with overlap
     ethr =  3.48E-06,  avg # of iterations =  3.1

     negative rho (up, down):  0.290E-02 0.000E+00

     total cpu time spent up to now is     3125.4 secs

     total energy              =   -1563.71964127 Ry
     Harris-Foulkes estimate   =   -1563.71999573 Ry
     estimated scf accuracy    <       0.00151738 Ry

     iteration # 16     ecut=    40.00 Ry     beta=0.70
     Davidson diagonalization with overlap
     ethr =  6.80E-07,  avg # of iterations =  5.7

     negative rho (up, down):  0.307E-02 0.000E+00

     total cpu time spent up to now is     3322.6 secs

     total energy              =   -1563.71963321 Ry
     Harris-Foulkes estimate   =   -1563.72008132 Ry
     estimated scf accuracy    <       0.00263107 Ry

     iteration # 17     ecut=    40.00 Ry     beta=0.70
     Davidson diagonalization with overlap
     ethr =  6.80E-07,  avg # of iterations =  1.0

     negative rho (up, down):  0.327E-02 0.000E+00

     total cpu time spent up to now is     3496.4 secs

     total energy              =   -1563.71979966 Ry
     Harris-Foulkes estimate   =   -1563.71996931 Ry
     estimated scf accuracy    <       0.00128146 Ry

     iteration # 18     ecut=    40.00 Ry     beta=0.70
     Davidson diagonalization with overlap
     ethr =  5.75E-07,  avg # of iterations =  1.0

     negative rho (up, down):  0.337E-02 0.000E+00

     total cpu time spent up to now is     3669.5 secs

     total energy              =   -1563.71985542 Ry
     Harris-Foulkes estimate   =   -1563.71992419 Ry
     estimated scf accuracy    <       0.00029377 Ry

     iteration # 19     ecut=    40.00 Ry     beta=0.70
     Davidson diagonalization with overlap
     ethr =  1.32E-07,  avg # of iterations =  1.0

     negative rho (up, down):  0.335E-02 0.000E+00

     total cpu time spent up to now is     3836.8 secs

     total energy              =   -1563.71987109 Ry
     Harris-Foulkes estimate   =   -1563.71991721 Ry
     estimated scf accuracy    <       0.00021079 Ry

     iteration # 20     ecut=    40.00 Ry     beta=0.70
     Davidson diagonalization with overlap
     ethr =  9.45E-08,  avg # of iterations =  1.0

     negative rho (up, down):  0.338E-02 0.000E+00

     total cpu time spent up to now is     4005.8 secs

     total energy              =   -1563.71988953 Ry
     Harris-Foulkes estimate   =   -1563.71989825 Ry
     estimated scf accuracy    <       0.00003240 Ry

     iteration # 21     ecut=    40.00 Ry     beta=0.70
     Davidson diagonalization with overlap
     ethr =  1.45E-08,  avg # of iterations =  1.0

     negative rho (up, down):  0.337E-02 0.000E+00

     total cpu time spent up to now is     4173.4 secs

     total energy              =   -1563.71989231 Ry
     Harris-Foulkes estimate   =   -1563.71989592 Ry
     estimated scf accuracy    <       0.00001587 Ry

     iteration # 22     ecut=    40.00 Ry     beta=0.70
     Davidson diagonalization with overlap
     ethr =  7.12E-09,  avg # of iterations =  1.0

     negative rho (up, down):  0.342E-02 0.000E+00

     total cpu time spent up to now is     4339.3 secs

     total energy              =   -1563.71989341 Ry
     Harris-Foulkes estimate   =   -1563.71989561 Ry
     estimated scf accuracy    <       0.00000887 Ry

     iteration # 23     ecut=    40.00 Ry     beta=0.70
     Davidson diagonalization with overlap
     ethr =  3.98E-09,  avg # of iterations =  1.0

     negative rho (up, down):  0.342E-02 0.000E+00

     total cpu time spent up to now is     4510.2 secs

     total energy              =   -1563.71989423 Ry
     Harris-Foulkes estimate   =   -1563.71989469 Ry
     estimated scf accuracy    <       0.00000200 Ry

     iteration # 24     ecut=    40.00 Ry     beta=0.70
     Davidson diagonalization with overlap
     ethr =  8.97E-10,  avg # of iterations =  1.0

     negative rho (up, down):  0.342E-02 0.000E+00

     total cpu time spent up to now is     4673.6 secs

     total energy              =   -1563.71989438 Ry
     Harris-Foulkes estimate   =   -1563.71989459 Ry
     estimated scf accuracy    <       0.00000142 Ry

     iteration # 25     ecut=    40.00 Ry     beta=0.70
     Davidson diagonalization with overlap
     ethr =  6.36E-10,  avg # of iterations =  1.0

     negative rho (up, down):  0.344E-02 0.000E+00

     total cpu time spent up to now is     4839.4 secs

     End of self-consistent calculation
 --- enter write_ns ---
 LDA+U parameters:
U( 2)     =  0.00000000
alpha( 2) =  0.00000000
atom    3   Tr[ns(na)] =   5.23967
    eigenvalues: 
  0.429  0.455  0.524  0.570  0.641
    eigenvectors:
  0.000  0.000  0.007  0.482  0.511
  0.000  0.000  0.990  0.010  0.000
  0.003  0.997  0.000  0.000  0.000
  0.000  0.000  0.003  0.508  0.488
  0.997  0.003  0.000  0.000  0.000
    occupations:
  0.606 -0.005  0.000 -0.036 -0.000
 -0.005  0.525 -0.000 -0.002  0.000
  0.000 -0.000  0.455 -0.000  0.001
 -0.036 -0.002 -0.000  0.605  0.000
 -0.000  0.000  0.001  0.000  0.430
atom    4   Tr[ns(na)] =   5.24627
    eigenvalues: 
  0.425  0.459  0.546  0.575  0.619
    eigenvectors:
  0.000  0.005  0.000  0.995  0.000
  0.000  0.994  0.000  0.005  0.001
  1.000  0.000  0.000  0.000  0.000
  0.000  0.001  0.000  0.000  0.999
  0.000  0.000  1.000  0.000  0.000
    occupations:
  0.574  0.008  0.000  0.001  0.000
  0.008  0.460 -0.000 -0.004 -0.000
  0.000 -0.000  0.425  0.000  0.001
  0.001 -0.004  0.000  0.619  0.000
  0.000 -0.000  0.001  0.000  0.546
atom    9   Tr[ns(na)] =   5.28750
    eigenvalues: 
  0.462  0.472  0.506  0.599  0.604
    eigenvectors:
  0.876  0.000  0.000  0.123  0.001
  0.000  0.000  0.000  0.005  0.995
  0.000  0.027  0.973  0.000  0.000
  0.124  0.000  0.000  0.871  0.005
  0.000  0.973  0.027  0.000  0.000
    occupations:
  0.479 -0.000 -0.000  0.045 -0.000
 -0.000  0.604 -0.000 -0.000  0.000
 -0.000 -0.000  0.505  0.000  0.005
  0.045 -0.000  0.000  0.582 -0.000
 -0.000  0.000  0.005 -0.000  0.473
atom   10   Tr[ns(na)] =   5.13359
    eigenvalues: 
  0.423  0.482  0.509  0.543  0.610
    eigenvectors:
  0.000  0.004  0.992  0.000  0.004
  0.000  0.996  0.004  0.000  0.000
  1.000  0.000  0.000  0.000  0.000
  0.000  0.000  0.004  0.000  0.996
  0.000  0.000  0.000  1.000  0.000
    occupations:
  0.509 -0.002  0.000  0.006  0.000
 -0.002  0.482  0.000 -0.001 -0.000
  0.000  0.000  0.423 -0.000  0.000
  0.006 -0.001 -0.000  0.610  0.000
  0.000 -0.000  0.000  0.000  0.543
atom   16   Tr[ns(na)] =   5.24124
    eigenvalues: 
  0.428  0.458  0.524  0.570  0.641
    eigenvectors:
  0.000  0.000  0.005  0.482  0.513
  0.000  0.000  0.991  0.009  0.000
  0.070  0.930  0.000  0.000  0.000
  0.000  0.000  0.004  0.509  0.487
  0.930  0.070  0.000  0.000  0.000
    occupations:
  0.606  0.004  0.000 -0.036  0.000
  0.004  0.524  0.000  0.002  0.000
  0.000  0.000  0.456 -0.000 -0.008
 -0.036  0.002 -0.000  0.604 -0.000
  0.000  0.000 -0.008 -0.000  0.430
atom   17   Tr[ns(na)] =   5.24182
    eigenvalues: 
  0.422  0.468  0.547  0.575  0.609
    eigenvectors:
  0.000  0.005  0.000  0.995  0.000
  0.000  0.994  0.000  0.005  0.001
  1.000  0.000  0.000  0.000  0.000
  0.000  0.001  0.000  0.000  0.999
  0.000  0.000  1.000  0.000  0.000
    occupations:
  0.575  0.008  0.000  0.001  0.000
  0.008  0.469 -0.000 -0.004 -0.000
  0.000 -0.000  0.422  0.000  0.001
  0.001 -0.004  0.000  0.609  0.000
  0.000 -0.000  0.001  0.000  0.547
atom   22   Tr[ns(na)] =   5.28562
    eigenvalues: 
  0.462  0.472  0.505  0.599  0.604
    eigenvectors:
  0.877  0.000  0.000  0.122  0.000
  0.000  0.000  0.000  0.003  0.997
  0.000  0.042  0.958  0.000  0.000
  0.123  0.000  0.000  0.875  0.003
  0.000  0.958  0.042  0.000  0.000
    occupations:
  0.479  0.000 -0.000  0.045 -0.000
  0.000  0.604  0.000  0.000  0.000
 -0.000  0.000  0.504  0.000 -0.006
  0.045  0.000  0.000  0.582  0.000
 -0.000  0.000 -0.006  0.000  0.474
atom   23   Tr[ns(na)] =   5.26545
    eigenvalues: 
  0.436  0.469  0.547  0.575  0.605
    eigenvectors:
  0.000  0.012  0.000  0.977  0.011
  0.000  0.987  0.000  0.013  0.000
  1.000  0.000  0.000  0.000  0.000
  0.000  0.001  0.000  0.010  0.989
  0.000  0.000  1.000  0.000  0.000
    occupations:
  0.574  0.012 -0.000  0.003  0.000
  0.012  0.471  0.000 -0.004  0.000
 -0.000  0.000  0.436 -0.000 -0.000
  0.003 -0.004 -0.000  0.605 -0.000
  0.000  0.000 -0.000 -0.000  0.547
N of occupied +U levels =  41.9411499
 --- exit write_ns ---

          k = 0.0000 0.0000 0.0000 ( 32167 PWs)   bands (ev):

   -56.1277 -56.0378 -55.7415 -55.7367 -55.7175 -55.6594 -55.6587 -55.6372
   -33.0615 -32.3488 -32.3325 -32.2551 -32.2538 -32.2498 -32.2110 -32.1333
   -32.1008 -32.0626 -32.0228 -32.0210 -32.0029 -31.9680 -31.9313 -31.7778
   -31.7475 -31.7437 -31.5876 -31.5830 -31.5721 -31.4663 -31.4189 -31.4004
   -20.5060 -20.1526 -19.3302 -19.1582 -19.0177 -18.9636 -18.9005 -18.7992
   -18.7209 -18.5910 -18.4078 -18.3750 -18.1018 -18.0712 -17.9507 -17.7519
   -17.7172 -17.5878 -17.4157  -8.9635  -8.4748  -7.6854  -7.4294  -7.2351
    -7.2247  -6.8194  -6.4654  -6.2408  -6.1791  -6.1472  -6.0788  -6.0175
    -5.8447  -5.7987  -5.7753  -5.6801  -5.5222  -5.3894  -5.2771  -5.1488
    -5.1182  -5.0752  -5.0373  -5.0076  -4.9189  -4.8751  -4.8311  -4.4238
    -4.2235  -4.0962  -4.0109  -3.9175  -3.8145  -3.7785  -3.7197  -3.6222
    -3.4984  -3.4215  -3.3393  -3.2830  -3.2112  -3.1961  -3.1626  -2.9740
    -2.9614  -2.9313  -2.8014  -2.7918  -2.7706  -2.6848  -2.6160  -2.5439
    -2.5155  -2.4443  -2.2777  -1.8961  -0.3755  -0.1450  -0.0809   1.2353
     1.5577   1.5938   1.5957   1.6667   1.7478   1.8187   1.8946   1.8982
     1.9530   2.2495   2.4480   2.4534   2.6084   2.7091   2.8823   2.9244
     3.0076   3.4315   3.6736   3.6930   3.7650   3.8594   4.0385   4.1002
     4.4529   4.5455   4.8727   4.9908   5.1258   5.2731   5.5619   5.5745
     5.8386   5.9297   6.0642   6.1506   6.1905   6.2865   6.3296   6.3317
     6.4103   6.4492   6.7508   6.8611   6.9132   6.9646   7.0575   7.1150
     7.3221   7.3519   7.3958   7.4487   7.6312   7.6370   7.9539   8.0343
     8.1216   8.1807   8.2682   8.3202   8.4167   8.6123   8.7138   8.7507
     8.9040   8.9296   8.9578   9.0122   9.0320   9.2930   9.3336   9.4480
     9.4703   9.5579   9.7386   9.9001   9.9493  10.0148  10.0209  10.1233
    10.2197  10.2459  10.2685  10.3147  10.4322  10.6270  10.7367  10.8859
    10.9853  11.0741  11.1018  11.2029  11.2132  11.2760  11.3327  11.3548
    11.3843  11.4551  11.4831  11.5943  11.5979  11.7110  11.7775  11.8067
    11.8659  11.9257  12.0820  12.1757  12.2959  12.3421  12.3716  12.3957
    12.4844  12.4918  12.5630  12.7463  12.7644  12.8558  12.9316  13.0981
    13.1084  13.2048  13.2511  13.3914  13.5127  13.6539  13.6697  13.8111
    13.8907  13.9095  13.9928  14.0366  14.1164  14.1788  14.2251  14.3257
    14.4820  14.5693  14.6202  14.7198  14.7238  14.8361  14.9621  15.0825
    15.1840  15.3186  15.3337  15.4086  15.4991  15.6177  15.6715  15.8003
    15.8200  15.8599  15.9151  15.9611  16.0195  16.1454  16.1479  16.1914
    16.1971  16.2585  16.2715  16.5407  16.5801  16.6283  16.6866  16.8111
    16.8459  16.8790  16.9389  17.2521  17.2808  17.3252  17.3991  17.4130
    17.4762  17.4889  17.5121  17.5836  17.6502  17.8063  17.9362  18.0518
    18.2388  18.2402  18.3905  18.4304  18.5194  18.6179  18.7072  18.7407
    18.7572  18.8241  18.9780  19.0202  19.0888  19.1380  19.1528  19.1982
    19.2817  19.3274  19.3311  19.3607  19.4773  19.4985  19.6639  19.7113
    19.8177  19.8623  19.8783  19.9380  20.0804  20.1152  20.1507  20.2387
    20.2771  20.3255  20.3504  20.3714  20.3886  20.4424

          k = 0.0000 0.2118 0.0000 ( 32193 PWs)   bands (ev):

   -56.1276 -56.0378 -55.7413 -55.7364 -55.7179 -55.6594 -55.6587 -55.6373
   -33.0618 -32.3492 -32.3325 -32.2804 -32.2684 -32.2349 -32.2104 -32.1054
   -32.0760 -32.0627 -32.0227 -32.0210 -32.0028 -31.9530 -31.9313 -31.7784
   -31.7714 -31.7647 -31.5873 -31.5830 -31.5719 -31.4655 -31.4189 -31.4012
   -20.5046 -20.1517 -19.3070 -19.1247 -18.9567 -18.9003 -18.8510 -18.7761
   -18.6779 -18.6723 -18.6536 -18.5911 -17.9815 -17.9085 -17.8993 -17.7861
   -17.7774 -17.5864 -17.4158  -8.9631  -8.4731  -7.6864  -7.4117  -6.9311
    -6.8586  -6.7383  -6.6294  -6.4815  -6.4754  -6.2386  -6.0899  -6.0813
    -5.9983  -5.9210  -5.8484  -5.8413  -5.3646  -5.2508  -5.1854  -5.1162
    -5.0592  -4.9557  -4.9281  -4.9117  -4.8545  -4.6333  -4.5197  -4.4441
    -4.2935  -4.2518  -4.1591  -4.0196  -3.8728  -3.8409  -3.8016  -3.5835
    -3.4520  -3.3819  -3.3693  -3.3127  -3.2568  -3.1239  -3.1105  -3.0776
    -3.0429  -3.0025  -2.9723  -2.8672  -2.8275  -2.7580  -2.6355  -2.5676
    -2.5517  -2.4766  -2.3315  -1.9904  -0.3476   0.2626   0.2910   0.8341
     1.0390   1.1021   1.5983   1.6880   1.9575   2.0088   2.2174   2.2572
     2.3449   2.4671   2.4805   2.6046   2.6749   2.7569   2.8486   2.9583
     3.0016   3.2386   3.6851   3.7180   3.7841   3.8176   4.0288   4.2503
     4.4430   4.7004   4.8828   5.0520   5.1850   5.2581   5.3341   5.3951
     5.5766   5.5890   5.6366   5.6817   5.8427   5.9513   6.0027   6.1822
     6.3140   6.4302   6.8328   6.9533   7.0388   7.1898   7.2595   7.3380
     7.4168   7.4692   7.5036   7.5906   7.7928   7.9276   8.0393   8.1515
     8.1589   8.2826   8.3704   8.5451   8.6306   8.7139   8.7594   8.8154
     8.8532   8.9605   9.1261   9.2294   9.2832   9.3141   9.4983   9.5058
     9.6155   9.6590   9.7138   9.7495   9.8569   9.8838   9.9548   9.9753
    10.1141  10.1621  10.2589  10.3165  10.4373  10.5175  10.5193  10.6763
    10.7097  10.8550  10.9344  11.0148  11.1537  11.1655  11.2612  11.3091
    11.3995  11.4987  11.5231  11.5793  11.7030  11.8119  11.9111  12.0271
    12.1446  12.2356  12.3832  12.4797  12.5458  12.5837  12.6628  12.7480
    12.7646  12.7825  12.8972  12.9176  12.9857  13.0539  13.0800  13.1860
    13.2589  13.2956  13.3041  13.3881  13.4443  13.4943  13.6281  13.7681
    13.7806  13.8154  13.8948  13.9135  14.0086  14.0116  14.1376  14.2284
    14.3007  14.4659  14.5097  14.5806  14.6525  14.6780  14.7522  14.8127
    14.8798  15.0235  15.1639  15.1736  15.2052  15.2621  15.3488  15.3996
    15.4297  15.5433  15.6230  15.7007  16.0095  16.0546  16.1104  16.2103
    16.2806  16.3294  16.4162  16.4940  16.5092  16.5986  16.6988  16.7707
    16.8567  16.8710  16.9735  17.0294  17.2313  17.3067  17.3656  17.4167
    17.5644  17.6117  17.7269  17.7664  17.7893  17.8237  17.8952  17.9489
    18.0094  18.1091  18.1756  18.2067  18.3060  18.3120  18.3854  18.4520
    18.5894  18.6221  18.6765  18.7204  18.7479  18.7777  18.8831  18.9503
    18.9581  19.0477  19.0881  19.2196  19.2335  19.3329  19.3990  19.4700
    19.5379  19.5889  19.6764  19.7127  19.8071  19.8765  19.9046  19.9828
    20.0839  20.2386  20.3078  20.3094  20.3432  20.3856

          k = 0.0000-0.4237 0.0000 ( 32162 PWs)   bands (ev):

   -56.1276 -56.0378 -55.7412 -55.7360 -55.7184 -55.6594 -55.6587 -55.6373
   -33.0620 -32.3495 -32.3325 -32.3002 -32.2806 -32.2215 -32.2069 -32.0843
   -32.0628 -32.0458 -32.0226 -32.0208 -32.0026 -31.9393 -31.9312 -31.8046
   -31.7843 -31.7778 -31.5868 -31.5830 -31.5717 -31.4647 -31.4189 -31.4020
   -20.5034 -20.1509 -19.2922 -19.1080 -18.9007 -18.8570 -18.8483 -18.8209
   -18.8022 -18.5916 -18.5355 -18.5257 -18.2430 -18.2053 -17.9358 -17.5999
   -17.5993 -17.5864 -17.4158  -8.9627  -8.4713  -7.6873  -7.4077  -6.8602
    -6.8401  -6.6843  -6.5216  -6.5211  -6.3528  -6.2087  -6.1542  -6.0154
    -5.9560  -5.9250  -5.8448  -5.5303  -5.5181  -5.3249  -5.2979  -5.2862
    -5.2458  -5.1152  -4.8877  -4.8601  -4.8384  -4.6457  -4.5971  -4.5189
    -4.2069  -4.1707  -4.0517  -3.8783  -3.8613  -3.8342  -3.7171  -3.6914
    -3.5970  -3.4824  -3.3351  -3.2823  -3.2527  -3.2310  -3.2185  -3.1936
    -3.1734  -2.9971  -2.9205  -2.8872  -2.7965  -2.7819  -2.6249  -2.5481
    -2.4645  -2.4114  -2.3537  -2.1938  -0.3376   0.5584   0.5747   0.5888
     0.5986   0.9501   1.6008   1.6954   2.2086   2.2310   2.3847   2.4145
     2.4498   2.4591   2.6387   2.6729   2.8144   2.8429   2.8516   3.0078
     3.1809   3.1920   3.5140   3.6733   3.7704   3.7994   3.9237   4.4513
     4.6228   4.7005   4.8036   4.8899   4.9557   5.0361   5.1252   5.4523
     5.5141   5.5844   5.6072   5.6390   5.6781   5.7357   5.8617   5.9567
     6.0734   6.6082   6.6291   6.8805   7.0044   7.2437   7.2839   7.3135
     7.3387   7.3669   7.6841   7.8280   7.9380   8.0316   8.0680   8.1013
     8.3152   8.4010   8.4912   8.8054   8.8387   8.9097   8.9157   8.9223
     9.0353   9.0427   9.0762   9.2437   9.3171   9.3424   9.3512   9.4658
     9.5489   9.5904   9.6050   9.7710   9.8151   9.9087  10.0194  10.0448
    10.1932  10.2452  10.3654  10.4389  10.5815  10.7093  10.7796  10.8289
    10.8831  11.0070  11.0444  11.1268  11.1444  11.2882  11.3251  11.4460
    11.4709  11.5535  11.5863  11.6407  11.6520  11.7666  11.8326  11.8506
    11.9128  12.0341  12.0619  12.2028  12.2348  12.2463  12.4063  12.4270
    12.5920  12.7353  12.7386  12.8450  13.0072  13.0236  13.0699  13.1672
    13.2110  13.2423  13.2489  13.3395  13.5428  13.7685  13.8519  13.9107
    13.9186  14.0463  14.1105  14.1262  14.1727  14.3043  14.3569  14.5399
    14.5688  14.5790  14.7504  14.8381  14.9000  14.9290  14.9814  15.0129
    15.0968  15.1207  15.1338  15.2514  15.2752  15.3102  15.3956  15.4698
    15.4838  15.4902  15.5847  15.6151  15.6786  15.7236  15.7604  15.8515
    15.9207  15.9648  16.0492  16.1847  16.2842  16.2906  16.4678  16.4766
    16.5979  16.7127  16.7149  16.7225  16.8176  16.9787  17.1170  17.1517
    17.1716  17.1997  17.2721  17.3079  17.3542  17.3976  17.4297  17.5012
    17.9282  17.9871  18.0206  18.0918  18.1576  18.2468  18.2838  18.3289
    18.3719  18.4415  18.5255  18.5283  18.5720  18.5768  18.6294  18.6839
    18.7958  18.8384  19.0021  19.0833  19.2201  19.2606  19.3289  19.4230
    19.5233  19.5407  19.5548  19.6095  19.7202  19.7581  19.8289  19.8382
    19.9911  19.9968  20.1687  20.2016  20.5175  20.5703

          k = 0.2500 0.0000 0.0000 ( 32181 PWs)   bands (ev):

   -56.1147 -56.0510 -55.7307 -55.7258 -55.7068 -55.6711 -55.6689 -55.6481
   -32.9231 -32.3099 -32.2704 -32.2324 -32.1781 -32.1752 -32.1500 -32.1400
   -32.1345 -32.0977 -32.0804 -32.0234 -31.9897 -31.9864 -31.9400 -31.7505
   -31.7257 -31.7231 -31.6291 -31.6113 -31.5976 -31.5816 -31.5460 -31.5333
   -20.4634 -20.1364 -19.2431 -19.1220 -18.9476 -18.9335 -18.8450 -18.7763
   -18.5461 -18.4736 -18.3101 -18.2781 -18.2395 -18.2015 -17.9621 -17.8461
   -17.8126 -17.7462 -17.6127  -8.8887  -8.4872  -7.4718  -7.4300  -7.0217
    -6.9928  -6.7603  -6.3616  -6.1940  -6.1170  -6.1037  -6.0180  -5.9666
    -5.8881  -5.8322  -5.7041  -5.6373  -5.5378  -5.5230  -5.4850  -5.3522
    -5.2904  -5.2066  -5.0149  -4.8504  -4.7412  -4.6052  -4.5855  -4.4819
    -4.2505  -4.1514  -4.0216  -3.9844  -3.8169  -3.8013  -3.7736  -3.6347
    -3.5620  -3.4864  -3.4562  -3.3679  -3.2907  -3.2824  -3.2324  -3.1210
    -3.1019  -3.0177  -2.9650  -2.8630  -2.8041  -2.7947  -2.7287  -2.5848
    -2.5060  -2.4834  -2.3154  -1.9716   0.0481   0.3306   0.3753   1.1204
     1.4562   1.5869   1.6578   1.7683   1.7708   1.8032   1.9092   2.0247
     2.0535   2.1729   2.3172   2.5492   2.5802   2.7553   2.7702   2.8514
     2.8814   2.9209   2.9834   3.1483   3.2871   3.8646   4.1013   4.1957
     4.5134   4.7443   4.8853   5.1974   5.3142   5.3703   5.6156   5.6638
     5.9292   6.0277   6.0914   6.1228   6.1354   6.1583   6.2520   6.2835
     6.3385   6.3917   6.4529   6.6406   6.6594   6.7745   6.9288   7.1655
     7.2192   7.2454   7.3483   7.3607   7.5376   7.6488   7.7875   7.8818
     7.9176   7.9931   8.1338   8.2018   8.4489   8.4921   8.5697   8.7399
     8.9766   9.0233   9.1330   9.1686   9.1794   9.3321   9.3567   9.4012
     9.4167   9.5557   9.5806   9.7255   9.8389   9.9532   9.9903   9.9924
    10.0623  10.2233  10.2771  10.4330  10.5099  10.5610  10.6128  10.6992
    10.8635  10.8842  11.0104  11.0389  11.1614  11.2235  11.4007  11.4312
    11.5628  11.5751  11.7348  11.7864  11.9216  11.9525  12.1053  12.2815
    12.2890  12.4131  12.4504  12.5151  12.5563  12.6962  12.6976  12.8233
    12.8263  12.9750  13.1897  13.2085  13.3241  13.4562  13.5419  13.5751
    13.5841  13.6793  13.7886  13.7941  13.8677  13.8973  13.9645  14.0143
    14.0191  14.0557  14.2241  14.2651  14.4872  14.5338  14.6032  14.6978
    14.7917  14.8121  14.8323  14.8797  14.9447  14.9777  15.0940  15.3113
    15.4056  15.4157  15.4821  15.5594  15.6155  15.6765  15.6943  15.7926
    15.8939  15.9993  16.0874  16.0918  16.1953  16.2713  16.3127  16.3220
    16.3612  16.3931  16.4956  16.5063  16.6347  16.6599  16.8040  16.8346
    16.8615  16.8829  16.9477  16.9604  17.0439  17.1437  17.1564  17.3088
    17.3149  17.3480  17.5020  17.5513  17.5613  17.7051  17.7274  17.7823
    17.8782  17.9702  18.0085  18.0458  18.0934  18.1560  18.2654  18.3001
    18.3075  18.4047  18.5060  18.5572  18.6309  18.7088  18.7717  18.8564
    18.8824  18.9297  19.0151  19.0427  19.0705  19.1395  19.1541  19.2136
    19.2598  19.3819  19.3993  19.4241  19.4967  19.4991  19.5798  19.6579
    19.7245  19.7403  19.7972  19.8675  19.8798  19.9081

          k = 0.2500 0.2118 0.0000 ( 32165 PWs)   bands (ev):

   -56.1146 -56.0510 -55.7307 -55.7255 -55.7072 -55.6711 -55.6689 -55.6482
   -32.9233 -32.3096 -32.2718 -32.2200 -32.2037 -32.1777 -32.1695 -32.1587
   -32.0990 -32.0841 -32.0604 -32.0228 -31.9896 -31.9611 -31.9399 -31.7513
   -31.7481 -31.7391 -31.6289 -31.6144 -31.5999 -31.5808 -31.5448 -31.5322
   -20.4625 -20.1357 -19.2295 -19.1113 -18.9334 -18.8989 -18.7638 -18.6868
   -18.5981 -18.5881 -18.5265 -18.4728 -18.0244 -17.9730 -17.9558 -17.8927
   -17.8870 -17.7441 -17.6123  -8.8881  -8.4859  -7.4726  -7.4254  -6.8625
    -6.6715  -6.5945  -6.5021  -6.4155  -6.2770  -6.1753  -6.0542  -6.0365
    -5.9312  -5.8436  -5.7280  -5.7018  -5.5254  -5.4929  -5.4668  -5.4067
    -5.0767  -5.0346  -4.9435  -4.8241  -4.6345  -4.5242  -4.4646  -4.2964
    -4.2275  -4.1805  -4.0963  -4.0036  -3.9016  -3.8490  -3.8408  -3.8119
    -3.7763  -3.6503  -3.6245  -3.4845  -3.4555  -3.3902  -3.2317  -3.1670
    -3.1018  -3.0322  -2.9460  -2.9104  -2.7626  -2.7196  -2.6737  -2.5503
    -2.4628  -2.4496  -2.3368  -2.0250   0.0762   0.6758   0.6964   0.9427
     1.0463   1.3122   1.6738   1.7651   1.8174   1.9957   2.0789   2.1468
     2.2939   2.3719   2.4485   2.6077   2.7059   2.7429   2.7802   2.8678
     2.9532   3.0415   3.0717   3.0996   3.2812   3.6907   4.2374   4.3262
     4.5976   4.7316   4.9815   5.1537   5.2437   5.2888   5.4024   5.4604
     5.4946   5.7159   5.7862   5.8395   5.8551   5.9676   6.0667   6.1607
     6.4437   6.4654   6.4988   6.6756   6.7107   6.8513   6.8757   7.0265
     7.1561   7.2634   7.3362   7.3751   7.5144   7.6527   7.8583   7.9580
     8.0102   8.0630   8.2119   8.2992   8.4084   8.5239   8.6172   8.7203
     8.8311   8.9180   8.9948   9.1595   9.1950   9.2996   9.3471   9.4942
     9.5729   9.6550   9.8038   9.8259  10.0043  10.0541  10.0868  10.2261
    10.3285  10.3991  10.5206  10.7129  10.7891  10.8999  10.9585  11.0347
    11.0784  11.1449  11.2261  11.3082  11.3646  11.5137  11.5418  11.5671
    11.6036  11.7120  11.8550  11.8781  12.0014  12.0755  12.1895  12.2662
    12.4095  12.4565  12.5195  12.5625  12.6404  12.6759  12.7735  12.8386
    12.8963  12.9415  12.9938  13.0429  13.1145  13.2055  13.2784  13.3841
    13.4497  13.5088  13.5724  13.6139  13.6838  13.7808  13.8353  13.9244
    13.9616  14.0298  14.0536  14.1448  14.2537  14.2833  14.3428  14.4340
    14.5614  14.7154  14.7455  14.7868  14.8632  14.9018  15.0150  15.0861
    15.1873  15.2451  15.2914  15.3842  15.4116  15.4367  15.5289  15.6122
    15.6556  15.7645  15.8231  15.8867  15.9095  15.9515  16.0580  16.1223
    16.1854  16.2371  16.2788  16.3594  16.4749  16.5847  16.6282  16.6703
    16.7517  16.7972  16.8588  16.9666  17.0254  17.0611  17.1365  17.1760
    17.2563  17.2930  17.3184  17.4122  17.4641  17.5331  17.6258  17.7125
    17.7816  17.8599  17.9405  17.9976  18.0532  18.1281  18.1524  18.2176
    18.3222  18.4056  18.4898  18.5410  18.5828  18.6424  18.7465  18.8154
    18.8632  18.9747  19.0005  19.0942  19.1042  19.1844  19.2331  19.2846
    19.3274  19.3892  19.4492  19.5539  19.5990  19.6629  19.6937  19.7508
    19.7996  19.8656  19.9108  19.9880  20.0315  20.0638

          k = 0.2500-0.4237 0.0000 ( 32188 PWs)   bands (ev):

   -56.1146 -56.0510 -55.7306 -55.7251 -55.7076 -55.6711 -55.6689 -55.6482
   -32.9235 -32.3094 -32.2736 -32.2247 -32.2064 -32.1782 -32.1746 -32.1700
   -32.0994 -32.0596 -32.0372 -32.0214 -31.9895 -31.9411 -31.9386 -31.7757
   -31.7551 -31.7505 -31.6288 -31.6177 -31.6023 -31.5801 -31.5437 -31.5315
   -20.4617 -20.1350 -19.2202 -19.1045 -18.9323 -18.8720 -18.7291 -18.7201
   -18.6727 -18.4734 -18.3991 -18.3965 -18.3195 -18.2683 -17.9588 -17.7455
   -17.7423 -17.7346 -17.6109  -8.8876  -8.4846  -7.4732  -7.4231  -6.8317
    -6.5231  -6.5076  -6.4811  -6.3567  -6.3193  -6.1250  -6.0278  -5.8780
    -5.8759  -5.8425  -5.8168  -5.7606  -5.7048  -5.6005  -5.5260  -5.3279
    -5.2924  -4.9107  -4.7166  -4.7090  -4.5588  -4.4826  -4.3190  -4.2935
    -4.2510  -4.2503  -4.1798  -4.1496  -4.0185  -3.9855  -3.9481  -3.8942
    -3.8062  -3.7511  -3.7024  -3.6266  -3.5855  -3.4228  -3.2448  -3.2271
    -3.0763  -3.0096  -2.9716  -2.8461  -2.8305  -2.6925  -2.5803  -2.4735
    -2.3825  -2.3760  -2.2801  -2.1788   0.0818   0.7531   0.7555   0.9404
     0.9495   1.1371   1.7423   1.8186   1.8539   2.0878   2.2910   2.3194
     2.3583   2.5335   2.5985   2.6755   2.6959   2.7216   2.8831   2.9524
     3.0159   3.1534   3.2043   3.2370   3.3247   3.5239   4.2119   4.3755
     4.7035   4.7293   4.8348   4.8958   4.9706   5.1592   5.1852   5.2406
     5.3299   5.4460   5.7096   5.7326   5.7866   5.8515   6.1114   6.1902
     6.3059   6.3986   6.4063   6.6926   6.9057   6.9244   6.9988   7.0752
     7.1356   7.1673   7.3040   7.3482   7.5406   7.5983   7.6658   7.7232
     7.8649   7.8998   8.1983   8.3260   8.4493   8.4624   8.5438   8.7267
     8.7883   8.9346   9.1100   9.1449   9.1850   9.1907   9.3336   9.7609
     9.8557   9.9898  10.0208  10.1437  10.3099  10.3153  10.4222  10.4352
    10.6163  10.9085  10.9539  10.9770  11.0640  11.0884  11.2598  11.3148
    11.3634  11.3844  11.4683  11.5549  11.5626  11.6002  11.6305  11.7331
    11.7573  11.8553  11.9135  11.9419  11.9782  12.0799  12.0917  12.1671
    12.1762  12.3615  12.3763  12.4873  12.5828  12.6259  12.7599  12.7820
    12.8226  12.9979  13.0324  13.1264  13.1512  13.1986  13.2285  13.2699
    13.3219  13.4022  13.4471  13.4582  13.5160  13.5440  13.5483  13.5933
    13.7380  13.7424  13.9120  13.9492  14.0043  14.1572  14.1958  14.2007
    14.2500  14.3192  14.4068  14.4633  14.5965  14.6261  14.7953  14.7998
    14.8470  14.9935  15.0792  15.1762  15.3100  15.3223  15.4126  15.4403
    15.4926  15.5313  15.6023  15.7285  15.8034  15.8226  16.0752  16.0876
    16.2545  16.2773  16.4117  16.4885  16.5260  16.5780  16.7637  16.7761
    16.8286  16.8895  16.9669  17.0011  17.1402  17.1621  17.1698  17.2109
    17.3272  17.3458  17.3465  17.4495  17.5145  17.6041  17.6594  17.6801
    17.7143  17.7602  17.8571  17.8838  17.8947  17.9468  18.0916  18.1230
    18.1273  18.1669  18.2940  18.3673  18.4039  18.4262  18.5218  18.6030
    18.6566  18.7116  18.7733  18.8521  18.8770  19.0288  19.0677  19.1955
    19.2018  19.2938  19.3063  19.4272  19.4426  19.5101  19.5429  19.6350
    19.7004  19.7839  19.8390  19.9227  20.0329  20.0865

          k =-0.5000 0.0000 0.0000 ( 32166 PWs)   bands (ev):

   -56.0846 -56.0813 -55.7133 -55.7010 -55.6972 -55.6879 -55.6859 -55.6669
   -32.5804 -32.5733 -32.2373 -32.1946 -32.1930 -32.1899 -32.1885 -32.0419
   -32.0354 -32.0292 -31.9661 -31.9622 -31.9238 -31.8948 -31.8812 -31.8502
   -31.8343 -31.8099 -31.6879 -31.6825 -31.6811 -31.6721 -31.6523 -31.6431
   -20.4190 -20.1207 -19.1082 -19.0827 -19.0613 -18.9021 -18.5792 -18.5439
   -18.5183 -18.5087 -18.1296 -18.1180 -18.0829 -18.0815 -18.0804 -18.0728
   -18.0520 -18.0359 -17.9757  -8.8176  -8.4911  -7.4440  -7.0471  -7.0295
    -6.5369  -6.4270  -6.3943  -6.3401  -6.2767  -6.1009  -5.9994  -5.9744
    -5.9625  -5.9264  -5.8823  -5.8221  -5.4515  -5.4412  -5.1894  -5.0837
    -5.0545  -4.9883  -4.8271  -4.7343  -4.7075  -4.6453  -4.6245  -4.5268
    -4.4333  -4.3794  -4.3143  -4.0940  -4.0598  -3.9760  -3.8621  -3.8378
    -3.7657  -3.6587  -3.5752  -3.5276  -3.4079  -3.3500  -3.2106  -3.1698
    -3.1300  -3.0975  -2.9821  -2.9701  -2.7385  -2.7171  -2.6282  -2.5346
    -2.5233  -2.3324  -2.3229  -2.1226   0.9528   1.0681   1.2253   1.2604
     1.3153   1.3922   1.4584   1.4651   1.7061   1.7549   1.7652   1.8072
     1.8116   2.0703   2.0845   2.1927   2.2379   2.4024   2.4761   2.4961
     2.9209   2.9631   3.1739   3.3782   3.3841   3.5785   3.6439   4.5279
     4.8921   4.9124   5.1026   5.1516   5.4546   5.5000   5.5511   5.7108
     5.8019   5.8994   5.9025   5.9600   6.0316   6.0471   6.0492   6.1089
     6.1873   6.2469   6.4703   6.4944   6.6362   7.0205   7.0758   7.0925
     7.1094   7.1543   7.4657   7.5189   7.5673   7.6693   7.7792   7.9743
     8.0275   8.0393   8.0695   8.0774   8.2236   8.3325   8.4769   8.5500
     8.5969   8.6461   8.7018   8.7046   8.8019   8.8731   9.1480   9.2607
     9.2924   9.4091   9.7360   9.8653   9.8747   9.9372   9.9734   9.9939
    10.0635  10.1338  10.2650  10.4171  10.6768  10.7416  10.8835  10.9292
    11.1361  11.1966  11.2253  11.2934  11.2987  11.3463  11.4328  11.5106
    11.6001  11.7834  12.0698  12.1803  12.3476  12.4990  12.5615  12.5703
    12.5926  12.7016  12.7984  12.9855  13.0409  13.0478  13.1021  13.2754
    13.2894  13.2959  13.3959  13.4266  13.5286  13.7339  13.8030  13.8465
    13.9106  13.9927  14.0433  14.1085  14.2316  14.2822  14.3705  14.3874
    14.4229  14.5614  14.5728  14.6630  14.6955  14.7173  14.7514  14.7899
    14.8232  14.8975  15.0257  15.1974  15.3361  15.3577  15.4413  15.4816
    15.6226  15.6326  15.7506  15.7754  15.8354  15.9179  15.9187  16.0245
    16.0841  16.1768  16.2443  16.2969  16.3176  16.3414  16.4419  16.4421
    16.4988  16.5220  16.6044  16.7041  16.7184  16.8034  16.8199  16.8928
    16.9018  16.9618  17.0122  17.0263  17.0878  17.1188  17.1325  17.1712
    17.1907  17.2404  17.2415  17.2468  17.2927  17.3652  17.3759  17.4482
    17.5653  17.5851  17.6456  17.6569  17.6825  17.7241  17.7330  17.7364
    17.7775  17.8106  17.8969  17.9757  18.1081  18.1518  18.1641  18.2453
    18.2766  18.3448  18.4651  18.4932  18.5704  18.6637  18.6926  18.7246
    18.7412  18.7702  18.8483  18.8527  18.9351  19.0479  19.0576  19.1288
    19.2097  19.2958  19.3265  19.3653  19.4135  19.5316

          k =-0.5000 0.2118 0.0000 ( 32144 PWs)   bands (ev):

   -56.0846 -56.0813 -55.7133 -55.7007 -55.6969 -55.6883 -55.6859 -55.6671
   -32.5806 -32.5735 -32.2390 -32.1949 -32.1906 -32.1898 -32.1859 -32.0417
   -32.0344 -32.0292 -31.9660 -31.9621 -31.9240 -31.8942 -31.8748 -31.8387
   -31.8239 -31.8045 -31.7005 -31.6897 -31.6819 -31.6722 -31.6636 -31.6511
   -20.4186 -20.1202 -19.1049 -19.0793 -19.0590 -18.8985 -18.5639 -18.5454
   -18.5192 -18.5091 -18.1380 -18.1355 -18.1115 -18.0986 -18.0786 -18.0633
   -18.0369 -18.0298 -17.9616  -8.8168  -8.4902  -7.4425  -7.0428  -7.0246
    -6.5127  -6.4247  -6.4147  -6.3767  -6.3497  -6.0206  -6.0044  -5.8893
    -5.8020  -5.7322  -5.7154  -5.6206  -5.3629  -5.2847  -5.2045  -5.1169
    -5.0787  -5.0151  -4.9425  -4.8977  -4.8411  -4.8201  -4.7804  -4.6664
    -4.5293  -4.4967  -4.3316  -4.2113  -3.9622  -3.9521  -3.9269  -3.8811
    -3.7173  -3.6767  -3.6105  -3.5724  -3.5319  -3.5147  -3.3269  -3.2302
    -3.0733  -2.9942  -2.9777  -2.8486  -2.7591  -2.7114  -2.6475  -2.5294
    -2.4100  -2.3243  -2.2716  -2.1555   0.9679   1.1086   1.1237   1.2820
     1.4590   1.4988   1.5673   1.6039   1.6303   1.6947   1.7605   1.8050
     2.0316   2.0987   2.2604   2.3953   2.4243   2.5158   2.5581   2.5634
     2.8639   2.8907   3.1191   3.2733   3.4234   3.6839   3.7583   4.6274
     4.9914   5.0444   5.1994   5.2283   5.2482   5.2826   5.2950   5.3007
     5.5416   5.6633   5.7176   5.7996   5.8144   5.9802   6.1487   6.2643
     6.3192   6.3710   6.4381   6.5469   6.6394   6.6601   6.7344   6.7612
     6.9424   6.9643   7.0987   7.2584   7.4323   7.4897   7.5555   7.6199
     7.7328   7.8477   7.9936   8.0871   8.2733   8.2938   8.5811   8.6950
     8.8001   8.8423   8.9396   9.0569   9.1915   9.3569   9.4065   9.6894
     9.7239   9.8434   9.9160   9.9668  10.0502  10.0925  10.1473  10.2389
    10.3281  10.3635  10.5672  10.6098  10.7230  10.8166  10.9023  10.9362
    11.2564  11.4232  11.5305  11.6388  11.6963  11.7166  11.7418  11.7706
    11.8066  11.8649  12.1562  12.2478  12.3010  12.4611  12.5138  12.6644
    12.7526  12.8524  12.9369  13.0477  13.0706  13.1759  13.3232  13.4014
    13.4489  13.5336  13.5491  13.6328  13.6712  13.6957  13.7538  13.8073
    13.8785  13.8859  13.9196  14.0237  14.0474  14.1683  14.2091  14.2247
    14.2563  14.2949  14.3767  14.3847  14.4166  14.4860  14.5102  14.5512
    14.7000  14.7478  14.8225  14.8689  14.9112  14.9354  14.9640  15.0143
    15.1070  15.1386  15.1393  15.1775  15.2334  15.2783  15.4053  15.4643
    15.5562  15.5679  15.6083  15.7202  15.8002  15.8236  15.8647  15.8980
    15.9355  16.0707  16.1116  16.1610  16.2591  16.2685  16.2998  16.4435
    16.4579  16.5137  16.6160  16.7597  16.8346  16.9572  17.0055  17.0446
    17.1028  17.1255  17.2247  17.2676  17.4210  17.4363  17.5074  17.5324
    17.5855  17.6858  17.7177  17.7520  17.8230  17.8956  17.9552  18.0794
    18.1259  18.1530  18.1974  18.2435  18.3485  18.4668  18.4835  18.5055
    18.6440  18.6650  18.7459  18.7588  18.8658  18.9040  18.9515  19.0152
    19.0786  19.1726  19.2323  19.2549  19.4006  19.4304  19.5120  19.5924
    19.6661  19.6860  19.7729  19.9148  19.9677  20.0108

          k =-0.5000-0.4237 0.0000 ( 32256 PWs)   bands (ev):

   -56.0846 -56.0813 -55.7133 -55.7004 -55.6966 -55.6888 -55.6859 -55.6672
   -32.5808 -32.5737 -32.2406 -32.1951 -32.1898 -32.1882 -32.1835 -32.0413
   -32.0339 -32.0285 -31.9659 -31.9619 -31.9251 -31.8948 -31.8674 -31.8245
   -31.8100 -31.7980 -31.7157 -31.6994 -31.6819 -31.6767 -31.6722 -31.6597
   -20.4183 -20.1197 -19.1017 -19.0759 -19.0566 -18.8946 -18.5501 -18.5356
   -18.5291 -18.5093 -18.1518 -18.1514 -18.1194 -18.1011 -18.1004 -18.0595
   -18.0252 -18.0183 -17.9533  -8.8162  -8.4894  -7.4414  -7.0394  -7.0207
    -6.4533  -6.3709  -6.3467  -6.3427  -6.3341  -6.0332  -6.0138  -5.9214
    -5.6496  -5.6388  -5.6307  -5.5181  -5.4008  -5.2201  -5.1829  -5.1450
    -5.0334  -5.0325  -4.9942  -4.9792  -4.9457  -4.9439  -4.8852  -4.6665
    -4.3576  -4.3318  -4.2708  -4.1730  -4.1433  -4.0518  -4.0303  -4.0025
    -3.8954  -3.8689  -3.8563  -3.8187  -3.6427  -3.5800  -3.2029  -3.1688
    -3.1420  -2.9037  -2.8955  -2.8878  -2.7710  -2.6572  -2.5853  -2.4272
    -2.3513  -2.2644  -2.2469  -2.2153   1.0038   1.0731   1.1089   1.2627
     1.3364   1.4138   1.4433   1.5420   1.6646   1.7910   2.0916   2.2157
     2.3205   2.3438   2.3695   2.3949   2.5834   2.6811   2.7092   2.7313
     2.8099   2.9863   3.0009   3.0470   3.4783   3.8156   3.9064   4.7064
     4.7452   4.7461   4.7518   4.7876   4.9865   4.9926   5.3966   5.5318
     5.7073   5.7238   5.7431   5.7520   5.9177   6.0249   6.0671   6.0931
     6.0985   6.1955   6.3009   6.3948   6.4917   6.5426   6.6608   6.8239
     6.8520   6.8716   7.0103   7.0986   7.1508   7.2230   7.4083   7.4383
     7.6244   7.8628   8.0294   8.1460   8.1535   8.4133   8.4778   8.5704
     9.0057   9.1275   9.2070   9.3124   9.3567   9.4144   9.5303   9.5333
     9.6513   9.7150   9.7588   9.8714  10.3226  10.6779  10.8021  10.8675
    10.9375  10.9526  10.9737  11.0194  11.0787  11.4091  11.4408  11.6104
    11.6248  11.7662  11.7746  11.9243  11.9353  11.9436  12.1597  12.1917
    12.2276  12.2476  12.3718  12.3741  12.4061  12.4393  12.5714  12.6389
    12.6826  12.7074  12.7480  12.8523  12.9197  12.9434  13.0623  13.1070
    13.1099  13.1572  13.2095  13.4138  13.4549  13.5126  13.5791  13.5988
    13.6211  13.6451  13.6736  13.7177  13.8042  13.8620  13.8654  14.0433
    14.1344  14.1813  14.1992  14.2395  14.3121  14.3152  14.3798  14.3878
    14.3918  14.4192  14.6044  14.6265  14.6329  14.6463  14.6754  14.7161
    14.7656  14.7958  14.8606  14.9087  15.0179  15.0371  15.0789  15.1640
    15.1689  15.3558  15.3878  15.4689  15.4817  15.5124  15.6611  15.7119
    15.7765  15.8148  15.8601  15.9015  15.9213  15.9723  16.0299  16.0773
    16.2596  16.3924  16.4678  16.5815  16.6379  16.7395  16.9748  17.0106
    17.0784  17.0952  17.1462  17.3509  17.3702  17.3872  17.5327  17.5441
    17.5933  17.6161  17.6350  17.7169  17.8320  17.8560  17.9659  17.9891
    18.0664  18.2490  18.3051  18.3521  18.4933  18.5064  18.6032  18.7334
    18.7691  18.7833  18.8504  18.9986  19.0488  19.2260  19.2416  19.3931
    19.4949  19.5958  19.6561  19.7059  19.7136  19.8598  19.8901  19.9910
    20.0077  20.1679  20.1690  20.1961  20.2734  20.3526

          k =-0.2500 0.2118 0.0000 ( 32165 PWs)   bands (ev):

   -56.1146 -56.0510 -55.7307 -55.7255 -55.7072 -55.6711 -55.6689 -55.6482
   -32.9233 -32.3096 -32.2718 -32.2200 -32.2037 -32.1777 -32.1695 -32.1587
   -32.0990 -32.0841 -32.0604 -32.0228 -31.9896 -31.9611 -31.9399 -31.7514
   -31.7480 -31.7391 -31.6289 -31.6144 -31.5999 -31.5808 -31.5448 -31.5322
   -20.4625 -20.1357 -19.2295 -19.1113 -18.9334 -18.8989 -18.7637 -18.6868
   -18.5981 -18.5881 -18.5265 -18.4728 -18.0244 -17.9730 -17.9558 -17.8927
   -17.8870 -17.7441 -17.6123  -8.8881  -8.4859  -7.4726  -7.4254  -6.8625
    -6.6714  -6.5945  -6.5021  -6.4155  -6.2770  -6.1754  -6.0548  -6.0365
    -5.9307  -5.8433  -5.7281  -5.7019  -5.5255  -5.4928  -5.4671  -5.4059
    -5.0767  -5.0347  -4.9431  -4.8242  -4.6348  -4.5254  -4.4650  -4.2966
    -4.2267  -4.1792  -4.0966  -4.0039  -3.9014  -3.8490  -3.8405  -3.8120
    -3.7764  -3.6509  -3.6249  -3.4842  -3.4555  -3.3896  -3.2323  -3.1669
    -3.1013  -3.0321  -2.9459  -2.9108  -2.7618  -2.7197  -2.6745  -2.5509
    -2.4625  -2.4486  -2.3373  -2.0252   0.0762   0.6758   0.6964   0.9430
     1.0466   1.3124   1.6736   1.7650   1.8170   1.9957   2.0785   2.1465
     2.2938   2.3727   2.4480   2.6079   2.7060   2.7430   2.7802   2.8682
     2.9533   3.0417   3.0720   3.0990   3.2812   3.6906   4.2373   4.3262
     4.5977   4.7316   4.9817   5.1537   5.2438   5.2887   5.4020   5.4603
     5.4949   5.7157   5.7861   5.8397   5.8550   5.9676   6.0668   6.1605
     6.4436   6.4656   6.4993   6.6751   6.7101   6.8513   6.8762   7.0265
     7.1556   7.2627   7.3367   7.3761   7.5143   7.6519   7.8584   7.9576
     8.0113   8.0625   8.2120   8.2986   8.4096   8.5240   8.6171   8.7207
     8.8316   8.9180   8.9945   9.1586   9.1964   9.2990   9.3468   9.4944
     9.5740   9.6542   9.8044   9.8256  10.0002  10.0534  10.0901  10.2265
    10.3300  10.3962  10.5216  10.7129  10.7902  10.8984  10.9573  11.0352
    11.0794  11.1438  11.2261  11.3081  11.3648  11.5153  11.5407  11.5684
    11.6028  11.7120  11.8545  11.8780  12.0018  12.0754  12.1889  12.2666
    12.4103  12.4575  12.5196  12.5601  12.6406  12.6768  12.7770  12.8380
    12.8959  12.9420  12.9943  13.0417  13.1148  13.2053  13.2776  13.3841
    13.4501  13.5084  13.5724  13.6139  13.6844  13.7783  13.8354  13.9263
    13.9625  14.0291  14.0544  14.1434  14.2534  14.2842  14.3435  14.4349
    14.5599  14.7154  14.7460  14.7863  14.8621  14.9018  15.0160  15.0858
    15.1886  15.2444  15.2915  15.3854  15.4105  15.4366  15.5286  15.6120
    15.6558  15.7638  15.8224  15.8868  15.9098  15.9493  16.0579  16.1224
    16.1875  16.2393  16.2790  16.3566  16.4759  16.5869  16.6269  16.6663
    16.7488  16.7986  16.8590  16.9654  17.0272  17.0582  17.1375  17.1765
    17.2555  17.2936  17.3179  17.4100  17.4663  17.5328  17.6257  17.7146
    17.7838  17.8584  17.9412  17.9976  18.0539  18.1282  18.1484  18.2178
    18.3248  18.4032  18.4913  18.5405  18.5845  18.6430  18.7463  18.8164
    18.8617  18.9757  19.0008  19.0942  19.1045  19.1855  19.2322  19.2845
    19.3271  19.3897  19.4474  19.5535  19.5993  19.6637  19.6943  19.7525
    19.7990  19.8656  19.9118  19.9880  20.0322  20.0633

     the Fermi energy is     1.0357 ev

!    total energy              =   -1563.71989411 Ry
     Harris-Foulkes estimate   =   -1563.71989455 Ry
     estimated scf accuracy    <       0.00000046 Ry

     The total energy is the sum of the following terms:

     one-electron contribution =  -19071.44331752 Ry
     hartree contribution      =    9565.52877234 Ry
     xc contribution           =    -287.63701213 Ry
     ewald contribution        =    8229.83313476 Ry
     Hubbard energy            =       0.00000000 Ry
     smearing contrib. (-TS)   =      -0.00147156 Ry

     convergence has been achieved in  25 iterations

     Forces acting on atoms (Ry/au):


     negative rho (up, down):  0.344E-02 0.000E+00
     atom    1 type  1   force =     0.00132293   -0.00003812   -0.00010502
     atom    2 type  1   force =    -0.00120040    0.00024354   -0.00070060
     atom    3 type  2   force =    -0.03488699   -0.00025349    0.00024773
     atom    4 type  2   force =    -0.00457579    0.00006537    0.00007819
     atom    5 type  1   force =    -0.00360674   -0.01590176    0.00006694
     atom    6 type  1   force =    -0.00361928    0.01585739    0.00006819
     atom    7 type  1   force =    -0.00109349    0.00007194    0.00042473
     atom    8 type  1   force =     0.00162128    0.00000443   -0.00056411
     atom    9 type  2   force =     0.00106272    0.00002553    0.00026635
     atom   10 type  2   force =    -0.00123187   -0.00000642    0.00043271
     atom   11 type  1   force =    -0.01580471   -0.01774133    0.00025526
     atom   12 type  1   force =    -0.01579782    0.01772226    0.00024655
     atom   13 type  1   force =     0.00172755   -0.00001066    0.00008248
     atom   14 type  1   force =     0.00053800   -0.00003779    0.00024394
     atom   15 type  1   force =    -0.00106229    0.00013582   -0.00083767
     atom   16 type  2   force =     0.03854328   -0.00024437    0.00037315
     atom   17 type  2   force =    -0.00374299    0.00007487    0.00014214
     atom   18 type  1   force =     0.00487526   -0.01559694    0.00008123
     atom   19 type  1   force =     0.00469773    0.01554945    0.00003279
     atom   20 type  1   force =    -0.00399839    0.00009450    0.00051668
     atom   21 type  1   force =     0.00162571    0.00000286   -0.00005182
     atom   22 type  2   force =    -0.00220142    0.00001658   -0.00003884
     atom   23 type  2   force =     0.00459959   -0.00000113    0.00013007
     atom   24 type  1   force =     0.01563113   -0.01830683   -0.00053322
     atom   25 type  1   force =     0.01562755    0.01829847   -0.00057538
     atom   26 type  1   force =    -0.00041605   -0.00000961   -0.00002876
     atom   27 type  3   force =    -0.00000168   -0.00001033   -0.00055523
     atom   28 type  3   force =    -0.00000954    0.00001406   -0.00005987
     atom   29 type  3   force =     0.00009214   -0.00000917    0.00007296
     atom   30 type  3   force =    -0.00002448   -0.00001615    0.00005638
     atom   31 type  1   force =     0.00049049    0.00000404   -0.00030830
     atom   32 type  3   force =     0.00081855    0.00000298    0.00054037

     Total force =     0.002220     Total SCF correction =     0.003328
     SCF correction compared to forces is large: reduce conv_thr to get better values

     BFGS Geometry Optimization

     bfgs converged in   1 scf cycles and   0 bfgs steps
     (criteria: energy < 0.10E-03, force < 0.10E-02)

     End of BFGS Geometry Optimization

     Final energy   =   -1563.7198941053 Ry
Begin final coordinates

ATOMIC_POSITIONS (crystal)
O0       0.000000000   0.000000000   0.372110000    0   0   1
O0       0.000000000   0.500000000   0.389140000    0   0   1
Nb1      0.250000000   0.500000000   0.444670000    0   0   1
Nb1      0.000000000   0.000000000   0.444780000    0   0   1
O0       0.250000000   0.790000000   0.447150000    0   0   1
O0       0.250000000   0.210000000   0.447150000    0   0   1
O0       0.000000000   0.500000000   0.500210000    0   0   1
O0       0.000000000   0.000000000   0.523450000    0   0   1
Nb1      0.250000000   0.000000000   0.577420000    0   0   1
Nb1      0.000000000   0.500000000   0.569440000    0   0   1
O0       0.250000000   0.710000000   0.575900000    0   0   1
O0       0.250000000   0.290000000   0.575900000    0   0   1
O0       0.000000000   0.000000000   0.622120000    0   0   1
O0       0.500000000   0.000000000   0.372430000    0   0   1
O0       0.500000000   0.500000000   0.390760000    0   0   1
Nb1      0.750000000   0.500000000   0.444700000    0   0   1
Nb1      0.500000000   0.000000000   0.445340000    0   0   1
O0       0.750000000   0.790000000   0.447150000    0   0   1
O0       0.750000000   0.210000000   0.447160000    0   0   1
O0       0.500000000   0.500000000   0.498960000    0   0   1
O0       0.500000000   0.000000000   0.523470000    0   0   1
Nb1      0.750000000   0.000000000   0.577550000    0   0   1
Nb1      0.500000000   0.500000000   0.577560000    0   0   1
O0       0.750000000   0.710000000   0.575950000    0   0   1
O0       0.750000000   0.290000000   0.575960000    0   0   1
O0       0.500000000   0.000000000   0.622010000    0   0   1
H2      -0.000480000   0.501830000   0.352850000
H2       0.499530000   0.501840000   0.354540000
H2       0.150580000   0.000510000   0.356250000
H2       0.650540000   0.000510000   0.356570000
O0       0.502420000   0.500000000   0.649000000
H2       0.397680000   0.500050000   0.676860000
End final coordinates



     init_run     :    103.52s CPU    106.65s WALL (       1 calls)
     electrons    :   4604.25s CPU   4732.20s WALL (       1 calls)
     forces       :    127.91s CPU    129.95s WALL (       1 calls)

     Called by init_run:
     wfcinit      :     34.82s CPU     36.20s WALL (       1 calls)
     potinit      :      7.34s CPU      7.47s WALL (       1 calls)

     Called by electrons:
     c_bands      :   2501.86s CPU   2584.07s WALL (      25 calls)
     sum_band     :    878.74s CPU    895.06s WALL (      25 calls)
     v_of_rho     :     27.40s CPU     29.55s WALL (      26 calls)
     newd         :   1220.56s CPU   1225.21s WALL (      26 calls)
     mix_rho      :      5.18s CPU      5.29s WALL (      25 calls)

     Called by c_bands:
     init_us_2    :      6.31s CPU      6.40s WALL (     162 calls)
     cegterg      :   2467.99s CPU   2540.71s WALL (      75 calls)

     Called by *egterg:
     h_psi        :   1344.40s CPU   1388.78s WALL (     327 calls)
     s_psi        :    144.11s CPU    146.32s WALL (     333 calls)
     g_psi        :      3.15s CPU      3.16s WALL (     249 calls)
     cdiaghg      :    342.72s CPU    343.45s WALL (     324 calls)

     Called by h_psi:
     add_vuspsi   :    140.70s CPU    143.32s WALL (     327 calls)
     vhpsi        :    151.17s CPU    153.36s WALL (     327 calls)

     General routines
     calbec       :    332.20s CPU    335.89s WALL (    1680 calls)
     fft          :     29.58s CPU     33.52s WALL (     423 calls)
     ffts         :      0.46s CPU      0.49s WALL (      51 calls)
     fftw         :    765.89s CPU    808.91s WALL (  137168 calls)
     interpolate  :      3.99s CPU      4.05s WALL (      51 calls)
     davcio       :      0.02s CPU      2.64s WALL (     165 calls)

     Parallel routines
     fft_scatter  :    277.52s CPU    322.73s WALL (  137642 calls)
     Hubbard U routines
     new_ns       :     31.39s CPU     33.00s WALL (      25 calls)
     vhpsi        :    151.17s CPU    153.36s WALL (     327 calls)
     force_hub    :     36.29s CPU     36.55s WALL (       1 calls)

     PWSCF        :     1h20m CPU        1h22m WALL


   This run was terminated on:   9:54:22  10May2014            

=------------------------------------------------------------------------------=
   JOB DONE.
=------------------------------------------------------------------------------=
