
     Program PWSCF v.5.0.2 (svn rev. 9656) starts on 28Apr2014 at  2:23:30 

     This program is part of the open-source Quantum ESPRESSO suite
     for quantum simulation of materials; please cite
         "P. Giannozzi et al., J. Phys.:Condens. Matter 21 395502 (2009);
          URL http://www.quantum-espresso.org", 
     in publications or presentations arising from this work. More details at
     http://www.quantum-espresso.org/quote.php

     Parallel version (MPI), running on    16 processors
     K-points division:     npool     =       4
     R & G space division:  proc/nbgrp/npool/nimage =       4

     Current dimensions of program PWSCF are:
     Max number of different atomic species (ntypx) = 10
     Max number of k-points (npk) =  40000
     Max angular momentum in pseudopotentials (lmaxx) =  3
     Reading input from pwscf.in
Warning: card &CELL ignored
Warning: card / ignored

     Subspace diagonalization in iterative solution of the eigenvalue problem:
     a serial algorithm will be used


     Parallelization info
     --------------------
     sticks:   dense  smooth     PW     G-vecs:    dense   smooth      PW
     Min        1491     475    132               353925    64028    9441
     Max        1492     476    134               353934    64061    9444
     Sum        5965    1901    531              1415713   256153   37769



     bravais-lattice index     =            0
     lattice parameter (alat)  =      12.2076  a.u.
     unit-cell volume          =    7496.5096 (a.u.)^3
     number of atoms/cell      =           31
     number of atomic types    =            3
     number of electrons       =       246.00
     number of Kohn-Sham states=          369
     kinetic-energy cutoff     =      40.0000  Ry
     charge density cutoff     =     500.0000  Ry
     convergence threshold     =      1.0E-06
     mixing beta               =       0.7000
     number of iterations used =            8  plain     mixing
     Exchange-correlation      = SLA  PW   PBE  PBE ( 1 4 3 4 0)
     EXX-fraction              =        0.00
     nstep                     =           50


     celldm(1)=  12.207631  celldm(2)=   0.000000  celldm(3)=   0.000000
     celldm(4)=   0.000000  celldm(5)=   0.000000  celldm(6)=   0.000000

     crystal axes: (cart. coord. in units of alat)
               a(1) = (   1.000000   0.000000   0.000000 )  
               a(2) = (   0.000000   1.004836   0.000000 )  
               a(3) = (   0.000000   0.000000   4.100811 )  

     reciprocal axes: (cart. coord. in units 2 pi/alat)
               b(1) = (  1.000000  0.000000  0.000000 )  
               b(2) = (  0.000000  0.995187  0.000000 )  
               b(3) = (  0.000000  0.000000  0.243854 )  


     PseudoPot. # 1 for O  read from file:
     /home/camp/zhonxu/pseudo/o_pbe_v1.01.uspp.F.UPF
     MD5 check sum: 2bcb18d16ea4b960afae9ec6d52f22d2
     Pseudo is Ultrasoft + core correction, Zval =  6.0
     Generated by new atomic code, or converted to UPF format
     Using radial grid of  737 points,  5 beta functions with: 
                l(1) =   0
                l(2) =   0
                l(3) =   1
                l(4) =   1
                l(5) =   2
     Q(r) pseudized with  8 coefficients,  rinner =    0.900   0.900   0.900
                                                       0.900   0.900

     PseudoPot. # 2 for Pt read from file:
     /home/camp/zhonxu/pseudo/pt_pbe_v1.uspp.F.UPF
     MD5 check sum: 4c71d6ad5ef119f1eb26a4d0b7884226
     Pseudo is Ultrasoft + core correction, Zval = 16.0
     Generated by new atomic code, or converted to UPF format
     Using radial grid of  985 points,  6 beta functions with: 
                l(1) =   0
                l(2) =   0
                l(3) =   1
                l(4) =   1
                l(5) =   2
                l(6) =   2
     Q(r) pseudized with  8 coefficients,  rinner =    1.300   1.300   1.300
                                                       1.300   1.300

     PseudoPot. # 3 for H  read from file:
     /home/camp/zhonxu/pseudo/h_pbe_v1.uspp.F.UPF
     MD5 check sum: 3408e3ff4ec8b0a4e358431e7e038a48
     Pseudo is Ultrasoft, Zval =  1.0
     Generated by new atomic code, or converted to UPF format
     Using radial grid of  615 points,  2 beta functions with: 
                l(1) =   0
                l(2) =   0
     Q(r) pseudized with  8 coefficients,  rinner =    0.700

     atomic species   valence    mass     pseudopotential
        O0             6.00    15.99940     O ( 1.00)
        Pt1           16.00   195.08000     Pt( 1.00)
        H2             1.00     1.00794     H ( 1.00)


     Simplified LDA+U calculation (l_max = 2) with parameters (eV):
     atomic species    L          U    alpha       J0     beta
        Pt1            2     3.5000   0.0000   0.0000   0.0000



     No symmetry found



   Cartesian axes

     site n.     atom                  positions (alat units)
         1           O0  tau(   1) = (   0.0000000   0.0000000   1.5489174  )
         2           O0  tau(   2) = (   0.0000000   0.5024180   1.6470088  )
         3           Pt1 tau(   3) = (   0.2500000   0.5024180   1.8504500  )
         4           Pt1 tau(   4) = (   0.0000000   0.0000000   1.8564782  )
         5           O0  tau(   5) = (   0.2500000   0.8139171   1.8182587  )
         6           O0  tau(   6) = (   0.2500000   0.1909188   1.8867012  )
         7           O0  tau(   7) = (   0.0000000   0.5024180   2.0373240  )
         8           O0  tau(   8) = (   0.0000000   0.0000000   2.1721997  )
         9           Pt1 tau(   9) = (   0.2500000   0.0000000   2.3623543  )
        10           Pt1 tau(  10) = (   0.0000000   0.5024180   2.3594017  )
        11           O0  tau(  11) = (   0.2500000   0.6933368   2.3215512  )
        12           O0  tau(  12) = (   0.2500000   0.3114991   2.4021322  )
        13           O0  tau(  13) = (   0.0000000   0.0000000   2.5481621  )
        14           O0  tau(  14) = (   0.5000000   0.0000000   1.5492455  )
        15           O0  tau(  15) = (   0.5000000   0.5024180   1.6439332  )
        16           Pt1 tau(  16) = (   0.7500000   0.5024180   1.8504910  )
        17           Pt1 tau(  17) = (   0.5000000   0.0000000   1.8565192  )
        18           O0  tau(  18) = (   0.7500000   0.8139171   1.8184227  )
        19           O0  tau(  19) = (   0.7500000   0.1909188   1.8866602  )
        20           O0  tau(  20) = (   0.5000000   0.5024180   2.0431061  )
        21           O0  tau(  21) = (   0.5000000   0.0000000   2.1716256  )
        22           Pt1 tau(  22) = (   0.7500000   0.0000000   2.3623953  )
        23           Pt1 tau(  23) = (   0.5000000   0.5024180   2.3697358  )
        24           O0  tau(  24) = (   0.7500000   0.6933368   2.3215102  )
        25           O0  tau(  25) = (   0.7500000   0.3114991   2.4021732  )
        26           O0  tau(  26) = (   0.5000000   0.0000000   2.5480390  )
        27           H2  tau(  27) = (   0.0001100   0.6425926   1.5814778  )
        28           H2  tau(  28) = (   0.5001800   0.6431151   1.5801656  )
        29           H2  tau(  29) = (   0.1426600   0.0364956   1.5073762  )
        30           H2  tau(  30) = (   0.6419200   0.0388771   1.5073762  )
        31           O0  tau(  31) = (   0.5000900   0.5753691   2.6428088  )

     number of k points=    10  Methfessel-Paxton smearing, width (Ry)=  0.0100
                       cart. coord. in units 2pi/alat
        k(    1) = (   0.0000000   0.0000000   0.0000000), wk =   0.1250000
        k(    2) = (   0.0000000   0.2487968   0.0000000), wk =   0.2500000
        k(    3) = (   0.0000000  -0.4975937   0.0000000), wk =   0.1250000
        k(    4) = (   0.2500000   0.0000000   0.0000000), wk =   0.2500000
        k(    5) = (   0.2500000   0.2487968   0.0000000), wk =   0.2500000
        k(    6) = (   0.2500000  -0.4975937   0.0000000), wk =   0.2500000
        k(    7) = (  -0.5000000   0.0000000   0.0000000), wk =   0.1250000
        k(    8) = (  -0.5000000   0.2487968   0.0000000), wk =   0.2500000
        k(    9) = (  -0.5000000  -0.4975937   0.0000000), wk =   0.1250000
        k(   10) = (  -0.2500000   0.2487968   0.0000000), wk =   0.2500000

     Dense  grid:  1415713 G-vectors     FFT dimensions: (  90,  90, 360)

     Smooth grid:   256153 G-vectors     FFT dimensions: (  50,  50, 216)

     Largest allocated arrays     est. size (Mb)     dimensions
        Kohn-Sham Wavefunctions        45.60 Mb     (   8098,  369)
        Atomic wavefunctions           21.75 Mb     (   8098,  176)
        NL pseudopotentials            49.30 Mb     (   8098,  399)
        Each V/rho on FFT grid         11.12 Mb     ( 729000)
        Each G-vector array             2.70 Mb     ( 353934)
        G-vector shells                 1.17 Mb     ( 153301)
     Largest temporary arrays     est. size (Mb)     dimensions
        Auxiliary wavefunctions       182.38 Mb     (   8098, 1476)
        Each subspace H/S matrix       33.24 Mb     (1476,1476)
        Each <psi_i|beta_j> matrix      2.25 Mb     (    399,  369)
        Arrays for rho mixing          88.99 Mb     ( 729000,   8)

     Check: negative/imaginary core charge=   -0.000003    0.000000

     Initial potential from superposition of free atoms
     Check: negative starting charge=   -1.533958

     starting charge  241.99985, renormalised to  246.00000

     negative rho (up, down):  0.156E+01 0.000E+00
     Number of +U iterations with fixed ns =  0
     Starting occupations:
 --- enter write_ns ---
 LDA+U parameters:
U( 2)     =  3.50000000
alpha( 2) =  0.00000000
atom    3   Tr[ns(na)] =   8.00000
    eigenvalues: 
  0.800  0.800  0.800  0.800  0.800
    eigenvectors:
  1.000  0.000  0.000  0.000  0.000
  0.000  1.000  0.000  0.000  0.000
  0.000  0.000  1.000  0.000  0.000
  0.000  0.000  0.000  1.000  0.000
  0.000  0.000  0.000  0.000  1.000
    occupations:
  0.800  0.000  0.000  0.000  0.000
  0.000  0.800  0.000  0.000  0.000
  0.000  0.000  0.800  0.000  0.000
  0.000  0.000  0.000  0.800  0.000
  0.000  0.000  0.000  0.000  0.800
atom    4   Tr[ns(na)] =   8.00000
    eigenvalues: 
  0.800  0.800  0.800  0.800  0.800
    eigenvectors:
  1.000  0.000  0.000  0.000  0.000
  0.000  1.000  0.000  0.000  0.000
  0.000  0.000  1.000  0.000  0.000
  0.000  0.000  0.000  1.000  0.000
  0.000  0.000  0.000  0.000  1.000
    occupations:
  0.800  0.000  0.000  0.000  0.000
  0.000  0.800  0.000  0.000  0.000
  0.000  0.000  0.800  0.000  0.000
  0.000  0.000  0.000  0.800  0.000
  0.000  0.000  0.000  0.000  0.800
atom    9   Tr[ns(na)] =   8.00000
    eigenvalues: 
  0.800  0.800  0.800  0.800  0.800
    eigenvectors:
  1.000  0.000  0.000  0.000  0.000
  0.000  1.000  0.000  0.000  0.000
  0.000  0.000  1.000  0.000  0.000
  0.000  0.000  0.000  1.000  0.000
  0.000  0.000  0.000  0.000  1.000
    occupations:
  0.800  0.000  0.000  0.000  0.000
  0.000  0.800  0.000  0.000  0.000
  0.000  0.000  0.800  0.000  0.000
  0.000  0.000  0.000  0.800  0.000
  0.000  0.000  0.000  0.000  0.800
atom   10   Tr[ns(na)] =   8.00000
    eigenvalues: 
  0.800  0.800  0.800  0.800  0.800
    eigenvectors:
  1.000  0.000  0.000  0.000  0.000
  0.000  1.000  0.000  0.000  0.000
  0.000  0.000  1.000  0.000  0.000
  0.000  0.000  0.000  1.000  0.000
  0.000  0.000  0.000  0.000  1.000
    occupations:
  0.800  0.000  0.000  0.000  0.000
  0.000  0.800  0.000  0.000  0.000
  0.000  0.000  0.800  0.000  0.000
  0.000  0.000  0.000  0.800  0.000
  0.000  0.000  0.000  0.000  0.800
atom   16   Tr[ns(na)] =   8.00000
    eigenvalues: 
  0.800  0.800  0.800  0.800  0.800
    eigenvectors:
  1.000  0.000  0.000  0.000  0.000
  0.000  1.000  0.000  0.000  0.000
  0.000  0.000  1.000  0.000  0.000
  0.000  0.000  0.000  1.000  0.000
  0.000  0.000  0.000  0.000  1.000
    occupations:
  0.800  0.000  0.000  0.000  0.000
  0.000  0.800  0.000  0.000  0.000
  0.000  0.000  0.800  0.000  0.000
  0.000  0.000  0.000  0.800  0.000
  0.000  0.000  0.000  0.000  0.800
atom   17   Tr[ns(na)] =   8.00000
    eigenvalues: 
  0.800  0.800  0.800  0.800  0.800
    eigenvectors:
  1.000  0.000  0.000  0.000  0.000
  0.000  1.000  0.000  0.000  0.000
  0.000  0.000  1.000  0.000  0.000
  0.000  0.000  0.000  1.000  0.000
  0.000  0.000  0.000  0.000  1.000
    occupations:
  0.800  0.000  0.000  0.000  0.000
  0.000  0.800  0.000  0.000  0.000
  0.000  0.000  0.800  0.000  0.000
  0.000  0.000  0.000  0.800  0.000
  0.000  0.000  0.000  0.000  0.800
atom   22   Tr[ns(na)] =   8.00000
    eigenvalues: 
  0.800  0.800  0.800  0.800  0.800
    eigenvectors:
  1.000  0.000  0.000  0.000  0.000
  0.000  1.000  0.000  0.000  0.000
  0.000  0.000  1.000  0.000  0.000
  0.000  0.000  0.000  1.000  0.000
  0.000  0.000  0.000  0.000  1.000
    occupations:
  0.800  0.000  0.000  0.000  0.000
  0.000  0.800  0.000  0.000  0.000
  0.000  0.000  0.800  0.000  0.000
  0.000  0.000  0.000  0.800  0.000
  0.000  0.000  0.000  0.000  0.800
atom   23   Tr[ns(na)] =   8.00000
    eigenvalues: 
  0.800  0.800  0.800  0.800  0.800
    eigenvectors:
  1.000  0.000  0.000  0.000  0.000
  0.000  1.000  0.000  0.000  0.000
  0.000  0.000  1.000  0.000  0.000
  0.000  0.000  0.000  1.000  0.000
  0.000  0.000  0.000  0.000  1.000
    occupations:
  0.800  0.000  0.000  0.000  0.000
  0.000  0.800  0.000  0.000  0.000
  0.000  0.000  0.800  0.000  0.000
  0.000  0.000  0.000  0.800  0.000
  0.000  0.000  0.000  0.000  0.800
N of occupied +U levels =  64.0000000
 --- exit write_ns ---
 Atomic wfc used for LDA+U Projector are NOT orthogonalized
     Starting wfc are  176 randomized atomic wfcs

     total cpu time spent up to now is      115.5 secs

     per-process dynamical memory:   437.9 Mb

     Self-consistent Calculation

     iteration #  1     ecut=    40.00 Ry     beta=0.70
     Davidson diagonalization with overlap
     ethr =  1.00E-02,  avg # of iterations =  5.2
 --- enter write_ns ---
 LDA+U parameters:
U( 2)     =  3.50000000
alpha( 2) =  0.00000000
atom    3   Tr[ns(na)] =   7.19412
    eigenvalues: 
  0.434  0.474  0.789  0.941  0.960
    eigenvectors:
  0.002  0.146  0.042  0.798  0.012
  0.989  0.011  0.000  0.000  0.000
  0.000  0.023  0.952  0.024  0.002
  0.009  0.820  0.006  0.163  0.003
  0.000  0.000  0.000  0.016  0.983
    occupations:
  0.865  0.004 -0.003 -0.166 -0.002
  0.004  0.434  0.000  0.003 -0.006
 -0.003  0.000  0.786  0.053  0.004
 -0.166  0.003  0.053  0.552  0.001
 -0.002 -0.006  0.004  0.001  0.959
atom    4   Tr[ns(na)] =   7.09749
    eigenvalues: 
  0.451  0.474  0.808  0.855  0.960
    eigenvectors:
  0.000  0.974  0.008  0.001  0.017
  0.032  0.000  0.094  0.873  0.000
  0.000  0.011  0.887  0.096  0.006
  0.000  0.014  0.007  0.001  0.977
  0.968  0.000  0.003  0.029  0.000
    occupations:
  0.485 -0.003 -0.037  0.059 -0.001
 -0.003  0.838  0.014  0.001  0.071
 -0.037  0.014  0.809 -0.007  0.002
  0.059  0.001 -0.007  0.952  0.000
 -0.001  0.071  0.002  0.000  0.464
atom    9   Tr[ns(na)] =   7.72322
    eigenvalues: 
  0.469  0.489  0.960  0.971  0.973
    eigenvectors:
  0.000  0.131  0.118  0.096  0.655
  1.000  0.000  0.000  0.000  0.000
  0.000  0.019  0.803  0.005  0.173
  0.000  0.850  0.072  0.013  0.065
  0.000  0.000  0.007  0.886  0.107
    occupations:
  0.908 -0.000 -0.028 -0.161  0.001
 -0.000  0.469  0.000 -0.000 -0.001
 -0.028  0.000  0.953 -0.058 -0.001
 -0.161 -0.000 -0.058  0.561  0.001
  0.001 -0.001 -0.001  0.001  0.971
atom   10   Tr[ns(na)] =   8.36143
    eigenvalues: 
  0.456  0.789  0.970  0.981  0.984
    eigenvectors:
  0.000  0.938  0.049  0.012  0.000
  0.035  0.000  0.000  0.000  0.965
  0.000  0.005  0.461  0.534  0.000
  0.000  0.056  0.489  0.454  0.000
  0.965  0.000  0.000  0.000  0.035
    occupations:
  0.801  0.000  0.012  0.042  0.000
  0.000  0.966  0.000 -0.000 -0.097
  0.012  0.000  0.975 -0.008  0.000
  0.042 -0.000 -0.008  0.965 -0.000
  0.000 -0.097  0.000 -0.000  0.475
atom   16   Tr[ns(na)] =   7.19354
    eigenvalues: 
  0.434  0.473  0.789  0.941  0.960
    eigenvectors:
  0.002  0.146  0.042  0.795  0.015
  0.989  0.011  0.000  0.000  0.000
  0.000  0.023  0.953  0.024  0.000
  0.009  0.820  0.006  0.162  0.003
  0.000  0.000  0.000  0.018  0.982
    occupations:
  0.866 -0.004 -0.003 -0.167  0.002
 -0.004  0.434  0.000 -0.003 -0.006
 -0.003  0.000  0.786  0.053 -0.000
 -0.167 -0.003  0.053  0.552 -0.001
  0.002 -0.006 -0.000 -0.001  0.959
atom   17   Tr[ns(na)] =   7.08795
    eigenvalues: 
  0.451  0.475  0.809  0.849  0.959
    eigenvectors:
  0.000  0.974  0.007  0.002  0.017
  0.033  0.000  0.172  0.795  0.000
  0.000  0.012  0.808  0.174  0.006
  0.000  0.014  0.007  0.002  0.977
  0.967  0.000  0.006  0.027  0.000
    occupations:
  0.486 -0.003 -0.038  0.058 -0.001
 -0.003  0.829  0.015  0.001  0.069
 -0.038  0.015  0.813 -0.007  0.002
  0.058  0.001 -0.007  0.951  0.000
 -0.001  0.069  0.002  0.000  0.464
atom   22   Tr[ns(na)] =   7.72335
    eigenvalues: 
  0.469  0.489  0.960  0.971  0.973
    eigenvectors:
  0.000  0.131  0.123  0.009  0.737
  0.999  0.001  0.000  0.000  0.000
  0.000  0.019  0.799  0.001  0.181
  0.001  0.849  0.073  0.002  0.075
  0.000  0.000  0.005  0.988  0.007
    occupations:
  0.908  0.001 -0.028 -0.160 -0.000
  0.001  0.469  0.001  0.000 -0.001
 -0.028  0.001  0.953 -0.058  0.001
 -0.160  0.000 -0.058  0.561 -0.001
 -0.000 -0.001  0.001 -0.001  0.971
atom   23   Tr[ns(na)] =   7.70208
    eigenvalues: 
  0.451  0.511  0.948  0.969  0.972
    eigenvectors:
  0.000  0.905  0.076  0.000  0.018
  0.031  0.000  0.000  0.969  0.000
  0.000  0.075  0.924  0.000  0.001
  0.000  0.020  0.000  0.000  0.980
  0.969  0.000  0.000  0.031  0.000
    occupations:
  0.553  0.000  0.114  0.062 -0.000
  0.000  0.953  0.000 -0.000 -0.090
  0.114  0.000  0.916 -0.018  0.000
  0.062 -0.000 -0.018  0.963 -0.000
 -0.000 -0.090  0.000 -0.000  0.467
N of occupied +U levels =  60.0831724
 --- exit write_ns ---

     negative rho (up, down):  0.151E+01 0.000E+00

     total cpu time spent up to now is      476.5 secs

     total energy              =   -2263.06928438 Ry
     Harris-Foulkes estimate   =   -2285.17669674 Ry
     estimated scf accuracy    <      27.02673719 Ry

     iteration #  2     ecut=    40.00 Ry     beta=0.70
     Davidson diagonalization with overlap
     ethr =  1.00E-02,  avg # of iterations =  5.0

     negative rho (up, down):  0.126E+01 0.000E+00

     total cpu time spent up to now is      803.7 secs

     total energy              =   -2194.42875084 Ry
     Harris-Foulkes estimate   =   -2351.79210654 Ry
     estimated scf accuracy    <    1334.43787553 Ry

     iteration #  3     ecut=    40.00 Ry     beta=0.70
     Davidson diagonalization with overlap
     ethr =  1.00E-02,  avg # of iterations =  5.0

     negative rho (up, down):  0.688E+00 0.000E+00

     total cpu time spent up to now is     1143.4 secs

     total energy              =   -2242.40936575 Ry
     Harris-Foulkes estimate   =   -2310.35376135 Ry
     estimated scf accuracy    <     627.23635669 Ry

     iteration #  4     ecut=    40.00 Ry     beta=0.70
     Davidson diagonalization with overlap
     ethr =  1.00E-02,  avg # of iterations =  3.9

     negative rho (up, down):  0.807E+00 0.000E+00

     total cpu time spent up to now is     1366.5 secs

     total energy              =   -2277.35961601 Ry
     Harris-Foulkes estimate   =   -2281.74499013 Ry
     estimated scf accuracy    <      14.65128327 Ry

     iteration #  5     ecut=    40.00 Ry     beta=0.70
     Davidson diagonalization with overlap
     ethr =  5.96E-03,  avg # of iterations =  1.6

     negative rho (up, down):  0.952E+00 0.000E+00

     total cpu time spent up to now is     1543.4 secs

     total energy              =   -2279.07380629 Ry
     Harris-Foulkes estimate   =   -2281.39832928 Ry
     estimated scf accuracy    <      15.80171224 Ry

     iteration #  6     ecut=    40.00 Ry     beta=0.70
     Davidson diagonalization with overlap
     ethr =  5.96E-03,  avg # of iterations =  1.1

     negative rho (up, down):  0.104E+01 0.000E+00

     total cpu time spent up to now is     1726.8 secs

     total energy              =   -2279.66888656 Ry
     Harris-Foulkes estimate   =   -2280.73650934 Ry
     estimated scf accuracy    <       4.64504653 Ry

     iteration #  7     ecut=    40.00 Ry     beta=0.70
     Davidson diagonalization with overlap
     ethr =  1.89E-03,  avg # of iterations =  2.4

     negative rho (up, down):  0.107E+01 0.000E+00

     total cpu time spent up to now is     1912.3 secs

     total energy              =   -2279.88117123 Ry
     Harris-Foulkes estimate   =   -2280.22075059 Ry
     estimated scf accuracy    <       2.36706537 Ry

     iteration #  8     ecut=    40.00 Ry     beta=0.70
     Davidson diagonalization with overlap
     ethr =  9.62E-04,  avg # of iterations =  3.1

     negative rho (up, down):  0.111E+01 0.000E+00

     total cpu time spent up to now is     2108.7 secs

     total energy              =   -2279.87958162 Ry
     Harris-Foulkes estimate   =   -2280.16554478 Ry
     estimated scf accuracy    <       3.54816262 Ry

     iteration #  9     ecut=    40.00 Ry     beta=0.70
     Davidson diagonalization with overlap
     ethr =  9.62E-04,  avg # of iterations =  1.3

     negative rho (up, down):  0.118E+01 0.000E+00

     total cpu time spent up to now is     2288.8 secs

     total energy              =   -2279.81330317 Ry
     Harris-Foulkes estimate   =   -2280.12989587 Ry
     estimated scf accuracy    <       2.66508510 Ry

     iteration # 10     ecut=    40.00 Ry     beta=0.70
     Davidson diagonalization with overlap
     ethr =  9.62E-04,  avg # of iterations =  1.0

     negative rho (up, down):  0.131E+01 0.000E+00

     total cpu time spent up to now is     2463.9 secs

     total energy              =   -2279.83184472 Ry
     Harris-Foulkes estimate   =   -2280.00370575 Ry
     estimated scf accuracy    <       0.78514180 Ry

     iteration # 11     ecut=    40.00 Ry     beta=0.70
     Davidson diagonalization with overlap
     ethr =  3.19E-04,  avg # of iterations =  8.6

     negative rho (up, down):  0.148E+01 0.000E+00

     total cpu time spent up to now is     2721.0 secs

     total energy              =   -2279.79381793 Ry
     Harris-Foulkes estimate   =   -2279.92456663 Ry
     estimated scf accuracy    <       0.49624782 Ry

     iteration # 12     ecut=    40.00 Ry     beta=0.70
     Davidson diagonalization with overlap
     ethr =  2.02E-04,  avg # of iterations =  4.0

     negative rho (up, down):  0.155E+01 0.000E+00

     total cpu time spent up to now is     2946.3 secs

     total energy              =   -2279.58309537 Ry
     Harris-Foulkes estimate   =   -2280.00635278 Ry
     estimated scf accuracy    <       2.36652354 Ry

     iteration # 13     ecut=    40.00 Ry     beta=0.70
     Davidson diagonalization with overlap
     ethr =  2.02E-04,  avg # of iterations =  5.0

     negative rho (up, down):  0.149E+01 0.000E+00

     total cpu time spent up to now is     3165.8 secs

     total energy              =   -2279.30515822 Ry
     Harris-Foulkes estimate   =   -2280.14720961 Ry
     estimated scf accuracy    <      13.17224272 Ry

     iteration # 14     ecut=    40.00 Ry     beta=0.70
     Davidson diagonalization with overlap
     ethr =  2.02E-04,  avg # of iterations =  4.5

     negative rho (up, down):  0.154E+01 0.000E+00

     total cpu time spent up to now is     3371.3 secs

     total energy              =   -2279.81078045 Ry
     Harris-Foulkes estimate   =   -2279.88578708 Ry
     estimated scf accuracy    <       0.26993323 Ry

     iteration # 15     ecut=    40.00 Ry     beta=0.70
     Davidson diagonalization with overlap
     ethr =  1.10E-04,  avg # of iterations =  2.1

     negative rho (up, down):  0.155E+01 0.000E+00

     total cpu time spent up to now is     3551.6 secs

     total energy              =   -2279.80543099 Ry
     Harris-Foulkes estimate   =   -2279.87022011 Ry
     estimated scf accuracy    <       0.35070769 Ry

     iteration # 16     ecut=    40.00 Ry     beta=0.70
     Davidson diagonalization with overlap
     ethr =  1.10E-04,  avg # of iterations =  1.2

     negative rho (up, down):  0.157E+01 0.000E+00

     total cpu time spent up to now is     3731.3 secs

     total energy              =   -2279.82423583 Ry
     Harris-Foulkes estimate   =   -2279.86325249 Ry
     estimated scf accuracy    <       0.54329760 Ry

     iteration # 17     ecut=    40.00 Ry     beta=0.70
     Davidson diagonalization with overlap
     ethr =  1.10E-04,  avg # of iterations =  1.0

     negative rho (up, down):  0.157E+01 0.000E+00

     total cpu time spent up to now is     3908.3 secs

     total energy              =   -2279.83934651 Ry
     Harris-Foulkes estimate   =   -2279.85075277 Ry
     estimated scf accuracy    <       0.08907141 Ry

     iteration # 18     ecut=    40.00 Ry     beta=0.70
     Davidson diagonalization with overlap
     ethr =  3.62E-05,  avg # of iterations =  1.0

     negative rho (up, down):  0.157E+01 0.000E+00

     total cpu time spent up to now is     4085.4 secs

     total energy              =   -2279.83595098 Ry
     Harris-Foulkes estimate   =   -2279.84733626 Ry
     estimated scf accuracy    <       0.08214729 Ry

     iteration # 19     ecut=    40.00 Ry     beta=0.70
     Davidson diagonalization with overlap
     ethr =  3.34E-05,  avg # of iterations =  1.0

     negative rho (up, down):  0.157E+01 0.000E+00

     total cpu time spent up to now is     4263.1 secs

     total energy              =   -2279.82426240 Ry
     Harris-Foulkes estimate   =   -2279.86762714 Ry
     estimated scf accuracy    <       0.54400164 Ry

     iteration # 20     ecut=    40.00 Ry     beta=0.70
     Davidson diagonalization with overlap
     ethr =  3.34E-05,  avg # of iterations =  1.1

     negative rho (up, down):  0.157E+01 0.000E+00

     total cpu time spent up to now is     4439.9 secs

     total energy              =   -2279.84209665 Ry
     Harris-Foulkes estimate   =   -2279.84494375 Ry
     estimated scf accuracy    <       0.02537990 Ry

     iteration # 21     ecut=    40.00 Ry     beta=0.70
     Davidson diagonalization with overlap
     ethr =  1.03E-05,  avg # of iterations =  2.2

     negative rho (up, down):  0.157E+01 0.000E+00

     total cpu time spent up to now is     4634.7 secs

     total energy              =   -2279.84318489 Ry
     Harris-Foulkes estimate   =   -2279.84387905 Ry
     estimated scf accuracy    <       0.01257782 Ry

     iteration # 22     ecut=    40.00 Ry     beta=0.70
     Davidson diagonalization with overlap
     ethr =  5.11E-06,  avg # of iterations =  2.4

     negative rho (up, down):  0.158E+01 0.000E+00

     total cpu time spent up to now is     4816.2 secs

     total energy              =   -2279.84021410 Ry
     Harris-Foulkes estimate   =   -2279.84341323 Ry
     estimated scf accuracy    <       0.00735392 Ry

     iteration # 23     ecut=    40.00 Ry     beta=0.70
     Davidson diagonalization with overlap
     ethr =  2.99E-06,  avg # of iterations =  5.5

     negative rho (up, down):  0.158E+01 0.000E+00

     total cpu time spent up to now is     5036.2 secs

     total energy              =   -2279.83887328 Ry
     Harris-Foulkes estimate   =   -2279.84594659 Ry
     estimated scf accuracy    <       0.05250428 Ry

     iteration # 24     ecut=    40.00 Ry     beta=0.70
     Davidson diagonalization with overlap
     ethr =  2.99E-06,  avg # of iterations =  5.9

     negative rho (up, down):  0.158E+01 0.000E+00

     total cpu time spent up to now is     5258.1 secs

     total energy              =   -2279.84222486 Ry
     Harris-Foulkes estimate   =   -2279.84286115 Ry
     estimated scf accuracy    <       0.00372357 Ry

     iteration # 25     ecut=    40.00 Ry     beta=0.70
     Davidson diagonalization with overlap
     ethr =  1.51E-06,  avg # of iterations =  1.0

     negative rho (up, down):  0.158E+01 0.000E+00

     total cpu time spent up to now is     5436.8 secs

     total energy              =   -2279.84251447 Ry
     Harris-Foulkes estimate   =   -2279.84261389 Ry
     estimated scf accuracy    <       0.00058553 Ry

     iteration # 26     ecut=    40.00 Ry     beta=0.70
     Davidson diagonalization with overlap
     ethr =  2.38E-07,  avg # of iterations =  1.0

     negative rho (up, down):  0.158E+01 0.000E+00

     total cpu time spent up to now is     5620.0 secs

     total energy              =   -2279.84251973 Ry
     Harris-Foulkes estimate   =   -2279.84259181 Ry
     estimated scf accuracy    <       0.00043105 Ry

     iteration # 27     ecut=    40.00 Ry     beta=0.70
     Davidson diagonalization with overlap
     ethr =  1.75E-07,  avg # of iterations =  1.0

     negative rho (up, down):  0.158E+01 0.000E+00

     total cpu time spent up to now is     5800.9 secs

     total energy              =   -2279.84250159 Ry
     Harris-Foulkes estimate   =   -2279.84261144 Ry
     estimated scf accuracy    <       0.00089233 Ry

     iteration # 28     ecut=    40.00 Ry     beta=0.70
     Davidson diagonalization with overlap
     ethr =  1.75E-07,  avg # of iterations =  1.0

     negative rho (up, down):  0.158E+01 0.000E+00

     total cpu time spent up to now is     5982.1 secs

     total energy              =   -2279.84251291 Ry
     Harris-Foulkes estimate   =   -2279.84261726 Ry
     estimated scf accuracy    <       0.00109544 Ry

     iteration # 29     ecut=    40.00 Ry     beta=0.70
     Davidson diagonalization with overlap
     ethr =  1.75E-07,  avg # of iterations =  1.0

     negative rho (up, down):  0.158E+01 0.000E+00

     total cpu time spent up to now is     6160.7 secs

     total energy              =   -2279.84256149 Ry
     Harris-Foulkes estimate   =   -2279.84256684 Ry
     estimated scf accuracy    <       0.00002811 Ry

     iteration # 30     ecut=    40.00 Ry     beta=0.70
     Davidson diagonalization with overlap
     ethr =  1.14E-08,  avg # of iterations =  1.0

     negative rho (up, down):  0.158E+01 0.000E+00

     total cpu time spent up to now is     6338.6 secs

     total energy              =   -2279.84256343 Ry
     Harris-Foulkes estimate   =   -2279.84256483 Ry
     estimated scf accuracy    <       0.00000756 Ry

     iteration # 31     ecut=    40.00 Ry     beta=0.70
     Davidson diagonalization with overlap
     ethr =  3.07E-09,  avg # of iterations =  1.0

     negative rho (up, down):  0.158E+01 0.000E+00

     total cpu time spent up to now is     6516.9 secs

     total energy              =   -2279.84256380 Ry
     Harris-Foulkes estimate   =   -2279.84256456 Ry
     estimated scf accuracy    <       0.00000405 Ry

     iteration # 32     ecut=    40.00 Ry     beta=0.70
     Davidson diagonalization with overlap
     ethr =  1.64E-09,  avg # of iterations =  1.4

     negative rho (up, down):  0.158E+01 0.000E+00

     total cpu time spent up to now is     6698.6 secs

     total energy              =   -2279.84256286 Ry
     Harris-Foulkes estimate   =   -2279.84256570 Ry
     estimated scf accuracy    <       0.00002519 Ry

     iteration # 33     ecut=    40.00 Ry     beta=0.70
     Davidson diagonalization with overlap
     ethr =  1.64E-09,  avg # of iterations =  1.0

     negative rho (up, down):  0.158E+01 0.000E+00

     total cpu time spent up to now is     6880.0 secs

     End of self-consistent calculation
 --- enter write_ns ---
 LDA+U parameters:
U( 2)     =  3.50000000
alpha( 2) =  0.00000000
atom    3   Tr[ns(na)] =   8.71852
    eigenvalues: 
  0.693  0.705  0.985  0.986  0.989
    eigenvectors:
  0.044  0.131  0.529  0.293  0.004
  0.758  0.242  0.000  0.000  0.000
  0.001  0.003  0.006  0.069  0.922
  0.198  0.624  0.115  0.054  0.009
  0.000  0.000  0.351  0.584  0.065
    occupations:
  0.936  0.003  0.007 -0.107 -0.000
  0.003  0.696  0.002  0.004 -0.004
  0.007  0.002  0.988  0.016  0.001
 -0.107  0.004  0.016  0.753  0.001
 -0.000 -0.004  0.001  0.001  0.986
atom    4   Tr[ns(na)] =   8.70853
    eigenvalues: 
  0.689  0.711  0.983  0.985  0.986
    eigenvectors:
  0.000  0.986  0.006  0.004  0.003
  0.008  0.000  0.120  0.830  0.041
  0.000  0.004  0.783  0.062  0.151
  0.000  0.009  0.090  0.097  0.804
  0.992  0.000  0.001  0.007  0.000
    occupations:
  0.715 -0.005 -0.017  0.026 -0.001
 -0.005  0.982  0.000  0.000  0.027
 -0.017  0.000  0.982  0.003  0.000
  0.026  0.000  0.003  0.983  0.000
 -0.001  0.027  0.000  0.000  0.692
atom    9   Tr[ns(na)] =   8.69005
    eigenvalues: 
  0.712  0.723  0.958  0.967  0.986
    eigenvectors:
  0.003  0.132  0.001  0.009  0.855
  0.976  0.023  0.000  0.000  0.000
  0.000  0.010  0.005  0.981  0.003
  0.020  0.834  0.000  0.005  0.140
  0.000  0.000  0.993  0.005  0.002
    occupations:
  0.950  0.001 -0.008 -0.090  0.001
  0.001  0.712  0.001  0.001 -0.004
 -0.008  0.001  0.964 -0.023  0.001
 -0.090  0.001 -0.023  0.761 -0.000
  0.001 -0.004  0.001 -0.000  0.958
atom   10   Tr[ns(na)] =   8.76053
    eigenvalues: 
  0.666  0.762  0.980  0.984  0.989
    eigenvectors:
  0.000  0.978  0.000  0.011  0.011
  0.011  0.000  0.989  0.000  0.000
  0.000  0.001  0.000  0.261  0.737
  0.000  0.021  0.000  0.728  0.252
  0.989  0.000  0.011  0.000  0.000
    occupations:
  0.766  0.000 -0.008  0.032  0.000
  0.000  0.976  0.000 -0.000 -0.033
 -0.008  0.000  0.987 -0.001 -0.000
  0.032 -0.000 -0.001  0.981 -0.000
  0.000 -0.033 -0.000 -0.000  0.669
atom   16   Tr[ns(na)] =   8.71857
    eigenvalues: 
  0.693  0.705  0.985  0.986  0.989
    eigenvectors:
  0.044  0.131  0.534  0.287  0.005
  0.759  0.241  0.000  0.000  0.000
  0.001  0.003  0.004  0.068  0.925
  0.197  0.625  0.116  0.053  0.009
  0.000  0.000  0.346  0.593  0.061
    occupations:
  0.936 -0.003  0.007 -0.107  0.000
 -0.003  0.696 -0.002 -0.004 -0.004
  0.007 -0.002  0.988  0.016 -0.001
 -0.107 -0.004  0.016  0.753 -0.000
  0.000 -0.004 -0.001 -0.000  0.986
atom   17   Tr[ns(na)] =   8.70768
    eigenvalues: 
  0.691  0.712  0.980  0.985  0.986
    eigenvectors:
  0.000  0.986  0.006  0.002  0.006
  0.008  0.000  0.045  0.926  0.020
  0.000  0.004  0.922  0.033  0.041
  0.000  0.009  0.027  0.031  0.933
  0.992  0.000  0.000  0.008  0.000
    occupations:
  0.716 -0.005 -0.017  0.026 -0.001
 -0.005  0.982  0.001  0.000  0.027
 -0.017  0.001  0.979  0.003  0.000
  0.026  0.000  0.003  0.983  0.000
 -0.001  0.027  0.000  0.000  0.693
atom   22   Tr[ns(na)] =   8.69004
    eigenvalues: 
  0.712  0.723  0.958  0.967  0.986
    eigenvectors:
  0.001  0.135  0.001  0.010  0.854
  0.994  0.006  0.000  0.000  0.000
  0.000  0.010  0.008  0.978  0.004
  0.005  0.850  0.000  0.005  0.140
  0.000  0.000  0.991  0.008  0.001
    occupations:
  0.950  0.000 -0.008 -0.090 -0.001
  0.000  0.712 -0.001 -0.001 -0.004
 -0.008 -0.001  0.964 -0.023 -0.001
 -0.090 -0.001 -0.023  0.761  0.000
 -0.001 -0.004 -0.001  0.000  0.958
atom   23   Tr[ns(na)] =   8.67028
    eigenvalues: 
  0.718  0.742  0.927  0.960  0.988
    eigenvectors:
  0.000  0.897  0.096  0.000  0.007
  0.015  0.000  0.000  0.985  0.000
  0.000  0.089  0.893  0.000  0.019
  0.000  0.015  0.011  0.000  0.974
  0.985  0.000  0.000  0.015  0.000
    occupations:
  0.761  0.000  0.052  0.026 -0.000
  0.000  0.957 -0.000  0.000 -0.029
  0.052 -0.000  0.912 -0.015 -0.000
  0.026  0.000 -0.015  0.983 -0.000
 -0.000 -0.029 -0.000 -0.000  0.722
N of occupied +U levels =  69.6642003
 --- exit write_ns ---

          k = 0.0000 0.0000 0.0000 ( 32157 PWs)   bands (ev):

   -55.9628 -55.8902 -55.7591 -55.6151 -55.5975 -55.5578 -55.5435 -55.5037
   -55.4484 -55.4453 -55.4432 -55.4192 -55.4137 -55.2897 -55.2504 -55.2402
   -55.2341 -55.1959 -55.1683 -55.1610 -55.1561 -54.8740 -54.6246 -54.2983
   -22.2483 -21.9151 -21.5334 -21.4343 -20.8414 -20.6729 -20.6302 -20.5683
   -20.5476 -20.4999 -20.4547 -20.4009 -20.2993 -20.0491 -19.9382 -19.8571
   -19.3949 -19.1129 -19.0423 -11.2557 -11.1335 -10.8446 -10.1816 -10.0215
    -9.9150  -9.6696  -9.6450  -9.5391  -9.5128  -9.4263  -9.3153  -9.2938
    -9.2082  -9.1890  -9.0660  -9.0204  -8.6727  -8.5865  -8.4902  -8.3169
    -8.1402  -8.0171  -7.9624  -7.7062  -7.3244  -7.2124  -7.2021  -7.1511
    -7.0172  -6.8244  -6.7471  -6.6929  -6.6273  -6.5406  -6.4587  -6.2183
    -6.0239  -5.9525  -5.8909  -5.7938  -5.7460  -5.7088  -5.6951  -5.5801
    -5.5482  -5.5077  -5.4767  -5.4009  -5.3716  -5.3576  -5.2204  -5.1959
    -5.1247  -5.0880  -5.0130  -4.9440  -4.7861  -4.6737  -4.6422  -4.5044
    -4.3483  -4.2288  -3.9927  -3.8093  -3.5144  -3.3479  -3.2791  -3.2023
    -3.1432  -3.0932  -2.7843  -2.7694  -2.5949  -2.5202  -2.4887  -2.3540
    -2.0962  -1.9670  -1.8409  -1.7194  -1.5860  -1.0906  -0.6689  -0.6640
    -0.6392  -0.6302  -0.2596  -0.0039   0.3532   0.6993   0.9066   1.2116
     1.2284   1.2383   1.7709   1.9260   2.3220   3.3321   4.1685   4.6612
     4.8536   5.4938   5.5929   5.6977   5.8092   6.3699   6.4109   6.5823
     6.8127   6.8806   6.8812   6.9708   7.2695   7.3908   7.4460   7.5304
     7.5794   7.6491   7.6869   7.7805   7.8601   7.9297   8.1785   8.1843
     8.1946   8.2193   8.3167   8.4059   8.5288   8.5508   8.5582   8.7736
     8.8971   8.9371   9.0059   9.1025   9.1596   9.2020   9.4456   9.4924
     9.5983   9.7895   9.8130   9.8925   9.9774   9.9913  10.0992  10.2540
    10.4453  10.5094  10.6580  10.7437  10.8218  10.8466  10.8518  10.9484
    10.9939  11.0829  11.2506  11.2542  11.3498  11.4017  11.5083  11.5209
    11.6038  11.6725  11.7978  11.9379  11.9795  12.0336  12.0410  12.0954
    12.1866  12.2137  12.2298  12.2619  12.3743  12.3998  12.5988  12.6200
    12.7029  12.7934  12.8099  13.0010  13.1019  13.2184  13.2804  13.3645
    13.3841  13.5829  13.6585  13.6877  13.7278  13.8282  13.9636  14.0607
    14.0685  14.2131  14.2773  14.3235  14.4790  14.5058  14.5625  14.6532
    14.7130  14.8538  14.9002  15.0499  15.1631  15.3249  15.3481  15.3742
    15.4580  15.5440  15.5848  15.6313  15.7465  15.8299  15.8518  15.9587
    15.9881  16.0671  16.2550  16.3893  16.4486  16.4995  16.5814  16.6090
    16.6393  16.7265  16.7420  16.8045  16.8400  16.8520  16.8862  16.9096
    16.9252  16.9989  17.1135  17.1910  17.2337  17.2771  17.3273  17.4616
    17.5794  17.6103  17.7410  17.8517  17.8811  17.9333  18.0223  18.0653
    18.1362  18.2315  18.2665  18.3442  18.3587  18.3813  18.4540  18.5723
    18.6320  18.6503  18.6842  18.7540  18.7630  18.8602  18.9602  19.0263
    19.0653  19.0860  19.1272  19.1983  19.2751  19.3335  19.3961  19.4526
    19.4614  19.5573  19.5604  19.6372  19.7181  19.7576  19.8117  19.8831
    19.9389  19.9760  20.0204  20.1070  20.1282  20.1761  20.3039  20.3648
    20.5441  20.5823  20.6303  20.8080  20.8842  20.9276  20.9545  20.9821
    21.0194  21.0850  21.1908  21.2531  21.3528  21.4552  21.4963  21.5535
    21.5973  21.6059  21.6425  21.7037  21.7152  21.7399  21.7557  21.7803
    21.8709  21.8970  21.9220  21.9714  22.0188  22.0550  22.1511  22.2615
    22.2874

          k = 0.0000 0.2488 0.0000 ( 32033 PWs)   bands (ev):

   -55.9628 -55.8901 -55.7589 -55.6147 -55.5972 -55.5578 -55.5435 -55.5038
   -55.4488 -55.4450 -55.4432 -55.4191 -55.4133 -55.2897 -55.2501 -55.2405
   -55.2339 -55.1960 -55.1684 -55.1610 -55.1560 -54.8739 -54.6244 -54.2983
   -22.2312 -21.9119 -21.4314 -21.3198 -20.8638 -20.8379 -20.7889 -20.5631
   -20.5106 -20.4135 -20.3653 -20.3193 -20.2934 -20.0742 -20.0481 -20.0118
   -19.3925 -19.1184 -19.0420 -10.9355 -10.7616 -10.6657 -10.4895 -10.0226
   -10.0128  -9.9841  -9.7138  -9.5718  -9.4542  -9.3212  -9.3148  -9.2427
    -9.2119  -9.0549  -9.0169  -8.7704  -8.4840  -8.4066  -8.3550  -8.1696
    -8.1044  -8.0582  -7.7723  -7.6719  -7.5170  -7.2468  -7.1536  -7.0465
    -7.0269  -7.0008  -6.9172  -6.8722  -6.7890  -6.7485  -6.6675  -6.5954
    -6.5200  -6.4638  -6.3305  -6.1934  -5.8659  -5.6675  -5.5721  -5.5597
    -5.5199  -5.4990  -5.4217  -5.3580  -5.2746  -5.1250  -5.0435  -4.9972
    -4.8870  -4.8554  -4.7720  -4.6606  -4.6289  -4.5743  -4.5519  -4.4446
    -4.3051  -4.1658  -4.0646  -3.8276  -3.7983  -3.6346  -3.5461  -3.3319
    -3.1669  -3.1114  -2.8334  -2.6207  -2.6098  -2.4903  -2.4127  -2.3431
    -2.0975  -2.0089  -1.9388  -1.7479  -1.6264  -1.4052  -1.2704  -0.8894
    -0.6288  -0.3064   0.1075   0.6924   0.8374   0.9019   0.9895   1.0176
     1.2374   1.2857   1.7560   1.7721   2.6979   3.5565   4.3743   4.8129
     4.8791   5.0766   5.5554   5.8501   5.8849   5.9395   6.2051   6.4070
     6.5188   6.6901   6.8169   6.9992   7.1213   7.2191   7.2618   7.3428
     7.4778   7.5741   7.6373   7.7149   7.7789   7.9081   8.0534   8.1336
     8.2815   8.3520   8.3933   8.4842   8.5561   8.5916   8.7023   8.8519
     8.9270   9.0572   9.0710   9.1582   9.2706   9.3999   9.4958   9.5306
     9.8140   9.8347   9.9590  10.0132  10.0670  10.1122  10.1552  10.1800
    10.3541  10.3800  10.4212  10.5737  10.6183  10.6399  10.8562  10.9067
    10.9266  11.0011  11.0631  11.2032  11.3323  11.3673  11.4831  11.5656
    11.5960  11.7727  11.8272  11.9145  12.1034  12.1611  12.2317  12.2880
    12.3066  12.4190  12.4701  12.5141  12.5955  12.6822  12.7468  12.8812
    13.0391  13.2218  13.3070  13.3715  13.4450  13.5123  13.5931  13.6044
    13.7109  13.7353  13.7564  13.8085  13.8981  14.0628  14.1492  14.2376
    14.2635  14.3667  14.4131  14.5508  14.5767  14.6380  14.7293  14.7901
    14.8689  14.9343  14.9706  15.1545  15.2287  15.2777  15.3426  15.3953
    15.4688  15.5922  15.6862  15.7093  15.7156  15.7663  15.8688  15.9101
    15.9445  16.0456  16.0791  16.1486  16.2501  16.2926  16.3034  16.3889
    16.4473  16.5985  16.6270  16.6656  16.6844  16.7282  16.7478  16.7872
    16.8290  16.8437  16.8559  16.9194  16.9598  17.0088  17.1100  17.1496
    17.2608  17.3328  17.3886  17.5244  17.6585  17.6864  17.7361  17.8231
    17.9746  18.0328  18.0776  18.1797  18.2243  18.2997  18.3762  18.4327
    18.4626  18.5246  18.5822  18.5994  18.6377  18.7034  18.7975  18.8569
    18.9518  18.9909  19.0046  19.0271  19.0967  19.1252  19.1646  19.1978
    19.3001  19.3334  19.3516  19.4551  19.5026  19.5175  19.6023  19.6406
    19.6491  19.7119  19.7763  19.8216  19.8498  19.9465  20.0803  20.1778
    20.2202  20.2479  20.3040  20.3646  20.3995  20.4227  20.4687  20.5321
    20.6184  20.7658  20.8064  20.8215  20.8504  20.9059  20.9712  21.0091
    21.0676  21.1429  21.2108  21.2611  21.2798  21.3750  21.4221  21.4508
    21.4751  21.4997  21.5836  21.6727  21.6951  21.7474  21.8687  21.9186
    21.9556

          k = 0.0000-0.4976 0.0000 ( 31948 PWs)   bands (ev):

   -55.9628 -55.8901 -55.7587 -55.6143 -55.5969 -55.5578 -55.5435 -55.5038
   -55.4492 -55.4447 -55.4433 -55.4192 -55.4128 -55.2897 -55.2499 -55.2407
   -55.2338 -55.1961 -55.1685 -55.1609 -55.1560 -54.8738 -54.6244 -54.2983
   -22.2156 -21.9090 -21.2966 -21.1366 -20.9321 -20.9262 -20.8763 -20.5651
   -20.5168 -20.4455 -20.3699 -20.2742 -20.2008 -20.1984 -20.1656 -20.0461
   -19.3897 -19.1226 -19.0426 -10.8731 -10.6962 -10.2822 -10.1733 -10.0583
   -10.0548 -10.0038  -9.7869  -9.4318  -9.4234  -9.2874  -9.2210  -9.1737
    -9.0465  -9.0277  -8.9545  -8.7946  -8.5600  -8.3885  -8.3499  -8.1945
    -8.1888  -8.0693  -7.9753  -7.8147  -7.4374  -7.3844  -7.3180  -7.2673
    -7.1925  -7.1603  -7.1086  -6.9158  -6.8494  -6.6456  -6.6365  -6.5936
    -6.4199  -6.2767  -6.2294  -6.1727  -6.1397  -6.0601  -5.7761  -5.5579
    -5.5400  -5.5258  -5.5215  -5.3995  -5.3373  -5.1242  -5.0513  -5.0125
    -4.8842  -4.6918  -4.6452  -4.6348  -4.5972  -4.4722  -4.3608  -4.1638
    -4.0787  -4.0449  -4.0183  -4.0028  -3.8041  -3.7421  -3.5890  -3.2722
    -3.1763  -3.1095  -2.9358  -2.7149  -2.6893  -2.6298  -2.5509  -2.5046
    -2.1535  -2.0743  -2.0531  -1.7644  -1.6729  -1.5360  -1.3651  -0.7893
    -0.6104   0.1833   0.3745   0.6783   0.8165   0.8323   1.1256   1.2366
     1.3419   1.4084   1.6729   1.7716   3.5030   3.8705   4.0741   4.7660
     4.9386   5.1781   5.3996   5.6555   5.7064   5.7274   6.0557   6.2148
     6.3669   6.5162   6.7000   6.7226   6.9918   7.0614   7.3400   7.4584
     7.5103   7.6021   7.6345   7.7587   7.9839   8.0130   8.0659   8.1075
     8.2623   8.3764   8.4282   8.6195   8.6477   8.7479   8.7678   8.8329
     8.8385   8.8905   8.9909   9.1260   9.1458   9.1841   9.2213   9.4340
     9.5226   9.5577   9.6966   9.7892   9.9574   9.9885  10.0087  10.0399
    10.2338  10.7291  10.7531  10.8199  10.8983  10.9313  11.0165  11.1110
    11.1700  11.2561  11.3014  11.3904  11.5147  11.5515  11.6100  11.6930
    12.0003  12.0532  12.0818  12.1355  12.2104  12.3081  12.3836  12.3875
    12.4972  12.5240  12.7209  12.7751  12.8290  12.8884  12.9356  12.9476
    12.9559  13.0156  13.0625  13.1437  13.2720  13.2895  13.5449  13.6684
    13.6887  13.8347  13.9234  14.1387  14.1712  14.2692  14.3086  14.3375
    14.4282  14.5456  14.6102  14.6583  14.8412  14.9114  14.9355  14.9514
    15.0755  15.1058  15.1660  15.1865  15.2312  15.4487  15.5648  15.6232
    15.6441  15.6672  15.7327  15.7521  15.8134  15.9295  15.9834  16.0296
    16.0535  16.1240  16.1979  16.2168  16.2700  16.3076  16.3372  16.3681
    16.3896  16.4260  16.5123  16.5567  16.6518  16.6878  16.7145  16.7281
    16.7349  16.7732  16.7961  16.8060  16.8213  16.8568  16.9016  16.9172
    17.0627  17.0867  17.2197  17.2276  17.3138  17.3764  17.4464  17.4945
    17.5652  17.6352  17.6720  17.7614  17.7735  17.8130  17.8621  17.9438
    18.0150  18.0418  18.1289  18.1460  18.2395  18.3261  18.3844  18.4717
    18.5449  18.6315  18.6548  18.7787  18.7931  18.9310  18.9569  19.0471
    19.1369  19.1688  19.2247  19.2463  19.3218  19.3478  19.4587  19.5505
    19.5670  19.6620  19.6987  19.7545  19.7605  19.8642  19.9161  19.9541
    19.9752  20.0356  20.1362  20.2101  20.2422  20.2582  20.3007  20.3405
    20.3909  20.4334  20.4628  20.4965  20.5327  20.6101  20.6761  20.6933
    20.7067  20.7818  20.8507  20.8731  20.8785  20.9606  21.0352  21.2102
    21.2678  21.2819  21.3177  21.4545  21.5175  21.5540  21.6890  21.7757
    21.7878

          k = 0.2500 0.0000 0.0000 ( 32013 PWs)   bands (ev):

   -55.9629 -55.8909 -55.7591 -55.6077 -55.5907 -55.5673 -55.5525 -55.4976
   -55.4514 -55.4481 -55.4459 -55.4186 -55.4146 -55.2897 -55.2505 -55.2394
   -55.2350 -55.1960 -55.1674 -55.1622 -55.1560 -54.8755 -54.6246 -54.2984
   -22.1828 -21.9165 -21.4217 -21.3175 -20.8453 -20.7449 -20.7320 -20.5719
   -20.4992 -20.4746 -20.4359 -20.3578 -20.2794 -20.0644 -20.0280 -19.9479
   -19.4461 -19.1829 -19.0687 -11.0321 -10.9043 -10.6522 -10.1794  -9.9267
    -9.7325  -9.6770  -9.5930  -9.5781  -9.5041  -9.4864  -9.3754  -9.2872
    -9.1125  -9.0473  -8.9418  -8.8530  -8.7156  -8.6446  -8.4135  -8.3530
    -8.0929  -8.0321  -7.8996  -7.8140  -7.6357  -7.3194  -7.2756  -7.1783
    -7.1057  -7.0640  -7.0372  -6.9092  -6.7595  -6.6863  -6.5864  -6.4892
    -6.4392  -6.3821  -6.2639  -6.2177  -6.0984  -6.0330  -5.9287  -5.8027
    -5.5163  -5.4842  -5.4128  -5.3518  -5.3067  -5.2212  -5.1544  -5.0296
    -4.9640  -4.8190  -4.7141  -4.6898  -4.5736  -4.4324  -4.3268  -4.1937
    -4.0321  -3.8366  -3.8166  -3.6117  -3.5985  -3.2340  -3.1468  -3.0690
    -3.0038  -2.9363  -2.8813  -2.7550  -2.6430  -2.5734  -2.4603  -2.3677
    -2.1644  -1.9921  -1.9305  -1.8100  -1.6525  -0.9396  -0.5564  -0.5338
    -0.4329  -0.3585  -0.2028  -0.0160   0.3059   0.3672   0.8474   0.8930
     0.9589   1.2094   1.3236   1.8068   2.7263   3.6383   4.3858   4.8188
     4.8573   5.0812   5.5704   5.8163   5.9915   6.0446   6.1998   6.4901
     6.6445   6.7662   6.8442   6.9620   7.1399   7.1606   7.2721   7.3286
     7.5132   7.5759   7.6578   7.7483   7.8883   7.9284   8.0936   8.1603
     8.4091   8.4294   8.4641   8.6151   8.6545   8.7214   8.7644   8.8915
     8.9345   9.0679   9.1867   9.2717   9.3241   9.4350   9.6530   9.7072
     9.7702   9.7938   9.9642   9.9825  10.0277  10.1314  10.1472  10.2161
    10.2623  10.3499  10.3769  10.4387  10.6083  10.7280  10.7766  10.8821
    10.8922  10.9158  10.9606  11.0729  11.1885  11.2128  11.3065  11.4306
    11.5598  11.6195  11.7323  11.8145  12.0455  12.1271  12.1686  12.2459
    12.2857  12.3152  12.4670  12.5545  12.7229  12.7955  12.8563  12.9333
    13.0685  13.1182  13.2435  13.3105  13.4612  13.5140  13.5317  13.6404
    13.6525  13.6791  13.7422  13.7666  13.8471  13.9028  13.9532  14.0609
    14.0811  14.1925  14.2454  14.2612  14.4050  14.4538  14.5321  14.6132
    14.7412  14.8578  14.8940  15.0296  15.1689  15.2382  15.3104  15.3960
    15.4369  15.4441  15.5008  15.6230  15.6951  15.7920  15.9033  15.9157
    15.9566  15.9875  16.1285  16.1671  16.2622  16.3305  16.3732  16.4336
    16.5798  16.6257  16.7076  16.7463  16.8034  16.8112  16.8408  16.8514
    16.8849  16.9158  16.9677  17.0222  17.1058  17.1757  17.2093  17.3122
    17.4638  17.5674  17.5927  17.6264  17.6717  17.7363  17.8184  17.8840
    17.9318  18.0446  18.1384  18.2576  18.3807  18.4042  18.4542  18.5699
    18.6055  18.6666  18.6970  18.7624  18.8073  18.8539  18.8850  18.9050
    18.9540  19.0032  19.0366  19.0608  19.1066  19.1927  19.2356  19.2866
    19.3362  19.3685  19.4111  19.4971  19.5184  19.5618  19.6122  19.6654
    19.7152  19.7614  19.8105  19.8525  19.9185  20.0005  20.0154  20.0727
    20.1239  20.1558  20.2601  20.3335  20.4056  20.4609  20.5101  20.5373
    20.5821  20.6887  20.7163  20.7721  20.9124  20.9300  21.0047  21.0363
    21.1352  21.1733  21.1999  21.2319  21.2882  21.3453  21.3907  21.4472
    21.5299  21.5546  21.6218  21.6790  21.8028  21.8704  21.9409  21.9743
    22.0154

          k = 0.2500 0.2488 0.0000 ( 32025 PWs)   bands (ev):

   -55.9629 -55.8909 -55.7590 -55.6075 -55.5905 -55.5672 -55.5524 -55.4977
   -55.4515 -55.4484 -55.4457 -55.4185 -55.4142 -55.2897 -55.2503 -55.2396
   -55.2350 -55.1960 -55.1675 -55.1622 -55.1560 -54.8754 -54.6245 -54.2984
   -22.1709 -21.9131 -21.3204 -21.2019 -20.8536 -20.7792 -20.7667 -20.5834
   -20.5554 -20.4580 -20.3846 -20.3260 -20.3110 -20.1413 -20.0859 -20.0653
   -19.4450 -19.1862 -19.0684 -10.7394 -10.5445 -10.4651 -10.3386  -9.9261
    -9.8487  -9.7739  -9.5862  -9.5031  -9.4617  -9.4236  -9.3697  -9.1686
    -9.0378  -9.0146  -8.9207  -8.9032  -8.6563  -8.3605  -8.3035  -8.1750
    -8.1474  -7.9992  -7.9252  -7.8223  -7.6287  -7.4739  -7.3952  -7.3271
    -7.2532  -7.1588  -7.1200  -7.0650  -6.9230  -6.8802  -6.8265  -6.7453
    -6.6848  -6.5807  -6.4605  -6.2750  -6.1601  -6.0867  -5.8925  -5.7737
    -5.6492  -5.5736  -5.4020  -5.3641  -5.2964  -5.1764  -4.9774  -4.9391
    -4.8476  -4.7311  -4.5222  -4.4551  -4.3008  -4.1886  -4.1525  -4.0116
    -3.9746  -3.9226  -3.8230  -3.6829  -3.6273  -3.5455  -3.3471  -3.2737
    -3.1466  -2.9188  -2.8019  -2.6651  -2.6119  -2.5105  -2.4576  -2.3772
    -2.1691  -2.0487  -1.9360  -1.8330  -1.6967  -1.2047  -1.1006  -0.7602
    -0.4193  -0.2511   0.0584   0.3284   0.5917   0.7250   0.7629   0.8962
     1.0966   1.2934   1.3304   1.7223   3.0775   3.8472   4.5927   5.0038
     5.0273   5.0861   5.3071   5.6647   6.0964   6.1613   6.1935   6.3737
     6.4554   6.5602   6.6966   6.8684   6.9340   6.9961   7.1268   7.2487
     7.3742   7.4910   7.5340   7.5818   7.6919   7.8779   7.9209   8.0076
     8.1713   8.2546   8.3136   8.4769   8.5652   8.6357   8.6676   8.7828
     8.8957   9.0137   9.1109   9.2814   9.3367   9.4726   9.5252   9.6235
     9.6942   9.9176  10.0266  10.0684  10.1967  10.2557  10.3244  10.3781
    10.5222  10.6090  10.6716  10.7724  10.7974  10.9247  11.0351  11.0940
    11.1734  11.2029  11.3497  11.4691  11.4948  11.7097  11.7329  11.7661
    11.8595  11.9364  11.9700  12.0637  12.1177  12.2291  12.2492  12.3208
    12.4196  12.4771  12.5071  12.5330  12.6177  12.7406  12.8227  12.8589
    12.9229  13.0038  13.1626  13.1895  13.2460  13.4625  13.5077  13.5665
    13.6899  13.7070  13.7469  13.8742  13.9071  13.9796  14.0568  14.1151
    14.1947  14.3378  14.4321  14.5079  14.5689  14.6410  14.7196  14.8231
    14.8743  15.0053  15.1246  15.2515  15.2975  15.3450  15.3977  15.4286
    15.5333  15.5628  15.6430  15.6839  15.7282  15.7720  15.8250  15.9231
    15.9792  16.0357  16.0885  16.1263  16.1861  16.2599  16.2992  16.3311
    16.4343  16.5410  16.5864  16.6919  16.7353  16.7418  16.7578  16.8070
    16.8109  16.8308  16.8548  16.9028  16.9389  16.9481  16.9766  17.0910
    17.1387  17.1826  17.1993  17.2294  17.2795  17.3832  17.4480  17.4862
    17.5291  17.5658  17.6275  17.6852  17.7133  17.7799  17.9129  17.9418
    18.0323  18.0702  18.1303  18.2200  18.2807  18.3455  18.4368  18.5111
    18.5489  18.5945  18.6256  18.7148  18.7652  18.8498  18.8807  18.9631
    19.0271  19.1562  19.2084  19.2491  19.3270  19.3991  19.4459  19.5152
    19.6214  19.7599  19.8196  19.9077  19.9259  19.9652  20.0096  20.0770
    20.1258  20.2330  20.2614  20.3012  20.3356  20.3885  20.4396  20.4899
    20.6353  20.7132  20.8288  20.8964  20.9301  20.9742  21.0181  21.0702
    21.1684  21.2186  21.2765  21.3033  21.4157  21.4283  21.4928  21.5654
    21.6178  21.6624  21.7716  21.8158  21.8725  21.9636  22.0135  22.0647
    22.1560

          k = 0.2500-0.4976 0.0000 ( 32026 PWs)   bands (ev):

   -55.9629 -55.8908 -55.7588 -55.6072 -55.5902 -55.5672 -55.5524 -55.4978
   -55.4516 -55.4487 -55.4455 -55.4184 -55.4138 -55.2897 -55.2501 -55.2398
   -55.2349 -55.1961 -55.1675 -55.1622 -55.1560 -54.8753 -54.6244 -54.2985
   -22.1600 -21.9099 -21.1737 -21.0209 -20.8626 -20.8335 -20.8200 -20.6055
   -20.5754 -20.5012 -20.3924 -20.3490 -20.3074 -20.2428 -20.1932 -20.0638
   -19.4436 -19.1890 -19.0686 -10.6766 -10.4583  -9.9786  -9.9378  -9.9228
    -9.8746  -9.7984  -9.6432  -9.4917  -9.4197  -9.3212  -9.2651  -9.0737
    -9.0306  -8.9984  -8.8828  -8.7316  -8.6601  -8.4542  -8.3193  -8.2046
    -8.1289  -8.0293  -7.9051  -7.8287  -7.7696  -7.7537  -7.7186  -7.5840
    -7.4502  -7.3812  -7.2055  -7.1466  -6.9706  -6.9434  -6.8726  -6.7815
    -6.6715  -6.6096  -6.4922  -6.3195  -6.1915  -6.1421  -6.0425  -6.0052
    -5.7809  -5.5848  -5.3864  -5.3171  -5.2419  -5.0688  -4.8473  -4.7509
    -4.7400  -4.5940  -4.5142  -4.4704  -4.1841  -4.0871  -4.0661  -4.0227
    -3.9518  -3.7863  -3.6866  -3.6394  -3.5862  -3.4881  -3.4089  -3.3144
    -3.2296  -3.0346  -2.8087  -2.7084  -2.6575  -2.6273  -2.5125  -2.3944
    -2.1939  -2.1415  -1.9661  -1.8643  -1.7362  -1.4857  -1.3554  -0.6906
    -0.4111   0.0261   0.1116   0.3422   0.4507   0.6492   1.1634   1.1853
     1.2072   1.3365   1.4118   1.5841   3.7997   4.1431   4.2843   5.0783
     5.1869   5.3712   5.4282   5.6222   5.8919   5.9300   5.9452   5.9803
     6.2451   6.5951   6.6753   6.8008   6.8868   6.9288   6.9894   7.1906
     7.3436   7.4839   7.5079   7.6171   7.6526   7.7031   7.8201   7.9231
     7.9681   8.0763   8.2312   8.3075   8.4350   8.4931   8.5930   8.7125
     8.7347   8.8585   8.9055   9.0634   9.1158   9.3333   9.3572   9.6043
     9.8015   9.9562   9.9826  10.1052  10.2540  10.5947  10.6821  10.7556
    10.7788  10.9254  11.0369  11.0843  11.1235  11.2773  11.3272  11.3532
    11.4290  11.4882  11.5288  11.6434  11.6691  11.7520  11.8444  11.9811
    12.0747  12.1550  12.2116  12.2637  12.3195  12.3913  12.4569  12.5289
    12.5756  12.6852  12.8370  12.8746  12.9063  12.9604  13.0297  13.0773
    13.1412  13.1584  13.2266  13.4026  13.4668  13.5582  13.6505  13.6752
    13.7054  13.8278  13.8599  13.9608  13.9968  14.0760  14.1083  14.1381
    14.2321  14.2758  14.3184  14.4090  14.5239  14.5892  14.6278  14.6579
    14.7240  14.7664  14.8098  14.9187  15.0177  15.0405  15.1610  15.1828
    15.2895  15.3747  15.4268  15.5480  15.6678  15.7028  15.7768  15.7884
    15.8743  15.9401  16.0316  16.0610  16.1136  16.1570  16.2051  16.2495
    16.2821  16.3879  16.4231  16.4959  16.5128  16.5875  16.6390  16.6761
    16.6924  16.7311  16.7365  16.7934  16.8190  16.8462  16.8746  16.9054
    16.9261  16.9782  17.0034  17.1491  17.1615  17.1889  17.3013  17.3163
    17.4238  17.4908  17.5485  17.6569  17.6797  17.7400  17.7746  17.8224
    17.8951  18.0256  18.0774  18.1372  18.1647  18.2345  18.2876  18.3625
    18.3801  18.4063  18.4304  18.5138  18.6171  18.6469  18.6873  18.8176
    18.8858  18.9247  18.9926  19.0285  19.0716  19.1510  19.2016  19.2695
    19.3133  19.3793  19.4368  19.4900  19.5663  19.6220  19.7175  19.8198
    19.9646  20.0661  20.0828  20.1536  20.2297  20.2949  20.3383  20.4032
    20.4734  20.5212  20.5746  20.6500  20.7164  20.7879  20.8514  20.8625
    20.9594  21.0357  21.1802  21.2299  21.3000  21.4036  21.4659  21.4831
    21.5430  21.6276  21.6669  21.8376  21.8487  22.0032  22.0164  22.1233
    22.1697

          k =-0.5000 0.0000 0.0000 ( 31984 PWs)   bands (ev):

   -55.9630 -55.8917 -55.7592 -55.5889 -55.5883 -55.5734 -55.5719 -55.4881
   -55.4631 -55.4473 -55.4469 -55.4176 -55.4159 -55.2897 -55.2507 -55.2377
   -55.2370 -55.1960 -55.1654 -55.1645 -55.1560 -54.8770 -54.6247 -54.2985
   -22.1005 -21.9317 -21.1522 -21.1479 -21.0337 -21.0205 -20.6098 -20.5697
   -20.5411 -20.4500 -20.2976 -20.2928 -20.2124 -20.1653 -20.1146 -20.1068
   -19.4705 -19.2983 -19.0781 -10.4796 -10.4470 -10.3603 -10.2697 -10.2080
   -10.1689  -9.6520  -9.6380  -9.5270  -9.4483  -9.4011  -9.3517  -9.2462
    -9.2307  -8.8030  -8.7970  -8.7291  -8.7052  -8.3503  -8.2210  -8.0585
    -8.0040  -7.9481  -7.8711  -7.8295  -7.7515  -7.6165  -7.5892  -7.5438
    -7.5022  -7.3718  -7.2757  -7.0963  -7.0174  -6.9684  -6.7912  -6.7109
    -6.6954  -6.6778  -6.4806  -6.3920  -6.3065  -6.1839  -6.0186  -5.8890
    -5.4439  -5.4230  -5.3721  -5.1959  -5.1856  -5.0908  -5.0578  -5.0264
    -4.9616  -4.8612  -4.7099  -4.5244  -4.2082  -4.1982  -4.0582  -3.8966
    -3.8676  -3.6957  -3.6369  -3.4096  -3.3480  -3.2562  -3.0808  -2.9365
    -2.9082  -2.8628  -2.8608  -2.7279  -2.6454  -2.6223  -2.3836  -2.2973
    -2.2319  -2.2190  -2.1303  -1.8241  -1.6756  -0.5727  -0.3701  -0.3583
    -0.2388  -0.1112   0.0148   0.1345   0.1358   0.2404   0.2788   0.3724
     0.4746   1.1661   1.3065   1.5457   3.6804   3.6858   4.1954   4.7994
     5.0117   5.2014   5.4661   5.6746   5.7094   5.7773   6.1796   6.3543
     6.3809   6.5857   6.6443   6.7273   7.0370   7.1825   7.4197   7.4595
     7.5339   7.7240   7.7599   7.9567   7.9640   8.1074   8.2148   8.3432
     8.3891   8.5721   8.6010   8.7286   8.7598   8.8538   8.8989   8.9949
     9.0300   9.1071   9.1625   9.1883   9.2827   9.3296   9.3828   9.4099
     9.4803   9.5693   9.6399   9.7346   9.8413   9.8640  10.0991  10.1337
    10.2946  10.3549  10.6513  10.6927  10.7670  10.8064  10.8182  10.8552
    11.2175  11.2569  11.3033  11.4454  11.5129  11.5346  11.5679  11.5757
    11.7840  11.8309  11.9221  11.9385  12.0492  12.1199  12.3014  12.4123
    12.4485  12.4910  12.5112  12.5443  12.7185  12.7582  12.8699  12.8822
    12.9414  12.9715  13.0044  13.0303  13.1046  13.1360  13.2703  13.3220
    13.5413  13.6166  13.7149  13.7850  13.8277  13.9165  14.0188  14.1385
    14.2151  14.2435  14.3431  14.4273  14.5702  14.5849  14.6886  14.7637
    15.0259  15.0491  15.1091  15.2868  15.4071  15.5369  15.5459  15.6403
    15.6755  15.6884  15.7677  15.7780  15.9295  15.9942  16.0546  16.1371
    16.1522  16.1584  16.2103  16.2601  16.2786  16.3111  16.3527  16.3653
    16.4184  16.4562  16.5045  16.6463  16.6693  16.7409  16.7432  16.7977
    16.8096  16.8280  16.8341  16.8742  16.8964  16.9466  17.0913  17.1422
    17.1979  17.2249  17.2454  17.3547  17.5516  17.6148  17.6376  17.6709
    17.7635  17.8070  17.8477  17.9495  17.9667  18.0209  18.0707  18.1801
    18.2211  18.3202  18.3509  18.4112  18.4433  18.4845  18.6365  18.6693
    18.7685  18.7916  18.8202  18.8432  18.8804  18.9834  19.0881  19.1146
    19.1697  19.2761  19.3275  19.3625  19.4412  19.4824  19.5404  19.5532
    19.5723  19.6169  19.6795  19.7515  19.8127  19.8368  19.9339  19.9613
    19.9785  20.0340  20.0973  20.1645  20.2344  20.2716  20.3396  20.4077
    20.4276  20.4493  20.5094  20.5240  20.5865  20.6033  20.6396  20.6767
    20.7468  20.7499  20.8539  20.8586  20.9422  21.1427  21.1615  21.2834
    21.3150  21.3722  21.4289  21.4433  21.6387  21.6863  21.7216  21.8140
    21.8398

          k =-0.5000 0.2488 0.0000 ( 32052 PWs)   bands (ev):

   -55.9630 -55.8916 -55.7590 -55.5888 -55.5882 -55.5732 -55.5718 -55.4882
   -55.4633 -55.4473 -55.4471 -55.4174 -55.4157 -55.2897 -55.2505 -55.2378
   -55.2370 -55.1961 -55.1655 -55.1645 -55.1560 -54.8769 -54.6246 -54.2986
   -22.0961 -21.9265 -21.0625 -21.0603 -20.9334 -20.9246 -20.6489 -20.6091
   -20.5507 -20.4862 -20.3740 -20.3569 -20.3128 -20.2422 -20.1423 -20.1212
   -19.4707 -19.2982 -19.0782 -10.3707 -10.2556 -10.0468 -10.0341 -10.0006
    -9.9341  -9.6507  -9.6241  -9.4754  -9.4426  -9.3475  -9.3253  -9.2318
    -9.2172  -8.9242  -8.9090  -8.5923  -8.5573  -8.3945  -8.3624  -8.2381
    -8.2269  -8.0747  -8.0097  -7.9013  -7.8527  -7.7310  -7.6483  -7.5388
    -7.4573  -7.3601  -7.3041  -7.1903  -7.1182  -6.9426  -6.9151  -6.8222
    -6.7492  -6.6802  -6.6146  -6.4492  -6.3126  -6.2689  -6.0388  -5.9963
    -5.8550  -5.8016  -5.6472  -5.4473  -5.2325  -5.1979  -5.0698  -4.5917
    -4.4413  -4.3570  -4.3178  -4.2044  -4.1552  -4.0734  -4.0101  -3.9089
    -3.7631  -3.6793  -3.6458  -3.5850  -3.4332  -3.2957  -3.1418  -3.0247
    -2.9826  -2.9043  -2.7771  -2.7361  -2.5993  -2.5663  -2.4812  -2.3679
    -2.2765  -2.2290  -2.1671  -1.8492  -1.6493  -0.6825  -0.6520  -0.5372
    -0.3801  -0.2700  -0.2285   0.1071   0.1390   0.4572   0.5499   0.7847
     0.8071   1.1161   1.3458   1.6109   3.9464   3.9596   4.3132   5.0424
     5.2329   5.4130   5.6397   5.6651   5.7255   5.9392   5.9550   6.0023
     6.3078   6.6805   6.7064   6.7504   6.7988   6.8937   7.0792   7.1613
     7.3218   7.5318   7.5609   7.6327   7.6740   7.7873   7.8687   7.9809
     8.0943   8.1872   8.2072   8.4206   8.4679   8.5756   8.5932   8.7624
     8.8413   9.0812   9.2032   9.2261   9.3568   9.4505   9.5463   9.5718
     9.7038   9.8922  10.0192  10.0458  10.3777  10.4708  10.5397  10.5779
    10.7818  10.7909  10.9395  10.9535  11.0323  11.0573  11.1723  11.2176
    11.3283  11.4078  11.5366  11.5874  11.6878  11.7816  11.8273  11.8647
    12.0696  12.1036  12.1645  12.2132  12.2866  12.4015  12.5260  12.5696
    12.6278  12.6878  12.7069  12.7542  12.8791  12.8865  12.9631  13.0366
    13.1109  13.1685  13.2322  13.2812  13.3147  13.3712  13.4072  13.5330
    13.5598  13.6534  13.7942  13.9054  13.9359  14.0189  14.0545  14.0766
    14.1687  14.2507  14.2845  14.3629  14.4356  14.4865  14.5417  14.5617
    14.5976  14.7269  14.7908  14.8710  14.9151  15.0102  15.1272  15.2388
    15.2821  15.3157  15.5495  15.6154  15.6995  15.7347  15.7672  15.8577
    15.9171  15.9916  16.0465  16.0656  16.1614  16.2180  16.2471  16.2866
    16.2994  16.3639  16.4254  16.5106  16.5331  16.6091  16.6244  16.6756
    16.7341  16.7433  16.8055  16.8262  16.8527  16.8733  16.8941  16.9303
    17.0051  17.1008  17.1208  17.1657  17.2531  17.3037  17.3477  17.3828
    17.4697  17.5600  17.5777  17.5998  17.7237  17.8047  17.8938  17.9524
    18.0263  18.0462  18.0959  18.1131  18.1810  18.2308  18.2525  18.3763
    18.4099  18.4883  18.5077  18.6261  18.6422  18.7451  18.7822  18.8554
    18.9084  18.9460  19.0379  19.0709  19.2294  19.2572  19.3044  19.3393
    19.3873  19.4958  19.5342  19.6161  19.6635  19.7296  19.8255  19.8624
    19.8972  19.9595  20.0068  20.1273  20.2814  20.3311  20.3603  20.4956
    20.5582  20.5946  20.6932  20.7639  20.8184  20.9014  20.9920  21.0479
    21.0710  21.1115  21.1513  21.2756  21.3092  21.4312  21.5097  21.5628
    21.6929  21.7100  21.7592  21.8053  21.8711  21.9083  21.9673  22.0359
    22.0842

          k =-0.5000-0.4976 0.0000 ( 31956 PWs)   bands (ev):

   -55.9630 -55.8915 -55.7588 -55.5886 -55.5880 -55.5731 -55.5716 -55.4882
   -55.4634 -55.4473 -55.4471 -55.4171 -55.4154 -55.2897 -55.2503 -55.2379
   -55.2371 -55.1961 -55.1655 -55.1645 -55.1560 -54.8768 -54.6245 -54.2986
   -22.0919 -21.9215 -20.8891 -20.8843 -20.7963 -20.7753 -20.7155 -20.6797
   -20.6551 -20.6483 -20.4586 -20.4316 -20.4083 -20.3079 -20.1539 -20.1299
   -19.4706 -19.2981 -19.0785 -10.3415 -10.2085  -9.7095  -9.6967  -9.5964
    -9.5212  -9.4423  -9.4255  -9.3925  -9.3588  -9.2745  -9.2342  -9.1788
    -9.1432  -8.9614  -8.9403  -8.8952  -8.8555  -8.8240  -8.6386  -8.5387
    -8.3532  -7.9982  -7.9518  -7.9061  -7.8624  -7.7854  -7.7107  -7.5793
    -7.4561  -7.4184  -7.3340  -7.1763  -7.1559  -7.1330  -7.0688  -7.0445
    -6.9760  -6.9480  -6.7746  -6.5200  -6.3989  -6.2628  -6.2271  -5.9492
    -5.9137  -5.7636  -5.7057  -5.5009  -5.2036  -5.0965  -5.0157  -4.5377
    -4.2086  -4.1712  -4.0797  -4.0657  -3.9610  -3.9026  -3.9017  -3.7611
    -3.6744  -3.6687  -3.6329  -3.5908  -3.4054  -3.3883  -3.3596  -3.0241
    -2.9969  -2.9903  -2.7739  -2.7132  -2.5957  -2.5253  -2.4996  -2.4399
    -2.3297  -2.3188  -2.1529  -1.8803  -1.6354  -1.0270  -0.8974  -0.8747
    -0.5633  -0.3837  -0.1937   0.1672   0.1873   0.7516   0.8846   0.9194
     0.9948   1.3192   1.3695   1.4655   4.4305   4.5020   4.5195   4.9181
     4.9402   5.6501   5.8050   5.8866   5.8904   6.0521   6.1106   6.1610
     6.3108   6.4985   6.5044   6.6032   6.6137   6.6207   6.6347   6.7362
     7.0628   7.1758   7.2936   7.3538   7.4588   7.5172   7.5629   7.5833
     7.9162   8.0468   8.2867   8.3269   8.3673   8.5565   8.5816   8.8689
     8.8763   8.9956   9.0120   9.3062   9.3450   9.4109   9.4507   9.5241
     9.6433   9.7634  10.1346  10.2229  10.3798  10.6157  10.6548  10.6603
    10.7799  10.8307  11.2412  11.2709  11.4532  11.5668  11.6939  11.7330
    11.9071  11.9455  11.9563  11.9946  12.1346  12.1901  12.3439  12.3842
    12.5635  12.6271  12.6516  12.7621  12.8016  12.8182  12.8875  12.8929
    13.0840  13.1054  13.1188  13.1354  13.2004  13.2502  13.2687  13.2984
    13.3133  13.3308  13.5248  13.5402  13.5732  13.5971  13.6154  13.6324
    13.6702  13.7246  13.7574  13.7914  13.8145  13.8347  13.8501  13.8961
    13.9425  13.9679  14.0215  14.0690  14.2791  14.3252  14.3830  14.4544
    14.4962  14.6420  14.6787  14.7364  14.7604  14.7874  14.8149  14.8217
    14.8892  14.9158  14.9581  14.9635  15.0249  15.0862  15.2397  15.2667
    15.3016  15.3557  15.4476  15.4564  15.5176  15.5743  15.6474  15.7645
    15.7718  15.8066  16.0993  16.1646  16.3003  16.3576  16.3604  16.4418
    16.4777  16.5219  16.5536  16.5895  16.6383  16.6637  16.7184  16.7471
    16.7483  16.8197  16.8485  16.8977  16.9313  17.0258  17.1094  17.1973
    17.2866  17.4017  17.5270  17.5915  17.6701  17.6859  17.7737  17.8256
    17.9019  17.9447  17.9744  17.9904  18.1643  18.2835  18.3892  18.4902
    18.5451  18.5893  18.6308  18.7746  18.8539  18.9116  18.9715  19.0096
    19.1298  19.2134  19.2681  19.3448  19.3807  19.5324  19.6428  19.6964
    19.7066  19.7721  19.8607  19.9495  19.9963  20.0437  20.1223  20.2068
    20.2794  20.3534  20.4420  20.4876  20.5148  20.5183  20.5667  20.6680
    20.6805  20.7419  20.8076  20.8185  20.8636  20.8963  21.0122  21.0300
    21.0528  21.0932  21.1586  21.1707  21.2524  21.2657  21.3167  21.3257
    21.3566  21.4129  21.4507  21.5000  21.5181  21.6256  21.6634  21.7204
    21.7401

          k =-0.2500 0.2488 0.0000 ( 32025 PWs)   bands (ev):

   -55.9629 -55.8909 -55.7590 -55.6075 -55.5905 -55.5672 -55.5524 -55.4977
   -55.4515 -55.4484 -55.4457 -55.4185 -55.4142 -55.2897 -55.2503 -55.2396
   -55.2350 -55.1960 -55.1675 -55.1622 -55.1560 -54.8754 -54.6245 -54.2984
   -22.1709 -21.9132 -21.3204 -21.2016 -20.8564 -20.7783 -20.7681 -20.5804
   -20.5466 -20.4614 -20.3914 -20.3299 -20.3065 -20.1447 -20.0850 -20.0619
   -19.4450 -19.1863 -19.0684 -10.7381 -10.5448 -10.4651 -10.3361  -9.9262
    -9.8542  -9.7873  -9.5768  -9.5062  -9.4420  -9.4049  -9.3681  -9.1937
    -9.0683  -9.0327  -8.9083  -8.8885  -8.6600  -8.3562  -8.2956  -8.1503
    -8.1279  -8.0336  -7.8859  -7.8158  -7.6315  -7.5512  -7.3807  -7.3315
    -7.2647  -7.1910  -7.1008  -6.9757  -6.9257  -6.9097  -6.8065  -6.7585
    -6.6701  -6.5600  -6.4939  -6.3029  -6.1683  -6.0999  -5.9031  -5.7909
    -5.6310  -5.5155  -5.4549  -5.3361  -5.2773  -5.1884  -5.0020  -4.9243
    -4.8245  -4.7117  -4.5441  -4.4666  -4.3120  -4.1872  -4.0994  -4.0587
    -3.9520  -3.9068  -3.8273  -3.7129  -3.6179  -3.5822  -3.3175  -3.2709
    -3.1604  -2.9209  -2.8009  -2.6564  -2.6178  -2.5204  -2.4642  -2.3429
    -2.1710  -2.0489  -1.9352  -1.8354  -1.6975  -1.2145  -1.1007  -0.7600
    -0.4214  -0.2484   0.0581   0.3279   0.5895   0.7286   0.7647   0.8961
     1.0970   1.2918   1.3306   1.7224   3.0753   3.8461   4.5946   5.0166
     5.0402   5.1151   5.3109   5.6638   6.0953   6.1585   6.1834   6.3267
     6.4442   6.5332   6.6798   6.8610   6.9412   6.9914   7.1164   7.2375
     7.3759   7.4952   7.5674   7.5946   7.6932   7.8686   7.9397   8.0450
     8.1717   8.2678   8.3125   8.4589   8.5577   8.6420   8.6666   8.7743
     8.8672   9.0109   9.1396   9.2930   9.3416   9.4729   9.5392   9.6022
     9.7017   9.8694  10.0169  10.1058  10.1923  10.2570  10.3152  10.3860
    10.5259  10.5826  10.6531  10.7719  10.7935  10.9581  11.0538  11.0923
    11.1822  11.2082  11.3698  11.4614  11.4818  11.7132  11.7297  11.7760
    11.8628  11.9387  11.9928  12.0673  12.1320  12.2411  12.2716  12.3284
    12.4094  12.4489  12.5191  12.5724  12.6351  12.7346  12.8161  12.9048
    12.9449  13.0279  13.1533  13.1811  13.2263  13.4316  13.5157  13.5541
    13.6355  13.6934  13.7624  13.8579  13.9103  13.9674  14.0515  14.1178
    14.1857  14.3142  14.4059  14.5005  14.5507  14.6310  14.7499  14.8309
    14.8666  14.9376  15.0988  15.2120  15.2447  15.3164  15.4057  15.4426
    15.5207  15.5748  15.6366  15.6664  15.7470  15.7633  15.8181  15.8773
    15.9955  16.0520  16.0782  16.1448  16.1687  16.2327  16.2960  16.3561
    16.4312  16.5004  16.5726  16.7157  16.7327  16.7399  16.7835  16.8033
    16.8167  16.8380  16.8747  16.8884  16.9271  16.9362  17.0276  17.1062
    17.1414  17.1926  17.2067  17.2543  17.2902  17.3687  17.4644  17.5036
    17.5466  17.5846  17.6025  17.6907  17.7426  17.7795  17.8965  17.9523
    18.0429  18.0854  18.1340  18.2327  18.2684  18.3864  18.4796  18.5193
    18.5924  18.6176  18.6829  18.7221  18.8206  18.8562  18.8956  19.0154
    19.0461  19.1604  19.1850  19.2120  19.3210  19.3642  19.4402  19.4666
    19.6463  19.7719  19.8302  19.8869  19.9525  19.9687  19.9904  20.0694
    20.1287  20.2211  20.2420  20.3040  20.3658  20.3736  20.5019  20.5806
    20.6605  20.7000  20.7592  20.8463  20.9214  20.9669  21.0220  21.0560
    21.0764  21.2328  21.2661  21.3799  21.4098  21.4642  21.5117  21.5605
    21.6116  21.6588  21.7338  21.7882  21.8317  21.8940  22.0014  22.1033
    22.1396

     the Fermi energy is    -1.8871 ev

!    total energy              =   -2279.84256343 Ry
     Harris-Foulkes estimate   =   -2279.84256432 Ry
     estimated scf accuracy    <       0.00000097 Ry

     The total energy is the sum of the following terms:

     one-electron contribution =  -23638.78908420 Ry
     hartree contribution      =   11860.89572117 Ry
     xc contribution           =    -572.07805637 Ry
     ewald contribution        =   10069.15257164 Ry
     Hubbard energy            =       0.97660184 Ry
     smearing contrib. (-TS)   =      -0.00031750 Ry

     convergence has been achieved in  33 iterations

     Forces acting on atoms (Ry/au):


     negative rho (up, down):  0.158E+01 0.000E+00
     atom    1 type  1   force =    -0.00887806   -0.00494216   -0.00101365
     atom    2 type  1   force =     0.00013189    0.00345270    0.00136660
     atom    3 type  2   force =     0.01587897    0.00723694   -0.00154365
     atom    4 type  2   force =     0.01111400    0.00456890   -0.00109002
     atom    5 type  1   force =     0.00114783   -0.00384962   -0.00158925
     atom    6 type  1   force =    -0.00018624   -0.00251812    0.00175006
     atom    7 type  1   force =     0.00009643    0.00050013    0.00117237
     atom    8 type  1   force =    -0.00429389    0.00238595    0.00384229
     atom    9 type  2   force =     0.00465068   -0.00448385   -0.00469577
     atom   10 type  2   force =    -0.00000423   -0.01835443   -0.00411056
     atom   11 type  1   force =    -0.00277201    0.00192785   -0.00187689
     atom   12 type  1   force =    -0.00820591    0.01274060    0.00195506
     atom   13 type  1   force =    -0.00111775   -0.00769933    0.00211395
     atom   14 type  1   force =    -0.00928769   -0.00378594   -0.00096918
     atom   15 type  1   force =     0.00024441    0.00036458    0.00277428
     atom   16 type  2   force =    -0.01667735    0.00716991   -0.00169813
     atom   17 type  2   force =     0.01103102    0.00498070   -0.00107283
     atom   18 type  1   force =     0.00117405   -0.00381325   -0.00156656
     atom   19 type  1   force =     0.00008679   -0.00244765    0.00175583
     atom   20 type  1   force =     0.00007000   -0.00396848    0.00163609
     atom   21 type  1   force =    -0.00409798    0.00238051    0.00351691
     atom   22 type  2   force =    -0.00081070   -0.00433666   -0.00488670
     atom   23 type  2   force =    -0.00024752    0.01009782   -0.01474033
     atom   24 type  1   force =     0.00285974    0.00197499   -0.00189786
     atom   25 type  1   force =     0.00833490    0.01271171    0.00196226
     atom   26 type  1   force =    -0.00114205   -0.01561538    0.00353491
     atom   27 type  3   force =    -0.00001659    0.00000145    0.00166116
     atom   28 type  3   force =    -0.00003894    0.00085797    0.00123498
     atom   29 type  3   force =     0.00031525   -0.00033334    0.00113271
     atom   30 type  3   force =     0.00062678   -0.00064726    0.00112513
     atom   31 type  1   force =     0.00001416    0.00344276    0.01021678

     Total force =     0.022319     Total SCF correction =     0.003572
     SCF correction compared to forces is large: reduce conv_thr to get better values

     BFGS Geometry Optimization

     number of scf cycles    =   1
     number of bfgs steps    =   0

     energy   new            =   -2279.8425634252 Ry

     new trust radius        =       0.0147403281 bohr
     new conv_thr            =       0.0000010000 Ry


ATOMIC_POSITIONS (crystal)
O0       0.000000000   0.000000000   0.377689752    0   0   1
O0       0.000000000   0.500000000   0.401657299    0   0   1
Pt1      0.250000000   0.500000000   0.451209165    0   0   1
Pt1      0.000000000   0.000000000   0.452688226    0   0   1
O0       0.250000000   0.810000000   0.443358254    0   0   1
O0       0.250000000   0.190000000   0.460114958    0   0   1
O0       0.000000000   0.500000000   0.496833419    0   0   1
O0       0.000000000   0.000000000   0.529776752    0   0   1
Pt1      0.250000000   0.000000000   0.575976199    0   0   1
Pt1      0.000000000   0.500000000   0.575267889    0   0   1
O0       0.250000000   0.690000000   0.566082508    0   0   1
O0       0.250000000   0.310000000   0.585809053    0   0   1
O0       0.000000000   0.000000000   0.621422227    0   0   1
O0       0.500000000   0.000000000   0.377770640    0   0   1
O0       0.500000000   0.500000000   0.400935418    0   0   1
Pt1      0.750000000   0.500000000   0.451216079    0   0   1
Pt1      0.500000000   0.000000000   0.452698570    0   0   1
O0       0.750000000   0.810000000   0.443398707    0   0   1
O0       0.750000000   0.190000000   0.460105074    0   0   1
O0       0.500000000   0.500000000   0.498252682    0   0   1
O0       0.500000000   0.000000000   0.529630252    0   0   1
Pt1      0.750000000   0.000000000   0.575982385    0   0   1
Pt1      0.500000000   0.500000000   0.577575554    0   0   1
O0       0.750000000   0.690000000   0.566072089    0   0   1
O0       0.750000000   0.310000000   0.585819197    0   0   1
O0       0.500000000   0.000000000   0.621420612    0   0   1
H2       0.000108641   0.639500119   0.385683183
H2       0.500176810   0.640089943   0.385354669
H2       0.142685824   0.036292825   0.367602627
H2       0.641971343   0.038637235   0.367602475
O0       0.500091160   0.572880660   0.644664086


     Check: negative starting charge=   -1.533958
     NEW-OLD atomic charge density approx. for the potential

     Check: negative/imaginary core charge=   -0.000003    0.000000
     Check: negative starting charge=   -1.533739

     negative rho (up, down):  0.158E+01 0.000E+00
 Atomic wfc used for LDA+U Projector are NOT orthogonalized

     total cpu time spent up to now is     7083.5 secs

     per-process dynamical memory:   453.4 Mb

     Self-consistent Calculation

     iteration #  1     ecut=    40.00 Ry     beta=0.70
     Davidson diagonalization with overlap
     ethr =  1.00E-06,  avg # of iterations =  3.1
 --- enter write_ns ---
 LDA+U parameters:
U( 2)     =  3.50000000
alpha( 2) =  0.00000000
atom    3   Tr[ns(na)] =   8.72064
    eigenvalues: 
  0.694  0.706  0.985  0.986  0.989
    eigenvectors:
  0.048  0.127  0.490  0.331  0.004
  0.735  0.265  0.000  0.000  0.000
  0.001  0.003  0.007  0.067  0.923
  0.216  0.605  0.107  0.062  0.009
  0.000  0.000  0.396  0.540  0.064
    occupations:
  0.936  0.003  0.007 -0.107 -0.000
  0.003  0.697  0.002  0.004 -0.004
  0.007  0.002  0.988  0.016  0.001
 -0.107  0.004  0.016  0.753  0.001
 -0.000 -0.004  0.001  0.001  0.986
atom    4   Tr[ns(na)] =   8.71112
    eigenvalues: 
  0.689  0.712  0.983  0.985  0.986
    eigenvectors:
  0.000  0.986  0.007  0.005  0.002
  0.008  0.000  0.171  0.770  0.050
  0.000  0.004  0.688  0.071  0.238
  0.000  0.009  0.133  0.148  0.710
  0.992  0.000  0.001  0.007  0.000
    occupations:
  0.715 -0.005 -0.017  0.026 -0.001
 -0.005  0.982  0.000  0.000  0.027
 -0.017  0.000  0.983  0.003  0.000
  0.026  0.000  0.003  0.983  0.000
 -0.001  0.027  0.000  0.000  0.692
atom    9   Tr[ns(na)] =   8.69253
    eigenvalues: 
  0.712  0.723  0.958  0.967  0.986
    eigenvectors:
  0.003  0.133  0.001  0.010  0.854
  0.978  0.022  0.000  0.000  0.000
  0.000  0.010  0.014  0.972  0.004
  0.019  0.835  0.001  0.005  0.141
  0.000  0.000  0.984  0.014  0.002
    occupations:
  0.950  0.001 -0.008 -0.090  0.001
  0.001  0.712  0.001  0.001 -0.004
 -0.008  0.001  0.965 -0.024  0.001
 -0.090  0.001 -0.024  0.761 -0.000
  0.001 -0.004  0.001 -0.000  0.958
atom   10   Tr[ns(na)] =   8.75859
    eigenvalues: 
  0.666  0.761  0.980  0.984  0.989
    eigenvectors:
  0.000  0.978  0.000  0.011  0.010
  0.011  0.000  0.989  0.000  0.000
  0.000  0.001  0.000  0.251  0.748
  0.000  0.020  0.000  0.737  0.242
  0.989  0.000  0.011  0.000  0.000
    occupations:
  0.766  0.000 -0.008  0.032  0.000
  0.000  0.976  0.000 -0.000 -0.033
 -0.008  0.000  0.987 -0.001 -0.000
  0.032 -0.000 -0.001  0.981 -0.000
  0.000 -0.033 -0.000 -0.000  0.669
atom   16   Tr[ns(na)] =   8.72068
    eigenvalues: 
  0.694  0.706  0.985  0.986  0.989
    eigenvectors:
  0.048  0.127  0.496  0.325  0.005
  0.736  0.263  0.000  0.000  0.000
  0.001  0.003  0.005  0.066  0.925
  0.215  0.607  0.108  0.060  0.009
  0.000  0.000  0.390  0.549  0.061
    occupations:
  0.936 -0.004  0.007 -0.107  0.000
 -0.004  0.697 -0.002 -0.004 -0.004
  0.007 -0.002  0.988  0.016 -0.001
 -0.107 -0.004  0.016  0.753 -0.000
  0.000 -0.004 -0.001 -0.000  0.986
atom   17   Tr[ns(na)] =   8.71130
    eigenvalues: 
  0.691  0.712  0.981  0.985  0.986
    eigenvectors:
  0.000  0.986  0.006  0.003  0.005
  0.009  0.000  0.059  0.905  0.027
  0.000  0.004  0.893  0.038  0.065
  0.000  0.009  0.042  0.046  0.903
  0.991  0.000  0.000  0.008  0.000
    occupations:
  0.716 -0.005 -0.017  0.026 -0.001
 -0.005  0.982  0.001  0.000  0.027
 -0.017  0.001  0.980  0.003  0.000
  0.026  0.000  0.003  0.983  0.000
 -0.001  0.027  0.000  0.000  0.693
atom   22   Tr[ns(na)] =   8.69254
    eigenvalues: 
  0.712  0.723  0.958  0.967  0.986
    eigenvectors:
[...]
    15.6842  15.7002  15.7837  15.7936  15.9384  16.0096  16.0614  16.1487
    16.1584  16.1804  16.2212  16.2798  16.2870  16.3231  16.3592  16.3759
    16.4237  16.4694  16.5022  16.6532  16.6823  16.7452  16.7486  16.7914
    16.8025  16.8300  16.8394  16.8714  16.8966  16.9475  17.0918  17.1280
    17.1968  17.2273  17.2430  17.3466  17.5547  17.6022  17.6246  17.6342
    17.7602  17.8005  17.8380  17.9405  17.9788  18.0168  18.0676  18.1642
    18.2098  18.3128  18.3380  18.4039  18.4149  18.4795  18.6430  18.6767
    18.7691  18.7897  18.8280  18.8384  18.8827  18.9811  19.0995  19.1146
    19.1710  19.2638  19.3158  19.3484  19.4309  19.4841  19.5399  19.5492
    19.5749  19.6108  19.6752  19.7566  19.8156  19.8380  19.9332  19.9612
    19.9766  20.0318  20.0969  20.1690  20.2396  20.2748  20.3289  20.3976
    20.4178  20.4498  20.5176  20.5304  20.5877  20.6005  20.6373  20.6708
    20.7413  20.7525  20.8429  20.8666  20.9429  21.1623  21.1810  21.2929
    21.3228  21.3788  21.4216  21.4412  21.6382  21.6854  21.7180  21.8031
    21.8289

          k =-0.5000 0.2488 0.0000 ( 32052 PWs)   bands (ev):

   -55.9222 -55.8603 -55.7385 -55.5973 -55.5960 -55.5889 -55.5883 -55.4925
   -55.4670 -55.4434 -55.4433 -55.4415 -55.4402 -55.3024 -55.2620 -55.2552
   -55.2546 -55.1903 -55.1593 -55.1585 -55.1491 -54.9097 -54.6686 -54.3492
   -22.1337 -21.9760 -21.0770 -21.0756 -20.9315 -20.9226 -20.6897 -20.6323
   -20.5669 -20.5235 -20.3953 -20.3779 -20.3116 -20.2539 -20.1516 -20.1298
   -19.4760 -19.2915 -19.0126 -10.3997 -10.2910 -10.0495 -10.0368  -9.9772
    -9.9160  -9.6580  -9.6285  -9.5031  -9.4813  -9.3539  -9.3343  -9.2489
    -9.2344  -8.9326  -8.9212  -8.6117  -8.5766  -8.4182  -8.3854  -8.2403
    -8.2318  -8.0766  -8.0095  -7.9122  -7.8684  -7.7339  -7.6643  -7.5486
    -7.4634  -7.3576  -7.3044  -7.1953  -7.1343  -6.9481  -6.9231  -6.8282
    -6.7560  -6.7003  -6.6145  -6.4456  -6.3104  -6.2703  -6.0459  -5.9892
    -5.8594  -5.8101  -5.6561  -5.4475  -5.2481  -5.2022  -5.0896  -4.6113
    -4.4458  -4.3744  -4.3330  -4.2169  -4.1611  -4.0871  -4.0314  -3.9295
    -3.7749  -3.6989  -3.6643  -3.5897  -3.4546  -3.3074  -3.1600  -3.0412
    -3.0080  -2.9237  -2.7987  -2.7668  -2.6325  -2.6016  -2.5025  -2.3796
    -2.2962  -2.2449  -2.1738  -1.8503  -1.6468  -0.6964  -0.6746  -0.5588
    -0.4030  -0.2899  -0.2322   0.0941   0.1276   0.4381   0.5252   0.7507
     0.7867   1.0896   1.3104   1.5763   3.9437   3.9569   4.2842   5.0323
     5.2314   5.4138   5.6379   5.6660   5.7262   5.9351   5.9511   6.0022
     6.2965   6.6524   6.6990   6.7356   6.7881   6.8899   7.0722   7.1611
     7.3079   7.5229   7.5535   7.6190   7.6641   7.7733   7.8557   7.9665
     8.0700   8.1681   8.1824   8.4108   8.4555   8.5580   8.5844   8.7472
     8.8276   9.0652   9.2045   9.2256   9.3519   9.4621   9.5393   9.5577
     9.7133   9.8950  10.0167  10.0437  10.3786  10.4667  10.5368  10.5771
    10.7766  10.7874  10.9382  10.9483  11.0253  11.0503  11.1694  11.2192
    11.3278  11.4110  11.5431  11.5885  11.6789  11.7776  11.8160  11.8541
    12.0721  12.1037  12.1665  12.2140  12.2902  12.3958  12.5259  12.5683
    12.6203  12.6887  12.7052  12.7517  12.8780  12.8888  12.9614  13.0314
    13.1075  13.1618  13.2326  13.2786  13.3147  13.3661  13.4069  13.5445
    13.5760  13.6634  13.8040  13.9054  13.9463  14.0307  14.0651  14.0916
    14.1670  14.2536  14.2911  14.3593  14.4371  14.4901  14.5496  14.5671
    14.6038  14.7315  14.7938  14.8789  14.9244  15.0428  15.1400  15.2539
    15.2874  15.3235  15.5591  15.6175  15.6983  15.7358  15.7697  15.8647
    15.9193  16.0002  16.0529  16.0754  16.1676  16.2277  16.2564  16.2981
    16.3178  16.3718  16.4335  16.5165  16.5378  16.6123  16.6295  16.6814
    16.7402  16.7488  16.7972  16.8126  16.8580  16.8759  16.8998  16.9282
    17.0005  17.1080  17.1289  17.1708  17.2558  17.3008  17.3459  17.3815
    17.4751  17.5536  17.5767  17.6144  17.6985  17.8040  17.8837  17.9483
    18.0225  18.0423  18.0989  18.1158  18.1836  18.2294  18.2493  18.3761
    18.4065  18.4831  18.5113  18.6261  18.6397  18.7413  18.7808  18.8594
    18.9055  18.9425  19.0320  19.0689  19.2264  19.2587  19.3063  19.3391
    19.3891  19.4885  19.5281  19.6074  19.6476  19.7205  19.8253  19.8511
    19.8989  19.9506  20.0023  20.1181  20.2787  20.3250  20.3605  20.5001
    20.5552  20.5968  20.6916  20.7573  20.8045  20.8920  20.9805  21.0350
    21.0742  21.1100  21.1520  21.2662  21.2932  21.4290  21.5141  21.5579
    21.6953  21.7151  21.7607  21.8055  21.8656  21.9056  21.9615  22.0317
    22.0760

          k =-0.5000-0.4976 0.0000 ( 31956 PWs)   bands (ev):

   -55.9222 -55.8602 -55.7383 -55.5972 -55.5958 -55.5888 -55.5882 -55.4926
   -55.4672 -55.4434 -55.4433 -55.4411 -55.4398 -55.3024 -55.2616 -55.2554
   -55.2547 -55.1903 -55.1594 -55.1585 -55.1491 -54.9096 -54.6685 -54.3492
   -22.1295 -21.9711 -20.9072 -20.9005 -20.8300 -20.7921 -20.7170 -20.6910
   -20.6677 -20.6597 -20.4802 -20.4451 -20.4102 -20.3379 -20.1654 -20.1399
   -19.4764 -19.2915 -19.0125 -10.3706 -10.2476  -9.7280  -9.7140  -9.6129
    -9.5586  -9.4451  -9.4387  -9.4094  -9.3529  -9.2926  -9.2359  -9.1873
    -9.1492  -8.9596  -8.9420  -8.8957  -8.8679  -8.8147  -8.6256  -8.5628
    -8.3825  -7.9943  -7.9639  -7.9197  -7.8782  -7.7909  -7.7272  -7.5870
    -7.4612  -7.4151  -7.3394  -7.1889  -7.1705  -7.1453  -7.0693  -7.0426
    -6.9741  -6.9573  -6.7954  -6.5147  -6.3913  -6.2594  -6.2238  -5.9680
    -5.9201  -5.7591  -5.7115  -5.5015  -5.2219  -5.0977  -5.0329  -4.5543
    -4.2140  -4.1765  -4.0889  -4.0775  -3.9840  -3.9193  -3.9177  -3.7729
    -3.6998  -3.6892  -3.6202  -3.6164  -3.4349  -3.3971  -3.3784  -3.0326
    -3.0145  -3.0134  -2.8003  -2.7436  -2.6328  -2.5660  -2.5409  -2.4473
    -2.3438  -2.3340  -2.1594  -1.8785  -1.6411  -1.0251  -0.9163  -0.8919
    -0.5887  -0.3949  -0.1965   0.1563   0.1827   0.7166   0.8676   0.8979
     0.9563   1.2840   1.3304   1.4256   4.4003   4.5064   4.5196   4.9124
     4.9316   5.6326   5.7872   5.8741   5.8820   6.0467   6.1109   6.1610
     6.3071   6.4891   6.4999   6.5972   6.6125   6.6197   6.6319   6.7325
     7.0532   7.1674   7.2784   7.3381   7.4523   7.5108   7.5562   7.5746
     7.8886   8.0145   8.2702   8.3219   8.3508   8.5370   8.5645   8.8484
     8.8588   8.9889   8.9979   9.2849   9.3325   9.4049   9.4328   9.5093
     9.6484   9.7546  10.1495  10.2243  10.3725  10.5989  10.6479  10.6632
    10.7676  10.8207  11.2285  11.2556  11.4522  11.5572  11.7069  11.7389
    11.9009  11.9471  11.9606  11.9944  12.1236  12.1816  12.3391  12.3819
    12.5737  12.6230  12.6468  12.7689  12.8009  12.8148  12.8893  12.8985
    13.0847  13.1107  13.1161  13.1435  13.1973  13.2568  13.2744  13.3032
    13.3205  13.3395  13.5233  13.5381  13.5766  13.6013  13.6220  13.6378
    13.6737  13.7244  13.7591  13.7933  13.8211  13.8396  13.8468  13.9015
    13.9454  13.9674  14.0202  14.0741  14.2910  14.3377  14.3960  14.4700
    14.4950  14.6392  14.6879  14.7367  14.7685  14.7965  14.8177  14.8259
    14.8878  14.9245  14.9625  14.9663  15.0273  15.0922  15.2541  15.2713
    15.3075  15.3814  15.4604  15.4705  15.5260  15.5832  15.6661  15.7694
    15.7814  15.8188  16.1097  16.1761  16.3270  16.3559  16.3670  16.4515
    16.4982  16.5263  16.5628  16.5995  16.6541  16.6645  16.7075  16.7525
    16.7539  16.8041  16.8385  16.8943  16.9290  17.0399  17.1255  17.1986
    17.2782  17.4108  17.5190  17.5877  17.6468  17.6715  17.7878  17.8375
    17.9161  17.9431  17.9870  17.9999  18.1728  18.2978  18.3861  18.4955
    18.5474  18.5858  18.6369  18.7599  18.8526  18.9086  18.9690  18.9956
    19.1311  19.2095  19.2729  19.3316  19.3704  19.5140  19.6375  19.6910
    19.7093  19.7725  19.8500  19.9434  19.9920  20.0376  20.1170  20.1996
    20.2773  20.3461  20.4337  20.4900  20.5047  20.5099  20.5628  20.6609
    20.6725  20.7266  20.8056  20.8234  20.8607  20.8681  21.0001  21.0295
    21.0507  21.0985  21.1577  21.1729  21.2450  21.2573  21.3060  21.3176
    21.3592  21.4108  21.4474  21.4982  21.5127  21.6166  21.6519  21.7171
    21.7364

          k =-0.2500 0.2488 0.0000 ( 32025 PWs)   bands (ev):

   -55.9221 -55.8595 -55.7384 -55.6147 -55.6077 -55.5764 -55.5673 -55.5018
   -55.4554 -55.4446 -55.4428 -55.4419 -55.4385 -55.3024 -55.2619 -55.2568
   -55.2526 -55.1903 -55.1614 -55.1561 -55.1491 -54.9082 -54.6685 -54.3491
   -22.2136 -21.9586 -21.3314 -21.1984 -20.8752 -20.7827 -20.7741 -20.6247
   -20.5614 -20.5071 -20.4097 -20.3354 -20.3262 -20.1566 -20.0872 -20.0750
   -19.4485 -19.1786 -19.0058 -10.7697 -10.5505 -10.4418 -10.3708  -9.9376
    -9.8706  -9.7850  -9.5910  -9.5240  -9.4782  -9.4070  -9.3669  -9.1870
    -9.0719  -9.0449  -8.9199  -8.8958  -8.7118  -8.3635  -8.3116  -8.1525
    -8.1325  -8.0502  -7.8951  -7.8151  -7.6400  -7.5518  -7.3890  -7.3393
    -7.2852  -7.1938  -7.1085  -6.9752  -6.9289  -6.9137  -6.8119  -6.7662
    -6.6653  -6.5637  -6.5018  -6.3045  -6.1800  -6.1028  -5.9157  -5.7999
    -5.6380  -5.5229  -5.4608  -5.3415  -5.2806  -5.2068  -5.0158  -4.9309
    -4.8322  -4.7246  -4.5584  -4.4770  -4.3323  -4.2091  -4.1134  -4.0707
    -3.9556  -3.9218  -3.8382  -3.7331  -3.6323  -3.5960  -3.3307  -3.2876
    -3.1841  -2.9476  -2.8212  -2.6803  -2.6481  -2.5507  -2.5016  -2.3871
    -2.1900  -2.0648  -1.9441  -1.8434  -1.6950  -1.2234  -1.0979  -0.7702
    -0.4192  -0.2671   0.0339   0.3201   0.5537   0.6949   0.7274   0.8649
     1.0692   1.2580   1.3271   1.6893   3.0659   3.8278   4.5932   5.0136
     5.0408   5.1143   5.3112   5.6486   6.0771   6.1523   6.1793   6.3196
     6.4371   6.5262   6.6746   6.8489   6.9372   6.9876   7.1019   7.2171
     7.3578   7.4775   7.5546   7.5795   7.6843   7.8643   7.9276   8.0271
     8.1564   8.2516   8.2990   8.4451   8.5486   8.6423   8.6642   8.7712
     8.8584   9.0005   9.1310   9.2848   9.3458   9.4673   9.5315   9.5951
     9.6957   9.8724  10.0188  10.1055  10.1892  10.2506  10.3153  10.3854
    10.5235  10.5803  10.6522  10.7660  10.7966  10.9567  11.0478  11.0802
    11.1694  11.1999  11.3684  11.4554  11.4822  11.7096  11.7375  11.7780
    11.8632  11.9445  11.9928  12.0718  12.1367  12.2372  12.2633  12.3268
    12.4097  12.4503  12.5193  12.5721  12.6370  12.7368  12.8145  12.9114
    12.9519  13.0318  13.1687  13.1958  13.2290  13.4363  13.5111  13.5547
    13.6324  13.6916  13.7665  13.8591  13.9198  13.9632  14.0402  14.1209
    14.1819  14.3092  14.4125  14.5099  14.5527  14.6317  14.7562  14.8388
    14.8740  14.9411  15.1112  15.2150  15.2521  15.3288  15.4118  15.4515
    15.5290  15.5829  15.6398  15.6726  15.7585  15.7728  15.8220  15.8894
    15.9983  16.0539  16.0821  16.1554  16.1747  16.2430  16.3166  16.3652
    16.4438  16.5063  16.5775  16.7161  16.7349  16.7433  16.7802  16.7943
    16.8093  16.8415  16.8764  16.8920  16.9272  16.9369  17.0328  17.1082
    17.1481  17.2047  17.2116  17.2590  17.2941  17.3664  17.4645  17.5031
    17.5418  17.5852  17.6071  17.6617  17.7376  17.7844  17.9016  17.9536
    18.0382  18.0823  18.1348  18.2351  18.2626  18.3804  18.4826  18.5159
    18.5907  18.6208  18.6847  18.7200  18.8215  18.8566  18.8969  19.0200
    19.0443  19.1605  19.1809  19.2076  19.3125  19.3608  19.4391  19.4641
    19.6388  19.7677  19.8178  19.8785  19.9448  19.9610  19.9827  20.0677
    20.1180  20.2204  20.2407  20.3036  20.3682  20.3873  20.4933  20.5788
    20.6456  20.6971  20.7527  20.8446  20.9235  20.9653  21.0183  21.0607
    21.0742  21.2288  21.2665  21.3747  21.4076  21.4642  21.5104  21.5549
    21.6056  21.6563  21.7282  21.7834  21.8272  21.8908  21.9967  22.0919
    22.1338

     the Fermi energy is    -1.8942 ev

!    total energy              =   -2279.84327086 Ry
     Harris-Foulkes estimate   =   -2279.84327086 Ry
     estimated scf accuracy    <          1.3E-09 Ry

     The total energy is the sum of the following terms:

     one-electron contribution =  -23663.43187306 Ry
     hartree contribution      =   11873.11780148 Ry
     xc contribution           =    -572.06431457 Ry
     ewald contribution        =   10081.55977375 Ry
     Hubbard energy            =       0.97559052 Ry
     smearing contrib. (-TS)   =      -0.00024897 Ry

     convergence has been achieved in  15 iterations

     Forces acting on atoms (Ry/au):


     negative rho (up, down):  0.158E+01 0.000E+00
     atom    1 type  1   force =    -0.00864741   -0.00418435   -0.00040207
     atom    2 type  1   force =     0.00014378    0.00416560    0.00033448
     atom    3 type  2   force =     0.01591300    0.00565322   -0.00000797
     atom    4 type  2   force =     0.01063468    0.00474231   -0.00020783
     atom    5 type  1   force =     0.00121178   -0.00370744    0.00029197
     atom    6 type  1   force =    -0.00018882   -0.00288543   -0.00016284
     atom    7 type  1   force =     0.00007527    0.00064452   -0.00047274
     atom    8 type  1   force =    -0.00416740    0.00253374   -0.00010186
     atom    9 type  2   force =     0.00458308   -0.00473380    0.00022241
     atom   10 type  2   force =    -0.00001129   -0.02000015   -0.00081996
     atom   11 type  1   force =    -0.00292631    0.00201927    0.00004621
     atom   12 type  1   force =    -0.00915716    0.01470403    0.00015271
     atom   13 type  1   force =    -0.00110614   -0.00851548    0.00010794
     atom   14 type  1   force =    -0.00861009   -0.00299922   -0.00054726
     atom   15 type  1   force =     0.00016743    0.00196306    0.00039275
     atom   16 type  2   force =    -0.01669313    0.00552898   -0.00000678
     atom   17 type  2   force =     0.01050462    0.00494582   -0.00024686
     atom   18 type  1   force =     0.00125245   -0.00363766    0.00029103
     atom   19 type  1   force =     0.00022833   -0.00279822   -0.00015958
     atom   20 type  1   force =     0.00007709   -0.00445464   -0.00005855
     atom   21 type  1   force =    -0.00404069    0.00239260    0.00006953
     atom   22 type  2   force =    -0.00086223   -0.00461831    0.00022315
     atom   23 type  2   force =    -0.00018587    0.01477461    0.00045566
     atom   24 type  1   force =     0.00304106    0.00207464    0.00004275
     atom   25 type  1   force =     0.00928592    0.01465915    0.00015800
     atom   26 type  1   force =    -0.00107170   -0.01790934    0.00046376
     atom   27 type  3   force =    -0.00000951   -0.00026980   -0.00005284
     atom   28 type  3   force =    -0.00002044   -0.00028969   -0.00009158
     atom   29 type  3   force =     0.00024568   -0.00017815    0.00015102
     atom   30 type  3   force =     0.00033923   -0.00036635    0.00012837
     atom   31 type  1   force =    -0.00000521    0.00074648   -0.00019302

     Total force =     0.001923     Total SCF correction =     0.000187

     bfgs converged in  14 scf cycles and  13 bfgs steps
     (criteria: energy < 0.10E-03, force < 0.10E-02)

     End of BFGS Geometry Optimization

     Final energy   =   -2279.8432708614 Ry
Begin final coordinates

ATOMIC_POSITIONS (crystal)
O0       0.000000000   0.000000000   0.377709904    0   0   1
O0       0.000000000   0.500000000   0.401778545    0   0   1
Pt1      0.250000000   0.500000000   0.451256123    0   0   1
Pt1      0.000000000   0.000000000   0.452749646    0   0   1
O0       0.250000000   0.810000000   0.442741534    0   0   1
O0       0.250000000   0.190000000   0.460924866    0   0   1
O0       0.000000000   0.500000000   0.496807165    0   0   1
O0       0.000000000   0.000000000   0.529861669    0   0   1
Pt1      0.250000000   0.000000000   0.576014255    0   0   1
Pt1      0.000000000   0.500000000   0.574919617    0   0   1
O0       0.250000000   0.690000000   0.564982670    0   0   1
O0       0.250000000   0.310000000   0.586267306    0   0   1
O0       0.000000000   0.000000000   0.621422743    0   0   1
O0       0.500000000   0.000000000   0.377807464    0   0   1
O0       0.500000000   0.500000000   0.401117740    0   0   1
Pt1      0.750000000   0.500000000   0.451258592    0   0   1
Pt1      0.500000000   0.000000000   0.452764896    0   0   1
O0       0.750000000   0.810000000   0.442770297    0   0   1
O0       0.750000000   0.190000000   0.460925341    0   0   1
O0       0.500000000   0.500000000   0.498126617    0   0   1
O0       0.500000000   0.000000000   0.529711028    0   0   1
Pt1      0.750000000   0.000000000   0.576016673    0   0   1
Pt1      0.500000000   0.500000000   0.577261434    0   0   1
O0       0.750000000   0.690000000   0.564966231    0   0   1
O0       0.750000000   0.310000000   0.586270249    0   0   1
O0       0.500000000   0.000000000   0.621459811    0   0   1
H2       0.000099414   0.640403890   0.386266120
H2       0.500089608   0.640962172   0.386012718
H2       0.143177141   0.034996109   0.367749023
H2       0.642856306   0.036105986   0.367793643
O0       0.500120576   0.577501377   0.643956083
End final coordinates



     init_run     :    110.88s CPU    114.99s WALL (       1 calls)
     electrons    :  42441.12s CPU  43698.55s WALL (      14 calls)
     update_pot   :    275.10s CPU    282.40s WALL (      13 calls)
     forces       :   1800.15s CPU   1844.27s WALL (      14 calls)

     Called by init_run:
     wfcinit      :     40.15s CPU     41.62s WALL (       1 calls)
     potinit      :      7.63s CPU      7.76s WALL (       1 calls)

     Called by electrons:
     c_bands      :  23187.41s CPU  23870.72s WALL (     233 calls)
     sum_band     :   8345.45s CPU   8567.49s WALL (     233 calls)
     v_of_rho     :    254.62s CPU    268.01s WALL (     235 calls)
     newd         :  11113.36s CPU  11206.77s WALL (     235 calls)
     mix_rho      :     44.27s CPU     45.74s WALL (     233 calls)

     Called by c_bands:
     init_us_2    :     50.81s CPU     51.41s WALL (    1527 calls)
     cegterg      :  22846.16s CPU  23397.37s WALL (     699 calls)

     Called by *egterg:
     h_psi        :  13082.16s CPU  13385.30s WALL (    1830 calls)
     s_psi        :   1368.30s CPU   1384.42s WALL (    1914 calls)
     g_psi        :     29.31s CPU     29.31s WALL (    1128 calls)
     cdiaghg      :   1920.18s CPU   1927.12s WALL (    1752 calls)

     Called by h_psi:
     add_vuspsi   :   1319.34s CPU   1336.59s WALL (    1830 calls)
     vhpsi        :   1351.20s CPU   1365.35s WALL (    1830 calls)

     General routines
     calbec       :   3286.99s CPU   3323.64s WALL (   16944 calls)
     fft          :    323.78s CPU    385.16s WALL (    3919 calls)
     ffts         :      4.17s CPU      4.27s WALL (     468 calls)
     fftw         :   7615.90s CPU   7953.07s WALL ( 1335237 calls)
     interpolate  :     40.12s CPU     40.59s WALL (     468 calls)
     davcio       :      0.12s CPU     27.38s WALL (    1569 calls)

     Parallel routines
     fft_scatter  :   2804.22s CPU   3184.09s WALL ( 1339624 calls)
     Hubbard U routines
     new_ns       :    306.31s CPU    324.29s WALL (     233 calls)
     vhpsi        :   1351.20s CPU   1365.35s WALL (    1830 calls)
     force_hub    :    512.11s CPU    530.26s WALL (      14 calls)

     PWSCF        :    12h35m CPU       12h57m WALL


   This run was terminated on:  15:20:44  28Apr2014            

=------------------------------------------------------------------------------=
   JOB DONE.
=------------------------------------------------------------------------------=
---------------------------------------
Running PBS batch system epilogue script
Job id: 340474.audhumbla.fysik.dtu.dk
Username: zhonxu
Groupname: campgst
Jobname: PtO2/Eads-2-layers/O-U-3.5
Sessionid: 18205
Resources limits: neednodes=2:ppn=8:xeon8,nodes=2:ppn=8:xeon8,walltime=48:00:00
Resources used: cput=207:03:56,mem=18657780kb,vmem=22579552kb,walltime=12:57:15
Queuename: verylong
Accounting:
This job has allocated the following 16 nodes:
c009 c009 c009 c009 c009 c009 c009 c009 c007 c007 c007 c007 c007 c007 c007 c007
Finished epilogue job 340474.audhumbla.fysik.dtu.dk for zhonxu
