
     Program PWSCF v.5.0.2 (svn rev. 9656) starts on  2May2014 at 10: 6:20 

     This program is part of the open-source Quantum ESPRESSO suite
     for quantum simulation of materials; please cite
         "P. Giannozzi et al., J. Phys.:Condens. Matter 21 395502 (2009);
          URL http://www.quantum-espresso.org", 
     in publications or presentations arising from this work. More details at
     http://www.quantum-espresso.org/quote.php

     Parallel version (MPI), running on    16 processors
     K-points division:     npool     =       4
     R & G space division:  proc/nbgrp/npool/nimage =       4

     Current dimensions of program PWSCF are:
     Max number of different atomic species (ntypx) = 10
     Max number of k-points (npk) =  40000
     Max angular momentum in pseudopotentials (lmaxx) =  3
     Reading input from pwscf.in
Warning: card &CELL ignored
Warning: card / ignored

     Subspace diagonalization in iterative solution of the eigenvalue problem:
     a serial algorithm will be used


     Parallelization info
     --------------------
     sticks:   dense  smooth     PW     G-vecs:    dense   smooth      PW
     Min        1244     397    112               291872    52833    7934
     Max        1245     398    113               291883    52857    7939
     Sum        4979    1589    451              1167509   211387   31747



     bravais-lattice index     =            0
     lattice parameter (alat)  =      10.7336  a.u.
     unit-cell volume          =    6184.1966 (a.u.)^3
     number of atoms/cell      =           31
     number of atomic types    =            3
     number of electrons       =       238.00 (up: 130.00, down: 108.00)
     number of Kohn-Sham states=          345
     kinetic-energy cutoff     =      40.0000  Ry
     charge density cutoff     =     500.0000  Ry
     convergence threshold     =      1.0E-06
     mixing beta               =       0.7000
     number of iterations used =            8  plain     mixing
     Exchange-correlation      = SLA  PW   PBE  PBE ( 1 4 3 4 0)
     EXX-fraction              =        0.00
     nstep                     =           50


     celldm(1)=  10.733644  celldm(2)=   0.000000  celldm(3)=   0.000000
     celldm(4)=   0.000000  celldm(5)=   0.000000  celldm(6)=   0.000000

     crystal axes: (cart. coord. in units of alat)
               a(1) = (   1.000000   0.000000   0.000000 )  
               a(2) = (   0.000000   1.085558   0.000000 )  
               a(3) = (   0.000000   0.000000   4.606685 )  

     reciprocal axes: (cart. coord. in units 2 pi/alat)
               b(1) = (  1.000000  0.000000  0.000000 )  
               b(2) = (  0.000000  0.921185  0.000000 )  
               b(3) = (  0.000000  0.000000  0.217076 )  


     PseudoPot. # 1 for O  read from file:
     /home/camp/zhonxu/pseudo/o_pbe_v1.01.uspp.F.UPF
     MD5 check sum: 2bcb18d16ea4b960afae9ec6d52f22d2
     Pseudo is Ultrasoft + core correction, Zval =  6.0
     Generated by new atomic code, or converted to UPF format
     Using radial grid of  737 points,  5 beta functions with: 
                l(1) =   0
                l(2) =   0
                l(3) =   1
                l(4) =   1
                l(5) =   2
     Q(r) pseudized with  8 coefficients,  rinner =    0.900   0.900   0.900
                                                       0.900   0.900

     PseudoPot. # 2 for Mn read from file:
     /home/camp/zhonxu/pseudo/mn_pbe_v1.uspp.F.UPF
     MD5 check sum: 5fd7c7b5c956fd19902447332617373a
     Pseudo is Ultrasoft + core correction, Zval = 15.0
     Generated by new atomic code, or converted to UPF format
     Using radial grid of  859 points,  6 beta functions with: 
                l(1) =   0
                l(2) =   0
                l(3) =   1
                l(4) =   1
                l(5) =   2
                l(6) =   2
     Q(r) pseudized with  6 coefficients,  rinner =    1.150   1.150   1.150
                                                       1.150   1.150

     PseudoPot. # 3 for H  read from file:
     /home/camp/zhonxu/pseudo/h_pbe_v1.uspp.F.UPF
     MD5 check sum: 3408e3ff4ec8b0a4e358431e7e038a48
     Pseudo is Ultrasoft, Zval =  1.0
     Generated by new atomic code, or converted to UPF format
     Using radial grid of  615 points,  2 beta functions with: 
                l(1) =   0
                l(2) =   0
     Q(r) pseudized with  8 coefficients,  rinner =    0.700

     atomic species   valence    mass     pseudopotential
        O0             6.00    15.99940     O ( 1.00)
        Mn1           15.00    54.93800     Mn( 1.00)
        H2             1.00     1.00794     H ( 1.00)

     Starting magnetic structure 
     atomic species   magnetization
        O0           0.000
        Mn1          0.600
        H2           0.000


     Simplified LDA+U calculation (l_max = 2) with parameters (eV):
     atomic species    L          U    alpha       J0     beta
        Mn1            2     2.5000   0.0000   0.0000   0.0000



     No symmetry found



   Cartesian axes

     site n.     atom                  positions (alat units)
         1           O0  tau(   1) = (   0.0000000   0.0000000   1.7399910  )
         2           O0  tau(   2) = (   0.0000000   0.5427791   1.8336449  )
         3           Mn1 tau(   3) = (   0.2500000   0.5427791   2.0703364  )
         4           Mn1 tau(   4) = (   0.0000000   0.0000000   2.0664668  )
         5           O0  tau(   5) = (   0.2500000   0.8684466   2.0675263  )
         6           O0  tau(   6) = (   0.2500000   0.2171117   2.0713959  )
         7           O0  tau(   7) = (   0.0000000   0.5427791   2.2853304  )
         8           O0  tau(   8) = (   0.0000000   0.0000000   2.4130738  )
         9           Mn1 tau(   9) = (   0.2500000   0.0000000   2.6404597  )
        10           Mn1 tau(  10) = (   0.0000000   0.5427791   2.6100556  )
        11           O0  tau(  11) = (   0.2500000   0.7598908   2.6550169  )
        12           O0  tau(  12) = (   0.2500000   0.3256675   2.6553393  )
        13           O0  tau(  13) = (   0.0000000   0.0000000   2.8422786  )
        14           O0  tau(  14) = (   0.5000000   0.0000000   1.7417876  )
        15           O0  tau(  15) = (   0.5000000   0.5427791   1.8324472  )
        16           Mn1 tau(  16) = (   0.7500000   0.5427791   2.0703364  )
        17           Mn1 tau(  17) = (   0.5000000   0.0000000   2.0689544  )
        18           O0  tau(  18) = (   0.7500000   0.8684466   2.0673421  )
        19           O0  tau(  19) = (   0.7500000   0.2171117   2.0716263  )
        20           O0  tau(  20) = (   0.5000000   0.5427791   2.2770384  )
        21           O0  tau(  21) = (   0.5000000   0.0000000   2.4133962  )
        22           Mn1 tau(  22) = (   0.7500000   0.0000000   2.6405058  )
        23           Mn1 tau(  23) = (   0.5000000   0.5427791   2.7093297  )
        24           O0  tau(  24) = (   0.7500000   0.7598908   2.6549708  )
        25           O0  tau(  25) = (   0.7500000   0.3256675   2.6552472  )
        26           O0  tau(  26) = (   0.5000000   0.0000000   2.8420483  )
        27           H2  tau(  27) = (   0.0000300   0.7005108   1.7564369  )
        28           H2  tau(  28) = (   0.5000400   0.7015529   1.7568515  )
        29           H2  tau(  29) = (   0.1610500   0.0407627   1.6853097  )
        30           H2  tau(  30) = (   0.6609300   0.0408604   1.6868759  )
        31           O0  tau(  31) = (   0.5000700   0.5432134   2.9889094  )

     number of k points=    20  Methfessel-Paxton smearing, width (Ry)=  0.0100
                       cart. coord. in units 2pi/alat
        k(    1) = (   0.0000000   0.0000000   0.0000000), wk =   0.0625000
        k(    2) = (   0.0000000   0.2302962   0.0000000), wk =   0.1250000
        k(    3) = (   0.0000000  -0.4605925   0.0000000), wk =   0.0625000
        k(    4) = (   0.2500000   0.0000000   0.0000000), wk =   0.1250000
        k(    5) = (   0.2500000   0.2302962   0.0000000), wk =   0.1250000
        k(    6) = (   0.2500000  -0.4605925   0.0000000), wk =   0.1250000
        k(    7) = (  -0.5000000   0.0000000   0.0000000), wk =   0.0625000
        k(    8) = (  -0.5000000   0.2302962   0.0000000), wk =   0.1250000
        k(    9) = (  -0.5000000  -0.4605925   0.0000000), wk =   0.0625000
        k(   10) = (  -0.2500000   0.2302962   0.0000000), wk =   0.1250000
        k(   11) = (   0.0000000   0.0000000   0.0000000), wk =   0.0625000
        k(   12) = (   0.0000000   0.2302962   0.0000000), wk =   0.1250000
        k(   13) = (   0.0000000  -0.4605925   0.0000000), wk =   0.0625000
        k(   14) = (   0.2500000   0.0000000   0.0000000), wk =   0.1250000
        k(   15) = (   0.2500000   0.2302962   0.0000000), wk =   0.1250000
        k(   16) = (   0.2500000  -0.4605925   0.0000000), wk =   0.1250000
        k(   17) = (  -0.5000000   0.0000000   0.0000000), wk =   0.0625000
        k(   18) = (  -0.5000000   0.2302962   0.0000000), wk =   0.1250000
        k(   19) = (  -0.5000000  -0.4605925   0.0000000), wk =   0.0625000
        k(   20) = (  -0.2500000   0.2302962   0.0000000), wk =   0.1250000

     Dense  grid:  1167509 G-vectors     FFT dimensions: (  80,  90, 360)

     Smooth grid:   211387 G-vectors     FFT dimensions: (  45,  48, 200)

     Largest allocated arrays     est. size (Mb)     dimensions
        Kohn-Sham Wavefunctions        34.96 Mb     (   6641,  345)
        Atomic wavefunctions           18.65 Mb     (   6641,  184)
        NL pseudopotentials            40.43 Mb     (   6641,  399)
        Each V/rho on FFT grid         19.78 Mb     ( 648000,   2)
        Each G-vector array             2.23 Mb     ( 291883)
        G-vector shells                 0.97 Mb     ( 127585)
     Largest temporary arrays     est. size (Mb)     dimensions
        Auxiliary wavefunctions       139.84 Mb     (   6641, 1380)
        Each subspace H/S matrix       29.06 Mb     (1380,1380)
        Each <psi_i|beta_j> matrix      2.10 Mb     (    399,  345)
        Arrays for rho mixing          79.10 Mb     ( 648000,   8)

     Check: negative/imaginary core charge=   -0.000022    0.000000

     Initial potential from superposition of free atoms
     Check: negative starting charge=(component1):   -0.000737
     Check: negative starting charge=(component2):   -0.000364

     starting charge  229.99987, renormalised to  238.00000

     negative rho (up, down):  0.762E-03 0.377E-03
     Number of +U iterations with fixed ns =  0
     Starting occupations:
 --- enter write_ns ---
 LDA+U parameters:
U( 2)     =  2.50000000
alpha( 2) =  0.00000000
atom    3   Tr[ns(na)] (up, down, total) =   5.00000  0.00000  5.00000
   spin  1
    eigenvalues: 
  1.000  1.000  1.000  1.000  1.000
    eigenvectors:
  1.000  0.000  0.000  0.000  0.000
  0.000  1.000  0.000  0.000  0.000
  0.000  0.000  1.000  0.000  0.000
  0.000  0.000  0.000  1.000  0.000
  0.000  0.000  0.000  0.000  1.000
    occupations:
  1.000  0.000  0.000  0.000  0.000
  0.000  1.000  0.000  0.000  0.000
  0.000  0.000  1.000  0.000  0.000
  0.000  0.000  0.000  1.000  0.000
  0.000  0.000  0.000  0.000  1.000
   spin  2
    eigenvalues: 
  0.000  0.000  0.000  0.000  0.000
    eigenvectors:
  1.000  0.000  0.000  0.000  0.000
  0.000  1.000  0.000  0.000  0.000
  0.000  0.000  1.000  0.000  0.000
  0.000  0.000  0.000  1.000  0.000
  0.000  0.000  0.000  0.000  1.000
    occupations:
  0.000  0.000  0.000  0.000  0.000
  0.000  0.000  0.000  0.000  0.000
  0.000  0.000  0.000  0.000  0.000
  0.000  0.000  0.000  0.000  0.000
  0.000  0.000  0.000  0.000  0.000
atomic mag. moment =     5.000000
atom    4   Tr[ns(na)] (up, down, total) =   5.00000  0.00000  5.00000
   spin  1
    eigenvalues: 
  1.000  1.000  1.000  1.000  1.000
    eigenvectors:
  1.000  0.000  0.000  0.000  0.000
  0.000  1.000  0.000  0.000  0.000
  0.000  0.000  1.000  0.000  0.000
  0.000  0.000  0.000  1.000  0.000
  0.000  0.000  0.000  0.000  1.000
    occupations:
  1.000  0.000  0.000  0.000  0.000
  0.000  1.000  0.000  0.000  0.000
  0.000  0.000  1.000  0.000  0.000
  0.000  0.000  0.000  1.000  0.000
  0.000  0.000  0.000  0.000  1.000
   spin  2
    eigenvalues: 
  0.000  0.000  0.000  0.000  0.000
    eigenvectors:
  1.000  0.000  0.000  0.000  0.000
  0.000  1.000  0.000  0.000  0.000
  0.000  0.000  1.000  0.000  0.000
  0.000  0.000  0.000  1.000  0.000
  0.000  0.000  0.000  0.000  1.000
    occupations:
  0.000  0.000  0.000  0.000  0.000
  0.000  0.000  0.000  0.000  0.000
  0.000  0.000  0.000  0.000  0.000
  0.000  0.000  0.000  0.000  0.000
  0.000  0.000  0.000  0.000  0.000
atomic mag. moment =     5.000000
atom    9   Tr[ns(na)] (up, down, total) =   5.00000  0.00000  5.00000
   spin  1
    eigenvalues: 
  1.000  1.000  1.000  1.000  1.000
    eigenvectors:
  1.000  0.000  0.000  0.000  0.000
  0.000  1.000  0.000  0.000  0.000
  0.000  0.000  1.000  0.000  0.000
  0.000  0.000  0.000  1.000  0.000
  0.000  0.000  0.000  0.000  1.000
    occupations:
  1.000  0.000  0.000  0.000  0.000
  0.000  1.000  0.000  0.000  0.000
  0.000  0.000  1.000  0.000  0.000
  0.000  0.000  0.000  1.000  0.000
  0.000  0.000  0.000  0.000  1.000
   spin  2
    eigenvalues: 
  0.000  0.000  0.000  0.000  0.000
    eigenvectors:
  1.000  0.000  0.000  0.000  0.000
  0.000  1.000  0.000  0.000  0.000
  0.000  0.000  1.000  0.000  0.000
  0.000  0.000  0.000  1.000  0.000
  0.000  0.000  0.000  0.000  1.000
    occupations:
  0.000  0.000  0.000  0.000  0.000
  0.000  0.000  0.000  0.000  0.000
  0.000  0.000  0.000  0.000  0.000
  0.000  0.000  0.000  0.000  0.000
  0.000  0.000  0.000  0.000  0.000
atomic mag. moment =     5.000000
atom   10   Tr[ns(na)] (up, down, total) =   5.00000  0.00000  5.00000
   spin  1
    eigenvalues: 
  1.000  1.000  1.000  1.000  1.000
    eigenvectors:
  1.000  0.000  0.000  0.000  0.000
  0.000  1.000  0.000  0.000  0.000
  0.000  0.000  1.000  0.000  0.000
  0.000  0.000  0.000  1.000  0.000
  0.000  0.000  0.000  0.000  1.000
    occupations:
  1.000  0.000  0.000  0.000  0.000
  0.000  1.000  0.000  0.000  0.000
  0.000  0.000  1.000  0.000  0.000
  0.000  0.000  0.000  1.000  0.000
  0.000  0.000  0.000  0.000  1.000
   spin  2
    eigenvalues: 
  0.000  0.000  0.000  0.000  0.000
    eigenvectors:
  1.000  0.000  0.000  0.000  0.000
  0.000  1.000  0.000  0.000  0.000
  0.000  0.000  1.000  0.000  0.000
  0.000  0.000  0.000  1.000  0.000
  0.000  0.000  0.000  0.000  1.000
    occupations:
  0.000  0.000  0.000  0.000  0.000
  0.000  0.000  0.000  0.000  0.000
  0.000  0.000  0.000  0.000  0.000
  0.000  0.000  0.000  0.000  0.000
  0.000  0.000  0.000  0.000  0.000
atomic mag. moment =     5.000000
atom   16   Tr[ns(na)] (up, down, total) =   5.00000  0.00000  5.00000
   spin  1
    eigenvalues: 
  1.000  1.000  1.000  1.000  1.000
    eigenvectors:
  1.000  0.000  0.000  0.000  0.000
  0.000  1.000  0.000  0.000  0.000
  0.000  0.000  1.000  0.000  0.000
  0.000  0.000  0.000  1.000  0.000
  0.000  0.000  0.000  0.000  1.000
    occupations:
  1.000  0.000  0.000  0.000  0.000
  0.000  1.000  0.000  0.000  0.000
  0.000  0.000  1.000  0.000  0.000
  0.000  0.000  0.000  1.000  0.000
  0.000  0.000  0.000  0.000  1.000
   spin  2
    eigenvalues: 
  0.000  0.000  0.000  0.000  0.000
    eigenvectors:
  1.000  0.000  0.000  0.000  0.000
  0.000  1.000  0.000  0.000  0.000
  0.000  0.000  1.000  0.000  0.000
  0.000  0.000  0.000  1.000  0.000
  0.000  0.000  0.000  0.000  1.000
    occupations:
  0.000  0.000  0.000  0.000  0.000
  0.000  0.000  0.000  0.000  0.000
  0.000  0.000  0.000  0.000  0.000
  0.000  0.000  0.000  0.000  0.000
  0.000  0.000  0.000  0.000  0.000
atomic mag. moment =     5.000000
atom   17   Tr[ns(na)] (up, down, total) =   5.00000  0.00000  5.00000
   spin  1
    eigenvalues: 
  1.000  1.000  1.000  1.000  1.000
    eigenvectors:
  1.000  0.000  0.000  0.000  0.000
  0.000  1.000  0.000  0.000  0.000
  0.000  0.000  1.000  0.000  0.000
  0.000  0.000  0.000  1.000  0.000
  0.000  0.000  0.000  0.000  1.000
    occupations:
  1.000  0.000  0.000  0.000  0.000
  0.000  1.000  0.000  0.000  0.000
  0.000  0.000  1.000  0.000  0.000
  0.000  0.000  0.000  1.000  0.000
  0.000  0.000  0.000  0.000  1.000
   spin  2
    eigenvalues: 
  0.000  0.000  0.000  0.000  0.000
    eigenvectors:
  1.000  0.000  0.000  0.000  0.000
  0.000  1.000  0.000  0.000  0.000
  0.000  0.000  1.000  0.000  0.000
  0.000  0.000  0.000  1.000  0.000
  0.000  0.000  0.000  0.000  1.000
    occupations:
  0.000  0.000  0.000  0.000  0.000
  0.000  0.000  0.000  0.000  0.000
  0.000  0.000  0.000  0.000  0.000
  0.000  0.000  0.000  0.000  0.000
  0.000  0.000  0.000  0.000  0.000
atomic mag. moment =     5.000000
atom   22   Tr[ns(na)] (up, down, total) =   5.00000  0.00000  5.00000
   spin  1
    eigenvalues: 
  1.000  1.000  1.000  1.000  1.000
    eigenvectors:
  1.000  0.000  0.000  0.000  0.000
  0.000  1.000  0.000  0.000  0.000
  0.000  0.000  1.000  0.000  0.000
  0.000  0.000  0.000  1.000  0.000
  0.000  0.000  0.000  0.000  1.000
    occupations:
  1.000  0.000  0.000  0.000  0.000
  0.000  1.000  0.000  0.000  0.000
  0.000  0.000  1.000  0.000  0.000
  0.000  0.000  0.000  1.000  0.000
  0.000  0.000  0.000  0.000  1.000
   spin  2
    eigenvalues: 
  0.000  0.000  0.000  0.000  0.000
    eigenvectors:
  1.000  0.000  0.000  0.000  0.000
  0.000  1.000  0.000  0.000  0.000
  0.000  0.000  1.000  0.000  0.000
  0.000  0.000  0.000  1.000  0.000
  0.000  0.000  0.000  0.000  1.000
    occupations:
  0.000  0.000  0.000  0.000  0.000
  0.000  0.000  0.000  0.000  0.000
  0.000  0.000  0.000  0.000  0.000
  0.000  0.000  0.000  0.000  0.000
  0.000  0.000  0.000  0.000  0.000
atomic mag. moment =     5.000000
atom   23   Tr[ns(na)] (up, down, total) =   5.00000  0.00000  5.00000
   spin  1
    eigenvalues: 
  1.000  1.000  1.000  1.000  1.000
    eigenvectors:
  1.000  0.000  0.000  0.000  0.000
  0.000  1.000  0.000  0.000  0.000
  0.000  0.000  1.000  0.000  0.000
  0.000  0.000  0.000  1.000  0.000
  0.000  0.000  0.000  0.000  1.000
    occupations:
  1.000  0.000  0.000  0.000  0.000
  0.000  1.000  0.000  0.000  0.000
  0.000  0.000  1.000  0.000  0.000
  0.000  0.000  0.000  1.000  0.000
  0.000  0.000  0.000  0.000  1.000
   spin  2
    eigenvalues: 
  0.000  0.000  0.000  0.000  0.000
    eigenvectors:
  1.000  0.000  0.000  0.000  0.000
  0.000  1.000  0.000  0.000  0.000
  0.000  0.000  1.000  0.000  0.000
  0.000  0.000  0.000  1.000  0.000
  0.000  0.000  0.000  0.000  1.000
    occupations:
  0.000  0.000  0.000  0.000  0.000
  0.000  0.000  0.000  0.000  0.000
  0.000  0.000  0.000  0.000  0.000
  0.000  0.000  0.000  0.000  0.000
  0.000  0.000  0.000  0.000  0.000
atomic mag. moment =     5.000000
N of occupied +U levels =  40.0000000
 --- exit write_ns ---
 Atomic wfc used for LDA+U Projector are NOT orthogonalized
     Starting wfc are  184 randomized atomic wfcs

     total cpu time spent up to now is      125.3 secs

     per-process dynamical memory:   466.9 Mb

     Self-consistent Calculation

     iteration #  1     ecut=    40.00 Ry     beta=0.70
     Davidson diagonalization with overlap
     ethr =  1.00E-02,  avg # of iterations =  5.6
 --- enter write_ns ---
 LDA+U parameters:
U( 2)     =  2.50000000
alpha( 2) =  0.00000000
atom    3   Tr[ns(na)] (up, down, total) =   4.05360  0.58084  4.63444
   spin  1
    eigenvalues: 
  0.614  0.657  0.826  0.978  0.979
    eigenvectors:
  0.246  0.003  0.009  0.704  0.038
  0.011  0.987  0.000  0.000  0.002
  0.003  0.000  0.970  0.025  0.002
  0.740  0.008  0.015  0.226  0.011
  0.000  0.002  0.006  0.045  0.947
    occupations:
  0.886  0.002  0.025 -0.155 -0.003
  0.002  0.657 -0.003  0.004 -0.014
  0.025 -0.003  0.829 -0.000  0.011
 -0.155  0.004 -0.000  0.704 -0.001
 -0.003 -0.014  0.011 -0.001  0.977
   spin  2
    eigenvalues: 
  0.060  0.064  0.067  0.189  0.201
    eigenvectors:
  0.373  0.259  0.182  0.027  0.160
  0.000  0.000  0.001  0.880  0.119
  0.487  0.088  0.425  0.000  0.000
  0.088  0.058  0.040  0.093  0.721
  0.051  0.595  0.353  0.001  0.000
    occupations:
  0.088  0.000 -0.002  0.053  0.000
  0.000  0.190  0.000 -0.005  0.004
 -0.002  0.000  0.063  0.002 -0.002
  0.053 -0.005  0.002  0.174 -0.000
  0.000  0.004 -0.002 -0.000  0.065
atomic mag. moment =     3.472765
atom    4   Tr[ns(na)] (up, down, total) =   3.92444  0.59401  4.51845
   spin  1
    eigenvalues: 
  0.552  0.676  0.842  0.875  0.979
    eigenvectors:
  0.000  0.938  0.059  0.001  0.002
  0.000  0.056  0.928  0.016  0.000
  0.000  0.003  0.013  0.980  0.004
  0.000  0.002  0.000  0.004  0.994
  1.000  0.000  0.000  0.000  0.000
    occupations:
  0.686  0.038  0.010  0.014 -0.000
  0.038  0.833 -0.006 -0.004  0.003
  0.010 -0.006  0.874 -0.007  0.000
  0.014 -0.004 -0.007  0.978 -0.000
 -0.000  0.003  0.000 -0.000  0.552
   spin  2
    eigenvalues: 
  0.058  0.066  0.077  0.189  0.203
    eigenvectors:
  0.008  0.001  0.000  0.000  0.991
  0.010  0.836  0.152  0.000  0.002
  0.002  0.150  0.848  0.000  0.000
  0.980  0.013  0.000  0.000  0.007
  0.000  0.000  0.000  1.000  0.000
    occupations:
  0.202  0.006  0.002 -0.012  0.000
  0.006  0.068 -0.004  0.000 -0.001
  0.002 -0.004  0.075  0.000  0.000
 -0.012  0.000  0.000  0.060  0.000
  0.000 -0.001  0.000  0.000  0.189
atomic mag. moment =     3.330432
atom    9   Tr[ns(na)] (up, down, total) =   4.36037  0.64660  5.00697
   spin  1
    eigenvalues: 
  0.680  0.693  0.991  0.994  1.003
    eigenvectors:
  0.055  0.106  0.839  0.000  0.000
  0.655  0.345  0.000  0.000  0.000
  0.000  0.000  0.000  0.109  0.891
  0.289  0.550  0.161  0.000  0.000
  0.000  0.000  0.000  0.891  0.109
    occupations:
  0.942  0.002 -0.000 -0.111  0.000
  0.002  0.685  0.000  0.006  0.000
 -0.000  0.000  1.002 -0.000  0.003
 -0.111  0.006 -0.000  0.737  0.000
  0.000  0.000  0.003  0.000  0.995
   spin  2
    eigenvalues: 
  0.071  0.077  0.080  0.207  0.212
    eigenvectors:
  0.000  0.856  0.000  0.144  0.000
  0.000  0.000  0.000  0.000  1.000
  0.997  0.000  0.003  0.000  0.000
  0.000  0.144  0.000  0.856  0.000
  0.003  0.000  0.997  0.000  0.000
    occupations:
  0.096  0.000  0.000  0.046  0.000
  0.000  0.212  0.000 -0.000 -0.000
  0.000  0.000  0.071  0.000  0.001
  0.046 -0.000  0.000  0.188 -0.000
  0.000 -0.000  0.001 -0.000  0.080
atomic mag. moment =     3.713772
atom   10   Tr[ns(na)] (up, down, total) =   4.87499  0.50234  5.37734
   spin  1
    eigenvalues: 
  0.896  0.980  0.996  0.999  1.004
    eigenvectors:
  0.000  0.798  0.202  0.000  0.000
  0.000  0.000  0.000  1.000  0.000
  0.000  0.000  0.000  0.000  1.000
  0.000  0.202  0.798  0.000  0.000
  1.000  0.000  0.000  0.000  0.000
    occupations:
  0.983 -0.000  0.000  0.006  0.000
 -0.000  0.999 -0.000  0.000 -0.000
  0.000 -0.000  1.004 -0.000 -0.000
  0.006  0.000 -0.000  0.993 -0.000
  0.000 -0.000 -0.000 -0.000  0.896
   spin  2
    eigenvalues: 
  0.056  0.061  0.066  0.136  0.184
    eigenvectors:
  0.018  0.000  0.000  0.982  0.000
  0.000  0.000  1.000  0.000  0.000
  0.000  1.000  0.000  0.000  0.000
  0.982  0.000  0.000  0.018  0.000
  0.000  0.000  0.000  0.000  1.000
    occupations:
  0.134  0.000 -0.000 -0.011 -0.000
  0.000  0.066 -0.000 -0.000  0.000
 -0.000 -0.000  0.061 -0.000 -0.000
 -0.011 -0.000 -0.000  0.057  0.000
 -0.000  0.000 -0.000  0.000  0.184
atomic mag. moment =     4.372649
atom   16   Tr[ns(na)] (up, down, total) =   4.05367  0.58084  4.63451
   spin  1
    eigenvalues: 
  0.614  0.657  0.827  0.975  0.981
    eigenvectors:
  0.246  0.002  0.010  0.372  0.369
  0.008  0.990  0.000  0.001  0.001
  0.003  0.000  0.974  0.014  0.008
  0.743  0.006  0.015  0.121  0.115
  0.000  0.002  0.000  0.491  0.507
    occupations:
  0.886 -0.002  0.025 -0.155  0.004
 -0.002  0.657  0.002 -0.003 -0.014
  0.025  0.002  0.830 -0.000 -0.003
 -0.155 -0.003 -0.000  0.704 -0.000
  0.004 -0.014 -0.003 -0.000  0.977
   spin  2
    eigenvalues: 
  0.060  0.064  0.067  0.189  0.201
    eigenvectors:
  0.377  0.252  0.184  0.027  0.160
  0.000  0.000  0.001  0.880  0.118
  0.485  0.089  0.426  0.000  0.000
  0.089  0.057  0.041  0.092  0.721
  0.049  0.602  0.348  0.001  0.000
    occupations:
  0.088 -0.000 -0.002  0.053 -0.000
 -0.000  0.190 -0.000  0.005  0.004
 -0.002 -0.000  0.063  0.002  0.002
  0.053  0.005  0.002  0.174  0.000
 -0.000  0.004  0.002  0.000  0.065
atomic mag. moment =     3.472834
atom   17   Tr[ns(na)] (up, down, total) =   3.91889  0.59257  4.51146
   spin  1
    eigenvalues: 
  0.551  0.673  0.843  0.873  0.978
    eigenvectors:
  0.000  0.940  0.057  0.001  0.002
  0.000  0.055  0.929  0.016  0.000
  0.000  0.003  0.013  0.979  0.005
  0.000  0.002  0.000  0.004  0.993
  1.000  0.000  0.000  0.000  0.000
    occupations:
  0.684  0.038  0.009  0.014 -0.000
  0.038  0.834 -0.006 -0.005  0.003
  0.009 -0.006  0.873 -0.008  0.000
  0.014 -0.005 -0.008  0.977 -0.000
 -0.000  0.003  0.000 -0.000  0.551
   spin  2
    eigenvalues: 
  0.058  0.066  0.076  0.189  0.203
    eigenvectors:
  0.008  0.001  0.000  0.000  0.991
  0.010  0.830  0.159  0.000  0.002
  0.002  0.156  0.841  0.000  0.000
  0.980  0.013  0.000  0.000  0.007
  0.000  0.000  0.000  1.000  0.000
    occupations:
  0.202  0.006  0.002 -0.012  0.000
  0.006  0.068 -0.004  0.000 -0.001
  0.002 -0.004  0.074  0.000  0.000
 -0.012  0.000  0.000  0.059  0.000
  0.000 -0.001  0.000  0.000  0.189
atomic mag. moment =     3.326324
atom   22   Tr[ns(na)] (up, down, total) =   4.35944  0.64666  5.00609
   spin  1
    eigenvalues: 
  0.684  0.689  0.990  0.994  1.003
    eigenvectors:
  0.044  0.115  0.841  0.000  0.000
  0.737  0.263  0.000  0.000  0.000
  0.000  0.000  0.000  0.108  0.892
  0.219  0.622  0.159  0.000  0.000
  0.000  0.000  0.000  0.892  0.108
    occupations:
  0.942  0.003 -0.000 -0.111  0.000
  0.003  0.685  0.000  0.001  0.000
 -0.000  0.000  1.002 -0.000 -0.003
 -0.111  0.001 -0.000  0.736  0.000
  0.000  0.000 -0.003  0.000  0.995
   spin  2
    eigenvalues: 
  0.071  0.077  0.080  0.207  0.212
    eigenvectors:
  0.000  0.856  0.000  0.144  0.000
  0.000  0.000  0.000  0.000  1.000
  0.997  0.000  0.003  0.000  0.000
  0.000  0.144  0.000  0.856  0.000
  0.003  0.000  0.997  0.000  0.000
    occupations:
  0.096 -0.000  0.000  0.046  0.000
 -0.000  0.212 -0.000  0.000 -0.000
  0.000 -0.000  0.071  0.000 -0.001
  0.046  0.000  0.000  0.188 -0.000
  0.000 -0.000 -0.001 -0.000  0.080
atomic mag. moment =     3.712778
atom   23   Tr[ns(na)] (up, down, total) =   4.54100  0.71208  5.25308
   spin  1
    eigenvalues: 
  0.686  0.867  0.991  0.994  1.003
    eigenvectors:
  1.000  0.000  0.000  0.000  0.000
  0.000  0.000  0.000  1.000  0.000
  0.000  0.000  0.000  0.000  1.000
  0.000  0.000  1.000  0.000  0.000
  0.000  1.000  0.000  0.000  0.000
    occupations:
  0.686  0.000  0.001  0.005 -0.000
  0.000  0.994 -0.000  0.000 -0.000
  0.001 -0.000  1.003 -0.000 -0.000
  0.005  0.000 -0.000  0.991 -0.000
 -0.000 -0.000 -0.000 -0.000  0.867
   spin  2
    eigenvalues: 
  0.052  0.121  0.128  0.172  0.238
    eigenvectors:
  0.004  0.000  0.000  0.000  0.996
  0.000  0.000  1.000  0.000  0.000
  0.000  1.000  0.000  0.000  0.000
  0.996  0.000  0.000  0.000  0.004
  0.000  0.000  0.000  1.000  0.000
    occupations:
  0.238 -0.000 -0.000 -0.011 -0.000
 -0.000  0.128 -0.000 -0.000 -0.000
 -0.000 -0.000  0.121  0.000 -0.000
 -0.011 -0.000  0.000  0.052  0.000
 -0.000 -0.000 -0.000  0.000  0.172
atomic mag. moment =     3.828919
N of occupied +U levels =  38.9423390
 --- exit write_ns ---

     negative rho (up, down):  0.115E-02 0.106E-02

     total cpu time spent up to now is      612.3 secs

     total energy              =   -2301.08534864 Ry
     Harris-Foulkes estimate   =   -2317.58675386 Ry
     estimated scf accuracy    <      29.24754650 Ry

     total magnetization       =    22.00 Bohr mag/cell
     absolute magnetization    =    37.18 Bohr mag/cell

     iteration #  2     ecut=    40.00 Ry     beta=0.70
     Davidson diagonalization with overlap
     ethr =  1.00E-02,  avg # of iterations =  5.2

     negative rho (up, down):  0.933E-02 0.284E-02

     total cpu time spent up to now is     1119.5 secs

     total energy              =   -2177.23707372 Ry
     Harris-Foulkes estimate   =   -2553.42708492 Ry
     estimated scf accuracy    <    4655.91674376 Ry

     total magnetization       =    22.00 Bohr mag/cell
     absolute magnetization    =    22.37 Bohr mag/cell

     iteration #  3     ecut=    40.00 Ry     beta=0.70
     Davidson diagonalization with overlap
     ethr =  1.00E-02,  avg # of iterations =  5.9

     negative rho (up, down):  0.919E-02 0.809E-02

     total cpu time spent up to now is     1631.0 secs

     total energy              =   -2306.74052392 Ry
     Harris-Foulkes estimate   =   -2327.05691530 Ry
     estimated scf accuracy    <     101.66950565 Ry

     total magnetization       =    22.00 Bohr mag/cell
     absolute magnetization    =    23.62 Bohr mag/cell

     iteration #  4     ecut=    40.00 Ry     beta=0.70
     Davidson diagonalization with overlap
     ethr =  1.00E-02,  avg # of iterations =  3.0

     negative rho (up, down):  0.590E-02 0.254E-02

     total cpu time spent up to now is     1882.5 secs

     total energy              =   -2315.76541441 Ry
     Harris-Foulkes estimate   =   -2322.17104455 Ry
     estimated scf accuracy    <      29.86297643 Ry

     total magnetization       =    22.00 Bohr mag/cell
     absolute magnetization    =    28.19 Bohr mag/cell

     iteration #  5     ecut=    40.00 Ry     beta=0.70
     Davidson diagonalization with overlap
     ethr =  1.00E-02,  avg # of iterations =  1.1

     negative rho (up, down):  0.607E-02 0.262E-02

     total cpu time spent up to now is     2122.6 secs

     total energy              =   -2317.94451568 Ry
     Harris-Foulkes estimate   =   -2321.52409901 Ry
     estimated scf accuracy    <      17.18229229 Ry

     total magnetization       =    22.00 Bohr mag/cell
     absolute magnetization    =    26.74 Bohr mag/cell

     iteration #  6     ecut=    40.00 Ry     beta=0.70
     Davidson diagonalization with overlap
     ethr =  7.22E-03,  avg # of iterations =  1.9

     negative rho (up, down):  0.531E-02 0.367E-02

     total cpu time spent up to now is     2373.7 secs

     total energy              =   -2318.03561179 Ry
     Harris-Foulkes estimate   =   -2320.91483415 Ry
     estimated scf accuracy    <      16.50223634 Ry

     total magnetization       =    22.00 Bohr mag/cell
     absolute magnetization    =    29.11 Bohr mag/cell

     iteration #  7     ecut=    40.00 Ry     beta=0.70
     Davidson diagonalization with overlap
     ethr =  6.93E-03,  avg # of iterations =  3.1

     negative rho (up, down):  0.673E-02 0.239E-02

     total cpu time spent up to now is     2635.2 secs

     total energy              =   -2319.25751948 Ry
     Harris-Foulkes estimate   =   -2320.58553320 Ry
     estimated scf accuracy    <       8.75039790 Ry

     total magnetization       =    22.00 Bohr mag/cell
     absolute magnetization    =    28.05 Bohr mag/cell

     iteration #  8     ecut=    40.00 Ry     beta=0.70
     Davidson diagonalization with overlap
     ethr =  3.68E-03,  avg # of iterations =  2.0

     negative rho (up, down):  0.506E-02 0.234E-02

     total cpu time spent up to now is     2883.5 secs

     total energy              =   -2319.70010970 Ry
     Harris-Foulkes estimate   =   -2320.17314591 Ry
     estimated scf accuracy    <       2.91657033 Ry

     total magnetization       =    22.00 Bohr mag/cell
     absolute magnetization    =    26.90 Bohr mag/cell

     iteration #  9     ecut=    40.00 Ry     beta=0.70
     Davidson diagonalization with overlap
     ethr =  1.23E-03,  avg # of iterations =  3.8

     negative rho (up, down):  0.618E-02 0.224E-02

     total cpu time spent up to now is     3148.2 secs

     total energy              =   -2319.77820015 Ry
     Harris-Foulkes estimate   =   -2319.99601136 Ry
     estimated scf accuracy    <       1.49021574 Ry

     total magnetization       =    22.00 Bohr mag/cell
     absolute magnetization    =    26.57 Bohr mag/cell

     iteration # 10     ecut=    40.00 Ry     beta=0.70
     Davidson diagonalization with overlap
     ethr =  6.26E-04,  avg # of iterations =  3.0

     negative rho (up, down):  0.452E-02 0.176E-02

     total cpu time spent up to now is     3405.5 secs

     total energy              =   -2319.87080300 Ry
     Harris-Foulkes estimate   =   -2319.97437300 Ry
     estimated scf accuracy    <       0.99406800 Ry

     total magnetization       =    22.00 Bohr mag/cell
     absolute magnetization    =    26.76 Bohr mag/cell

     iteration # 11     ecut=    40.00 Ry     beta=0.70
     Davidson diagonalization with overlap
     ethr =  4.18E-04,  avg # of iterations =  1.8

     negative rho (up, down):  0.177E-02 0.123E-02

     total cpu time spent up to now is     3648.6 secs

     total energy              =   -2319.84407988 Ry
     Harris-Foulkes estimate   =   -2319.92386860 Ry
     estimated scf accuracy    <       0.32372203 Ry

     total magnetization       =    22.00 Bohr mag/cell
     absolute magnetization    =    26.84 Bohr mag/cell

     iteration # 12     ecut=    40.00 Ry     beta=0.70
     Davidson diagonalization with overlap
     ethr =  1.36E-04,  avg # of iterations =  6.3

     negative rho (up, down):  0.286E-02 0.129E-02

     total cpu time spent up to now is     3962.2 secs

     total energy              =   -2319.84411932 Ry
     Harris-Foulkes estimate   =   -2319.92752752 Ry
     estimated scf accuracy    <       0.53541238 Ry

     total magnetization       =    22.00 Bohr mag/cell
     absolute magnetization    =    26.63 Bohr mag/cell

     iteration # 13     ecut=    40.00 Ry     beta=0.70
     Davidson diagonalization with overlap
     ethr =  1.36E-04,  avg # of iterations =  3.2

     negative rho (up, down):  0.214E-02 0.125E-02

     total cpu time spent up to now is     4218.9 secs

     total energy              =   -2319.86122307 Ry
     Harris-Foulkes estimate   =   -2319.92757631 Ry
     estimated scf accuracy    <       0.42022784 Ry

     total magnetization       =    22.00 Bohr mag/cell
     absolute magnetization    =    27.05 Bohr mag/cell

     iteration # 14     ecut=    40.00 Ry     beta=0.70
     Davidson diagonalization with overlap
     ethr =  1.36E-04,  avg # of iterations =  2.5

     negative rho (up, down):  0.183E-02 0.121E-02

     total cpu time spent up to now is     4474.1 secs

     total energy              =   -2319.88461370 Ry
     Harris-Foulkes estimate   =   -2319.90575452 Ry
     estimated scf accuracy    <       0.13745001 Ry

     total magnetization       =    22.00 Bohr mag/cell
     absolute magnetization    =    26.48 Bohr mag/cell

     iteration # 15     ecut=    40.00 Ry     beta=0.70
     Davidson diagonalization with overlap
     ethr =  5.78E-05,  avg # of iterations =  2.7

     negative rho (up, down):  0.184E-02 0.125E-02

     total cpu time spent up to now is     4730.7 secs

     total energy              =   -2319.88985918 Ry
     Harris-Foulkes estimate   =   -2319.90146316 Ry
     estimated scf accuracy    <       0.07519474 Ry

     total magnetization       =    22.00 Bohr mag/cell
     absolute magnetization    =    26.63 Bohr mag/cell

     iteration # 16     ecut=    40.00 Ry     beta=0.70
     Davidson diagonalization with overlap
     ethr =  3.16E-05,  avg # of iterations =  5.0

     negative rho (up, down):  0.199E-02 0.126E-02

     total cpu time spent up to now is     5001.3 secs

     total energy              =   -2319.88772263 Ry
     Harris-Foulkes estimate   =   -2319.90576635 Ry
     estimated scf accuracy    <       0.10911008 Ry

     total magnetization       =    22.00 Bohr mag/cell
     absolute magnetization    =    26.55 Bohr mag/cell

     iteration # 17     ecut=    40.00 Ry     beta=0.70
     Davidson diagonalization with overlap
     ethr =  3.16E-05,  avg # of iterations =  3.3

     negative rho (up, down):  0.208E-02 0.134E-02

     total cpu time spent up to now is     5259.8 secs

     total energy              =   -2319.89651839 Ry
     Harris-Foulkes estimate   =   -2319.89791921 Ry
     estimated scf accuracy    <       0.00784404 Ry

     total magnetization       =    22.00 Bohr mag/cell
     absolute magnetization    =    26.60 Bohr mag/cell

     iteration # 18     ecut=    40.00 Ry     beta=0.70
     Davidson diagonalization with overlap
     ethr =  3.30E-06,  avg # of iterations =  5.4

     negative rho (up, down):  0.184E-02 0.129E-02

     total cpu time spent up to now is     5535.0 secs

     total energy              =   -2319.89580489 Ry
     Harris-Foulkes estimate   =   -2319.89873758 Ry
     estimated scf accuracy    <       0.00971098 Ry

     total magnetization       =    22.00 Bohr mag/cell
     absolute magnetization    =    26.53 Bohr mag/cell

     iteration # 19     ecut=    40.00 Ry     beta=0.70
     Davidson diagonalization with overlap
     ethr =  3.30E-06,  avg # of iterations =  2.9

     negative rho (up, down):  0.219E-02 0.135E-02

     total cpu time spent up to now is     5786.7 secs

     total energy              =   -2319.89520901 Ry
     Harris-Foulkes estimate   =   -2319.89996214 Ry
     estimated scf accuracy    <       0.03927545 Ry

     total magnetization       =    22.00 Bohr mag/cell
     absolute magnetization    =    26.63 Bohr mag/cell

     iteration # 20     ecut=    40.00 Ry     beta=0.70
     Davidson diagonalization with overlap
     ethr =  3.30E-06,  avg # of iterations =  1.9

     negative rho (up, down):  0.195E-02 0.131E-02

     total cpu time spent up to now is     6024.8 secs

     total energy              =   -2319.89725257 Ry
     Harris-Foulkes estimate   =   -2319.89782730 Ry
     estimated scf accuracy    <       0.00284451 Ry

     total magnetization       =    22.00 Bohr mag/cell
     absolute magnetization    =    26.52 Bohr mag/cell

     iteration # 21     ecut=    40.00 Ry     beta=0.70
     Davidson diagonalization with overlap
     ethr =  1.20E-06,  avg # of iterations =  1.6

     negative rho (up, down):  0.200E-02 0.133E-02

     total cpu time spent up to now is     6258.9 secs

     total energy              =   -2319.89720680 Ry
     Harris-Foulkes estimate   =   -2319.89801926 Ry
     estimated scf accuracy    <       0.00814124 Ry

     total magnetization       =    22.00 Bohr mag/cell
     absolute magnetization    =    26.53 Bohr mag/cell

     iteration # 22     ecut=    40.00 Ry     beta=0.70
     Davidson diagonalization with overlap
     ethr =  1.20E-06,  avg # of iterations =  1.0

     negative rho (up, down):  0.208E-02 0.135E-02

     total cpu time spent up to now is     6495.4 secs

     total energy              =   -2319.89761666 Ry
     Harris-Foulkes estimate   =   -2319.89779372 Ry
     estimated scf accuracy    <       0.00186418 Ry

     total magnetization       =    22.00 Bohr mag/cell
     absolute magnetization    =    26.55 Bohr mag/cell

     iteration # 23     ecut=    40.00 Ry     beta=0.70
     Davidson diagonalization with overlap
     ethr =  7.83E-07,  avg # of iterations =  1.0

     negative rho (up, down):  0.208E-02 0.135E-02

     total cpu time spent up to now is     6728.6 secs

     total energy              =   -2319.89764615 Ry
     Harris-Foulkes estimate   =   -2319.89782104 Ry
     estimated scf accuracy    <       0.00087367 Ry

     total magnetization       =    22.00 Bohr mag/cell
     absolute magnetization    =    26.52 Bohr mag/cell

     iteration # 24     ecut=    40.00 Ry     beta=0.70
     Davidson diagonalization with overlap
     ethr =  3.67E-07,  avg # of iterations =  1.0

     negative rho (up, down):  0.209E-02 0.135E-02

     total cpu time spent up to now is     6961.5 secs

     total energy              =   -2319.89772231 Ry
     Harris-Foulkes estimate   =   -2319.89781455 Ry
     estimated scf accuracy    <       0.00101467 Ry

     total magnetization       =    22.00 Bohr mag/cell
     absolute magnetization    =    26.55 Bohr mag/cell

     iteration # 25     ecut=    40.00 Ry     beta=0.70
     Davidson diagonalization with overlap
     ethr =  3.67E-07,  avg # of iterations =  1.0

     negative rho (up, down):  0.210E-02 0.135E-02

     total cpu time spent up to now is     7190.0 secs

     total energy              =   -2319.89771808 Ry
     Harris-Foulkes estimate   =   -2319.89784318 Ry
     estimated scf accuracy    <       0.00102756 Ry

     total magnetization       =    22.00 Bohr mag/cell
     absolute magnetization    =    26.51 Bohr mag/cell

     iteration # 26     ecut=    40.00 Ry     beta=0.70
     Davidson diagonalization with overlap
     ethr =  3.67E-07,  avg # of iterations =  1.0

     negative rho (up, down):  0.209E-02 0.135E-02

     total cpu time spent up to now is     7430.8 secs

     total energy              =   -2319.89768400 Ry
     Harris-Foulkes estimate   =   -2319.89786785 Ry
     estimated scf accuracy    <       0.00113985 Ry

     total magnetization       =    22.00 Bohr mag/cell
     absolute magnetization    =    26.52 Bohr mag/cell

     iteration # 27     ecut=    40.00 Ry     beta=0.70
     Davidson diagonalization with overlap
     ethr =  3.67E-07,  avg # of iterations =  1.0

     negative rho (up, down):  0.210E-02 0.136E-02

     total cpu time spent up to now is     7667.6 secs

     total energy              =   -2319.89777480 Ry
     Harris-Foulkes estimate   =   -2319.89783305 Ry
     estimated scf accuracy    <       0.00054498 Ry

     total magnetization       =    22.00 Bohr mag/cell
     absolute magnetization    =    26.51 Bohr mag/cell

     iteration # 28     ecut=    40.00 Ry     beta=0.70
     Davidson diagonalization with overlap
     ethr =  2.29E-07,  avg # of iterations =  1.0

     negative rho (up, down):  0.211E-02 0.136E-02

     total cpu time spent up to now is     7907.8 secs

     total energy              =   -2319.89781612 Ry
     Harris-Foulkes estimate   =   -2319.89783793 Ry
     estimated scf accuracy    <       0.00019883 Ry

     total magnetization       =    22.00 Bohr mag/cell
     absolute magnetization    =    26.52 Bohr mag/cell

     iteration # 29     ecut=    40.00 Ry     beta=0.70
     Davidson diagonalization with overlap
     ethr =  8.35E-08,  avg # of iterations =  1.0

     negative rho (up, down):  0.211E-02 0.136E-02

     total cpu time spent up to now is     8143.9 secs

     total energy              =   -2319.89779762 Ry
     Harris-Foulkes estimate   =   -2319.89784261 Ry
     estimated scf accuracy    <       0.00019857 Ry

     total magnetization       =    22.00 Bohr mag/cell
     absolute magnetization    =    26.51 Bohr mag/cell

     iteration # 30     ecut=    40.00 Ry     beta=0.70
     Davidson diagonalization with overlap
     ethr =  8.34E-08,  avg # of iterations =  1.4

     negative rho (up, down):  0.211E-02 0.136E-02

     total cpu time spent up to now is     8384.1 secs

     total energy              =   -2319.89775550 Ry
     Harris-Foulkes estimate   =   -2319.89790174 Ry
     estimated scf accuracy    <       0.00119180 Ry

     total magnetization       =    22.00 Bohr mag/cell
     absolute magnetization    =    26.53 Bohr mag/cell

     iteration # 31     ecut=    40.00 Ry     beta=0.70
     Davidson diagonalization with overlap
     ethr =  8.34E-08,  avg # of iterations =  1.5

     negative rho (up, down):  0.211E-02 0.136E-02

     total cpu time spent up to now is     8625.2 secs

     total energy              =   -2319.89779816 Ry
     Harris-Foulkes estimate   =   -2319.89786720 Ry
     estimated scf accuracy    <       0.00075072 Ry

     total magnetization       =    22.00 Bohr mag/cell
     absolute magnetization    =    26.51 Bohr mag/cell

     iteration # 32     ecut=    40.00 Ry     beta=0.70
     Davidson diagonalization with overlap
     ethr =  8.34E-08,  avg # of iterations =  1.0

     negative rho (up, down):  0.211E-02 0.136E-02

     total cpu time spent up to now is     8865.5 secs

     total energy              =   -2319.89780271 Ry
     Harris-Foulkes estimate   =   -2319.89787497 Ry
     estimated scf accuracy    <       0.00051413 Ry

     total magnetization       =    22.00 Bohr mag/cell
     absolute magnetization    =    26.50 Bohr mag/cell

     iteration # 33     ecut=    40.00 Ry     beta=0.70
     Davidson diagonalization with overlap
     ethr =  8.34E-08,  avg # of iterations =  1.0

     negative rho (up, down):  0.211E-02 0.136E-02

     total cpu time spent up to now is     9104.0 secs

     total energy              =   -2319.89783631 Ry
     Harris-Foulkes estimate   =   -2319.89784406 Ry
     estimated scf accuracy    <       0.00005311 Ry

     total magnetization       =    22.00 Bohr mag/cell
     absolute magnetization    =    26.51 Bohr mag/cell

     iteration # 34     ecut=    40.00 Ry     beta=0.70
     Davidson diagonalization with overlap
     ethr =  2.23E-08,  avg # of iterations =  1.0

     negative rho (up, down):  0.211E-02 0.136E-02

     total cpu time spent up to now is     9335.4 secs

     total energy              =   -2319.89782050 Ry
     Harris-Foulkes estimate   =   -2319.89785678 Ry
     estimated scf accuracy    <       0.00024189 Ry

     total magnetization       =    22.00 Bohr mag/cell
     absolute magnetization    =    26.49 Bohr mag/cell

     iteration # 35     ecut=    40.00 Ry     beta=0.70
     Davidson diagonalization with overlap
     ethr =  2.23E-08,  avg # of iterations =  1.5

     negative rho (up, down):  0.210E-02 0.136E-02

     total cpu time spent up to now is     9565.7 secs

     total energy              =   -2319.89783172 Ry
     Harris-Foulkes estimate   =   -2319.89784998 Ry
     estimated scf accuracy    <       0.00017943 Ry

     total magnetization       =    22.00 Bohr mag/cell
     absolute magnetization    =    26.51 Bohr mag/cell

     iteration # 36     ecut=    40.00 Ry     beta=0.70
     Davidson diagonalization with overlap
     ethr =  2.23E-08,  avg # of iterations =  1.5

     negative rho (up, down):  0.210E-02 0.136E-02

     total cpu time spent up to now is     9795.0 secs

     total energy              =   -2319.89784137 Ry
     Harris-Foulkes estimate   =   -2319.89784792 Ry
     estimated scf accuracy    <       0.00003018 Ry

     total magnetization       =    22.00 Bohr mag/cell
     absolute magnetization    =    26.51 Bohr mag/cell

     iteration # 37     ecut=    40.00 Ry     beta=0.70
     Davidson diagonalization with overlap
     ethr =  1.27E-08,  avg # of iterations =  1.3

     negative rho (up, down):  0.211E-02 0.136E-02

     total cpu time spent up to now is    10027.4 secs

     total energy              =   -2319.89783481 Ry
     Harris-Foulkes estimate   =   -2319.89785493 Ry
     estimated scf accuracy    <       0.00010969 Ry

     total magnetization       =    22.00 Bohr mag/cell
     absolute magnetization    =    26.51 Bohr mag/cell

     iteration # 38     ecut=    40.00 Ry     beta=0.70
     Davidson diagonalization with overlap
     ethr =  1.27E-08,  avg # of iterations =  1.1

     negative rho (up, down):  0.210E-02 0.136E-02

     total cpu time spent up to now is    10259.9 secs

     total energy              =   -2319.89784353 Ry
     Harris-Foulkes estimate   =   -2319.89784729 Ry
     estimated scf accuracy    <       0.00003008 Ry

     total magnetization       =    22.00 Bohr mag/cell
     absolute magnetization    =    26.50 Bohr mag/cell

     iteration # 39     ecut=    40.00 Ry     beta=0.70
     Davidson diagonalization with overlap
     ethr =  1.26E-08,  avg # of iterations =  1.0

     negative rho (up, down):  0.210E-02 0.136E-02

     total cpu time spent up to now is    10491.2 secs

     total energy              =   -2319.89784642 Ry
     Harris-Foulkes estimate   =   -2319.89784715 Ry
     estimated scf accuracy    <       0.00001640 Ry

     total magnetization       =    22.00 Bohr mag/cell
     absolute magnetization    =    26.50 Bohr mag/cell

     iteration # 40     ecut=    40.00 Ry     beta=0.70
     Davidson diagonalization with overlap
     ethr =  6.89E-09,  avg # of iterations =  1.4

     negative rho (up, down):  0.210E-02 0.136E-02

     total cpu time spent up to now is    10729.6 secs

     total energy              =   -2319.89784637 Ry
     Harris-Foulkes estimate   =   -2319.89784818 Ry
     estimated scf accuracy    <       0.00000829 Ry

     total magnetization       =    22.00 Bohr mag/cell
     absolute magnetization    =    26.50 Bohr mag/cell

     iteration # 41     ecut=    40.00 Ry     beta=0.70
     Davidson diagonalization with overlap
     ethr =  3.48E-09,  avg # of iterations =  1.1

     negative rho (up, down):  0.210E-02 0.136E-02

     total cpu time spent up to now is    10955.0 secs

     total energy              =   -2319.89784571 Ry
     Harris-Foulkes estimate   =   -2319.89785053 Ry
     estimated scf accuracy    <       0.00006658 Ry

     total magnetization       =    22.00 Bohr mag/cell
     absolute magnetization    =    26.50 Bohr mag/cell

     iteration # 42     ecut=    40.00 Ry     beta=0.70
     Davidson diagonalization with overlap
     ethr =  3.48E-09,  avg # of iterations =  1.5

     negative rho (up, down):  0.211E-02 0.136E-02

     total cpu time spent up to now is    11185.3 secs

     total energy              =   -2319.89784521 Ry
     Harris-Foulkes estimate   =   -2319.89784974 Ry
     estimated scf accuracy    <       0.00001311 Ry

     total magnetization       =    22.00 Bohr mag/cell
     absolute magnetization    =    26.50 Bohr mag/cell

     iteration # 43     ecut=    40.00 Ry     beta=0.70
     Davidson diagonalization with overlap
     ethr =  3.48E-09,  avg # of iterations =  1.5

     negative rho (up, down):  0.210E-02 0.136E-02

     total cpu time spent up to now is    11419.1 secs

     total energy              =   -2319.89784720 Ry
     Harris-Foulkes estimate   =   -2319.89784841 Ry
     estimated scf accuracy    <       0.00002289 Ry

     total magnetization       =    22.00 Bohr mag/cell
     absolute magnetization    =    26.50 Bohr mag/cell

     iteration # 44     ecut=    40.00 Ry     beta=0.70
     Davidson diagonalization with overlap
     ethr =  3.48E-09,  avg # of iterations =  1.5

     negative rho (up, down):  0.210E-02 0.136E-02

     total cpu time spent up to now is    11654.9 secs

     total energy              =   -2319.89784800 Ry
     Harris-Foulkes estimate   =   -2319.89784982 Ry
     estimated scf accuracy    <       0.00001625 Ry

     total magnetization       =    22.00 Bohr mag/cell
     absolute magnetization    =    26.51 Bohr mag/cell

     iteration # 45     ecut=    40.00 Ry     beta=0.70
     Davidson diagonalization with overlap
     ethr =  3.48E-09,  avg # of iterations =  1.5

     negative rho (up, down):  0.210E-02 0.136E-02

     total cpu time spent up to now is    11891.1 secs

     total energy              =   -2319.89784814 Ry
     Harris-Foulkes estimate   =   -2319.89785030 Ry
     estimated scf accuracy    <       0.00001560 Ry

     total magnetization       =    22.00 Bohr mag/cell
     absolute magnetization    =    26.50 Bohr mag/cell

     iteration # 46     ecut=    40.00 Ry     beta=0.70
     Davidson diagonalization with overlap
     ethr =  3.48E-09,  avg # of iterations =  1.0

     negative rho (up, down):  0.210E-02 0.136E-02

     total cpu time spent up to now is    12123.5 secs

     total energy              =   -2319.89784873 Ry
     Harris-Foulkes estimate   =   -2319.89784988 Ry
     estimated scf accuracy    <       0.00000995 Ry

     total magnetization       =    22.00 Bohr mag/cell
     absolute magnetization    =    26.50 Bohr mag/cell

     iteration # 47     ecut=    40.00 Ry     beta=0.70
     Davidson diagonalization with overlap
     ethr =  3.48E-09,  avg # of iterations =  1.4

     negative rho (up, down):  0.210E-02 0.136E-02

     total cpu time spent up to now is    12363.8 secs

     total energy              =   -2319.89784913 Ry
     Harris-Foulkes estimate   =   -2319.89785017 Ry
     estimated scf accuracy    <       0.00000675 Ry

     total magnetization       =    22.00 Bohr mag/cell
     absolute magnetization    =    26.50 Bohr mag/cell

     iteration # 48     ecut=    40.00 Ry     beta=0.70
     Davidson diagonalization with overlap
     ethr =  2.83E-09,  avg # of iterations =  1.0

     negative rho (up, down):  0.210E-02 0.136E-02

     total cpu time spent up to now is    12599.5 secs

     total energy              =   -2319.89784804 Ry
     Harris-Foulkes estimate   =   -2319.89785027 Ry
     estimated scf accuracy    <       0.00000847 Ry

     total magnetization       =    22.00 Bohr mag/cell
     absolute magnetization    =    26.50 Bohr mag/cell

     iteration # 49     ecut=    40.00 Ry     beta=0.70
     Davidson diagonalization with overlap
     ethr =  2.83E-09,  avg # of iterations =  1.8

     negative rho (up, down):  0.210E-02 0.136E-02

     total cpu time spent up to now is    12844.4 secs

     total energy              =   -2319.89784791 Ry
     Harris-Foulkes estimate   =   -2319.89785078 Ry
     estimated scf accuracy    <       0.00002261 Ry

     total magnetization       =    22.00 Bohr mag/cell
     absolute magnetization    =    26.50 Bohr mag/cell

     iteration # 50     ecut=    40.00 Ry     beta=0.70
     Davidson diagonalization with overlap
     ethr =  2.83E-09,  avg # of iterations =  1.7

     negative rho (up, down):  0.210E-02 0.136E-02

     total cpu time spent up to now is    13080.8 secs

     total energy              =   -2319.89784966 Ry
     Harris-Foulkes estimate   =   -2319.89784999 Ry
     estimated scf accuracy    <       0.00000266 Ry

     total magnetization       =    22.00 Bohr mag/cell
     absolute magnetization    =    26.50 Bohr mag/cell

     iteration # 51     ecut=    40.00 Ry     beta=0.70
     Davidson diagonalization with overlap
     ethr =  1.12E-09,  avg # of iterations =  1.0

     negative rho (up, down):  0.210E-02 0.136E-02

     total cpu time spent up to now is    13310.7 secs

     total energy              =   -2319.89784945 Ry
     Harris-Foulkes estimate   =   -2319.89785029 Ry
     estimated scf accuracy    <       0.00001036 Ry

     total magnetization       =    22.00 Bohr mag/cell
     absolute magnetization    =    26.50 Bohr mag/cell

     iteration # 52     ecut=    40.00 Ry     beta=0.70
     Davidson diagonalization with overlap
     ethr =  1.12E-09,  avg # of iterations =  1.0

     negative rho (up, down):  0.210E-02 0.136E-02

     total cpu time spent up to now is    13540.3 secs

     total energy              =   -2319.89784955 Ry
     Harris-Foulkes estimate   =   -2319.89784998 Ry
     estimated scf accuracy    <       0.00000155 Ry

     total magnetization       =    22.00 Bohr mag/cell
     absolute magnetization    =    26.50 Bohr mag/cell

     iteration # 53     ecut=    40.00 Ry     beta=0.70
     Davidson diagonalization with overlap
     ethr =  6.52E-10,  avg # of iterations =  1.1

     negative rho (up, down):  0.210E-02 0.136E-02

     total cpu time spent up to now is    13770.9 secs

     total energy              =   -2319.89784972 Ry
     Harris-Foulkes estimate   =   -2319.89785000 Ry
     estimated scf accuracy    <       0.00000438 Ry

     total magnetization       =    22.00 Bohr mag/cell
     absolute magnetization    =    26.50 Bohr mag/cell

     iteration # 54     ecut=    40.00 Ry     beta=0.70
     Davidson diagonalization with overlap
     ethr =  6.52E-10,  avg # of iterations =  1.5

     negative rho (up, down):  0.210E-02 0.136E-02

     total cpu time spent up to now is    14010.1 secs

     End of self-consistent calculation
 --- enter write_ns ---
 LDA+U parameters:
U( 2)     =  2.50000000
alpha( 2) =  0.00000000
atom    3   Tr[ns(na)] (up, down, total) =   4.21306  1.27072  5.48378
   spin  1
    eigenvalues: 
  0.607  0.619  0.993  0.994  1.000
    eigenvectors:
  0.196  0.041  0.724  0.021  0.019
  0.237  0.761  0.002  0.001  0.000
  0.000  0.000  0.037  0.085  0.878
  0.567  0.198  0.226  0.005  0.004
  0.000  0.000  0.012  0.888  0.099
    occupations:
  0.902 -0.017 -0.004 -0.162 -0.000
 -0.017  0.617 -0.002  0.004 -0.009
 -0.004 -0.002  0.999 -0.005  0.002
 -0.162  0.004 -0.005  0.700  0.000
 -0.000 -0.009  0.002  0.000  0.994
   spin  2
    eigenvalues: 
  0.127  0.159  0.192  0.382  0.410
    eigenvectors:
  0.787  0.000  0.003  0.149  0.060
  0.003  0.002  0.000  0.390  0.604
  0.003  0.164  0.833  0.000  0.000
  0.207  0.000  0.000  0.459  0.334
  0.000  0.834  0.163  0.001  0.002
    occupations:
  0.183  0.007 -0.001  0.107  0.001
  0.007  0.398  0.002 -0.019  0.012
 -0.001  0.002  0.186  0.005 -0.012
  0.107 -0.019  0.005  0.339 -0.002
  0.001  0.012 -0.012 -0.002  0.165
atomic mag. moment =     2.942335
atom    4   Tr[ns(na)] (up, down, total) =   4.20558  1.26601  5.47159
   spin  1
    eigenvalues: 
  0.578  0.631  0.993  1.001  1.002
    eigenvectors:
  0.000  0.998  0.000  0.001  0.001
  0.000  0.001  0.000  0.861  0.137
  0.000  0.000  0.000  0.138  0.862
  0.000  0.000  0.999  0.000  0.000
  1.000  0.000  0.000  0.000  0.000
    occupations:
  0.631 -0.012 -0.004  0.006 -0.000
 -0.012  1.001  0.000  0.000  0.001
 -0.004  0.000  1.002  0.000  0.000
  0.006  0.000  0.000  0.993  0.000
 -0.000  0.001  0.000  0.000  0.578
   spin  2
    eigenvalues: 
  0.112  0.159  0.190  0.400  0.405
    eigenvectors:
  0.002  0.004  0.000  0.003  0.990
  0.001  0.919  0.076  0.000  0.004
  0.000  0.075  0.924  0.000  0.000
  0.997  0.001  0.000  0.000  0.002
  0.000  0.000  0.000  0.997  0.003
    occupations:
  0.403  0.016  0.005 -0.013 -0.000
  0.016  0.162 -0.008  0.000 -0.001
  0.005 -0.008  0.188  0.001  0.000
 -0.013  0.000  0.001  0.113 -0.000
 -0.000 -0.001  0.000 -0.000  0.400
atomic mag. moment =     2.939574
atom    9   Tr[ns(na)] (up, down, total) =   4.16530  1.36679  5.53209
   spin  1
    eigenvalues: 
  0.633  0.634  0.939  0.965  0.994
    eigenvectors:
  0.124  0.062  0.000  0.000  0.814
  0.334  0.666  0.000  0.000  0.000
  0.000  0.000  0.007  0.993  0.000
  0.542  0.272  0.000  0.000  0.186
  0.000  0.000  0.993  0.007  0.000
    occupations:
  0.927  0.000 -0.000 -0.140 -0.000
  0.000  0.634  0.000 -0.000 -0.000
 -0.000  0.000  0.965  0.000 -0.002
 -0.140 -0.000  0.000  0.701 -0.000
 -0.000 -0.000 -0.002 -0.000  0.939
   spin  2
    eigenvalues: 
  0.164  0.180  0.186  0.400  0.437
    eigenvectors:
  0.843  0.000  0.000  0.157  0.000
  0.000  0.000  0.000  0.002  0.998
  0.000  0.919  0.081  0.000  0.000
  0.157  0.000  0.000  0.841  0.001
  0.000  0.081  0.919  0.000  0.000
    occupations:
  0.201 -0.000  0.000  0.086 -0.000
 -0.000  0.437 -0.000 -0.001 -0.000
  0.000 -0.000  0.181 -0.000  0.002
  0.086 -0.001 -0.000  0.363 -0.000
 -0.000 -0.000  0.002 -0.000  0.186
atomic mag. moment =     2.798512
atom   10   Tr[ns(na)] (up, down, total) =   4.39584  1.01009  5.40594
   spin  1
    eigenvalues: 
  0.622  0.789  0.990  0.995  1.000
    eigenvectors:
  0.000  0.985  0.000  0.015  0.000
  0.000  0.000  1.000  0.000  0.000
  0.000  0.000  0.000  0.000  1.000
  0.000  0.015  0.000  0.985  0.000
  1.000  0.000  0.000  0.000  0.000
    occupations:
  0.792  0.000  0.001  0.025 -0.000
  0.000  0.990  0.000 -0.000 -0.000
  0.001  0.000  1.000 -0.000 -0.000
  0.025 -0.000 -0.000  0.992 -0.000
 -0.000 -0.000 -0.000 -0.000  0.622
   spin  2
    eigenvalues: 
  0.097  0.145  0.151  0.251  0.366
    eigenvectors:
  0.013  0.000  0.000  0.987  0.000
  0.000  1.000  0.000  0.000  0.000
  0.000  0.000  1.000  0.000  0.000
  0.987  0.000  0.000  0.013  0.000
  0.000  0.000  0.000  0.000  1.000
    occupations:
  0.249  0.000 -0.001 -0.018 -0.000
  0.000  0.145 -0.000 -0.000  0.000
 -0.001 -0.000  0.151  0.000  0.000
 -0.018 -0.000  0.000  0.099 -0.000
 -0.000  0.000  0.000 -0.000  0.366
atomic mag. moment =     3.385747
atom   16   Tr[ns(na)] (up, down, total) =   4.21316  1.27065  5.48381
   spin  1
    eigenvalues: 
  0.607  0.619  0.993  0.994  1.000
    eigenvectors:
  0.196  0.040  0.722  0.023  0.019
  0.236  0.762  0.002  0.001  0.000
  0.000  0.000  0.038  0.085  0.877
  0.568  0.198  0.224  0.006  0.003
  0.000  0.000  0.014  0.885  0.100
    occupations:
  0.902  0.017 -0.004 -0.162  0.001
  0.017  0.617  0.002 -0.004 -0.009
 -0.004  0.002  0.999 -0.005 -0.002
 -0.162 -0.004 -0.005  0.700  0.000
  0.001 -0.009 -0.002  0.000  0.994
   spin  2
    eigenvalues: 
  0.128  0.159  0.192  0.382  0.410
    eigenvectors:
  0.787  0.000  0.003  0.149  0.060
  0.003  0.002  0.000  0.389  0.605
  0.003  0.163  0.834  0.000  0.000
  0.207  0.000  0.000  0.460  0.333
  0.000  0.835  0.162  0.001  0.001
    occupations:
  0.183 -0.007 -0.001  0.107 -0.002
 -0.007  0.398 -0.001  0.019  0.012
 -0.001 -0.001  0.186  0.005  0.012
  0.107  0.019  0.005  0.339  0.001
 -0.002  0.012  0.012  0.001  0.165
atomic mag. moment =     2.942518
atom   17   Tr[ns(na)] (up, down, total) =   4.20402  1.26524  5.46926
   spin  1
    eigenvalues: 
  0.579  0.632  0.994  0.999  1.000
    eigenvectors:
  0.000  0.999  0.000  0.000  0.001
  0.000  0.001  0.000  0.040  0.959
  0.000  0.000  0.000  0.959  0.040
  0.000  0.000  0.999  0.001  0.000
  1.000  0.000  0.000  0.000  0.000
    occupations:
  0.633 -0.012 -0.004  0.006 -0.000
 -0.012  1.000  0.000  0.000  0.001
 -0.004  0.000  0.999  0.000  0.000
  0.006  0.000  0.000  0.994  0.000
 -0.000  0.001  0.000  0.000  0.579
   spin  2
    eigenvalues: 
  0.113  0.158  0.190  0.398  0.406
    eigenvectors:
  0.002  0.004  0.000  0.001  0.993
  0.001  0.925  0.070  0.000  0.004
  0.000  0.069  0.930  0.000  0.000
  0.997  0.001  0.000  0.000  0.002
  0.000  0.000  0.000  0.999  0.001
    occupations:
  0.404  0.016  0.005 -0.012 -0.000
  0.016  0.162 -0.008  0.000 -0.001
  0.005 -0.008  0.188  0.001  0.000
 -0.012  0.000  0.001  0.114 -0.000
 -0.000 -0.001  0.000 -0.000  0.398
atomic mag. moment =     2.938778
atom   22   Tr[ns(na)] (up, down, total) =   4.16519  1.36700  5.53219
   spin  1
    eigenvalues: 
  0.632  0.635  0.939  0.965  0.994
    eigenvectors:
  0.101  0.085  0.000  0.000  0.814
  0.457  0.543  0.000  0.000  0.000
  0.000  0.000  0.006  0.994  0.000
  0.443  0.371  0.000  0.000  0.186
  0.000  0.000  0.994  0.006  0.000
    occupations:
  0.927  0.000  0.000 -0.140 -0.000
  0.000  0.634  0.000  0.001 -0.000
  0.000  0.000  0.965  0.000  0.002
 -0.140  0.001  0.000  0.701  0.000
 -0.000 -0.000  0.002  0.000  0.939
   spin  2
    eigenvalues: 
  0.164  0.180  0.186  0.400  0.437
    eigenvectors:
  0.843  0.000  0.000  0.157  0.000
  0.000  0.000  0.000  0.001  0.999
  0.000  0.913  0.087  0.000  0.000
  0.157  0.000  0.000  0.842  0.001
  0.000  0.087  0.913  0.000  0.000
    occupations:
  0.201  0.000  0.000  0.086 -0.000
  0.000  0.437 -0.000  0.001 -0.000
  0.000 -0.000  0.181 -0.000 -0.002
  0.086  0.001 -0.000  0.363  0.000
 -0.000 -0.000 -0.002  0.000  0.186
atomic mag. moment =     2.798192
atom   23   Tr[ns(na)] (up, down, total) =   3.95520  1.68901  5.64421
   spin  1
    eigenvalues: 
  0.611  0.650  0.821  0.877  0.996
    eigenvectors:
  0.000  0.999  0.000  0.000  0.001
  0.000  0.000  0.000  1.000  0.000
  0.000  0.000  1.000  0.000  0.000
  0.000  0.001  0.000  0.000  0.999
  1.000  0.000  0.000  0.000  0.000
    occupations:
  0.650  0.000  0.000  0.010  0.000
  0.000  0.877  0.000  0.000  0.000
  0.000  0.000  0.821 -0.000  0.000
  0.010  0.000 -0.000  0.996  0.000
  0.000  0.000  0.000  0.000  0.611
   spin  2
    eigenvalues: 
  0.110  0.337  0.355  0.408  0.479
    eigenvectors:
  0.001  0.000  0.000  0.000  0.999
  0.000  0.000  1.000  0.000  0.000
  0.000  1.000  0.000  0.000  0.000
  0.999  0.000  0.000  0.000  0.001
  0.000  0.000  0.000  1.000  0.000
    occupations:
  0.478 -0.000 -0.000 -0.011 -0.000
 -0.000  0.355  0.000 -0.000 -0.000
 -0.000  0.000  0.337  0.000 -0.000
 -0.011 -0.000  0.000  0.110 -0.000
 -0.000 -0.000 -0.000 -0.000  0.408
atomic mag. moment =     2.266195
N of occupied +U levels =  44.0228690
 --- exit write_ns ---

 ------ SPIN UP ------------


          k = 0.0000 0.0000 0.0000 ( 26393 PWs)   bands (ev):

   -84.4683 -84.3904 -84.3841 -84.3803 -84.2346 -84.1976 -84.1705 -84.1601
   -53.1938 -53.1929 -53.1708 -53.1355 -53.0975 -53.0909 -53.0666 -53.0396
   -53.0364 -53.0332 -53.0247 -53.0095 -52.9795 -52.9443 -52.9189 -52.9146
   -52.9130 -52.9055 -52.8844 -52.7913 -52.7554 -52.7485 -52.7320 -52.7175
   -22.0368 -21.4937 -21.3164 -21.0928 -20.6267 -20.4649 -20.3266 -20.2537
   -20.1297 -20.0845 -20.0517 -20.0399 -19.8891 -19.8658 -19.7304 -19.5654
   -19.4595 -19.2787 -19.0786 -10.4078 -10.2767 -10.1035  -9.7408  -9.5163
    -9.1574  -9.0390  -9.0120  -8.8942  -8.8523  -8.7754  -8.7252  -8.6704
    -8.3957  -8.3422  -8.2595  -8.1027  -7.9640  -7.9282  -7.8774  -7.8048
    -7.7141  -7.4990  -7.4543  -7.3460  -7.1039  -7.0377  -6.9888  -6.9582
    -6.9502  -6.8466  -6.8300  -6.6939  -6.6590  -6.5738  -6.4477  -6.2397
    -5.9965  -5.9312  -5.9043  -5.8713  -5.7578  -5.7377  -5.6513  -5.6266
    -5.5356  -5.4305  -5.2849  -5.2379  -5.1964  -5.1711  -5.1345  -5.0203
    -4.9652  -4.9462  -4.7527  -4.7420  -4.6019  -4.5399  -4.3780  -4.3010
    -4.0038  -3.7692  -3.6684  -3.5036  -3.4319  -3.3232  -3.2185  -3.1931
    -3.1488  -3.1153  -2.9446  -2.8231  -2.7479  -2.6973  -2.5996  -2.5583
    -2.4360  -2.3605  -2.2488  -2.0507  -1.9648  -1.2565  -0.9873  -0.9447
    -0.8664  -0.5702  -0.3919  -0.3888  -0.0744   0.0800   0.1207   0.1657
     0.5245   0.6859   0.8415   0.9425   3.0065   3.7708   3.8816   4.3817
     4.8153   5.5649   6.0589   6.2158   6.5853   7.0353   7.0744   7.1788
     7.3035   7.6273   7.7321   7.8239   7.9469   8.1867   8.2312   8.2391
     8.3084   8.3833   8.5056   8.5251   8.6321   8.9045   8.9480   8.9970
     9.0327   9.1542   9.2984   9.3475   9.4163   9.4829   9.5725   9.6867
     9.8176   9.9346  10.0159  10.2425  10.2955  10.3079  10.5076  10.5350
    10.6724  10.7296  10.9707  10.9996  11.0481  11.0900  11.2898  11.3551
    11.5357  11.5726  11.6626  11.8127  11.8713  12.0271  12.1402  12.2339
    12.2443  12.2872  12.3279  12.3573  12.4018  12.4399  12.5424  12.5925
    12.6431  12.6937  12.8080  12.8392  12.8481  12.9155  12.9731  13.0787
    13.1567  13.1883  13.2646  13.2740  13.3618  13.4646  13.5444  13.5772
    13.7282  13.8207  13.8439  13.9090  13.9364  13.9511  14.1542  14.1815
    14.2451  14.2782  14.3723  14.4145  14.5890  14.6446  14.7361  14.8147
    14.8812  14.8924  15.1510  15.1820  15.2658  15.3023  15.3356  15.3455
    15.5211  15.7656  15.8025  15.8519  15.9402  16.0747  16.1885  16.3152
    16.3892  16.5380  16.5575  16.6526  16.7105  16.7681  17.0581  17.1375
    17.1751  17.2885  17.3987  17.4818  17.5737  17.6939  17.7282  17.8427
    17.9555  18.1429  18.2032  18.2404  18.2972  18.3694  18.4524  18.6283
    18.7021  18.8279  18.9071  18.9872  19.0162  19.1240  19.2071  19.3455
    19.4690  19.5071  19.5676  19.5718  19.6646  19.7191  19.7651  19.8599
    19.9210  19.9517  20.0269  20.0675  20.1562  20.2495  20.3514  20.3639
    20.4258  20.5693  20.6907  20.7684  20.9378  20.9600  21.1273  21.1780
    21.2703  21.2972  21.3421  21.4134  21.4678  21.4973  21.5929  21.6180
    21.7284  21.8236  22.0331  22.1281  22.2135  22.2379  22.3194  22.3848
    22.3901  22.4226  22.4574  22.5679  22.6062  22.6103  22.6802  22.7887
    22.8588

          k = 0.0000 0.2303 0.0000 ( 26455 PWs)   bands (ev):

   -84.4683 -84.3904 -84.3841 -84.3803 -84.2346 -84.1976 -84.1705 -84.1601
   -53.1938 -53.1931 -53.1706 -53.1355 -53.0975 -53.0910 -53.0676 -53.0396
   -53.0356 -53.0328 -53.0235 -53.0094 -52.9795 -52.9446 -52.9195 -52.9145
   -52.9138 -52.9051 -52.8846 -52.7914 -52.7554 -52.7485 -52.7321 -52.7175
   -21.9672 -21.3815 -21.3093 -21.1119 -20.6644 -20.4431 -20.4399 -20.3435
   -20.2385 -20.1527 -20.0498 -19.9873 -19.8615 -19.8333 -19.7263 -19.5356
   -19.4649 -19.2800 -19.0702 -10.2512  -9.9853  -9.9589  -9.9088  -9.5261
    -9.4997  -9.0713  -8.9601  -8.8867  -8.7220  -8.7088  -8.6013  -8.4036
    -8.2430  -8.1417  -8.1293  -7.9667  -7.9146  -7.8937  -7.8367  -7.8010
    -7.6310  -7.6265  -7.4362  -7.3936  -7.2191  -7.1879  -7.1034  -7.0431
    -6.9778  -6.8354  -6.8254  -6.7303  -6.6188  -6.5450  -6.5046  -6.4364
    -6.3917  -6.3418  -6.2674  -6.1871  -5.7883  -5.7102  -5.5983  -5.5462
    -5.4517  -5.3792  -5.2896  -5.2373  -5.1714  -5.1493  -5.0742  -4.9294
    -4.8914  -4.8277  -4.6927  -4.5729  -4.4959  -4.3758  -4.2840  -4.2349
    -3.9389  -3.8472  -3.6433  -3.6292  -3.6142  -3.4395  -3.4323  -3.3221
    -3.2403  -3.0851  -2.9952  -2.9580  -2.7595  -2.6548  -2.6215  -2.4918
    -2.3763  -2.2907  -2.2488  -2.0925  -2.0458  -1.8218  -1.6023  -0.8557
    -0.8242  -0.7486  -0.1598  -0.0201   0.0128   0.1244   0.4002   0.6211
     0.7116   0.7543   0.7594   0.9463   3.2786   4.0169   4.1443   4.6072
     5.0221   5.2528   5.7745   6.0061   6.2530   6.3834   6.6694   6.7771
     7.1443   7.3264   7.3939   7.5159   7.9857   8.1013   8.2810   8.4536
     8.4663   8.6114   8.6798   8.7307   8.8589   9.0087   9.0545   9.2069
     9.2425   9.5490   9.6140   9.6480   9.7374   9.8312   9.8668   9.8971
     9.9848  10.1140  10.1552  10.2462  10.3265  10.4776  10.5084  10.5266
    10.6078  10.7254  10.8503  10.8731  10.9475  11.0014  11.0330  11.1133
    11.2353  11.4141  11.4530  11.5296  11.5375  11.5836  11.7239  11.8408
    11.9383  12.0379  12.0817  12.3576  12.3975  12.5551  12.6105  12.6399
    12.7334  12.7795  12.8482  12.9391  13.0578  13.0941  13.1740  13.3105
    13.4049  13.4578  13.5740  13.6311  13.6736  13.7844  13.8274  13.9387
    14.0253  14.0979  14.2359  14.3228  14.3356  14.3475  14.3970  14.4563
    14.5423  14.5819  14.6077  14.7092  14.7378  14.7702  14.9117  15.0039
    15.0643  15.0856  15.2120  15.3343  15.3709  15.4141  15.4583  15.4594
    15.5578  15.6659  15.8464  15.8754  15.9279  16.0279  16.0776  16.1904
    16.2538  16.3285  16.4005  16.5095  16.5863  16.6457  16.7641  16.8416
    16.9738  17.1234  17.1617  17.3026  17.3880  17.4539  17.4854  17.5907
    17.6541  17.7628  17.7933  17.8452  18.0802  18.0933  18.3154  18.4476
    18.5716  18.7318  18.7726  18.8184  18.8801  18.9678  18.9935  19.0967
    19.1871  19.2363  19.3185  19.3745  19.4478  19.4917  19.5266  19.5739
    19.8728  19.9436  20.1036  20.1601  20.2531  20.3019  20.3429  20.3716
    20.5023  20.5146  20.5349  20.6431  20.7002  20.7730  20.8490  20.9795
    21.0186  21.0710  21.0953  21.1579  21.2109  21.3159  21.3619  21.4434
    21.4605  21.5886  21.7103  21.7526  21.8930  21.9132  21.9541  22.0366
    22.2529  22.2691  22.3533  22.4710  22.5139  22.5481  22.6401  22.7082
    22.7507

          k = 0.0000-0.4606 0.0000 ( 26364 PWs)   bands (ev):

   -84.4683 -84.3903 -84.3841 -84.3803 -84.2346 -84.1976 -84.1705 -84.1601
   -53.1938 -53.1931 -53.1704 -53.1355 -53.0974 -53.0909 -53.0684 -53.0395
   -53.0347 -53.0323 -53.0225 -53.0093 -52.9794 -52.9446 -52.9202 -52.9145
   -52.9143 -52.9048 -52.8846 -52.7913 -52.7553 -52.7484 -52.7320 -52.7175
   -21.8845 -21.3077 -21.2285 -21.0905 -20.8122 -20.6299 -20.4141 -20.3624
   -20.2204 -20.1811 -20.0828 -20.0480 -19.8573 -19.7657 -19.7232 -19.5060
   -19.4768 -19.2812 -19.0633 -10.1801 -10.0897  -9.7292  -9.6166  -9.5535
    -9.5326  -9.0514  -8.9087  -8.7436  -8.5639  -8.5420  -8.5381  -8.3186
    -8.2988  -8.1210  -7.9962  -7.9759  -7.9226  -7.9101  -7.7994  -7.7310
    -7.6628  -7.6115  -7.5480  -7.4032  -7.3989  -7.2817  -7.2049  -7.1247
    -6.8997  -6.8050  -6.7651  -6.6972  -6.6758  -6.6190  -6.6146  -6.5578
    -6.4682  -6.3596  -6.3196  -6.2557  -6.2135  -6.1393  -5.6185  -5.5352
    -5.5031  -5.4250  -5.2456  -5.1721  -5.1081  -5.0822  -5.0007  -4.9372
    -4.8982  -4.6984  -4.5573  -4.5334  -4.3579  -4.3496  -4.1090  -4.0077
    -3.8836  -3.8214  -3.7797  -3.7603  -3.6940  -3.5558  -3.4776  -3.3545
    -3.3066  -3.1698  -3.0219  -2.8929  -2.8773  -2.8081  -2.7199  -2.4325
    -2.3279  -2.2867  -2.2851  -2.1652  -2.1434  -2.1385  -2.0395  -0.7757
    -0.7540  -0.3466  -0.1558  -0.0073  -0.0055   0.2399   0.2843   0.5256
     0.7606   0.9479   1.1224   1.1585   3.8304   4.2352   4.6156   4.7512
     4.8481   5.0826   5.2997   5.5410   5.8321   6.1435   6.5109   6.9289
     7.0000   7.1053   7.4454   7.6816   7.7434   7.8416   7.9575   8.1881
     8.6203   8.9750   8.9888   9.0856   9.1907   9.2085   9.2716   9.3225
     9.3270   9.3853   9.5097   9.5487   9.6063   9.7283   9.8080   9.8566
     9.9421   9.9673  10.1016  10.1266  10.1808  10.3287  10.4574  10.6525
    10.6802  10.7093  10.7705  10.8961  11.0048  11.0717  11.2606  11.3108
    11.4116  11.4324  11.6238  11.7223  11.8022  12.0738  12.1719  12.2291
    12.2642  12.3478  12.5162  12.5245  12.5468  12.5659  12.6354  12.7700
    12.8369  12.8883  12.9618  13.0938  13.1001  13.1778  13.1913  13.2316
    13.2953  13.4380  13.4640  13.5464  13.5893  13.6641  13.7382  13.8921
    13.9501  14.0327  14.0333  14.1202  14.2072  14.2593  14.3376  14.4242
    14.4518  14.4850  14.5414  14.5711  14.6438  14.7095  14.7960  14.8331
    14.8927  15.0237  15.1747  15.1891  15.2326  15.5128  15.7693  15.7821
    15.8442  15.9402  15.9758  16.0546  16.1759  16.2212  16.3733  16.4618
    16.6436  16.7240  16.7769  16.8332  16.9735  17.0172  17.1140  17.1586
    17.2645  17.2971  17.4039  17.4606  17.4777  17.5595  17.6747  17.7353
    17.8091  17.8163  17.8945  17.9239  17.9626  18.0411  18.0686  18.1434
    18.3738  18.4177  18.4880  18.5459  18.6110  18.6452  18.6586  18.6764
    18.7035  18.7692  18.7947  18.9223  18.9873  19.1165  19.1587  19.2604
    19.2797  19.5549  19.5996  19.6169  19.6524  19.9415  19.9817  20.0200
    20.1227  20.1403  20.1591  20.1839  20.2294  20.3820  20.4803  20.5426
    20.6590  20.6950  20.8352  20.8826  20.9651  21.0685  21.1086  21.1768
    21.2496  21.3535  21.4131  21.4893  21.5292  21.6390  21.7301  21.8279
    21.8892  21.9822  22.1308  22.3169  22.3620  22.4221  22.4728  22.7054
    22.7630

          k = 0.2500 0.0000 0.0000 ( 26392 PWs)   bands (ev):

   -84.4681 -84.3888 -84.3841 -84.3817 -84.2341 -84.1978 -84.1689 -84.1615
   -53.1806 -53.1780 -53.1706 -53.1364 -53.1098 -53.1049 -53.0504 -53.0387
   -53.0349 -53.0334 -53.0265 -53.0061 -52.9851 -52.9598 -52.9191 -52.9119
   -52.9066 -52.8968 -52.8855 -52.8098 -52.7538 -52.7468 -52.7349 -52.7177
   -21.9197 -21.4061 -21.3632 -21.0100 -20.7303 -20.5774 -20.4522 -20.1894
   -20.1171 -20.0519 -20.0316 -19.9924 -19.9121 -19.8976 -19.7192 -19.5739
   -19.5058 -19.2830 -19.1190 -10.1982 -10.1134  -9.9625  -9.7223  -9.2887
    -9.1526  -9.0391  -9.0098  -8.9787  -8.8642  -8.7773  -8.7392  -8.5495
    -8.5327  -8.4119  -8.2152  -8.1010  -7.9789  -7.8909  -7.8265  -7.7502
    -7.6831  -7.5973  -7.4911  -7.4333  -7.2365  -7.1109  -6.9696  -6.9157
    -6.8641  -6.8338  -6.7956  -6.6625  -6.6042  -6.5508  -6.4539  -6.4028
    -6.3059  -6.2570  -6.1635  -6.0108  -5.8855  -5.8771  -5.7889  -5.7130
    -5.6492  -5.4106  -5.3949  -5.2969  -5.2177  -5.1145  -5.0016  -4.9536
    -4.8582  -4.6912  -4.6765  -4.6213  -4.4435  -4.3862  -4.2602  -4.1478
    -3.8773  -3.7903  -3.6847  -3.4651  -3.4301  -3.2841  -3.2648  -3.1458
    -3.0335  -2.9710  -2.9018  -2.8808  -2.7876  -2.7219  -2.6402  -2.5367
    -2.4991  -2.3906  -2.3469  -2.2585  -1.9951  -1.0880  -0.9126  -0.8684
    -0.8280  -0.5538  -0.3989  -0.3772  -0.2548  -0.1233  -0.0184   0.2099
     0.2439   0.4854   0.6461   0.8830   3.3310   4.0672   4.2086   4.6808
     5.1331   5.4235   5.8129   6.3177   6.3547   6.5935   6.6249   6.9127
     7.2557   7.3512   7.5104   7.6145   7.9277   7.9920   8.0063   8.0924
     8.2552   8.4446   8.5602   8.5803   8.7559   8.8208   9.0087   9.1814
     9.3171   9.4483   9.5573   9.6039   9.6946   9.7375   9.7725   9.9374
    10.0324  10.0999  10.1616  10.2319  10.3482  10.4427  10.5425  10.6166
    10.6796  10.7425  10.8436  10.8963  10.9909  11.0720  11.1102  11.1904
    11.3478  11.4003  11.4597  11.5123  11.5566  11.5884  11.7540  11.8067
    11.9304  12.1136  12.2343  12.3329  12.4226  12.4531  12.5119  12.5398
    12.6563  12.7272  12.7963  12.9025  13.0470  13.1160  13.1746  13.2422
    13.3879  13.4021  13.5152  13.5707  13.7179  13.7543  13.8563  13.9647
    14.0383  14.0712  14.1031  14.2609  14.3036  14.3156  14.3900  14.5089
    14.5792  14.6448  14.7833  14.8173  14.9274  15.0971  15.1366  15.1479
    15.2094  15.2698  15.4478  15.4937  15.6004  15.6942  15.7303  15.8035
    15.8423  15.8979  16.0149  16.0303  16.0633  16.0991  16.2524  16.4273
    16.4914  16.6070  16.6380  16.6949  16.7249  16.8933  16.9902  17.0653
    17.2212  17.3345  17.3758  17.4546  17.5647  17.5979  17.7746  17.8637
    17.8896  17.9955  17.9996  18.1081  18.1432  18.1712  18.3794  18.4056
    18.4673  18.6769  18.7371  18.9081  18.9224  18.9731  19.0583  19.1010
    19.2471  19.3474  19.3620  19.4778  19.5799  19.7084  19.7283  19.7838
    19.8242  19.9003  19.9587  19.9986  20.0664  20.1902  20.3045  20.3381
    20.4048  20.5041  20.5292  20.6147  20.6662  20.7452  20.7838  20.8080
    20.9075  20.9574  21.0804  21.1798  21.2712  21.3094  21.3752  21.4597
    21.5140  21.5826  21.6809  21.7407  21.8133  21.8624  21.8782  21.9593
    22.0197  22.0677  22.1053  22.1343  22.2048  22.2416  22.2813  22.3285
    22.3542

          k = 0.2500 0.2303 0.0000 ( 26396 PWs)   bands (ev):

   -84.4681 -84.3888 -84.3841 -84.3817 -84.2341 -84.1978 -84.1689 -84.1615
   -53.1807 -53.1781 -53.1704 -53.1365 -53.1098 -53.1049 -53.0520 -53.0387
   -53.0342 -53.0329 -53.0246 -53.0061 -52.9851 -52.9600 -52.9196 -52.9125
   -52.9064 -52.8967 -52.8857 -52.8097 -52.7539 -52.7468 -52.7349 -52.7177
   -21.8612 -21.3908 -21.2623 -21.0063 -20.7112 -20.5567 -20.4326 -20.3697
   -20.2123 -20.1726 -20.1210 -19.9982 -19.8694 -19.8083 -19.7148 -19.5587
   -19.4947 -19.2836 -19.1119 -10.0776  -9.8243  -9.8031  -9.7459  -9.3211
    -9.2511  -8.9816  -8.9288  -8.8641  -8.8528  -8.7717  -8.6393  -8.5354
    -8.4567  -8.2567  -8.1031  -8.0353  -7.9014  -7.8447  -7.7900  -7.7175
    -7.6340  -7.6122  -7.4433  -7.3629  -7.2737  -7.1939  -7.1009  -7.0570
    -7.0280  -6.9478  -6.8441  -6.7829  -6.7486  -6.6778  -6.6159  -6.5270
    -6.4673  -6.4130  -6.3833  -6.2676  -6.0651  -5.8489  -5.6705  -5.5749
    -5.5327  -5.4759  -5.3871  -5.3051  -5.2620  -5.1454  -5.0119  -4.8633
    -4.7523  -4.6924  -4.5537  -4.4208  -4.3385  -4.2821  -4.1775  -4.0363
    -3.9004  -3.8338  -3.6804  -3.5308  -3.4874  -3.3940  -3.3448  -3.2332
    -3.1281  -3.0298  -3.0076  -2.8328  -2.7942  -2.6917  -2.6742  -2.6175
    -2.4664  -2.4073  -2.2759  -2.1941  -2.0707  -1.6118  -1.4245  -0.8440
    -0.7550  -0.6945  -0.4822  -0.2895  -0.0704   0.0006   0.2858   0.4390
     0.5239   0.6757   0.7686   0.8664   3.5887   4.3110   4.4508   4.8950
     5.2979   5.5564   5.6165   6.0318   6.2967   6.5311   6.5749   6.7032
     6.8414   6.9754   7.0949   7.3735   7.5019   7.6727   7.8332   7.9849
     8.2876   8.3913   8.5130   8.6195   8.7495   8.8247   8.9075   9.0633
     9.1095   9.2293   9.3796   9.4962   9.5701   9.7827   9.8959  10.0172
    10.1312  10.1775  10.2836  10.3639  10.5248  10.5577  10.6479  10.8359
    10.8643  11.0394  11.1183  11.1782  11.2741  11.3717  11.3962  11.4387
    11.5847  11.6736  11.7213  11.7748  11.9070  12.0002  12.1726  12.2333
    12.2829  12.4072  12.5024  12.5417  12.5538  12.6916  12.7476  12.8988
    12.9185  12.9466  13.0098  13.0952  13.1278  13.2053  13.2685  13.3594
    13.3949  13.5013  13.5499  13.6420  13.7154  13.7764  13.8145  13.8930
    13.9899  14.0094  14.0798  14.0994  14.1948  14.2583  14.3482  14.4006
[...]
     0.0413   0.0749   0.0946   0.1118   0.2533   0.2885   0.3243   0.3587
     0.4841   0.6554   0.7483   0.7702   0.7806   1.0017   1.0514   1.2166
     1.2511   1.3570   1.6127   1.7012   1.7195   1.8105   1.8216   1.9255
     2.0337   2.1327   2.3842   2.4130   4.2270   4.2333   4.9431   4.9630
     5.1051   5.2745   5.5524   5.7306   6.0803   6.2546   6.6903   6.9034
     7.1893   7.4129   7.5505   7.6658   8.1312   8.2455   8.2850   8.4166
     8.4633   8.5132   8.8010   8.8304   8.9364   8.9527   8.9622   9.0617
     9.1292   9.2580   9.3806   9.4553   9.5009   9.6839   9.7048   9.9215
     9.9356  10.0866  10.2554  10.3668  10.3946  10.4147  10.4546  10.5313
    10.6893  10.7530  10.8281  10.8583  11.1126  11.2808  11.2989  11.3309
    11.3615  11.5569  11.6133  11.8436  11.9518  11.9870  12.0419  12.2968
    12.3445  12.3935  12.5354  12.7292  12.7873  12.8512  12.9217  12.9678
    13.1030  13.1209  13.2873  13.3499  13.4018  13.5645  13.6406  13.7769
    13.8109  13.9673  14.0047  14.0523  14.1417  14.1636  14.1794  14.2221
    14.3371  14.3520  14.4459  14.5665  14.6958  14.7403  14.8549  14.9544
    15.0100  15.0265  15.0526  15.0901  15.1616  15.2125  15.2523  15.3403
    15.4445  15.6784  15.7275  15.8319  15.8803  15.9652  16.0116  16.0411
    16.1030  16.2310  16.3815  16.5910  16.6575  16.7157  16.7695  16.8277
    16.8974  16.9449  17.0583  17.2016  17.2796  17.2979  17.4596  17.5938
    17.6916  17.7458  17.8325  17.8637  17.9721  17.9988  18.0611  18.1116
    18.2242  18.2543  18.3585  18.4172  18.4356  18.4771  18.5084  18.5983
    18.6660  18.8578  18.8854  18.9321  18.9739  18.9959  19.0139  19.1930
    19.2013  19.2230  19.2522  19.3130  19.3804  19.4141  19.4647  19.5706
    19.5785  19.6607  19.9029  19.9639  20.0436  20.1140  20.1264  20.3399
    20.3732  20.3865  20.5177  20.5650  20.5689  20.6373  20.6914  20.7145
    20.7558  20.8181  20.9074  20.9754  20.9946  21.0309  21.0916  21.1187
    21.1679  21.2087  21.2409  21.3078  21.3513  21.4338  21.4580  21.5231
    21.5514  21.6056  21.6777  21.7292  21.7404  21.7999  21.8377  21.8712
    21.9214

          k =-0.5000 0.2303 0.0000 ( 26450 PWs)   bands (ev):

   -81.7053 -80.7514 -80.7512 -80.7252 -80.7252 -80.6592 -80.6305 -80.0217
   -50.7811 -50.3529 -50.3132 -49.6267 -49.6265 -49.5971 -49.5965 -49.5801
   -49.5752 -49.5749 -49.5554 -49.5328 -49.5322 -49.4684 -49.4425 -49.4277
   -49.4263 -49.3666 -49.3662 -49.2686 -49.2383 -49.1211 -48.9080 -48.4807
   -21.5982 -21.5184 -21.0400 -21.0314 -20.7478 -20.7347 -20.4564 -20.4002
   -20.3136 -20.1817 -20.0583 -20.0236 -19.9736 -19.9060 -19.8481 -19.8250
   -19.5073 -19.5066 -19.4205  -9.1048  -9.0922  -8.4746  -8.4579  -8.4157
    -8.3902  -7.9566  -7.9130  -7.8390  -7.7100  -7.6763  -7.4979  -7.4299
    -7.4101  -7.2744  -7.2313  -6.9057  -6.8549  -6.7393  -6.7084  -6.6565
    -6.5712  -6.5013  -6.3791  -6.2527  -6.2174  -6.1483  -6.0815  -6.0560
    -5.9770  -5.9540  -5.7880  -5.7106  -5.6214  -5.6021  -5.5224  -5.4656
    -5.3497  -5.2946  -5.1804  -5.0412  -4.6935  -4.5846  -4.5783  -4.4445
    -4.3787  -4.2158  -4.0991  -4.0867  -3.8917  -3.8656  -3.7221  -3.5529
    -3.4904  -3.3939  -3.1137  -3.0682  -0.6897  -0.5849  -0.5453  -0.4590
    -0.4036  -0.3756  -0.2547  -0.1515  -0.1442  -0.0873  -0.0550  -0.0236
     0.0362   0.0565   0.1213   0.1909   0.2356   0.3184   0.3397   0.3995
     0.6060   0.6326   0.7288   0.7608   0.8242   0.9382   0.9455   1.2763
     1.3277   1.3376   1.3480   1.3825   1.5946   1.6566   1.8750   1.8994
     2.2395   2.3576   2.5151   2.5306   4.4566   4.4668   5.1779   5.2042
     5.3161   5.5123   5.7525   5.9224   6.1499   6.2591   6.4719   6.6584
     6.9418   7.1372   7.1788   7.3425   7.3576   7.5181   7.6297   7.7903
     7.8189   7.9448   8.2444   8.4221   8.5234   8.6781   8.7125   9.0708
     9.1698   9.3686   9.4302   9.5491   9.6291   9.8030   9.9828  10.3066
    10.3612  10.5597  10.5797  10.7293  10.8144  10.8482  10.9610  11.0041
    11.0808  11.1444  11.2793  11.2916  11.5322  11.6138  11.6712  11.6890
    11.7367  11.9213  11.9843  12.0276  12.1913  12.3338  12.4237  12.4420
    12.5604  12.6666  12.7719  12.8671  12.8912  12.9971  13.1356  13.1960
    13.3809  13.4379  13.4735  13.5341  13.6742  13.7290  13.7558  13.8726
    13.9135  14.0403  14.1051  14.2293  14.2892  14.2958  14.4436  14.4702
    14.4852  14.5525  14.5838  14.6000  14.7156  14.7571  14.8651  14.8916
    14.9084  15.0935  15.1048  15.1829  15.2468  15.3110  15.4380  15.5279
    15.5738  15.6357  15.7160  15.7700  15.8606  15.8860  16.0337  16.0758
    16.1055  16.1695  16.2330  16.2518  16.3067  16.3481  16.4189  16.5669
    16.5923  16.6850  16.7313  16.8069  16.8937  16.9177  16.9522  16.9926
    17.0072  17.1165  17.1929  17.2925  17.3651  17.4168  17.4533  17.5748
    17.6168  17.6801  17.7256  17.7586  17.7973  17.8132  17.9179  18.0266
    18.0926  18.1273  18.2030  18.2301  18.3684  18.4067  18.5376  18.5870
    18.6249  18.7935  18.8316  19.0748  19.1615  19.1826  19.3298  19.3691
    19.4352  19.5729  19.5985  19.6703  19.7183  19.9255  19.9317  20.0201
    20.0444  20.1761  20.2211  20.2327  20.2430  20.2912  20.4173  20.4496
    20.5158  20.5300  20.5861  20.6740  20.6993  20.9600  21.0126  21.1344
    21.2025  21.2915  21.3220  21.4490  21.4864  21.6193  21.6391  21.7504
    21.7755  21.8239  21.8932  21.9919  22.0162  22.1606  22.2105  22.4196
    22.4580

          k =-0.5000-0.4606 0.0000 ( 26416 PWs)   bands (ev):

   -81.7053 -80.7514 -80.7512 -80.7252 -80.7252 -80.6592 -80.6305 -80.0216
   -50.7811 -50.3530 -50.3130 -49.6266 -49.6263 -49.5971 -49.5964 -49.5806
   -49.5757 -49.5749 -49.5571 -49.5305 -49.5290 -49.4697 -49.4431 -49.4278
   -49.4267 -49.3666 -49.3662 -49.2685 -49.2383 -49.1210 -48.9081 -48.4807
   -21.5699 -21.4797 -20.8071 -20.8033 -20.7829 -20.7795 -20.6233 -20.6217
   -20.4398 -20.2576 -20.0661 -20.0557 -19.9773 -19.8921 -19.8172 -19.7829
   -19.5040 -19.4939 -19.4124  -9.0696  -9.0672  -8.0538  -8.0344  -7.9942
    -7.9004  -7.8968  -7.8250  -7.7746  -7.6754  -7.5377  -7.5071  -7.4643
    -7.3802  -7.2536  -7.2234  -7.1670  -6.9837  -6.9457  -6.9324  -6.7205
    -6.6575  -6.6429  -6.4912  -6.4024  -6.3802  -6.3321  -6.3177  -6.1684
    -6.1340  -6.0343  -5.9651  -5.8326  -5.7457  -5.6949  -5.5106  -5.4401
    -5.3312  -5.3080  -5.1461  -5.0049  -4.9315  -4.7163  -4.5498  -4.4912
    -4.4006  -4.2295  -4.0330  -4.0219  -3.8868  -3.7403  -3.7084  -3.6028
    -3.5139  -3.2601  -3.0279  -2.9982  -0.5784  -0.5510  -0.5181  -0.4986
    -0.4186  -0.2828  -0.2518  -0.2224  -0.0778  -0.0691  -0.0262   0.0751
     0.1119   0.1381   0.2326   0.2504   0.3315   0.3362   0.3473   0.4225
     0.6013   0.6631   0.6659   0.7103   0.7848   0.8481   0.8557   0.9608
     1.0744   1.0948   1.3884   1.3897   1.5822   1.7078   1.9753   1.9821
     2.4701   2.5026   2.5080   2.5764   4.9237   4.9369   5.3770   5.3829
     5.6657   5.9051   5.9160   6.0012   6.0104   6.2234   6.2305   6.3121
     6.4463   6.6544   6.6992   6.8213   6.9932   7.2100   7.3225   7.4760
     7.6955   7.9597   8.1064   8.2630   8.3053   8.4062   8.6540   8.8124
     8.9181   9.1106   9.2281   9.4311   9.5040   9.7693   9.9737  10.1074
    10.2137  10.4424  10.7465  10.8757  10.9290  11.0382  11.1691  11.3075
    11.3341  11.4337  11.6733  11.8465  12.2525  12.3546  12.3596  12.4037
    12.5199  12.5297  12.5878  12.6997  12.9099  13.0044  13.0345  13.1106
    13.2204  13.2576  13.3216  13.3485  13.5181  13.5912  13.6600  13.6746
    13.6953  13.7494  13.7730  13.8398  13.8593  13.8882  13.9840  14.0046
    14.0655  14.1032  14.1266  14.1734  14.2357  14.3037  14.3178  14.3711
    14.4828  14.5524  14.6241  14.6552  14.8025  14.8374  14.9038  14.9401
    15.0227  15.0326  15.0513  15.0912  15.1743  15.1893  15.2550  15.3246
    15.3320  15.4286  15.4928  15.5233  15.5386  15.5554  15.6005  15.6773
    15.7151  15.7594  15.7789  15.8125  15.8348  15.8812  15.9643  16.0505
    16.0680  16.1300  16.1636  16.2022  16.2814  16.4883  16.5565  16.5716
    16.6299  16.6894  16.7605  16.7789  16.8479  16.9818  17.0148  17.0314
    17.0587  17.0746  17.1521  17.2417  17.3183  17.3315  17.4106  17.5389
    17.7200  17.8787  18.0233  18.1204  18.1427  18.2029  18.2335  18.3033
    18.3355  18.4073  18.4818  18.5022  18.6517  18.7167  18.7580  18.8178
    18.9420  19.1663  19.2677  19.3574  19.3970  19.4969  19.5183  19.6344
    20.0945  20.1673  20.1707  20.3003  20.3542  20.4868  20.5552  20.6650
    20.7282  20.7754  20.8384  20.9676  20.9774  21.1430  21.2901  21.3666
    21.6294  21.6612  21.7652  21.7861  21.8821  21.8981  21.9380  22.1330
    22.1632  22.3669  22.4641  22.5610  22.5866  22.6624  22.6779  22.8697
    22.9143

          k =-0.2500 0.2303 0.0000 ( 26396 PWs)   bands (ev):

   -81.7052 -80.7553 -80.7471 -80.7291 -80.7211 -80.6597 -80.6298 -80.0216
   -50.7811 -50.3541 -50.3132 -49.6479 -49.6304 -49.6240 -49.6227 -49.6196
   -49.5455 -49.5405 -49.5332 -49.5217 -49.5120 -49.4707 -49.4404 -49.4349
   -49.4185 -49.3755 -49.3573 -49.2690 -49.2379 -49.1199 -48.9080 -48.4807
   -21.8004 -21.3515 -21.3139 -20.9945 -20.6872 -20.5657 -20.4578 -20.3832
   -20.2813 -20.1845 -20.1153 -19.9731 -19.9333 -19.9251 -19.8880 -19.7351
   -19.5809 -19.4438 -19.4122  -9.2603  -9.0480  -8.7362  -8.6260  -8.5531
    -8.2664  -8.1295  -8.0568  -7.7664  -7.6912  -7.5592  -7.4780  -7.4180
    -7.3927  -7.3017  -7.1251  -7.0911  -6.9141  -6.8959  -6.7648  -6.7140
    -6.6366  -6.5331  -6.4521  -6.3731  -6.2305  -6.1699  -6.0785  -5.9567
    -5.9170  -5.8146  -5.7479  -5.6518  -5.5657  -5.5101  -5.3938  -5.2683
    -5.1170  -4.9603  -4.8144  -4.7966  -4.6703  -4.6124  -4.5449  -4.4906
    -4.3432  -4.2582  -4.1401  -4.0314  -3.9743  -3.8606  -3.7296  -3.6866
    -3.4997  -3.3920  -3.2051  -2.9290  -0.8018  -0.6667  -0.5107  -0.4622
    -0.4343  -0.4246  -0.3708  -0.2878  -0.2083  -0.1537  -0.1020  -0.0494
    -0.0412   0.0984   0.1050   0.1790   0.2499   0.3221   0.3608   0.4773
     0.5972   0.6446   0.7376   0.7970   0.8105   0.9107   0.9725   1.0488
     1.2369   1.3402   1.5158   1.7109   1.7428   1.8578   1.9972   2.1099
     2.1695   2.4374   2.5032   2.6022   3.6395   4.3371   4.5629   4.9963
     5.4152   5.6326   5.6893   6.1776   6.3344   6.5668   6.5931   6.7796
     6.8626   7.0027   7.0907   7.4176   7.5441   7.7958   7.8790   8.0406
     8.3575   8.4329   8.5793   8.6527   8.7990   8.8950   8.9631   9.1296
     9.1901   9.3352   9.4878   9.5461   9.7447   9.8903  10.0201  10.1214
    10.1979  10.2416  10.3580  10.4302  10.5947  10.7064  10.8143  10.9207
    11.0473  11.1297  11.2254  11.2758  11.3740  11.4692  11.5902  11.6316
    11.6904  11.8060  11.8896  11.9386  11.9765  12.1223  12.3252  12.3615
    12.4122  12.5169  12.5593  12.6959  12.7407  12.8502  12.9660  12.9832
    13.0280  13.0880  13.1516  13.2164  13.3265  13.3813  13.4661  13.5209
    13.5863  13.7049  13.7361  13.7781  13.8495  13.9769  14.0337  14.0886
    14.1844  14.2586  14.2997  14.3252  14.4195  14.4451  14.5433  14.6201
    14.7221  14.7802  14.9218  14.9577  15.0293  15.0732  15.1158  15.2488
    15.3455  15.4210  15.5126  15.6052  15.7109  15.8321  15.9812  16.0543
    16.1394  16.1893  16.2718  16.3441  16.4228  16.5301  16.5402  16.5839
    16.6762  16.7439  16.8406  16.9479  17.0115  17.0838  17.1800  17.2510
    17.3123  17.3566  17.4254  17.4969  17.5951  17.6146  17.7282  17.7898
    17.8740  17.9100  17.9450  18.0757  18.1467  18.2146  18.2905  18.3537
    18.4083  18.5383  18.6041  18.6858  18.7587  18.8064  18.9125  19.0143
    19.0841  19.1106  19.1554  19.2339  19.3040  19.3790  19.4612  19.5093
    19.6402  19.7047  19.8212  19.8858  19.9496  20.0039  20.0666  20.1058
    20.1622  20.2591  20.2940  20.3368  20.4000  20.4885  20.6009  20.7001
    20.8299  20.9232  21.0048  21.0438  21.0948  21.1533  21.2137  21.3426
    21.4111  21.4538  21.5188  21.5766  21.6497  21.7022  21.7335  21.8309
    21.9195  22.0016  22.1116  22.1818  22.2633  22.4173  22.4543  22.5069
    22.5719

     the spin up/dw Fermi energies are    -2.4171   -2.0238 ev

!    total energy              =   -2319.90397560 Ry
     Harris-Foulkes estimate   =   -2319.90397561 Ry
     estimated scf accuracy    <          8.8E-09 Ry

     The total energy is the sum of the following terms:

     one-electron contribution =  -26181.58523478 Ry
     hartree contribution      =   13106.88860833 Ry
     xc contribution           =    -348.08968067 Ry
     ewald contribution        =   11101.85646035 Ry
     Hubbard energy            =       1.02603718 Ry
     smearing contrib. (-TS)   =      -0.00016601 Ry

     total magnetization       =    22.00 Bohr mag/cell
     absolute magnetization    =    27.04 Bohr mag/cell

     convergence has been achieved in  18 iterations

     Forces acting on atoms (Ry/au):


     negative rho (up, down):  0.202E-02 0.139E-02
     atom    1 type  1   force =    -0.00547554   -0.01517728    0.00025844
     atom    2 type  1   force =     0.00032116    0.01016089    0.00023612
     atom    3 type  2   force =     0.03750829   -0.00142545   -0.00025279
     atom    4 type  2   force =     0.00667585    0.01123028   -0.00009156
     atom    5 type  1   force =     0.00077089    0.01842274    0.00008038
     atom    6 type  1   force =    -0.00494750   -0.02138215   -0.00015284
     atom    7 type  1   force =     0.00005342    0.00029084    0.00019645
     atom    8 type  1   force =    -0.00107180   -0.00125778   -0.00036158
     atom    9 type  2   force =     0.01434181    0.00030339   -0.00062775
     atom   10 type  2   force =    -0.00000294   -0.00077757    0.00034821
     atom   11 type  1   force =     0.01241222   -0.06034209    0.00032970
     atom   12 type  1   force =     0.01213026    0.06047265    0.00032399
     atom   13 type  1   force =    -0.00036704   -0.00029256    0.00056575
     atom   14 type  1   force =    -0.00587833   -0.01555793    0.00003871
     atom   15 type  1   force =     0.00030506    0.01032374    0.00020249
     atom   16 type  2   force =    -0.03861337   -0.00142389   -0.00025841
     atom   17 type  2   force =     0.00670957    0.01121062   -0.00010351
     atom   18 type  1   force =     0.00462106    0.01827055    0.00007162
     atom   19 type  1   force =    -0.00041948   -0.02137635   -0.00011741
     atom   20 type  1   force =    -0.00004708   -0.00031289   -0.00087346
     atom   21 type  1   force =    -0.00116173   -0.00118406   -0.00031214
     atom   22 type  2   force =    -0.01298114    0.00046835   -0.00063801
     atom   23 type  2   force =    -0.00007236   -0.00009381   -0.00027685
     atom   24 type  1   force =    -0.01233477   -0.06029572    0.00032529
     atom   25 type  1   force =    -0.01210633    0.06048769    0.00032779
     atom   26 type  1   force =    -0.00031671   -0.00044232    0.00049565
     atom   27 type  3   force =    -0.00001281   -0.00017687    0.00004408
     atom   28 type  3   force =    -0.00000621   -0.00018614    0.00005244
     atom   29 type  3   force =    -0.00008062   -0.00001782    0.00021438
     atom   30 type  3   force =     0.00004767    0.00007035    0.00032970
     atom   31 type  1   force =    -0.00000151    0.00001061   -0.00037490

     Total force =     0.001940     Total SCF correction =     0.000224
     SCF correction compared to forces is large: reduce conv_thr to get better values

     bfgs converged in  17 scf cycles and  16 bfgs steps
     (criteria: energy < 0.10E-03, force < 0.10E-02)

     End of BFGS Geometry Optimization

     Final energy   =   -2319.9039756012 Ry
Begin final coordinates

ATOMIC_POSITIONS (crystal)
O0       0.000000000   0.000000000   0.375913168    0   0   1
O0       0.000000000   0.500000000   0.396377337    0   0   1
Mn1      0.250000000   0.500000000   0.448394179    0   0   1
Mn1      0.000000000   0.000000000   0.447226529    0   0   1
O0       0.250000000   0.800000000   0.447835227    0   0   1
O0       0.250000000   0.200000000   0.449095058    0   0   1
O0       0.000000000   0.500000000   0.494774038    0   0   1
O0       0.000000000   0.000000000   0.524455316    0   0   1
Mn1      0.250000000   0.000000000   0.573406368    0   0   1
Mn1      0.000000000   0.500000000   0.567996900    0   0   1
O0       0.250000000   0.700000000   0.578206405    0   0   1
O0       0.250000000   0.300000000   0.578392977    0   0   1
O0       0.000000000   0.000000000   0.619026270    0   0   1
O0       0.500000000   0.000000000   0.376330527    0   0   1
O0       0.500000000   0.500000000   0.396322326    0   0   1
Mn1      0.750000000   0.500000000   0.448400469    0   0   1
Mn1      0.500000000   0.000000000   0.447753459    0   0   1
O0       0.750000000   0.800000000   0.447844061    0   0   1
O0       0.750000000   0.200000000   0.449094363    0   0   1
O0       0.500000000   0.500000000   0.494158177    0   0   1
O0       0.500000000   0.000000000   0.524427774    0   0   1
Mn1      0.750000000   0.000000000   0.573421143    0   0   1
Mn1      0.500000000   0.500000000   0.591081005    0   0   1
O0       0.750000000   0.700000000   0.578190421    0   0   1
O0       0.750000000   0.300000000   0.578359598    0   0   1
O0       0.500000000   0.000000000   0.618967554    0   0   1
H2       0.000303890   0.645755572   0.379857445
H2       0.500240216   0.646554398   0.380082741
H2       0.161116921   0.040291248   0.364594831
H2       0.660969833   0.039981502   0.364865931
O0       0.500110436   0.500991865   0.652308405
End final coordinates



     init_run     :    121.12s CPU    124.80s WALL (       1 calls)
     electrons    : 117716.42s CPU 121845.78s WALL (      17 calls)
     update_pot   :    308.84s CPU    318.49s WALL (      16 calls)
     forces       :   3386.13s CPU   3473.09s WALL (      17 calls)

     Called by init_run:
     wfcinit      :     54.32s CPU     57.40s WALL (       1 calls)
     potinit      :      8.20s CPU      8.48s WALL (       1 calls)

     Called by electrons:
     c_bands      :  67255.63s CPU  69667.73s WALL (     489 calls)
     sum_band     :  26006.74s CPU  26853.20s WALL (     489 calls)
     v_of_rho     :   1125.50s CPU   1265.67s WALL (     505 calls)
     newd         :  23372.42s CPU  23459.09s WALL (     505 calls)
     mix_rho      :    193.69s CPU    197.93s WALL (     489 calls)

     Called by c_bands:
     init_us_2    :    143.65s CPU    144.73s WALL (    5150 calls)
     cegterg      :  65774.18s CPU  67153.94s WALL (    2445 calls)

     Called by *egterg:
     h_psi        :  37127.91s CPU  37845.21s WALL (    6480 calls)
     s_psi        :   3979.19s CPU   4023.59s WALL (    6650 calls)
     g_psi        :     86.96s CPU     87.03s WALL (    4030 calls)
     cdiaghg      :   6543.07s CPU   6557.57s WALL (    6390 calls)

     Called by h_psi:
     add_vuspsi   :   3897.93s CPU   3946.04s WALL (    6480 calls)
     vhpsi        :   3906.36s CPU   3954.03s WALL (    6480 calls)

     General routines
     calbec       :   9285.97s CPU   9380.52s WALL (   41905 calls)
     fft          :   1207.72s CPU   1501.98s WALL (   15816 calls)
     ffts         :     13.85s CPU     14.34s WALL (    1988 calls)
     fftw         :  20512.12s CPU  21258.96s WALL ( 4371127 calls)
     interpolate  :    144.64s CPU    146.39s WALL (    1988 calls)
     davcio       :      0.30s CPU     68.57s WALL (    5235 calls)

     Parallel routines
     fft_scatter  :   7102.11s CPU   8108.11s WALL ( 4388931 calls)
     Hubbard U routines
     new_ns       :    935.15s CPU    986.58s WALL (     489 calls)
     vhpsi        :   3906.36s CPU   3954.03s WALL (    6480 calls)
     force_hub    :    915.30s CPU    937.30s WALL (      17 calls)

     PWSCF        :     1d    9h59m CPU        1d   11h10m WALL


   This run was terminated on:  21:16:23   3May2014            

=------------------------------------------------------------------------------=
   JOB DONE.
=------------------------------------------------------------------------------=
