loading modules
dropbox is Dropbox isn't running!

     Program PWSCF v.5.0.2 (svn rev. 9656) starts on  9Aug2014 at  9:25: 1 

     This program is part of the open-source Quantum ESPRESSO suite
     for quantum simulation of materials; please cite
         "P. Giannozzi et al., J. Phys.:Condens. Matter 21 395502 (2009);
          URL http://www.quantum-espresso.org", 
     in publications or presentations arising from this work. More details at
     http://www.quantum-espresso.org/quote.php

     Parallel version (MPI), running on    16 processors
     K-points division:     npool     =       4
     R & G space division:  proc/nbgrp/npool/nimage =       4

     Current dimensions of program PWSCF are:
     Max number of different atomic species (ntypx) = 10
     Max number of k-points (npk) =  40000
     Max angular momentum in pseudopotentials (lmaxx) =  3
     Reading input from pwscf.in
Warning: card &CELL ignored
Warning: card / ignored

     Subspace diagonalization in iterative solution of the eigenvalue problem:
     a serial algorithm will be used

 
     Parallelization info
     --------------------
     sticks:   dense  smooth     PW     G-vecs:    dense   smooth      PW
     Min        1274     408    116               299662    54238    8133
     Max        1275     409    117               299663    54251    8135
     Sum        5097    1635    467              1198649   216969   32535
 


     bravais-lattice index     =            0
     lattice parameter (alat)  =      10.9604  a.u.
     unit-cell volume          =    6350.6732 (a.u.)^3
     number of atoms/cell      =           33
     number of atomic types    =            3
     number of electrons       =       237.00 (up: 126.00, down: 111.00)
     number of Kohn-Sham states=          343
     kinetic-energy cutoff     =      40.0000  Ry
     charge density cutoff     =     500.0000  Ry
     convergence threshold     =      1.0E-06
     mixing beta               =       0.7000
     number of iterations used =            8  plain     mixing
     Exchange-correlation      = SLA  PW   PBE  PBE ( 1 4 3 4 0)
     EXX-fraction              =        0.00
     nstep                     =           50


     celldm(1)=  10.960412  celldm(2)=   0.000000  celldm(3)=   0.000000
     celldm(4)=   0.000000  celldm(5)=   0.000000  celldm(6)=   0.000000

     crystal axes: (cart. coord. in units of alat)
               a(1) = (   1.000000   0.000000   0.000000 )  
               a(2) = (   0.000000   1.067975   0.000000 )  
               a(3) = (   0.000000   0.000000   4.516251 )  

     reciprocal axes: (cart. coord. in units 2 pi/alat)
               b(1) = (  1.000000  0.000000  0.000000 )  
               b(2) = (  0.000000  0.936351  0.000000 )  
               b(3) = (  0.000000  0.000000  0.221423 )  


     PseudoPot. # 1 for O  read from file:
     /home-research/zhongnanxu/gbrv_espresso_pseudo_v1.01/o_pbe_v1.01.uspp.F.UPF
     MD5 check sum: 2bcb18d16ea4b960afae9ec6d52f22d2
     Pseudo is Ultrasoft + core correction, Zval =  6.0
     Generated by new atomic code, or converted to UPF format
     Using radial grid of  737 points,  5 beta functions with: 
                l(1) =   0
                l(2) =   0
                l(3) =   1
                l(4) =   1
                l(5) =   2
     Q(r) pseudized with  8 coefficients,  rinner =    0.900   0.900   0.900
                                                       0.900   0.900

     PseudoPot. # 2 for Cr read from file:
     /home-research/zhongnanxu/gbrv_espresso_pseudo_v1.01/cr_pbe_v1.uspp.F.UPF
     MD5 check sum: 68b6f918d1762dccfb11451fe85b0e0e
     Pseudo is Ultrasoft + core correction, Zval = 14.0
     Generated by new atomic code, or converted to UPF format
     Using radial grid of  857 points,  6 beta functions with: 
                l(1) =   0
                l(2) =   0
                l(3) =   1
                l(4) =   1
                l(5) =   2
                l(6) =   2
     Q(r) pseudized with  6 coefficients,  rinner =    1.000   1.000   1.000
                                                       1.000   1.000

     PseudoPot. # 3 for H  read from file:
     /home-research/zhongnanxu/gbrv_espresso_pseudo_v1.01/h_pbe_v1.uspp.F.UPF
     MD5 check sum: 3408e3ff4ec8b0a4e358431e7e038a48
     Pseudo is Ultrasoft, Zval =  1.0
     Generated by new atomic code, or converted to UPF format
     Using radial grid of  615 points,  2 beta functions with: 
                l(1) =   0
                l(2) =   0
     Q(r) pseudized with  8 coefficients,  rinner =    0.700

     atomic species   valence    mass     pseudopotential
        O0             6.00    15.99940     O ( 1.00)
        Cr1           14.00    51.99600     Cr( 1.00)
        H2             1.00     1.00794     H ( 1.00)

     Starting magnetic structure 
     atomic species   magnetization
        O0           0.000
        Cr1          0.600
        H2           0.000


     Simplified LDA+U calculation (l_max = 2) with parameters (eV):
     atomic species    L          U    alpha       J0     beta
        Cr1            2     3.0000   0.0000   0.0000   0.0000



     No symmetry found



   Cartesian axes

     site n.     atom                  positions (alat units)
         1           O0  tau(   1) = (   0.0000000   0.0000000   1.7057880  )
         2           O0  tau(   2) = (   0.0000000   0.5339875   1.8101134  )
         3           Cr1 tau(   3) = (   0.2500000   0.5339875   2.0412099  )
         4           Cr1 tau(   4) = (   0.0000000   0.0000000   2.0263515  )
         5           O0  tau(   5) = (   0.2500000   0.8543801   2.0311839  )
         6           O0  tau(   6) = (   0.2500000   0.2135950   2.0319065  )
         7           O0  tau(   7) = (   0.0000000   0.5339875   2.2504478  )
         8           O0  tau(   8) = (   0.0000000   0.0000000   2.3617283  )
         9           Cr1 tau(   9) = (   0.2500000   0.0000000   2.5571464  )
        10           Cr1 tau(  10) = (   0.0000000   0.5339875   2.5545270  )
        11           O0  tau(  11) = (   0.2500000   0.7475825   2.5883086  )
        12           O0  tau(  12) = (   0.2500000   0.3203925   2.5986508  )
        13           O0  tau(  13) = (   0.0000000   0.0000000   2.7891463  )
        14           O0  tau(  14) = (   0.5000000   0.0000000   1.7052460  )
        15           O0  tau(  15) = (   0.5000000   0.5339875   1.8091650  )
        16           Cr1 tau(  16) = (   0.7500000   0.5339875   2.0419325  )
        17           Cr1 tau(  17) = (   0.5000000   0.0000000   2.0263063  )
        18           O0  tau(  18) = (   0.7500000   0.8543801   2.0310484  )
        19           O0  tau(  19) = (   0.7500000   0.2135950   2.0321774  )
        20           O0  tau(  20) = (   0.5000000   0.5339875   2.2541963  )
        21           O0  tau(  21) = (   0.5000000   0.0000000   2.3617283  )
        22           Cr1 tau(  22) = (   0.7500000   0.0000000   2.6331549  )
        23           Cr1 tau(  23) = (   0.5000000   0.5339875   2.6097156  )
        24           O0  tau(  24) = (   0.7500000   0.7475825   2.5944507  )
        25           O0  tau(  25) = (   0.7500000   0.3203925   2.6044767  )
        26           O0  tau(  26) = (   0.5000000   0.0000000   2.7840880  )
        27           H2  tau(  27) = (  -0.0006600   0.6808768   1.7228142  )
        28           H2  tau(  28) = (   0.4998000   0.6828846   1.7250724  )
        29           H2  tau(  29) = (   0.1568300   0.0328936   1.6463090  )
        30           H2  tau(  30) = (   0.6565800   0.0331499   1.6456315  )
        31           O0  tau(  31) = (   0.4998600   0.5715162   2.9254467  )
        32           O0  tau(  32) = (   0.5002200   0.3713883   3.0709603  )
        33           H2  tau(  33) = (   0.4998900   0.4494573   3.2222096  )

     number of k points=    20  Methfessel-Paxton smearing, width (Ry)=  0.0100
                       cart. coord. in units 2pi/alat
        k(    1) = (   0.0000000   0.0000000   0.0000000), wk =   0.0625000
        k(    2) = (   0.0000000   0.2340879   0.0000000), wk =   0.1250000
        k(    3) = (   0.0000000  -0.4681757   0.0000000), wk =   0.0625000
        k(    4) = (   0.2500000   0.0000000   0.0000000), wk =   0.1250000
        k(    5) = (   0.2500000   0.2340879   0.0000000), wk =   0.1250000
        k(    6) = (   0.2500000  -0.4681757   0.0000000), wk =   0.1250000
        k(    7) = (  -0.5000000   0.0000000   0.0000000), wk =   0.0625000
        k(    8) = (  -0.5000000   0.2340879   0.0000000), wk =   0.1250000
        k(    9) = (  -0.5000000  -0.4681757   0.0000000), wk =   0.0625000
        k(   10) = (  -0.2500000   0.2340879   0.0000000), wk =   0.1250000
        k(   11) = (   0.0000000   0.0000000   0.0000000), wk =   0.0625000
        k(   12) = (   0.0000000   0.2340879   0.0000000), wk =   0.1250000
        k(   13) = (   0.0000000  -0.4681757   0.0000000), wk =   0.0625000
        k(   14) = (   0.2500000   0.0000000   0.0000000), wk =   0.1250000
        k(   15) = (   0.2500000   0.2340879   0.0000000), wk =   0.1250000
        k(   16) = (   0.2500000  -0.4681757   0.0000000), wk =   0.1250000
        k(   17) = (  -0.5000000   0.0000000   0.0000000), wk =   0.0625000
        k(   18) = (  -0.5000000   0.2340879   0.0000000), wk =   0.1250000
        k(   19) = (  -0.5000000  -0.4681757   0.0000000), wk =   0.0625000
        k(   20) = (  -0.2500000   0.2340879   0.0000000), wk =   0.1250000

     Dense  grid:  1198649 G-vectors     FFT dimensions: (  80,  90, 360)

     Smooth grid:   216969 G-vectors     FFT dimensions: (  45,  48, 200)

     Largest allocated arrays     est. size (Mb)     dimensions
        Kohn-Sham Wavefunctions        36.03 Mb     (   6884,  343)
        Atomic wavefunctions           17.33 Mb     (   6884,  165)
        NL pseudopotentials            43.49 Mb     (   6884,  414)
        Each V/rho on FFT grid         19.78 Mb     ( 648000,   2)
        Each G-vector array             2.29 Mb     ( 299662)
        G-vector shells                 0.99 Mb     ( 129803)
     Largest temporary arrays     est. size (Mb)     dimensions
        Auxiliary wavefunctions       144.12 Mb     (   6884, 1372)
        Each subspace H/S matrix       28.72 Mb     (1372,1372)
        Each <psi_i|beta_j> matrix      2.17 Mb     (    414,  343)
        Arrays for rho mixing          79.10 Mb     ( 648000,   8)

     Check: negative/imaginary core charge=   -0.000012    0.000000

     Initial potential from superposition of free atoms
     Check: negative starting charge=(component1):   -0.001299
     Check: negative starting charge=(component2):   -0.000449

     starting charge  228.99983, renormalised to  237.00000

     negative rho (up, down):  0.134E-02 0.465E-03
     Number of +U iterations with fixed ns =  0
     Starting occupations:
 --- enter write_ns ---
 LDA+U parameters:
U( 2)     =  3.00000000
alpha( 2) =  0.00000000
atom    3   Tr[ns(na)] (up, down, total) =   5.00000  0.00000  5.00000
   spin  1
    eigenvalues: 
  1.000  1.000  1.000  1.000  1.000
    eigenvectors:
  1.000  0.000  0.000  0.000  0.000
  0.000  1.000  0.000  0.000  0.000
  0.000  0.000  1.000  0.000  0.000
  0.000  0.000  0.000  1.000  0.000
  0.000  0.000  0.000  0.000  1.000
    occupations:
  1.000  0.000  0.000  0.000  0.000
  0.000  1.000  0.000  0.000  0.000
  0.000  0.000  1.000  0.000  0.000
  0.000  0.000  0.000  1.000  0.000
  0.000  0.000  0.000  0.000  1.000
   spin  2
    eigenvalues: 
  0.000  0.000  0.000  0.000  0.000
    eigenvectors:
  1.000  0.000  0.000  0.000  0.000
  0.000  1.000  0.000  0.000  0.000
  0.000  0.000  1.000  0.000  0.000
  0.000  0.000  0.000  1.000  0.000
  0.000  0.000  0.000  0.000  1.000
    occupations:
  0.000  0.000  0.000  0.000  0.000
  0.000  0.000  0.000  0.000  0.000
  0.000  0.000  0.000  0.000  0.000
  0.000  0.000  0.000  0.000  0.000
  0.000  0.000  0.000  0.000  0.000
atomic mag. moment =     5.000000
atom    4   Tr[ns(na)] (up, down, total) =   5.00000  0.00000  5.00000
   spin  1
    eigenvalues: 
  1.000  1.000  1.000  1.000  1.000
    eigenvectors:
  1.000  0.000  0.000  0.000  0.000
  0.000  1.000  0.000  0.000  0.000
  0.000  0.000  1.000  0.000  0.000
  0.000  0.000  0.000  1.000  0.000
  0.000  0.000  0.000  0.000  1.000
    occupations:
  1.000  0.000  0.000  0.000  0.000
  0.000  1.000  0.000  0.000  0.000
  0.000  0.000  1.000  0.000  0.000
  0.000  0.000  0.000  1.000  0.000
  0.000  0.000  0.000  0.000  1.000
   spin  2
    eigenvalues: 
  0.000  0.000  0.000  0.000  0.000
    eigenvectors:
  1.000  0.000  0.000  0.000  0.000
  0.000  1.000  0.000  0.000  0.000
  0.000  0.000  1.000  0.000  0.000
  0.000  0.000  0.000  1.000  0.000
  0.000  0.000  0.000  0.000  1.000
    occupations:
  0.000  0.000  0.000  0.000  0.000
  0.000  0.000  0.000  0.000  0.000
  0.000  0.000  0.000  0.000  0.000
  0.000  0.000  0.000  0.000  0.000
  0.000  0.000  0.000  0.000  0.000
atomic mag. moment =     5.000000
atom    9   Tr[ns(na)] (up, down, total) =   5.00000  0.00000  5.00000
   spin  1
    eigenvalues: 
  1.000  1.000  1.000  1.000  1.000
    eigenvectors:
  1.000  0.000  0.000  0.000  0.000
  0.000  1.000  0.000  0.000  0.000
  0.000  0.000  1.000  0.000  0.000
  0.000  0.000  0.000  1.000  0.000
  0.000  0.000  0.000  0.000  1.000
    occupations:
  1.000  0.000  0.000  0.000  0.000
  0.000  1.000  0.000  0.000  0.000
  0.000  0.000  1.000  0.000  0.000
  0.000  0.000  0.000  1.000  0.000
  0.000  0.000  0.000  0.000  1.000
   spin  2
    eigenvalues: 
  0.000  0.000  0.000  0.000  0.000
    eigenvectors:
  1.000  0.000  0.000  0.000  0.000
  0.000  1.000  0.000  0.000  0.000
  0.000  0.000  1.000  0.000  0.000
  0.000  0.000  0.000  1.000  0.000
  0.000  0.000  0.000  0.000  1.000
    occupations:
  0.000  0.000  0.000  0.000  0.000
  0.000  0.000  0.000  0.000  0.000
  0.000  0.000  0.000  0.000  0.000
  0.000  0.000  0.000  0.000  0.000
  0.000  0.000  0.000  0.000  0.000
atomic mag. moment =     5.000000
atom   10   Tr[ns(na)] (up, down, total) =   5.00000  0.00000  5.00000
   spin  1
    eigenvalues: 
  1.000  1.000  1.000  1.000  1.000
    eigenvectors:
  1.000  0.000  0.000  0.000  0.000
  0.000  1.000  0.000  0.000  0.000
  0.000  0.000  1.000  0.000  0.000
  0.000  0.000  0.000  1.000  0.000
  0.000  0.000  0.000  0.000  1.000
    occupations:
  1.000  0.000  0.000  0.000  0.000
  0.000  1.000  0.000  0.000  0.000
  0.000  0.000  1.000  0.000  0.000
  0.000  0.000  0.000  1.000  0.000
  0.000  0.000  0.000  0.000  1.000
   spin  2
    eigenvalues: 
  0.000  0.000  0.000  0.000  0.000
    eigenvectors:
  1.000  0.000  0.000  0.000  0.000
  0.000  1.000  0.000  0.000  0.000
  0.000  0.000  1.000  0.000  0.000
  0.000  0.000  0.000  1.000  0.000
  0.000  0.000  0.000  0.000  1.000
    occupations:
  0.000  0.000  0.000  0.000  0.000
  0.000  0.000  0.000  0.000  0.000
  0.000  0.000  0.000  0.000  0.000
  0.000  0.000  0.000  0.000  0.000
  0.000  0.000  0.000  0.000  0.000
atomic mag. moment =     5.000000
atom   16   Tr[ns(na)] (up, down, total) =   5.00000  0.00000  5.00000
   spin  1
    eigenvalues: 
  1.000  1.000  1.000  1.000  1.000
    eigenvectors:
  1.000  0.000  0.000  0.000  0.000
  0.000  1.000  0.000  0.000  0.000
  0.000  0.000  1.000  0.000  0.000
  0.000  0.000  0.000  1.000  0.000
  0.000  0.000  0.000  0.000  1.000
    occupations:
  1.000  0.000  0.000  0.000  0.000
  0.000  1.000  0.000  0.000  0.000
  0.000  0.000  1.000  0.000  0.000
  0.000  0.000  0.000  1.000  0.000
  0.000  0.000  0.000  0.000  1.000
   spin  2
    eigenvalues: 
  0.000  0.000  0.000  0.000  0.000
    eigenvectors:
  1.000  0.000  0.000  0.000  0.000
  0.000  1.000  0.000  0.000  0.000
  0.000  0.000  1.000  0.000  0.000
  0.000  0.000  0.000  1.000  0.000
  0.000  0.000  0.000  0.000  1.000
    occupations:
  0.000  0.000  0.000  0.000  0.000
  0.000  0.000  0.000  0.000  0.000
  0.000  0.000  0.000  0.000  0.000
  0.000  0.000  0.000  0.000  0.000
  0.000  0.000  0.000  0.000  0.000
atomic mag. moment =     5.000000
atom   17   Tr[ns(na)] (up, down, total) =   5.00000  0.00000  5.00000
   spin  1
    eigenvalues: 
  1.000  1.000  1.000  1.000  1.000
    eigenvectors:
  1.000  0.000  0.000  0.000  0.000
  0.000  1.000  0.000  0.000  0.000
  0.000  0.000  1.000  0.000  0.000
  0.000  0.000  0.000  1.000  0.000
  0.000  0.000  0.000  0.000  1.000
    occupations:
  1.000  0.000  0.000  0.000  0.000
  0.000  1.000  0.000  0.000  0.000
  0.000  0.000  1.000  0.000  0.000
  0.000  0.000  0.000  1.000  0.000
  0.000  0.000  0.000  0.000  1.000
   spin  2
    eigenvalues: 
  0.000  0.000  0.000  0.000  0.000
    eigenvectors:
  1.000  0.000  0.000  0.000  0.000
  0.000  1.000  0.000  0.000  0.000
  0.000  0.000  1.000  0.000  0.000
  0.000  0.000  0.000  1.000  0.000
  0.000  0.000  0.000  0.000  1.000
    occupations:
  0.000  0.000  0.000  0.000  0.000
  0.000  0.000  0.000  0.000  0.000
  0.000  0.000  0.000  0.000  0.000
  0.000  0.000  0.000  0.000  0.000
  0.000  0.000  0.000  0.000  0.000
atomic mag. moment =     5.000000
atom   22   Tr[ns(na)] (up, down, total) =   5.00000  0.00000  5.00000
   spin  1
    eigenvalues: 
  1.000  1.000  1.000  1.000  1.000
    eigenvectors:
  1.000  0.000  0.000  0.000  0.000
  0.000  1.000  0.000  0.000  0.000
  0.000  0.000  1.000  0.000  0.000
  0.000  0.000  0.000  1.000  0.000
  0.000  0.000  0.000  0.000  1.000
    occupations:
  1.000  0.000  0.000  0.000  0.000
  0.000  1.000  0.000  0.000  0.000
  0.000  0.000  1.000  0.000  0.000
  0.000  0.000  0.000  1.000  0.000
  0.000  0.000  0.000  0.000  1.000
   spin  2
    eigenvalues: 
  0.000  0.000  0.000  0.000  0.000
    eigenvectors:
  1.000  0.000  0.000  0.000  0.000
  0.000  1.000  0.000  0.000  0.000
  0.000  0.000  1.000  0.000  0.000
  0.000  0.000  0.000  1.000  0.000
  0.000  0.000  0.000  0.000  1.000
    occupations:
  0.000  0.000  0.000  0.000  0.000
  0.000  0.000  0.000  0.000  0.000
  0.000  0.000  0.000  0.000  0.000
  0.000  0.000  0.000  0.000  0.000
  0.000  0.000  0.000  0.000  0.000
atomic mag. moment =     5.000000
atom   23   Tr[ns(na)] (up, down, total) =   5.00000  0.00000  5.00000
   spin  1
    eigenvalues: 
  1.000  1.000  1.000  1.000  1.000
    eigenvectors:
  1.000  0.000  0.000  0.000  0.000
  0.000  1.000  0.000  0.000  0.000
  0.000  0.000  1.000  0.000  0.000
  0.000  0.000  0.000  1.000  0.000
  0.000  0.000  0.000  0.000  1.000
    occupations:
  1.000  0.000  0.000  0.000  0.000
  0.000  1.000  0.000  0.000  0.000
  0.000  0.000  1.000  0.000  0.000
  0.000  0.000  0.000  1.000  0.000
  0.000  0.000  0.000  0.000  1.000
   spin  2
    eigenvalues: 
  0.000  0.000  0.000  0.000  0.000
    eigenvectors:
  1.000  0.000  0.000  0.000  0.000
  0.000  1.000  0.000  0.000  0.000
  0.000  0.000  1.000  0.000  0.000
  0.000  0.000  0.000  1.000  0.000
  0.000  0.000  0.000  0.000  1.000
    occupations:
  0.000  0.000  0.000  0.000  0.000
  0.000  0.000  0.000  0.000  0.000
  0.000  0.000  0.000  0.000  0.000
  0.000  0.000  0.000  0.000  0.000
  0.000  0.000  0.000  0.000  0.000
atomic mag. moment =     5.000000
N of occupied +U levels =  40.0000000
 --- exit write_ns ---
 Atomic wfc used for LDA+U Projector are NOT orthogonalized
     Starting wfc are  165 randomized atomic wfcs

     total cpu time spent up to now is      152.4 secs

     per-process dynamical memory:   512.5 Mb

     Self-consistent Calculation

     iteration #  1     ecut=    40.00 Ry     beta=0.70
     Davidson diagonalization with overlap
     ethr =  1.00E-02,  avg # of iterations =  5.3
 --- enter write_ns ---
 LDA+U parameters:
U( 2)     =  3.00000000
alpha( 2) =  0.00000000
atom    3   Tr[ns(na)] (up, down, total) =   4.01204  0.61818  4.63022
   spin  1
    eigenvalues: 
  0.600  0.630  0.858  0.953  0.971
    eigenvectors:
  0.237  0.001  0.009  0.747  0.007
  0.003  0.994  0.000  0.000  0.003
  0.000  0.000  0.981  0.014  0.005
  0.760  0.003  0.003  0.232  0.002
  0.000  0.003  0.007  0.008  0.982
    occupations:
  0.869  0.002  0.010 -0.150 -0.003
  0.002  0.631 -0.001  0.001 -0.019
  0.010 -0.001  0.860 -0.004  0.009
 -0.150  0.001 -0.004  0.683  0.000
 -0.003 -0.019  0.009  0.000  0.969
   spin  2
    eigenvalues: 
  0.063  0.071  0.072  0.197  0.215
    eigenvectors:
  0.629  0.124  0.063  0.000  0.183
  0.000  0.000  0.001  0.997  0.002
  0.223  0.460  0.316  0.000  0.000
  0.146  0.025  0.012  0.002  0.814
  0.001  0.391  0.607  0.001  0.000
    occupations:
  0.092 -0.001 -0.002  0.058  0.000
 -0.001  0.197  0.000 -0.001  0.004
 -0.002  0.000  0.070  0.003 -0.001
  0.058 -0.001  0.003  0.188  0.000
  0.000  0.004 -0.001  0.000  0.072
atomic mag. moment =     3.393859
atom    4   Tr[ns(na)] (up, down, total) =   3.81114  0.64391  4.45505
   spin  1
    eigenvalues: 
  0.531  0.636  0.812  0.860  0.972
    eigenvectors:
  0.000  0.894  0.103  0.000  0.002
  0.000  0.099  0.880  0.020  0.000
  0.000  0.004  0.017  0.976  0.003
  0.000  0.002  0.000  0.003  0.995
  1.000  0.000  0.000  0.000  0.000
    occupations:
  0.655  0.052  0.011  0.016  0.000
  0.052  0.796 -0.010 -0.002  0.000
  0.011 -0.010  0.859 -0.006  0.000
  0.016 -0.002 -0.006  0.970  0.000
  0.000  0.000  0.000  0.000  0.531
   spin  2
    eigenvalues: 
  0.062  0.075  0.086  0.196  0.224
    eigenvectors:
  0.009  0.002  0.000  0.000  0.989
  0.004  0.881  0.113  0.000  0.002
  0.001  0.112  0.887  0.000  0.000
  0.986  0.005  0.000  0.000  0.008
  0.000  0.000  0.000  1.000  0.000
    occupations:
  0.222  0.007  0.002 -0.015  0.000
  0.007  0.077 -0.003  0.000  0.000
  0.002 -0.003  0.085  0.000  0.000
 -0.015  0.000  0.000  0.064  0.000
  0.000  0.000  0.000  0.000  0.196
atomic mag. moment =     3.167234
atom    9   Tr[ns(na)] (up, down, total) =   4.12727  0.67562  4.80288
   spin  1
    eigenvalues: 
  0.625  0.633  0.931  0.962  0.976
    eigenvectors:
  0.182  0.000  0.000  0.001  0.817
  0.001  0.999  0.000  0.000  0.000
  0.001  0.000  0.216  0.782  0.002
  0.816  0.001  0.000  0.001  0.181
  0.000  0.000  0.784  0.216  0.000
    occupations:
  0.912  0.001 -0.004 -0.135  0.000
  0.001  0.633 -0.001  0.000  0.000
 -0.004 -0.001  0.955 -0.007  0.013
 -0.135  0.000 -0.007  0.689  0.000
  0.000  0.000  0.013  0.000  0.938
   spin  2
    eigenvalues: 
  0.078  0.079  0.084  0.216  0.219
    eigenvectors:
  0.803  0.053  0.000  0.070  0.073
  0.000  0.000  0.000  0.524  0.476
  0.059  0.936  0.005  0.000  0.000
  0.138  0.006  0.000  0.406  0.450
  0.000  0.005  0.995  0.000  0.000
    occupations:
  0.098  0.000  0.001  0.049  0.000
  0.000  0.217  0.000 -0.001  0.000
  0.001  0.000  0.079  0.002  0.000
  0.049 -0.001  0.002  0.198  0.000
  0.000  0.000  0.000  0.000  0.084
atomic mag. moment =     3.451648
atom   10   Tr[ns(na)] (up, down, total) =   4.26917  0.56425  4.83342
   spin  1
    eigenvalues: 
  0.637  0.680  0.981  0.985  0.986
    eigenvectors:
  0.000  0.994  0.000  0.004  0.001
  0.000  0.000  0.831  0.166  0.003
  0.001  0.000  0.000  0.018  0.980
  0.000  0.005  0.169  0.811  0.015
  0.999  0.000  0.000  0.000  0.001
    occupations:
  0.681  0.003  0.006  0.021 -0.001
  0.003  0.981  0.000  0.001 -0.004
  0.006  0.000  0.986  0.000 -0.010
  0.021  0.001  0.000  0.983  0.001
 -0.001 -0.004 -0.010  0.001  0.638
   spin  2
    eigenvalues: 
  0.062  0.069  0.076  0.161  0.196
    eigenvectors:
  0.017  0.000  0.000  0.983  0.000
  0.002  0.000  0.997  0.000  0.001
  0.004  0.995  0.000  0.000  0.000
  0.977  0.004  0.002  0.017  0.000
  0.000  0.000  0.000  0.000  0.999
    occupations:
  0.159  0.000 -0.001 -0.013  0.000
  0.000  0.076  0.000  0.001  0.003
 -0.001  0.000  0.069  0.000  0.002
 -0.013  0.001  0.000  0.064  0.000
  0.000  0.003  0.002  0.000  0.196
atomic mag. moment =     3.704914
atom   16   Tr[ns(na)] (up, down, total) =   4.00433  0.61828  4.62261
   spin  1
    eigenvalues: 
  0.600  0.628  0.853  0.953  0.970
    eigenvectors:
  0.234  0.001  0.009  0.731  0.026
  0.003  0.994  0.000  0.000  0.003
  0.000  0.000  0.987  0.011  0.002
  0.763  0.003  0.004  0.223  0.007
  0.000  0.003  0.000  0.034  0.962
    occupations:
  0.870 -0.002  0.011 -0.149  0.003
 -0.002  0.629  0.000 -0.001 -0.018
  0.011  0.000  0.854 -0.003  0.003
 -0.149 -0.001 -0.003  0.682 -0.001
  0.003 -0.018  0.003 -0.001  0.969
   spin  2
    eigenvalues: 
  0.063  0.071  0.073  0.196  0.216
    eigenvectors:
  0.653  0.109  0.055  0.000  0.183
  0.000  0.000  0.001  0.997  0.002
  0.196  0.490  0.314  0.000  0.000
  0.151  0.022  0.011  0.002  0.814
  0.001  0.378  0.620  0.001  0.000
    occupations:
  0.092  0.001 -0.002  0.059  0.000
  0.001  0.196  0.000  0.001  0.004
 -0.002  0.000  0.070  0.003  0.001
  0.059  0.001  0.003  0.188  0.000
  0.000  0.004  0.001  0.000  0.072
atomic mag. moment =     3.386057
atom   17   Tr[ns(na)] (up, down, total) =   3.80106  0.64114  4.44220
   spin  1
    eigenvalues: 
  0.528  0.633  0.812  0.857  0.971
    eigenvectors:
  0.000  0.890  0.107  0.000  0.003
  0.000  0.102  0.867  0.031  0.000
  0.000  0.005  0.026  0.966  0.002
  0.000  0.003  0.000  0.002  0.995
  1.000  0.000  0.000  0.000  0.000
    occupations:
  0.653  0.054  0.012  0.017  0.000
  0.054  0.796 -0.012 -0.005  0.000
  0.012 -0.012  0.855 -0.006  0.001
  0.017 -0.005 -0.006  0.970  0.000
  0.000  0.000  0.001  0.000  0.528
   spin  2
    eigenvalues: 
  0.062  0.075  0.085  0.196  0.223
    eigenvectors:
  0.009  0.001  0.000  0.000  0.989
  0.007  0.873  0.117  0.000  0.002
  0.001  0.116  0.883  0.000  0.000
  0.982  0.009  0.000  0.000  0.008
  0.000  0.000  0.000  1.000  0.000
    occupations:
  0.222  0.007  0.002 -0.015  0.000
  0.007  0.076 -0.003  0.000  0.000
  0.002 -0.003  0.084  0.000  0.000
 -0.015  0.000  0.000  0.063  0.000
  0.000  0.000  0.000  0.000  0.196
atomic mag. moment =     3.159920
atom   22   Tr[ns(na)] (up, down, total) =   3.63327  0.78400  4.41727
   spin  1
    eigenvalues: 
  0.620  0.631  0.735  0.787  0.859
    eigenvectors:
  0.047  0.012  0.000  0.916  0.025
  0.325  0.674  0.000  0.001  0.000
  0.000  0.000  0.004  0.026  0.970
  0.628  0.314  0.000  0.057  0.001
  0.000  0.000  0.995  0.000  0.004
    occupations:
  0.779  0.006 -0.011 -0.039 -0.002
  0.006  0.628  0.001  0.004  0.001
 -0.011  0.001  0.857  0.001  0.008
 -0.039  0.004  0.001  0.633  0.001
 -0.002  0.001  0.008  0.001  0.736
   spin  2
    eigenvalues: 
  0.081  0.115  0.119  0.228  0.242
    eigenvectors:
  0.000  0.985  0.004  0.001  0.010
  0.000  0.000  0.000  0.970  0.030
  0.998  0.000  0.001  0.000  0.000
  0.000  0.011  0.000  0.029  0.960
  0.002  0.004  0.994  0.000  0.000
    occupations:
  0.116 -0.001  0.000  0.013  0.000
 -0.001  0.229  0.000  0.002  0.000
  0.000  0.000  0.081  0.002  0.001
  0.013  0.002  0.002  0.240  0.000
  0.000  0.000  0.001  0.000  0.119
atomic mag. moment =     2.849265
atom   23   Tr[ns(na)] (up, down, total) =   4.07764  0.67471  4.75235
   spin  1
    eigenvalues: 
  0.559  0.673  0.908  0.963  0.974
    eigenvectors:
  0.000  0.957  0.000  0.003  0.039
  0.000  0.000  0.999  0.000  0.000
  0.001  0.037  0.000  0.007  0.955
  0.000  0.005  0.000  0.990  0.005
  0.998  0.000  0.000  0.000  0.001
    occupations:
  0.685 -0.005  0.057  0.021  0.002
 -0.005  0.908  0.001  0.000 -0.007
  0.057  0.001  0.963 -0.003  0.014
  0.021  0.000 -0.003  0.962 -0.001
  0.002 -0.007  0.014 -0.001  0.560
   spin  2
    eigenvalues: 
  0.060  0.066  0.127  0.195  0.227
    eigenvectors:
  0.003  0.003  0.000  0.000  0.994
  0.000  0.000  0.999  0.001  0.000
  0.282  0.717  0.000  0.000  0.000
  0.715  0.279  0.000  0.000  0.006
  0.000  0.000  0.001  0.998  0.000
    occupations:
  0.226  0.001 -0.003 -0.012  0.000
  0.001  0.127  0.000  0.000 -0.003
 -0.003  0.000  0.065  0.003 -0.002
 -0.012  0.000  0.003  0.063  0.000
  0.000 -0.003 -0.002  0.000  0.195
atomic mag. moment =     3.402936
N of occupied +U levels =  36.9560015
 --- exit write_ns ---

     negative rho (up, down):  0.272E-02 0.108E-02

     total cpu time spent up to now is      893.1 secs

     total energy              =   -2045.82074147 Ry
     Harris-Foulkes estimate   =   -2054.31092813 Ry
     estimated scf accuracy    <      19.69109417 Ry

     total magnetization       =    15.00 Bohr mag/cell
     absolute magnetization    =    37.63 Bohr mag/cell

     iteration #  2     ecut=    40.00 Ry     beta=0.70
     Davidson diagonalization with overlap
     ethr =  8.31E-03,  avg # of iterations =  5.6

     total cpu time spent up to now is     1420.3 secs

     total energy              =   -1938.59090581 Ry
     Harris-Foulkes estimate   =   -2135.21221074 Ry
     estimated scf accuracy    <    3049.62508210 Ry

     total magnetization       =    15.00 Bohr mag/cell
     absolute magnetization    =    16.68 Bohr mag/cell

     iteration #  3     ecut=    40.00 Ry     beta=0.70
     Davidson diagonalization with overlap
     ethr =  8.31E-03,  avg # of iterations =  4.0

     negative rho (up, down):  0.224E-07 0.000E+00

     total cpu time spent up to now is     2004.4 secs

     total energy              =   -2047.85714274 Ry
     Harris-Foulkes estimate   =   -2066.38505780 Ry
     estimated scf accuracy    <      70.75202008 Ry

     total magnetization       =    15.00 Bohr mag/cell
     absolute magnetization    =    27.79 Bohr mag/cell

     iteration #  4     ecut=    40.00 Ry     beta=0.70
     Davidson diagonalization with overlap
     ethr =  8.31E-03,  avg # of iterations =  3.0

     negative rho (up, down):  0.235E-06 0.000E+00

     total cpu time spent up to now is     2369.0 secs

     total energy              =   -2051.24113838 Ry
     Harris-Foulkes estimate   =   -2061.71857891 Ry
     estimated scf accuracy    <      81.71547775 Ry

     total magnetization       =    15.00 Bohr mag/cell
     absolute magnetization    =    19.41 Bohr mag/cell

     iteration #  5     ecut=    40.00 Ry     beta=0.70
     Davidson diagonalization with overlap
     ethr =  8.31E-03,  avg # of iterations =  3.2

     total cpu time spent up to now is     2715.3 secs

     total energy              =   -2052.28066005 Ry
     Harris-Foulkes estimate   =   -2060.57377076 Ry
     estimated scf accuracy    <      90.72254858 Ry

     total magnetization       =    15.00 Bohr mag/cell
     absolute magnetization    =    25.21 Bohr mag/cell

     iteration #  6     ecut=    40.00 Ry     beta=0.70
     Davidson diagonalization with overlap
     ethr =  8.31E-03,  avg # of iterations =  3.0

     total cpu time spent up to now is     3047.7 secs

     total energy              =   -2056.23790795 Ry
     Harris-Foulkes estimate   =   -2058.49866248 Ry
     estimated scf accuracy    <      14.10963258 Ry

     total magnetization       =    15.00 Bohr mag/cell
     absolute magnetization    =    24.76 Bohr mag/cell

     iteration #  7     ecut=    40.00 Ry     beta=0.70
     Davidson diagonalization with overlap
     ethr =  5.95E-03,  avg # of iterations =  1.0

     total cpu time spent up to now is     3358.4 secs

     total energy              =   -2056.17385841 Ry
     Harris-Foulkes estimate   =   -2058.52337076 Ry
     estimated scf accuracy    <      16.57075173 Ry

     total magnetization       =    15.00 Bohr mag/cell
     absolute magnetization    =    27.23 Bohr mag/cell

     iteration #  8     ecut=    40.00 Ry     beta=0.70
     Davidson diagonalization with overlap
     ethr =  5.95E-03,  avg # of iterations =  1.0

     total cpu time spent up to now is     3669.6 secs

     total energy              =   -2056.90284212 Ry
     Harris-Foulkes estimate   =   -2058.39705823 Ry
     estimated scf accuracy    <       9.39573971 Ry

     total magnetization       =    15.00 Bohr mag/cell
     absolute magnetization    =    24.27 Bohr mag/cell

     iteration #  9     ecut=    40.00 Ry     beta=0.70
     Davidson diagonalization with overlap
     ethr =  3.96E-03,  avg # of iterations =  1.0

     total cpu time spent up to now is     3999.1 secs

     total energy              =   -2057.30669938 Ry
     Harris-Foulkes estimate   =   -2057.85192238 Ry
     estimated scf accuracy    <       3.72759437 Ry

     total magnetization       =    15.00 Bohr mag/cell
     absolute magnetization    =    24.32 Bohr mag/cell

     iteration # 10     ecut=    40.00 Ry     beta=0.70
     Davidson diagonalization with overlap
     ethr =  1.57E-03,  avg # of iterations =  1.0

     total cpu time spent up to now is     4346.1 secs

     total energy              =   -2057.53199365 Ry
     Harris-Foulkes estimate   =   -2057.78881897 Ry
     estimated scf accuracy    <       2.64303679 Ry

     total magnetization       =    15.00 Bohr mag/cell
     absolute magnetization    =    23.35 Bohr mag/cell

     iteration # 11     ecut=    40.00 Ry     beta=0.70
     Davidson diagonalization with overlap
     ethr =  1.12E-03,  avg # of iterations =  1.1

     negative rho (up, down):  0.302E-05 0.000E+00

     total cpu time spent up to now is     4696.7 secs

     total energy              =   -2057.35671836 Ry
     Harris-Foulkes estimate   =   -2057.74019704 Ry
     estimated scf accuracy    <       1.18836981 Ry

     total magnetization       =    15.00 Bohr mag/cell
     absolute magnetization    =    24.65 Bohr mag/cell

     iteration # 12     ecut=    40.00 Ry     beta=0.70
     Davidson diagonalization with overlap
     ethr =  5.01E-04,  avg # of iterations =  7.0

     negative rho (up, down):  0.136E-04 0.000E+00

     total cpu time spent up to now is     5245.6 secs

     total energy              =   -2057.32683428 Ry
     Harris-Foulkes estimate   =   -2057.67726815 Ry
     estimated scf accuracy    <       1.40512569 Ry

     total magnetization       =    15.00 Bohr mag/cell
     absolute magnetization    =    23.57 Bohr mag/cell

     iteration # 13     ecut=    40.00 Ry     beta=0.70
     Davidson diagonalization with overlap
     ethr =  5.01E-04,  avg # of iterations =  3.6

     negative rho (up, down):  0.287E-04 0.651E-08

     total cpu time spent up to now is     5631.1 secs

     total energy              =   -2057.42302366 Ry
     Harris-Foulkes estimate   =   -2057.61554046 Ry
     estimated scf accuracy    <       1.10747257 Ry

     total magnetization       =    15.00 Bohr mag/cell
     absolute magnetization    =    25.03 Bohr mag/cell

     iteration # 14     ecut=    40.00 Ry     beta=0.70
     Davidson diagonalization with overlap
     ethr =  4.67E-04,  avg # of iterations =  1.2

     negative rho (up, down):  0.303E-03 0.285E-06

     total cpu time spent up to now is     5978.3 secs

     total energy              =   -2057.47762168 Ry
     Harris-Foulkes estimate   =   -2057.56768384 Ry
     estimated scf accuracy    <       0.34981085 Ry

     total magnetization       =    15.00 Bohr mag/cell
     absolute magnetization    =    23.61 Bohr mag/cell

     iteration # 15     ecut=    40.00 Ry     beta=0.70
     Davidson diagonalization with overlap
     ethr =  1.48E-04,  avg # of iterations =  5.0

     negative rho (up, down):  0.130E-02 0.693E-05

     total cpu time spent up to now is     6388.4 secs

     total energy              =   -2057.47540113 Ry
     Harris-Foulkes estimate   =   -2057.60488919 Ry
     estimated scf accuracy    <       1.02188774 Ry

     total magnetization       =    15.00 Bohr mag/cell
     absolute magnetization    =    23.39 Bohr mag/cell

     iteration # 16     ecut=    40.00 Ry     beta=0.70
     Davidson diagonalization with overlap
     ethr =  1.48E-04,  avg # of iterations =  3.2

     negative rho (up, down):  0.362E-02 0.459E-03

     total cpu time spent up to now is     6762.1 secs

     total energy              =   -2057.50239727 Ry
     Harris-Foulkes estimate   =   -2057.58599482 Ry
     estimated scf accuracy    <       0.43147293 Ry

     total magnetization       =    15.00 Bohr mag/cell
     absolute magnetization    =    23.77 Bohr mag/cell

     iteration # 17     ecut=    40.00 Ry     beta=0.70
     Davidson diagonalization with overlap
     ethr =  1.48E-04,  avg # of iterations =  1.1

     negative rho (up, down):  0.479E-02 0.151E-02

     total cpu time spent up to now is     7104.9 secs

     total energy              =   -2057.53816899 Ry
     Harris-Foulkes estimate   =   -2057.54670068 Ry
     estimated scf accuracy    <       0.05683682 Ry

     total magnetization       =    15.00 Bohr mag/cell
     absolute magnetization    =    23.40 Bohr mag/cell

     iteration # 18     ecut=    40.00 Ry     beta=0.70
     Davidson diagonalization with overlap
     ethr =  2.40E-05,  avg # of iterations =  4.9

     negative rho (up, down):  0.457E-02 0.143E-02

     total cpu time spent up to now is     7477.5 secs

     total energy              =   -2057.53750795 Ry
     Harris-Foulkes estimate   =   -2057.54731397 Ry
     estimated scf accuracy    <       0.05854232 Ry

     total magnetization       =    15.00 Bohr mag/cell
     absolute magnetization    =    23.54 Bohr mag/cell

     iteration # 19     ecut=    40.00 Ry     beta=0.70
     Davidson diagonalization with overlap
     ethr =  2.40E-05,  avg # of iterations =  3.3

     negative rho (up, down):  0.504E-02 0.176E-02

     total cpu time spent up to now is     7835.0 secs

     total energy              =   -2057.53911405 Ry
     Harris-Foulkes estimate   =   -2057.54933507 Ry
     estimated scf accuracy    <       0.07573597 Ry

     total magnetization       =    15.00 Bohr mag/cell
     absolute magnetization    =    23.44 Bohr mag/cell

     iteration # 20     ecut=    40.00 Ry     beta=0.70
     Davidson diagonalization with overlap
     ethr =  2.40E-05,  avg # of iterations =  1.0

     negative rho (up, down):  0.489E-02 0.147E-02

     total cpu time spent up to now is     8180.4 secs

     total energy              =   -2057.53849785 Ry
     Harris-Foulkes estimate   =   -2057.55142487 Ry
     estimated scf accuracy    <       0.10809149 Ry

     total magnetization       =    15.00 Bohr mag/cell
     absolute magnetization    =    23.39 Bohr mag/cell

     iteration # 21     ecut=    40.00 Ry     beta=0.70
     Davidson diagonalization with overlap
     ethr =  2.40E-05,  avg # of iterations =  1.0

     negative rho (up, down):  0.505E-02 0.182E-02

     total cpu time spent up to now is     8524.5 secs

     total energy              =   -2057.54416852 Ry
     Harris-Foulkes estimate   =   -2057.54569894 Ry
     estimated scf accuracy    <       0.01028672 Ry

     total magnetization       =    15.00 Bohr mag/cell
     absolute magnetization    =    23.25 Bohr mag/cell

     iteration # 22     ecut=    40.00 Ry     beta=0.70
     Davidson diagonalization with overlap
     ethr =  4.34E-06,  avg # of iterations =  3.8

     negative rho (up, down):  0.533E-02 0.201E-02

     total cpu time spent up to now is     8910.9 secs

     total energy              =   -2057.54440356 Ry
     Harris-Foulkes estimate   =   -2057.54689862 Ry
     estimated scf accuracy    <       0.02067365 Ry

     total magnetization       =    15.00 Bohr mag/cell
     absolute magnetization    =    23.18 Bohr mag/cell

     iteration # 23     ecut=    40.00 Ry     beta=0.70
     Davidson diagonalization with overlap
     ethr =  4.34E-06,  avg # of iterations =  1.8

     negative rho (up, down):  0.500E-02 0.179E-02

     total cpu time spent up to now is     9262.3 secs

     total energy              =   -2057.54540688 Ry
     Harris-Foulkes estimate   =   -2057.54584529 Ry
     estimated scf accuracy    <       0.00341950 Ry

     total magnetization       =    15.00 Bohr mag/cell
     absolute magnetization    =    23.20 Bohr mag/cell

     iteration # 24     ecut=    40.00 Ry     beta=0.70
     Davidson diagonalization with overlap
     ethr =  1.44E-06,  avg # of iterations =  2.0

     negative rho (up, down):  0.509E-02 0.189E-02

     total cpu time spent up to now is     9622.2 secs

     total energy              =   -2057.54549332 Ry
     Harris-Foulkes estimate   =   -2057.54641571 Ry
     estimated scf accuracy    <       0.01086705 Ry

     total magnetization       =    15.00 Bohr mag/cell
     absolute magnetization    =    23.15 Bohr mag/cell

     iteration # 25     ecut=    40.00 Ry     beta=0.70
     Davidson diagonalization with overlap
     ethr =  1.44E-06,  avg # of iterations =  1.0

     negative rho (up, down):  0.505E-02 0.186E-02

     total cpu time spent up to now is     9967.8 secs

     total energy              =   -2057.54591851 Ry
     Harris-Foulkes estimate   =   -2057.54638204 Ry
     estimated scf accuracy    <       0.00380547 Ry

     total magnetization       =    15.00 Bohr mag/cell
     absolute magnetization    =    23.01 Bohr mag/cell

     iteration # 26     ecut=    40.00 Ry     beta=0.70
     Davidson diagonalization with overlap
     ethr =  1.44E-06,  avg # of iterations =  1.0

     negative rho (up, down):  0.503E-02 0.176E-02

     total cpu time spent up to now is    10305.6 secs

     total energy              =   -2057.54544054 Ry
     Harris-Foulkes estimate   =   -2057.54645982 Ry
     estimated scf accuracy    <       0.00330176 Ry

     total magnetization       =    15.00 Bohr mag/cell
     absolute magnetization    =    23.01 Bohr mag/cell

     iteration # 27     ecut=    40.00 Ry     beta=0.70
     Davidson diagonalization with overlap
     ethr =  1.39E-06,  avg # of iterations =  2.5

     negative rho (up, down):  0.499E-02 0.179E-02

     total cpu time spent up to now is    10664.2 secs

     total energy              =   -2057.54505721 Ry
     Harris-Foulkes estimate   =   -2057.54712227 Ry
     estimated scf accuracy    <       0.01994915 Ry

     total magnetization       =    15.00 Bohr mag/cell
     absolute magnetization    =    23.20 Bohr mag/cell

     iteration # 28     ecut=    40.00 Ry     beta=0.70
     Davidson diagonalization with overlap
     ethr =  1.39E-06,  avg # of iterations =  3.3

     negative rho (up, down):  0.500E-02 0.178E-02

     total cpu time spent up to now is    11043.8 secs

     total energy              =   -2057.54583191 Ry
     Harris-Foulkes estimate   =   -2057.54666723 Ry
     estimated scf accuracy    <       0.00959906 Ry

     total magnetization       =    15.00 Bohr mag/cell
     absolute magnetization    =    22.92 Bohr mag/cell

     iteration # 29     ecut=    40.00 Ry     beta=0.70
     Davidson diagonalization with overlap
     ethr =  1.39E-06,  avg # of iterations =  3.5

     negative rho (up, down):  0.497E-02 0.177E-02

     total cpu time spent up to now is    11426.6 secs

     total energy              =   -2057.54600805 Ry
     Harris-Foulkes estimate   =   -2057.54656473 Ry
     estimated scf accuracy    <       0.00493991 Ry

     total magnetization       =    15.00 Bohr mag/cell
     absolute magnetization    =    22.98 Bohr mag/cell

     iteration # 30     ecut=    40.00 Ry     beta=0.70
     Davidson diagonalization with overlap
     ethr =  1.39E-06,  avg # of iterations =  1.0

     negative rho (up, down):  0.496E-02 0.176E-02

     total cpu time spent up to now is    11776.8 secs

     total energy              =   -2057.54591422 Ry
     Harris-Foulkes estimate   =   -2057.54668599 Ry
     estimated scf accuracy    <       0.00617852 Ry

     total magnetization       =    15.00 Bohr mag/cell
     absolute magnetization    =    22.96 Bohr mag/cell

     iteration # 31     ecut=    40.00 Ry     beta=0.70
     Davidson diagonalization with overlap
     ethr =  1.39E-06,  avg # of iterations =  1.0

     negative rho (up, down):  0.494E-02 0.175E-02

     total cpu time spent up to now is    12121.0 secs

     total energy              =   -2057.54619197 Ry
     Harris-Foulkes estimate   =   -2057.54640070 Ry
     estimated scf accuracy    <       0.00128885 Ry

     total magnetization       =    15.00 Bohr mag/cell
     absolute magnetization    =    22.98 Bohr mag/cell

     iteration # 32     ecut=    40.00 Ry     beta=0.70
     Davidson diagonalization with overlap
     ethr =  5.44E-07,  avg # of iterations =  1.0

     negative rho (up, down):  0.493E-02 0.174E-02

     total cpu time spent up to now is    12460.3 secs

     total energy              =   -2057.54609772 Ry
     Harris-Foulkes estimate   =   -2057.54658184 Ry
     estimated scf accuracy    <       0.00309124 Ry

     total magnetization       =    15.00 Bohr mag/cell
     absolute magnetization    =    22.96 Bohr mag/cell

     iteration # 33     ecut=    40.00 Ry     beta=0.70
     Davidson diagonalization with overlap
     ethr =  5.44E-07,  avg # of iterations =  1.0

     negative rho (up, down):  0.492E-02 0.173E-02

     total cpu time spent up to now is    12784.8 secs

     total energy              =   -2057.54637032 Ry
     Harris-Foulkes estimate   =   -2057.54638105 Ry
     estimated scf accuracy    <       0.00042430 Ry

     total magnetization       =    15.00 Bohr mag/cell
     absolute magnetization    =    22.93 Bohr mag/cell

     iteration # 34     ecut=    40.00 Ry     beta=0.70
     Davidson diagonalization with overlap
     ethr =  1.79E-07,  avg # of iterations =  1.0

     negative rho (up, down):  0.492E-02 0.173E-02

     total cpu time spent up to now is    13101.4 secs

     total energy              =   -2057.54637591 Ry
     Harris-Foulkes estimate   =   -2057.54641857 Ry
     estimated scf accuracy    <       0.00024631 Ry

     total magnetization       =    15.00 Bohr mag/cell
     absolute magnetization    =    22.91 Bohr mag/cell

     iteration # 35     ecut=    40.00 Ry     beta=0.70
     Davidson diagonalization with overlap
     ethr =  1.04E-07,  avg # of iterations =  1.0

     negative rho (up, down):  0.491E-02 0.173E-02

     total cpu time spent up to now is    13450.3 secs

     total energy              =   -2057.54641180 Ry
     Harris-Foulkes estimate   =   -2057.54640888 Ry
     estimated scf accuracy    <       0.00015463 Ry

     total magnetization       =    15.00 Bohr mag/cell
     absolute magnetization    =    22.92 Bohr mag/cell

     iteration # 36     ecut=    40.00 Ry     beta=0.70
     Davidson diagonalization with overlap
     ethr =  6.52E-08,  avg # of iterations =  1.0

     negative rho (up, down):  0.491E-02 0.172E-02

     total cpu time spent up to now is    13803.2 secs

     total energy              =   -2057.54643364 Ry
     Harris-Foulkes estimate   =   -2057.54643943 Ry
     estimated scf accuracy    <       0.00015048 Ry

     total magnetization       =    15.00 Bohr mag/cell
     absolute magnetization    =    22.89 Bohr mag/cell

     iteration # 37     ecut=    40.00 Ry     beta=0.70
     Davidson diagonalization with overlap
     ethr =  6.35E-08,  avg # of iterations =  1.1

     negative rho (up, down):  0.491E-02 0.173E-02

     total cpu time spent up to now is    14154.0 secs

     total energy              =   -2057.54642958 Ry
     Harris-Foulkes estimate   =   -2057.54647317 Ry
     estimated scf accuracy    <       0.00032492 Ry

     total magnetization       =    15.00 Bohr mag/cell
     absolute magnetization    =    22.86 Bohr mag/cell

     iteration # 38     ecut=    40.00 Ry     beta=0.70
     Davidson diagonalization with overlap
     ethr =  6.35E-08,  avg # of iterations =  1.0

     negative rho (up, down):  0.491E-02 0.172E-02

     total cpu time spent up to now is    14505.9 secs

     total energy              =   -2057.54640130 Ry
     Harris-Foulkes estimate   =   -2057.54650875 Ry
     estimated scf accuracy    <       0.00133402 Ry

     total magnetization       =    15.00 Bohr mag/cell
     absolute magnetization    =    22.89 Bohr mag/cell

     iteration # 39     ecut=    40.00 Ry     beta=0.70
     Davidson diagonalization with overlap
     ethr =  6.35E-08,  avg # of iterations =  1.0

     negative rho (up, down):  0.491E-02 0.172E-02

     total cpu time spent up to now is    14857.5 secs

     total energy              =   -2057.54644841 Ry
     Harris-Foulkes estimate   =   -2057.54649081 Ry
     estimated scf accuracy    <       0.00067862 Ry

     total magnetization       =    15.00 Bohr mag/cell
     absolute magnetization    =    22.85 Bohr mag/cell

     iteration # 40     ecut=    40.00 Ry     beta=0.70
     Davidson diagonalization with overlap
     ethr =  6.35E-08,  avg # of iterations =  1.0

     negative rho (up, down):  0.492E-02 0.172E-02

     total cpu time spent up to now is    15210.5 secs

     total energy              =   -2057.54644100 Ry
     Harris-Foulkes estimate   =   -2057.54649695 Ry
     estimated scf accuracy    <       0.00032890 Ry

     total magnetization       =    15.00 Bohr mag/cell
     absolute magnetization    =    22.84 Bohr mag/cell

     iteration # 41     ecut=    40.00 Ry     beta=0.70
     Davidson diagonalization with overlap
     ethr =  6.35E-08,  avg # of iterations =  1.1

     negative rho (up, down):  0.492E-02 0.172E-02

     total cpu time spent up to now is    15555.7 secs

     total energy              =   -2057.54644712 Ry
     Harris-Foulkes estimate   =   -2057.54650423 Ry
     estimated scf accuracy    <       0.00047754 Ry

     total magnetization       =    15.00 Bohr mag/cell
     absolute magnetization    =    22.84 Bohr mag/cell

     iteration # 42     ecut=    40.00 Ry     beta=0.70
     Davidson diagonalization with overlap
     ethr =  6.35E-08,  avg # of iterations =  1.0

     negative rho (up, down):  0.493E-02 0.172E-02

     total cpu time spent up to now is    15904.5 secs

     total energy              =   -2057.54645176 Ry
     Harris-Foulkes estimate   =   -2057.54649901 Ry
     estimated scf accuracy    <       0.00010320 Ry

     total magnetization       =    15.00 Bohr mag/cell
     absolute magnetization    =    22.81 Bohr mag/cell

     iteration # 43     ecut=    40.00 Ry     beta=0.70
     Davidson diagonalization with overlap
     ethr =  4.35E-08,  avg # of iterations =  1.0

     negative rho (up, down):  0.492E-02 0.172E-02

     total cpu time spent up to now is    16252.8 secs

     total energy              =   -2057.54644644 Ry
     Harris-Foulkes estimate   =   -2057.54651180 Ry
     estimated scf accuracy    <       0.00058447 Ry

     total magnetization       =    15.00 Bohr mag/cell
     absolute magnetization    =    22.85 Bohr mag/cell

     iteration # 44     ecut=    40.00 Ry     beta=0.70
     Davidson diagonalization with overlap
     ethr =  4.35E-08,  avg # of iterations =  1.0

     negative rho (up, down):  0.492E-02 0.172E-02

     total cpu time spent up to now is    16600.5 secs

     total energy              =   -2057.54647591 Ry
     Harris-Foulkes estimate   =   -2057.54649566 Ry
     estimated scf accuracy    <       0.00009360 Ry

     total magnetization       =    15.00 Bohr mag/cell
     absolute magnetization    =    22.83 Bohr mag/cell

     iteration # 45     ecut=    40.00 Ry     beta=0.70
     Davidson diagonalization with overlap
     ethr =  3.95E-08,  avg # of iterations =  1.0

     negative rho (up, down):  0.492E-02 0.172E-02

     total cpu time spent up to now is    16964.0 secs

     total energy              =   -2057.54648634 Ry
     Harris-Foulkes estimate   =   -2057.54649125 Ry
     estimated scf accuracy    <       0.00006157 Ry

     total magnetization       =    15.00 Bohr mag/cell
     absolute magnetization    =    22.82 Bohr mag/cell

     iteration # 46     ecut=    40.00 Ry     beta=0.70
     Davidson diagonalization with overlap
     ethr =  2.60E-08,  avg # of iterations =  1.0

     negative rho (up, down):  0.492E-02 0.172E-02

     total cpu time spent up to now is    17311.0 secs

     total energy              =   -2057.54648926 Ry
     Harris-Foulkes estimate   =   -2057.54649434 Ry
     estimated scf accuracy    <       0.00002841 Ry

     total magnetization       =    15.00 Bohr mag/cell
     absolute magnetization    =    22.81 Bohr mag/cell

     iteration # 47     ecut=    40.00 Ry     beta=0.70
     Davidson diagonalization with overlap
     ethr =  1.20E-08,  avg # of iterations =  1.1

     negative rho (up, down):  0.492E-02 0.172E-02

     total cpu time spent up to now is    17653.9 secs

     total energy              =   -2057.54648748 Ry
     Harris-Foulkes estimate   =   -2057.54649545 Ry
     estimated scf accuracy    <       0.00006118 Ry

     total magnetization       =    15.00 Bohr mag/cell
     absolute magnetization    =    22.82 Bohr mag/cell

     iteration # 48     ecut=    40.00 Ry     beta=0.70
     Davidson diagonalization with overlap
     ethr =  1.20E-08,  avg # of iterations =  1.0

     negative rho (up, down):  0.492E-02 0.172E-02

     total cpu time spent up to now is    17987.9 secs

     total energy              =   -2057.54649233 Ry
     Harris-Foulkes estimate   =   -2057.54649325 Ry
     estimated scf accuracy    <       0.00002500 Ry

     total magnetization       =    15.00 Bohr mag/cell
     absolute magnetization    =    22.81 Bohr mag/cell

     iteration # 49     ecut=    40.00 Ry     beta=0.70
     Davidson diagonalization with overlap
     ethr =  1.05E-08,  avg # of iterations =  1.0

     negative rho (up, down):  0.492E-02 0.172E-02

     total cpu time spent up to now is    18319.0 secs

     total energy              =   -2057.54649422 Ry
     Harris-Foulkes estimate   =   -2057.54649549 Ry
     estimated scf accuracy    <       0.00003837 Ry

     total magnetization       =    15.00 Bohr mag/cell
     absolute magnetization    =    22.81 Bohr mag/cell

     iteration # 50     ecut=    40.00 Ry     beta=0.70
     Davidson diagonalization with overlap
     ethr =  1.05E-08,  avg # of iterations =  1.0

     negative rho (up, down):  0.492E-02 0.172E-02

     total cpu time spent up to now is    18671.8 secs

     total energy              =   -2057.54649595 Ry
     Harris-Foulkes estimate   =   -2057.54649633 Ry
     estimated scf accuracy    <       0.00001349 Ry

     total magnetization       =    15.00 Bohr mag/cell
     absolute magnetization    =    22.81 Bohr mag/cell

     iteration # 51     ecut=    40.00 Ry     beta=0.70
     Davidson diagonalization with overlap
     ethr =  5.69E-09,  avg # of iterations =  1.0

     negative rho (up, down):  0.492E-02 0.172E-02

     total cpu time spent up to now is    19022.5 secs

     total energy              =   -2057.54649428 Ry
     Harris-Foulkes estimate   =   -2057.54649887 Ry
     estimated scf accuracy    <       0.00002968 Ry

     total magnetization       =    15.00 Bohr mag/cell
     absolute magnetization    =    22.80 Bohr mag/cell

     iteration # 52     ecut=    40.00 Ry     beta=0.70
     Davidson diagonalization with overlap
     ethr =  5.69E-09,  avg # of iterations =  1.0

     negative rho (up, down):  0.492E-02 0.172E-02

     total cpu time spent up to now is    19370.8 secs

     total energy              =   -2057.54649748 Ry
     Harris-Foulkes estimate   =   -2057.54649679 Ry
     estimated scf accuracy    <       0.00000850 Ry

     total magnetization       =    15.00 Bohr mag/cell
     absolute magnetization    =    22.80 Bohr mag/cell

     iteration # 53     ecut=    40.00 Ry     beta=0.70
     Davidson diagonalization with overlap
     ethr =  3.59E-09,  avg # of iterations =  1.0

     negative rho (up, down):  0.492E-02 0.172E-02

     total cpu time spent up to now is    19726.7 secs

     total energy              =   -2057.54649943 Ry
     Harris-Foulkes estimate   =   -2057.54650067 Ry
     estimated scf accuracy    <       0.00001534 Ry

     total magnetization       =    15.00 Bohr mag/cell
     absolute magnetization    =    22.80 Bohr mag/cell

     iteration # 54     ecut=    40.00 Ry     beta=0.70
     Davidson diagonalization with overlap
     ethr =  3.59E-09,  avg # of iterations =  1.0

     negative rho (up, down):  0.492E-02 0.172E-02

     total cpu time spent up to now is    20079.5 secs

     total energy              =   -2057.54650047 Ry
     Harris-Foulkes estimate   =   -2057.54650196 Ry
     estimated scf accuracy    <       0.00001936 Ry

     total magnetization       =    15.00 Bohr mag/cell
     absolute magnetization    =    22.79 Bohr mag/cell

     iteration # 55     ecut=    40.00 Ry     beta=0.70
     Davidson diagonalization with overlap
     ethr =  3.59E-09,  avg # of iterations =  1.0

     negative rho (up, down):  0.493E-02 0.172E-02

     total cpu time spent up to now is    20430.8 secs

     total energy              =   -2057.54649412 Ry
     Harris-Foulkes estimate   =   -2057.54650359 Ry
     estimated scf accuracy    <       0.00002948 Ry

     total magnetization       =    15.00 Bohr mag/cell
     absolute magnetization    =    22.79 Bohr mag/cell

     iteration # 56     ecut=    40.00 Ry     beta=0.70
     Davidson diagonalization with overlap
     ethr =  3.59E-09,  avg # of iterations =  1.4

     negative rho (up, down):  0.492E-02 0.172E-02

     total cpu time spent up to now is    20790.1 secs

     total energy              =   -2057.54649776 Ry
     Harris-Foulkes estimate   =   -2057.54650064 Ry
     estimated scf accuracy    <       0.00002678 Ry

     total magnetization       =    15.00 Bohr mag/cell
     absolute magnetization    =    22.80 Bohr mag/cell

     iteration # 57     ecut=    40.00 Ry     beta=0.70
     Davidson diagonalization with overlap
     ethr =  3.59E-09,  avg # of iterations =  1.4

     negative rho (up, down):  0.492E-02 0.172E-02

     total cpu time spent up to now is    21147.2 secs

     total energy              =   -2057.54650093 Ry
     Harris-Foulkes estimate   =   -2057.54650167 Ry
     estimated scf accuracy    <       0.00001120 Ry

     total magnetization       =    15.00 Bohr mag/cell
     absolute magnetization    =    22.79 Bohr mag/cell

     iteration # 58     ecut=    40.00 Ry     beta=0.70
     Davidson diagonalization with overlap
     ethr =  3.59E-09,  avg # of iterations =  1.0

     negative rho (up, down):  0.493E-02 0.172E-02

     total cpu time spent up to now is    21498.3 secs

     total energy              =   -2057.54649729 Ry
     Harris-Foulkes estimate   =   -2057.54650305 Ry
     estimated scf accuracy    <       0.00002074 Ry

     total magnetization       =    15.00 Bohr mag/cell
     absolute magnetization    =    22.79 Bohr mag/cell

     iteration # 59     ecut=    40.00 Ry     beta=0.70
     Davidson diagonalization with overlap
     ethr =  3.59E-09,  avg # of iterations =  1.0

     negative rho (up, down):  0.492E-02 0.172E-02

     total cpu time spent up to now is    21848.6 secs

     total energy              =   -2057.54649929 Ry
     Harris-Foulkes estimate   =   -2057.54650145 Ry
     estimated scf accuracy    <       0.00004198 Ry

     total magnetization       =    15.00 Bohr mag/cell
     absolute magnetization    =    22.79 Bohr mag/cell

     iteration # 60     ecut=    40.00 Ry     beta=0.70
     Davidson diagonalization with overlap
     ethr =  3.59E-09,  avg # of iterations =  1.0

     negative rho (up, down):  0.492E-02 0.172E-02

     total cpu time spent up to now is    22200.1 secs

     total energy              =   -2057.54650127 Ry
     Harris-Foulkes estimate   =   -2057.54650159 Ry
     estimated scf accuracy    <       0.00000459 Ry

     total magnetization       =    15.00 Bohr mag/cell
     absolute magnetization    =    22.79 Bohr mag/cell

     iteration # 61     ecut=    40.00 Ry     beta=0.70
     Davidson diagonalization with overlap
     ethr =  1.94E-09,  avg # of iterations =  1.0

     negative rho (up, down):  0.492E-02 0.172E-02

     total cpu time spent up to now is    22542.0 secs

     total energy              =   -2057.54650141 Ry
     Harris-Foulkes estimate   =   -2057.54650201 Ry
     estimated scf accuracy    <       0.00000928 Ry

     total magnetization       =    15.00 Bohr mag/cell
     absolute magnetization    =    22.79 Bohr mag/cell

     iteration # 62     ecut=    40.00 Ry     beta=0.70
     Davidson diagonalization with overlap
     ethr =  1.94E-09,  avg # of iterations =  1.0

     negative rho (up, down):  0.492E-02 0.172E-02

     total cpu time spent up to now is    22885.6 secs

     total energy              =   -2057.54650179 Ry
     Harris-Foulkes estimate   =   -2057.54650194 Ry
     estimated scf accuracy    <       0.00000281 Ry

     total magnetization       =    15.00 Bohr mag/cell
     absolute magnetization    =    22.79 Bohr mag/cell

     iteration # 63     ecut=    40.00 Ry     beta=0.70
     Davidson diagonalization with overlap
     ethr =  1.19E-09,  avg # of iterations =  1.0

     negative rho (up, down):  0.492E-02 0.172E-02

     total cpu time spent up to now is    23218.7 secs

     total energy              =   -2057.54650184 Ry
     Harris-Foulkes estimate   =   -2057.54650196 Ry
     estimated scf accuracy    <       0.00000291 Ry

     total magnetization       =    15.00 Bohr mag/cell
     absolute magnetization    =    22.79 Bohr mag/cell

     iteration # 64     ecut=    40.00 Ry     beta=0.70
     Davidson diagonalization with overlap
     ethr =  1.19E-09,  avg # of iterations =  1.0

     negative rho (up, down):  0.493E-02 0.172E-02

     total cpu time spent up to now is    23534.8 secs

     total energy              =   -2057.54650230 Ry
     Harris-Foulkes estimate   =   -2057.54650200 Ry
     estimated scf accuracy    <       0.00000152 Ry

     total magnetization       =    15.00 Bohr mag/cell
     absolute magnetization    =    22.79 Bohr mag/cell

     iteration # 65     ecut=    40.00 Ry     beta=0.70
     Davidson diagonalization with overlap
     ethr =  6.43E-10,  avg # of iterations =  1.0

     negative rho (up, down):  0.493E-02 0.172E-02

     total cpu time spent up to now is    23886.5 secs

     total energy              =   -2057.54650271 Ry
     Harris-Foulkes estimate   =   -2057.54650252 Ry
     estimated scf accuracy    <       0.00000254 Ry

     total magnetization       =    15.00 Bohr mag/cell
     absolute magnetization    =    22.79 Bohr mag/cell

     iteration # 66     ecut=    40.00 Ry     beta=0.70
     Davidson diagonalization with overlap
     ethr =  6.43E-10,  avg # of iterations =  2.0

     negative rho (up, down):  0.493E-02 0.172E-02

     total cpu time spent up to now is    24253.3 secs

     total energy              =   -2057.54650245 Ry
     Harris-Foulkes estimate   =   -2057.54650346 Ry
     estimated scf accuracy    <       0.00000287 Ry

     total magnetization       =    15.00 Bohr mag/cell
     absolute magnetization    =    22.78 Bohr mag/cell

     iteration # 67     ecut=    40.00 Ry     beta=0.70
     Davidson diagonalization with overlap
     ethr =  6.43E-10,  avg # of iterations =  2.0

     negative rho (up, down):  0.493E-02 0.172E-02

     total cpu time spent up to now is    24616.0 secs

     total energy              =   -2057.54650167 Ry
     Harris-Foulkes estimate   =   -2057.54650368 Ry
     estimated scf accuracy    <       0.00001034 Ry

     total magnetization       =    15.00 Bohr mag/cell
     absolute magnetization    =    22.78 Bohr mag/cell

     iteration # 68     ecut=    40.00 Ry     beta=0.70
     Davidson diagonalization with overlap
     ethr =  6.43E-10,  avg # of iterations =  2.0

     negative rho (up, down):  0.493E-02 0.172E-02

     total cpu time spent up to now is    24982.9 secs

     total energy              =   -2057.54650137 Ry
     Harris-Foulkes estimate   =   -2057.54650419 Ry
     estimated scf accuracy    <       0.00002692 Ry

     total magnetization       =    15.00 Bohr mag/cell
     absolute magnetization    =    22.78 Bohr mag/cell

     iteration # 69     ecut=    40.00 Ry     beta=0.70
     Davidson diagonalization with overlap
     ethr =  6.43E-10,  avg # of iterations =  2.0

     negative rho (up, down):  0.493E-02 0.172E-02

     total cpu time spent up to now is    25347.5 secs

     total energy              =   -2057.54650267 Ry
     Harris-Foulkes estimate   =   -2057.54650404 Ry
     estimated scf accuracy    <       0.00001182 Ry

     total magnetization       =    15.00 Bohr mag/cell
     absolute magnetization    =    22.78 Bohr mag/cell

     iteration # 70     ecut=    40.00 Ry     beta=0.70
     Davidson diagonalization with overlap
     ethr =  6.43E-10,  avg # of iterations =  1.1

     negative rho (up, down):  0.493E-02 0.172E-02

     total cpu time spent up to now is    25689.6 secs

     total energy              =   -2057.54650329 Ry
     Harris-Foulkes estimate   =   -2057.54650369 Ry
     estimated scf accuracy    <       0.00000681 Ry

     total magnetization       =    15.00 Bohr mag/cell
     absolute magnetization    =    22.78 Bohr mag/cell

     iteration # 71     ecut=    40.00 Ry     beta=0.70
     Davidson diagonalization with overlap
     ethr =  6.43E-10,  avg # of iterations =  1.3

     negative rho (up, down):  0.493E-02 0.172E-02

     total cpu time spent up to now is    26035.8 secs

     total energy              =   -2057.54650291 Ry
     Harris-Foulkes estimate   =   -2057.54650397 Ry
     estimated scf accuracy    <       0.00000451 Ry

     total magnetization       =    15.00 Bohr mag/cell
     absolute magnetization    =    22.78 Bohr mag/cell

     iteration # 72     ecut=    40.00 Ry     beta=0.70
     Davidson diagonalization with overlap
     ethr =  6.43E-10,  avg # of iterations =  1.4

     negative rho (up, down):  0.493E-02 0.172E-02

     total cpu time spent up to now is    26393.6 secs

     total energy              =   -2057.54650292 Ry
     Harris-Foulkes estimate   =   -2057.54650405 Ry
     estimated scf accuracy    <       0.00000868 Ry

     total magnetization       =    15.00 Bohr mag/cell
     absolute magnetization    =    22.78 Bohr mag/cell

     iteration # 73     ecut=    40.00 Ry     beta=0.70
     Davidson diagonalization with overlap
     ethr =  6.43E-10,  avg # of iterations =  1.4

     negative rho (up, down):  0.493E-02 0.172E-02

     total cpu time spent up to now is    26743.3 secs

     total energy              =   -2057.54650339 Ry
     Harris-Foulkes estimate   =   -2057.54650387 Ry
     estimated scf accuracy    <       0.00000232 Ry

     total magnetization       =    15.00 Bohr mag/cell
     absolute magnetization    =    22.78 Bohr mag/cell

     iteration # 74     ecut=    40.00 Ry     beta=0.70
     Davidson diagonalization with overlap
     ethr =  6.43E-10,  avg # of iterations =  1.0

     negative rho (up, down):  0.493E-02 0.172E-02

     total cpu time spent up to now is    27085.8 secs

     total energy              =   -2057.54650354 Ry
     Harris-Foulkes estimate   =   -2057.54650362 Ry
     estimated scf accuracy    <       0.00000180 Ry

     total magnetization       =    15.00 Bohr mag/cell
     absolute magnetization    =    22.78 Bohr mag/cell

     iteration # 75     ecut=    40.00 Ry     beta=0.70
     Davidson diagonalization with overlap
     ethr =  6.43E-10,  avg # of iterations =  1.0

     negative rho (up, down):  0.493E-02 0.172E-02

     total cpu time spent up to now is    27435.5 secs

     End of self-consistent calculation
 --- enter write_ns ---
 LDA+U parameters:
U( 2)     =  3.00000000
alpha( 2) =  0.00000000
atom    3   Tr[ns(na)] (up, down, total) =   3.56444  1.08523  4.64966
   spin  1
    eigenvalues: 
  0.466  0.509  0.677  0.929  0.983
    eigenvectors:
  0.007  0.205  0.001  0.000  0.787
  0.974  0.026  0.000  0.000  0.000
  0.000  0.000  0.982  0.015  0.002
  0.019  0.769  0.001  0.000  0.211
  0.000  0.000  0.015  0.984  0.000
    occupations:
  0.882 -0.009  0.014 -0.194 -0.003
 -0.009  0.467 -0.003 -0.003 -0.008
  0.014 -0.003  0.682 -0.005  0.031
 -0.194 -0.003 -0.005  0.608 -0.001
 -0.003 -0.008  0.031 -0.001  0.925
   spin  2
    eigenvalues: 
  0.099  0.119  0.144  0.349  0.374
    eigenvectors:
  0.765  0.001  0.017  0.017  0.200
  0.000  0.002  0.000  0.926  0.072
  0.021  0.040  0.939  0.000  0.000
  0.215  0.000  0.002  0.055  0.728
  0.000  0.956  0.042  0.002  0.000
    occupations:
  0.159 -0.002 -0.003  0.112  0.000
 -0.002  0.350  0.000 -0.006  0.011
 -0.003  0.000  0.142  0.007 -0.005
  0.112 -0.006  0.007  0.313  0.000
  0.000  0.011 -0.005  0.000  0.121
atomic mag. moment =     2.479211
atom    4   Tr[ns(na)] (up, down, total) =   3.49709  1.15380  4.65090
   spin  1
    eigenvalues: 
  0.488  0.533  0.582  0.908  0.986
    eigenvectors:
  0.004  0.989  0.000  0.001  0.005
  0.000  0.001  0.018  0.981  0.000
  0.000  0.000  0.982  0.018  0.000
  0.000  0.006  0.000  0.000  0.994
  0.996  0.004  0.000  0.000  0.000
    occupations:
  0.536 -0.013 -0.001  0.034  0.003
 -0.013  0.902  0.043  0.002  0.001
 -0.001  0.043  0.587  0.001 -0.001
  0.034  0.002  0.001  0.984  0.000
  0.003  0.001 -0.001  0.000  0.488
   spin  2
    eigenvalues: 
  0.102  0.128  0.165  0.368  0.390
    eigenvectors:
  0.003  0.002  0.000  0.004  0.991
  0.003  0.945  0.050  0.000  0.003
  0.000  0.050  0.950  0.000  0.000
  0.994  0.003  0.000  0.000  0.002
  0.000  0.000  0.000  0.996  0.004
    occupations:
  0.388  0.013  0.003 -0.014  0.001
  0.013  0.131 -0.008  0.001 -0.001
  0.003 -0.008  0.163  0.000  0.000
 -0.014  0.001  0.000  0.103  0.000
  0.001 -0.001  0.000  0.000  0.368
atomic mag. moment =     2.343286
atom    9   Tr[ns(na)] (up, down, total) =   3.52444  1.17080  4.69524
   spin  1
    eigenvalues: 
  0.502  0.511  0.648  0.882  0.982
    eigenvectors:
  0.011  0.150  0.000  0.000  0.839
  0.932  0.068  0.000  0.000  0.000
  0.000  0.000  0.994  0.006  0.000
  0.057  0.782  0.000  0.000  0.161
  0.000  0.000  0.006  0.994  0.000
    occupations:
  0.906  0.001 -0.001 -0.174  0.000
  0.001  0.503  0.002  0.002  0.000
 -0.001  0.002  0.649 -0.004 -0.017
 -0.174  0.002 -0.004  0.586  0.003
  0.000  0.000 -0.017  0.003  0.881
   spin  2
    eigenvalues: 
  0.118  0.144  0.157  0.376  0.377
    eigenvectors:
  0.826  0.000  0.000  0.071  0.103
  0.000  0.000  0.000  0.602  0.398
  0.000  0.019  0.981  0.000  0.000
  0.174  0.000  0.000  0.327  0.498
  0.000  0.981  0.019  0.000  0.000
    occupations:
  0.163  0.001  0.001  0.098  0.000
  0.001  0.376  0.000 -0.001  0.000
  0.001  0.000  0.157  0.004  0.002
  0.098 -0.001  0.004  0.331  0.000
  0.000  0.000  0.002  0.000  0.144
atomic mag. moment =     2.353645
atom   10   Tr[ns(na)] (up, down, total) =   3.62059  1.01871  4.63930
   spin  1
    eigenvalues: 
  0.476  0.498  0.752  0.911  0.984
    eigenvectors:
  0.001  0.995  0.000  0.000  0.004
  0.000  0.001  0.000  0.961  0.038
  0.001  0.000  0.999  0.000  0.000
  0.000  0.004  0.000  0.039  0.957
  0.997  0.001  0.001  0.000  0.000
    occupations:
  0.500 -0.011  0.000  0.030  0.001
 -0.011  0.913  0.001 -0.013 -0.009
  0.000  0.001  0.751  0.001  0.010
  0.030 -0.013  0.001  0.979  0.000
  0.001 -0.009  0.010  0.000  0.477
   spin  2
    eigenvalues: 
  0.094  0.139  0.145  0.293  0.348
    eigenvectors:
  0.006  0.000  0.000  0.994  0.000
  0.001  0.992  0.006  0.000  0.000
  0.000  0.006  0.993  0.000  0.000
  0.992  0.001  0.000  0.006  0.000
  0.000  0.001  0.000  0.000  0.999
    occupations:
  0.292  0.000 -0.001 -0.015  0.000
  0.000  0.139  0.000  0.002  0.005
 -0.001  0.000  0.145 -0.001  0.003
 -0.015  0.002 -0.001  0.095  0.000
  0.000  0.005  0.003  0.000  0.348
atomic mag. moment =     2.601875
atom   16   Tr[ns(na)] (up, down, total) =   3.56261  1.08762  4.65023
   spin  1
    eigenvalues: 
  0.465  0.509  0.677  0.928  0.983
    eigenvectors:
  0.008  0.204  0.002  0.000  0.786
  0.970  0.030  0.000  0.000  0.000
  0.000  0.000  0.979  0.018  0.002
  0.021  0.767  0.001  0.000  0.211
  0.000  0.000  0.018  0.982  0.000
    occupations:
  0.882  0.010  0.014 -0.194  0.003
  0.010  0.467  0.003  0.003 -0.008
  0.014  0.003  0.683 -0.006 -0.033
 -0.194  0.003 -0.006  0.609  0.000
  0.003 -0.008 -0.033  0.000  0.923
   spin  2
    eigenvalues: 
  0.099  0.120  0.144  0.350  0.375
    eigenvectors:
  0.766  0.001  0.016  0.018  0.198
  0.000  0.002  0.000  0.922  0.076
  0.020  0.048  0.931  0.000  0.000
  0.214  0.000  0.002  0.058  0.725
  0.000  0.948  0.050  0.002  0.000
    occupations:
  0.159  0.002 -0.003  0.112 -0.001
  0.002  0.351  0.000  0.007  0.010
 -0.003  0.000  0.142  0.007  0.005
  0.112  0.007  0.007  0.314  0.000
 -0.001  0.010  0.005  0.000  0.121
atomic mag. moment =     2.474989
atom   17   Tr[ns(na)] (up, down, total) =   3.51378  1.13757  4.65135
   spin  1
    eigenvalues: 
  0.483  0.532  0.618  0.894  0.986
    eigenvectors:
  0.002  0.992  0.000  0.001  0.005
  0.000  0.001  0.015  0.984  0.000
  0.000  0.001  0.984  0.015  0.000
  0.000  0.004  0.000  0.000  0.995
  0.998  0.002  0.000  0.000  0.000
    occupations:
  0.534 -0.013 -0.003  0.030  0.002
 -0.013  0.890  0.033  0.001  0.000
 -0.003  0.033  0.622  0.001  0.002
  0.030  0.001  0.001  0.984  0.000
  0.002  0.000  0.002  0.000  0.484
   spin  2
    eigenvalues: 
  0.101  0.127  0.160  0.363  0.387
    eigenvectors:
  0.003  0.003  0.000  0.002  0.992
  0.003  0.940  0.053  0.000  0.003
  0.000  0.053  0.947  0.000  0.000
  0.993  0.004  0.000  0.000  0.003
  0.000  0.000  0.000  0.998  0.002
    occupations:
  0.385  0.015  0.003 -0.015  0.001
  0.015  0.129 -0.007  0.001  0.000
  0.003 -0.007  0.159  0.000  0.000
 -0.015  0.001  0.000  0.101  0.000
  0.001  0.000  0.000  0.000  0.363
atomic mag. moment =     2.376206
atom   22   Tr[ns(na)] (up, down, total) =   3.14944  1.67149  4.82093
   spin  1
    eigenvalues: 
  0.526  0.554  0.571  0.662  0.836
    eigenvectors:
  0.966  0.001  0.033  0.000  0.000
  0.001  0.999  0.000  0.000  0.000
  0.000  0.000  0.000  0.007  0.993
  0.033  0.000  0.967  0.000  0.000
  0.000  0.000  0.000  0.993  0.007
    occupations:
  0.528 -0.001  0.005 -0.008 -0.001
 -0.001  0.554  0.001  0.000  0.000
  0.005  0.001  0.835 -0.003  0.014
 -0.008  0.000 -0.003  0.569  0.000
 -0.001  0.000  0.014  0.000  0.663
   spin  2
    eigenvalues: 
  0.199  0.268  0.292  0.455  0.457
    eigenvectors:
  0.000  0.000  0.990  0.000  0.010
  0.000  0.000  0.000  0.989  0.011
  0.998  0.002  0.000  0.000  0.000
  0.000  0.000  0.010  0.011  0.979
  0.002  0.998  0.000  0.000  0.000
    occupations:
  0.294 -0.003  0.000  0.016  0.000
 -0.003  0.455  0.000  0.000  0.001
  0.000  0.000  0.199  0.003 -0.003
  0.016  0.000  0.003  0.455  0.001
  0.000  0.001 -0.003  0.001  0.268
atomic mag. moment =     1.477956
atom   23   Tr[ns(na)] (up, down, total) =   3.60057  1.04334  4.64390
   spin  1
    eigenvalues: 
  0.474  0.493  0.728  0.929  0.976
    eigenvectors:
  0.000  0.998  0.002  0.000  0.000
  0.001  0.002  0.991  0.000  0.007
  0.000  0.000  0.000  0.998  0.001
  0.000  0.000  0.007  0.001  0.993
  0.999  0.000  0.001  0.000  0.000
    occupations:
  0.494  0.009  0.009 -0.002 -0.001
  0.009  0.730  0.003  0.020 -0.006
  0.009  0.003  0.929 -0.001 -0.004
 -0.002  0.020 -0.001  0.974 -0.001
 -0.001 -0.006 -0.004 -0.001  0.474
   spin  2
    eigenvalues: 
  0.096  0.101  0.150  0.340  0.356
    eigenvectors:
  0.003  0.001  0.000  0.995  0.000
  0.002  0.000  0.997  0.000  0.000
  0.074  0.925  0.000  0.000  0.000
  0.921  0.073  0.002  0.004  0.000
  0.000  0.000  0.000  0.000  0.999
    occupations:
  0.339  0.001 -0.005 -0.016  0.000
  0.001  0.150  0.000 -0.003  0.003
 -0.005  0.000  0.100  0.001 -0.004
 -0.016 -0.003  0.001  0.098  0.000
  0.000  0.003 -0.004  0.000  0.356
atomic mag. moment =     2.557229
N of occupied +U levels =  37.4015190
 --- exit write_ns ---

 ------ SPIN UP ------------


          k = 0.0000 0.0000 0.0000 ( 27003 PWs)   bands (ev):

   -75.0619 -74.6542 -74.5193 -74.4828 -74.4562 -74.4504 -74.4154 -74.3993
   -46.4635 -46.3501 -46.3156 -46.1555 -45.9421 -45.9131 -45.8758 -45.8570
   -45.8546 -45.8519 -45.8186 -45.7955 -45.7841 -45.7824 -45.7787 -45.7697
   -45.7462 -45.7416 -45.7181 -45.7101 -45.6919 -45.6881 -45.6363 -45.5605
   -24.1045 -20.6258 -20.1660 -19.8289 -19.7711 -19.5998 -19.2736 -19.1445
   -19.0826 -19.0496 -18.9400 -18.8544 -18.7378 -18.6905 -18.6189 -18.5417
   -18.4924 -18.3858 -18.3065 -17.4525  -9.2993  -8.8741  -8.6815  -8.4529
    -8.3012  -8.1411  -7.8006  -7.6282  -7.5229  -7.4364  -7.3314  -7.2128
    -7.1942  -7.1709  -7.0926  -6.7159  -6.5104  -6.4977  -6.4425  -6.4234
    -6.4094  -6.3293  -6.2500  -5.9702  -5.9605  -5.8167  -5.6620  -5.5435
    -5.2747  -5.2231  -5.0940  -5.0160  -4.9245  -4.7975  -4.6201  -4.5490
    -4.4748  -4.4159  -4.3290  -4.2790  -4.2123  -4.0826  -3.9254  -3.8300
    -3.8032  -3.7723  -3.6824  -3.6308  -3.5761  -3.5176  -3.4643  -3.4000
    -3.3305  -3.2505  -3.2308  -3.1146  -3.1038  -3.0652  -2.8705  -2.8286
    -2.7666  -2.7399  -2.5944  -2.5902  -2.4502  -2.4059  -2.3282  -2.0391
    -1.9497  -1.7514  -1.5285  -1.4315  -1.2188  -1.1880  -1.1263  -1.0162
    -0.8739  -0.7663  -0.6690  -0.5936  -0.4311  -0.3083  -0.0294   0.2540
     0.9444   1.0766   1.4219   1.8566   1.9059   2.0826   2.0876   2.1828
     2.3025   2.4400   2.5459   2.7262   2.7372   2.8350   2.8657   3.2085
     3.5359   3.6890   3.8023   4.3385   4.9387   5.5213   5.9832   6.4522
     6.8842   6.9482   7.1738   7.3298   7.4540   7.4662   7.5162   7.5945
     7.7492   7.7727   7.8789   8.0486   8.1117   8.1926   8.2781   8.5295
     8.6849   8.7241   8.8919   8.9694   9.1736   9.2672   9.4003   9.4635
     9.6496   9.7753   9.9279   9.9783  10.0770  10.1872  10.1986  10.5263
    10.5812  10.5946  10.6257  10.8245  10.8533  10.9694  10.9830  11.1372
    11.1739  11.4156  11.4469  11.5338  11.6407  11.7035  11.7556  11.8401
    11.9089  11.9186  11.9702  12.0473  12.1351  12.2060  12.2415  12.3046
    12.3271  12.4427  12.4672  12.6479  12.7219  12.8002  12.8333  12.9318
    12.9774  13.0317  13.1472  13.3005  13.3448  13.3620  13.4977  13.5688
    13.5754  13.6299  13.7036  13.7661  13.8248  13.8897  13.9081  14.1088
    14.1983  14.3614  14.3744  14.4342  14.4746  14.5133  14.8299  14.8407
    15.0089  15.0395  15.1014  15.1333  15.2267  15.2614  15.3160  15.3654
    15.4061  15.5511  15.5995  15.7468  15.7808  15.8763  16.0038  16.1353
    16.2249  16.5089  16.5481  16.7062  16.7242  16.7943  16.8570  16.9002
    17.0217  17.1050  17.2828  17.3767  17.4113  17.5003  17.6199  17.6861
    17.7096  17.7819  17.8651  18.0780  18.1891  18.2681  18.3312  18.4540
    18.5141  18.6017  18.6493  18.7184  18.8364  18.9535  19.0063  19.0747
    19.1421  19.1640  19.2408  19.2916  19.4420  19.4942  19.5774  19.6568
    19.7072  19.7276  19.7434  19.7872  19.9670  19.9914  20.0521  20.1263
    20.1713  20.3561  20.3729  20.5403  20.5577  20.5959  20.6978  20.7691
    20.8557  20.9177  21.0101  21.0833  21.1816  21.1983  21.2513  21.3331
    21.3700  21.3868  21.4856  21.5217  21.6122  21.6483  21.7264  21.7491
    21.8208  21.8963  21.9298  22.0357  22.1472  22.1746  22.2396

          k = 0.0000 0.2341 0.0000 ( 27088 PWs)   bands (ev):

   -75.0619 -74.6543 -74.5193 -74.4828 -74.4562 -74.4504 -74.4154 -74.3993
   -46.4635 -46.3501 -46.3155 -46.1555 -45.9431 -45.9111 -45.8725 -45.8572
   -45.8549 -45.8520 -45.8202 -45.7980 -45.7842 -45.7792 -45.7787 -45.7728
   -45.7459 -45.7416 -45.7176 -45.7101 -45.6941 -45.6865 -45.6362 -45.5607
   -24.1042 -20.5416 -20.0635 -19.8316 -19.8228 -19.5932 -19.3143 -19.2081
   -19.1309 -19.0558 -18.9896 -18.8386 -18.7015 -18.6840 -18.6581 -18.6044
   -18.4565 -18.3891 -18.3026 -17.4498  -9.2799  -8.7555  -8.4202  -8.4045
    -8.2518  -8.2148  -7.9925  -7.6962  -7.6416  -7.4965  -7.2388  -7.0964
    -7.0644  -6.9627  -6.8353  -6.6763  -6.5325  -6.3912  -6.3432  -6.3136
    -6.2716  -6.1881  -6.1066  -5.9788  -5.9295  -5.8495  -5.6157  -5.5071
    -5.4953  -5.4167  -5.2300  -5.1840  -5.0650  -4.9528  -4.7757  -4.6502
    -4.5968  -4.5209  -4.4334  -4.3887  -4.3223  -4.2442  -4.1387  -4.0148
    -3.9109  -3.8460  -3.7361  -3.6356  -3.5763  -3.5352  -3.4877  -3.3598
    -3.2859  -3.1899  -3.1620  -3.0114  -2.9665  -2.8847  -2.7973  -2.6783
    -2.6495  -2.6434  -2.5838  -2.5517  -2.4296  -2.3852  -2.1155  -2.0777
[...]
     3.6811   3.7645   3.8709   3.9224   3.9795   4.0091   4.1660   4.3054
     4.3710   4.4926   4.6917   4.7567   5.0105   5.0305   5.4734   5.4820
     6.1114   6.2252   6.7900   6.9873   7.1601   7.4062   7.7142   7.9411
     7.9638   7.9695   8.0322   8.2629   8.5366   8.5723   8.6186   8.6673
     8.7138   8.8582   8.8900   8.9501   8.9812   9.1285   9.1718   9.3057
     9.3671   9.4564   9.6625   9.8998   9.9590  10.0543  10.1591  10.2184
    10.3948  10.6727  10.7450  10.9106  10.9167  10.9718  11.0646  11.0770
    11.2324  11.3072  11.5993  11.7560  11.8225  11.9997  12.1006  12.1430
    12.2320  12.3100  12.3434  12.4696  12.5834  12.6320  12.7571  12.8074
    12.9767  13.0291  13.1171  13.1620  13.3943  13.4725  13.5687  13.6156
    13.6492  13.6907  13.7862  13.8040  13.9706  13.9787  13.9951  14.0956
    14.2629  14.3255  14.3503  14.4057  14.6051  14.6764  14.7002  14.7501
    14.9334  14.9779  15.0214  15.2033  15.2245  15.2651  15.3480  15.4183
    15.6672  15.7233  15.7354  15.8071  15.8690  15.8836  15.9286  16.0740
    16.1943  16.2326  16.4416  16.4794  16.5395  16.6250  16.6883  16.7670
    16.7774  16.8372  16.8814  16.9140  16.9672  17.0566  17.1412  17.2278
    17.2917  17.3601  17.3981  17.4726  17.5179  17.5589  17.5756  17.6204
    17.6567  17.7480  17.8728  17.9238  17.9642  17.9842  18.0942  18.1180
    18.1441  18.1650  18.2360  18.3293  18.3834  18.4781  18.5402  18.6192
    18.6218  18.6798  18.7166  18.7977  18.8191  19.1111  19.1758  19.2262
    19.2863  19.3248  19.3964  19.4430  19.5269  19.5751  19.6645  19.6939
    19.9072  19.9391  19.9941  20.0592  20.0739  20.0924  20.1850  20.2021
    20.2144  20.2980  20.3940  20.4033  20.5107  20.5441  20.6205  20.6493
    20.6640  20.7111  20.8075  20.8858  20.9632  21.0713  21.1147  21.1823
    21.2814  21.3105  21.3441  21.3882  21.4719  21.5259  21.5685

          k =-0.5000 0.2341 0.0000 ( 27132 PWs)   bands (ev):

   -73.2826 -71.9417 -71.8516 -71.8411 -71.7558 -71.6944 -71.6784 -71.4771
   -44.9253 -44.6374 -44.3240 -43.5249 -43.5178 -43.4004 -43.4000 -43.3979
   -43.2971 -43.2785 -43.2519 -43.1858 -43.1365 -43.1193 -43.0555 -42.9879
   -42.9713 -42.9669 -42.9554 -42.9272 -42.9104 -42.7551 -42.7412 -42.6561
   -24.9039 -20.2388 -20.1427 -19.8494 -19.8363 -19.6234 -19.5792 -19.5536
   -19.2834 -19.1995 -19.1727 -19.1164 -18.9801 -18.9582 -18.9291 -18.8546
   -18.6912 -18.6551 -18.6303 -17.7498  -9.5200  -7.9331  -7.8023  -7.7008
    -7.1177  -7.1053  -7.0480  -6.9882  -6.9332  -6.8377  -6.7892  -6.5657
    -6.5147  -6.4826  -6.3697  -6.3188  -6.1890  -6.1534  -6.0791  -5.7721
    -5.7365  -5.5838  -5.5451  -5.4902  -5.3427  -5.2839  -5.2070  -5.1299
    -5.0038  -4.9528  -4.8440  -4.7094  -4.6482  -4.4997  -4.4430  -4.3959
    -4.3640  -4.3252  -4.2550  -4.1786  -4.0812  -4.0467  -3.9757  -3.8534
    -3.6807  -3.5777  -3.4875  -3.3001  -3.2818  -3.1356  -3.0800  -3.0470
    -2.9087  -2.8618  -2.7908  -2.6997  -2.5094  -2.4381  -2.3720   0.8283
     0.9255   0.9539   1.4031   1.5368   1.5717   1.6881   1.7569   1.7742
     1.8781   1.9067   1.9950   2.0674   2.1135   2.1301   2.1797   2.2120
     2.2636   2.3230   2.3492   2.4424   2.4764   2.5448   2.6200   2.6897
     2.7797   3.0006   3.1496   3.3062   3.3308   3.3843   3.4563   3.4738
     3.4853   3.5462   3.6775   3.8125   4.0211   4.2034   4.3240   4.3819
     4.4899   4.5633   4.9076   4.9906   5.2169   5.2426   5.6573   5.6908
     6.1429   6.2664   6.4067   6.5300   6.8181   6.8790   7.0045   7.0761
     7.1654   7.4157   7.5821   7.7025   7.8121   8.1344   8.2949   8.3871
     8.6818   8.9048   9.1118   9.1701   9.2514   9.3481   9.6021   9.6510
     9.8887   9.9307  10.2492  10.2726  10.3429  10.4704  10.7305  10.7551
    10.7907  10.8220  10.8552  11.0173  11.1750  11.2406  11.4181  11.4434
    11.6052  11.6636  11.8914  12.0268  12.0727  12.1173  12.2513  12.2999
    12.4493  12.5386  12.6528  12.7626  12.9385  12.9830  13.1115  13.1811
    13.2038  13.2839  13.3967  13.4760  13.5147  13.6073  13.6623  13.7355
    13.7485  13.8365  13.9362  13.9565  14.1465  14.1933  14.2572  14.3274
    14.4006  14.4437  14.4983  14.5456  14.6362  14.7034  14.7598  14.8213
    14.9239  14.9754  15.0487  15.0786  15.1601  15.2177  15.2328  15.3579
    15.4052  15.5083  15.6491  15.6847  15.7708  15.8082  15.8439  15.8873
    15.9542  15.9865  16.0891  16.1552  16.1812  16.2278  16.2793  16.3489
    16.3745  16.4219  16.4823  16.5458  16.5749  16.6190  16.6630  16.7127
    16.7903  16.8437  16.8938  16.9634  17.0515  17.0967  17.1525  17.2274
    17.2799  17.3568  17.4317  17.4588  17.5237  17.6287  17.6682  17.7329
    17.8813  17.9476  17.9650  18.0225  18.0726  18.1177  18.2006  18.2178
    18.3777  18.4333  18.5193  18.5680  18.7046  18.7411  18.7829  18.8371
    18.9371  19.0559  19.0814  19.2310  19.3296  19.4556  19.5090  19.6084
    19.6580  19.6929  19.7660  19.7875  19.8752  19.9131  19.9559  20.0476
    20.0960  20.1342  20.1921  20.2318  20.3341  20.3613  20.4350  20.5570
    20.6304  20.6717  20.7387  20.8890  20.9377  21.0376  21.1176  21.2822
    21.3331  21.3686  21.4637  21.5786  21.6415  21.7136  21.8298

          k =-0.5000-0.4682 0.0000 ( 27168 PWs)   bands (ev):

   -73.2826 -71.9417 -71.8516 -71.8411 -71.7558 -71.6944 -71.6784 -71.4771
   -44.9254 -44.6374 -44.3240 -43.5246 -43.5178 -43.4004 -43.3982 -43.3969
   -43.2916 -43.2764 -43.2635 -43.1858 -43.1365 -43.1193 -43.0562 -42.9878
   -42.9707 -42.9664 -42.9556 -42.9267 -42.9104 -42.7550 -42.7412 -42.6564
   -24.9037 -20.1678 -20.0762 -19.7667 -19.7194 -19.6987 -19.5384 -19.5018
   -19.4882 -19.3122 -19.1578 -19.1188 -19.0734 -19.0449 -18.9333 -18.8263
   -18.6784 -18.6484 -18.6202 -17.7465  -9.5070  -7.9519  -7.7779  -7.6745
    -7.0511  -6.9770  -6.9389  -6.7396  -6.6337  -6.5543  -6.4614  -6.3997
    -6.3722  -6.2563  -6.2145  -6.1648  -6.1453  -6.0510  -5.9965  -5.8632
    -5.8146  -5.7928  -5.6883  -5.6580  -5.5956  -5.5181  -5.4109  -5.2498
    -5.1880  -5.0456  -4.9637  -4.8579  -4.8169  -4.7084  -4.6729  -4.6264
    -4.5053  -4.4312  -4.3468  -4.2261  -4.1068  -4.1047  -3.9985  -3.8789
    -3.7883  -3.6430  -3.2999  -3.2524  -3.1763  -3.0906  -3.0570  -3.0301
    -2.9217  -2.9011  -2.8579  -2.6413  -2.4396  -2.3938  -2.3410   0.8300
     0.8771   0.9180   1.4381   1.4919   1.5541   1.7138   1.7236   1.7606
     1.9114   1.9332   2.1257   2.1480   2.2076   2.2343   2.2758   2.3592
     2.4594   2.5240   2.5584   2.5607   2.5816   2.6528   2.6660   2.6986
     2.7338   2.8093   2.8306   3.0022   3.1203   3.1413   3.3336   3.4311
     3.4575   3.7505   3.7714   3.7949   4.1745   4.2025   4.4036   4.4723
     4.4879   4.9368   5.2966   5.3143   5.6166   5.6362   5.7116   5.7228
     5.8505   5.8787   6.0722   6.1126   6.3140   6.3871   6.5635   6.6765
     6.9006   7.1296   7.2470   7.4542   7.6211   7.9911   8.0504   8.3416
     8.4345   8.6686   8.8729   9.0196   9.2966   9.3427   9.7483   9.8779
     9.9904   9.9918  10.0113  10.0918  10.2610  10.4373  11.0444  11.1856
    11.2275  11.3391  11.5189  11.6003  11.6891  11.7806  11.9449  12.0664
    12.3412  12.4192  12.5183  12.5883  12.6914  12.8667  12.9115  13.0371
    13.2083  13.2316  13.2785  13.3073  13.3341  13.4124  13.4415  13.4551
    13.5118  13.5310  13.5755  13.6178  13.7894  13.8290  13.8986  13.9236
    13.9483  14.0307  14.0918  14.1336  14.1696  14.2245  14.2455  14.2832
    14.3395  14.3941  14.4078  14.4496  14.5283  14.5952  14.6334  14.6511
    14.6883  14.7138  14.7547  14.7993  14.8635  14.9330  14.9955  15.0295
    15.1000  15.1523  15.2360  15.2780  15.3185  15.3668  15.3873  15.4121
    15.4361  15.4877  15.5281  15.5886  15.6378  15.7109  15.8148  15.8366
    15.8892  15.9106  15.9491  16.0956  16.1495  16.1852  16.2429  16.2804
    16.3828  16.4698  16.5528  16.6698  16.7377  16.8104  16.8863  16.9432
    17.0023  17.0648  17.1783  17.2532  17.3201  17.4321  17.4985  17.5565
    17.6427  17.7090  17.7259  17.7770  17.7945  17.9190  18.0811  18.1368
    18.1671  18.2008  18.2281  18.2691  18.3266  18.3819  18.4021  18.6485
    18.8863  18.9108  18.9891  19.0720  19.1478  19.1964  19.2191  19.2906
    19.4076  19.4858  19.5933  19.6216  19.7716  19.8540  19.9764  20.0208
    20.1646  20.2693  20.3274  20.4405  20.6169  20.7159  20.8416  20.9368
    20.9634  21.0274  21.2015  21.2824  21.4127  21.5366  21.6200  21.6715
    21.6901  21.8130  21.8254  21.9208  21.9710  22.0259  22.0576

          k =-0.2500 0.2341 0.0000 ( 27132 PWs)   bands (ev):

   -73.2825 -71.9418 -71.8515 -71.8406 -71.7557 -71.6958 -71.6765 -71.4768
   -44.9273 -44.6375 -44.3241 -43.5249 -43.5180 -43.4018 -43.4001 -43.3980
   -43.2976 -43.2771 -43.2521 -43.1858 -43.1426 -43.1132 -43.0560 -43.0315
   -43.0207 -42.9593 -42.9534 -42.8765 -42.8741 -42.8143 -42.6819 -42.6556
   -24.9040 -20.4755 -20.0892 -19.9217 -19.8354 -19.6649 -19.4551 -19.3839
   -19.3431 -19.2579 -19.1342 -19.0569 -18.9498 -18.9463 -18.9204 -18.8437
   -18.7057 -18.6398 -18.6194 -17.7511  -9.5206  -7.9644  -7.9066  -7.7266
    -7.4419  -7.3093  -7.1628  -6.9884  -6.8618  -6.7697  -6.6982  -6.6494
    -6.5506  -6.4275  -6.3094  -6.2887  -6.1471  -6.1082  -5.9986  -5.9621
    -5.8020  -5.6699  -5.6388  -5.5586  -5.4602  -5.2085  -5.1615  -5.0322
    -4.9209  -4.8614  -4.6919  -4.6305  -4.6107  -4.5405  -4.5057  -4.4091
    -4.3416  -4.2865  -4.1953  -4.1381  -4.0133  -3.8851  -3.6856  -3.6296
    -3.5799  -3.5109  -3.4043  -3.3605  -3.2996  -3.2558  -3.1967  -3.0726
    -2.9516  -2.9041  -2.8133  -2.6504  -2.5376  -2.3988  -2.3186   0.7535
     0.9064   0.9473   1.3795   1.4759   1.5592   1.6168   1.6797   1.7395
     1.7768   1.8749   1.9514   2.0321   2.0759   2.1081   2.1806   2.2427
     2.3191   2.3632   2.3894   2.4523   2.5431   2.6104   2.6495   2.6927
     2.7705   2.8890   3.0707   3.0985   3.1647   3.3267   3.5366   3.5705
     3.6740   3.6932   3.8852   3.9235   4.0026   4.0977   4.1968   4.3169
     4.4254   4.4304   4.6367   4.8721   5.1955   5.4969   5.7118   6.0965
     6.2074   6.3159   6.4175   6.5300   6.8032   6.9178   7.1493   7.4272
     7.5658   7.7163   7.9055   8.1159   8.2779   8.3613   8.4773   8.6446
     8.7066   8.9340   9.0872   9.2588   9.4139   9.4929   9.5734   9.7778
     9.8993   9.9779  10.0794  10.1201  10.1665  10.3907  10.4432  10.4863
    10.5841  10.6958  10.7803  10.9295  11.0583  11.1183  11.2525  11.3351
    11.4209  11.5302  11.6279  11.7713  11.8408  11.9245  12.0504  12.0909
    12.1348  12.2955  12.3737  12.4122  12.4775  12.5847  12.6912  12.7052
    12.8364  12.8763  13.0267  13.0922  13.1857  13.2711  13.3310  13.4450
    13.5029  13.5486  13.6299  13.6956  13.7961  13.8576  13.9480  14.0374
    14.1498  14.2070  14.2472  14.3031  14.3834  14.4575  14.4978  14.5714
    14.7665  14.8462  14.8876  14.9646  15.0918  15.2069  15.2410  15.2794
    15.3938  15.4671  15.5658  15.6369  15.7193  15.7966  15.8432  15.9316
    15.9925  16.0500  16.0869  16.1579  16.1894  16.2459  16.2873  16.3700
    16.4854  16.5452  16.6060  16.6990  16.7750  16.8205  16.9251  16.9882
    17.0317  17.1433  17.1893  17.2700  17.3099  17.3492  17.4645  17.4868
    17.5263  17.5647  17.7368  17.7635  17.8353  17.8683  17.9510  18.0114
    18.0470  18.1677  18.2180  18.3036  18.4154  18.4841  18.5157  18.5694
    18.6153  18.6955  18.7858  18.8735  18.9074  19.0094  19.0311  19.1062
    19.1683  19.2855  19.3667  19.4011  19.4398  19.5031  19.5598  19.6796
    19.7166  19.8053  19.8655  19.9260  20.0230  20.1501  20.1926  20.3016
    20.3404  20.4033  20.5074  20.5877  20.6873  20.8419  20.8841  20.9625
    21.0580  21.0900  21.1792  21.2196  21.3038  21.3796  21.4319  21.5322
    21.6105  21.7130  21.7805  21.8590  21.9328  21.9870  22.0405

     the spin up/dw Fermi energies are    -1.1618   -2.1618 ev

!    total energy              =   -2057.55493354 Ry
     Harris-Foulkes estimate   =   -2057.55493354 Ry
     estimated scf accuracy    <          5.6E-09 Ry

     The total energy is the sum of the following terms:

     one-electron contribution =  -24465.19936676 Ry
     hartree contribution      =   12259.73417686 Ry
     xc contribution           =    -329.97439188 Ry
     ewald contribution        =   10476.42979179 Ry
     Hubbard energy            =       1.45501507 Ry
     smearing contrib. (-TS)   =      -0.00015862 Ry

     total magnetization       =    15.00 Bohr mag/cell
     absolute magnetization    =    23.52 Bohr mag/cell

     convergence has been achieved in  16 iterations

     Forces acting on atoms (Ry/au):


     negative rho (up, down):  0.492E-02 0.173E-02
     atom    1 type  1   force =    -0.00378852   -0.01148679   -0.00006471
     atom    2 type  1   force =    -0.00012835    0.00665428   -0.00003361
     atom    3 type  2   force =     0.03467273   -0.00199132   -0.00030852
     atom    4 type  2   force =     0.00099380    0.00750816    0.00009761
     atom    5 type  1   force =    -0.00183402    0.00602978    0.00005218
     atom    6 type  1   force =    -0.00080477   -0.00398053    0.00004430
     atom    7 type  1   force =     0.00080183   -0.00402391    0.00018633
     atom    8 type  1   force =    -0.01962056    0.00185817    0.00065169
     atom    9 type  2   force =     0.00502572   -0.00142701   -0.00003849
     atom   10 type  2   force =     0.00168474    0.00170797    0.00044574
     atom   11 type  1   force =    -0.02925133   -0.02374916   -0.00048165
     atom   12 type  1   force =    -0.02235146    0.03052221   -0.00008823
     atom   13 type  1   force =    -0.03986688   -0.00237750   -0.00013171
     atom   14 type  1   force =    -0.00632601   -0.01216995   -0.00003768
     atom   15 type  1   force =     0.00017312    0.00728347    0.00023839
     atom   16 type  2   force =    -0.03658463   -0.00090288   -0.00039085
     atom   17 type  2   force =     0.00691512    0.00766227    0.00007359
     atom   18 type  1   force =     0.00302612    0.00462155    0.00009539
     atom   19 type  1   force =     0.00343736   -0.00391493    0.00011798
     atom   20 type  1   force =     0.00182127   -0.00410221   -0.00008330
     atom   21 type  1   force =     0.01396233    0.00276211    0.00079220
     atom   22 type  2   force =     0.01392219   -0.00364907   -0.00034591
     atom   23 type  2   force =    -0.00492863   -0.00557490   -0.00006012
     atom   24 type  1   force =     0.02735149   -0.01650006   -0.00023993
     atom   25 type  1   force =     0.02038507    0.02761220    0.00031349
     atom   26 type  1   force =     0.03274275   -0.00731381   -0.00017376
     atom   27 type  3   force =    -0.00004283   -0.00046460   -0.00063275
     atom   28 type  3   force =     0.00000372   -0.00059182   -0.00054290
     atom   29 type  3   force =     0.00016395   -0.00022644    0.00028460
     atom   30 type  3   force =     0.00007340   -0.00012746    0.00022264
     atom   31 type  1   force =    -0.00196152   -0.00093492   -0.00089626
     atom   32 type  1   force =     0.00031705    0.00063781    0.00014205
     atom   33 type  3   force =     0.00001575    0.00064930    0.00079221

     Total force =     0.002619     Total SCF correction =     0.000294
     SCF correction compared to forces is large: reduce conv_thr to get better values

     bfgs converged in  13 scf cycles and  12 bfgs steps
     (criteria: energy < 0.10E-03, force < 0.10E-02)

     End of BFGS Geometry Optimization

     Final energy   =   -2057.5549335375 Ry
Begin final coordinates

ATOMIC_POSITIONS (crystal)
O0       0.000000000   0.000000000   0.377175247    0   0   1
O0       0.000000000   0.500000000   0.398881071    0   0   1
Cr1      0.250000000   0.500000000   0.450690931    0   0   1
Cr1      0.000000000   0.000000000   0.449012033    0   0   1
O0       0.250000000   0.800000000   0.449354455    0   0   1
O0       0.250000000   0.200000000   0.449471511    0   0   1
O0       0.000000000   0.500000000   0.497989513    0   0   1
O0       0.000000000   0.000000000   0.523312242    0   0   1
Cr1      0.250000000   0.000000000   0.568814713    0   0   1
Cr1      0.000000000   0.500000000   0.566264951    0   0   1
O0       0.250000000   0.700000000   0.573667424    0   0   1
O0       0.250000000   0.300000000   0.575474127    0   0   1
O0       0.000000000   0.000000000   0.618778836    0   0   1
O0       0.500000000   0.000000000   0.376866584    0   0   1
O0       0.500000000   0.500000000   0.398915827    0   0   1
Cr1      0.750000000   0.500000000   0.450646414    0   0   1
Cr1      0.500000000   0.000000000   0.448863555    0   0   1
O0       0.750000000   0.800000000   0.449394132    0   0   1
O0       0.750000000   0.200000000   0.449476187    0   0   1
O0       0.500000000   0.500000000   0.499470626    0   0   1
O0       0.500000000   0.000000000   0.523327026    0   0   1
Cr1      0.750000000   0.000000000   0.582758866    0   0   1
Cr1      0.500000000   0.500000000   0.575780684    0   0   1
O0       0.750000000   0.700000000   0.575713597    0   0   1
O0       0.750000000   0.300000000   0.577292839    0   0   1
O0       0.500000000   0.000000000   0.617988514    0   0   1
H2      -0.000483784   0.639038354   0.380237966
H2       0.499567773   0.640433907   0.380802898
H2       0.158207598   0.029284400   0.364527285
H2       0.657725775   0.029978503   0.364178761
O0       0.499860000   0.542002480   0.650476432    0   1   1
O0       0.500220000   0.353790921   0.680251343    0   1   1
H2       0.499890000   0.416909665   0.714923411    0   1   1
End final coordinates


 
     init_run     :    142.03s CPU    144.09s WALL (       1 calls)
     electrons    : 125217.66s CPU 127282.89s WALL (      13 calls)
     update_pot   :    278.56s CPU    282.96s WALL (      12 calls)
     forces       :   3692.26s CPU   3721.74s WALL (      13 calls)

     Called by init_run:
     wfcinit      :     80.08s CPU     81.56s WALL (       1 calls)
     potinit      :     10.76s CPU     10.92s WALL (       1 calls)

     Called by electrons:
     c_bands      :  77348.94s CPU  78457.02s WALL (     391 calls)
     sum_band     :  30178.35s CPU  30551.76s WALL (     391 calls)
     v_of_rho     :   1320.94s CPU   1388.30s WALL (     402 calls)
     newd         :  14847.61s CPU  14878.87s WALL (     402 calls)
     mix_rho      :    225.51s CPU    226.41s WALL (     391 calls)

     Called by c_bands:
     init_us_2    :    147.44s CPU    147.61s WALL (    4110 calls)
     cegterg      :  73540.68s CPU  74229.35s WALL (    1955 calls)

     Called by *egterg:
     h_psi        :  38496.92s CPU  38595.12s WALL (    5117 calls)
     s_psi        :   5037.46s CPU   5038.80s WALL (    5247 calls)
     g_psi        :    141.17s CPU    141.20s WALL (    3157 calls)
     cdiaghg      :   7585.37s CPU   7586.83s WALL (    5042 calls)

     Called by h_psi:
     add_vuspsi   :   4936.22s CPU   4938.00s WALL (    5117 calls)
     vhpsi        :   4479.71s CPU   4480.94s WALL (    5117 calls)

     General routines
     calbec       :  11500.36s CPU  11506.88s WALL (   33709 calls)
     fft          :   1444.96s CPU   1497.59s WALL (   12595 calls)
     ffts         :     23.18s CPU     23.45s WALL (    1586 calls)
     fftw         :  22639.42s CPU  22739.99s WALL ( 3465305 calls)
     interpolate  :    193.80s CPU    193.75s WALL (    1586 calls)
     davcio       :      0.25s CPU    104.60s WALL (    4175 calls)
 
     Parallel routines
     fft_scatter  :   7806.54s CPU   7780.54s WALL ( 3479486 calls)
     Hubbard U routines
     new_ns       :   1070.03s CPU   1104.58s WALL (     391 calls)
     vhpsi        :   4479.71s CPU   4480.94s WALL (    5117 calls)
     force_hub    :   1244.79s CPU   1251.23s WALL (      13 calls)
 
     PWSCF        :     1d   12h 4m CPU        1d   12h40m WALL

 
   This run was terminated on:  22: 5:18  10Aug2014            

=------------------------------------------------------------------------------=
   JOB DONE.
=------------------------------------------------------------------------------=
