
     Program PWSCF v.5.0.2 (svn rev. 9656) starts on 15Feb2014 at  8: 1:46 

     This program is part of the open-source Quantum ESPRESSO suite
     for quantum simulation of materials; please cite
         "P. Giannozzi et al., J. Phys.:Condens. Matter 21 395502 (2009);
          URL http://www.quantum-espresso.org", 
     in publications or presentations arising from this work. More details at
     http://www.quantum-espresso.org/quote.php

     Parallel version (MPI), running on    16 processors
     R & G space division:  proc/nbgrp/npool/nimage =      16

     Current dimensions of program PWSCF are:
     Max number of different atomic species (ntypx) = 10
     Max number of k-points (npk) =  40000
     Max angular momentum in pseudopotentials (lmaxx) =  3
     Reading input from alpha_0.15/alpha_0.15.in
Warning: card &IONS ignored
Warning: card / ignored
Warning: card &CELL ignored
Warning: card / ignored

     Subspace diagonalization in iterative solution of the eigenvalue problem:
     a serial algorithm will be used


     Parallelization info
     --------------------
     sticks:   dense  smooth     PW     G-vecs:    dense   smooth      PW
     Min         742     237     67                37787     6835    1029
     Max         744     238     69                37789     6849    1030
     Sum       11881    3793   1085               604605   109483   16467



     bravais-lattice index     =            0
     lattice parameter (alat)  =      17.2721  a.u.
     unit-cell volume          =    3202.1180 (a.u.)^3
     number of atoms/cell      =           48
     number of atomic types    =            3
     number of electrons       =       400.00
     number of Kohn-Sham states=          600
     kinetic-energy cutoff     =      40.0000  Ry
     charge density cutoff     =     500.0000  Ry
     convergence threshold     =      1.0E-06
     mixing beta               =       0.7000
     number of iterations used =            8  plain     mixing
     Exchange-correlation      = SLA  PW   PBE  PBE ( 1 4 3 4 0)
     EXX-fraction              =        0.00

     celldm(1)=  17.272097  celldm(2)=   0.000000  celldm(3)=   0.000000
     celldm(4)=   0.000000  celldm(5)=   0.000000  celldm(6)=   0.000000

     crystal axes: (cart. coord. in units of alat)
               a(1) = (   1.000000   0.000000   0.000000 )  
               a(2) = (   0.000000   1.000000   0.000000 )  
               a(3) = (   0.000000   0.000000   0.621444 )  

     reciprocal axes: (cart. coord. in units 2 pi/alat)
               b(1) = (  1.000000  0.000000  0.000000 )  
               b(2) = (  0.000000  1.000000  0.000000 )  
               b(3) = (  0.000000  0.000000  1.609155 )  


     PseudoPot. # 1 for V  read from file:
     /home/camp/zhonxu/pseudo/v_pbe_v1.uspp.F.UPF
     MD5 check sum: f3d00ac417565f5fd6449f790f2b64f9
     Pseudo is Ultrasoft + core correction, Zval = 13.0
     Generated by new atomic code, or converted to UPF format
     Using radial grid of  853 points,  6 beta functions with: 
                l(1) =   0
                l(2) =   0
                l(3) =   1
                l(4) =   1
                l(5) =   2
                l(6) =   2
     Q(r) pseudized with  6 coefficients,  rinner =    1.100   1.100   1.100
                                                       1.100   1.100

     PseudoPot. # 2 for V  read from file:
     /home/camp/zhonxu/pseudo/v_pbe_v1.uspp.F.UPF
     MD5 check sum: f3d00ac417565f5fd6449f790f2b64f9
     Pseudo is Ultrasoft + core correction, Zval = 13.0
     Generated by new atomic code, or converted to UPF format
     Using radial grid of  853 points,  6 beta functions with: 
                l(1) =   0
                l(2) =   0
                l(3) =   1
                l(4) =   1
                l(5) =   2
                l(6) =   2
     Q(r) pseudized with  6 coefficients,  rinner =    1.100   1.100   1.100
                                                       1.100   1.100

     PseudoPot. # 3 for O  read from file:
     /home/camp/zhonxu/pseudo/o_pbe_v1.01.uspp.F.UPF
     MD5 check sum: 2bcb18d16ea4b960afae9ec6d52f22d2
     Pseudo is Ultrasoft + core correction, Zval =  6.0
     Generated by new atomic code, or converted to UPF format
     Using radial grid of  737 points,  5 beta functions with: 
                l(1) =   0
                l(2) =   0
                l(3) =   1
                l(4) =   1
                l(5) =   2
     Q(r) pseudized with  8 coefficients,  rinner =    0.900   0.900   0.900
                                                       0.900   0.900

     atomic species   valence    mass     pseudopotential
        V0            13.00    50.94150     V ( 1.00)
        V1            13.00    50.94150     V ( 1.00)
        O2             6.00    15.99940     O ( 1.00)

     Starting magnetic structure 
     atomic species   magnetization
        V0           0.600
        V1           0.600
        O2           0.000


     Simplified LDA+U calculation (l_max = 2) with parameters (eV):
     atomic species    L          U    alpha       J0     beta
        V0             2     0.0000   0.1500   0.0000   0.0000
        V1             2     0.0000   0.0000   0.0000   0.0000
        O2             1     0.0000   0.0000   0.0000   0.0000



      8 Sym. Ops., with inversion, found



   Cartesian axes

     site n.     atom                  positions (alat units)
         1           V0  tau(   1) = (   0.0000000   0.0000000   0.0000000  )
         2           V1  tau(   2) = (   0.2500000   0.2500000   0.1553611  )
         3           V1  tau(   3) = (   0.0000000   0.0000000   0.3107221  )
         4           V1  tau(   4) = (   0.2500000   0.2500000   0.4660832  )
         5           V1  tau(   5) = (   0.0000000   0.5000000   0.0000000  )
         6           V1  tau(   6) = (   0.2500000   0.7500000   0.1553611  )
         7           V1  tau(   7) = (   0.0000000   0.5000000   0.3107221  )
         8           V1  tau(   8) = (   0.2500000   0.7500000   0.4660832  )
         9           V1  tau(   9) = (   0.5000000   0.0000000   0.0000000  )
        10           V1  tau(  10) = (   0.7500000   0.2500000   0.1553611  )
        11           V1  tau(  11) = (   0.5000000   0.0000000   0.3107221  )
        12           V1  tau(  12) = (   0.7500000   0.2500000   0.4660832  )
        13           V1  tau(  13) = (   0.5000000   0.5000000   0.0000000  )
        14           V1  tau(  14) = (   0.7500000   0.7500000   0.1553611  )
        15           V1  tau(  15) = (   0.5000000   0.5000000   0.3107221  )
        16           V1  tau(  16) = (   0.7500000   0.7500000   0.4660832  )
        17           O2  tau(  17) = (   0.1500000   0.1500000   0.0000000  )
        18           O2  tau(  18) = (  -0.1500000  -0.1500000   0.0000000  )
        19           O2  tau(  19) = (   0.4000000   0.1000000   0.1553611  )
        20           O2  tau(  20) = (   0.1000000   0.4000000   0.1553611  )
        21           O2  tau(  21) = (   0.1500000   0.1500000   0.3107221  )
        22           O2  tau(  22) = (  -0.1500000  -0.1500000   0.3107221  )
        23           O2  tau(  23) = (   0.4000000   0.1000000   0.4660832  )
        24           O2  tau(  24) = (   0.1000000   0.4000000   0.4660832  )
        25           O2  tau(  25) = (   0.1500000   0.6500000   0.0000000  )
        26           O2  tau(  26) = (  -0.1500000   0.3500000   0.0000000  )
        27           O2  tau(  27) = (   0.4000000   0.6000000   0.1553611  )
        28           O2  tau(  28) = (   0.1000000   0.9000000   0.1553611  )
        29           O2  tau(  29) = (   0.1500000   0.6500000   0.3107221  )
        30           O2  tau(  30) = (  -0.1500000   0.3500000   0.3107221  )
        31           O2  tau(  31) = (   0.4000000   0.6000000   0.4660832  )
        32           O2  tau(  32) = (   0.1000000   0.9000000   0.4660832  )
        33           O2  tau(  33) = (   0.6500000   0.1500000   0.0000000  )
        34           O2  tau(  34) = (   0.3500000  -0.1500000   0.0000000  )
        35           O2  tau(  35) = (   0.9000000   0.1000000   0.1553611  )
        36           O2  tau(  36) = (   0.6000000   0.4000000   0.1553611  )
        37           O2  tau(  37) = (   0.6500000   0.1500000   0.3107221  )
        38           O2  tau(  38) = (   0.3500000  -0.1500000   0.3107221  )
        39           O2  tau(  39) = (   0.9000000   0.1000000   0.4660832  )
        40           O2  tau(  40) = (   0.6000000   0.4000000   0.4660832  )
        41           O2  tau(  41) = (   0.6500000   0.6500000   0.0000000  )
        42           O2  tau(  42) = (   0.3500000   0.3500000   0.0000000  )
        43           O2  tau(  43) = (   0.9000000   0.6000000   0.1553611  )
        44           O2  tau(  44) = (   0.6000000   0.9000000   0.1553611  )
        45           O2  tau(  45) = (   0.6500000   0.6500000   0.3107221  )
        46           O2  tau(  46) = (   0.3500000   0.3500000   0.3107221  )
        47           O2  tau(  47) = (   0.9000000   0.6000000   0.4660832  )
        48           O2  tau(  48) = (   0.6000000   0.9000000   0.4660832  )

     number of k points=    42  Methfessel-Paxton smearing, width (Ry)=  0.0100
                       cart. coord. in units 2pi/alat
        k(    1) = (   0.0000000   0.0000000   0.0000000), wk =   0.0156250
        k(    2) = (   0.0000000   0.0000000   0.4022887), wk =   0.0312500
        k(    3) = (   0.0000000   0.0000000  -0.8045775), wk =   0.0156250
        k(    4) = (   0.0000000   0.2500000   0.0000000), wk =   0.0625000
        k(    5) = (   0.0000000   0.2500000   0.4022887), wk =   0.1250000
        k(    6) = (   0.0000000   0.2500000  -0.8045775), wk =   0.0625000
        k(    7) = (   0.0000000  -0.5000000   0.0000000), wk =   0.0312500
        k(    8) = (   0.0000000  -0.5000000   0.4022887), wk =   0.0625000
        k(    9) = (   0.0000000  -0.5000000  -0.8045775), wk =   0.0312500
        k(   10) = (   0.2500000   0.2500000   0.0000000), wk =   0.0312500
        k(   11) = (   0.2500000   0.2500000   0.4022887), wk =   0.0625000
        k(   12) = (   0.2500000   0.2500000  -0.8045775), wk =   0.0312500
        k(   13) = (   0.2500000  -0.5000000   0.0000000), wk =   0.0625000
        k(   14) = (   0.2500000  -0.5000000   0.4022887), wk =   0.1250000
        k(   15) = (   0.2500000  -0.5000000  -0.8045775), wk =   0.0625000
        k(   16) = (  -0.5000000  -0.5000000   0.0000000), wk =   0.0156250
        k(   17) = (  -0.5000000  -0.5000000   0.4022887), wk =   0.0312500
        k(   18) = (  -0.5000000  -0.5000000  -0.8045775), wk =   0.0156250
        k(   19) = (  -0.2500000   0.2500000   0.0000000), wk =   0.0312500
        k(   20) = (  -0.2500000   0.2500000  -0.4022887), wk =   0.0625000
        k(   21) = (  -0.2500000   0.2500000   0.8045775), wk =   0.0312500
        k(   22) = (   0.0000000   0.0000000   0.0000000), wk =   0.0156250
        k(   23) = (   0.0000000   0.0000000   0.4022887), wk =   0.0312500
        k(   24) = (   0.0000000   0.0000000  -0.8045775), wk =   0.0156250
        k(   25) = (   0.0000000   0.2500000   0.0000000), wk =   0.0625000
        k(   26) = (   0.0000000   0.2500000   0.4022887), wk =   0.1250000
        k(   27) = (   0.0000000   0.2500000  -0.8045775), wk =   0.0625000
        k(   28) = (   0.0000000  -0.5000000   0.0000000), wk =   0.0312500
        k(   29) = (   0.0000000  -0.5000000   0.4022887), wk =   0.0625000
        k(   30) = (   0.0000000  -0.5000000  -0.8045775), wk =   0.0312500
        k(   31) = (   0.2500000   0.2500000   0.0000000), wk =   0.0312500
        k(   32) = (   0.2500000   0.2500000   0.4022887), wk =   0.0625000
        k(   33) = (   0.2500000   0.2500000  -0.8045775), wk =   0.0312500
        k(   34) = (   0.2500000  -0.5000000   0.0000000), wk =   0.0625000
        k(   35) = (   0.2500000  -0.5000000   0.4022887), wk =   0.1250000
        k(   36) = (   0.2500000  -0.5000000  -0.8045775), wk =   0.0625000
        k(   37) = (  -0.5000000  -0.5000000   0.0000000), wk =   0.0156250
        k(   38) = (  -0.5000000  -0.5000000   0.4022887), wk =   0.0312500
        k(   39) = (  -0.5000000  -0.5000000  -0.8045775), wk =   0.0156250
        k(   40) = (  -0.2500000   0.2500000   0.0000000), wk =   0.0312500
        k(   41) = (  -0.2500000   0.2500000  -0.4022887), wk =   0.0625000
        k(   42) = (  -0.2500000   0.2500000   0.8045775), wk =   0.0312500

     Dense  grid:   604605 G-vectors     FFT dimensions: ( 125, 125,  80)

     Smooth grid:   109483 G-vectors     FFT dimensions: (  72,  72,  45)

     Largest allocated arrays     est. size (Mb)     dimensions
        Kohn-Sham Wavefunctions         7.90 Mb     (    863,  600)
        Atomic wavefunctions            3.79 Mb     (    863,  288)
        NL pseudopotentials             9.27 Mb     (    863,  704)
        Each V/rho on FFT grid          2.38 Mb     (  78125,   2)
        Each G-vector array             0.29 Mb     (  37788)
        G-vector shells                 0.11 Mb     (  13807)
     Largest temporary arrays     est. size (Mb)     dimensions
        Auxiliary wavefunctions        31.60 Mb     (    863, 2400)
        Each subspace H/S matrix       87.89 Mb     (2400,2400)
        Each <psi_i|beta_j> matrix      6.45 Mb     (    704,  600)
        Arrays for rho mixing           9.54 Mb     (  78125,   8)

     Check: negative/imaginary core charge=   -0.000013    0.000000

     The initial density is read from file :
     alpha_0.15/pwscf.save/charge-density.dat

     Number of +U iterations with fixed ns =  0
     Starting occupations:
 --- enter write_ns ---
 LDA+U parameters:
U( 1)     =  0.00000000
alpha( 1) =  0.15000000
U( 2)     =  0.00000000
alpha( 2) =  0.00000000
U( 3)     =  0.00000000
alpha( 3) =  0.00000000
atom    1   Tr[ns(na)] (up, down, total) =   2.77224  1.71819  4.49043
   spin  1
    eigenvalues: 
  0.494  0.516  0.570  0.592  0.601
    eigenvectors:
  0.703  0.000  0.000  0.297  0.000
  0.000  0.500  0.000  0.000  0.500
  0.000  0.500  0.000  0.000  0.500
  0.000  0.000  1.000  0.000  0.000
  0.297  0.000  0.000  0.703  0.000
    occupations:
  0.523 -0.000 -0.000 -0.000  0.045
 -0.000  0.558  0.042  0.000  0.000
 -0.000  0.042  0.558  0.000  0.000
 -0.000  0.000  0.000  0.570 -0.000
  0.045  0.000  0.000 -0.000  0.563
   spin  2
    eigenvalues: 
  0.242  0.271  0.275  0.454  0.476
    eigenvectors:
  0.700  0.000  0.000  0.300  0.000
  0.000  0.000  0.500  0.000  0.500
  0.000  0.000  0.500  0.000  0.500
  0.000  1.000  0.000  0.000  0.000
  0.300  0.000  0.000  0.700  0.000
    occupations:
  0.306 -0.000 -0.000  0.000 -0.097
 -0.000  0.376 -0.101  0.000  0.000
 -0.000 -0.101  0.376  0.000  0.000
  0.000  0.000  0.000  0.271 -0.000
 -0.097  0.000  0.000 -0.000  0.391
atomic mag. moment =     1.054044
atom    2   Tr[ns(na)] (up, down, total) =   2.77233  1.71820  4.49053
   spin  1
    eigenvalues: 
  0.494  0.516  0.570  0.592  0.601
    eigenvectors:
  0.703  0.000  0.000  0.297  0.000
  0.000  0.500  0.000  0.000  0.500
  0.000  0.500  0.000  0.000  0.500
  0.000  0.000  1.000  0.000  0.000
  0.297  0.000  0.000  0.703  0.000
    occupations:
  0.523  0.000  0.000 -0.000 -0.045
  0.000  0.559 -0.042  0.000  0.000
  0.000 -0.042  0.559 -0.000  0.000
 -0.000  0.000 -0.000  0.570 -0.000
 -0.045  0.000  0.000 -0.000  0.563
   spin  2
    eigenvalues: 
  0.242  0.271  0.275  0.454  0.476
    eigenvectors:
  0.700  0.000  0.000  0.300  0.000
  0.000  0.000  0.500  0.000  0.500
  0.000  0.000  0.500  0.000  0.500
  0.000  1.000  0.000  0.000  0.000
  0.300  0.000  0.000  0.700  0.000
    occupations:
  0.306 -0.000 -0.000 -0.000  0.097
 -0.000  0.376  0.101 -0.000 -0.000
 -0.000  0.101  0.376  0.000 -0.000
 -0.000 -0.000  0.000  0.271 -0.000
  0.097 -0.000 -0.000 -0.000  0.391
atomic mag. moment =     1.054124
atom    3   Tr[ns(na)] (up, down, total) =   2.77220  1.71819  4.49038
   spin  1
    eigenvalues: 
  0.494  0.516  0.570  0.592  0.601
    eigenvectors:
  0.703  0.000  0.000  0.297  0.000
  0.000  0.500  0.000  0.000  0.500
  0.000  0.500  0.000  0.000  0.500
  0.000  0.000  1.000  0.000  0.000
  0.297  0.000  0.000  0.703  0.000
    occupations:
  0.523 -0.000 -0.000 -0.000  0.045
 -0.000  0.558  0.042  0.000  0.000
 -0.000  0.042  0.558  0.000  0.000
 -0.000  0.000  0.000  0.570 -0.000
  0.045  0.000  0.000 -0.000  0.563
   spin  2
    eigenvalues: 
  0.242  0.271  0.275  0.454  0.476
    eigenvectors:
  0.700  0.000  0.000  0.300  0.000
  0.000  0.000  0.500  0.000  0.500
  0.000  0.000  0.500  0.000  0.500
  0.000  1.000  0.000  0.000  0.000
  0.300  0.000  0.000  0.700  0.000
    occupations:
  0.306 -0.000 -0.000  0.000 -0.097
 -0.000  0.376 -0.101  0.000  0.000
 -0.000 -0.101  0.376  0.000  0.000
  0.000  0.000  0.000  0.271 -0.000
 -0.097  0.000  0.000 -0.000  0.391
atomic mag. moment =     1.054011
atom    4   Tr[ns(na)] (up, down, total) =   2.77233  1.71820  4.49053
   spin  1
    eigenvalues: 
  0.494  0.516  0.570  0.592  0.601
    eigenvectors:
  0.703  0.000  0.000  0.297  0.000
  0.000  0.500  0.000  0.000  0.500
  0.000  0.500  0.000  0.000  0.500
  0.000  0.000  1.000  0.000  0.000
  0.297  0.000  0.000  0.703  0.000
    occupations:
  0.523 -0.000 -0.000 -0.000 -0.045
 -0.000  0.559 -0.042 -0.000 -0.000
 -0.000 -0.042  0.559  0.000 -0.000
 -0.000 -0.000  0.000  0.570 -0.000
 -0.045 -0.000 -0.000 -0.000  0.563
   spin  2
    eigenvalues: 
  0.242  0.271  0.275  0.454  0.476
    eigenvectors:
  0.700  0.000  0.000  0.300  0.000
  0.000  0.000  0.500  0.000  0.500
  0.000  0.000  0.500  0.000  0.500
  0.000  1.000  0.000  0.000  0.000
  0.300  0.000  0.000  0.700  0.000
    occupations:
  0.306  0.000  0.000 -0.000  0.097
  0.000  0.376  0.101  0.000  0.000
  0.000  0.101  0.376 -0.000  0.000
 -0.000  0.000 -0.000  0.271 -0.000
  0.097  0.000  0.000 -0.000  0.391
atomic mag. moment =     1.054124
atom    5   Tr[ns(na)] (up, down, total) =   2.77248  1.71820  4.49068
   spin  1
    eigenvalues: 
  0.494  0.516  0.570  0.592  0.601
    eigenvectors:
  0.703  0.000  0.000  0.297  0.000
  0.000  0.500  0.000  0.000  0.500
  0.000  0.500  0.000  0.000  0.500
  0.000  0.000  1.000  0.000  0.000
  0.297  0.000  0.000  0.703  0.000
    occupations:
  0.523 -0.000 -0.000  0.000  0.045
 -0.000  0.559  0.042  0.000  0.000
 -0.000  0.042  0.559  0.000  0.000
  0.000  0.000  0.000  0.570  0.000
  0.045  0.000  0.000  0.000  0.563
   spin  2
    eigenvalues: 
  0.242  0.271  0.275  0.454  0.476
    eigenvectors:
  0.700  0.000  0.000  0.300  0.000
  0.000  0.000  0.500  0.000  0.500
  0.000  0.000  0.500  0.000  0.500
  0.000  1.000  0.000  0.000  0.000
  0.300  0.000  0.000  0.700  0.000
    occupations:
  0.306 -0.000 -0.000 -0.000 -0.097
 -0.000  0.376 -0.101  0.000  0.000
 -0.000 -0.101  0.376  0.000  0.000
 -0.000  0.000  0.000  0.271 -0.000
 -0.097  0.000  0.000 -0.000  0.391
atomic mag. moment =     1.054271
atom    6   Tr[ns(na)] (up, down, total) =   2.77232  1.71819  4.49051
   spin  1
    eigenvalues: 
  0.494  0.516  0.570  0.592  0.601
    eigenvectors:
  0.703  0.000  0.000  0.297  0.000
  0.000  0.500  0.000  0.000  0.500
  0.000  0.500  0.000  0.000  0.500
  0.000  0.000  1.000  0.000  0.000
  0.297  0.000  0.000  0.703  0.000
    occupations:
  0.523 -0.000  0.000 -0.000 -0.045
 -0.000  0.558 -0.042  0.000 -0.000
  0.000 -0.042  0.558  0.000  0.000
 -0.000  0.000  0.000  0.570 -0.000
 -0.045 -0.000  0.000 -0.000  0.563
   spin  2
    eigenvalues: 
  0.242  0.271  0.275  0.454  0.476
    eigenvectors:
  0.700  0.000  0.000  0.300  0.000
  0.000  0.000  0.500  0.000  0.500
  0.000  0.000  0.500  0.000  0.500
  0.000  1.000  0.000  0.000  0.000
  0.300  0.000  0.000  0.700  0.000
    occupations:
  0.306 -0.000  0.000 -0.000  0.097
 -0.000  0.376  0.101  0.000 -0.000
  0.000  0.101  0.376  0.000  0.000
 -0.000  0.000  0.000  0.271 -0.000
  0.097 -0.000  0.000 -0.000  0.391
atomic mag. moment =     1.054135
atom    7   Tr[ns(na)] (up, down, total) =   2.77268  1.71824  4.49092
   spin  1
    eigenvalues: 
  0.494  0.516  0.570  0.592  0.601
    eigenvectors:
  0.703  0.000  0.000  0.297  0.000
  0.000  0.500  0.000  0.000  0.500
  0.000  0.500  0.000  0.000  0.500
  0.000  0.000  1.000  0.000  0.000
  0.297  0.000  0.000  0.703  0.000
    occupations:
  0.523 -0.000 -0.000  0.000  0.045
 -0.000  0.559  0.042  0.000  0.000
 -0.000  0.042  0.559  0.000  0.000
  0.000  0.000  0.000  0.570  0.000
  0.045  0.000  0.000  0.000  0.563
   spin  2
    eigenvalues: 
  0.242  0.271  0.275  0.454  0.476
    eigenvectors:
  0.700  0.000  0.000  0.300  0.000
  0.000  0.000  0.500  0.000  0.500
  0.000  0.000  0.500  0.000  0.500
  0.000  1.000  0.000  0.000  0.000
  0.300  0.000  0.000  0.700  0.000
    occupations:
  0.306 -0.000 -0.000 -0.000 -0.097
 -0.000  0.376 -0.101  0.000  0.000
 -0.000 -0.101  0.376  0.000  0.000
 -0.000  0.000  0.000  0.271 -0.000
 -0.097  0.000  0.000 -0.000  0.391
atomic mag. moment =     1.054444
atom    8   Tr[ns(na)] (up, down, total) =   2.77232  1.71819  4.49051
   spin  1
    eigenvalues: 
  0.494  0.516  0.570  0.592  0.601
    eigenvectors:
  0.703  0.000  0.000  0.297  0.000
  0.000  0.500  0.000  0.000  0.500
  0.000  0.500  0.000  0.000  0.500
  0.000  0.000  1.000  0.000  0.000
  0.297  0.000  0.000  0.703  0.000
    occupations:
  0.523  0.000 -0.000 -0.000 -0.045
  0.000  0.558 -0.042 -0.000  0.000
 -0.000 -0.042  0.558 -0.000 -0.000
 -0.000 -0.000 -0.000  0.570 -0.000
 -0.045  0.000 -0.000 -0.000  0.563
   spin  2
    eigenvalues: 
  0.242  0.271  0.275  0.454  0.476
    eigenvectors:
  0.700  0.000  0.000  0.300  0.000
  0.000  0.000  0.500  0.000  0.500
  0.000  0.000  0.500  0.000  0.500
  0.000  1.000  0.000  0.000  0.000
  0.300  0.000  0.000  0.700  0.000
    occupations:
  0.306  0.000 -0.000 -0.000  0.097
  0.000  0.376  0.101 -0.000  0.000
 -0.000  0.101  0.376 -0.000 -0.000
 -0.000 -0.000 -0.000  0.271 -0.000
  0.097  0.000 -0.000 -0.000  0.391
atomic mag. moment =     1.054135
atom    9   Tr[ns(na)] (up, down, total) =   2.77248  1.71820  4.49068
   spin  1
    eigenvalues: 
  0.494  0.516  0.570  0.592  0.601
    eigenvectors:
  0.703  0.000  0.000  0.297  0.000
  0.000  0.500  0.000  0.000  0.500
  0.000  0.500  0.000  0.000  0.500
  0.000  0.000  1.000  0.000  0.000
  0.297  0.000  0.000  0.703  0.000
    occupations:
  0.523 -0.000 -0.000 -0.000  0.045
 -0.000  0.559  0.042  0.000  0.000
 -0.000  0.042  0.559  0.000  0.000
 -0.000  0.000  0.000  0.570 -0.000
  0.045  0.000  0.000 -0.000  0.563
   spin  2
    eigenvalues: 
  0.242  0.271  0.275  0.454  0.476
    eigenvectors:
  0.700  0.000  0.000  0.300  0.000
  0.000  0.000  0.500  0.000  0.500
  0.000  0.000  0.500  0.000  0.500
  0.000  1.000  0.000  0.000  0.000
  0.300  0.000  0.000  0.700  0.000
    occupations:
  0.306 -0.000 -0.000  0.000 -0.097
 -0.000  0.376 -0.101  0.000  0.000
 -0.000 -0.101  0.376  0.000  0.000
  0.000  0.000  0.000  0.271  0.000
 -0.097  0.000  0.000  0.000  0.391
atomic mag. moment =     1.054271
atom   10   Tr[ns(na)] (up, down, total) =   2.77232  1.71819  4.49051
   spin  1
    eigenvalues: 
  0.494  0.516  0.570  0.592  0.601
    eigenvectors:
  0.703  0.000  0.000  0.297  0.000
  0.000  0.500  0.000  0.000  0.500
  0.000  0.500  0.000  0.000  0.500
  0.000  0.000  1.000  0.000  0.000
  0.297  0.000  0.000  0.703  0.000
    occupations:
  0.523  0.000 -0.000 -0.000 -0.045
  0.000  0.558 -0.042 -0.000  0.000
 -0.000 -0.042  0.558 -0.000 -0.000
 -0.000 -0.000 -0.000  0.570 -0.000
 -0.045  0.000 -0.000 -0.000  0.563
   spin  2
    eigenvalues: 
  0.242  0.271  0.275  0.454  0.476
    eigenvectors:
  0.700  0.000  0.000  0.300  0.000
  0.000  0.000  0.500  0.000  0.500
  0.000  0.000  0.500  0.000  0.500
  0.000  1.000  0.000  0.000  0.000
  0.300  0.000  0.000  0.700  0.000
    occupations:
  0.306  0.000 -0.000 -0.000  0.097
  0.000  0.376  0.101 -0.000  0.000
 -0.000  0.101  0.376 -0.000 -0.000
 -0.000 -0.000 -0.000  0.271 -0.000
  0.097  0.000 -0.000 -0.000  0.391
atomic mag. moment =     1.054135
atom   11   Tr[ns(na)] (up, down, total) =   2.77268  1.71824  4.49092
   spin  1
    eigenvalues: 
  0.494  0.516  0.570  0.592  0.601
    eigenvectors:
  0.703  0.000  0.000  0.297  0.000
  0.000  0.500  0.000  0.000  0.500
  0.000  0.500  0.000  0.000  0.500
  0.000  0.000  1.000  0.000  0.000
  0.297  0.000  0.000  0.703  0.000
    occupations:
  0.523 -0.000 -0.000 -0.000  0.045
 -0.000  0.559  0.042  0.000  0.000
 -0.000  0.042  0.559  0.000  0.000
 -0.000  0.000  0.000  0.570 -0.000
  0.045  0.000  0.000 -0.000  0.563
   spin  2
    eigenvalues: 
  0.242  0.271  0.275  0.454  0.476
    eigenvectors:
  0.700  0.000  0.000  0.300  0.000
  0.000  0.000  0.500  0.000  0.500
  0.000  0.000  0.500  0.000  0.500
  0.000  1.000  0.000  0.000  0.000
  0.300  0.000  0.000  0.700  0.000
    occupations:
  0.306 -0.000 -0.000  0.000 -0.097
 -0.000  0.376 -0.101  0.000  0.000
 -0.000 -0.101  0.376  0.000  0.000
  0.000  0.000  0.000  0.271  0.000
 -0.097  0.000  0.000  0.000  0.391
atomic mag. moment =     1.054444
atom   12   Tr[ns(na)] (up, down, total) =   2.77232  1.71819  4.49051
   spin  1
    eigenvalues: 
  0.494  0.516  0.570  0.592  0.601
    eigenvectors:
  0.703  0.000  0.000  0.297  0.000
  0.000  0.500  0.000  0.000  0.500
  0.000  0.500  0.000  0.000  0.500
  0.000  0.000  1.000  0.000  0.000
  0.297  0.000  0.000  0.703  0.000
    occupations:
  0.523 -0.000  0.000 -0.000 -0.045
 -0.000  0.558 -0.042  0.000 -0.000
  0.000 -0.042  0.558  0.000  0.000
 -0.000  0.000  0.000  0.570 -0.000
 -0.045 -0.000  0.000 -0.000  0.563
   spin  2
    eigenvalues: 
  0.242  0.271  0.275  0.454  0.476
    eigenvectors:
  0.700  0.000  0.000  0.300  0.000
  0.000  0.000  0.500  0.000  0.500
  0.000  0.000  0.500  0.000  0.500
  0.000  1.000  0.000  0.000  0.000
  0.300  0.000  0.000  0.700  0.000
    occupations:
  0.306 -0.000  0.000 -0.000  0.097
 -0.000  0.376  0.101  0.000 -0.000
  0.000  0.101  0.376  0.000  0.000
 -0.000  0.000  0.000  0.271 -0.000
  0.097 -0.000  0.000 -0.000  0.391
atomic mag. moment =     1.054135
atom   13   Tr[ns(na)] (up, down, total) =   2.77259  1.71824  4.49083
   spin  1
    eigenvalues: 
  0.494  0.516  0.570  0.592  0.601
    eigenvectors:
  0.703  0.000  0.000  0.297  0.000
  0.000  0.500  0.000  0.000  0.500
  0.000  0.500  0.000  0.000  0.500
  0.000  0.000  1.000  0.000  0.000
  0.297  0.000  0.000  0.703  0.000
    occupations:
  0.523 -0.000 -0.000 -0.000  0.045
 -0.000  0.559  0.042  0.000  0.000
 -0.000  0.042  0.559  0.000  0.000
 -0.000  0.000  0.000  0.570 -0.000
  0.045  0.000  0.000 -0.000  0.563
   spin  2
    eigenvalues: 
  0.242  0.271  0.275  0.454  0.476
    eigenvectors:
  0.700  0.000  0.000  0.300  0.000
  0.000  0.000  0.500  0.000  0.500
  0.000  0.000  0.500  0.000  0.500
  0.000  1.000  0.000  0.000  0.000
  0.300  0.000  0.000  0.700  0.000
    occupations:
  0.306 -0.000 -0.000  0.000 -0.097
 -0.000  0.376 -0.101  0.000  0.000
 -0.000 -0.101  0.376  0.000  0.000
  0.000  0.000  0.000  0.271 -0.000
 -0.097  0.000  0.000 -0.000  0.391
atomic mag. moment =     1.054343
atom   14   Tr[ns(na)] (up, down, total) =   2.77233  1.71820  4.49053
   spin  1
    eigenvalues: 
  0.494  0.516  0.570  0.592  0.601
    eigenvectors:
  0.703  0.000  0.000  0.297  0.000
  0.000  0.500  0.000  0.000  0.500
  0.000  0.500  0.000  0.000  0.500
  0.000  0.000  1.000  0.000  0.000
  0.297  0.000  0.000  0.703  0.000
    occupations:
  0.523 -0.000 -0.000 -0.000 -0.045
 -0.000  0.559 -0.042 -0.000 -0.000
 -0.000 -0.042  0.559  0.000 -0.000
 -0.000 -0.000  0.000  0.570 -0.000
 -0.045 -0.000 -0.000 -0.000  0.563
   spin  2
    eigenvalues: 
  0.242  0.271  0.275  0.454  0.476
    eigenvectors:
  0.700  0.000  0.000  0.300  0.000
  0.000  0.000  0.500  0.000  0.500
  0.000  0.000  0.500  0.000  0.500
  0.000  1.000  0.000  0.000  0.000
  0.300  0.000  0.000  0.700  0.000
    occupations:
  0.306  0.000  0.000 -0.000  0.097
  0.000  0.376  0.101  0.000  0.000
  0.000  0.101  0.376 -0.000  0.000
 -0.000  0.000 -0.000  0.271 -0.000
  0.097  0.000  0.000 -0.000  0.391
atomic mag. moment =     1.054124
atom   15   Tr[ns(na)] (up, down, total) =   2.77223  1.71819  4.49042
   spin  1
    eigenvalues: 
  0.494  0.516  0.570  0.592  0.601
    eigenvectors:
  0.703  0.000  0.000  0.297  0.000
  0.000  0.500  0.000  0.000  0.500
  0.000  0.500  0.000  0.000  0.500
  0.000  0.000  1.000  0.000  0.000
  0.297  0.000  0.000  0.703  0.000
    occupations:
  0.523 -0.000 -0.000 -0.000  0.045
 -0.000  0.558  0.042  0.000  0.000
 -0.000  0.042  0.558  0.000  0.000
 -0.000  0.000  0.000  0.570 -0.000
  0.045  0.000  0.000 -0.000  0.563
   spin  2
    eigenvalues: 
  0.242  0.271  0.275  0.454  0.476
    eigenvectors:
  0.700  0.000  0.000  0.300  0.000
  0.000  0.000  0.500  0.000  0.500
  0.000  0.000  0.500  0.000  0.500
  0.000  1.000  0.000  0.000  0.000
  0.300  0.000  0.000  0.700  0.000
    occupations:
  0.306 -0.000 -0.000  0.000 -0.097
 -0.000  0.376 -0.101  0.000  0.000
 -0.000 -0.101  0.376  0.000  0.000
  0.000  0.000  0.000  0.271 -0.000
 -0.097  0.000  0.000 -0.000  0.391
atomic mag. moment =     1.054041
atom   16   Tr[ns(na)] (up, down, total) =   2.77233  1.71820  4.49053
   spin  1
    eigenvalues: 
  0.494  0.516  0.570  0.592  0.601
    eigenvectors:
  0.703  0.000  0.000  0.297  0.000
  0.000  0.500  0.000  0.000  0.500
  0.000  0.500  0.000  0.000  0.500
  0.000  0.000  1.000  0.000  0.000
  0.297  0.000  0.000  0.703  0.000
    occupations:
  0.523  0.000  0.000 -0.000 -0.045
  0.000  0.559 -0.042  0.000  0.000
  0.000 -0.042  0.559 -0.000  0.000
 -0.000  0.000 -0.000  0.570 -0.000
 -0.045  0.000  0.000 -0.000  0.563
   spin  2
    eigenvalues: 
  0.242  0.271  0.275  0.454  0.476
    eigenvectors:
  0.700  0.000  0.000  0.300  0.000
  0.000  0.000  0.500  0.000  0.500
  0.000  0.000  0.500  0.000  0.500
  0.000  1.000  0.000  0.000  0.000
  0.300  0.000  0.000  0.700  0.000
    occupations:
  0.306 -0.000 -0.000 -0.000  0.097
 -0.000  0.376  0.101 -0.000 -0.000
 -0.000  0.101  0.376  0.000 -0.000
 -0.000 -0.000  0.000  0.271 -0.000
  0.097 -0.000 -0.000 -0.000  0.391
atomic mag. moment =     1.054124
atom   17   Tr[ns(na)] (up, down, total) =   2.65229  2.71188  5.36417
   spin  1
    eigenvalues: 
  0.877  0.887  0.888
    eigenvectors:
  0.000  1.000  0.000
  0.500  0.000  0.500
  0.500  0.000  0.500
    occupations:
  0.887 -0.000 -0.000
 -0.000  0.883  0.006
 -0.000  0.006  0.883
   spin  2
    eigenvalues: 
  0.894  0.907  0.911
    eigenvectors:
  0.000  1.000  0.000
  0.500  0.000  0.500
  0.500  0.000  0.500
    occupations:
  0.907 -0.000 -0.000
 -0.000  0.903 -0.008
 -0.000 -0.008  0.903
atomic mag. moment =    -0.059583
atom   18   Tr[ns(na)] (up, down, total) =   2.65229  2.71188  5.36417
   spin  1
    eigenvalues: 
  0.877  0.887  0.888
    eigenvectors:
  0.000  1.000  0.000
  0.500  0.000  0.500
  0.500  0.000  0.500
    occupations:
  0.887 -0.000 -0.000
 -0.000  0.883  0.006
 -0.000  0.006  0.883
   spin  2
    eigenvalues: 
  0.894  0.907  0.911
    eigenvectors:
  0.000  1.000  0.000
  0.500  0.000  0.500
  0.500  0.000  0.500
    occupations:
  0.907 -0.000 -0.000
 -0.000  0.903 -0.008
 -0.000 -0.008  0.903
atomic mag. moment =    -0.059583
atom   19   Tr[ns(na)] (up, down, total) =   2.65232  2.71189  5.36421
   spin  1
    eigenvalues: 
  0.877  0.887  0.888
    eigenvectors:
  0.000  1.000  0.000
  0.500  0.000  0.500
  0.500  0.000  0.500
    occupations:
  0.887  0.000 -0.000
  0.000  0.883 -0.006
 -0.000 -0.006  0.883
   spin  2
    eigenvalues: 
  0.894  0.907  0.911
    eigenvectors:
  0.000  1.000  0.000
  0.500  0.000  0.500
  0.500  0.000  0.500
    occupations:
  0.907  0.000 -0.000
  0.000  0.903  0.008
 -0.000  0.008  0.903
atomic mag. moment =    -0.059565
atom   20   Tr[ns(na)] (up, down, total) =   2.65232  2.71189  5.36421
   spin  1
    eigenvalues: 
  0.877  0.887  0.888
    eigenvectors:
  0.000  1.000  0.000
  0.500  0.000  0.500
  0.500  0.000  0.500
    occupations:
  0.887 -0.000  0.000
 -0.000  0.883 -0.006
  0.000 -0.006  0.883
   spin  2
    eigenvalues: 
  0.894  0.907  0.911
    eigenvectors:
  0.000  1.000  0.000
  0.500  0.000  0.500
  0.500  0.000  0.500
    occupations:
  0.907 -0.000  0.000
 -0.000  0.903  0.008
  0.000  0.008  0.903
atomic mag. moment =    -0.059565
atom   21   Tr[ns(na)] (up, down, total) =   2.65230  2.71188  5.36417
   spin  1
    eigenvalues: 
  0.877  0.887  0.888
    eigenvectors:
  0.000  1.000  0.000
  0.500  0.000  0.500
  0.500  0.000  0.500
    occupations:
  0.887 -0.000 -0.000
 -0.000  0.883  0.006
 -0.000  0.006  0.883
   spin  2
    eigenvalues: 
  0.894  0.907  0.911
    eigenvectors:
  0.000  1.000  0.000
  0.500  0.000  0.500
  0.500  0.000  0.500
    occupations:
  0.907 -0.000 -0.000
 -0.000  0.903 -0.008
 -0.000 -0.008  0.903
atomic mag. moment =    -0.059582
atom   22   Tr[ns(na)] (up, down, total) =   2.65230  2.71188  5.36417
   spin  1
    eigenvalues: 
  0.877  0.887  0.888
    eigenvectors:
  0.000  1.000  0.000
  0.500  0.000  0.500
  0.500  0.000  0.500
    occupations:
  0.887 -0.000 -0.000
 -0.000  0.883  0.006
 -0.000  0.006  0.883
   spin  2
    eigenvalues: 
  0.894  0.907  0.911
    eigenvectors:
  0.000  1.000  0.000
  0.500  0.000  0.500
  0.500  0.000  0.500
    occupations:
  0.907 -0.000 -0.000
 -0.000  0.903 -0.008
 -0.000 -0.008  0.903
atomic mag. moment =    -0.059582
atom   23   Tr[ns(na)] (up, down, total) =   2.65232  2.71189  5.36421
   spin  1
    eigenvalues: 
  0.877  0.887  0.888
    eigenvectors:
  0.000  1.000  0.000
  0.500  0.000  0.500
  0.500  0.000  0.500
    occupations:
  0.887 -0.000  0.000
 -0.000  0.883 -0.006
  0.000 -0.006  0.883
   spin  2
    eigenvalues: 
  0.894  0.907  0.911
    eigenvectors:
  0.000  1.000  0.000
  0.500  0.000  0.500
  0.500  0.000  0.500
    occupations:
  0.907 -0.000  0.000
 -0.000  0.903  0.008
  0.000  0.008  0.903
atomic mag. moment =    -0.059565
atom   24   Tr[ns(na)] (up, down, total) =   2.65232  2.71189  5.36421
   spin  1
    eigenvalues: 
  0.877  0.887  0.888
    eigenvectors:
  0.000  1.000  0.000
  0.500  0.000  0.500
  0.500  0.000  0.500
    occupations:
  0.887  0.000 -0.000
  0.000  0.883 -0.006
 -0.000 -0.006  0.883
   spin  2
    eigenvalues: 
  0.894  0.907  0.911
    eigenvectors:
  0.000  1.000  0.000
  0.500  0.000  0.500
  0.500  0.000  0.500
    occupations:
  0.907  0.000 -0.000
  0.000  0.903  0.008
 -0.000  0.008  0.903
atomic mag. moment =    -0.059565
atom   25   Tr[ns(na)] (up, down, total) =   2.65232  2.71190  5.36422
   spin  1
    eigenvalues: 
  0.877  0.887  0.888
    eigenvectors:
  0.000  1.000  0.000
  0.500  0.000  0.500
  0.500  0.000  0.500
    occupations:
  0.887 -0.000 -0.000
 -0.000  0.883  0.006
 -0.000  0.006  0.883
   spin  2
    eigenvalues: 
  0.894  0.907  0.911
    eigenvectors:
  0.000  1.000  0.000
  0.500  0.000  0.500
  0.500  0.000  0.500
    occupations:
  0.907 -0.000 -0.000
 -0.000  0.903 -0.008
 -0.000 -0.008  0.903
atomic mag. moment =    -0.059574
atom   26   Tr[ns(na)] (up, down, total) =   2.65232  2.71190  5.36422
   spin  1
    eigenvalues: 
  0.877  0.887  0.888
    eigenvectors:
  0.000  1.000  0.000
  0.500  0.000  0.500
  0.500  0.000  0.500
    occupations:
  0.887 -0.000 -0.000
 -0.000  0.883  0.006
 -0.000  0.006  0.883
   spin  2
    eigenvalues: 
  0.894  0.907  0.911
    eigenvectors:
  0.000  1.000  0.000
  0.500  0.000  0.500
  0.500  0.000  0.500
    occupations:
  0.907 -0.000 -0.000
 -0.000  0.903 -0.008
 -0.000 -0.008  0.903
atomic mag. moment =    -0.059574
atom   27   Tr[ns(na)] (up, down, total) =   2.65230  2.71188  5.36418
   spin  1
    eigenvalues: 
  0.877  0.887  0.888
    eigenvectors:
  0.000  1.000  0.000
  0.500  0.000  0.500
  0.500  0.000  0.500
    occupations:
  0.887 -0.000  0.000
 -0.000  0.883 -0.006
  0.000 -0.006  0.883
   spin  2
    eigenvalues: 
  0.894  0.907  0.911
    eigenvectors:
  0.000  1.000  0.000
  0.500  0.000  0.500
  0.500  0.000  0.500
    occupations:
  0.907 -0.000  0.000
 -0.000  0.903  0.008
  0.000  0.008  0.903
atomic mag. moment =    -0.059581
atom   28   Tr[ns(na)] (up, down, total) =   2.65230  2.71189  5.36419
   spin  1
    eigenvalues: 
  0.877  0.887  0.888
    eigenvectors:
  0.000  1.000  0.000
  0.500  0.000  0.500
  0.500  0.000  0.500
    occupations:
  0.887  0.000 -0.000
  0.000  0.883 -0.006
 -0.000 -0.006  0.883
   spin  2
    eigenvalues: 
  0.894  0.907  0.911
    eigenvectors:
  0.000  1.000  0.000
  0.500  0.000  0.500
  0.500  0.000  0.500
    occupations:
  0.907  0.000 -0.000
  0.000  0.903  0.008
 -0.000  0.008  0.903
atomic mag. moment =    -0.059590
atom   29   Tr[ns(na)] (up, down, total) =   2.65232  2.71189  5.36421
   spin  1
    eigenvalues: 
  0.877  0.887  0.888
    eigenvectors:
  0.000  1.000  0.000
  0.500  0.000  0.500
  0.500  0.000  0.500
    occupations:
  0.887 -0.000 -0.000
 -0.000  0.883  0.006
 -0.000  0.006  0.883
   spin  2
    eigenvalues: 
  0.894  0.907  0.911
    eigenvectors:
  0.000  1.000  0.000
  0.500  0.000  0.500
  0.500  0.000  0.500
    occupations:
  0.907 -0.000 -0.000
 -0.000  0.903 -0.008
 -0.000 -0.008  0.903
atomic mag. moment =    -0.059575
atom   30   Tr[ns(na)] (up, down, total) =   2.65232  2.71189  5.36421
   spin  1
    eigenvalues: 
  0.877  0.887  0.888
    eigenvectors:
  0.000  1.000  0.000
  0.500  0.000  0.500
  0.500  0.000  0.500
    occupations:
  0.887 -0.000 -0.000
 -0.000  0.883  0.006
 -0.000  0.006  0.883
   spin  2
    eigenvalues: 
  0.894  0.907  0.911
    eigenvectors:
  0.000  1.000  0.000
  0.500  0.000  0.500
  0.500  0.000  0.500
    occupations:
  0.907 -0.000 -0.000
 -0.000  0.903 -0.008
 -0.000 -0.008  0.903
atomic mag. moment =    -0.059575
atom   31   Tr[ns(na)] (up, down, total) =   2.65230  2.71188  5.36418
   spin  1
    eigenvalues: 
  0.877  0.887  0.888
    eigenvectors:
  0.000  1.000  0.000
  0.500  0.000  0.500
  0.500  0.000  0.500
    occupations:
  0.887  0.000 -0.000
  0.000  0.883 -0.006
 -0.000 -0.006  0.883
   spin  2
    eigenvalues: 
  0.894  0.907  0.911
    eigenvectors:
  0.000  1.000  0.000
  0.500  0.000  0.500
  0.500  0.000  0.500
    occupations:
  0.907  0.000 -0.000
  0.000  0.903  0.008
 -0.000  0.008  0.903
atomic mag. moment =    -0.059581
atom   32   Tr[ns(na)] (up, down, total) =   2.65230  2.71189  5.36419
   spin  1
    eigenvalues: 
  0.877  0.887  0.888
    eigenvectors:
  0.000  1.000  0.000
  0.500  0.000  0.500
  0.500  0.000  0.500
    occupations:
  0.887 -0.000  0.000
 -0.000  0.883 -0.006
  0.000 -0.006  0.883
   spin  2
    eigenvalues: 
  0.894  0.907  0.911
    eigenvectors:
  0.000  1.000  0.000
  0.500  0.000  0.500
  0.500  0.000  0.500
    occupations:
  0.907 -0.000  0.000
 -0.000  0.903  0.008
  0.000  0.008  0.903
atomic mag. moment =    -0.059590
atom   33   Tr[ns(na)] (up, down, total) =   2.65232  2.71190  5.36422
   spin  1
    eigenvalues: 
  0.877  0.887  0.888
    eigenvectors:
  0.000  1.000  0.000
  0.500  0.000  0.500
  0.500  0.000  0.500
    occupations:
  0.887 -0.000 -0.000
 -0.000  0.883  0.006
 -0.000  0.006  0.883
   spin  2
    eigenvalues: 
  0.894  0.907  0.911
    eigenvectors:
  0.000  1.000  0.000
  0.500  0.000  0.500
  0.500  0.000  0.500
    occupations:
  0.907 -0.000 -0.000
 -0.000  0.903 -0.008
 -0.000 -0.008  0.903
atomic mag. moment =    -0.059574
atom   34   Tr[ns(na)] (up, down, total) =   2.65232  2.71190  5.36422
   spin  1
    eigenvalues: 
  0.877  0.887  0.888
    eigenvectors:
  0.000  1.000  0.000
  0.500  0.000  0.500
  0.500  0.000  0.500
    occupations:
  0.887 -0.000 -0.000
 -0.000  0.883  0.006
 -0.000  0.006  0.883
   spin  2
    eigenvalues: 
  0.894  0.907  0.911
    eigenvectors:
  0.000  1.000  0.000
  0.500  0.000  0.500
  0.500  0.000  0.500
    occupations:
  0.907 -0.000 -0.000
 -0.000  0.903 -0.008
 -0.000 -0.008  0.903
atomic mag. moment =    -0.059574
atom   35   Tr[ns(na)] (up, down, total) =   2.65230  2.71189  5.36419
   spin  1
    eigenvalues: 
  0.877  0.887  0.888
    eigenvectors:
  0.000  1.000  0.000
  0.500  0.000  0.500
  0.500  0.000  0.500
    occupations:
  0.887 -0.000  0.000
 -0.000  0.883 -0.006
  0.000 -0.006  0.883
   spin  2
    eigenvalues: 
  0.894  0.907  0.911
    eigenvectors:
  0.000  1.000  0.000
  0.500  0.000  0.500
  0.500  0.000  0.500
    occupations:
  0.907 -0.000  0.000
 -0.000  0.903  0.008
  0.000  0.008  0.903
atomic mag. moment =    -0.059590
atom   36   Tr[ns(na)] (up, down, total) =   2.65230  2.71188  5.36418
   spin  1
    eigenvalues: 
  0.877  0.887  0.888
    eigenvectors:
  0.000  1.000  0.000
  0.500  0.000  0.500
  0.500  0.000  0.500
    occupations:
  0.887  0.000 -0.000
  0.000  0.883 -0.006
 -0.000 -0.006  0.883
   spin  2
    eigenvalues: 
  0.894  0.907  0.911
    eigenvectors:
  0.000  1.000  0.000
  0.500  0.000  0.500
  0.500  0.000  0.500
    occupations:
  0.907  0.000 -0.000
  0.000  0.903  0.008
 -0.000  0.008  0.903
atomic mag. moment =    -0.059581
atom   37   Tr[ns(na)] (up, down, total) =   2.65232  2.71189  5.36421
   spin  1
    eigenvalues: 
  0.877  0.887  0.888
    eigenvectors:
  0.000  1.000  0.000
  0.500  0.000  0.500
  0.500  0.000  0.500
    occupations:
  0.887 -0.000 -0.000
 -0.000  0.883  0.006
 -0.000  0.006  0.883
   spin  2
    eigenvalues: 
  0.894  0.907  0.911
    eigenvectors:
  0.000  1.000  0.000
  0.500  0.000  0.500
  0.500  0.000  0.500
    occupations:
  0.907 -0.000 -0.000
 -0.000  0.903 -0.008
 -0.000 -0.008  0.903
atomic mag. moment =    -0.059575
atom   38   Tr[ns(na)] (up, down, total) =   2.65232  2.71189  5.36421
   spin  1
    eigenvalues: 
  0.877  0.887  0.888
    eigenvectors:
  0.000  1.000  0.000
  0.500  0.000  0.500
  0.500  0.000  0.500
    occupations:
  0.887 -0.000 -0.000
 -0.000  0.883  0.006
 -0.000  0.006  0.883
   spin  2
    eigenvalues: 
  0.894  0.907  0.911
    eigenvectors:
  0.000  1.000  0.000
  0.500  0.000  0.500
  0.500  0.000  0.500
    occupations:
  0.907 -0.000 -0.000
 -0.000  0.903 -0.008
 -0.000 -0.008  0.903
atomic mag. moment =    -0.059575
atom   39   Tr[ns(na)] (up, down, total) =   2.65230  2.71189  5.36419
   spin  1
    eigenvalues: 
  0.877  0.887  0.888
    eigenvectors:
  0.000  1.000  0.000
  0.500  0.000  0.500
  0.500  0.000  0.500
    occupations:
  0.887  0.000 -0.000
  0.000  0.883 -0.006
 -0.000 -0.006  0.883
   spin  2
    eigenvalues: 
  0.894  0.907  0.911
    eigenvectors:
  0.000  1.000  0.000
  0.500  0.000  0.500
  0.500  0.000  0.500
    occupations:
  0.907  0.000 -0.000
  0.000  0.903  0.008
 -0.000  0.008  0.903
atomic mag. moment =    -0.059590
atom   40   Tr[ns(na)] (up, down, total) =   2.65230  2.71188  5.36418
   spin  1
    eigenvalues: 
  0.877  0.887  0.888
    eigenvectors:
  0.000  1.000  0.000
  0.500  0.000  0.500
  0.500  0.000  0.500
    occupations:
  0.887 -0.000  0.000
 -0.000  0.883 -0.006
  0.000 -0.006  0.883
   spin  2
    eigenvalues: 
  0.894  0.907  0.911
    eigenvectors:
  0.000  1.000  0.000
  0.500  0.000  0.500
  0.500  0.000  0.500
    occupations:
  0.907 -0.000  0.000
 -0.000  0.903  0.008
  0.000  0.008  0.903
atomic mag. moment =    -0.059581
atom   41   Tr[ns(na)] (up, down, total) =   2.65231  2.71189  5.36420
   spin  1
    eigenvalues: 
  0.877  0.887  0.888
    eigenvectors:
  0.000  1.000  0.000
  0.500  0.000  0.500
  0.500  0.000  0.500
    occupations:
  0.887 -0.000 -0.000
 -0.000  0.883  0.006
 -0.000  0.006  0.883
   spin  2
    eigenvalues: 
  0.894  0.907  0.911
    eigenvectors:
  0.000  1.000  0.000
  0.500  0.000  0.500
  0.500  0.000  0.500
    occupations:
  0.907 -0.000 -0.000
 -0.000  0.903 -0.008
 -0.000 -0.008  0.903
atomic mag. moment =    -0.059578
atom   42   Tr[ns(na)] (up, down, total) =   2.65231  2.71189  5.36420
   spin  1
    eigenvalues: 
  0.877  0.887  0.888
    eigenvectors:
  0.000  1.000  0.000
  0.500  0.000  0.500
  0.500  0.000  0.500
    occupations:
  0.887 -0.000 -0.000
 -0.000  0.883  0.006
 -0.000  0.006  0.883
   spin  2
    eigenvalues: 
  0.894  0.907  0.911
    eigenvectors:
  0.000  1.000  0.000
  0.500  0.000  0.500
  0.500  0.000  0.500
    occupations:
  0.907 -0.000 -0.000
 -0.000  0.903 -0.008
 -0.000 -0.008  0.903
atomic mag. moment =    -0.059578
atom   43   Tr[ns(na)] (up, down, total) =   2.65232  2.71189  5.36421
   spin  1
    eigenvalues: 
  0.877  0.887  0.888
    eigenvectors:
  0.000  1.000  0.000
  0.500  0.000  0.500
  0.500  0.000  0.500
    occupations:
  0.887  0.000 -0.000
  0.000  0.883 -0.006
 -0.000 -0.006  0.883
   spin  2
    eigenvalues: 
  0.894  0.907  0.911
    eigenvectors:
  0.000  1.000  0.000
  0.500  0.000  0.500
  0.500  0.000  0.500
    occupations:
  0.907  0.000 -0.000
  0.000  0.903  0.008
 -0.000  0.008  0.903
atomic mag. moment =    -0.059565
atom   44   Tr[ns(na)] (up, down, total) =   2.65232  2.71189  5.36421
   spin  1
    eigenvalues: 
  0.877  0.887  0.888
    eigenvectors:
  0.000  1.000  0.000
  0.500  0.000  0.500
  0.500  0.000  0.500
    occupations:
  0.887 -0.000  0.000
 -0.000  0.883 -0.006
  0.000 -0.006  0.883
   spin  2
    eigenvalues: 
  0.894  0.907  0.911
    eigenvectors:
  0.000  1.000  0.000
  0.500  0.000  0.500
  0.500  0.000  0.500
    occupations:
  0.907 -0.000  0.000
 -0.000  0.903  0.008
  0.000  0.008  0.903
atomic mag. moment =    -0.059565
atom   45   Tr[ns(na)] (up, down, total) =   2.65231  2.71189  5.36420
   spin  1
    eigenvalues: 
  0.877  0.887  0.888
    eigenvectors:
  0.000  1.000  0.000
  0.500  0.000  0.500
  0.500  0.000  0.500
    occupations:
  0.887 -0.000 -0.000
 -0.000  0.883  0.006
 -0.000  0.006  0.883
   spin  2
    eigenvalues: 
  0.894  0.907  0.911
    eigenvectors:
  0.000  1.000  0.000
  0.500  0.000  0.500
  0.500  0.000  0.500
    occupations:
  0.907 -0.000 -0.000
 -0.000  0.903 -0.008
 -0.000 -0.008  0.903
atomic mag. moment =    -0.059578
atom   46   Tr[ns(na)] (up, down, total) =   2.65231  2.71189  5.36420
   spin  1
    eigenvalues: 
  0.877  0.887  0.888
    eigenvectors:
  0.000  1.000  0.000
  0.500  0.000  0.500
  0.500  0.000  0.500
    occupations:
  0.887 -0.000 -0.000
 -0.000  0.883  0.006
 -0.000  0.006  0.883
   spin  2
    eigenvalues: 
  0.894  0.907  0.911
    eigenvectors:
  0.000  1.000  0.000
  0.500  0.000  0.500
  0.500  0.000  0.500
    occupations:
  0.907 -0.000 -0.000
 -0.000  0.903 -0.008
 -0.000 -0.008  0.903
atomic mag. moment =    -0.059578
atom   47   Tr[ns(na)] (up, down, total) =   2.65232  2.71189  5.36421
   spin  1
    eigenvalues: 
  0.877  0.887  0.888
    eigenvectors:
  0.000  1.000  0.000
  0.500  0.000  0.500
  0.500  0.000  0.500
    occupations:
  0.887 -0.000  0.000
 -0.000  0.883 -0.006
  0.000 -0.006  0.883
   spin  2
    eigenvalues: 
  0.894  0.907  0.911
    eigenvectors:
  0.000  1.000  0.000
  0.500  0.000  0.500
  0.500  0.000  0.500
    occupations:
  0.907 -0.000  0.000
 -0.000  0.903  0.008
  0.000  0.008  0.903
atomic mag. moment =    -0.059565
atom   48   Tr[ns(na)] (up, down, total) =   2.65232  2.71189  5.36421
   spin  1
    eigenvalues: 
  0.877  0.887  0.888
    eigenvectors:
  0.000  1.000  0.000
  0.500  0.000  0.500
  0.500  0.000  0.500
    occupations:
  0.887  0.000 -0.000
  0.000  0.883 -0.006
 -0.000 -0.006  0.883
   spin  2
    eigenvalues: 
  0.894  0.907  0.911
    eigenvectors:
  0.000  1.000  0.000
  0.500  0.000  0.500
  0.500  0.000  0.500
    occupations:
  0.907  0.000 -0.000
  0.000  0.903  0.008
 -0.000  0.008  0.903
atomic mag. moment =    -0.059565
N of occupied +U levels = 243.5037750
 --- exit write_ns ---
 Atomic wfc used for LDA+U Projector are NOT orthogonalized
     Starting wfc from file

     total cpu time spent up to now is       36.9 secs

     per-process dynamical memory:    86.8 Mb

     Self-consistent Calculation

     iteration #  1     ecut=    40.00 Ry     beta=0.70
     Davidson diagonalization with overlap
     ethr =  4.51E-10,  avg # of iterations =  5.9
 --- enter write_ns ---
 LDA+U parameters:
U( 1)     =  0.00000000
alpha( 1) =  0.15000000
U( 2)     =  0.00000000
alpha( 2) =  0.00000000
U( 3)     =  0.00000000
alpha( 3) =  0.00000000
atom    1   Tr[ns(na)] (up, down, total) =   2.61136  1.67837  4.28974
   spin  1
    eigenvalues: 
  0.473  0.509  0.538  0.541  0.551
    eigenvectors:
  0.898  0.000  0.000  0.000  0.102
  0.000  0.500  0.000  0.500  0.000
  0.000  0.500  0.000  0.500  0.000
  0.000  0.000  1.000  0.000  0.000
  0.102  0.000  0.000  0.000  0.898
    occupations:
  0.481 -0.000 -0.000 -0.000  0.024
 -0.000  0.525  0.016  0.000  0.000
 -0.000  0.016  0.525  0.000  0.000
 -0.000  0.000  0.000  0.538 -0.000
  0.024  0.000  0.000 -0.000  0.543
   spin  2
    eigenvalues: 
  0.235  0.261  0.265  0.447  0.470
    eigenvectors:
  0.699  0.000  0.000  0.301  0.000
  0.000  0.000  0.500  0.000  0.500
  0.000  0.000  0.500  0.000  0.500
  0.000  1.000  0.000  0.000  0.000
  0.301  0.000  0.000  0.699  0.000
    occupations:
  0.299 -0.000 -0.000  0.000 -0.098
 -0.000  0.368 -0.102  0.000  0.000
 -0.000 -0.102  0.368  0.000  0.000
  0.000  0.000  0.000  0.261 -0.000
 -0.098  0.000  0.000 -0.000  0.383
atomic mag. moment =     0.932990
atom    2   Tr[ns(na)] (up, down, total) =   2.78044  1.71868  4.49912
   spin  1
    eigenvalues: 
  0.494  0.516  0.572  0.594  0.605
    eigenvectors:
  0.694  0.000  0.000  0.306  0.000
  0.000  0.500  0.000  0.000  0.500
  0.000  0.500  0.000  0.000  0.500
  0.000  0.000  1.000  0.000  0.000
  0.306  0.000  0.000  0.694  0.000
    occupations:
  0.525 -0.000 -0.000 -0.000 -0.046
 -0.000  0.560 -0.045  0.000  0.000
 -0.000 -0.045  0.560 -0.000  0.000
 -0.000  0.000 -0.000  0.572 -0.000
 -0.046  0.000  0.000 -0.000  0.563
   spin  2
    eigenvalues: 
  0.242  0.271  0.275  0.454  0.476
    eigenvectors:
  0.700  0.000  0.000  0.300  0.000
  0.000  0.000  0.500  0.000  0.500
  0.000  0.000  0.500  0.000  0.500
  0.000  1.000  0.000  0.000  0.000
  0.300  0.000  0.000  0.700  0.000
    occupations:
  0.306 -0.000 -0.000 -0.000  0.097
 -0.000  0.376  0.101 -0.000 -0.000
 -0.000  0.101  0.376  0.000 -0.000
 -0.000 -0.000  0.000  0.271 -0.000
  0.097 -0.000 -0.000 -0.000  0.391
atomic mag. moment =     1.061755
atom    3   Tr[ns(na)] (up, down, total) =   2.79800  1.71986  4.51785
   spin  1
    eigenvalues: 
  0.499  0.516  0.573  0.596  0.614
    eigenvectors:
  0.607  0.000  0.000  0.000  0.393
  0.000  0.500  0.000  0.500  0.000
  0.000  0.500  0.000  0.500  0.000
  0.000  0.000  1.000  0.000  0.000
  0.393  0.000  0.000  0.000  0.607
    occupations:
  0.544 -0.000 -0.000 -0.000  0.056
 -0.000  0.556  0.040  0.000  0.000
 -0.000  0.040  0.556  0.000  0.000
 -0.000  0.000  0.000  0.573 -0.000
  0.056  0.000  0.000 -0.000  0.569
   spin  2
    eigenvalues: 
  0.243  0.271  0.275  0.454  0.477
    eigenvectors:
  0.701  0.000  0.000  0.299  0.000
  0.000  0.000  0.500  0.000  0.500
  0.000  0.000  0.500  0.000  0.500
  0.000  1.000  0.000  0.000  0.000
  0.299  0.000  0.000  0.701  0.000
    occupations:
  0.306 -0.000 -0.000  0.000 -0.097
 -0.000  0.376 -0.101  0.000  0.000
 -0.000 -0.101  0.376  0.000  0.000
  0.000  0.000  0.000  0.271 -0.000
 -0.097  0.000  0.000 -0.000  0.391
atomic mag. moment =     1.078139
atom    4   Tr[ns(na)] (up, down, total) =   2.78044  1.71868  4.49912
   spin  1
    eigenvalues: 
  0.494  0.516  0.572  0.594  0.605
    eigenvectors:
  0.694  0.000  0.000  0.306  0.000
  0.000  0.500  0.000  0.000  0.500
  0.000  0.500  0.000  0.000  0.500
  0.000  0.000  1.000  0.000  0.000
  0.306  0.000  0.000  0.694  0.000
    occupations:
  0.525  0.000  0.000 -0.000 -0.046
  0.000  0.560 -0.045 -0.000 -0.000
  0.000 -0.045  0.560  0.000 -0.000
 -0.000 -0.000  0.000  0.572 -0.000
 -0.046 -0.000 -0.000 -0.000  0.563
   spin  2
    eigenvalues: 
  0.242  0.271  0.275  0.454  0.476
    eigenvectors:
  0.700  0.000  0.000  0.300  0.000
  0.000  0.000  0.500  0.000  0.500
  0.000  0.000  0.500  0.000  0.500
  0.000  1.000  0.000  0.000  0.000
  0.300  0.000  0.000  0.700  0.000
    occupations:
  0.306  0.000  0.000 -0.000  0.097
  0.000  0.376  0.101  0.000  0.000
  0.000  0.101  0.376 -0.000  0.000
 -0.000  0.000 -0.000  0.271 -0.000
  0.097  0.000  0.000 -0.000  0.391
atomic mag. moment =     1.061755
atom    5   Tr[ns(na)] (up, down, total) =   2.77567  1.71792  4.49359
   spin  1
    eigenvalues: 
  0.494  0.516  0.571  0.593  0.602
    eigenvectors:
  0.698  0.000  0.000  0.302  0.000
  0.000  0.497  0.000  0.000  0.503
  0.000  0.503  0.000  0.000  0.497
  0.000  0.000  1.000  0.000  0.000
  0.302  0.000  0.000  0.698  0.000
    occupations:
  0.524 -0.000 -0.000  0.000  0.045
 -0.000  0.559  0.043  0.000  0.000
 -0.000  0.043  0.559  0.000  0.000
  0.000  0.000  0.000  0.571  0.000
  0.045  0.000  0.000  0.000  0.563
   spin  2
    eigenvalues: 
  0.242  0.271  0.275  0.454  0.476
    eigenvectors:
  0.700  0.000  0.000  0.300  0.000
  0.000  0.000  0.500  0.000  0.500
  0.000  0.000  0.500  0.000  0.500
  0.000  1.000  0.000  0.000  0.000
  0.300  0.000  0.000  0.700  0.000
    occupations:
  0.306 -0.000 -0.000  0.000 -0.097
 -0.000  0.375 -0.101  0.000  0.000
 -0.000 -0.101  0.376  0.000  0.000
  0.000  0.000  0.000  0.271  0.000
 -0.097  0.000  0.000  0.000  0.390
atomic mag. moment =     1.057748
atom    6   Tr[ns(na)] (up, down, total) =   2.78036  1.71878  4.49914
   spin  1
    eigenvalues: 
  0.494  0.516  0.571  0.594  0.605
    eigenvectors:
  0.694  0.000  0.000  0.306  0.000
  0.000  0.500  0.000  0.000  0.500
  0.000  0.500  0.000  0.000  0.500
  0.000  0.000  1.000  0.000  0.000
  0.306  0.000  0.000  0.694  0.001
    occupations:
  0.524 -0.000  0.000 -0.000 -0.046
 -0.000  0.561 -0.044  0.000 -0.000
  0.000 -0.044  0.561  0.000  0.000
 -0.000  0.000  0.000  0.571 -0.000
 -0.046 -0.000  0.000 -0.000  0.563
   spin  2
    eigenvalues: 
  0.242  0.271  0.275  0.454  0.476
    eigenvectors:
  0.700  0.000  0.000  0.300  0.000
  0.000  0.000  0.500  0.000  0.500
  0.000  0.000  0.500  0.000  0.500
  0.000  1.000  0.000  0.000  0.000
  0.300  0.000  0.000  0.700  0.000
    occupations:
  0.306 -0.000  0.000 -0.000  0.097
 -0.000  0.376  0.101 -0.000 -0.000
  0.000  0.101  0.376 -0.000  0.000
 -0.000 -0.000 -0.000  0.271 -0.000
  0.097 -0.000  0.000 -0.000  0.391
atomic mag. moment =     1.061574
atom    7   Tr[ns(na)] (up, down, total) =   2.77460  1.71727  4.49187
   spin  1
    eigenvalues: 
  0.494  0.516  0.570  0.592  0.603
    eigenvectors:
  0.704  0.000  0.000  0.296  0.000
  0.000  0.499  0.000  0.000  0.501
  0.000  0.501  0.000  0.000  0.499
  0.000  0.000  1.000  0.000  0.000
  0.296  0.000  0.000  0.704  0.000
    occupations:
  0.523 -0.000 -0.000 -0.000  0.045
 -0.000  0.560  0.043  0.000  0.000
 -0.000  0.043  0.559  0.000  0.000
 -0.000  0.000  0.000  0.570 -0.000
  0.045  0.000  0.000 -0.000  0.563
   spin  2
    eigenvalues: 
  0.242  0.271  0.275  0.454  0.476
    eigenvectors:
  0.700  0.000  0.000  0.300  0.000
  0.000  0.000  0.500  0.000  0.500
  0.000  0.000  0.500  0.000  0.500
  0.000  1.000  0.000  0.000  0.000
  0.300  0.000  0.000  0.700  0.000
    occupations:
  0.306 -0.000 -0.000 -0.000 -0.097
 -0.000  0.375 -0.101  0.000  0.000
 -0.000 -0.101  0.375  0.000  0.000
 -0.000  0.000  0.000  0.271  0.000
 -0.097  0.000  0.000  0.000  0.390
atomic mag. moment =     1.057334
atom    8   Tr[ns(na)] (up, down, total) =   2.78036  1.71878  4.49914
   spin  1
    eigenvalues: 
  0.494  0.516  0.571  0.594  0.605
    eigenvectors:
  0.694  0.000  0.000  0.306  0.000
  0.000  0.500  0.000  0.000  0.500
  0.000  0.500  0.000  0.000  0.500
  0.000  0.000  1.000  0.000  0.000
  0.306  0.000  0.000  0.694  0.001
    occupations:
  0.524  0.000 -0.000 -0.000 -0.046
  0.000  0.561 -0.044 -0.000  0.000
 -0.000 -0.044  0.561 -0.000 -0.000
 -0.000 -0.000 -0.000  0.571 -0.000
 -0.046  0.000 -0.000 -0.000  0.563
   spin  2
    eigenvalues: 
  0.242  0.271  0.275  0.454  0.476
    eigenvectors:
  0.700  0.000  0.000  0.300  0.000
  0.000  0.000  0.500  0.000  0.500
  0.000  0.000  0.500  0.000  0.500
  0.000  1.000  0.000  0.000  0.000
  0.300  0.000  0.000  0.700  0.000
    occupations:
  0.306  0.000 -0.000 -0.000  0.097
  0.000  0.376  0.101  0.000  0.000
 -0.000  0.101  0.376  0.000 -0.000
 -0.000  0.000  0.000  0.271 -0.000
  0.097  0.000 -0.000 -0.000  0.391
atomic mag. moment =     1.061574
atom    9   Tr[ns(na)] (up, down, total) =   2.77567  1.71792  4.49359
   spin  1
    eigenvalues: 
  0.494  0.516  0.571  0.593  0.602
    eigenvectors:
  0.698  0.000  0.000  0.302  0.000
  0.000  0.503  0.000  0.000  0.497
  0.000  0.497  0.000  0.000  0.503
  0.000  0.000  1.000  0.000  0.000
  0.302  0.000  0.000  0.698  0.000
    occupations:
  0.524 -0.000 -0.000 -0.000  0.045
 -0.000  0.559  0.043  0.000  0.000
 -0.000  0.043  0.559  0.000  0.000
 -0.000  0.000  0.000  0.571 -0.000
  0.045  0.000  0.000 -0.000  0.563
   spin  2
    eigenvalues: 
  0.242  0.271  0.275  0.454  0.476
    eigenvectors:
  0.700  0.000  0.000  0.300  0.000
  0.000  0.000  0.500  0.000  0.500
  0.000  0.000  0.500  0.000  0.500
  0.000  1.000  0.000  0.000  0.000
  0.300  0.000  0.000  0.700  0.000
    occupations:
  0.306 -0.000 -0.000 -0.000 -0.097
 -0.000  0.376 -0.101  0.000  0.000
 -0.000 -0.101  0.375  0.000  0.000
 -0.000  0.000  0.000  0.271 -0.000
 -0.097  0.000  0.000 -0.000  0.390
atomic mag. moment =     1.057748
atom   10   Tr[ns(na)] (up, down, total) =   2.78036  1.71878  4.49914
   spin  1
    eigenvalues: 
  0.494  0.516  0.571  0.594  0.605
    eigenvectors:
  0.694  0.000  0.000  0.306  0.000
  0.000  0.500  0.000  0.000  0.500
  0.000  0.500  0.000  0.000  0.500
  0.000  0.000  1.000  0.000  0.000
  0.306  0.000  0.000  0.694  0.001
    occupations:
  0.524  0.000 -0.000 -0.000 -0.046
  0.000  0.561 -0.044 -0.000  0.000
 -0.000 -0.044  0.561 -0.000 -0.000
 -0.000 -0.000 -0.000  0.571 -0.000
 -0.046  0.000 -0.000 -0.000  0.563
   spin  2
    eigenvalues: 
  0.242  0.271  0.275  0.454  0.476
    eigenvectors:
  0.700  0.000  0.000  0.300  0.000
  0.000  0.000  0.500  0.000  0.500
  0.000  0.000  0.500  0.000  0.500
  0.000  1.000  0.000  0.000  0.000
  0.300  0.000  0.000  0.700  0.000
    occupations:
  0.306  0.000 -0.000 -0.000  0.097
  0.000  0.376  0.101  0.000  0.000
 -0.000  0.101  0.376  0.000 -0.000
 -0.000  0.000  0.000  0.271 -0.000
  0.097  0.000 -0.000 -0.000  0.391
atomic mag. moment =     1.061574
atom   11   Tr[ns(na)] (up, down, total) =   2.77460  1.71727  4.49187
   spin  1
    eigenvalues: 
  0.494  0.516  0.570  0.592  0.603
    eigenvectors:
  0.704  0.000  0.000  0.296  0.000
  0.000  0.501  0.000  0.000  0.499
  0.000  0.499  0.000  0.000  0.501
  0.000  0.000  1.000  0.000  0.000
  0.296  0.000  0.000  0.704  0.000
    occupations:
  0.523 -0.000 -0.000  0.000  0.045
 -0.000  0.559  0.043  0.000  0.000
 -0.000  0.043  0.560  0.000  0.000
  0.000  0.000  0.000  0.570  0.000
  0.045  0.000  0.000  0.000  0.563
   spin  2
    eigenvalues: 
  0.242  0.271  0.275  0.454  0.476
    eigenvectors:
  0.700  0.000  0.000  0.300  0.000
  0.000  0.000  0.500  0.000  0.500
  0.000  0.000  0.500  0.000  0.500
  0.000  1.000  0.000  0.000  0.000
  0.300  0.000  0.000  0.700  0.000
    occupations:
  0.306 -0.000 -0.000  0.000 -0.097
 -0.000  0.375 -0.101  0.000  0.000
 -0.000 -0.101  0.375  0.000  0.000
  0.000  0.000  0.000  0.271 -0.000
 -0.097  0.000  0.000 -0.000  0.390
atomic mag. moment =     1.057334
atom   12   Tr[ns(na)] (up, down, total) =   2.78036  1.71878  4.49914
   spin  1
    eigenvalues: 
  0.494  0.516  0.571  0.594  0.605
    eigenvectors:
  0.694  0.000  0.000  0.306  0.000
  0.000  0.500  0.000  0.000  0.500
  0.000  0.500  0.000  0.000  0.500
  0.000  0.000  1.000  0.000  0.000
  0.306  0.000  0.000  0.694  0.001
    occupations:
  0.524 -0.000  0.000 -0.000 -0.046
 -0.000  0.561 -0.044  0.000 -0.000
  0.000 -0.044  0.561  0.000  0.000
 -0.000  0.000  0.000  0.571 -0.000
 -0.046 -0.000  0.000 -0.000  0.563
   spin  2
    eigenvalues: 
  0.242  0.271  0.275  0.454  0.476
    eigenvectors:
  0.700  0.000  0.000  0.300  0.000
  0.000  0.000  0.500  0.000  0.500
  0.000  0.000  0.500  0.000  0.500
  0.000  1.000  0.000  0.000  0.000
  0.300  0.000  0.000  0.700  0.000
    occupations:
  0.306 -0.000  0.000 -0.000  0.097
 -0.000  0.376  0.101 -0.000 -0.000
  0.000  0.101  0.376 -0.000  0.000
 -0.000 -0.000 -0.000  0.271 -0.000
  0.097 -0.000  0.000 -0.000  0.391
atomic mag. moment =     1.061574
atom   13   Tr[ns(na)] (up, down, total) =   2.77717  1.71761  4.49477
   spin  1
    eigenvalues: 
  0.492  0.516  0.570  0.589  0.610
    eigenvectors:
  0.718  0.000  0.000  0.282  0.000
  0.000  0.500  0.000  0.000  0.500
  0.000  0.500  0.000  0.000  0.500
  0.000  0.000  1.000  0.000  0.000
  0.282  0.000  0.000  0.718  0.000
    occupations:
  0.520 -0.000 -0.000 -0.000  0.044
 -0.000  0.563  0.047  0.000  0.000
 -0.000  0.047  0.563  0.000  0.000
 -0.000  0.000  0.000  0.570 -0.000
  0.044  0.000  0.000 -0.000  0.562
   spin  2
    eigenvalues: 
  0.242  0.271  0.275  0.454  0.476
    eigenvectors:
  0.700  0.000  0.000  0.300  0.000
  0.000  0.000  0.500  0.000  0.500
  0.000  0.000  0.500  0.000  0.500
  0.000  1.000  0.000  0.000  0.000
  0.300  0.000  0.000  0.700  0.000
    occupations:
  0.306 -0.000 -0.000  0.000 -0.097
 -0.000  0.375 -0.101  0.000  0.000
 -0.000 -0.101  0.375  0.000  0.000
  0.000  0.000  0.000  0.271 -0.000
 -0.097  0.000  0.000 -0.000  0.390
atomic mag. moment =     1.059560
atom   14   Tr[ns(na)] (up, down, total) =   2.78044  1.71868  4.49912
   spin  1
    eigenvalues: 
  0.494  0.516  0.572  0.594  0.605
    eigenvectors:
  0.694  0.000  0.000  0.306  0.000
  0.000  0.500  0.000  0.000  0.500
  0.000  0.500  0.000  0.000  0.500
  0.000  0.000  1.000  0.000  0.000
  0.306  0.000  0.000  0.694  0.000
    occupations:
  0.525  0.000  0.000 -0.000 -0.046
  0.000  0.560 -0.045 -0.000 -0.000
  0.000 -0.045  0.560  0.000 -0.000
 -0.000 -0.000  0.000  0.572 -0.000
 -0.046 -0.000 -0.000 -0.000  0.563
   spin  2
    eigenvalues: 
  0.242  0.271  0.275  0.454  0.476
    eigenvectors:
  0.700  0.000  0.000  0.300  0.000
  0.000  0.000  0.500  0.000  0.500
  0.000  0.000  0.500  0.000  0.500
  0.000  1.000  0.000  0.000  0.000
  0.300  0.000  0.000  0.700  0.000
    occupations:
  0.306  0.000  0.000 -0.000  0.097
  0.000  0.376  0.101  0.000  0.000
  0.000  0.101  0.376 -0.000  0.000
 -0.000  0.000 -0.000  0.271 -0.000
  0.097  0.000  0.000 -0.000  0.391
atomic mag. moment =     1.061755
atom   15   Tr[ns(na)] (up, down, total) =   2.78702  1.71883  4.50585
   spin  1
    eigenvalues: 
  0.495  0.516  0.573  0.594  0.609
    eigenvectors:
  0.691  0.000  0.000  0.309  0.000
  0.000  0.500  0.000  0.000  0.500
  0.000  0.500  0.000  0.000  0.500
  0.000  0.000  1.000  0.000  0.000
  0.309  0.000  0.000  0.691  0.000
    occupations:
  0.526 -0.000 -0.000 -0.000  0.046
 -0.000  0.563  0.046  0.000  0.000
 -0.000  0.046  0.563  0.000  0.000
 -0.000  0.000  0.000  0.573 -0.000
  0.046  0.000  0.000 -0.000  0.563
   spin  2
    eigenvalues: 
  0.242  0.271  0.275  0.454  0.477
    eigenvectors:
  0.700  0.000  0.000  0.300  0.000
  0.000  0.000  0.500  0.000  0.500
  0.000  0.000  0.500  0.000  0.500
  0.000  1.000  0.000  0.000  0.000
  0.300  0.000  0.000  0.700  0.000
    occupations:
  0.306 -0.000 -0.000  0.000 -0.097
 -0.000  0.376 -0.101  0.000  0.000
 -0.000 -0.101  0.376  0.000  0.000
  0.000  0.000  0.000  0.271 -0.000
 -0.097  0.000  0.000 -0.000  0.391
atomic mag. moment =     1.068192
atom   16   Tr[ns(na)] (up, down, total) =   2.78044  1.71868  4.49912
   spin  1
    eigenvalues: 
  0.494  0.516  0.572  0.594  0.605
    eigenvectors:
  0.694  0.000  0.000  0.306  0.000
  0.000  0.500  0.000  0.000  0.500
  0.000  0.500  0.000  0.000  0.500
  0.000  0.000  1.000  0.000  0.000
  0.306  0.000  0.000  0.694  0.000
    occupations:
  0.525 -0.000 -0.000 -0.000 -0.046
 -0.000  0.560 -0.045  0.000  0.000
 -0.000 -0.045  0.560 -0.000  0.000
 -0.000  0.000 -0.000  0.572 -0.000
 -0.046  0.000  0.000 -0.000  0.563
   spin  2
    eigenvalues: 
  0.242  0.271  0.275  0.454  0.476
    eigenvectors:
  0.700  0.000  0.000  0.300  0.000
  0.000  0.000  0.500  0.000  0.500
  0.000  0.000  0.500  0.000  0.500
  0.000  1.000  0.000  0.000  0.000
  0.300  0.000  0.000  0.700  0.000
    occupations:
  0.306 -0.000 -0.000 -0.000  0.097
 -0.000  0.376  0.101 -0.000 -0.000
 -0.000  0.101  0.376  0.000 -0.000
 -0.000 -0.000  0.000  0.271 -0.000
  0.097 -0.000 -0.000 -0.000  0.391
atomic mag. moment =     1.061755
atom   17   Tr[ns(na)] (up, down, total) =   2.65669  2.71487  5.37156
   spin  1
    eigenvalues: 
  0.880  0.887  0.890
    eigenvectors:
  0.000  1.000  0.000
  0.500  0.000  0.500
  0.500  0.000  0.500
    occupations:
  0.887 -0.000 -0.000
 -0.000  0.885  0.005
 -0.000  0.005  0.885
   spin  2
    eigenvalues: 
  0.895  0.907  0.912
    eigenvectors:
  0.000  1.000  0.000
  0.500  0.000  0.500
  0.500  0.000  0.500
    occupations:
  0.907 -0.000 -0.000
 -0.000  0.904 -0.009
 -0.000 -0.009  0.904
atomic mag. moment =    -0.058178
atom   18   Tr[ns(na)] (up, down, total) =   2.65669  2.71487  5.37156
   spin  1
    eigenvalues: 
  0.880  0.887  0.890
    eigenvectors:
  0.000  1.000  0.000
  0.500  0.000  0.500
  0.500  0.000  0.500
    occupations:
  0.887 -0.000 -0.000
 -0.000  0.885  0.005
 -0.000  0.005  0.885
   spin  2
    eigenvalues: 
  0.895  0.907  0.912
    eigenvectors:
  0.000  1.000  0.000
  0.500  0.000  0.500
  0.500  0.000  0.500
    occupations:
  0.907 -0.000 -0.000
 -0.000  0.904 -0.009
 -0.000 -0.009  0.904
atomic mag. moment =    -0.058178
atom   19   Tr[ns(na)] (up, down, total) =   2.65273  2.71198  5.36472
   spin  1
    eigenvalues: 
  0.878  0.887  0.888
    eigenvectors:
  0.000  1.000  0.000
  0.497  0.000  0.503
  0.503  0.000  0.497
    occupations:
  0.887  0.000  0.000
  0.000  0.883 -0.005
  0.000 -0.005  0.883
   spin  2
    eigenvalues: 
  0.894  0.907  0.911
    eigenvectors:
  0.000  1.000  0.000
  0.500  0.000  0.500
  0.500  0.000  0.500
    occupations:
  0.907 -0.000 -0.000
 -0.000  0.903  0.008
 -0.000  0.008  0.903
atomic mag. moment =    -0.059252
atom   20   Tr[ns(na)] (up, down, total) =   2.65273  2.71198  5.36472
   spin  1
    eigenvalues: 
  0.878  0.887  0.888
    eigenvectors:
  0.000  1.000  0.000
  0.503  0.000  0.497
  0.497  0.000  0.503
    occupations:
  0.887  0.000  0.000
  0.000  0.883 -0.005
  0.000 -0.005  0.883
   spin  2
    eigenvalues: 
  0.894  0.907  0.911
    eigenvectors:
  0.000  1.000  0.000
  0.500  0.000  0.500
  0.500  0.000  0.500
    occupations:
  0.907 -0.000 -0.000
 -0.000  0.903  0.008
 -0.000  0.008  0.903
atomic mag. moment =    -0.059252
atom   21   Tr[ns(na)] (up, down, total) =   2.65265  2.71207  5.36471
   spin  1
    eigenvalues: 
  0.877  0.887  0.888
    eigenvectors:
  0.000  1.000  0.000
  0.500  0.000  0.500
  0.500  0.000  0.500
    occupations:
  0.887 -0.000 -0.000
 -0.000  0.883  0.005
 -0.000  0.005  0.883
   spin  2
    eigenvalues: 
  0.894  0.907  0.911
    eigenvectors:
  0.000  1.000  0.000
  0.500  0.000  0.500
  0.500  0.000  0.500
    occupations:
  0.907 -0.000 -0.000
 -0.000  0.903 -0.008
 -0.000 -0.008  0.903
atomic mag. moment =    -0.059417
atom   22   Tr[ns(na)] (up, down, total) =   2.65265  2.71207  5.36471
   spin  1
    eigenvalues: 
  0.877  0.887  0.888
    eigenvectors:
  0.000  1.000  0.000
  0.500  0.000  0.500
  0.500  0.000  0.500
    occupations:
  0.887 -0.000 -0.000
 -0.000  0.883  0.005
 -0.000  0.005  0.883
   spin  2
    eigenvalues: 
  0.894  0.907  0.911
    eigenvectors:
  0.000  1.000  0.000
  0.500  0.000  0.500
  0.500  0.000  0.500
    occupations:
  0.907 -0.000 -0.000
 -0.000  0.903 -0.008
 -0.000 -0.008  0.903
atomic mag. moment =    -0.059417
atom   23   Tr[ns(na)] (up, down, total) =   2.65273  2.71198  5.36472
   spin  1
    eigenvalues: 
  0.878  0.887  0.888
    eigenvectors:
  0.000  1.000  0.000
  0.497  0.000  0.503
  0.503  0.000  0.497
    occupations:
  0.887 -0.000 -0.000
 -0.000  0.883 -0.005
 -0.000 -0.005  0.883
   spin  2
    eigenvalues: 
  0.894  0.907  0.911
    eigenvectors:
  0.000  1.000  0.000
  0.500  0.000  0.500
  0.500  0.000  0.500
    occupations:
  0.907  0.000  0.000
  0.000  0.903  0.008
  0.000  0.008  0.903
atomic mag. moment =    -0.059252
atom   24   Tr[ns(na)] (up, down, total) =   2.65273  2.71198  5.36472
   spin  1
    eigenvalues: 
  0.878  0.887  0.888
    eigenvectors:
  0.000  1.000  0.000
  0.503  0.000  0.497
  0.497  0.000  0.503
    occupations:
  0.887 -0.000 -0.000
 -0.000  0.883 -0.005
 -0.000 -0.005  0.883
   spin  2
    eigenvalues: 
  0.894  0.907  0.911
    eigenvectors:
  0.000  1.000  0.000
  0.500  0.000  0.500
  0.500  0.000  0.500
    occupations:
  0.907  0.000  0.000
  0.000  0.903  0.008
  0.000  0.008  0.903
atomic mag. moment =    -0.059252
atom   25   Tr[ns(na)] (up, down, total) =   2.65270  2.71187  5.36457
   spin  1
    eigenvalues: 
  0.878  0.887  0.888
    eigenvectors:
  0.000  1.000  0.000
  0.507  0.000  0.493
  0.493  0.000  0.507
    occupations:
  0.887 -0.000 -0.000
 -0.000  0.883  0.005
 -0.000  0.005  0.883
   spin  2
    eigenvalues: 
  0.894  0.907  0.911
    eigenvectors:
  0.000  1.000  0.000
  0.499  0.000  0.501
  0.501  0.000  0.499
    occupations:
  0.907 -0.000 -0.000
 -0.000  0.903 -0.008
 -0.000 -0.008  0.903
atomic mag. moment =    -0.059176
atom   26   Tr[ns(na)] (up, down, total) =   2.65270  2.71187  5.36457
   spin  1
    eigenvalues: 
  0.878  0.887  0.888
    eigenvectors:
  0.000  1.000  0.000
  0.507  0.000  0.493
  0.493  0.000  0.507
    occupations:
  0.887 -0.000 -0.000
 -0.000  0.883  0.005
 -0.000  0.005  0.883
   spin  2
    eigenvalues: 
  0.894  0.907  0.911
    eigenvectors:
  0.000  1.000  0.000
  0.499  0.000  0.501
  0.501  0.000  0.499
    occupations:
  0.907 -0.000 -0.000
 -0.000  0.903 -0.008
 -0.000 -0.008  0.903
atomic mag. moment =    -0.059176
atom   27   Tr[ns(na)] (up, down, total) =   2.65257  2.71198  5.36454
   spin  1
    eigenvalues: 
  0.877  0.887  0.888
    eigenvectors:
  0.000  1.000  0.000
  0.500  0.000  0.500
  0.500  0.000  0.500
    occupations:
  0.887  0.000 -0.000
  0.000  0.883 -0.005
 -0.000 -0.005  0.883
   spin  2
    eigenvalues: 
  0.894  0.907  0.911
    eigenvectors:
  0.000  1.000  0.000
  0.500  0.000  0.500
  0.500  0.000  0.500
    occupations:
  0.907  0.000 -0.000
  0.000  0.903  0.008
 -0.000  0.008  0.903
atomic mag. moment =    -0.059407
atom   28   Tr[ns(na)] (up, down, total) =   2.65537  2.71599  5.37136
   spin  1
    eigenvalues: 
  0.879  0.887  0.889
    eigenvectors:
  0.000  0.701  0.299
  0.500  0.149  0.351
  0.500  0.149  0.351
    occupations:
  0.888 -0.001  0.001
 -0.001  0.884 -0.005
  0.001 -0.005  0.884
   spin  2
    eigenvalues: 
  0.895  0.908  0.913
    eigenvectors:
  0.000  1.000  0.000
  0.500  0.000  0.500
  0.500  0.000  0.500
    occupations:
  0.908 -0.000  0.000
 -0.000  0.904  0.009
  0.000  0.009  0.904
atomic mag. moment =    -0.060620
atom   29   Tr[ns(na)] (up, down, total) =   2.65268  2.71199  5.36466
   spin  1
    eigenvalues: 
  0.877  0.887  0.888
    eigenvectors:
  0.000  1.000  0.000
  0.500  0.000  0.500
  0.500  0.000  0.500
    occupations:
  0.887 -0.000 -0.000
 -0.000  0.883  0.005
 -0.000  0.005  0.883
   spin  2
    eigenvalues: 
  0.894  0.907  0.911
    eigenvectors:
  0.000  1.000  0.000
  0.501  0.000  0.499
  0.499  0.000  0.501
    occupations:
  0.907 -0.000 -0.000
 -0.000  0.903 -0.008
 -0.000 -0.008  0.903
atomic mag. moment =    -0.059310
atom   30   Tr[ns(na)] (up, down, total) =   2.65268  2.71199  5.36466
   spin  1
    eigenvalues: 
  0.877  0.887  0.888
    eigenvectors:
  0.000  1.000  0.000
  0.500  0.000  0.500
  0.500  0.000  0.500
    occupations:
  0.887 -0.000 -0.000
 -0.000  0.883  0.005
 -0.000  0.005  0.883
   spin  2
    eigenvalues: 
  0.894  0.907  0.911
    eigenvectors:
  0.000  1.000  0.000
  0.501  0.000  0.499
  0.499  0.000  0.501
    occupations:
  0.907 -0.000 -0.000
 -0.000  0.903 -0.008
 -0.000 -0.008  0.903
atomic mag. moment =    -0.059310
atom   31   Tr[ns(na)] (up, down, total) =   2.65257  2.71198  5.36454
   spin  1
    eigenvalues: 
  0.877  0.887  0.888
    eigenvectors:
  0.000  1.000  0.000
  0.500  0.000  0.500
  0.500  0.000  0.500
    occupations:
  0.887 -0.000  0.000
 -0.000  0.883 -0.005
  0.000 -0.005  0.883
   spin  2
    eigenvalues: 
  0.894  0.907  0.911
    eigenvectors:
  0.000  1.000  0.000
  0.500  0.000  0.500
  0.500  0.000  0.500
    occupations:
  0.907 -0.000  0.000
 -0.000  0.903  0.008
  0.000  0.008  0.903
atomic mag. moment =    -0.059407
atom   32   Tr[ns(na)] (up, down, total) =   2.65537  2.71599  5.37136
   spin  1
    eigenvalues: 
  0.879  0.887  0.889
    eigenvectors:
  0.000  0.701  0.299
  0.500  0.149  0.351
  0.500  0.149  0.351
    occupations:
  0.888  0.001 -0.001
  0.001  0.884 -0.005
 -0.001 -0.005  0.884
   spin  2
    eigenvalues: 
  0.895  0.908  0.913
    eigenvectors:
  0.000  1.000  0.000
  0.500  0.000  0.500
  0.500  0.000  0.500
    occupations:
  0.908  0.000 -0.000
  0.000  0.904  0.009
 -0.000  0.009  0.904
atomic mag. moment =    -0.060620
atom   33   Tr[ns(na)] (up, down, total) =   2.65270  2.71187  5.36457
   spin  1
    eigenvalues: 
  0.878  0.887  0.888
    eigenvectors:
  0.000  1.000  0.000
  0.493  0.000  0.507
  0.507  0.000  0.493
    occupations:
  0.887 -0.000 -0.000
 -0.000  0.883  0.005
 -0.000  0.005  0.883
   spin  2
    eigenvalues: 
  0.894  0.907  0.911
    eigenvectors:
  0.000  1.000  0.000
  0.501  0.000  0.499
  0.499  0.000  0.501
    occupations:
  0.907 -0.000 -0.000
 -0.000  0.903 -0.008
 -0.000 -0.008  0.903
atomic mag. moment =    -0.059176
atom   34   Tr[ns(na)] (up, down, total) =   2.65270  2.71187  5.36457
   spin  1
    eigenvalues: 
  0.878  0.887  0.888
    eigenvectors:
  0.000  1.000  0.000
  0.493  0.000  0.507
  0.507  0.000  0.493
    occupations:
  0.887 -0.000 -0.000
 -0.000  0.883  0.005
 -0.000  0.005  0.883
   spin  2
    eigenvalues: 
  0.894  0.907  0.911
    eigenvectors:
  0.000  1.000  0.000
  0.501  0.000  0.499
  0.499  0.000  0.501
    occupations:
  0.907 -0.000 -0.000
 -0.000  0.903 -0.008
 -0.000 -0.008  0.903
atomic mag. moment =    -0.059176
atom   35   Tr[ns(na)] (up, down, total) =   2.65537  2.71599  5.37136
   spin  1
    eigenvalues: 
  0.879  0.887  0.889
    eigenvectors:
  0.000  0.701  0.299
  0.500  0.149  0.351
  0.500  0.149  0.351
    occupations:
  0.888  0.001 -0.001
  0.001  0.884 -0.005
 -0.001 -0.005  0.884
   spin  2
    eigenvalues: 
  0.895  0.908  0.913
    eigenvectors:
  0.000  1.000  0.000
  0.500  0.000  0.500
  0.500  0.000  0.500
    occupations:
  0.908  0.000 -0.000
  0.000  0.904  0.009
 -0.000  0.009  0.904
atomic mag. moment =    -0.060620
atom   36   Tr[ns(na)] (up, down, total) =   2.65257  2.71198  5.36454
   spin  1
    eigenvalues: 
  0.877  0.887  0.888
    eigenvectors:
  0.000  1.000  0.000
  0.500  0.000  0.500
  0.500  0.000  0.500
    occupations:
  0.887 -0.000  0.000
 -0.000  0.883 -0.005
  0.000 -0.005  0.883
   spin  2
    eigenvalues: 
  0.894  0.907  0.911
    eigenvectors:
  0.000  1.000  0.000
  0.500  0.000  0.500
  0.500  0.000  0.500
    occupations:
  0.907 -0.000  0.000
 -0.000  0.903  0.008
  0.000  0.008  0.903
atomic mag. moment =    -0.059407
atom   37   Tr[ns(na)] (up, down, total) =   2.65268  2.71199  5.36466
   spin  1
    eigenvalues: 
  0.877  0.887  0.888
    eigenvectors:
  0.000  1.000  0.000
  0.500  0.000  0.500
  0.500  0.000  0.500
    occupations:
  0.887 -0.000 -0.000
 -0.000  0.883  0.005
 -0.000  0.005  0.883
   spin  2
    eigenvalues: 
  0.894  0.907  0.911
    eigenvectors:
  0.000  1.000  0.000
  0.499  0.000  0.501
  0.501  0.000  0.499
    occupations:
  0.907 -0.000 -0.000
 -0.000  0.903 -0.008
 -0.000 -0.008  0.903
atomic mag. moment =    -0.059310
atom   38   Tr[ns(na)] (up, down, total) =   2.65268  2.71199  5.36466
   spin  1
    eigenvalues: 
  0.877  0.887  0.888
    eigenvectors:
  0.000  1.000  0.000
  0.500  0.000  0.500
  0.500  0.000  0.500
    occupations:
  0.887 -0.000 -0.000
 -0.000  0.883  0.005
 -0.000  0.005  0.883
   spin  2
    eigenvalues: 
  0.894  0.907  0.911
    eigenvectors:
  0.000  1.000  0.000
  0.499  0.000  0.501
  0.501  0.000  0.499
    occupations:
  0.907 -0.000 -0.000
 -0.000  0.903 -0.008
 -0.000 -0.008  0.903
atomic mag. moment =    -0.059310
atom   39   Tr[ns(na)] (up, down, total) =   2.65537  2.71599  5.37136
   spin  1
    eigenvalues: 
  0.879  0.887  0.889
    eigenvectors:
  0.000  0.701  0.299
  0.500  0.149  0.351
  0.500  0.149  0.351
    occupations:
  0.888 -0.001  0.001
 -0.001  0.884 -0.005
  0.001 -0.005  0.884
   spin  2
    eigenvalues: 
  0.895  0.908  0.913
    eigenvectors:
  0.000  1.000  0.000
  0.500  0.000  0.500
  0.500  0.000  0.500
    occupations:
  0.908 -0.000  0.000
 -0.000  0.904  0.009
  0.000  0.009  0.904
atomic mag. moment =    -0.060620
atom   40   Tr[ns(na)] (up, down, total) =   2.65257  2.71198  5.36454
   spin  1
    eigenvalues: 
  0.877  0.887  0.888
    eigenvectors:
  0.000  1.000  0.000
  0.500  0.000  0.500
  0.500  0.000  0.500
    occupations:
  0.887  0.000 -0.000
  0.000  0.883 -0.005
 -0.000 -0.005  0.883
   spin  2
    eigenvalues: 
  0.894  0.907  0.911
    eigenvectors:
  0.000  1.000  0.000
  0.500  0.000  0.500
  0.500  0.000  0.500
    occupations:
  0.907  0.000 -0.000
  0.000  0.903  0.008
 -0.000  0.008  0.903
atomic mag. moment =    -0.059407
atom   41   Tr[ns(na)] (up, down, total) =   2.65291  2.71191  5.36482
   spin  1
    eigenvalues: 
  0.878  0.887  0.888
    eigenvectors:
  0.000  1.000  0.000
  0.500  0.000  0.500
  0.500  0.000  0.500
    occupations:
  0.887 -0.000 -0.000
 -0.000  0.883  0.005
 -0.000  0.005  0.883
   spin  2
    eigenvalues: 
  0.894  0.907  0.911
    eigenvectors:
  0.000  1.000  0.000
  0.500  0.000  0.500
  0.500  0.000  0.500
    occupations:
  0.907 -0.000 -0.000
 -0.000  0.903 -0.008
 -0.000 -0.008  0.903
atomic mag. moment =    -0.059004
atom   42   Tr[ns(na)] (up, down, total) =   2.65291  2.71191  5.36482
   spin  1
    eigenvalues: 
  0.878  0.887  0.888
    eigenvectors:
  0.000  1.000  0.000
  0.500  0.000  0.500
  0.500  0.000  0.500
    occupations:
  0.887 -0.000 -0.000
 -0.000  0.883  0.005
 -0.000  0.005  0.883
   spin  2
    eigenvalues: 
  0.894  0.907  0.911
    eigenvectors:
  0.000  1.000  0.000
  0.500  0.000  0.500
  0.500  0.000  0.500
    occupations:
  0.907 -0.000 -0.000
 -0.000  0.903 -0.008
 -0.000 -0.008  0.903
atomic mag. moment =    -0.059004
atom   43   Tr[ns(na)] (up, down, total) =   2.65273  2.71198  5.36472
   spin  1
    eigenvalues: 
  0.878  0.887  0.888
    eigenvectors:
  0.000  1.000  0.000
  0.503  0.000  0.497
  0.497  0.000  0.503
    occupations:
  0.887 -0.000 -0.000
 -0.000  0.883 -0.005
 -0.000 -0.005  0.883
   spin  2
    eigenvalues: 
  0.894  0.907  0.911
    eigenvectors:
  0.000  1.000  0.000
  0.500  0.000  0.500
  0.500  0.000  0.500
    occupations:
  0.907  0.000  0.000
  0.000  0.903  0.008
  0.000  0.008  0.903
atomic mag. moment =    -0.059252
atom   44   Tr[ns(na)] (up, down, total) =   2.65273  2.71198  5.36472
   spin  1
    eigenvalues: 
  0.878  0.887  0.888
    eigenvectors:
  0.000  1.000  0.000
  0.497  0.000  0.503
  0.503  0.000  0.497
    occupations:
  0.887 -0.000 -0.000
 -0.000  0.883 -0.005
 -0.000 -0.005  0.883
   spin  2
    eigenvalues: 
  0.894  0.907  0.911
    eigenvectors:
  0.000  1.000  0.000
  0.500  0.000  0.500
  0.500  0.000  0.500
    occupations:
  0.907  0.000  0.000
  0.000  0.903  0.008
  0.000  0.008  0.903
atomic mag. moment =    -0.059252
atom   45   Tr[ns(na)] (up, down, total) =   2.65223  2.71198  5.36421
   spin  1
    eigenvalues: 
  0.877  0.887  0.889
    eigenvectors:
  0.000  1.000  0.000
  0.500  0.000  0.500
  0.500  0.000  0.500
    occupations:
  0.887 -0.000 -0.000
[...]
   -53.9895 -53.9765 -53.9765 -53.9765 -53.9764 -53.9762 -53.9762 -53.9762
   -28.2416 -28.1640 -28.1635 -28.1622 -28.1621 -28.1617 -28.1607 -28.1604
   -27.9438 -27.9229 -27.8610 -27.8501 -27.8487 -27.8464 -27.8461 -27.8435
   -27.8163 -27.8122 -27.8057 -27.8033 -27.8023 -27.8023 -27.7980 -27.7966
   -27.7939 -27.7914 -27.7901 -27.7859 -27.7856 -27.7849 -27.7847 -27.7846
   -27.7842 -27.7840 -27.7826 -27.7756 -27.7736 -27.7715 -27.7628 -27.7580
   -27.7455 -27.7242 -27.7237 -27.7236 -27.7235 -27.7234 -27.7233 -27.7232
    -8.9952  -8.6129  -8.6128  -8.4408  -8.2024  -8.0493  -8.0493  -7.8304
    -7.8278  -7.7565  -7.7481  -7.7471  -7.7308  -7.7245  -7.6246  -7.5559
    -7.5217  -7.4340  -7.3636  -7.3593  -7.3555  -7.3234  -7.3184  -7.3152
    -7.3150  -7.2941  -7.2907  -7.2902  -7.2812  -7.2251  -7.2244  -7.2144
     3.5404   3.7033   3.9335   3.9382   3.9782   4.1389   4.1946   4.2024
     4.2029   4.3493   4.3514   4.3625   4.3634   4.5216   4.5270   4.5762
     4.6089   4.8148   4.8493   5.0273   5.0276   5.0776   5.0801   5.0835
     5.2691   5.2790   5.3398   5.3459   5.4916   5.5072   5.5078   5.6724
     5.7151   5.7160   5.7360   5.7421   5.7650   5.7825   5.7826   5.8421
     6.0036   6.0079   6.0085   6.0489   6.0512   6.2431   6.2692   6.2769
     6.3464   6.3471   6.3865   6.4156   6.4580   6.4843   6.5726   6.6627
     6.6641   6.7344   6.7351   6.9348   7.1476   7.1495   7.1786   7.3879
     7.3899   7.4530   7.4875   7.5689   7.6479   7.6486   7.6748   7.6766
     7.6863   7.6889   7.8625   7.9026   7.9545   8.0061   8.1043   8.1055
     8.1451   8.1468   8.1960   8.2520   8.2525   8.3729   8.3729   8.3826
     8.4399   8.4599   8.6122   8.6129   8.6783   8.8525   8.8531   9.3359
    11.1278  11.1718  11.3873  11.3917  11.4770  11.4904  11.4954  11.5508
    11.5646  11.6176  11.6192  11.7744  11.7752  11.8898  11.9028  11.9291
    12.0146  12.0631  12.1512  12.1513  12.1544  12.1601  12.2928  12.3912
    12.4317  12.4330  12.6257  12.6259  12.6881  12.6942  12.6946  12.6980
    12.7013  12.7014  12.7196  12.7362  12.7603  12.9175  12.9463  12.9466
    13.0165  13.1667  13.1954  13.1959  13.2741  13.2909  13.2923  13.7130
    13.7326  13.9602  13.9623  14.1086  14.2844  14.3009  14.3028  14.4821
    14.4845  14.6791  14.7438  15.0570  15.1395  15.1397  15.1507  15.1755
    15.1793  15.3248  15.3346  15.3379  15.3387  15.5031  15.5113  15.6316
    15.6350  15.7726  15.9207  15.9243  15.9327  16.2507  16.2548  16.4234
    18.2990  19.5765  19.5788  20.5826  21.0587  21.0608  21.4900  21.7293
    21.7527  21.7650  22.1525  22.1540  22.1654  22.3615  22.5825  22.5854
    22.6350  22.6592  22.6607  22.6610  23.3137  23.6762  23.8239  23.8249
    24.0643  24.1016  24.1033  24.5393  24.5667  24.5669  24.6806  24.8106
    25.1486  25.1504  25.2525  25.2541  25.2693  25.3925  25.6675  25.6782
    25.6817  25.7484  25.8391  25.8393  26.0948  26.2146  26.2150  26.3062
    26.5367  26.9928  26.9937  27.2407  27.2868  27.2870  27.3532  27.4201
    27.4611  27.5433  27.5473  27.5733  27.5733  27.6000  27.7939  27.7999
    27.8038  27.8376  28.1347  28.3176  28.3247  28.3249  28.3904  28.5363
    28.6893  28.6928  28.9423  29.1639  29.1685  29.1983  29.3210  29.7333
    29.7366  29.9216  29.9232  30.5978  30.6121  30.9724  30.9736  31.0611
    31.5643  31.6559  31.6576  31.6779  31.7005  31.7476  32.1476  32.1497
    32.2753  32.4756  32.4895  32.4897  32.5477  32.7715  32.7772  32.9650
    33.1246  33.1487  33.1499  33.1782  33.2304  33.2337  33.2339  33.2360
    33.2395  33.5207  33.8480  33.8783  33.9056  34.4023  34.4047  34.8501
    34.9615  35.0090  35.0111  35.1152  35.1617  35.2584  35.3813  35.6101
    35.6953  35.6988  35.8101  35.8121  36.1355  36.2889  36.2907  36.2940
    36.2952  36.7360  36.8389  37.0042  37.0829  37.2216  37.3108  37.4179
    37.5913  37.5925  37.7435  37.8526  38.0657  38.0672  38.1836  38.1851
    38.2377  38.3701  38.3727  38.4197  38.5312  38.5339  38.6107  38.9997
    39.1594  39.1897  39.1914  39.2875  39.3201  39.3235  39.5757  39.6212
    39.6226  40.5493  40.6008  40.6076  40.6093  41.1551  41.2254  41.6601
    41.8286  42.0480  42.0487  42.0792  42.0827  42.0861  42.1731  42.2033
    42.3240  42.4080  42.5528  42.6093  42.6113  42.6219  42.6223  42.6837
    42.9092  42.9101  42.9317  42.9650  43.0289  43.1088  43.1119  43.1718
    43.1747  43.1757  43.1777  43.1812  43.2010  43.3059  43.3712  43.3753
    43.5006  43.5498  43.9783  44.0135  44.1033  44.1066  44.2542  44.3897
    44.6189  44.6406  44.6423  44.9377  45.2667  45.2680  45.4103  45.5186
    45.5213  45.7043  45.9590  45.9616  46.0187  46.1874  46.1906  46.1916
    46.3871  46.3901  46.3954  46.3994  46.4019  46.4352  46.4835  46.8126
    46.8170  46.8256  46.9621  47.1268  47.3457  47.3712  47.3756  47.3769
    47.4249  47.5451  47.5705  47.5745  47.5800  47.5821  47.8157  47.8916
    47.8916  47.9052  48.0745  48.1639  48.3427  48.3815  48.3855  48.3948
    48.4273  48.4526  48.4880  48.6983  48.7013  48.9926  48.9934  49.2858
    49.3608  49.4346  49.5059  49.5071  49.5086  49.5866  49.5869  49.6568
    50.0097  50.1267  50.1271  50.2912  50.3047  50.3253  50.4940  50.5101
    50.5142  50.5483  50.5673  50.6089  51.0496  51.0497  51.1133  51.1291
    51.1958  51.2657  51.2678  51.3591  51.3605  51.5615  51.6512  51.6536
    51.6608  51.6639  51.6949  51.6956  51.7519  51.7538  51.8306  51.8727
    51.9529  52.2581  52.2596  52.2696  52.2838  52.4015  52.4949  52.5510
    52.6877  52.7983  52.8000  52.8899  53.1925  53.2799  53.3090  53.3162

          k =-0.2500 0.2500-0.4023 ( 13685 PWs)   bands (ev):

   -54.1396 -54.0101 -54.0083 -54.0078 -54.0069 -54.0058 -54.0053 -54.0037
   -53.9911 -53.9829 -53.9822 -53.9820 -53.9817 -53.9812 -53.9809 -53.9803
   -28.1941 -28.1125 -28.1121 -28.1111 -28.1093 -28.1092 -28.1079 -28.1060
   -27.9421 -27.9169 -27.9008 -27.8583 -27.8569 -27.8544 -27.8508 -27.8504
   -27.8492 -27.8490 -27.8431 -27.8359 -27.8358 -27.8328 -27.8315 -27.8100
   -27.8072 -27.8031 -27.7965 -27.7930 -27.7924 -27.7919 -27.7918 -27.7914
   -27.7907 -27.7895 -27.7870 -27.7686 -27.7668 -27.7651 -27.7583 -27.7535
   -27.7469 -27.7355 -27.7351 -27.7321 -27.7319 -27.7317 -27.7304 -27.7296
    -8.8393  -8.4796  -8.4793  -8.3115  -8.0855  -7.9581  -7.9458  -7.9457
    -7.8814  -7.8801  -7.7614  -7.7215  -7.7148  -7.6366  -7.5781  -7.5667
    -7.5414  -7.5047  -7.4049  -7.4035  -7.3969  -7.3936  -7.3899  -7.3888
    -7.3615  -7.3295  -7.3283  -7.3269  -7.3064  -7.2986  -7.2983  -7.2631
     3.7472   3.8778   4.1144   4.1181   4.1544   4.3107   4.4016   4.4678
     4.4720   4.5456   4.5476   4.5552   4.5891   4.6194   4.6228   4.6583
     4.7163   4.7787   4.7914   4.8333   4.8347   4.9409   5.0367   5.0375
     5.0392   5.0731   5.0787   5.0795   5.1993   5.2983   5.2999   5.4011
     5.4497   5.4507   5.4553   5.5724   5.6114   5.8442   5.8443   5.8995
     6.0041   6.1112   6.1131   6.2468   6.3852   6.4050   6.4057   6.4334
     6.4342   6.5978   6.6005   6.6012   6.6015   6.6957   6.8228   6.8234
     6.8350   6.9557   6.9575   6.9592   6.9698   6.9867   7.0470   7.1320
     7.1908   7.2461   7.2469   7.3016   7.3032   7.5369   7.6019   7.6254
     7.6270   7.7179   7.7532   7.7678   7.7679   7.7687   7.7839   7.8608
     7.8895   8.0764   8.0783   8.2294   8.3085   8.3462   8.4323   8.4323
     8.4773   8.4840   8.5491   8.5494   8.6167   8.8266   8.8271   9.2093
    11.4229  11.4263  11.4299  11.4687  11.6575  11.7066  11.7420  11.7444
    11.7468  11.7560  11.8039  11.8731  11.8749  11.9586  11.9614  11.9615
    12.1043  12.1044  12.1856  12.2020  12.2058  12.2827  12.2838  12.3113
    12.4514  12.4523  12.5051  12.5290  12.5294  12.5986  12.6041  12.6178
    12.6550  12.6551  12.7196  12.7197  12.8143  12.8659  12.9119  12.9464
    12.9466  13.1267  13.1273  13.1314  13.1400  13.2096  13.2108  13.6253
    13.9171  13.9190  13.9338  14.1895  14.3267  14.3378  14.3400  14.4690
    14.4713  14.7582  14.8006  14.8195  14.8209  15.0030  15.0801  15.1037
    15.1043  15.1077  15.1881  15.1925  15.3222  15.3239  15.3841  15.7521
    15.7561  15.7617  15.7648  15.7703  15.8114  16.1425  16.1466  16.3247
    18.7584  19.9661  19.9681  20.8525  21.1881  21.4421  21.4441  21.6104
    21.6110  21.6586  21.7232  22.1949  22.3102  22.3755  22.6894  22.6909
    22.9809  23.1506  23.1511  23.6305  23.7316  23.9310  24.1430  24.1446
    24.1891  24.2314  24.4746  24.4760  24.6418  24.9784  24.9789  25.1734
    25.3456  25.3772  25.4156  25.4169  25.4753  25.4812  25.6987  25.7090
    25.7116  25.7130  25.8171  25.8173  25.8399  26.0517  26.0531  26.0820
    26.5164  26.6244  26.6257  27.1287  27.1288  27.1431  27.3874  27.4504
    27.4546  27.4596  27.5285  27.5570  27.5578  27.5734  27.7715  27.8494
    27.9961  28.1595  28.2837  28.2868  28.2889  28.2907  28.2914  28.4735
    28.6620  28.6637  28.8416  28.9211  28.9235  29.1816  29.3882  29.4491
    29.5595  29.6199  29.6243  29.6633  29.6634  29.8398  29.9340  30.2540
    30.4764  30.7305  31.1391  31.1415  31.2243  31.7103  31.7118  31.7709
    31.9783  31.9800  32.4584  32.4627  32.4795  32.6782  32.7269  32.7879
    32.8882  33.5018  33.5048  33.6551  33.9557  33.9564  34.0222  34.0329
    34.2017  34.2085  34.2088  34.2158  34.2973  34.4046  34.4049  34.6152
    34.9458  35.1268  35.2764  35.3786  35.6254  35.6264  35.7246  35.7272
    35.8518  35.8986  35.8996  36.1096  36.2437  36.3511  36.3975  36.3975
    36.5069  36.5075  36.5166  36.6172  36.9959  37.1744  37.3221  37.3229
    37.3659  37.3698  37.5493  37.5992  37.7227  37.9544  38.1792  38.2244
    38.2281  38.7110  38.7132  38.7555  38.7726  38.7729  38.9303  39.0696
    39.2146  39.3615  39.3644  39.4665  39.4676  39.6545  39.9090  39.9323
    39.9324  39.9783  39.9796  40.0294  40.0667  40.2571  40.2943  40.6349
    40.6366  40.8867  40.8886  40.9773  41.0874  41.1120  41.3090  41.4759
    41.6193  41.7759  41.9349  41.9361  42.1106  42.1801  42.1820  42.5678
    42.5686  42.6736  42.9224  42.9366  42.9618  43.0276  43.3171  43.6067
    43.7785  43.7813  43.9229  43.9233  44.0479  44.0494  44.0722  44.1464
    44.1488  44.2320  44.4569  44.6833  44.7766  44.8768  44.8955  44.9652
    45.0197  45.0214  45.0306  45.3155  45.4780  45.8189  45.8569  45.8590
    45.8674  45.8680  45.8892  45.9075  45.9100  46.0326  46.2796  46.4175
    46.4186  46.5253  46.6922  46.8930  46.8955  47.0442  47.0501  47.3913
    47.3956  47.4037  47.4275  47.5080  47.5099  47.6136  47.6154  47.7772
    47.7788  47.8896  47.8938  47.9043  47.9398  48.0678  48.1085  48.4148
    48.6115  48.6686  48.6700  48.7394  48.7424  48.7906  48.7923  48.8664
    48.8813  49.0086  49.0213  49.0214  49.0575  49.0593  49.2224  49.2972
    49.3080  49.3958  49.4334  49.4341  49.5538  49.5559  49.7773  49.8037
    49.8997  49.9074  49.9083  50.0341  50.0963  50.1404  50.1878  50.2105
    50.2114  50.3394  50.4294  50.6387  50.6408  50.8434  50.8438  50.9103
    50.9887  51.0139  51.0141  51.0397  51.0421  51.2783  51.3523  51.3785
    51.5614  51.6013  51.6048  51.6061  51.6085  51.6091  51.6351  51.8647
    51.8922  51.9180  52.0285  52.0743  52.0745  52.1945  52.1949  52.3551
    52.4211  52.4666  52.4984  52.5745  52.6471  52.7858  52.7866  52.9626

          k =-0.2500 0.2500 0.8046 ( 13696 PWs)   bands (ev):

   -54.1385 -53.9969 -53.9967 -53.9954 -53.9953 -53.9951 -53.9950 -53.9946
   -53.9943 -53.9935 -53.9935 -53.9931 -53.9930 -53.9925 -53.9918 -53.9912
   -28.1185 -27.9885 -27.9868 -27.9865 -27.9851 -27.9848 -27.9838 -27.9812
   -27.9810 -27.9809 -27.9797 -27.9794 -27.9794 -27.9781 -27.9751 -27.9739
   -27.9348 -27.9088 -27.8246 -27.8228 -27.8209 -27.8148 -27.8141 -27.8125
   -27.8125 -27.8124 -27.8109 -27.8108 -27.8102 -27.7979 -27.7976 -27.7975
   -27.7937 -27.7638 -27.7638 -27.7635 -27.7633 -27.7518 -27.7517 -27.7506
   -27.7505 -27.7497 -27.7495 -27.7482 -27.7479 -27.7433 -27.7421 -27.7410
    -8.4341  -8.4331  -8.1567  -8.1554  -8.1548  -8.1548  -7.9963  -7.9959
    -7.8113  -7.8102  -7.7447  -7.7441  -7.7439  -7.7416  -7.4687  -7.4676
    -7.4606  -7.4585  -7.4463  -7.4450  -7.4369  -7.4361  -7.4315  -7.4309
    -7.4307  -7.4246  -7.4102  -7.4100  -7.4065  -7.4017  -7.3831  -7.3822
     4.2450   4.2457   4.2834   4.2840   4.4890   4.4898   4.4899   4.4924
     4.5418   4.5440   4.6416   4.6468   4.6961   4.7003   4.7394   4.7403
     4.8034   4.8044   4.8059   4.8063   4.8450   4.8463   4.9411   4.9436
     4.9440   4.9493   5.0309   5.0311   5.0313   5.0365   5.1642   5.1648
     5.5396   5.5426   5.7231   5.7246   5.7250   5.7304   5.9005   5.9013
     6.1193   6.1201   6.1203   6.1206   6.1991   6.2003   6.2734   6.2734
     6.2738   6.2774   6.5212   6.5217   6.5493   6.5497   6.8472   6.8489
     6.8667   6.8675   6.8676   6.8676   7.1411   7.1435   7.1441   7.1454
     7.1607   7.1628   7.1771   7.1773   7.4259   7.4272   7.4454   7.4466
     7.5887   7.5901   7.7177   7.7182   7.7194   7.7195   7.7925   7.7958
     8.0039   8.0055   8.0651   8.0660   8.2777   8.2778   8.2779   8.2794
     8.3546   8.3554   8.7055   8.7061   8.7062   8.7064   8.9617   8.9617
    11.5525  11.5534  11.7251  11.7252  11.7257  11.7283  11.8934  11.8934
    11.9533  11.9555  11.9647  11.9648  12.0915  12.0916  12.0917  12.0942
    12.1758  12.1761  12.2577  12.2577  12.2584  12.2601  12.2822  12.2830
    12.3270  12.3275  12.4437  12.4438  12.5465  12.5477  12.5834  12.5838
    12.5838  12.5841  12.6853  12.6858  12.8225  12.8228  12.8228  12.8230
    12.8572  12.8572  13.0725  13.0741  13.0742  13.0742  13.3379  13.3391
    14.0881  14.0912  14.0914  14.0914  14.2613  14.2615  14.4909  14.4971
    14.4971  14.4972  14.5090  14.5109  14.7985  14.8001  15.0836  15.0877
    15.0883  15.0895  15.0910  15.0915  15.3794  15.3808  15.3836  15.3836
    15.5764  15.5774  15.9369  15.9428  15.9436  15.9437  16.0071  16.0083
    19.8629  19.8648  20.7852  20.7871  20.7876  20.7887  21.3490  21.3499
    22.0811  22.0840  22.1797  22.1819  22.1824  22.1827  23.4102  23.4115
    23.6758  23.6776  23.7189  23.7225  24.2636  24.2638  24.2644  24.2659
    24.2835  24.2857  25.0425  25.0440  25.1072  25.1098  25.2416  25.2432
    25.2441  25.2467  25.4572  25.4594  25.4599  25.4619  25.6025  25.6050
    25.6762  25.6763  25.6865  25.6897  25.6897  25.6904  26.1870  26.1895
    26.9263  26.9294  26.9301  26.9308  27.2172  27.2195  27.2516  27.2526
    27.3506  27.3542  27.3564  27.3569  27.4139  27.4165  27.4969  27.4997
    27.8115  27.8140  27.8159  27.8164  28.2974  28.2994  28.3520  28.3561
    28.6337  28.6342  28.8357  28.8410  29.0336  29.0355  29.0369  29.0383
    29.2595  29.2616  29.6819  29.6831  29.6840  29.6879  29.7032  29.7033
    30.3598  30.3663  30.5483  30.5538  30.5542  30.5547  31.5351  31.5384
    31.7083  31.7094  31.7097  31.7125  32.1815  32.1827  32.5353  32.5401
    33.9051  33.9075  34.0656  34.0672  34.0677  34.0701  34.3179  34.3180
    34.4717  34.4745  34.7727  34.7750  35.0425  35.0452  35.0573  35.0601
    35.2152  35.2157  35.2160  35.2161  35.6749  35.6764  35.8008  35.8061
    35.8066  35.8071  36.1889  36.1896  36.1899  36.1901  36.3331  36.3352
    36.5547  36.5575  36.7116  36.7135  36.7140  36.7151  37.0893  37.0895
    37.4031  37.4055  37.8119  37.8134  37.8156  37.8168  38.2672  38.2739
    38.2741  38.2742  38.5404  38.5410  38.6001  38.6006  39.1247  39.1256
    39.2455  39.2498  39.2501  39.2515  39.2670  39.2674  39.3942  39.3962
    39.7560  39.7565  40.0949  40.0955  40.0961  40.0969  40.1555  40.1573
    40.2959  40.2972  40.2979  40.2984  40.9096  40.9110  41.1440  41.1453
    42.2289  42.2311  42.2328  42.2330  42.2436  42.2442  42.5620  42.5623
    42.8359  42.8371  42.9180  42.9191  42.9839  42.9848  42.9854  42.9858
    43.3425  43.3432  43.7426  43.7456  44.0540  44.0544  44.0546  44.0549
    44.7102  44.7130  44.7341  44.7370  44.7374  44.7387  45.1564  45.1604
    45.1608  45.1624  46.1639  46.1660  46.3369  46.3375  46.3389  46.3390
    46.3749  46.3754  46.4060  46.4060  46.4065  46.4089  46.4886  46.4906
    46.5207  46.5220  46.6855  46.6874  47.0026  47.0031  47.0052  47.0053
    47.3001  47.3009  48.0406  48.0408  48.1566  48.1589  48.1840  48.1843
    48.1847  48.1860  48.3406  48.3411  48.3430  48.3430  48.4328  48.4334
    48.8709  48.8721  48.9542  48.9562  48.9573  48.9591  49.3172  49.3219
    49.3227  49.3230  49.3771  49.3779  49.4826  49.4831  49.5311  49.5359
    49.5554  49.5556  49.5907  49.5911  49.8482  49.8494  49.8515  49.8516
    49.9294  49.9298  49.9317  49.9324  50.0156  50.0177  50.1774  50.1790
    50.1797  50.1807  50.2442  50.2449  50.3732  50.3744  50.3754  50.3767
    50.5366  50.5379  50.6863  50.6874  50.9242  50.9254  51.0239  51.0241
    51.0241  51.0242  51.2563  51.2579  51.2584  51.2589  51.3833  51.3871
    51.5001  51.5003  51.6130  51.6170  51.6175  51.6178  52.0315  52.0339
    52.0352  52.0356  52.1182  52.1204  52.5775  52.5784  52.7889  52.7895

     the Fermi energy is    10.9475 ev

!    total energy              =   -3356.33752161 Ry
     Harris-Foulkes estimate   =   -3356.33752215 Ry
     estimated scf accuracy    <       0.00000063 Ry

     The total energy is the sum of the following terms:

     one-electron contribution =   -1296.41345161 Ry
     hartree contribution      =     845.50783437 Ry
     xc contribution           =    -537.24195258 Ry
     ewald contribution        =   -2368.23960066 Ry
     Hubbard energy            =       0.04922485 Ry
     smearing contrib. (-TS)   =       0.00042401 Ry

     total magnetization       =    16.02 Bohr mag/cell
     absolute magnetization    =    19.67 Bohr mag/cell

     convergence has been achieved in  30 iterations

     Writing output data file pwscf.save

     init_run     :     29.74s CPU     36.30s WALL (       1 calls)
     electrons    :  30639.66s CPU  38152.29s WALL (       1 calls)

     Called by init_run:
     wfcinit      :     14.87s CPU     17.39s WALL (       1 calls)
     potinit      :      1.23s CPU      2.02s WALL (       1 calls)

     Called by electrons:
     c_bands      :  28002.14s CPU  33987.53s WALL (      30 calls)
     sum_band     :   2268.35s CPU   3748.30s WALL (      30 calls)
     v_of_rho     :     15.74s CPU     24.12s WALL (      31 calls)
     newd         :    356.40s CPU    384.01s WALL (      31 calls)
     mix_rho      :      2.88s CPU      4.94s WALL (      30 calls)

     Called by c_bands:
     init_us_2    :     14.66s CPU     15.37s WALL (    2562 calls)
     cegterg      :  27944.00s CPU  33732.76s WALL (    1260 calls)

     Called by *egterg:
     h_psi        :   8160.88s CPU  12394.60s WALL (    3227 calls)
     s_psi        :    762.34s CPU    764.21s WALL (    3269 calls)
     g_psi        :      9.10s CPU      9.15s WALL (    1967 calls)
     cdiaghg      :  14541.92s CPU  14844.76s WALL (    3185 calls)

     Called by h_psi:
     add_vuspsi   :    762.76s CPU    767.03s WALL (    3227 calls)
     vhpsi        :   1642.91s CPU   2100.52s WALL (    3227 calls)

     General routines
     calbec       :   2465.59s CPU   3386.19s WALL (    9016 calls)
     fft          :     23.40s CPU     42.73s WALL (     949 calls)
     ffts         :      0.46s CPU      0.92s WALL (     122 calls)
     fftw         :   5631.48s CPU  10103.09s WALL ( 3885466 calls)
     interpolate  :      3.25s CPU      5.95s WALL (     122 calls)
     davcio       :      4.40s CPU    479.50s WALL (    7644 calls)

     Parallel routines
     fft_scatter  :   4084.15s CPU   8520.76s WALL ( 3886537 calls)
     Hubbard U routines
     new_ns       :    393.91s CPU    906.56s WALL (      30 calls)
     vhpsi        :   1642.91s CPU   2100.52s WALL (    3227 calls)

     PWSCF        :     8h31m CPU       10h36m WALL


   This run was terminated on:  18:38:17  15Feb2014            

=------------------------------------------------------------------------------=
   JOB DONE.
=------------------------------------------------------------------------------=
