
     Program PWSCF v.5.0.2 (svn rev. 9656) starts on 27Mar2014 at 22:35:23 

     This program is part of the open-source Quantum ESPRESSO suite
     for quantum simulation of materials; please cite
         "P. Giannozzi et al., J. Phys.:Condens. Matter 21 395502 (2009);
          URL http://www.quantum-espresso.org", 
     in publications or presentations arising from this work. More details at
     http://www.quantum-espresso.org/quote.php

     Parallel version (MPI), running on    16 processors
     R & G space division:  proc/nbgrp/npool/nimage =      16

     Current dimensions of program PWSCF are:
     Max number of different atomic species (ntypx) = 10
     Max number of k-points (npk) =  40000
     Max angular momentum in pseudopotentials (lmaxx) =  3
     Reading input from pwscf.in
Warning: card &CELL ignored
Warning: card / ignored

     Subspace diagonalization in iterative solution of the eigenvalue problem:
     a serial algorithm will be used


     Parallelization info
     --------------------
     sticks:   dense  smooth     PW     G-vecs:    dense   smooth      PW
     Min         356     114     31                84254    15234    2255
     Max         357     115     32                84261    15271    2270
     Sum        5697    1827    505              1348107   244131   36167



     bravais-lattice index     =            0
     lattice parameter (alat)  =      11.7541  a.u.
     unit-cell volume          =    7139.8207 (a.u.)^3
     number of atoms/cell      =           32
     number of atomic types    =            3
     number of electrons       =       239.00
     number of Kohn-Sham states=          358
     kinetic-energy cutoff     =      40.0000  Ry
     charge density cutoff     =     500.0000  Ry
     convergence threshold     =      1.0E-06
     mixing beta               =       0.3000
     number of iterations used =            8  plain     mixing
     Exchange-correlation      = SLA  PW   PBE  PBE ( 1 4 3 4 0)
     EXX-fraction              =        0.00
     nstep                     =           50


     celldm(1)=  11.754097  celldm(2)=   0.000000  celldm(3)=   0.000000
     celldm(4)=   0.000000  celldm(5)=   0.000000  celldm(6)=   0.000000

     crystal axes: (cart. coord. in units of alat)
               a(1) = (   1.000000   0.000000   0.000000 )  
               a(2) = (   0.000000   1.034513   0.000000 )  
               a(3) = (   0.000000   0.000000   4.249947 )  

     reciprocal axes: (cart. coord. in units 2 pi/alat)
               b(1) = (  1.000000  0.000000  0.000000 )  
               b(2) = (  0.000000  0.966638  0.000000 )  
               b(3) = (  0.000000  0.000000  0.235297 )  


     PseudoPot. # 1 for O  read from file:
     /home/camp/zhonxu/pseudo/o_pbe_v1.01.uspp.F.UPF
     MD5 check sum: 2bcb18d16ea4b960afae9ec6d52f22d2
     Pseudo is Ultrasoft + core correction, Zval =  6.0
     Generated by new atomic code, or converted to UPF format
     Using radial grid of  737 points,  5 beta functions with: 
                l(1) =   0
                l(2) =   0
                l(3) =   1
                l(4) =   1
                l(5) =   2
     Q(r) pseudized with  8 coefficients,  rinner =    0.900   0.900   0.900
                                                       0.900   0.900

     PseudoPot. # 2 for Rh read from file:
     /home/camp/zhonxu/pseudo/rh_pbe_v1.uspp.F.UPF
     MD5 check sum: 37b626987ad0dd8ec6bf4cc9ef289918
     Pseudo is Ultrasoft + core correction, Zval = 15.0
     Generated by new atomic code, or converted to UPF format
     Using radial grid of  969 points,  7 beta functions with: 
                l(1) =   0
                l(2) =   0
                l(3) =   1
                l(4) =   1
                l(5) =   2
                l(6) =   2
                l(7) =   2
     Q(r) pseudized with  6 coefficients,  rinner =    1.050   1.050   1.050
                                                       1.050   1.050

     PseudoPot. # 3 for H  read from file:
     /home/camp/zhonxu/pseudo/h_pbe_v1.uspp.F.UPF
     MD5 check sum: 3408e3ff4ec8b0a4e358431e7e038a48
     Pseudo is Ultrasoft, Zval =  1.0
     Generated by new atomic code, or converted to UPF format
     Using radial grid of  615 points,  2 beta functions with: 
                l(1) =   0
                l(2) =   0
     Q(r) pseudized with  8 coefficients,  rinner =    0.700

     atomic species   valence    mass     pseudopotential
        O0             6.00    15.99940     O ( 1.00)
        Rh1           15.00   102.90550     Rh( 1.00)
        H2             1.00     1.00794     H ( 1.00)

     Starting magnetic structure 
     atomic species   magnetization
        O0           0.000
        Rh1          0.000
        H2           0.000

     No symmetry found



   Cartesian axes

     site n.     atom                  positions (alat units)
         1           O0  tau(   1) = (   0.0000000   0.0000000   1.6092425  )
         2           O0  tau(   2) = (   0.0000000   0.5172566   1.7020614  )
         3           Rh1 tau(   3) = (   0.2500000   0.5172566   1.9209336  )
         4           Rh1 tau(   4) = (   0.0000000   0.0000000   1.9260761  )
         5           O0  tau(   5) = (   0.2500000   0.8379556   1.9243336  )
         6           O0  tau(   6) = (   0.2500000   0.1965575   1.9234411  )
         7           O0  tau(   7) = (   0.0000000   0.5172566   2.1185137  )
         8           O0  tau(   8) = (   0.0000000   0.0000000   2.2473721  )
         9           Rh1 tau(   9) = (   0.2500000   0.0000000   2.4498821  )
        10           Rh1 tau(  10) = (   0.0000000   0.5172566   2.4276124  )
        11           O0  tau(  11) = (   0.2500000   0.7138141   2.4560020  )
        12           O0  tau(  12) = (   0.2500000   0.3206991   2.4560870  )
        13           O0  tau(  13) = (   0.0000000   0.0000000   2.6421072  )
        14           O0  tau(  14) = (   0.5000000   0.0000000   1.6092425  )
        15           O0  tau(  15) = (   0.5000000   0.5172566   1.7020614  )
        16           Rh1 tau(  16) = (   0.7500000   0.5172566   1.9209336  )
        17           Rh1 tau(  17) = (   0.5000000   0.0000000   1.9260761  )
        18           O0  tau(  18) = (   0.7500000   0.8379556   1.9243336  )
        19           O0  tau(  19) = (   0.7500000   0.1965575   1.9234411  )
        20           O0  tau(  20) = (   0.5000000   0.5172566   2.1185137  )
        21           O0  tau(  21) = (   0.5000000   0.0000000   2.2473721  )
        22           Rh1 tau(  22) = (   0.7500000   0.0000000   2.4498821  )
        23           Rh1 tau(  23) = (   0.5000000   0.5172566   2.4276124  )
        24           O0  tau(  24) = (   0.7500000   0.7138141   2.4560020  )
        25           O0  tau(  25) = (   0.7500000   0.3206991   2.4560870  )
        26           O0  tau(  26) = (   0.5000000   0.0000000   2.6421072  )
        27           H2  tau(  27) = (  -0.0000700   0.6610229   1.6318947  )
        28           H2  tau(  28) = (   0.4999300   0.6610125   1.6318947  )
        29           H2  tau(  29) = (   0.1484400   0.0336527   1.5632581  )
        30           H2  tau(  30) = (   0.6484400   0.0336527   1.5632581  )
        31           O0  tau(  31) = (   0.4966100   0.5169255   2.7405785  )
        32           H2  tau(  32) = (   0.3457800   0.5171635   2.7872854  )

     number of k points=    20  Methfessel-Paxton smearing, width (Ry)=  0.0100
                       cart. coord. in units 2pi/alat
        k(    1) = (   0.0000000   0.0000000   0.0000000), wk =   0.0625000
        k(    2) = (   0.0000000   0.2416596   0.0000000), wk =   0.1250000
        k(    3) = (   0.0000000  -0.4833191   0.0000000), wk =   0.0625000
        k(    4) = (   0.2500000   0.0000000   0.0000000), wk =   0.1250000
        k(    5) = (   0.2500000   0.2416596   0.0000000), wk =   0.1250000
        k(    6) = (   0.2500000  -0.4833191   0.0000000), wk =   0.1250000
        k(    7) = (  -0.5000000   0.0000000   0.0000000), wk =   0.0625000
        k(    8) = (  -0.5000000   0.2416596   0.0000000), wk =   0.1250000
        k(    9) = (  -0.5000000  -0.4833191   0.0000000), wk =   0.0625000
        k(   10) = (  -0.2500000   0.2416596   0.0000000), wk =   0.1250000
        k(   11) = (   0.0000000   0.0000000   0.0000000), wk =   0.0625000
        k(   12) = (   0.0000000   0.2416596   0.0000000), wk =   0.1250000
        k(   13) = (   0.0000000  -0.4833191   0.0000000), wk =   0.0625000
        k(   14) = (   0.2500000   0.0000000   0.0000000), wk =   0.1250000
        k(   15) = (   0.2500000   0.2416596   0.0000000), wk =   0.1250000
        k(   16) = (   0.2500000  -0.4833191   0.0000000), wk =   0.1250000
        k(   17) = (  -0.5000000   0.0000000   0.0000000), wk =   0.0625000
        k(   18) = (  -0.5000000   0.2416596   0.0000000), wk =   0.1250000
        k(   19) = (  -0.5000000  -0.4833191   0.0000000), wk =   0.0625000
        k(   20) = (  -0.2500000   0.2416596   0.0000000), wk =   0.1250000

     Dense  grid:  1348107 G-vectors     FFT dimensions: (  90,  90, 360)

     Smooth grid:   244131 G-vectors     FFT dimensions: (  48,  50, 216)

     Largest allocated arrays     est. size (Mb)     dimensions
        Kohn-Sham Wavefunctions        10.69 Mb     (   1957,  358)
        NL pseudopotentials            13.17 Mb     (   1957,  441)
        Each V/rho on FFT grid          5.69 Mb     ( 186300,   2)
        Each G-vector array             0.64 Mb     (  84258)
        G-vector shells                 0.31 Mb     (  41027)
     Largest temporary arrays     est. size (Mb)     dimensions
        Auxiliary wavefunctions        42.76 Mb     (   1957, 1432)
        Each subspace H/S matrix       31.29 Mb     (1432,1432)
        Each <psi_i|beta_j> matrix      2.41 Mb     (    441,  358)
        Arrays for rho mixing          22.74 Mb     ( 186300,   8)

     Check: negative/imaginary core charge=   -0.000003    0.000000

     Initial potential from superposition of free atoms
     Check: negative starting charge=(component1):   -0.321436
     Check: negative starting charge=(component2):   -0.321436

     starting charge  234.99914, renormalised to  239.00000

     negative rho (up, down):  0.327E+00 0.327E+00
     Starting wfc are  177 randomized atomic wfcs

     total cpu time spent up to now is      144.6 secs

     per-process dynamical memory:   305.0 Mb

     Self-consistent Calculation

     iteration #  1     ecut=    40.00 Ry     beta=0.30
     Davidson diagonalization with overlap
     ethr =  1.00E-02,  avg # of iterations =  5.8

     negative rho (up, down):  0.331E+00 0.331E+00

     total cpu time spent up to now is     1305.2 secs

     total energy              =   -1975.12051529 Ry
     Harris-Foulkes estimate   =   -1984.89012265 Ry
     estimated scf accuracy    <      20.72561624 Ry

     total magnetization       =     0.00 Bohr mag/cell
     absolute magnetization    =     0.01 Bohr mag/cell

     iteration #  2     ecut=    40.00 Ry     beta=0.30
     Davidson diagonalization with overlap
     ethr =  8.67E-03,  avg # of iterations =  3.0

     negative rho (up, down):  0.334E+00 0.334E+00

     total cpu time spent up to now is     1788.7 secs

     total energy              =   -1967.08688925 Ry
     Harris-Foulkes estimate   =   -1996.37402760 Ry
     estimated scf accuracy    <     320.28680177 Ry

     total magnetization       =    -0.00 Bohr mag/cell
     absolute magnetization    =     0.01 Bohr mag/cell

     iteration #  3     ecut=    40.00 Ry     beta=0.30
     Davidson diagonalization with overlap
     ethr =  8.67E-03,  avg # of iterations =  3.0

     negative rho (up, down):  0.336E+00 0.336E+00

     total cpu time spent up to now is     2294.2 secs

     total energy              =   -1978.19668563 Ry
     Harris-Foulkes estimate   =   -1983.69530532 Ry
     estimated scf accuracy    <      58.43706767 Ry

     total magnetization       =    -0.00 Bohr mag/cell
     absolute magnetization    =     0.00 Bohr mag/cell

     iteration #  4     ecut=    40.00 Ry     beta=0.30
     Davidson diagonalization with overlap
     ethr =  8.67E-03,  avg # of iterations =  2.0

     negative rho (up, down):  0.338E+00 0.338E+00

     total cpu time spent up to now is     2714.4 secs

     total energy              =   -1981.41300959 Ry
     Harris-Foulkes estimate   =   -1982.32196861 Ry
     estimated scf accuracy    <       5.88604176 Ry

     total magnetization       =    -0.00 Bohr mag/cell
     absolute magnetization    =     0.00 Bohr mag/cell

     iteration #  5     ecut=    40.00 Ry     beta=0.30
     Davidson diagonalization with overlap
     ethr =  2.46E-03,  avg # of iterations =  1.1

     negative rho (up, down):  0.339E+00 0.339E+00

     total cpu time spent up to now is     3088.6 secs

     total energy              =   -1981.62511239 Ry
     Harris-Foulkes estimate   =   -1981.82229075 Ry
     estimated scf accuracy    <       1.44304510 Ry

     total magnetization       =     0.00 Bohr mag/cell
     absolute magnetization    =     0.00 Bohr mag/cell

     iteration #  6     ecut=    40.00 Ry     beta=0.30
     Davidson diagonalization with overlap
     ethr =  6.04E-04,  avg # of iterations =  3.3

     negative rho (up, down):  0.340E+00 0.340E+00

     total cpu time spent up to now is     3514.4 secs

     total energy              =   -1981.65492630 Ry
     Harris-Foulkes estimate   =   -1981.75900566 Ry
     estimated scf accuracy    <       1.55092190 Ry

     total magnetization       =     0.00 Bohr mag/cell
     absolute magnetization    =     0.00 Bohr mag/cell

     iteration #  7     ecut=    40.00 Ry     beta=0.30
     Davidson diagonalization with overlap
     ethr =  6.04E-04,  avg # of iterations =  1.0

     negative rho (up, down):  0.341E+00 0.341E+00

     total cpu time spent up to now is     3882.2 secs

     total energy              =   -1981.61715242 Ry
     Harris-Foulkes estimate   =   -1981.69155031 Ry
     estimated scf accuracy    <       0.60202702 Ry

     total magnetization       =     0.00 Bohr mag/cell
     absolute magnetization    =     0.00 Bohr mag/cell

     iteration #  8     ecut=    40.00 Ry     beta=0.30
     Davidson diagonalization with overlap
     ethr =  2.52E-04,  avg # of iterations =  2.1

     negative rho (up, down):  0.342E+00 0.342E+00

     total cpu time spent up to now is     4281.7 secs

     total energy              =   -1981.59016157 Ry
     Harris-Foulkes estimate   =   -1981.65811231 Ry
     estimated scf accuracy    <       0.61896108 Ry

     total magnetization       =     0.00 Bohr mag/cell
     absolute magnetization    =     0.00 Bohr mag/cell

     iteration #  9     ecut=    40.00 Ry     beta=0.30
     Davidson diagonalization with overlap
     ethr =  2.52E-04,  avg # of iterations =  1.0

     negative rho (up, down):  0.343E+00 0.343E+00

     total cpu time spent up to now is     4650.4 secs

     total energy              =   -1981.60636270 Ry
     Harris-Foulkes estimate   =   -1981.63070287 Ry
     estimated scf accuracy    <       0.19199679 Ry

     total magnetization       =     0.00 Bohr mag/cell
     absolute magnetization    =     0.00 Bohr mag/cell

     iteration # 10     ecut=    40.00 Ry     beta=0.30
     Davidson diagonalization with overlap
     ethr =  8.03E-05,  avg # of iterations =  6.8

     negative rho (up, down):  0.344E+00 0.344E+00

     total cpu time spent up to now is     5177.1 secs

     total energy              =   -1981.61094212 Ry
     Harris-Foulkes estimate   =   -1981.62441438 Ry
     estimated scf accuracy    <       0.11931942 Ry

     total magnetization       =     0.00 Bohr mag/cell
     absolute magnetization    =     0.00 Bohr mag/cell

     iteration # 11     ecut=    40.00 Ry     beta=0.30
     Davidson diagonalization with overlap
     ethr =  4.99E-05,  avg # of iterations =  2.0

     negative rho (up, down):  0.344E+00 0.344E+00

     total cpu time spent up to now is     5580.0 secs

     total energy              =   -1981.61319212 Ry
     Harris-Foulkes estimate   =   -1981.62351827 Ry
     estimated scf accuracy    <       0.07882627 Ry

     total magnetization       =     0.00 Bohr mag/cell
     absolute magnetization    =     0.00 Bohr mag/cell

     iteration # 12     ecut=    40.00 Ry     beta=0.30
     Davidson diagonalization with overlap
     ethr =  3.30E-05,  avg # of iterations =  1.1

     negative rho (up, down):  0.344E+00 0.344E+00

     total cpu time spent up to now is     5956.6 secs

     total energy              =   -1981.61036720 Ry
     Harris-Foulkes estimate   =   -1981.62071699 Ry
     estimated scf accuracy    <       0.07393947 Ry

     total magnetization       =     0.00 Bohr mag/cell
     absolute magnetization    =     0.00 Bohr mag/cell

     iteration # 13     ecut=    40.00 Ry     beta=0.30
     Davidson diagonalization with overlap
     ethr =  3.09E-05,  avg # of iterations =  4.3

     negative rho (up, down):  0.345E+00 0.345E+00

     total cpu time spent up to now is     6422.1 secs

     total energy              =   -1981.60424579 Ry
     Harris-Foulkes estimate   =   -1981.63203205 Ry
     estimated scf accuracy    <       0.78017122 Ry

     total magnetization       =     0.00 Bohr mag/cell
     absolute magnetization    =     0.00 Bohr mag/cell

     iteration # 14     ecut=    40.00 Ry     beta=0.30
     Davidson diagonalization with overlap
     ethr =  3.09E-05,  avg # of iterations =  2.7

     negative rho (up, down):  0.345E+00 0.345E+00

     total cpu time spent up to now is     6835.4 secs

     total energy              =   -1981.61673894 Ry
     Harris-Foulkes estimate   =   -1981.62027169 Ry
     estimated scf accuracy    <       0.02605053 Ry

     total magnetization       =     0.00 Bohr mag/cell
     absolute magnetization    =     0.00 Bohr mag/cell

     iteration # 15     ecut=    40.00 Ry     beta=0.30
     Davidson diagonalization with overlap
     ethr =  1.09E-05,  avg # of iterations =  2.8

     negative rho (up, down):  0.345E+00 0.345E+00

     total cpu time spent up to now is     7252.6 secs

     total energy              =   -1981.61794594 Ry
     Harris-Foulkes estimate   =   -1981.61935118 Ry
     estimated scf accuracy    <       0.01132399 Ry

     total magnetization       =     0.00 Bohr mag/cell
     absolute magnetization    =     0.00 Bohr mag/cell

     iteration # 16     ecut=    40.00 Ry     beta=0.30
     Davidson diagonalization with overlap
     ethr =  4.74E-06,  avg # of iterations =  3.1

     negative rho (up, down):  0.346E+00 0.346E+00

     total cpu time spent up to now is     7673.8 secs

     total energy              =   -1981.61853217 Ry
     Harris-Foulkes estimate   =   -1981.61880981 Ry
     estimated scf accuracy    <       0.00252639 Ry

     total magnetization       =     0.00 Bohr mag/cell
     absolute magnetization    =     0.00 Bohr mag/cell

     iteration # 17     ecut=    40.00 Ry     beta=0.30
     Davidson diagonalization with overlap
     ethr =  1.06E-06,  avg # of iterations =  7.3

     negative rho (up, down):  0.346E+00 0.346E+00

     total cpu time spent up to now is     8207.3 secs

     total energy              =   -1981.61862710 Ry
     Harris-Foulkes estimate   =   -1981.61878118 Ry
     estimated scf accuracy    <       0.00141061 Ry

     total magnetization       =     0.00 Bohr mag/cell
     absolute magnetization    =     0.00 Bohr mag/cell

     iteration # 18     ecut=    40.00 Ry     beta=0.30
     Davidson diagonalization with overlap
     ethr =  5.90E-07,  avg # of iterations =  1.5

     negative rho (up, down):  0.346E+00 0.346E+00

     total cpu time spent up to now is     8596.8 secs

     total energy              =   -1981.61867721 Ry
     Harris-Foulkes estimate   =   -1981.61875322 Ry
     estimated scf accuracy    <       0.00071553 Ry

     total magnetization       =     0.00 Bohr mag/cell
     absolute magnetization    =     0.00 Bohr mag/cell

     iteration # 19     ecut=    40.00 Ry     beta=0.30
     Davidson diagonalization with overlap
     ethr =  2.99E-07,  avg # of iterations =  1.0

     negative rho (up, down):  0.346E+00 0.346E+00

     total cpu time spent up to now is     8974.9 secs

     total energy              =   -1981.61871857 Ry
     Harris-Foulkes estimate   =   -1981.61872618 Ry
     estimated scf accuracy    <       0.00006134 Ry

     total magnetization       =     0.00 Bohr mag/cell
     absolute magnetization    =     0.00 Bohr mag/cell

     iteration # 20     ecut=    40.00 Ry     beta=0.30
     Davidson diagonalization with overlap
     ethr =  2.57E-08,  avg # of iterations =  1.0

     negative rho (up, down):  0.346E+00 0.346E+00

     total cpu time spent up to now is     9352.5 secs

     total energy              =   -1981.61871938 Ry
     Harris-Foulkes estimate   =   -1981.61872498 Ry
     estimated scf accuracy    <       0.00003489 Ry

     total magnetization       =     0.00 Bohr mag/cell
     absolute magnetization    =     0.00 Bohr mag/cell

     iteration # 21     ecut=    40.00 Ry     beta=0.30
     Davidson diagonalization with overlap
     ethr =  1.46E-08,  avg # of iterations =  1.0

     negative rho (up, down):  0.346E+00 0.346E+00

     total cpu time spent up to now is     9741.5 secs

     total energy              =   -1981.61872042 Ry
     Harris-Foulkes estimate   =   -1981.61872596 Ry
     estimated scf accuracy    <       0.00006764 Ry

     total magnetization       =     0.00 Bohr mag/cell
     absolute magnetization    =     0.00 Bohr mag/cell

     iteration # 22     ecut=    40.00 Ry     beta=0.30
     Davidson diagonalization with overlap
     ethr =  1.46E-08,  avg # of iterations =  1.0

     negative rho (up, down):  0.346E+00 0.346E+00

     total cpu time spent up to now is    10119.4 secs

     total energy              =   -1981.61872313 Ry
     Harris-Foulkes estimate   =   -1981.61872443 Ry
     estimated scf accuracy    <       0.00000899 Ry

     total magnetization       =     0.00 Bohr mag/cell
     absolute magnetization    =     0.00 Bohr mag/cell

     iteration # 23     ecut=    40.00 Ry     beta=0.30
     Davidson diagonalization with overlap
     ethr =  3.76E-09,  avg # of iterations =  1.0

     negative rho (up, down):  0.346E+00 0.346E+00

     total cpu time spent up to now is    10497.3 secs

     total energy              =   -1981.61872302 Ry
     Harris-Foulkes estimate   =   -1981.61872413 Ry
     estimated scf accuracy    <       0.00001032 Ry

     total magnetization       =     0.00 Bohr mag/cell
     absolute magnetization    =     0.00 Bohr mag/cell

     iteration # 24     ecut=    40.00 Ry     beta=0.30
     Davidson diagonalization with overlap
     ethr =  3.76E-09,  avg # of iterations =  1.0

     negative rho (up, down):  0.346E+00 0.346E+00

     total cpu time spent up to now is    10874.6 secs

     total energy              =   -1981.61872303 Ry
     Harris-Foulkes estimate   =   -1981.61872441 Ry
     estimated scf accuracy    <       0.00002535 Ry

     total magnetization       =     0.00 Bohr mag/cell
     absolute magnetization    =     0.00 Bohr mag/cell

     iteration # 25     ecut=    40.00 Ry     beta=0.30
     Davidson diagonalization with overlap
     ethr =  3.76E-09,  avg # of iterations =  1.0

     negative rho (up, down):  0.346E+00 0.346E+00

     total cpu time spent up to now is    11251.8 secs

     total energy              =   -1981.61872357 Ry
     Harris-Foulkes estimate   =   -1981.61872396 Ry
     estimated scf accuracy    <       0.00000329 Ry

     total magnetization       =     0.00 Bohr mag/cell
     absolute magnetization    =     0.00 Bohr mag/cell

     iteration # 26     ecut=    40.00 Ry     beta=0.30
     Davidson diagonalization with overlap
     ethr =  1.38E-09,  avg # of iterations =  1.0

     negative rho (up, down):  0.346E+00 0.346E+00

     total cpu time spent up to now is    11629.6 secs

     End of self-consistent calculation

 ------ SPIN UP ------------


          k = 0.0000 0.0000 0.0000 ( 30479 PWs)   bands (ev):

   -49.6301 -49.5213 -49.5104 -49.4990 -49.4811 -49.4523 -49.4341 -49.4330
   -49.3867 -49.3729 -49.3209 -49.2892 -49.2824 -49.2615 -49.2439 -49.2403
   -49.2309 -49.2080 -49.1286 -49.1162 -49.0892 -49.0755 -49.0697 -48.9815
   -21.6339 -21.1850 -21.1465 -21.0090 -20.6079 -20.5315 -20.3487 -20.2801
   -20.2276 -20.2199 -20.1233 -20.0444 -20.0036 -19.9879 -19.7753 -19.7153
   -19.6870 -18.9510 -18.8268  -9.9336  -9.8667  -9.6895  -9.0023  -8.7869
    -8.7725  -8.6952  -8.6129  -8.6024  -8.5138  -8.4998  -8.3200  -8.2657
    -8.2330  -8.0823  -8.0528  -7.9372  -7.9068  -7.7581  -7.6362  -7.4155
    -7.1928  -7.1093  -7.0302  -6.6727  -6.6302  -6.5989  -6.5260  -6.1348
    -5.9962  -5.8451  -5.7976  -5.7731  -5.5268  -5.4564  -5.3989  -5.3775
    -5.3351  -5.2745  -5.2381  -5.0734  -5.0092  -4.8588  -4.7440  -4.7201
    -4.6958  -4.5618  -4.5186  -4.4726  -4.3167  -4.2758  -3.9693  -3.9567
    -3.9309  -3.9213  -3.7843  -3.7419  -3.6907  -3.6012  -3.4596  -3.3683
    -3.2772  -3.2183  -3.2100  -3.1580  -3.1343  -3.0795  -2.8684  -2.7173
    -2.6374  -2.5088  -2.4430  -2.2081  -2.2054  -1.9895  -1.7162  -1.6694
    -1.6099  -1.4167  -1.3217  -1.1513  -1.0552  -0.4987   0.0954   0.1226
     0.2650   0.2946   0.4205   0.5636   0.8023   1.0737   1.4110   1.7146
     1.7264   1.8358   2.1241   2.3071   2.9866   3.5883   4.1653   4.6165
     4.9085   5.7110   5.7484   6.0409   6.1601   6.6665   6.8344   7.0361
     7.2219   7.3781   7.5450   7.7306   7.8163   7.8786   7.8951   7.9365
     7.9609   8.1036   8.1428   8.1823   8.2366   8.2818   8.4036   8.4552
     8.5145   8.5520   8.6698   8.8236   8.9213   8.9909   9.1140   9.2186
     9.2862   9.4286   9.4696   9.5917   9.6857   9.7332  10.0000  10.0494
    10.2885  10.3734  10.4656  10.5368  10.6691  10.7226  10.8219  10.8566
    10.9803  11.0103  11.1107  11.1450  11.1979  11.2711  11.4139  11.5647
    11.6353  11.6743  11.6766  11.7004  11.7151  11.7429  11.7902  11.9749
    11.9917  12.0524  12.0924  12.1170  12.1438  12.1811  12.2970  12.3708
    12.4318  12.4397  12.5335  12.6043  12.6803  12.7726  12.7779  12.8532
    12.8947  13.0275  13.0876  13.2998  13.3789  13.4957  13.5749  13.6079
    13.6825  13.7334  13.7991  13.8999  13.9813  14.1072  14.2039  14.2113
    14.3091  14.3855  14.5460  14.5870  14.7346  14.8094  15.0345  15.1067
    15.1540  15.1945  15.3180  15.4828  15.5321  15.6026  15.6683  15.7723
    15.7979  15.8224  15.8756  15.9963  16.2128  16.2286  16.4038  16.5229
    16.6354  16.6692  16.7671  16.9397  16.9518  16.9848  17.0929  17.1290
    17.1994  17.4122  17.4677  17.5311  17.5791  17.6850  17.8212  17.9011
    18.0143  18.0616  18.1840  18.2098  18.2823  18.2887  18.3955  18.4242
    18.4336  18.4978  18.6781  18.7077  18.7223  18.8247  18.9391  18.9843
    19.0355  19.1206  19.2115  19.2548  19.2741  19.3332  19.4089  19.5068
    19.5311  19.5954  19.6437  19.6943  19.7440  19.7850  19.8863  19.9015
    19.9437  19.9504  20.0563  20.1149  20.1603  20.1874  20.2699  20.4165
    20.4376  20.4757  20.5586  20.5851  20.6475  20.8440  20.8959  21.0024
    21.0561  21.0826  21.1304  21.2377  21.3731  21.4050  21.4806  21.4963
    21.6050  21.6192  21.6614  21.7230  21.8267  21.8605  21.8942  22.0262
    22.1596  22.2277  22.2987  22.3611  22.3866  22.3977  22.4295  22.4767
    22.4952  22.5185  22.5334  22.6113  22.6519  22.7597

          k = 0.0000 0.2417 0.0000 ( 30538 PWs)   bands (ev):

   -49.6302 -49.5202 -49.5128 -49.4995 -49.4790 -49.4523 -49.4346 -49.4340
   -49.3865 -49.3729 -49.3194 -49.2888 -49.2824 -49.2613 -49.2440 -49.2421
   -49.2315 -49.2079 -49.1286 -49.1163 -49.0892 -49.0756 -49.0698 -48.9818
   -21.5855 -21.1826 -21.0733 -20.9707 -20.6026 -20.5370 -20.4342 -20.3437
   -20.2819 -20.1332 -20.0946 -20.0449 -20.0013 -19.9742 -19.8678 -19.7650
   -19.7158 -18.9514 -18.8228  -9.7513  -9.5183  -9.4369  -9.1521  -8.8012
    -8.7571  -8.6428  -8.6164  -8.6112  -8.5063  -8.4526  -8.3249  -8.2607
    -8.2293  -8.2173  -8.0818  -8.0539  -7.8169  -7.6395  -7.3964  -7.2515
    -7.1375  -7.0452  -6.7509  -6.6871  -6.5961  -6.5589  -6.5104  -6.4519
    -6.2864  -6.2368  -6.0080  -5.7752  -5.7023  -5.6620  -5.6339  -5.4887
    -5.3253  -5.2859  -5.2374  -5.2045  -5.1048  -5.0330  -4.9572  -4.8184
    -4.7562  -4.6538  -4.5460  -4.4782  -4.3438  -4.1869  -4.0918  -3.9131
    -3.8148  -3.6743  -3.5242  -3.4744  -3.4517  -3.3780  -3.3602  -3.3243
    -3.2550  -3.2150  -3.2065  -3.1596  -3.1522  -3.0353  -3.0042  -2.9531
    -2.8313  -2.7407  -2.4698  -2.2284  -2.1949  -1.7652  -1.6761  -1.6409
    -1.5361  -1.3745  -1.3035  -1.1931  -1.0742  -0.7207  -0.5680  -0.2167
     0.1303   0.3519   0.8340   1.0723   1.3052   1.4513   1.5374   1.6481
     1.6811   1.7626   2.1255   2.1586   3.2856   3.7800   4.3964   4.8155
     5.1293   5.2379   5.7747   5.9891   6.2203   6.2920   6.3213   6.6924
     6.9632   6.9751   7.1306   7.3024   7.5313   7.6193   7.7206   7.8428
     8.1290   8.1695   8.2941   8.3251   8.4380   8.5153   8.6621   8.7090
     8.7466   8.8796   8.9892   9.0259   9.1008   9.2906   9.3131   9.4848
     9.5276   9.5751   9.6068   9.7305   9.8004   9.8564   9.9803  10.0582
    10.1376  10.1740  10.2834  10.3555  10.4288  10.4396  10.5881  10.6999
    10.7154  10.8140  10.8593  10.9094  10.9903  11.2045  11.2383  11.2872
    11.3660  11.4407  11.5085  11.5890  11.7912  11.9148  11.9446  12.0004
    12.1091  12.1837  12.2413  12.2719  12.3231  12.4222  12.5591  12.5716
    12.7139  12.8109  12.8452  12.9128  12.9722  13.0788  13.1634  13.2993
    13.4593  13.5465  13.5615  13.6479  13.7615  13.7842  13.8290  13.8880
    13.9043  13.9754  14.0746  14.1090  14.1558  14.2574  14.3424  14.4153
    14.4403  14.5528  14.6159  14.7165  14.7665  14.8521  14.9066  15.1305
    15.1677  15.2175  15.2585  15.3406  15.5088  15.5308  15.6312  15.7305
    15.8039  15.8602  15.8919  15.9108  15.9801  16.0248  16.1706  16.3061
    16.3491  16.4485  16.5197  16.5979  16.7052  16.7602  16.8506  16.9161
    16.9808  17.0258  17.1074  17.1324  17.2555  17.3563  17.4730  17.5038
    17.7150  17.8200  17.9175  17.9751  17.9986  18.0331  18.2149  18.3074
    18.3646  18.3861  18.4584  18.4958  18.5932  18.6747  18.7710  18.8173
    18.9053  18.9425  19.0509  19.0880  19.1712  19.2608  19.3244  19.3692
    19.4463  19.4779  19.5462  19.5864  19.6169  19.6530  19.6956  19.7804
    19.8924  19.9238  19.9449  19.9982  20.0266  20.0686  20.0929  20.1778
    20.2869  20.3175  20.4055  20.4260  20.4832  20.5112  20.6078  20.6697
    20.7615  20.8858  20.9123  21.0027  21.0294  21.0714  21.1007  21.1642
    21.2056  21.2749  21.3156  21.3457  21.4129  21.5094  21.5771  21.6904
    21.7159  21.7646  21.8255  21.8781  21.9157  21.9784  22.0008  22.0684
    22.0971  22.2500  22.3137  22.3372  22.4034  22.4359

          k = 0.0000-0.4833 0.0000 ( 30492 PWs)   bands (ev):

   -49.6301 -49.5190 -49.5145 -49.4998 -49.4771 -49.4522 -49.4358 -49.4341
   -49.3862 -49.3727 -49.3177 -49.2880 -49.2823 -49.2611 -49.2443 -49.2440
   -49.2317 -49.2077 -49.1286 -49.1162 -49.0891 -49.0755 -49.0697 -48.9819
   -21.5346 -21.1809 -20.9907 -20.9126 -20.5888 -20.5078 -20.4871 -20.4196
   -20.3842 -20.0854 -20.0785 -20.0545 -19.9969 -19.9873 -19.9392 -19.8226
   -19.7162 -18.9518 -18.8195  -9.7242  -9.2717  -9.0094  -8.8592  -8.8197
    -8.7955  -8.6707  -8.6053  -8.5865  -8.4041  -8.3770  -8.3151  -8.2533
    -8.2244  -8.1741  -8.0570  -8.0229  -7.8492  -7.5425  -7.3313  -7.3128
    -7.2647  -7.1356  -7.0417  -6.9717  -6.6772  -6.5069  -6.4448  -6.3966
    -6.2908  -6.1409  -6.1201  -5.9951  -5.9361  -5.8597  -5.8087  -5.7188
    -5.6587  -5.3030  -5.2350  -5.1790  -5.1562  -5.0396  -4.9541  -4.6785
    -4.6010  -4.5418  -4.4990  -4.3874  -4.3127  -4.2043  -4.1913  -3.8639
    -3.8255  -3.7489  -3.6803  -3.6749  -3.4914  -3.4487  -3.4211  -3.3472
    -3.2520  -3.2223  -3.2186  -3.1241  -2.9968  -2.8714  -2.8008  -2.7530
    -2.7422  -2.6738  -2.4297  -2.2288  -2.1509  -2.0700  -1.7969  -1.6819
    -1.4562  -1.3446  -1.2501  -1.2192  -1.0950  -1.0094  -0.9737   0.0301
     0.1576   0.6863   0.8833   1.0710   1.3548   1.4449   1.6413   1.6758
     1.8111   1.9315   2.1237   2.1324   3.8256   4.0776   4.4004   5.0664
     5.1306   5.2513   5.4964   5.7036   5.8026   6.0641   6.4463   6.4944
     6.5306   6.7271   7.0155   7.2682   7.3539   7.4625   7.5376   7.9821
     8.0968   8.1656   8.5612   8.6451   8.7254   8.7345   8.7739   8.9332
     8.9411   8.9698   9.0677   9.0721   9.0892   9.1597   9.1782   9.2383
     9.2994   9.3820   9.5069   9.5294   9.5938   9.8039   9.8584   9.9903
    10.0153  10.1662  10.3191  10.3567  10.4204  10.5059  10.6018  10.7797
    10.8857  10.9310  11.0348  11.0692  11.2318  11.2743  11.3963  11.4376
    11.5083  11.5296  11.7147  11.8210  11.9024  11.9510  12.0114  12.2120
    12.3039  12.3521  12.3830  12.4819  12.5725  12.7161  12.7450  12.8579
    12.9267  12.9375  12.9885  13.0082  13.1097  13.1380  13.2487  13.3038
    13.3403  13.3896  13.4321  13.4963  13.5936  13.7167  13.7628  13.8127
    13.9052  14.0541  14.1027  14.1631  14.2206  14.3539  14.5000  14.5094
    14.6395  14.6832  14.8595  14.9465  15.1168  15.1527  15.1857  15.2266
    15.2856  15.3547  15.4473  15.5097  15.5653  15.6086  15.7857  15.8280
    15.8726  15.9476  16.1171  16.1820  16.3015  16.3034  16.3192  16.3398
    16.3941  16.4228  16.4786  16.4906  16.5481  16.5771  16.7670  16.8106
    16.8903  16.9181  17.0176  17.0787  17.1139  17.2778  17.3090  17.4249
    17.4323  17.4810  17.5472  17.6050  17.6646  17.7362  17.8422  17.8751
    17.8809  17.9317  18.0228  18.1237  18.1593  18.2251  18.2539  18.3045
    18.3788  18.4312  18.4613  18.5663  18.6067  18.6287  18.7656  18.8322
    18.9344  19.0907  19.1942  19.4080  19.4196  19.5172  19.5498  19.5833
    19.6014  19.6974  19.8273  19.8978  20.0790  20.1057  20.2382  20.2678
    20.2972  20.3482  20.3947  20.4369  20.5059  20.5337  20.5705  20.5839
    20.6007  20.6503  20.7090  20.7420  20.7561  20.7955  20.8320  20.8802
    20.9263  21.0464  21.1727  21.1883  21.2004  21.2048  21.2661  21.4164
    21.4394  21.5081  21.5274  21.5708  21.5909  21.6210  21.6451  21.7412
    21.7793  21.9167  22.0125  22.1442  22.2324  22.2818

          k = 0.2500 0.0000 0.0000 ( 30502 PWs)   bands (ev):

   -49.6301 -49.5200 -49.5118 -49.4833 -49.4743 -49.4517 -49.4345 -49.4329
   -49.4011 -49.3569 -49.3208 -49.2912 -49.2823 -49.2778 -49.2512 -49.2399
   -49.2309 -49.1947 -49.1341 -49.1144 -49.0868 -49.0858 -49.0720 -48.9816
   -21.5413 -21.2053 -21.0654 -20.9202 -20.6954 -20.5468 -20.4292 -20.3876
   -20.1681 -20.1642 -20.0625 -20.0243 -19.9908 -19.9621 -19.8440 -19.7533
   -19.7456 -18.9814 -18.8778  -9.7625  -9.7014  -9.5395  -9.1065  -8.8645
    -8.7678  -8.6993  -8.6057  -8.6022  -8.5634  -8.4905  -8.4613  -8.2823
    -8.1180  -8.0151  -7.9663  -7.8365  -7.7896  -7.5835  -7.5095  -7.4226
    -7.2458  -7.1739  -7.0449  -6.7456  -6.5479  -6.4197  -6.3025  -6.2161
    -6.1365  -5.9890  -5.9555  -5.9013  -5.8795  -5.7471  -5.7100  -5.5421
    -5.4191  -5.3066  -5.1744  -5.1350  -5.0455  -5.0355  -4.9558  -4.7965
    -4.7446  -4.7135  -4.6577  -4.5871  -4.5131  -4.3345  -4.2382  -4.0235
    -3.8338  -3.7042  -3.6161  -3.5983  -3.5039  -3.4584  -3.4045  -3.3131
    -3.2910  -3.2161  -2.9840  -2.9141  -2.8311  -2.7897  -2.7039  -2.6063
    -2.4448  -2.4132  -2.3253  -2.1740  -2.1061  -1.9214  -1.8937  -1.7861
    -1.6480  -1.5402  -1.3227  -1.1792  -1.1422  -0.3494   0.1729   0.2206
     0.4070   0.4332   0.4518   0.5796   0.7550   0.8763   1.4147   1.4399
     1.5050   1.6692   1.7137   2.2042   3.3294   3.8704   4.4177   4.8566
     5.1787   5.2308   5.8379   5.9677   6.2782   6.3380   6.4165   6.7204
     6.9931   7.1549   7.3214   7.5081   7.6198   7.7049   7.7287   7.9341
     7.9987   8.0983   8.1261   8.2793   8.3329   8.4407   8.5513   8.5734
     8.7240   8.7730   8.8146   9.0667   9.1573   9.2343   9.3162   9.4363
     9.4799   9.5886   9.6697   9.7634   9.9428   9.9585  10.0448  10.0962
    10.1503  10.2386  10.2974  10.3584  10.4258  10.5294  10.5450  10.6300
    10.7537  10.8672  10.9020  10.9870  11.0354  11.0717  11.2247  11.2523
    11.3219  11.4072  11.4867  11.5494  11.6681  11.7621  11.8317  11.9087
    12.0513  12.0982  12.1581  12.2735  12.3832  12.4473  12.5505  12.5628
    12.6578  12.8083  12.8349  12.8797  12.9864  13.1837  13.2914  13.3284
    13.4381  13.5662  13.6127  13.6562  13.8062  13.8372  13.8706  13.8889
    14.0053  14.0491  14.1015  14.1718  14.2053  14.2933  14.3869  14.4060
    14.4606  14.5651  14.6337  14.6782  14.8299  14.9036  15.1384  15.2160
    15.2609  15.3401  15.3944  15.5179  15.5572  15.5946  15.6081  15.6826
    15.7859  15.8475  15.9719  16.0145  16.0471  16.1009  16.1766  16.2380
    16.3054  16.3526  16.4474  16.5027  16.6117  16.6955  16.8979  16.9339
    17.0080  17.1235  17.2069  17.2711  17.3182  17.4332  17.5410  17.6609
    17.7195  17.7458  17.8055  17.9192  18.0088  18.1121  18.1313  18.2373
    18.3319  18.3945  18.6046  18.6426  18.7783  18.8442  18.8761  18.9361
    19.0094  19.0670  19.0802  19.1264  19.1844  19.2886  19.3252  19.3748
    19.4180  19.4674  19.4887  19.5891  19.6027  19.6553  19.7001  19.7494
    19.7731  19.8120  19.8544  19.8959  19.9452  20.0359  20.0964  20.2447
    20.2596  20.3150  20.3650  20.3909  20.4450  20.4870  20.5455  20.5654
    20.6526  20.7075  20.7527  20.8309  20.8708  20.9076  20.9216  21.0072
    21.0780  21.1605  21.2115  21.2551  21.3257  21.3518  21.4324  21.5147
    21.5312  21.5812  21.6340  21.6908  21.7363  21.7894  21.8963  21.9718
    22.0434  22.0793  22.1004  22.1735  22.2233  22.2815

          k = 0.2500 0.2417 0.0000 ( 30481 PWs)   bands (ev):

   -49.6301 -49.5191 -49.5130 -49.4835 -49.4728 -49.4517 -49.4346 -49.4341
   -49.4012 -49.3567 -49.3192 -49.2902 -49.2823 -49.2777 -49.2511 -49.2415
   -49.2316 -49.1945 -49.1341 -49.1144 -49.0868 -49.0858 -49.0721 -48.9818
   -21.5021 -21.2028 -20.9959 -20.8725 -20.6779 -20.5495 -20.4168 -20.3728
   -20.2224 -20.2056 -20.1144 -20.0223 -19.9814 -19.9643 -19.9267 -19.8150
   -19.7467 -18.9820 -18.8744  -9.6030  -9.3649  -9.2808  -9.1412  -8.7911
    -8.6810  -8.6437  -8.6132  -8.5916  -8.5296  -8.4586  -8.4059  -8.3476
    -8.1589  -8.0118  -7.9134  -7.8235  -7.7716  -7.5336  -7.4491  -7.3220
    -7.2505  -7.2206  -7.0795  -6.7194  -6.5709  -6.4269  -6.4017  -6.2463
    -6.2115  -6.1272  -6.1123  -6.0837  -6.0483  -5.9295  -5.7697  -5.7246
    -5.7027  -5.6131  -5.3917  -5.3116  -5.2781  -5.0005  -4.9465  -4.9208
    -4.8028  -4.6487  -4.6294  -4.4791  -4.3830  -4.3009  -4.1115  -4.0062
    -3.7479  -3.6659  -3.5640  -3.5463  -3.3833  -3.2482  -3.2229  -3.1586
    -3.1059  -3.0743  -2.9536  -2.9305  -2.9091  -2.8417  -2.7756  -2.7044
    -2.6003  -2.5808  -2.4196  -2.1734  -1.9262  -1.8738  -1.7678  -1.7152
    -1.6847  -1.5351  -1.3981  -1.3396  -0.9744  -0.4867  -0.3457  -0.1120
     0.2521   0.3641   0.6954   0.8196   1.1777   1.2549   1.3705   1.4178
     1.5884   1.7220   1.7734   2.1361   3.6072   4.0371   4.6477   5.0489
     5.3693   5.4014   5.5273   5.9252   6.2269   6.4494   6.5104   6.5387
     6.5888   6.8567   6.9650   7.1684   7.2783   7.4388   7.4946   7.6925
     7.8485   7.9180   7.9569   8.0955   8.2013   8.3919   8.5072   8.5376
     8.6950   8.7879   8.8400   8.8826   9.1329   9.3060   9.4121   9.5601
     9.5775   9.7175   9.7612   9.8004   9.9642  10.0037  10.0877  10.2816
    10.3239  10.3717  10.4700  10.6000  10.6711  10.7681  10.8325  10.9107
    10.9738  10.9928  11.1072  11.2000  11.2774  11.3365  11.4859  11.5763
    11.6052  11.6621  11.7279  11.8418  11.8961  11.9845  12.0338  12.1227
    12.1950  12.2538  12.3351  12.4200  12.4998  12.6288  12.6482  12.7223
    12.8000  12.8542  12.9168  13.0272  13.0417  13.1065  13.1550  13.2161
    13.2673  13.3926  13.5141  13.5471  13.7224  13.7750  13.8088  13.8781
    13.9258  14.0544  14.0768  14.1298  14.2472  14.3532  14.3746  14.4654
    14.5712  14.6183  14.7256  14.8351  14.9849  15.1024  15.1885  15.2298
    15.3523  15.4173  15.4944  15.5596  15.5796  15.6357  15.7701  15.7745
    15.8823  15.9329  15.9701  16.0498  16.0917  16.1285  16.2507  16.2885
    16.3096  16.3624  16.4191  16.4926  16.5494  16.6155  16.6457  16.7308
    16.8165  16.8254  16.9014  16.9398  17.1198  17.2105  17.2511  17.2782
    17.3931  17.4110  17.5182  17.5277  17.6289  17.7005  17.7954  17.8346
    17.8753  17.9353  18.0594  18.1357  18.1555  18.2461  18.2897  18.3476
    18.4274  18.5552  18.6391  18.6709  18.6932  18.7748  18.8455  18.9253
    18.9728  19.0280  19.1189  19.1683  19.1887  19.2491  19.3360  19.4610
    19.5188  19.5803  19.6373  19.6853  19.7932  19.8871  19.9230  20.0921
    20.1332  20.1986  20.2874  20.4368  20.4731  20.5169  20.5908  20.6711
    20.6892  20.7181  20.8552  20.9285  20.9556  21.0024  21.0884  21.1503
    21.2254  21.2686  21.3142  21.3884  21.4449  21.4477  21.6108  21.6572
    21.7466  21.8335  21.8542  21.8950  21.9094  21.9618  22.0297  22.1063
    22.1999  22.2983  22.3539  22.4418  22.4776  22.5214

          k = 0.2500-0.4833 0.0000 ( 30510 PWs)   bands (ev):

   -49.6300 -49.5185 -49.5140 -49.4840 -49.4714 -49.4517 -49.4357 -49.4344
   -49.4010 -49.3567 -49.3181 -49.2891 -49.2823 -49.2776 -49.2511 -49.2433
   -49.2324 -49.1944 -49.1340 -49.1144 -49.0868 -49.0858 -49.0720 -48.9821
   -21.4627 -21.2001 -20.8847 -20.8467 -20.6544 -20.5043 -20.3956 -20.3664
   -20.3490 -20.2417 -20.1661 -20.0649 -20.0162 -19.9651 -19.9521 -19.8522
   -19.7477 -18.9827 -18.8717  -9.5760  -9.1626  -8.8698  -8.7273  -8.6682
    -8.6416  -8.6087  -8.5651  -8.5310  -8.4696  -8.4403  -8.3852  -8.3652
    -8.2640  -8.0708  -7.8690  -7.8292  -7.7343  -7.5367  -7.4045  -7.3288
    -7.2010  -7.0264  -6.9550  -6.9176  -6.8629  -6.8293  -6.6212  -6.4510
    -6.3989  -6.2901  -6.2577  -6.1809  -6.1232  -6.0014  -5.9500  -5.8947
    -5.8356  -5.7085  -5.6856  -5.4104  -5.1109  -5.0059  -4.9755  -4.8950
    -4.7259  -4.5805  -4.4861  -4.3978  -4.3197  -4.0839  -4.0228  -3.9006
    -3.8432  -3.8040  -3.6621  -3.4364  -3.3898  -3.2768  -3.1716  -3.1574
    -3.0972  -3.0785  -2.9862  -2.9457  -2.9070  -2.7806  -2.7388  -2.5931
    -2.4881  -2.3381  -2.2795  -2.1943  -2.1213  -1.8983  -1.8739  -1.7213
    -1.6134  -1.4606  -1.4397  -1.3554  -0.9610  -0.8152  -0.7869   0.0408
     0.2810   0.6272   0.6369   0.7974   0.9529   1.2073   1.6181   1.6682
     1.6860   1.8500   1.8828   2.0489   4.0984   4.2795   4.6743   5.3143
     5.3805   5.5100   5.6829   5.7374   5.9619   6.0781   6.3566   6.4706
     6.5140   6.7738   6.9921   7.0567   7.1934   7.2385   7.3194   7.4413
     7.5839   7.7732   7.8478   7.9310   8.1585   8.1989   8.3452   8.3612
     8.4731   8.5437   8.7484   8.8931   8.9654   9.1219   9.3976   9.4527
     9.5207   9.6789   9.9064   9.9942  10.0877  10.1512  10.3532  10.5218
    10.5887  10.6751  10.7153  10.8834  10.9625  11.0291  11.1366  11.2026
    11.2351  11.3065  11.3488  11.4480  11.5099  11.5698  11.6160  11.6687
    11.8176  11.8639  11.9812  12.0370  12.0689  12.1884  12.2345  12.3382
    12.4435  12.5307  12.5693  12.6515  12.6960  12.7316  12.7526  12.8405
    12.9169  12.9934  13.0625  13.1300  13.2027  13.2508  13.3161  13.3474
    13.4426  13.4529  13.5541  13.6162  13.7381  13.7564  13.7946  13.9223
    13.9760  14.1188  14.1946  14.2532  14.3893  14.4152  14.4772  14.5275
    14.5516  14.5782  14.6166  14.6564  14.7309  14.8631  14.8953  14.9626
    15.0005  15.0467  15.1007  15.2264  15.2694  15.3271  15.4526  15.5037
    15.5383  15.6425  15.7739  15.8827  15.9671  16.0299  16.0600  16.1367
    16.2061  16.2327  16.3499  16.4273  16.4957  16.5962  16.6642  16.7047
    16.7470  16.8725  16.9354  16.9747  17.0408  17.0965  17.1694  17.2267
    17.2492  17.3016  17.3704  17.3999  17.4559  17.5311  17.6313  17.7310
    17.7903  17.8547  17.8778  17.9482  18.0178  18.1199  18.1964  18.3036
    18.3704  18.4313  18.4459  18.5040  18.5464  18.5994  18.6572  18.6671
    18.7460  18.8486  18.9265  18.9616  19.0370  19.0797  19.0893  19.1364
    19.2363  19.3412  19.4164  19.4713  19.6029  19.6812  19.7157  19.7722
    19.8316  19.8711  19.9204  19.9627  20.0663  20.1414  20.2544  20.4096
    20.5113  20.5480  20.5860  20.6579  20.7574  20.7862  20.8681  20.9481
    20.9810  21.0940  21.1775  21.2419  21.2842  21.3769  21.4586  21.5354
    21.6804  21.7268  21.8579  21.8999  21.9302  21.9899  22.0586  22.1132
    22.1864  22.2280  22.3136  22.3354  22.5190  22.6123

          k =-0.5000 0.0000 0.0000 ( 30524 PWs)   bands (ev):

   -49.6300 -49.5180 -49.5139 -49.4670 -49.4568 -49.4483 -49.4362 -49.4328
   -49.4281 -49.3202 -49.3182 -49.3168 -49.2933 -49.2823 -49.2590 -49.2396
   -49.2308 -49.1718 -49.1497 -49.1082 -49.1000 -49.0835 -49.0754 -48.9817
   -21.3476 -21.3252 -20.9222 -20.8465 -20.7026 -20.6500 -20.5340 -20.5110
   -20.0669 -20.0538 -20.0101 -20.0066 -19.9916 -19.9252 -19.8956 -19.8543
   -19.8408 -18.9930 -18.9490  -9.3884  -9.3576  -9.2782  -9.2314  -9.1892
    -9.1785  -8.8181  -8.6446  -8.4993  -8.4933  -8.4150  -8.4043  -8.3030
    -8.2821  -7.9934  -7.8021  -7.7628  -7.6719  -7.4239  -7.3359  -7.0272
    -6.9917  -6.9752  -6.8671  -6.8421  -6.7941  -6.7015  -6.4930  -6.4914
    -6.3278  -6.2756  -6.1081  -6.0359  -5.8263  -5.7865  -5.7542  -5.6217
    -5.5888  -5.4957  -5.4644  -5.3808  -5.1679  -5.1495  -5.0364  -4.9546
    -4.8743  -4.8190  -4.6217  -4.6172  -4.2762  -4.2044  -4.1521  -3.9725
    -3.8096  -3.7843  -3.7655  -3.3767  -3.3731  -3.3582  -3.3307  -3.3225
    -3.2597  -3.1460  -2.9595  -2.7219  -2.6026  -2.5628  -2.5008  -2.4175
    -2.3869  -2.3580  -2.2111  -2.0393  -1.9869  -1.8989  -1.8981  -1.8196
    -1.7052  -1.7011  -1.4988  -1.4640  -0.9779  -0.0747   0.2142   0.2227
     0.4004   0.6428   0.7800   0.8385   0.8497   0.8649   0.8743   0.9442
     0.9516   1.5818   1.7618   1.9191   4.1504   4.1505   4.3152   5.1463
     5.1590   5.2531   5.5558   5.7101   5.9268   6.0330   6.5421   6.6572
     6.7008   6.8883   7.0237   7.1871   7.6360   7.8295   7.9405   7.9998
     8.0292   8.2262   8.2988   8.5940   8.6760   8.7175   8.7431   8.8074
     8.8174   8.8558   8.9639   9.0153   9.1385   9.2019   9.3094   9.3265
     9.3769   9.4635   9.5539   9.5631   9.6903   9.7038   9.7957   9.8897
     9.9170  10.0287  10.0840  10.1568  10.2233  10.2680  10.3135  10.5150
    10.8225  10.8745  10.8955  11.1315  11.3146  11.3252  11.4861  11.5116
    11.5883  11.6648  11.6887  11.8120  11.8982  11.9863  12.0354  12.1735
    12.3197  12.3874  12.5673  12.5986  12.6158  12.6469  12.7603  12.8355
    13.0202  13.0350  13.0885  13.1333  13.1842  13.2629  13.3725  13.4293
    13.4651  13.5158  13.5747  13.6306  13.6808  13.7665  13.8753  13.9486
    13.9742  14.0720  14.1421  14.1779  14.2480  14.3058  14.4328  14.5526
    14.6122  14.7338  14.8031  14.8596  14.9775  15.0515  15.0792  15.1342
    15.1545  15.2108  15.3172  15.4079  15.5608  15.9427  15.9758  16.0282
    16.0733  16.0902  16.1529  16.2431  16.3162  16.3469  16.4172  16.4345
    16.4641  16.4953  16.5662  16.6311  16.7100  16.7260  16.7387  16.7850
    16.8093  16.8294  16.8958  16.9265  17.1198  17.1896  17.3037  17.4327
    17.4488  17.5192  17.6495  17.6754  17.7171  17.8434  17.8894  17.9683
    18.0296  18.1817  18.2706  18.3193  18.3581  18.4430  18.4848  18.5034
    18.5396  18.6658  18.7021  18.7630  18.8712  18.9411  18.9903  19.1244
    19.1523  19.1960  19.2440  19.2743  19.3739  19.4140  19.4344  19.5104
    19.6678  19.6991  19.7109  19.7494  19.8150  19.8609  19.8999  19.9526
    20.0142  20.0808  20.1445  20.1642  20.2788  20.2855  20.3243  20.3635
    20.3899  20.4073  20.4781  20.4921  20.5390  20.6477  20.6937  20.8503
    20.9067  20.9551  20.9634  21.0091  21.0553  21.0974  21.1460  21.2125
    21.2389  21.2838  21.2938  21.3264  21.3409  21.3845  21.4297  21.4577
    21.7281  21.8046  21.8863  21.9496  21.9996  22.0522

          k =-0.5000 0.2417 0.0000 ( 30500 PWs)   bands (ev):

   -49.6300 -49.5177 -49.5140 -49.4660 -49.4569 -49.4485 -49.4364 -49.4340
   -49.4282 -49.3191 -49.3181 -49.3168 -49.2917 -49.2823 -49.2588 -49.2408
   -49.2319 -49.1717 -49.1496 -49.1081 -49.1000 -49.0835 -49.0754 -48.9819
   -21.3318 -21.3091 -20.8702 -20.7886 -20.6409 -20.5918 -20.5221 -20.4942
   -20.1516 -20.1364 -20.0948 -20.0519 -19.9870 -19.9782 -19.9506 -19.8392
   -19.8308 -18.9919 -18.9473  -9.3027  -9.2643  -9.0100  -8.9944  -8.9777
    -8.9138  -8.7788  -8.6392  -8.5140  -8.5003  -8.3210  -8.2890  -8.1997
    -8.1681  -7.9970  -7.8718  -7.8134  -7.7063  -7.3551  -7.3036  -7.2442
    -7.1708  -7.0774  -7.0142  -6.9789  -6.8630  -6.7494  -6.5529  -6.4896
    -6.4343  -6.3820  -6.1689  -6.0597  -5.9688  -5.8913  -5.8320  -5.7823
    -5.7346  -5.6905  -5.6173  -5.5898  -5.4603  -5.3443  -4.9834  -4.9333
    -4.7954  -4.7684  -4.6373  -4.5526  -4.3360  -4.2700  -4.0148  -3.9387
    -3.8293  -3.7660  -3.7317  -3.3327  -3.2958  -3.1788  -3.0199  -2.9861
    -2.9617  -2.9239  -2.8926  -2.8401  -2.7508  -2.6863  -2.5939  -2.5462
    -2.3306  -2.2204  -2.1704  -1.9941  -1.9818  -1.8966  -1.8663  -1.8396
    -1.7744  -1.7487  -1.5977  -1.5463  -0.8513  -0.0681   0.1138   0.1640
     0.1858   0.2982   0.4330   0.6196   0.6567   1.0200   1.1660   1.3635
     1.3979   1.5517   1.8336   2.0062   4.3676   4.3790   4.4284   5.3653
     5.3784   5.4679   5.7340   5.8638   6.0462   6.1492   6.3010   6.3661
     6.6313   6.8777   7.0490   7.1022   7.1336   7.2193   7.2540   7.3475
     7.6560   7.7488   7.8911   7.9796   8.1170   8.2007   8.3491   8.5070
     8.6078   8.6470   8.8364   8.9595   9.0582   9.2139   9.4311   9.5093
     9.6856   9.7272   9.8536   9.9681  10.0359  10.1086  10.2619  10.2701
    10.3809  10.4933  10.5638  10.6392  10.7888  10.8303  10.8498  10.9927
    11.1940  11.2563  11.3104  11.3636  11.4398  11.5259  11.5980  11.6838
    11.8088  11.8496  11.9805  12.0270  12.1210  12.1942  12.2355  12.3087
    12.4664  12.5231  12.5953  12.7326  12.7527  12.7951  12.9807  13.0627
    13.0962  13.1743  13.1943  13.2338  13.2991  13.3621  13.4157  13.5121
    13.5617  13.6286  13.7041  13.7799  13.8084  13.8840  13.9665  14.0608
    14.1032  14.1805  14.2638  14.3114  14.3321  14.3549  14.4133  14.4324
    14.4994  14.5843  14.6969  14.7756  14.8778  14.9163  14.9663  14.9828
    15.0289  15.1084  15.1437  15.2589  15.3022  15.3589  15.4003  15.5042
    15.5376  15.5628  15.7039  15.7929  15.9383  16.0055  16.0994  16.1867
    16.2320  16.2368  16.3293  16.3909  16.4378  16.4705  16.5028  16.5426
    16.5723  16.6836  16.7027  16.8119  16.8909  16.9884  17.0263  17.0893
    17.1383  17.1938  17.2978  17.3484  17.4593  17.5308  17.6303  17.7044
    17.7234  17.8251  17.8689  17.9514  18.0331  18.0921  18.2054  18.3803
    18.4317  18.4862  18.5214  18.5521  18.5821  18.6384  18.6999  18.7781
    18.8539  18.8951  18.9896  19.0233  19.0815  19.1489  19.2038  19.2676
    19.3886  19.4258  19.4725  19.5353  19.5508  19.6419  19.7278  19.7500
    19.8239  19.8824  19.9448  20.1475  20.2437  20.2841  20.3623  20.3814
    20.4291  20.5213  20.6142  20.6670  20.7492  20.8159  20.8772  20.9343
    21.0779  21.1174  21.2786  21.3358  21.4536  21.4753  21.5267  21.5878
    21.6657  21.7226  21.7660  21.8560  21.9248  21.9812  22.0078  22.1131
    22.1520  22.2159  22.2945  22.3138  22.3753  22.4839

          k =-0.5000-0.4833 0.0000 ( 30496 PWs)   bands (ev):

   -49.6300 -49.5177 -49.5138 -49.4651 -49.4570 -49.4486 -49.4365 -49.4354
   -49.4283 -49.3182 -49.3179 -49.3167 -49.2901 -49.2823 -49.2587 -49.2422
   -49.2331 -49.1716 -49.1495 -49.1081 -49.1000 -49.0835 -49.0754 -48.9821
   -21.3168 -21.2936 -20.8019 -20.6909 -20.5947 -20.5938 -20.4335 -20.3405
   -20.2877 -20.2665 -20.2209 -20.2147 -19.9905 -19.9830 -19.9590 -19.8365
   -19.8286 -18.9912 -18.9459  -9.2670  -9.2271  -8.8528  -8.6826  -8.5714
    -8.5619  -8.5546  -8.5217  -8.5030  -8.4431  -8.2076  -8.1250  -8.0724
    -8.0088  -7.9510  -7.9313  -7.9114  -7.8728  -7.6179  -7.6080  -7.4743
    -7.2745  -7.0532  -7.0419  -6.9999  -6.8030  -6.6998  -6.5723  -6.5229
    -6.5067  -6.4414  -6.4126  -6.3857  -6.3740  -6.3374  -6.1009  -6.0744
    -6.0129  -5.9022  -5.7328  -5.6966  -5.2088  -5.1307  -5.0070  -4.9265
    -4.7231  -4.6199  -4.5438  -4.4369  -4.3971  -4.3051  -3.9084  -3.8667
    -3.7958  -3.5430  -3.4820  -3.3335  -3.3241  -3.2317  -3.1448  -3.0360
    -2.9903  -2.9524  -2.9151  -2.6709  -2.6236  -2.5512  -2.5286  -2.5084
    -2.1519  -2.1153  -2.0898  -1.9922  -1.9368  -1.9184  -1.8781  -1.8561
    -1.8147  -1.7052  -1.6605  -1.6471  -0.7665  -0.2920  -0.2070  -0.1942
    -0.0626   0.1551   0.4519   0.6844   0.6949   1.2409   1.3813   1.4036
     1.5854   1.7977   1.8887   1.9274   4.5719   4.7654   4.7663   5.4042
     5.4052   5.9223   6.0279   6.0448   6.0703   6.1293   6.1824   6.3195
     6.4378   6.5407   6.6615   6.7628   6.8057   6.9072   7.0995   7.2006
     7.4135   7.4704   7.6018   7.6790   7.7689   7.7917   7.9800   8.1421
     8.4088   8.5235   8.8838   9.0420   9.1184   9.2217   9.2707   9.3068
     9.4606   9.5293  10.0297  10.1009  10.2246  10.2509  10.4811  10.7082
    10.7745  10.8236  10.9594  11.1160  11.1477  11.1854  11.2508  11.3363
    11.3648  11.5088  11.5391  11.7069  11.9110  11.9256  12.0573  12.2283
    12.2803  12.4601  12.4915  12.5741  12.6051  12.6887  12.7422  12.7930
    12.8333  12.8458  12.9175  12.9372  13.1049  13.1975  13.2341  13.2898
    13.3289  13.3704  13.3794  13.5046  13.5101  13.5915  13.6156  13.6631
    13.6754  13.6938  13.7299  13.7836  13.8062  13.8662  13.8682  13.8992
    14.0460  14.0800  14.1154  14.1229  14.1679  14.1859  14.2070  14.2958
    14.3805  14.3979  14.4179  14.4430  14.4822  14.5937  14.6223  14.7339
    14.8409  14.8992  14.9352  15.0023  15.0908  15.1131  15.1747  15.2315
    15.2622  15.3018  15.3271  15.3622  15.3939  15.4360  15.5707  15.6687
    15.7387  15.7747  15.8206  15.8777  15.9639  15.9879  16.0198  16.1160
    16.1663  16.2732  16.4048  16.4500  16.4938  16.6031  16.6451  16.6694
    16.7299  16.9114  16.9450  16.9925  17.0533  17.1714  17.1997  17.3661
    17.5062  17.5702  17.7156  17.7458  17.8208  17.9754  18.0470  18.0791
    18.1183  18.1569  18.1861  18.2903  18.3483  18.5195  18.6133  18.6611
    18.8252  19.0097  19.1725  19.2345  19.3082  19.3346  19.4168  19.4848
    19.5461  19.6135  19.7231  19.7657  20.0924  20.1337  20.1593  20.2026
    20.2596  20.3357  20.4162  20.5718  20.6847  20.7359  20.7579  20.8357
    20.8469  20.9022  21.0582  21.0791  21.1681  21.1791  21.2230  21.2442
    21.2708  21.3286  21.3899  21.4676  21.5358  21.5450  21.5710  21.5880
    21.6015  21.6174  21.6503  21.6870  21.7303  21.8397  21.9121  21.9287
    21.9868  22.0049  22.0494  22.2446  22.2737  22.3215

          k =-0.2500 0.2417 0.0000 ( 30481 PWs)   bands (ev):

   -49.6301 -49.5191 -49.5131 -49.4837 -49.4728 -49.4517 -49.4346 -49.4340
   -49.4009 -49.3567 -49.3196 -49.2901 -49.2823 -49.2777 -49.2511 -49.2413
   -49.2317 -49.1945 -49.1341 -49.1144 -49.0868 -49.0858 -49.0721 -48.9818
   -21.5024 -21.2026 -20.9954 -20.8729 -20.6775 -20.5495 -20.4163 -20.3722
   -20.2231 -20.2088 -20.1142 -20.0209 -19.9802 -19.9644 -19.9267 -19.8153
   -19.7466 -18.9820 -18.8744  -9.6033  -9.3634  -9.2807  -9.1408  -8.7785
    -8.7090  -8.6428  -8.6129  -8.5840  -8.5196  -8.4482  -8.4008  -8.3824
    -8.1415  -8.0251  -7.9334  -7.7991  -7.7680  -7.5907  -7.4340  -7.2975
    -7.2258  -7.1754  -7.0749  -6.7145  -6.5908  -6.4707  -6.3923  -6.2754
    -6.2332  -6.1712  -6.1086  -6.0814  -5.9835  -5.9397  -5.7730  -5.7195
    -5.6749  -5.6235  -5.3859  -5.2908  -5.2054  -5.0738  -5.0012  -4.8668
    -4.7918  -4.7435  -4.5934  -4.4848  -4.4328  -4.2394  -4.1040  -3.9862
    -3.7576  -3.6471  -3.5723  -3.4961  -3.3604  -3.2511  -3.2332  -3.1746
    -3.1317  -3.1006  -2.9895  -2.9118  -2.8930  -2.8435  -2.7902  -2.7149
    -2.6017  -2.5728  -2.3798  -2.1848  -1.9189  -1.8747  -1.7715  -1.7247
    -1.6851  -1.5232  -1.4018  -1.3404  -0.9750  -0.4904  -0.3455  -0.1116
     0.2524   0.3659   0.6954   0.8196   1.1705   1.2596   1.3703   1.4235
     1.5870   1.7212   1.7703   2.1381   3.6029   4.0373   4.6484   5.0545
     5.3850   5.4204   5.5281   5.9253   6.2317   6.4478   6.4956   6.5117
     6.6031   6.8198   6.9621   7.1546   7.2815   7.4465   7.4979   7.6886
     7.8186   7.9259   8.0101   8.0935   8.2020   8.3832   8.4277   8.5553
     8.7446   8.7926   8.8259   8.9341   9.0932   9.2823   9.4640   9.5623
     9.5773   9.7051   9.7549   9.8052   9.9535  10.0346  10.1422  10.2097
    10.3377  10.3678  10.4425  10.5551  10.6842  10.7534  10.8266  10.9227
    10.9561  11.0414  11.1279  11.2090  11.2997  11.3619  11.4867  11.5728
    11.6037  11.6272  11.7248  11.8275  11.9079  12.0083  12.0697  12.1227
    12.2077  12.2444  12.3368  12.4032  12.5132  12.6367  12.6545  12.7467
    12.7750  12.8552  12.9218  13.0168  13.0401  13.1307  13.1479  13.2324
    13.2987  13.3591  13.4688  13.5399  13.6898  13.7447  13.8381  13.8839
    13.9445  14.0412  14.1023  14.1654  14.2229  14.3228  14.3597  14.4539
    14.5667  14.6107  14.7086  14.8040  14.9713  15.1036  15.1730  15.2981
    15.3543  15.4084  15.5137  15.5634  15.5744  15.6061  15.6839  15.7785
    15.8423  15.8964  15.9792  16.0646  16.0871  16.1191  16.2231  16.2937
    16.3219  16.4087  16.4350  16.4781  16.5168  16.6015  16.6253  16.7213
    16.7708  16.8541  16.9331  16.9982  17.1227  17.2138  17.2400  17.2960
    17.3926  17.4522  17.5165  17.5280  17.6292  17.6641  17.7762  17.8688
    17.8916  17.9641  18.0684  18.1445  18.1646  18.2551  18.3050  18.3458
    18.4572  18.5492  18.6199  18.6786  18.7149  18.7977  18.8407  18.9404
    19.0095  19.0480  19.0901  19.1489  19.2099  19.2538  19.3387  19.4680
    19.5267  19.5924  19.6298  19.7029  19.7780  19.8580  19.9424  20.0637
    20.1542  20.2452  20.2691  20.3712  20.4914  20.5098  20.5934  20.6652
    20.6925  20.7705  20.8166  20.8965  20.9772  21.0317  21.1337  21.1651
    21.2189  21.2819  21.3075  21.3852  21.4000  21.4880  21.5588  21.6996
    21.7504  21.8271  21.8789  21.8981  21.9417  21.9687  22.0348  22.1089
    22.1670  22.2528  22.3846  22.4130  22.4683  22.5176

 ------ SPIN DOWN ----------


          k = 0.0000 0.0000 0.0000 ( 30479 PWs)   bands (ev):

   -49.6301 -49.5213 -49.5104 -49.4990 -49.4811 -49.4523 -49.4341 -49.4330
   -49.3867 -49.3729 -49.3209 -49.2892 -49.2824 -49.2615 -49.2439 -49.2403
   -49.2309 -49.2080 -49.1286 -49.1162 -49.0891 -49.0755 -49.0697 -48.9815
   -21.6339 -21.1850 -21.1465 -21.0090 -20.6080 -20.5315 -20.3487 -20.2801
   -20.2276 -20.2199 -20.1233 -20.0444 -20.0036 -19.9879 -19.7753 -19.7153
   -19.6870 -18.9510 -18.8268  -9.9336  -9.8667  -9.6895  -9.0022  -8.7869
    -8.7725  -8.6952  -8.6129  -8.6024  -8.5138  -8.4998  -8.3200  -8.2657
    -8.2330  -8.0823  -8.0528  -7.9372  -7.9068  -7.7580  -7.6362  -7.4155
    -7.1928  -7.1093  -7.0302  -6.6727  -6.6302  -6.5989  -6.5260  -6.1348
    -5.9962  -5.8451  -5.7976  -5.7731  -5.5268  -5.4564  -5.3989  -5.3775
    -5.3350  -5.2745  -5.2381  -5.0734  -5.0092  -4.8588  -4.7440  -4.7201
    -4.6958  -4.5618  -4.5186  -4.4726  -4.3167  -4.2758  -3.9693  -3.9567
    -3.9309  -3.9213  -3.7843  -3.7419  -3.6907  -3.6012  -3.4596  -3.3683
    -3.2772  -3.2183  -3.2100  -3.1580  -3.1343  -3.0795  -2.8684  -2.7173
    -2.6374  -2.5088  -2.4430  -2.2081  -2.2054  -1.9895  -1.7162  -1.6693
    -1.6099  -1.4167  -1.3217  -1.1513  -1.0552  -0.4987   0.0954   0.1227
     0.2650   0.2946   0.4205   0.5636   0.8023   1.0737   1.4110   1.7146
     1.7264   1.8358   2.1241   2.3071   2.9866   3.5883   4.1653   4.6165
     4.9085   5.7110   5.7484   6.0409   6.1601   6.6665   6.8344   7.0361
     7.2219   7.3781   7.5450   7.7306   7.8163   7.8786   7.8951   7.9365
     7.9609   8.1036   8.1428   8.1823   8.2366   8.2818   8.4036   8.4552
     8.5145   8.5520   8.6698   8.8236   8.9213   8.9909   9.1140   9.2186
     9.2862   9.4286   9.4696   9.5917   9.6857   9.7332  10.0000  10.0494
    10.2885  10.3734  10.4656  10.5368  10.6691  10.7226  10.8219  10.8566
    10.9803  11.0103  11.1107  11.1450  11.1979  11.2711  11.4139  11.5647
    11.6353  11.6743  11.6766  11.7004  11.7151  11.7429  11.7902  11.9749
    11.9917  12.0524  12.0924  12.1170  12.1438  12.1811  12.2970  12.3708
    12.4318  12.4397  12.5335  12.6043  12.6803  12.7726  12.7779  12.8532
    12.8947  13.0275  13.0876  13.2998  13.3789  13.4957  13.5749  13.6079
    13.6825  13.7334  13.7991  13.8999  13.9813  14.1072  14.2039  14.2113
    14.3091  14.3855  14.5460  14.5870  14.7346  14.8094  15.0345  15.1067
    15.1540  15.1945  15.3180  15.4828  15.5321  15.6026  15.6683  15.7723
    15.7979  15.8224  15.8756  15.9963  16.2128  16.2286  16.4038  16.5229
    16.6354  16.6692  16.7671  16.9397  16.9518  16.9848  17.0929  17.1290
    17.1994  17.4122  17.4677  17.5311  17.5791  17.6850  17.8212  17.9011
    18.0143  18.0616  18.1840  18.2098  18.2823  18.2887  18.3955  18.4242
    18.4336  18.4978  18.6781  18.7077  18.7223  18.8247  18.9391  18.9843
    19.0355  19.1206  19.2115  19.2548  19.2741  19.3332  19.4089  19.5068
    19.5311  19.5954  19.6437  19.6943  19.7440  19.7850  19.8863  19.9015
    19.9437  19.9504  20.0563  20.1149  20.1603  20.1874  20.2699  20.4165
    20.4376  20.4757  20.5586  20.5851  20.6475  20.8440  20.8959  21.0024
    21.0561  21.0827  21.1305  21.2377  21.3731  21.4050  21.4806  21.4963
    21.6050  21.6192  21.6614  21.7230  21.8268  21.8605  21.8942  22.0262
    22.1596  22.2277  22.2987  22.3611  22.3866  22.3977  22.4294  22.4768
    22.4952  22.5185  22.5334  22.6116  22.6518  22.7598

          k = 0.0000 0.2417 0.0000 ( 30538 PWs)   bands (ev):

   -49.6302 -49.5202 -49.5128 -49.4995 -49.4790 -49.4523 -49.4346 -49.4340
   -49.3865 -49.3729 -49.3193 -49.2888 -49.2824 -49.2613 -49.2440 -49.2421
   -49.2315 -49.2079 -49.1286 -49.1163 -49.0892 -49.0756 -49.0698 -48.9818
   -21.5855 -21.1826 -21.0733 -20.9707 -20.6026 -20.5370 -20.4342 -20.3437
   -20.2819 -20.1332 -20.0946 -20.0449 -20.0013 -19.9742 -19.8678 -19.7650
   -19.7158 -18.9514 -18.8228  -9.7513  -9.5183  -9.4369  -9.1521  -8.8012
    -8.7571  -8.6428  -8.6164  -8.6112  -8.5063  -8.4526  -8.3249  -8.2607
    -8.2293  -8.2173  -8.0818  -8.0539  -7.8169  -7.6395  -7.3964  -7.2515
    -7.1375  -7.0452  -6.7509  -6.6871  -6.5961  -6.5589  -6.5104  -6.4519
    -6.2864  -6.2368  -6.0080  -5.7752  -5.7023  -5.6620  -5.6339  -5.4887
    -5.3253  -5.2859  -5.2374  -5.2045  -5.1048  -5.0330  -4.9572  -4.8184
    -4.7562  -4.6538  -4.5460  -4.4782  -4.3438  -4.1869  -4.0918  -3.9131
    -3.8148  -3.6743  -3.5242  -3.4744  -3.4517  -3.3780  -3.3602  -3.3243
    -3.2550  -3.2150  -3.2065  -3.1596  -3.1521  -3.0353  -3.0041  -2.9531
    -2.8313  -2.7407  -2.4698  -2.2284  -2.1948  -1.7652  -1.6761  -1.6409
    -1.5361  -1.3745  -1.3035  -1.1931  -1.0742  -0.7207  -0.5680  -0.2167
     0.1303   0.3519   0.8340   1.0723   1.3052   1.4513   1.5374   1.6481
     1.6811   1.7626   2.1255   2.1586   3.2856   3.7800   4.3964   4.8155
     5.1293   5.2379   5.7747   5.9891   6.2203   6.2920   6.3213   6.6924
     6.9632   6.9751   7.1306   7.3024   7.5313   7.6193   7.7206   7.8428
     8.1290   8.1695   8.2941   8.3251   8.4380   8.5153   8.6621   8.7090
     8.7466   8.8796   8.9892   9.0259   9.1008   9.2906   9.3131   9.4848
     9.5276   9.5751   9.6068   9.7305   9.8004   9.8564   9.9803  10.0582
    10.1376  10.1740  10.2834  10.3555  10.4288  10.4396  10.5881  10.6999
    10.7154  10.8140  10.8593  10.9094  10.9903  11.2045  11.2383  11.2872
    11.3660  11.4407  11.5085  11.5890  11.7912  11.9148  11.9446  12.0004
    12.1091  12.1837  12.2413  12.2719  12.3231  12.4222  12.5591  12.5716
    12.7139  12.8109  12.8452  12.9128  12.9722  13.0788  13.1634  13.2993
    13.4593  13.5465  13.5615  13.6479  13.7615  13.7842  13.8290  13.8880
    13.9043  13.9754  14.0746  14.1090  14.1558  14.2574  14.3424  14.4153
    14.4403  14.5528  14.6159  14.7165  14.7665  14.8521  14.9066  15.1305
    15.1677  15.2175  15.2585  15.3406  15.5088  15.5308  15.6312  15.7305
    15.8039  15.8602  15.8919  15.9108  15.9801  16.0248  16.1706  16.3061
    16.3491  16.4485  16.5197  16.5979  16.7052  16.7602  16.8506  16.9161
    16.9808  17.0258  17.1074  17.1324  17.2555  17.3563  17.4730  17.5038
    17.7150  17.8200  17.9175  17.9751  17.9986  18.0331  18.2149  18.3074
    18.3646  18.3861  18.4584  18.4958  18.5932  18.6747  18.7710  18.8173
    18.9053  18.9425  19.0509  19.0880  19.1712  19.2608  19.3244  19.3692
    19.4463  19.4779  19.5462  19.5864  19.6169  19.6530  19.6956  19.7804
    19.8924  19.9238  19.9449  19.9982  20.0266  20.0686  20.0929  20.1778
    20.2869  20.3175  20.4055  20.4260  20.4832  20.5112  20.6078  20.6697
    20.7615  20.8858  20.9123  21.0027  21.0294  21.0714  21.1007  21.1642
    21.2056  21.2749  21.3156  21.3457  21.4129  21.5094  21.5771  21.6904
    21.7159  21.7646  21.8255  21.8781  21.9157  21.9784  22.0009  22.0684
    22.0971  22.2500  22.3137  22.3372  22.4034  22.4358

          k = 0.0000-0.4833 0.0000 ( 30492 PWs)   bands (ev):

   -49.6302 -49.5190 -49.5145 -49.4998 -49.4771 -49.4522 -49.4358 -49.4341
   -49.3862 -49.3727 -49.3177 -49.2880 -49.2823 -49.2611 -49.2443 -49.2440
   -49.2317 -49.2077 -49.1286 -49.1162 -49.0891 -49.0755 -49.0697 -48.9819
   -21.5346 -21.1809 -20.9907 -20.9126 -20.5888 -20.5078 -20.4871 -20.4196
   -20.3842 -20.0854 -20.0785 -20.0545 -19.9969 -19.9873 -19.9392 -19.8226
   -19.7162 -18.9518 -18.8195  -9.7242  -9.2717  -9.0094  -8.8592  -8.8197
    -8.7955  -8.6707  -8.6053  -8.5865  -8.4041  -8.3770  -8.3151  -8.2533
    -8.2244  -8.1741  -8.0570  -8.0229  -7.8492  -7.5425  -7.3313  -7.3128
    -7.2647  -7.1356  -7.0417  -6.9717  -6.6772  -6.5069  -6.4448  -6.3966
    -6.2908  -6.1409  -6.1201  -5.9951  -5.9361  -5.8597  -5.8086  -5.7188
    -5.6587  -5.3030  -5.2350  -5.1790  -5.1562  -5.0396  -4.9541  -4.6785
    -4.6010  -4.5418  -4.4990  -4.3874  -4.3127  -4.2043  -4.1913  -3.8639
    -3.8255  -3.7489  -3.6803  -3.6749  -3.4914  -3.4487  -3.4211  -3.3472
    -3.2520  -3.2223  -3.2186  -3.1241  -2.9968  -2.8714  -2.8008  -2.7530
    -2.7422  -2.6738  -2.4297  -2.2288  -2.1509  -2.0700  -1.7969  -1.6819
    -1.4562  -1.3446  -1.2501  -1.2192  -1.0950  -1.0094  -0.9737   0.0301
     0.1576   0.6863   0.8833   1.0710   1.3548   1.4449   1.6414   1.6758
     1.8111   1.9315   2.1237   2.1324   3.8256   4.0776   4.4004   5.0664
     5.1306   5.2513   5.4964   5.7036   5.8026   6.0641   6.4463   6.4944
     6.5306   6.7271   7.0155   7.2682   7.3539   7.4625   7.5376   7.9821
     8.0968   8.1656   8.5612   8.6451   8.7254   8.7345   8.7739   8.9332
     8.9411   8.9698   9.0677   9.0721   9.0892   9.1597   9.1782   9.2383
     9.2994   9.3820   9.5069   9.5294   9.5938   9.8039   9.8584   9.9903
    10.0153  10.1662  10.3191  10.3567  10.4204  10.5059  10.6018  10.7797
    10.8857  10.9310  11.0348  11.0692  11.2318  11.2743  11.3963  11.4376
    11.5083  11.5296  11.7147  11.8210  11.9024  11.9510  12.0114  12.2120
    12.3039  12.3521  12.3830  12.4819  12.5725  12.7161  12.7450  12.8579
    12.9267  12.9375  12.9885  13.0082  13.1097  13.1380  13.2487  13.3038
    13.3403  13.3896  13.4321  13.4963  13.5936  13.7167  13.7628  13.8128
    13.9052  14.0541  14.1027  14.1631  14.2206  14.3539  14.5000  14.5094
    14.6395  14.6832  14.8595  14.9465  15.1168  15.1527  15.1857  15.2266
    15.2856  15.3547  15.4473  15.5097  15.5653  15.6086  15.7857  15.8280
    15.8726  15.9476  16.1171  16.1820  16.3015  16.3034  16.3192  16.3398
    16.3941  16.4228  16.4786  16.4906  16.5481  16.5771  16.7670  16.8106
    16.8903  16.9181  17.0176  17.0787  17.1139  17.2778  17.3090  17.4249
    17.4323  17.4810  17.5472  17.6050  17.6646  17.7362  17.8422  17.8751
    17.8809  17.9317  18.0228  18.1237  18.1593  18.2251  18.2539  18.3045
    18.3788  18.4312  18.4613  18.5663  18.6067  18.6287  18.7656  18.8322
    18.9344  19.0907  19.1942  19.4080  19.4196  19.5172  19.5498  19.5833
    19.6014  19.6974  19.8273  19.8978  20.0790  20.1057  20.2382  20.2678
    20.2972  20.3482  20.3947  20.4369  20.5059  20.5337  20.5705  20.5839
    20.6007  20.6503  20.7090  20.7420  20.7561  20.7955  20.8319  20.8802
    20.9263  21.0464  21.1727  21.1883  21.2004  21.2048  21.2661  21.4163
    21.4394  21.5081  21.5274  21.5708  21.5909  21.6210  21.6451  21.7412
    21.7793  21.9167  22.0126  22.1443  22.2327  22.2820

          k = 0.2500 0.0000 0.0000 ( 30502 PWs)   bands (ev):

   -49.6301 -49.5200 -49.5118 -49.4833 -49.4743 -49.4517 -49.4345 -49.4329
   -49.4011 -49.3569 -49.3208 -49.2912 -49.2823 -49.2777 -49.2512 -49.2399
   -49.2308 -49.1947 -49.1341 -49.1144 -49.0868 -49.0858 -49.0720 -48.9816
   -21.5413 -21.2053 -21.0654 -20.9202 -20.6954 -20.5468 -20.4292 -20.3876
   -20.1681 -20.1642 -20.0625 -20.0243 -19.9908 -19.9621 -19.8440 -19.7533
   -19.7456 -18.9813 -18.8778  -9.7625  -9.7014  -9.5395  -9.1065  -8.8645
    -8.7678  -8.6993  -8.6057  -8.6022  -8.5634  -8.4905  -8.4613  -8.2823
    -8.1180  -8.0151  -7.9663  -7.8365  -7.7896  -7.5835  -7.5095  -7.4226
    -7.2458  -7.1739  -7.0449  -6.7456  -6.5479  -6.4197  -6.3025  -6.2161
    -6.1365  -5.9890  -5.9555  -5.9013  -5.8795  -5.7471  -5.7100  -5.5421
    -5.4191  -5.3066  -5.1744  -5.1350  -5.0455  -5.0355  -4.9558  -4.7965
    -4.7446  -4.7134  -4.6577  -4.5871  -4.5131  -4.3345  -4.2382  -4.0235
    -3.8338  -3.7042  -3.6161  -3.5983  -3.5039  -3.4584  -3.4045  -3.3131
    -3.2910  -3.2161  -2.9840  -2.9141  -2.8311  -2.7897  -2.7039  -2.6063
    -2.4448  -2.4132  -2.3253  -2.1740  -2.1061  -1.9214  -1.8937  -1.7861
    -1.6480  -1.5402  -1.3227  -1.1792  -1.1422  -0.3494   0.1730   0.2206
     0.4070   0.4332   0.4518   0.5796   0.7550   0.8763   1.4147   1.4399
     1.5050   1.6692   1.7137   2.2042   3.3294   3.8704   4.4177   4.8566
     5.1787   5.2308   5.8379   5.9677   6.2782   6.3380   6.4165   6.7204
     6.9931   7.1549   7.3214   7.5081   7.6198   7.7049   7.7287   7.9341
     7.9987   8.0983   8.1261   8.2793   8.3329   8.4407   8.5513   8.5734
     8.7240   8.7730   8.8146   9.0667   9.1573   9.2343   9.3162   9.4363
     9.4799   9.5886   9.6697   9.7634   9.9428   9.9585  10.0448  10.0962
    10.1503  10.2386  10.2974  10.3584  10.4258  10.5294  10.5450  10.6300
    10.7537  10.8672  10.9020  10.9870  11.0354  11.0717  11.2247  11.2523
    11.3219  11.4072  11.4867  11.5494  11.6681  11.7621  11.8317  11.9087
    12.0513  12.0982  12.1581  12.2735  12.3832  12.4473  12.5505  12.5628
    12.6578  12.8083  12.8349  12.8797  12.9864  13.1837  13.2914  13.3284
    13.4381  13.5662  13.6127  13.6562  13.8062  13.8372  13.8706  13.8889
    14.0053  14.0491  14.1015  14.1718  14.2053  14.2933  14.3869  14.4060
    14.4606  14.5651  14.6337  14.6782  14.8299  14.9036  15.1384  15.2160
    15.2609  15.3401  15.3944  15.5179  15.5572  15.5946  15.6081  15.6826
    15.7859  15.8475  15.9719  16.0145  16.0471  16.1009  16.1766  16.2380
    16.3054  16.3526  16.4474  16.5027  16.6117  16.6955  16.8979  16.9339
    17.0080  17.1235  17.2069  17.2711  17.3182  17.4332  17.5410  17.6609
    17.7195  17.7458  17.8055  17.9192  18.0088  18.1121  18.1313  18.2373
    18.3319  18.3945  18.6046  18.6426  18.7783  18.8442  18.8761  18.9361
    19.0094  19.0670  19.0802  19.1264  19.1844  19.2886  19.3252  19.3748
    19.4180  19.4674  19.4887  19.5891  19.6027  19.6553  19.7001  19.7494
    19.7731  19.8120  19.8544  19.8959  19.9452  20.0359  20.0964  20.2447
    20.2596  20.3150  20.3650  20.3909  20.4450  20.4870  20.5456  20.5654
    20.6525  20.7075  20.7528  20.8309  20.8708  20.9076  20.9216  21.0072
    21.0780  21.1605  21.2115  21.2550  21.3258  21.3518  21.4324  21.5148
    21.5312  21.5812  21.6340  21.6908  21.7363  21.7894  21.8963  21.9718
    22.0434  22.0793  22.1004  22.1735  22.2233  22.2815

          k = 0.2500 0.2417 0.0000 ( 30481 PWs)   bands (ev):

   -49.6301 -49.5191 -49.5130 -49.4835 -49.4728 -49.4517 -49.4346 -49.4341
   -49.4012 -49.3567 -49.3192 -49.2902 -49.2823 -49.2777 -49.2511 -49.2415
   -49.2316 -49.1945 -49.1341 -49.1144 -49.0868 -49.0858 -49.0721 -48.9818
   -21.5021 -21.2028 -20.9959 -20.8725 -20.6779 -20.5495 -20.4168 -20.3728
   -20.2224 -20.2056 -20.1144 -20.0223 -19.9814 -19.9643 -19.9267 -19.8150
   -19.7467 -18.9820 -18.8744  -9.6030  -9.3649  -9.2808  -9.1412  -8.7911
    -8.6810  -8.6437  -8.6132  -8.5916  -8.5296  -8.4586  -8.4059  -8.3476
    -8.1589  -8.0118  -7.9134  -7.8235  -7.7716  -7.5336  -7.4491  -7.3220
    -7.2505  -7.2206  -7.0795  -6.7194  -6.5709  -6.4269  -6.4017  -6.2463
    -6.2115  -6.1272  -6.1123  -6.0837  -6.0483  -5.9295  -5.7697  -5.7246
    -5.7027  -5.6131  -5.3917  -5.3116  -5.2781  -5.0005  -4.9465  -4.9208
    -4.8028  -4.6487  -4.6294  -4.4791  -4.3830  -4.3009  -4.1115  -4.0062
    -3.7479  -3.6659  -3.5640  -3.5463  -3.3833  -3.2482  -3.2229  -3.1586
    -3.1059  -3.0743  -2.9536  -2.9305  -2.9091  -2.8417  -2.7756  -2.7044
    -2.6003  -2.5808  -2.4196  -2.1734  -1.9262  -1.8738  -1.7678  -1.7152
    -1.6847  -1.5351  -1.3981  -1.3396  -0.9744  -0.4867  -0.3457  -0.1120
     0.2521   0.3641   0.6954   0.8196   1.1777   1.2549   1.3705   1.4178
     1.5884   1.7220   1.7734   2.1361   3.6072   4.0371   4.6477   5.0489
     5.3693   5.4014   5.5273   5.9252   6.2269   6.4494   6.5104   6.5387
     6.5888   6.8567   6.9650   7.1684   7.2783   7.4388   7.4946   7.6925
     7.8485   7.9180   7.9569   8.0955   8.2013   8.3919   8.5072   8.5376
     8.6950   8.7879   8.8400   8.8826   9.1329   9.3060   9.4121   9.5601
     9.5775   9.7175   9.7612   9.8004   9.9642  10.0037  10.0877  10.2816
    10.3239  10.3717  10.4700  10.6000  10.6711  10.7681  10.8325  10.9107
    10.9738  10.9928  11.1072  11.2000  11.2774  11.3365  11.4859  11.5763
    11.6052  11.6621  11.7279  11.8418  11.8961  11.9845  12.0338  12.1227
    12.1950  12.2538  12.3351  12.4200  12.4998  12.6288  12.6482  12.7223
    12.8000  12.8542  12.9168  13.0272  13.0417  13.1065  13.1550  13.2161
    13.2673  13.3926  13.5141  13.5471  13.7224  13.7750  13.8088  13.8781
    13.9258  14.0544  14.0768  14.1298  14.2472  14.3532  14.3746  14.4654
    14.5712  14.6183  14.7256  14.8351  14.9849  15.1024  15.1885  15.2298
    15.3523  15.4173  15.4944  15.5596  15.5796  15.6357  15.7701  15.7745
    15.8823  15.9329  15.9701  16.0498  16.0917  16.1285  16.2507  16.2885
    16.3096  16.3624  16.4191  16.4926  16.5494  16.6155  16.6457  16.7308
    16.8165  16.8254  16.9014  16.9398  17.1198  17.2105  17.2511  17.2782
    17.3931  17.4110  17.5182  17.5277  17.6289  17.7005  17.7954  17.8346
    17.8753  17.9353  18.0594  18.1357  18.1555  18.2461  18.2897  18.3476
    18.4274  18.5552  18.6391  18.6709  18.6932  18.7748  18.8455  18.9253
    18.9728  19.0280  19.1189  19.1683  19.1887  19.2491  19.3360  19.4610
    19.5188  19.5803  19.6373  19.6853  19.7932  19.8871  19.9230  20.0921
    20.1332  20.1986  20.2874  20.4368  20.4731  20.5169  20.5908  20.6711
    20.6892  20.7181  20.8552  20.9285  20.9556  21.0024  21.0884  21.1503
    21.2254  21.2686  21.3142  21.3884  21.4449  21.4477  21.6109  21.6572
    21.7466  21.8335  21.8542  21.8950  21.9094  21.9618  22.0297  22.1063
    22.1999  22.2983  22.3539  22.4418  22.4776  22.5213

          k = 0.2500-0.4833 0.0000 ( 30510 PWs)   bands (ev):

   -49.6301 -49.5185 -49.5140 -49.4840 -49.4715 -49.4517 -49.4357 -49.4344
   -49.4010 -49.3567 -49.3181 -49.2891 -49.2823 -49.2776 -49.2511 -49.2433
   -49.2324 -49.1944 -49.1340 -49.1144 -49.0868 -49.0858 -49.0720 -48.9821
   -21.4627 -21.2001 -20.8847 -20.8467 -20.6544 -20.5043 -20.3956 -20.3664
   -20.3489 -20.2417 -20.1661 -20.0649 -20.0162 -19.9651 -19.9521 -19.8522
   -19.7477 -18.9827 -18.8716  -9.5760  -9.1626  -8.8698  -8.7273  -8.6682
    -8.6416  -8.6087  -8.5651  -8.5310  -8.4696  -8.4403  -8.3852  -8.3652
    -8.2640  -8.0708  -7.8690  -7.8292  -7.7343  -7.5367  -7.4045  -7.3288
    -7.2010  -7.0264  -6.9550  -6.9176  -6.8629  -6.8293  -6.6212  -6.4510
    -6.3989  -6.2901  -6.2577  -6.1809  -6.1232  -6.0014  -5.9500  -5.8947
    -5.8356  -5.7085  -5.6856  -5.4104  -5.1109  -5.0059  -4.9755  -4.8950
    -4.7259  -4.5805  -4.4861  -4.3978  -4.3197  -4.0839  -4.0228  -3.9006
    -3.8432  -3.8040  -3.6621  -3.4364  -3.3898  -3.2768  -3.1716  -3.1574
    -3.0972  -3.0785  -2.9862  -2.9457  -2.9070  -2.7806  -2.7388  -2.5931
    -2.4881  -2.3381  -2.2795  -2.1943  -2.1213  -1.8983  -1.8739  -1.7214
    -1.6134  -1.4606  -1.4397  -1.3554  -0.9610  -0.8152  -0.7869   0.0408
     0.2810   0.6272   0.6369   0.7974   0.9529   1.2073   1.6181   1.6682
     1.6860   1.8500   1.8828   2.0489   4.0984   4.2795   4.6743   5.3143
     5.3805   5.5100   5.6829   5.7374   5.9619   6.0781   6.3566   6.4706
     6.5140   6.7738   6.9921   7.0567   7.1934   7.2385   7.3194   7.4413
     7.5839   7.7732   7.8478   7.9310   8.1585   8.1989   8.3452   8.3612
     8.4731   8.5437   8.7484   8.8931   8.9654   9.1219   9.3976   9.4527
     9.5207   9.6789   9.9064   9.9942  10.0877  10.1512  10.3532  10.5218
    10.5887  10.6751  10.7153  10.8834  10.9625  11.0291  11.1366  11.2026
    11.2351  11.3065  11.3488  11.4480  11.5099  11.5698  11.6160  11.6687
    11.8176  11.8639  11.9812  12.0370  12.0689  12.1884  12.2345  12.3382
    12.4435  12.5307  12.5694  12.6515  12.6960  12.7316  12.7526  12.8405
    12.9169  12.9934  13.0625  13.1300  13.2027  13.2508  13.3161  13.3474
    13.4426  13.4529  13.5541  13.6162  13.7381  13.7564  13.7946  13.9223
    13.9760  14.1188  14.1946  14.2532  14.3893  14.4152  14.4772  14.5275
    14.5516  14.5782  14.6166  14.6564  14.7309  14.8631  14.8953  14.9626
    15.0005  15.0467  15.1007  15.2264  15.2694  15.3271  15.4526  15.5037
    15.5383  15.6425  15.7739  15.8827  15.9671  16.0299  16.0600  16.1367
    16.2061  16.2327  16.3499  16.4273  16.4957  16.5962  16.6642  16.7047
    16.7470  16.8725  16.9354  16.9747  17.0408  17.0965  17.1694  17.2267
    17.2492  17.3016  17.3704  17.3999  17.4559  17.5311  17.6313  17.7310
    17.7903  17.8547  17.8778  17.9482  18.0178  18.1199  18.1964  18.3036
    18.3704  18.4313  18.4459  18.5040  18.5464  18.5994  18.6572  18.6671
    18.7460  18.8486  18.9265  18.9616  19.0370  19.0797  19.0893  19.1364
    19.2364  19.3412  19.4164  19.4713  19.6029  19.6812  19.7157  19.7722
    19.8316  19.8711  19.9204  19.9627  20.0663  20.1414  20.2544  20.4096
    20.5113  20.5480  20.5860  20.6579  20.7574  20.7862  20.8681  20.9481
    20.9810  21.0940  21.1775  21.2419  21.2842  21.3769  21.4586  21.5354
    21.6804  21.7268  21.8579  21.9000  21.9302  21.9899  22.0586  22.1132
    22.1864  22.2279  22.3136  22.3354  22.5190  22.6124

          k =-0.5000 0.0000 0.0000 ( 30524 PWs)   bands (ev):

   -49.6300 -49.5180 -49.5139 -49.4670 -49.4568 -49.4483 -49.4362 -49.4328
   -49.4281 -49.3202 -49.3182 -49.3168 -49.2933 -49.2823 -49.2590 -49.2396
   -49.2308 -49.1718 -49.1497 -49.1082 -49.1000 -49.0835 -49.0754 -48.9817
   -21.3476 -21.3252 -20.9222 -20.8465 -20.7026 -20.6500 -20.5340 -20.5110
   -20.0669 -20.0538 -20.0101 -20.0066 -19.9916 -19.9252 -19.8956 -19.8543
   -19.8408 -18.9929 -18.9490  -9.3884  -9.3576  -9.2782  -9.2314  -9.1892
    -9.1785  -8.8181  -8.6446  -8.4993  -8.4933  -8.4150  -8.4043  -8.3030
    -8.2821  -7.9934  -7.8021  -7.7628  -7.6719  -7.4239  -7.3359  -7.0272
    -6.9917  -6.9752  -6.8671  -6.8421  -6.7941  -6.7015  -6.4930  -6.4914
    -6.3278  -6.2756  -6.1081  -6.0359  -5.8263  -5.7865  -5.7542  -5.6217
    -5.5888  -5.4957  -5.4644  -5.3808  -5.1679  -5.1495  -5.0364  -4.9546
    -4.8743  -4.8190  -4.6217  -4.6172  -4.2762  -4.2044  -4.1521  -3.9725
    -3.8096  -3.7843  -3.7655  -3.3767  -3.3731  -3.3582  -3.3307  -3.3225
    -3.2597  -3.1460  -2.9595  -2.7219  -2.6026  -2.5628  -2.5008  -2.4175
[...]
     0.9777   1.6063   1.7872   1.9441   4.1708   4.1713   4.3201   5.1316
     5.1555   5.2309   5.5522   5.6944   5.9280   6.0350   6.5482   6.6689
     6.7114   6.8859   7.0414   7.1915   7.6647   7.7947   7.9427   8.0152
     8.0391   8.2309   8.2897   8.5849   8.6546   8.7189   8.7464   8.7935
     8.8163   8.8490   8.9703   9.0232   9.1306   9.1962   9.3060   9.3158
     9.3840   9.4676   9.5767   9.5899   9.6996   9.7128   9.8094   9.9006
     9.9324  10.0235  10.0852  10.1624  10.2237  10.2704  10.3271  10.5192
    10.8213  10.8837  10.9058  11.1362  11.3292  11.3446  11.4909  11.5110
    11.5897  11.6691  11.6964  11.8105  11.9235  12.0001  12.0544  12.1769
    12.3077  12.3912  12.5750  12.5870  12.6213  12.6434  12.7723  12.8297
    13.0165  13.0257  13.0857  13.1351  13.2026  13.2507  13.3742  13.4440
    13.4638  13.5090  13.5745  13.6247  13.6857  13.7690  13.8985  13.9520
    13.9807  14.0786  14.1572  14.1830  14.2330  14.3111  14.4143  14.5395
    14.5942  14.7521  14.8187  14.8542  14.9836  15.0669  15.0881  15.1180
    15.1712  15.2134  15.3495  15.3931  15.5832  15.9313  15.9947  16.0139
    16.0884  16.1063  16.1422  16.2751  16.3218  16.3539  16.4096  16.4273
    16.4691  16.5011  16.5694  16.6449  16.7130  16.7165  16.7355  16.7764
    16.8039  16.8213  16.8753  16.9190  17.1177  17.1809  17.2799  17.4294
    17.4400  17.5223  17.6502  17.6778  17.7039  17.8568  17.8788  17.9688
    18.0215  18.1742  18.2771  18.3279  18.3594  18.4454  18.4905  18.5054
    18.5489  18.6619  18.7086  18.7543  18.8748  18.9410  18.9916  19.1286
    19.1717  19.1991  19.2459  19.2834  19.3742  19.4259  19.4448  19.5176
    19.6612  19.6961  19.7113  19.7395  19.8006  19.8540  19.8957  19.9750
    20.0147  20.0885  20.1375  20.1553  20.2786  20.2861  20.3260  20.3587
    20.3764  20.4117  20.4834  20.5022  20.5409  20.6476  20.7081  20.8546
    20.9193  20.9553  20.9811  21.0175  21.0586  21.1030  21.1520  21.2114
    21.2469  21.2835  21.3066  21.3340  21.3440  21.3760  21.4271  21.4642
    21.7439  21.8058  21.8927  21.9434  22.0212  22.0619

          k =-0.5000 0.2417 0.0000 ( 30500 PWs)   bands (ev):

   -49.6028 -49.4967 -49.4845 -49.4396 -49.4314 -49.4225 -49.4104 -49.4071
   -49.4024 -49.2945 -49.2933 -49.2891 -49.2658 -49.2591 -49.2343 -49.2108
   -49.2101 -49.1393 -49.1317 -49.0805 -49.0768 -49.0644 -49.0446 -48.9579
   -21.3070 -21.2847 -20.8360 -20.7623 -20.6097 -20.5659 -20.4941 -20.4641
   -20.1215 -20.1103 -20.0649 -20.0260 -19.9620 -19.9520 -19.9213 -19.8142
   -19.8047 -18.9672 -18.9219  -9.2754  -9.2394  -8.9805  -8.9681  -8.9475
    -8.8858  -8.7630  -8.6127  -8.4893  -8.4747  -8.3013  -8.2631  -8.1796
    -8.1412  -8.0024  -7.8459  -7.7903  -7.6754  -7.3290  -7.2784  -7.2225
    -7.1440  -7.0493  -6.9888  -6.9496  -6.8357  -6.7105  -6.5269  -6.4617
    -6.4099  -6.3577  -6.1383  -6.0321  -5.9366  -5.8573  -5.8030  -5.7514
    -5.7088  -5.6599  -5.5909  -5.5596  -5.4258  -5.2957  -4.9633  -4.9037
    -4.7695  -4.7400  -4.6059  -4.5263  -4.3133  -4.2457  -3.9977  -3.9094
    -3.8158  -3.7454  -3.7076  -3.3087  -3.2654  -3.1497  -2.9983  -2.9613
    -2.9411  -2.8966  -2.8665  -2.8117  -2.7283  -2.6628  -2.5645  -2.5272
    -2.3030  -2.1999  -2.1445  -1.9654  -1.9595  -1.8720  -1.8415  -1.8131
    -1.7501  -1.7229  -1.5705  -1.5214  -0.8228  -0.0425   0.1398   0.1908
     0.2113   0.3242   0.4598   0.6447   0.6825   1.0452   1.1918   1.3893
     1.4247   1.5764   1.8595   2.0317   4.3874   4.3991   4.4376   5.3499
     5.3756   5.4446   5.7320   5.8547   6.0518   6.1484   6.3108   6.3769
     6.6357   6.8595   7.0550   7.0940   7.1304   7.2100   7.2498   7.3355
     7.6535   7.7380   7.8975   7.9794   8.1314   8.2072   8.3573   8.5142
     8.6150   8.6504   8.8441   8.9644   9.0701   9.2280   9.4412   9.5290
     9.6978   9.7395   9.8523   9.9736  10.0499  10.1195  10.2633  10.2819
    10.3835  10.5008  10.5785  10.6505  10.7799  10.8292  10.8479  10.9917
    11.2147  11.2519  11.3195  11.3799  11.4489  11.5312  11.6021  11.6930
    11.8161  11.8561  11.9843  12.0359  12.1184  12.1867  12.2465  12.3163
    12.4523  12.5267  12.5886  12.7325  12.7609  12.7916  12.9757  13.0546
    13.0912  13.1792  13.2042  13.2361  13.3126  13.3729  13.4203  13.4949
    13.5615  13.6329  13.7004  13.7864  13.8154  13.8835  13.9640  14.0467
    14.1118  14.1842  14.2736  14.3067  14.3430  14.3596  14.4281  14.4539
    14.4789  14.5920  14.6932  14.7559  14.8818  14.9113  14.9809  15.0008
    15.0421  15.1171  15.1432  15.2825  15.3016  15.3586  15.3960  15.5013
    15.5350  15.5671  15.7123  15.7853  15.9408  15.9770  16.0677  16.1874
    16.2235  16.2436  16.3345  16.3920  16.4329  16.4693  16.5064  16.5412
    16.5700  16.6866  16.7033  16.8108  16.8941  16.9801  17.0148  17.0846
    17.1311  17.1944  17.3039  17.3424  17.4582  17.5431  17.6351  17.7116
    17.7292  17.8293  17.8679  17.9517  18.0381  18.0899  18.2142  18.3836
    18.4171  18.4894  18.5231  18.5537  18.5926  18.6370  18.7103  18.7758
    18.8405  18.8890  18.9754  19.0295  19.0807  19.1567  19.2131  19.2693
    19.3913  19.4339  19.4737  19.5311  19.5537  19.6607  19.7325  19.7533
    19.8315  19.8967  19.9465  20.1575  20.2365  20.2931  20.3635  20.3878
    20.4415  20.5280  20.6085  20.6705  20.7501  20.8155  20.8824  20.9432
    21.0837  21.1175  21.2856  21.3368  21.4726  21.5002  21.5388  21.5921
    21.6684  21.7235  21.7895  21.8637  21.9276  21.9940  22.0223  22.1048
    22.1562  22.2204  22.2950  22.3220  22.3785  22.4734

          k =-0.5000-0.4833 0.0000 ( 30496 PWs)   bands (ev):

   -49.6028 -49.4967 -49.4844 -49.4386 -49.4314 -49.4227 -49.4105 -49.4084
   -49.4025 -49.2944 -49.2923 -49.2890 -49.2643 -49.2591 -49.2341 -49.2118
   -49.2117 -49.1392 -49.1316 -49.0805 -49.0767 -49.0644 -49.0447 -48.9581
   -21.2920 -21.2693 -20.7675 -20.6646 -20.5690 -20.5680 -20.3903 -20.3135
   -20.2650 -20.2338 -20.1949 -20.1888 -19.9653 -19.9568 -19.9316 -19.8113
   -19.8026 -18.9665 -18.9205  -9.2415  -9.2022  -8.8261  -8.6566  -8.5457
    -8.5365  -8.5289  -8.4962  -8.4754  -8.4160  -8.2033  -8.1001  -8.0464
    -7.9916  -7.9284  -7.9057  -7.8861  -7.8429  -7.5915  -7.5844  -7.4638
    -7.2441  -7.0292  -7.0171  -6.9683  -6.7739  -6.6639  -6.5411  -6.4971
    -6.4810  -6.4158  -6.3869  -6.3586  -6.3462  -6.3117  -6.0708  -6.0459
    -5.9872  -5.8464  -5.7082  -5.6713  -5.1756  -5.1030  -4.9741  -4.8952
    -4.6837  -4.5902  -4.5149  -4.4073  -4.3726  -4.2818  -3.9138  -3.8374
    -3.7756  -3.5179  -3.4584  -3.3072  -3.2967  -3.2131  -3.1103  -3.0081
    -2.9700  -2.9283  -2.8884  -2.6442  -2.6036  -2.5271  -2.5052  -2.4840
    -2.1240  -2.0870  -2.0675  -1.9677  -1.9081  -1.8934  -1.8530  -1.8311
    -1.7888  -1.6796  -1.6356  -1.6241  -0.7382  -0.2663  -0.1810  -0.1672
    -0.0369   0.1807   0.4790   0.7089   0.7206   1.2653   1.4065   1.4294
     1.6113   1.8230   1.9149   1.9536   4.5845   4.7869   4.7879   5.4221
     5.4231   5.8628   6.0167   6.0414   6.0605   6.1182   6.1771   6.3039
     6.4315   6.5256   6.6575   6.7534   6.8062   6.9104   7.1031   7.2076
     7.4066   7.4876   7.6102   7.6778   7.7764   7.7983   7.9817   8.1405
     8.4216   8.5247   8.8920   9.0470   9.1206   9.2355   9.2768   9.3218
     9.4769   9.5482  10.0294  10.1450  10.2435  10.2573  10.4962  10.7285
    10.7757  10.8295  10.9560  11.1327  11.1559  11.2104  11.2508  11.3546
    11.3796  11.5239  11.5421  11.7226  11.9191  11.9378  12.0363  12.2407
    12.2970  12.4643  12.5082  12.5748  12.6175  12.7008  12.7312  12.8011
    12.8476  12.8610  12.8805  12.9372  13.0716  13.2016  13.2311  13.2782
    13.3151  13.3661  13.3784  13.5072  13.5182  13.5889  13.6177  13.6563
    13.6699  13.6852  13.7243  13.7645  13.7984  13.8589  13.8636  13.9131
    14.0433  14.0831  14.1054  14.1239  14.1631  14.1725  14.1922  14.2968
    14.3799  14.4012  14.4212  14.4484  14.5074  14.5995  14.6236  14.7293
    14.8516  14.8725  14.9052  15.0101  15.0833  15.1269  15.1715  15.2338
    15.2570  15.3019  15.3468  15.3634  15.4072  15.4394  15.5752  15.6695
    15.7348  15.7710  15.8234  15.8782  15.9724  15.9866  16.0405  16.1104
    16.1683  16.2779  16.4143  16.4475  16.4879  16.6106  16.6474  16.6759
    16.7356  16.9220  16.9401  16.9895  17.0558  17.1745  17.2148  17.3578
    17.4957  17.5935  17.7088  17.7536  17.7924  17.9795  18.0546  18.0756
    18.1174  18.1721  18.1984  18.2896  18.3435  18.5284  18.6151  18.6586
    18.8090  19.0421  19.1638  19.2404  19.3244  19.3422  19.4164  19.4942
    19.5364  19.6167  19.7278  19.7895  20.1081  20.1401  20.1558  20.2146
    20.2723  20.3635  20.4083  20.5777  20.6880  20.7200  20.7623  20.8435
    20.8564  20.9035  21.0524  21.0771  21.1642  21.1748  21.2100  21.2418
    21.2626  21.3248  21.3678  21.4663  21.5330  21.5469  21.5674  21.5812
    21.5925  21.6176  21.6606  21.6960  21.7432  21.8391  21.9107  21.9360
    21.9828  22.0038  22.0648  22.2447  22.2754  22.3203

          k =-0.2500 0.2417 0.0000 ( 30481 PWs)   bands (ev):

   -49.6028 -49.4973 -49.4844 -49.4579 -49.4464 -49.4260 -49.4087 -49.4071
   -49.3750 -49.3312 -49.2938 -49.2642 -49.2592 -49.2520 -49.2265 -49.2124
   -49.2088 -49.1677 -49.1095 -49.0897 -49.0662 -49.0606 -49.0429 -48.9578
   -21.4772 -21.1783 -20.9646 -20.8424 -20.6507 -20.5234 -20.3897 -20.3389
   -20.1930 -20.1832 -20.0764 -19.9972 -19.9544 -19.9422 -19.9009 -19.7865
   -19.7217 -18.9571 -18.8492  -9.5764  -9.3354  -9.2518  -9.1165  -8.7567
    -8.6865  -8.6168  -8.5879  -8.5603  -8.4993  -8.4247  -8.3733  -8.3611
    -8.1147  -7.9986  -7.9097  -7.7731  -7.7463  -7.5776  -7.4089  -7.2755
    -7.2069  -7.1524  -7.0497  -6.6834  -6.5625  -6.4407  -6.3566  -6.2458
    -6.1992  -6.1454  -6.0773  -6.0510  -5.9575  -5.9102  -5.7462  -5.6842
    -5.6407  -5.5965  -5.3596  -5.2605  -5.1728  -5.0441  -4.9708  -4.8377
    -4.7688  -4.7037  -4.5686  -4.4583  -4.4045  -4.2113  -4.0811  -3.9632
    -3.7276  -3.6302  -3.5490  -3.4770  -3.3466  -3.2246  -3.2101  -3.1447
    -3.1080  -3.0732  -2.9657  -2.8909  -2.8709  -2.8237  -2.7669  -2.6859
    -2.5786  -2.5478  -2.3543  -2.1596  -1.8943  -1.8489  -1.7442  -1.6986
    -1.6596  -1.4969  -1.3765  -1.3142  -0.9462  -0.4645  -0.3191  -0.0867
     0.2776   0.3934   0.7211   0.8461   1.1963   1.2850   1.3965   1.4488
     1.6135   1.7460   1.7957   2.1641   3.6239   4.0411   4.6453   5.0511
     5.3875   5.4412   5.5410   5.9220   6.2148   6.4264   6.4881   6.5154
     6.5900   6.8177   6.9584   7.1490   7.2815   7.4589   7.5018   7.6861
     7.8260   7.9286   8.0138   8.1004   8.2057   8.3818   8.4378   8.5635
     8.7471   8.8012   8.8374   8.9359   9.0999   9.2865   9.4732   9.5643
     9.5737   9.7161   9.7621   9.8074   9.9504  10.0264  10.1519  10.2140
    10.3375  10.3776  10.4376  10.5618  10.6951  10.7495  10.8393  10.9220
    10.9659  11.0488  11.1368  11.2208  11.3061  11.3601  11.4940  11.5802
    11.5962  11.6344  11.7306  11.8339  11.9189  12.0143  12.0740  12.1311
    12.2157  12.2526  12.3323  12.3998  12.5224  12.6240  12.6574  12.7292
    12.7757  12.8496  12.9297  13.0002  13.0625  13.1470  13.1538  13.2434
    13.2989  13.3611  13.4760  13.5443  13.6965  13.7576  13.8353  13.8824
    13.9374  14.0537  14.1065  14.1472  14.2383  14.3243  14.3708  14.4448
    14.5687  14.6147  14.7113  14.8210  14.9768  15.0890  15.1605  15.3010
    15.3673  15.4144  15.5122  15.5622  15.5768  15.6265  15.6970  15.7790
    15.8446  15.8680  15.9713  16.0698  16.0792  16.1357  16.2079  16.2966
    16.3206  16.4198  16.4392  16.4777  16.5182  16.6004  16.6215  16.7245
    16.7637  16.8629  16.9441  16.9996  17.1206  17.2181  17.2457  17.2890
    17.3878  17.4540  17.5191  17.5306  17.6115  17.6688  17.7764  17.8661
    17.8911  17.9742  18.0701  18.1439  18.1553  18.2555  18.2990  18.3532
    18.4654  18.5443  18.6181  18.6905  18.7301  18.7990  18.8367  18.9400
    19.0243  19.0556  19.0975  19.1505  19.2158  19.2587  19.3373  19.4685
    19.5377  19.5938  19.6416  19.7148  19.7857  19.8650  19.9543  20.0685
    20.1554  20.2396  20.2751  20.3831  20.4996  20.5202  20.5951  20.6683
    20.7013  20.7776  20.8211  20.8991  20.9861  21.0377  21.1531  21.1692
    21.2228  21.2778  21.3091  21.3874  21.4018  21.4834  21.5500  21.6946
    21.7555  21.8220  21.8780  21.8943  21.9451  21.9654  22.0421  22.1086
    22.1606  22.2506  22.3833  22.4246  22.4657  22.5162

     the Fermi energy is    -1.7199 ev

!    total energy              =   -1981.62040960 Ry
     Harris-Foulkes estimate   =   -1981.62040960 Ry
     estimated scf accuracy    <          2.9E-09 Ry

     The total energy is the sum of the following terms:

     one-electron contribution =  -23325.79988089 Ry
     hartree contribution      =   11709.98760042 Ry
     xc contribution           =    -372.77216579 Ry
     ewald contribution        =   10006.96511646 Ry
     smearing contrib. (-TS)   =      -0.00107979 Ry

     total magnetization       =     0.00 Bohr mag/cell
     absolute magnetization    =     0.00 Bohr mag/cell

     convergence has been achieved in  15 iterations

     Forces acting on atoms (Ry/au):


     negative rho (up, down):  0.346E+00 0.346E+00
     atom    1 type  1   force =    -0.00732333   -0.01454206    0.00050659
     atom    2 type  1   force =     0.00070476    0.00752063    0.00868352
     atom    3 type  2   force =     0.02022139    0.00588737   -0.00199955
     atom    4 type  2   force =     0.00869703    0.00935648   -0.00039766
     atom    5 type  1   force =    -0.00130613   -0.02944760   -0.00189944
     atom    6 type  1   force =     0.00110391    0.02584994   -0.00130760
     atom    7 type  1   force =     0.00066371   -0.00086913    0.00133044
     atom    8 type  1   force =    -0.00256030   -0.00080453    0.00170565
     atom    9 type  2   force =     0.00768828   -0.00015711    0.00318909
     atom   10 type  2   force =    -0.00956900   -0.00159204    0.00140226
     atom   11 type  1   force =    -0.01515060    0.00850685   -0.01768503
     atom   12 type  1   force =    -0.01514361   -0.00819823   -0.01774301
     atom   13 type  1   force =     0.00007446    0.00006439    0.00056876
     atom   14 type  1   force =    -0.00716571   -0.01467945   -0.00027323
     atom   15 type  1   force =     0.00014740    0.00639748   -0.00006658
     atom   16 type  2   force =    -0.02183619    0.00501289   -0.00191118
     atom   17 type  2   force =     0.00883308    0.00923201   -0.00329400
     atom   18 type  1   force =     0.00018164   -0.02938649   -0.00177353
     atom   19 type  1   force =     0.00184837    0.02623860   -0.00112512
     atom   20 type  1   force =     0.00056150   -0.00462315   -0.01928839
     atom   21 type  1   force =    -0.00306382   -0.00049637    0.00168905
     atom   22 type  2   force =    -0.00529620    0.00020158    0.00677540
     atom   23 type  2   force =     0.00215633   -0.00014637    0.09427608
     atom   24 type  1   force =     0.01794913    0.01155052   -0.02471501
     atom   25 type  1   force =     0.01861139   -0.01148486   -0.02474288
     atom   26 type  1   force =    -0.00166747   -0.00006883   -0.00305128
     atom   27 type  3   force =     0.00003602   -0.00059703   -0.00020662
     atom   28 type  3   force =    -0.00003970    0.00024159    0.00042775
     atom   29 type  3   force =     0.00027225    0.00043784    0.00027556
     atom   30 type  3   force =    -0.00004818    0.00063770    0.00029433
     atom   31 type  1   force =     0.00088915    0.00000575    0.00045411
     atom   32 type  3   force =    -0.00046957   -0.00004835   -0.00009847

     Total force =     0.001109     Total SCF correction =     0.000031

     bfgs converged in  14 scf cycles and  13 bfgs steps
     (criteria: energy < 0.10E-03, force < 0.10E-02)

     End of BFGS Geometry Optimization

     Final energy   =   -1981.6204095976 Ry
Begin final coordinates

ATOMIC_POSITIONS (crystal)
O0       0.000000000   0.000000000   0.378650000    0   0   0
O0       0.000000000   0.500000000   0.400490000    0   0   0
Rh1      0.250000000   0.500000000   0.451990000    0   0   0
Rh1      0.000000000   0.000000000   0.453200000    0   0   0
O0       0.250000000   0.810000000   0.452790000    0   0   0
O0       0.250000000   0.190000000   0.452580000    0   0   0
O0       0.000000000   0.500000000   0.498480000    0   0   0
O0       0.000000000   0.000000000   0.528800000    0   0   0
Rh1      0.250000000   0.000000000   0.576450000    0   0   0
Rh1      0.000000000   0.500000000   0.571210000    0   0   0
O0       0.250000000   0.690000000   0.577890000    0   0   0
O0       0.250000000   0.310000000   0.577910000    0   0   0
O0       0.000000000   0.000000000   0.621680000    0   0   0
O0       0.500000000   0.000000000   0.378650000    0   0   0
O0       0.500000000   0.500000000   0.400490000    0   0   0
Rh1      0.750000000   0.500000000   0.451990000    0   0   0
Rh1      0.500000000   0.000000000   0.453200000    0   0   0
O0       0.750000000   0.810000000   0.452790000    0   0   0
O0       0.750000000   0.190000000   0.452580000    0   0   0
O0       0.500000000   0.500000000   0.498480000    0   0   0
O0       0.500000000   0.000000000   0.528800000    0   0   0
Rh1      0.750000000   0.000000000   0.576450000    0   0   0
Rh1      0.500000000   0.500000000   0.571210000    0   0   0
O0       0.750000000   0.690000000   0.577890000    0   0   0
O0       0.750000000   0.310000000   0.577910000    0   0   0
O0       0.500000000   0.000000000   0.621680000    0   0   0
H2      -0.000070000   0.638970000   0.383980000    0   0   0
H2       0.499930000   0.638960000   0.383980000    0   0   0
H2       0.148440000   0.032530000   0.367830000    0   0   0
H2       0.648440000   0.032530000   0.367830000    0   0   0
O0       0.514298316   0.499547429   0.644768564
H2       0.367198606   0.499652911   0.658534678
End final coordinates



     init_run     :    108.46s CPU    144.20s WALL (       1 calls)
     electrons    : 125821.67s CPU 167049.77s WALL (      14 calls)
     update_pot   :     88.93s CPU    106.01s WALL (      13 calls)
     forces       :   1066.92s CPU   1097.32s WALL (      14 calls)

     Called by init_run:
     wfcinit      :     85.34s CPU    119.02s WALL (       1 calls)
     potinit      :      3.02s CPU      3.93s WALL (       1 calls)

     Called by electrons:
     c_bands      :  95185.26s CPU 127020.54s WALL (     427 calls)
     sum_band     :  21532.65s CPU  29456.90s WALL (     427 calls)
     v_of_rho     :    497.53s CPU    793.14s WALL (     435 calls)
     newd         :   8641.19s CPU   9462.34s WALL (     435 calls)
     mix_rho      :     98.79s CPU    165.81s WALL (     427 calls)

     Called by c_bands:
     init_us_2    :    154.50s CPU    156.07s WALL (   17380 calls)
     cegterg      :  94482.32s CPU 126314.66s WALL (    8540 calls)

     Called by *egterg:
     h_psi        :  54428.13s CPU  82515.23s WALL (   19504 calls)
     s_psi        :   4049.46s CPU   4053.03s WALL (   19504 calls)
     g_psi        :     78.53s CPU     78.62s WALL (   10944 calls)
     cdiaghg      :  16477.09s CPU  17178.32s WALL (   19104 calls)

     Called by h_psi:
     add_vuspsi   :   4089.73s CPU   4108.32s WALL (   19504 calls)

     General routines
     calbec       :   6703.24s CPU   7376.53s WALL (   28324 calls)
     fft          :   1200.43s CPU   2267.42s WALL (   13659 calls)
     ffts         :     14.87s CPU     28.36s WALL (    1724 calls)
     fftw         :  48219.31s CPU  82757.86s WALL (15461936 calls)
     interpolate  :    106.01s CPU    191.02s WALL (    1724 calls)

     Parallel routines
     fft_scatter  :  36061.97s CPU  71391.66s WALL (15477319 calls)

     PWSCF        :     1d   11h22m CPU        1d   22h51m WALL


   This run was terminated on:  21:26:57  29Mar2014            

=------------------------------------------------------------------------------=
   JOB DONE.
=------------------------------------------------------------------------------=
