
     Program PWSCF v.5.0.2 (svn rev. 9656) starts on  5May2014 at 20:23:18 

     This program is part of the open-source Quantum ESPRESSO suite
     for quantum simulation of materials; please cite
         "P. Giannozzi et al., J. Phys.:Condens. Matter 21 395502 (2009);
          URL http://www.quantum-espresso.org", 
     in publications or presentations arising from this work. More details at
     http://www.quantum-espresso.org/quote.php

     Parallel version (MPI), running on    16 processors
     K-points division:     npool     =       4
     R & G space division:  proc/nbgrp/npool/nimage =       4

     Current dimensions of program PWSCF are:
     Max number of different atomic species (ntypx) = 10
     Max number of k-points (npk) =  40000
     Max angular momentum in pseudopotentials (lmaxx) =  3
     Reading input from pwscf.in
Warning: card &CELL ignored
Warning: card / ignored

     Subspace diagonalization in iterative solution of the eigenvalue problem:
     a serial algorithm will be used


     Parallelization info
     --------------------
     sticks:   dense  smooth     PW     G-vecs:    dense   smooth      PW
     Min        1450     467    129               343652    62241    9199
     Max        1451     468    130               343665    62278    9208
     Sum        5803    1869    517              1374641   249013   36807



     bravais-lattice index     =            0
     lattice parameter (alat)  =      12.0187  a.u.
     unit-cell volume          =    7280.5819 (a.u.)^3
     number of atoms/cell      =           30
     number of atomic types    =            3
     number of electrons       =       232.00
     number of Kohn-Sham states=          348
     kinetic-energy cutoff     =      40.0000  Ry
     charge density cutoff     =     500.0000  Ry
     convergence threshold     =      1.0E-06
     mixing beta               =       0.7000
     number of iterations used =            8  plain     mixing
     Exchange-correlation      = SLA  PW   PBE  PBE ( 1 4 3 4 0)
     EXX-fraction              =        0.00
     nstep                     =           50


     celldm(1)=  12.018658  celldm(2)=   0.000000  celldm(3)=   0.000000
     celldm(4)=   0.000000  celldm(5)=   0.000000  celldm(6)=   0.000000

     crystal axes: (cart. coord. in units of alat)
               a(1) = (   1.000000   0.000000   0.000000 )  
               a(2) = (   0.000000   1.009517   0.000000 )  
               a(3) = (   0.000000   0.000000   4.154171 )  

     reciprocal axes: (cart. coord. in units 2 pi/alat)
               b(1) = (  1.000000  0.000000  0.000000 )  
               b(2) = (  0.000000  0.990572  0.000000 )  
               b(3) = (  0.000000  0.000000  0.240722 )  


     PseudoPot. # 1 for O  read from file:
     /home/camp/zhonxu/pseudo/o_pbe_v1.01.uspp.F.UPF
     MD5 check sum: 2bcb18d16ea4b960afae9ec6d52f22d2
     Pseudo is Ultrasoft + core correction, Zval =  6.0
     Generated by new atomic code, or converted to UPF format
     Using radial grid of  737 points,  5 beta functions with: 
                l(1) =   0
                l(2) =   0
                l(3) =   1
                l(4) =   1
                l(5) =   2
     Q(r) pseudized with  8 coefficients,  rinner =    0.900   0.900   0.900
                                                       0.900   0.900

     PseudoPot. # 2 for Ir read from file:
     /home/camp/zhonxu/pseudo/ir_pbe_v1.uspp.F.UPF
     MD5 check sum: abf987a9674477536ede83817f8f8b70
     Pseudo is Ultrasoft + core correction, Zval = 15.0
     Generated by new atomic code, or converted to UPF format
     Using radial grid of  983 points,  7 beta functions with: 
                l(1) =   0
                l(2) =   0
                l(3) =   1
                l(4) =   1
                l(5) =   1
                l(6) =   2
                l(7) =   2
     Q(r) pseudized with  8 coefficients,  rinner =    1.350   1.350   1.350
                                                       1.350   1.350

     PseudoPot. # 3 for H  read from file:
     /home/camp/zhonxu/pseudo/h_pbe_v1.uspp.F.UPF
     MD5 check sum: 3408e3ff4ec8b0a4e358431e7e038a48
     Pseudo is Ultrasoft, Zval =  1.0
     Generated by new atomic code, or converted to UPF format
     Using radial grid of  615 points,  2 beta functions with: 
                l(1) =   0
                l(2) =   0
     Q(r) pseudized with  8 coefficients,  rinner =    0.700

     atomic species   valence    mass     pseudopotential
        O0             6.00    15.99940     O ( 1.00)
        Ir1           15.00   192.22000     Ir( 1.00)
        H2             1.00     1.00794     H ( 1.00)


     Simplified LDA+U calculation (l_max = 2) with parameters (eV):
     atomic species    L          U    alpha       J0     beta
        Ir1            2     2.5000   0.0000   0.0000   0.0000



     No symmetry found



   Cartesian axes

     site n.     atom                  positions (alat units)
         1           O0  tau(   1) = (   0.0000000   0.0000000   1.5730185  )
         2           O0  tau(   2) = (   0.0000000   0.5047586   1.6673182  )
         3           Ir1 tau(   3) = (   0.2500000   0.5047586   1.8780178  )
         4           Ir1 tau(   4) = (   0.0000000   0.0000000   1.8842906  )
         5           O0  tau(   5) = (   0.2500000   0.8177090   1.8825458  )
         6           O0  tau(   6) = (   0.2500000   0.1918083   1.8810503  )
         7           O0  tau(   7) = (   0.0000000   0.5047586   2.0695666  )
         8           O0  tau(   8) = (   0.0000000   0.0000000   2.1991352  )
         9           Ir1 tau(   9) = (   0.2500000   0.0000000   2.3955860  )
        10           Ir1 tau(  10) = (   0.0000000   0.5047586   2.3764768  )
        11           O0  tau(  11) = (   0.2500000   0.6965669   2.3975800  )
        12           O0  tau(  12) = (   0.2500000   0.3129503   2.3977461  )
        13           O0  tau(  13) = (   0.0000000   0.0000000   2.5806958  )
        14           O0  tau(  14) = (   0.5000000   0.0000000   1.5730185  )
        15           O0  tau(  15) = (   0.5000000   0.5047586   1.6673182  )
        16           Ir1 tau(  16) = (   0.7500000   0.5047586   1.8780178  )
        17           Ir1 tau(  17) = (   0.5000000   0.0000000   1.8842906  )
        18           O0  tau(  18) = (   0.7500000   0.8177090   1.8825458  )
        19           O0  tau(  19) = (   0.7500000   0.1918083   1.8810503  )
        20           O0  tau(  20) = (   0.5000000   0.5047586   2.0695666  )
        21           O0  tau(  21) = (   0.5000000   0.0000000   2.1991352  )
        22           Ir1 tau(  22) = (   0.7500000   0.0000000   2.3955860  )
        23           Ir1 tau(  23) = (   0.5000000   0.5047586   2.3764768  )
        24           O0  tau(  24) = (   0.7500000   0.6965669   2.3975800  )
        25           O0  tau(  25) = (   0.7500000   0.3129503   2.3977461  )
        26           O0  tau(  26) = (   0.5000000   0.0000000   2.5807374  )
        27           H2  tau(  27) = (  -0.0000500   0.6423962   1.5933324  )
        28           H2  tau(  28) = (   0.4999500   0.6423962   1.5933324  )
        29           H2  tau(  29) = (   0.1436500   0.0338188   1.5249132  )
        30           H2  tau(  30) = (   0.6436500   0.0338188   1.5249132  )

     number of k points=    10  Methfessel-Paxton smearing, width (Ry)=  0.0100
                       cart. coord. in units 2pi/alat
        k(    1) = (   0.0000000   0.0000000   0.0000000), wk =   0.1250000
        k(    2) = (   0.0000000   0.2476431   0.0000000), wk =   0.2500000
        k(    3) = (   0.0000000  -0.4952862   0.0000000), wk =   0.1250000
        k(    4) = (   0.2500000   0.0000000   0.0000000), wk =   0.2500000
        k(    5) = (   0.2500000   0.2476431   0.0000000), wk =   0.2500000
        k(    6) = (   0.2500000  -0.4952862   0.0000000), wk =   0.2500000
        k(    7) = (  -0.5000000   0.0000000   0.0000000), wk =   0.1250000
        k(    8) = (  -0.5000000   0.2476431   0.0000000), wk =   0.2500000
        k(    9) = (  -0.5000000  -0.4952862   0.0000000), wk =   0.1250000
        k(   10) = (  -0.2500000   0.2476431   0.0000000), wk =   0.2500000

     Dense  grid:  1374641 G-vectors     FFT dimensions: (  90,  90, 360)

     Smooth grid:   249013 G-vectors     FFT dimensions: (  50,  50, 216)

     Largest allocated arrays     est. size (Mb)     dimensions
        Kohn-Sham Wavefunctions        41.77 Mb     (   7867,  348)
        Atomic wavefunctions           20.65 Mb     (   7867,  172)
        NL pseudopotentials            49.22 Mb     (   7867,  410)
        Each V/rho on FFT grid         11.12 Mb     ( 729000)
        Each G-vector array             2.62 Mb     ( 343661)
        G-vector shells                 1.13 Mb     ( 148760)
     Largest temporary arrays     est. size (Mb)     dimensions
        Auxiliary wavefunctions       167.10 Mb     (   7867, 1392)
        Each subspace H/S matrix       29.57 Mb     (1392,1392)
        Each <psi_i|beta_j> matrix      2.18 Mb     (    410,  348)
        Arrays for rho mixing          88.99 Mb     ( 729000,   8)

     Check: negative/imaginary core charge=   -0.000003    0.000000

     Initial potential from superposition of free atoms
     Check: negative starting charge=   -3.334716

     starting charge  227.99968, renormalised to  232.00000

     negative rho (up, down):  0.339E+01 0.000E+00
     Number of +U iterations with fixed ns =  0
     Starting occupations:
 --- enter write_ns ---
 LDA+U parameters:
U( 2)     =  2.50000000
alpha( 2) =  0.00000000
atom    3   Tr[ns(na)] =   7.00000
    eigenvalues: 
  0.700  0.700  0.700  0.700  0.700
    eigenvectors:
  1.000  0.000  0.000  0.000  0.000
  0.000  1.000  0.000  0.000  0.000
  0.000  0.000  1.000  0.000  0.000
  0.000  0.000  0.000  1.000  0.000
  0.000  0.000  0.000  0.000  1.000
    occupations:
  0.700  0.000  0.000  0.000  0.000
  0.000  0.700  0.000  0.000  0.000
  0.000  0.000  0.700  0.000  0.000
  0.000  0.000  0.000  0.700  0.000
  0.000  0.000  0.000  0.000  0.700
atom    4   Tr[ns(na)] =   7.00000
    eigenvalues: 
  0.700  0.700  0.700  0.700  0.700
    eigenvectors:
  1.000  0.000  0.000  0.000  0.000
  0.000  1.000  0.000  0.000  0.000
  0.000  0.000  1.000  0.000  0.000
  0.000  0.000  0.000  1.000  0.000
  0.000  0.000  0.000  0.000  1.000
    occupations:
  0.700  0.000  0.000  0.000  0.000
  0.000  0.700  0.000  0.000  0.000
  0.000  0.000  0.700  0.000  0.000
  0.000  0.000  0.000  0.700  0.000
  0.000  0.000  0.000  0.000  0.700
atom    9   Tr[ns(na)] =   7.00000
    eigenvalues: 
  0.700  0.700  0.700  0.700  0.700
    eigenvectors:
  1.000  0.000  0.000  0.000  0.000
  0.000  1.000  0.000  0.000  0.000
  0.000  0.000  1.000  0.000  0.000
  0.000  0.000  0.000  1.000  0.000
  0.000  0.000  0.000  0.000  1.000
    occupations:
  0.700  0.000  0.000  0.000  0.000
  0.000  0.700  0.000  0.000  0.000
  0.000  0.000  0.700  0.000  0.000
  0.000  0.000  0.000  0.700  0.000
  0.000  0.000  0.000  0.000  0.700
atom   10   Tr[ns(na)] =   7.00000
    eigenvalues: 
  0.700  0.700  0.700  0.700  0.700
    eigenvectors:
  1.000  0.000  0.000  0.000  0.000
  0.000  1.000  0.000  0.000  0.000
  0.000  0.000  1.000  0.000  0.000
  0.000  0.000  0.000  1.000  0.000
  0.000  0.000  0.000  0.000  1.000
    occupations:
  0.700  0.000  0.000  0.000  0.000
  0.000  0.700  0.000  0.000  0.000
  0.000  0.000  0.700  0.000  0.000
  0.000  0.000  0.000  0.700  0.000
  0.000  0.000  0.000  0.000  0.700
atom   16   Tr[ns(na)] =   7.00000
    eigenvalues: 
  0.700  0.700  0.700  0.700  0.700
    eigenvectors:
  1.000  0.000  0.000  0.000  0.000
  0.000  1.000  0.000  0.000  0.000
  0.000  0.000  1.000  0.000  0.000
  0.000  0.000  0.000  1.000  0.000
  0.000  0.000  0.000  0.000  1.000
    occupations:
  0.700  0.000  0.000  0.000  0.000
  0.000  0.700  0.000  0.000  0.000
  0.000  0.000  0.700  0.000  0.000
  0.000  0.000  0.000  0.700  0.000
  0.000  0.000  0.000  0.000  0.700
atom   17   Tr[ns(na)] =   7.00000
    eigenvalues: 
  0.700  0.700  0.700  0.700  0.700
    eigenvectors:
  1.000  0.000  0.000  0.000  0.000
  0.000  1.000  0.000  0.000  0.000
  0.000  0.000  1.000  0.000  0.000
  0.000  0.000  0.000  1.000  0.000
  0.000  0.000  0.000  0.000  1.000
    occupations:
  0.700  0.000  0.000  0.000  0.000
  0.000  0.700  0.000  0.000  0.000
  0.000  0.000  0.700  0.000  0.000
  0.000  0.000  0.000  0.700  0.000
  0.000  0.000  0.000  0.000  0.700
atom   22   Tr[ns(na)] =   7.00000
    eigenvalues: 
  0.700  0.700  0.700  0.700  0.700
    eigenvectors:
  1.000  0.000  0.000  0.000  0.000
  0.000  1.000  0.000  0.000  0.000
  0.000  0.000  1.000  0.000  0.000
  0.000  0.000  0.000  1.000  0.000
  0.000  0.000  0.000  0.000  1.000
    occupations:
  0.700  0.000  0.000  0.000  0.000
  0.000  0.700  0.000  0.000  0.000
  0.000  0.000  0.700  0.000  0.000
  0.000  0.000  0.000  0.700  0.000
  0.000  0.000  0.000  0.000  0.700
atom   23   Tr[ns(na)] =   7.00000
    eigenvalues: 
  0.700  0.700  0.700  0.700  0.700
    eigenvectors:
  1.000  0.000  0.000  0.000  0.000
  0.000  1.000  0.000  0.000  0.000
  0.000  0.000  1.000  0.000  0.000
  0.000  0.000  0.000  1.000  0.000
  0.000  0.000  0.000  0.000  1.000
    occupations:
  0.700  0.000  0.000  0.000  0.000
  0.000  0.700  0.000  0.000  0.000
  0.000  0.000  0.700  0.000  0.000
  0.000  0.000  0.000  0.700  0.000
  0.000  0.000  0.000  0.000  0.700
N of occupied +U levels =  56.0000000
 --- exit write_ns ---
 Atomic wfc used for LDA+U Projector are NOT orthogonalized
     Starting wfc are  172 randomized atomic wfcs

     total cpu time spent up to now is      111.1 secs

     per-process dynamical memory:   423.0 Mb

     Self-consistent Calculation

     iteration #  1     ecut=    40.00 Ry     beta=0.70
     Davidson diagonalization with overlap
     ethr =  1.00E-02,  avg # of iterations =  6.6
 --- enter write_ns ---
 LDA+U parameters:
U( 2)     =  2.50000000
alpha( 2) =  0.00000000
atom    3   Tr[ns(na)] =   5.82020
    eigenvalues: 
  0.432  0.472  0.603  0.656  0.747
    eigenvectors:
  0.000  0.127  0.154  0.719  0.000
  1.000  0.000  0.000  0.000  0.000
  0.000  0.000  0.823  0.177  0.000
  0.000  0.873  0.023  0.104  0.000
  0.000  0.000  0.000  0.000  1.000
    occupations:
  0.624  0.000  0.019 -0.058  0.001
  0.000  0.432 -0.000 -0.000 -0.004
  0.019 -0.000  0.613 -0.007 -0.001
 -0.058 -0.000 -0.007  0.494 -0.000
  0.001 -0.004 -0.001 -0.000  0.747
atom    4   Tr[ns(na)] =   5.62199
    eigenvalues: 
  0.435  0.457  0.476  0.658  0.785
    eigenvectors:
  0.000  0.000  0.988  0.000  0.012
  0.012  0.000  0.000  0.988  0.000
  0.987  0.001  0.000  0.012  0.000
  0.000  0.000  0.012  0.000  0.988
  0.001  0.999  0.000  0.000  0.000
    occupations:
  0.479 -0.001  0.001  0.034  0.000
 -0.001  0.656  0.024 -0.000 -0.001
  0.001  0.024  0.438  0.003  0.000
  0.034 -0.000  0.003  0.782 -0.000
  0.000 -0.001  0.000 -0.000  0.457
atom    9   Tr[ns(na)] =   7.63571
    eigenvalues: 
  0.466  0.487  0.930  0.965  0.970
    eigenvectors:
  0.000  0.150  0.000  0.848  0.002
  1.000  0.000  0.000  0.000  0.000
  0.000  0.000  0.000  0.002  0.998
  0.000  0.849  0.000  0.150  0.000
  0.000  0.000  1.000  0.000  0.000
    occupations:
  0.893  0.000  0.000 -0.171  0.000
  0.000  0.466  0.001  0.000 -0.000
  0.000  0.001  0.970 -0.000 -0.000
 -0.171  0.000 -0.000  0.559  0.000
  0.000 -0.000 -0.000  0.000  0.930
atom   10   Tr[ns(na)] =   8.16300
    eigenvalues: 
  0.461  0.719  0.963  0.969  0.971
    eigenvectors:
  0.000  0.959  0.000  0.040  0.001
  0.000  0.000  1.000  0.000  0.000
  0.000  0.000  0.000  0.013  0.987
  0.000  0.041  0.000  0.948  0.012
  1.000  0.000  0.000  0.000  0.000
    occupations:
  0.729  0.000  0.002  0.049 -0.000
  0.000  0.963  0.000 -0.000  0.000
  0.002  0.000  0.971 -0.000  0.000
  0.049 -0.000 -0.000  0.958 -0.000
 -0.000  0.000  0.000 -0.000  0.461
atom   16   Tr[ns(na)] =   5.82021
    eigenvalues: 
  0.432  0.472  0.603  0.656  0.747
    eigenvectors:
  0.000  0.127  0.154  0.719  0.000
  1.000  0.000  0.000  0.000  0.000
  0.000  0.000  0.823  0.177  0.000
  0.000  0.873  0.023  0.104  0.000
  0.000  0.000  0.000  0.000  1.000
    occupations:
  0.624  0.000  0.019 -0.058  0.001
  0.000  0.432 -0.000 -0.000 -0.004
  0.019 -0.000  0.613 -0.007 -0.001
 -0.058 -0.000 -0.007  0.494 -0.000
  0.001 -0.004 -0.001 -0.000  0.747
atom   17   Tr[ns(na)] =   5.62203
    eigenvalues: 
  0.435  0.457  0.476  0.658  0.785
    eigenvectors:
  0.000  0.000  0.988  0.000  0.012
  0.012  0.000  0.000  0.988  0.000
  0.987  0.001  0.000  0.012  0.000
  0.000  0.000  0.012  0.000  0.988
  0.001  0.999  0.000  0.000  0.000
    occupations:
  0.479 -0.001  0.001  0.034  0.000
 -0.001  0.656  0.024 -0.000 -0.001
  0.001  0.024  0.438  0.003  0.000
  0.034 -0.000  0.003  0.782 -0.000
  0.000 -0.001  0.000 -0.000  0.457
atom   22   Tr[ns(na)] =   7.63571
    eigenvalues: 
  0.466  0.487  0.930  0.965  0.970
    eigenvectors:
  0.000  0.150  0.000  0.848  0.002
  1.000  0.000  0.000  0.000  0.000
  0.000  0.000  0.000  0.002  0.998
  0.000  0.849  0.000  0.150  0.000
  0.000  0.000  1.000  0.000  0.000
    occupations:
  0.893 -0.000  0.000 -0.171  0.000
 -0.000  0.466  0.001  0.000 -0.000
  0.000  0.001  0.970 -0.000 -0.000
 -0.171  0.000 -0.000  0.559  0.000
  0.000 -0.000 -0.000  0.000  0.930
atom   23   Tr[ns(na)] =   8.16300
    eigenvalues: 
  0.461  0.719  0.963  0.969  0.971
    eigenvectors:
  0.000  0.959  0.000  0.040  0.001
  0.000  0.000  1.000  0.000  0.000
  0.000  0.000  0.000  0.013  0.987
  0.000  0.041  0.000  0.948  0.012
  1.000  0.000  0.000  0.000  0.000
    occupations:
  0.729  0.000  0.002  0.049 -0.000
  0.000  0.963  0.000 -0.000  0.000
  0.002  0.000  0.971 -0.000  0.000
  0.049 -0.000 -0.000  0.958 -0.000
 -0.000  0.000  0.000 -0.000  0.461
N of occupied +U levels =  54.4818389
 --- exit write_ns ---

     negative rho (up, down):  0.292E+01 0.000E+00

     total cpu time spent up to now is      460.4 secs

     total energy              =   -2046.22995546 Ry
     Harris-Foulkes estimate   =   -2077.58558033 Ry
     estimated scf accuracy    <      37.02247817 Ry

     iteration #  2     ecut=    40.00 Ry     beta=0.70
     Davidson diagonalization with overlap
     ethr =  1.00E-02,  avg # of iterations =  4.3

     negative rho (up, down):  0.275E+01 0.000E+00

     total cpu time spent up to now is      791.3 secs

     total energy              =   -1947.57864021 Ry
     Harris-Foulkes estimate   =   -2277.95885345 Ry
     estimated scf accuracy    <    3213.86580410 Ry

     iteration #  3     ecut=    40.00 Ry     beta=0.70
     Davidson diagonalization with overlap
     ethr =  1.00E-02,  avg # of iterations =  7.1

     negative rho (up, down):  0.247E+01 0.000E+00

     total cpu time spent up to now is     1150.3 secs

     total energy              =   -2044.73563228 Ry
     Harris-Foulkes estimate   =   -2097.43384935 Ry
     estimated scf accuracy    <     263.31983134 Ry

     iteration #  4     ecut=    40.00 Ry     beta=0.70
     Davidson diagonalization with overlap
     ethr =  1.00E-02,  avg # of iterations =  4.0

     negative rho (up, down):  0.260E+01 0.000E+00

     total cpu time spent up to now is     1366.6 secs

     total energy              =   -2070.34586682 Ry
     Harris-Foulkes estimate   =   -2075.83106100 Ry
     estimated scf accuracy    <      18.84622362 Ry

     iteration #  5     ecut=    40.00 Ry     beta=0.70
     Davidson diagonalization with overlap
     ethr =  8.12E-03,  avg # of iterations =  1.2

     negative rho (up, down):  0.272E+01 0.000E+00

     total cpu time spent up to now is     1544.3 secs

     total energy              =   -2072.89687585 Ry
     Harris-Foulkes estimate   =   -2073.98447682 Ry
     estimated scf accuracy    <      11.27653291 Ry

     iteration #  6     ecut=    40.00 Ry     beta=0.70
     Davidson diagonalization with overlap
     ethr =  4.86E-03,  avg # of iterations =  1.2

     negative rho (up, down):  0.276E+01 0.000E+00

     total cpu time spent up to now is     1722.9 secs

     total energy              =   -2072.98726897 Ry
     Harris-Foulkes estimate   =   -2073.31872357 Ry
     estimated scf accuracy    <       2.14717362 Ry

     iteration #  7     ecut=    40.00 Ry     beta=0.70
     Davidson diagonalization with overlap
     ethr =  9.26E-04,  avg # of iterations =  4.8

     negative rho (up, down):  0.285E+01 0.000E+00

     total cpu time spent up to now is     1930.3 secs

     total energy              =   -2072.97355086 Ry
     Harris-Foulkes estimate   =   -2073.26218551 Ry
     estimated scf accuracy    <       3.00368543 Ry

     iteration #  8     ecut=    40.00 Ry     beta=0.70
     Davidson diagonalization with overlap
     ethr =  9.26E-04,  avg # of iterations =  1.3

     negative rho (up, down):  0.294E+01 0.000E+00

     total cpu time spent up to now is     2116.5 secs

     total energy              =   -2072.98187847 Ry
     Harris-Foulkes estimate   =   -2073.15940740 Ry
     estimated scf accuracy    <       1.34939228 Ry

     iteration #  9     ecut=    40.00 Ry     beta=0.70
     Davidson diagonalization with overlap
     ethr =  5.82E-04,  avg # of iterations =  1.0

     negative rho (up, down):  0.301E+01 0.000E+00

     total cpu time spent up to now is     2305.5 secs

     total energy              =   -2072.98071535 Ry
     Harris-Foulkes estimate   =   -2073.08837349 Ry
     estimated scf accuracy    <       0.41307439 Ry

     iteration # 10     ecut=    40.00 Ry     beta=0.70
     Davidson diagonalization with overlap
     ethr =  1.78E-04,  avg # of iterations =  5.9

     negative rho (up, down):  0.306E+01 0.000E+00

     total cpu time spent up to now is     2513.2 secs

     total energy              =   -2072.99154352 Ry
     Harris-Foulkes estimate   =   -2073.05257602 Ry
     estimated scf accuracy    <       0.28956204 Ry

     iteration # 11     ecut=    40.00 Ry     beta=0.70
     Davidson diagonalization with overlap
     ethr =  1.25E-04,  avg # of iterations =  1.3

     negative rho (up, down):  0.311E+01 0.000E+00

     total cpu time spent up to now is     2691.1 secs

     total energy              =   -2073.01239939 Ry
     Harris-Foulkes estimate   =   -2073.02712060 Ry
     estimated scf accuracy    <       0.09219825 Ry

     iteration # 12     ecut=    40.00 Ry     beta=0.70
     Davidson diagonalization with overlap
     ethr =  3.97E-05,  avg # of iterations =  6.3

     negative rho (up, down):  0.312E+01 0.000E+00

     total cpu time spent up to now is     2899.9 secs

     total energy              =   -2073.00700673 Ry
     Harris-Foulkes estimate   =   -2073.02544242 Ry
     estimated scf accuracy    <       0.15779556 Ry

     iteration # 13     ecut=    40.00 Ry     beta=0.70
     Davidson diagonalization with overlap
     ethr =  3.97E-05,  avg # of iterations =  3.9

     negative rho (up, down):  0.313E+01 0.000E+00

     total cpu time spent up to now is     3094.3 secs

     total energy              =   -2073.01261087 Ry
     Harris-Foulkes estimate   =   -2073.02014133 Ry
     estimated scf accuracy    <       0.04728444 Ry

     iteration # 14     ecut=    40.00 Ry     beta=0.70
     Davidson diagonalization with overlap
     ethr =  2.04E-05,  avg # of iterations =  1.2

     negative rho (up, down):  0.313E+01 0.000E+00

     total cpu time spent up to now is     3271.5 secs

     total energy              =   -2073.01343601 Ry
     Harris-Foulkes estimate   =   -2073.01986886 Ry
     estimated scf accuracy    <       0.02199975 Ry

     iteration # 15     ecut=    40.00 Ry     beta=0.70
     Davidson diagonalization with overlap
     ethr =  9.48E-06,  avg # of iterations =  1.6

     negative rho (up, down):  0.313E+01 0.000E+00

     total cpu time spent up to now is     3448.1 secs

     total energy              =   -2073.01489647 Ry
     Harris-Foulkes estimate   =   -2073.01882468 Ry
     estimated scf accuracy    <       0.02434536 Ry

     iteration # 16     ecut=    40.00 Ry     beta=0.70
     Davidson diagonalization with overlap
     ethr =  9.48E-06,  avg # of iterations =  1.0

     negative rho (up, down):  0.313E+01 0.000E+00

     total cpu time spent up to now is     3624.3 secs

     total energy              =   -2073.01650266 Ry
     Harris-Foulkes estimate   =   -2073.01738746 Ry
     estimated scf accuracy    <       0.00334598 Ry

     iteration # 17     ecut=    40.00 Ry     beta=0.70
     Davidson diagonalization with overlap
     ethr =  1.44E-06,  avg # of iterations =  2.6

     negative rho (up, down):  0.313E+01 0.000E+00

     total cpu time spent up to now is     3810.5 secs

     total energy              =   -2073.01643851 Ry
     Harris-Foulkes estimate   =   -2073.01757955 Ry
     estimated scf accuracy    <       0.00878881 Ry

     iteration # 18     ecut=    40.00 Ry     beta=0.70
     Davidson diagonalization with overlap
     ethr =  1.44E-06,  avg # of iterations =  1.0

     negative rho (up, down):  0.313E+01 0.000E+00

     total cpu time spent up to now is     3987.1 secs

     total energy              =   -2073.01696923 Ry
     Harris-Foulkes estimate   =   -2073.01702311 Ry
     estimated scf accuracy    <       0.00022749 Ry

     iteration # 19     ecut=    40.00 Ry     beta=0.70
     Davidson diagonalization with overlap
     ethr =  9.81E-08,  avg # of iterations =  1.2

     negative rho (up, down):  0.313E+01 0.000E+00

     total cpu time spent up to now is     4163.4 secs

     total energy              =   -2073.01696187 Ry
     Harris-Foulkes estimate   =   -2073.01704798 Ry
     estimated scf accuracy    <       0.00041534 Ry

     iteration # 20     ecut=    40.00 Ry     beta=0.70
     Davidson diagonalization with overlap
     ethr =  9.81E-08,  avg # of iterations =  1.0

     negative rho (up, down):  0.313E+01 0.000E+00

     total cpu time spent up to now is     4346.2 secs

     total energy              =   -2073.01699507 Ry
     Harris-Foulkes estimate   =   -2073.01701908 Ry
     estimated scf accuracy    <       0.00013493 Ry

     iteration # 21     ecut=    40.00 Ry     beta=0.70
     Davidson diagonalization with overlap
     ethr =  5.82E-08,  avg # of iterations =  1.0

     negative rho (up, down):  0.313E+01 0.000E+00

     total cpu time spent up to now is     4532.6 secs

     total energy              =   -2073.01700409 Ry
     Harris-Foulkes estimate   =   -2073.01701011 Ry
     estimated scf accuracy    <       0.00003211 Ry

     iteration # 22     ecut=    40.00 Ry     beta=0.70
     Davidson diagonalization with overlap
     ethr =  1.38E-08,  avg # of iterations =  1.0

     negative rho (up, down):  0.313E+01 0.000E+00

     total cpu time spent up to now is     4711.4 secs

     total energy              =   -2073.01700180 Ry
     Harris-Foulkes estimate   =   -2073.01701121 Ry
     estimated scf accuracy    <       0.00005497 Ry

     iteration # 23     ecut=    40.00 Ry     beta=0.70
     Davidson diagonalization with overlap
     ethr =  1.38E-08,  avg # of iterations =  1.0

     negative rho (up, down):  0.313E+01 0.000E+00

     total cpu time spent up to now is     4888.9 secs

     total energy              =   -2073.01699797 Ry
     Harris-Foulkes estimate   =   -2073.01701688 Ry
     estimated scf accuracy    <       0.00023569 Ry

     iteration # 24     ecut=    40.00 Ry     beta=0.70
     Davidson diagonalization with overlap
     ethr =  1.38E-08,  avg # of iterations =  1.0

     negative rho (up, down):  0.313E+01 0.000E+00

     total cpu time spent up to now is     5066.2 secs

     total energy              =   -2073.01700647 Ry
     Harris-Foulkes estimate   =   -2073.01700891 Ry
     estimated scf accuracy    <       0.00001558 Ry

     iteration # 25     ecut=    40.00 Ry     beta=0.70
     Davidson diagonalization with overlap
     ethr =  6.72E-09,  avg # of iterations =  1.0

     negative rho (up, down):  0.313E+01 0.000E+00

     total cpu time spent up to now is     5246.4 secs

     total energy              =   -2073.01700754 Ry
     Harris-Foulkes estimate   =   -2073.01700797 Ry
     estimated scf accuracy    <       0.00000190 Ry

     iteration # 26     ecut=    40.00 Ry     beta=0.70
     Davidson diagonalization with overlap
     ethr =  8.20E-10,  avg # of iterations =  1.1

     negative rho (up, down):  0.313E+01 0.000E+00

     total cpu time spent up to now is     5424.3 secs

     End of self-consistent calculation
 --- enter write_ns ---
 LDA+U parameters:
U( 2)     =  2.50000000
alpha( 2) =  0.00000000
atom    3   Tr[ns(na)] =   8.11948
    eigenvalues: 
  0.604  0.628  0.892  0.966  0.970
    eigenvectors:
  0.000  0.193  0.003  0.001  0.803
  1.000  0.000  0.000  0.000  0.000
  0.000  0.000  0.996  0.000  0.003
  0.000  0.807  0.000  0.000  0.192
  0.000  0.000  0.000  0.998  0.002
    occupations:
  0.904 -0.000  0.003 -0.135  0.000
 -0.000  0.604 -0.000 -0.000 -0.006
  0.003 -0.000  0.892 -0.004  0.001
 -0.135 -0.000 -0.004  0.694 -0.000
  0.000 -0.006  0.001 -0.000  0.966
atom    4   Tr[ns(na)] =   8.09408
    eigenvalues: 
  0.618  0.665  0.865  0.917  0.982
    eigenvectors:
  0.000  0.989  0.000  0.000  0.010
  0.000  0.000  0.049  0.951  0.000
  0.000  0.000  0.951  0.049  0.000
  0.000  0.010  0.000  0.000  0.990
  1.000  0.000  0.000  0.000  0.000
    occupations:
  0.668 -0.003 -0.001  0.032  0.001
 -0.003  0.914  0.011  0.000 -0.001
 -0.001  0.011  0.868 -0.000  0.000
  0.032  0.000 -0.000  0.978  0.000
  0.001 -0.001  0.000  0.000  0.618
atom    9   Tr[ns(na)] =   8.07664
    eigenvalues: 
  0.649  0.666  0.852  0.891  0.980
    eigenvectors:
  0.000  0.145  0.000  0.000  0.855
  1.000  0.000  0.000  0.000  0.000
  0.000  0.000  1.000  0.000  0.000
  0.000  0.855  0.000  0.000  0.145
  0.000  0.000  0.000  1.000  0.000
    occupations:
  0.935  0.000 -0.000 -0.111 -0.001
  0.000  0.649  0.000  0.000 -0.000
 -0.000  0.000  0.852 -0.000 -0.000
 -0.111  0.000 -0.000  0.711  0.001
 -0.001 -0.000 -0.000  0.001  0.891
atom   10   Tr[ns(na)] =   8.07188
    eigenvalues: 
  0.590  0.608  0.925  0.934  0.980
    eigenvectors:
  0.995  0.000  0.000  0.000  0.005
  0.000  0.000  1.000  0.000  0.000
  0.000  0.000  0.000  1.000  0.000
  0.005  0.000  0.000  0.000  0.995
  0.000  1.000  0.000  0.000  0.000
    occupations:
  0.592  0.000  0.002  0.029 -0.000
  0.000  0.925 -0.000  0.000 -0.000
  0.002 -0.000  0.934  0.000  0.000
  0.029  0.000  0.000  0.977  0.000
 -0.000 -0.000  0.000  0.000  0.608
atom   16   Tr[ns(na)] =   8.11936
    eigenvalues: 
  0.604  0.628  0.892  0.966  0.970
    eigenvectors:
  0.000  0.193  0.003  0.001  0.803
  1.000  0.000  0.000  0.000  0.000
  0.000  0.000  0.996  0.000  0.003
  0.000  0.807  0.000  0.000  0.192
  0.000  0.000  0.000  0.998  0.002
    occupations:
  0.904 -0.000  0.003 -0.135  0.000
 -0.000  0.604 -0.000 -0.000 -0.006
  0.003 -0.000  0.892 -0.004  0.001
 -0.135 -0.000 -0.004  0.694 -0.000
  0.000 -0.006  0.001 -0.000  0.966
atom   17   Tr[ns(na)] =   8.09395
    eigenvalues: 
  0.618  0.665  0.865  0.917  0.982
    eigenvectors:
  0.000  0.989  0.000  0.000  0.010
  0.000  0.000  0.049  0.951  0.000
  0.000  0.000  0.951  0.049  0.000
  0.000  0.010  0.000  0.000  0.990
  1.000  0.000  0.000  0.000  0.000
    occupations:
  0.668 -0.003 -0.001  0.032  0.001
 -0.003  0.914  0.011  0.000 -0.001
 -0.001  0.011  0.868 -0.000  0.000
  0.032  0.000 -0.000  0.978  0.000
  0.001 -0.001  0.000  0.000  0.618
atom   22   Tr[ns(na)] =   8.07665
    eigenvalues: 
  0.649  0.666  0.852  0.891  0.980
    eigenvectors:
  0.000  0.145  0.000  0.000  0.855
  1.000  0.000  0.000  0.000  0.000
  0.000  0.000  1.000  0.000  0.000
  0.000  0.855  0.000  0.000  0.145
  0.000  0.000  0.000  1.000  0.000
    occupations:
  0.935  0.000 -0.000 -0.111 -0.001
  0.000  0.649  0.000  0.000 -0.000
 -0.000  0.000  0.852 -0.000 -0.000
 -0.111  0.000 -0.000  0.711  0.001
 -0.001 -0.000 -0.000  0.001  0.891
atom   23   Tr[ns(na)] =   8.07201
    eigenvalues: 
  0.590  0.608  0.925  0.934  0.980
    eigenvectors:
  0.995  0.000  0.000  0.000  0.005
  0.000  0.000  1.000  0.000  0.000
  0.000  0.000  0.000  1.000  0.000
  0.005  0.000  0.000  0.000  0.995
  0.000  1.000  0.000  0.000  0.000
    occupations:
  0.592  0.000  0.002  0.029 -0.000
  0.000  0.925 -0.000  0.000 -0.000
  0.002 -0.000  0.934  0.000  0.000
  0.029  0.000  0.000  0.977  0.000
 -0.000 -0.000  0.000  0.000  0.608
N of occupied +U levels =  64.7240510
 --- exit write_ns ---

          k = 0.0000 0.0000 0.0000 ( 31045 PWs)   bands (ev):

   -50.8302 -50.8300 -50.8233 -50.7579 -50.7499 -50.7271 -50.7037 -50.6008
   -50.5995 -50.5855 -50.5842 -50.5355 -50.5311 -50.5050 -50.4842 -50.4817
   -50.4786 -50.4146 -50.4079 -50.4009 -50.3508 -50.3360 -50.2091 -50.1954
   -21.6533 -21.2861 -21.1622 -21.0606 -20.4421 -20.4172 -20.4065 -20.3523
   -20.3372 -20.2824 -20.1889 -20.0503 -19.8195 -19.6709 -19.6008 -19.5445
   -18.7048 -18.5756 -10.6107 -10.5388 -10.0859  -9.2223  -9.1212  -9.0254
    -8.8588  -8.7909  -8.6530  -8.6390  -8.6207  -8.5978  -8.5719  -8.3762
    -8.3190  -8.2661  -8.0759  -7.9322  -7.7793  -7.7756  -7.5499  -7.1767
    -7.1476  -6.9227  -6.6565  -6.3634  -6.3159  -6.1485  -6.0615  -5.9089
    -5.7636  -5.5592  -5.5471  -5.4855  -5.3594  -5.3510  -5.3051  -5.1975
    -5.0641  -4.9571  -4.8554  -4.7560  -4.5581  -4.4807  -4.4213  -4.3519
    -4.2573  -4.0474  -4.0092  -3.9863  -3.7230  -3.6454  -3.5927  -3.5367
    -3.5120  -3.4769  -3.4164  -3.2991  -3.0625  -3.0487  -3.0099  -2.9688
    -2.9312  -2.9094  -2.6992  -2.4135  -2.0678  -2.0483  -1.8431  -1.7600
    -1.7252  -1.3522  -1.1746  -1.0112  -0.9604  -0.5783  -0.5033  -0.2776
    -0.2596   0.0263   1.1409   1.4206   1.5024   1.5584   1.6840   1.7891
     2.1064   2.4015   2.6558   3.0374   3.2002   3.2272   3.4110   3.4523
     3.7974   4.0819   4.2822   4.7630   4.8973   5.7752   5.8969   6.2369
     6.3281   6.6311   6.9000   6.9608   7.2524   7.3489   7.3943   7.4816
     7.7623   7.8156   7.8878   7.9300   7.9407   8.0011   8.0047   8.0706
     8.2175   8.2790   8.3519   8.3757   8.3904   8.4581   8.5725   8.5988
     8.7138   8.8193   8.9978   9.1267   9.1461   9.1498   9.1613   9.2134
     9.2513   9.2525   9.3158   9.3638   9.3647   9.3711   9.3715   9.4807
     9.5165   9.6537   9.7715  10.0039  10.0935  10.1037  10.1368  10.3106
    10.4775  10.4837  10.5031  10.6914  10.8450  10.8920  11.0383  11.0873
    11.1139  11.1996  11.2353  11.2624  11.3293  11.4817  11.5497  11.6658
    11.6917  11.7096  11.7814  11.7967  11.8238  11.9274  11.9487  12.0116
    12.1551  12.1864  12.1984  12.2763  12.3840  12.3938  12.4799  12.6357
    12.6407  12.6459  12.7214  12.7389  12.8841  13.0210  13.1512  13.2290
    13.2586  13.5551  13.5845  13.6588  13.7190  13.7926  13.8878  13.9192
    14.1704  14.2215  14.2560  14.3303  14.4176  14.4968  14.6383  14.7659
    14.8914  14.9087  15.1342  15.1566  15.2511  15.2864  15.4084  15.4619
    15.5756  15.6515  15.7022  15.7251  15.7718  15.9079  15.9768  16.1263
    16.1680  16.2845  16.3210  16.5387  16.6271  16.7607  16.7959  16.7986
    17.1576  17.1924  17.2074  17.2791  17.3274  17.3704  17.4147  17.5256
    17.6346  17.8225  17.8595  17.8885  17.9339  17.9699  18.1494  18.2520
    18.3139  18.4375  18.4860  18.5461  18.5651  18.7099  18.7233  18.8148
    18.8560  18.9140  18.9226  19.0310  19.1321  19.1406  19.1550  19.2208
    19.2366  19.2443  19.3011  19.3717  19.4827  19.5626  19.5798  19.6607
    19.7635  19.7872  19.8211  19.9531  19.9554  19.9803  20.1057  20.1289
    20.2010  20.3517  20.3546  20.4044  20.4765  20.5399  20.5546  20.6234
    20.6421  20.6541  20.7429  20.7929  21.0092  21.0486  21.1404  21.2046
    21.2428  21.2845  21.3909  21.4166  21.5968  21.6362  21.7371  21.7627
    21.8982  21.9626  21.9655  22.0231

          k = 0.0000 0.2476 0.0000 ( 31078 PWs)   bands (ev):

   -50.8304 -50.8300 -50.8235 -50.7581 -50.7499 -50.7271 -50.7034 -50.6007
   -50.5980 -50.5851 -50.5835 -50.5357 -50.5309 -50.5043 -50.4865 -50.4812
   -50.4787 -50.4148 -50.4080 -50.4009 -50.3509 -50.3360 -50.2098 -50.1946
   -21.5721 -21.1547 -21.1274 -21.0595 -20.5712 -20.5107 -20.4536 -20.4362
   -20.3393 -20.1024 -20.0490 -20.0419 -19.8654 -19.8234 -19.7421 -19.5454
   -18.7028 -18.5742 -10.2333 -10.0635  -9.9798  -9.6126  -9.1533  -9.1204
    -9.0276  -8.9147  -8.6922  -8.5389  -8.4812  -8.4700  -8.4485  -8.3292
    -8.2594  -8.0785  -8.0403  -7.9129  -7.6864  -7.3496  -7.1669  -7.1547
    -7.0837  -6.8525  -6.6924  -6.6064  -6.4288  -6.3955  -6.2876  -6.2191
    -5.9984  -5.7653  -5.7336  -5.7113  -5.6146  -5.5217  -5.4125  -5.2143
    -5.1453  -5.1058  -5.1002  -4.8793  -4.7143  -4.5551  -4.5429  -4.3989
    -4.3524  -3.9955  -3.9927  -3.9647  -3.7568  -3.5516  -3.4715  -3.2882
    -3.2711  -3.1749  -3.0957  -3.0383  -3.0106  -2.9815  -2.9598  -2.9193
    -2.8773  -2.8512  -2.8247  -2.6128  -2.5356  -2.3688  -2.0091  -1.7311
    -1.7174  -1.1334  -1.0915  -0.8819  -0.7237  -0.5531  -0.4840  -0.3353
    -0.3076   0.0170   0.7285   0.9006   1.4442   1.5739   1.6601   2.2746
     2.6546   3.0209   3.1568   3.1909   3.2130   3.2678   3.2757   3.3945
     3.8001   4.0848   4.5121   4.9417   5.1121   5.4334   5.9293   6.0304
     6.2698   6.3902   6.4755   6.7502   6.7913   6.9802   7.0288   7.1945
     7.4241   7.5133   7.5559   7.7386   7.8139   8.1368   8.1909   8.2706
     8.4059   8.4156   8.5286   8.5450   8.5703   8.6023   8.7022   8.9292
     9.0024   9.0443   9.1454   9.1496   9.1637   9.2515   9.2525   9.3529
     9.3578   9.3640   9.3711   9.3716   9.3813   9.4317   9.5171   9.5193
     9.6038   9.7788   9.8810   9.9446  10.0822  10.1053  10.2136  10.2214
    10.2545  10.3027  10.4099  10.4122  10.4592  10.6005  10.7433  10.8583
    10.9119  10.9910  11.0129  11.1112  11.2358  11.2759  11.3563  11.4292
    11.6382  11.6511  11.6615  12.0257  12.0587  12.1422  12.1546  12.3540
    12.4589  12.4761  12.5621  12.6155  12.6603  12.6969  12.7571  12.8881
    12.9738  13.0690  13.1695  13.2219  13.3669  13.5907  13.6161  13.6381
    13.7840  13.8199  13.8300  13.8314  13.9769  14.0079  14.0870  14.1089
    14.1181  14.3059  14.4012  14.5294  14.5516  14.5589  14.7595  14.8030
    14.8556  14.9481  15.0802  15.3224  15.3933  15.4031  15.5114  15.5290
    15.5798  15.5840  15.7600  15.8230  15.8527  15.9455  15.9832  16.0572
    16.0891  16.2451  16.2608  16.3873  16.4909  16.4975  16.5746  16.6615
    16.7102  16.7110  16.9462  17.0336  17.0410  17.1349  17.1962  17.2725
    17.3064  17.3727  17.4214  17.4794  17.5799  17.6282  17.7077  17.9198
    18.0110  18.1195  18.1733  18.2303  18.4843  18.5284  18.5480  18.5755
    18.6747  18.7941  18.8494  18.8980  18.9376  18.9629  19.1057  19.1174
    19.2081  19.2557  19.2794  19.3481  19.3820  19.4023  19.4300  19.5312
    19.5575  19.5705  19.6212  19.6633  19.7558  19.8015  19.8114  19.8632
    19.8789  19.9417  20.0010  20.0756  20.0964  20.1732  20.2565  20.2908
    20.3965  20.4168  20.5818  20.6725  20.8039  20.8155  20.8684  20.8904
    20.9509  21.0026  21.0071  21.0135  21.0647  21.0694  21.1556  21.2071
    21.2097  21.2627  21.2991  21.5013

          k = 0.0000-0.4953 0.0000 ( 31160 PWs)   bands (ev):

   -50.8305 -50.8300 -50.8238 -50.7582 -50.7499 -50.7271 -50.7030 -50.6006
   -50.5963 -50.5847 -50.5829 -50.5358 -50.5307 -50.5036 -50.4889 -50.4806
   -50.4788 -50.4149 -50.4081 -50.4008 -50.3511 -50.3360 -50.2105 -50.1939
   -21.4864 -21.0925 -21.0584 -20.9283 -20.6608 -20.5941 -20.5411 -20.4303
   -20.3646 -20.0672 -20.0230 -19.9934 -19.9757 -19.9551 -19.7914 -19.5460
   -18.7008 -18.5736 -10.1207  -9.8492  -9.4392  -9.4261  -9.3194  -9.1365
    -9.0294  -8.9785  -8.5792  -8.3706  -8.3506  -8.3437  -8.2491  -8.2373
    -8.1407  -8.0778  -8.0773  -7.9608  -7.5875  -7.3791  -7.3174  -7.2297
    -7.2293  -7.1596  -7.0251  -6.5246  -6.4846  -6.4642  -6.3581  -6.1055
    -6.0914  -6.0673  -5.9811  -5.9264  -5.8548  -5.7919  -5.5980  -5.2266
    -5.1868  -5.0165  -4.9645  -4.9078  -4.8534  -4.4937  -4.4464  -4.3398
    -4.1418  -4.0716  -4.0329  -3.9748  -3.7630  -3.6080  -3.5068  -3.4292
    -3.3661  -3.2369  -3.2350  -3.2073  -3.0380  -3.0153  -3.0086  -2.9997
    -2.8876  -2.8049  -2.5536  -2.3322  -2.3000  -2.1947  -1.8594  -1.6713
    -1.6086  -1.3994  -1.2208  -0.9832  -0.6316  -0.4823  -0.3580  -0.3449
    -0.3262   0.1272   0.3351   0.5065   1.4633   1.5888   2.1475   2.6207
     2.6507   2.8877   2.9560   3.2665   3.3402   3.5175   3.7988   3.8006
     4.0791   4.3208   4.5827   5.1746   5.2073   5.2693   5.5585   5.6964
     5.7871   5.9750   6.4776   6.5386   6.6404   6.7604   6.8750   6.9778
     7.3462   7.4065   7.5312   7.5966   7.8413   7.9174   8.2070   8.5353
     8.5929   8.6576   8.7165   8.7557   8.8196   8.9230   8.9370   9.0207
     9.0576   9.1019   9.1220   9.1497   9.1523   9.1749   9.1984   9.2511
     9.2517   9.2624   9.2665   9.3652   9.3668   9.3671   9.3724   9.3749
     9.5013   9.5501   9.5789   9.7783   9.8830   9.9014  10.0544  10.1128
    10.1261  10.2101  10.2483  10.2801  10.4030  10.9094  10.9686  11.0667
    11.1306  11.1703  11.2883  11.3468  11.4910  11.5517  11.6519  11.7017
    11.7304  11.8764  12.1394  12.2032  12.3180  12.3195  12.4187  12.4505
    12.6103  12.6486  12.7068  12.7901  12.8068  12.8630  12.9404  13.0066
    13.0470  13.1112  13.2223  13.2718  13.3670  13.4449  13.4846  13.5638
    13.5979  13.7824  13.8307  13.9329  14.0258  14.1565  14.1721  14.2614
    14.3539  14.5437  14.5866  14.6800  14.7400  14.9202  15.1415  15.2059
    15.2562  15.3120  15.3710  15.4630  15.5306  15.5768  15.6341  15.7183
    15.8293  15.8327  15.9846  15.9992  16.0555  16.0993  16.1178  16.1408
    16.2000  16.2438  16.3403  16.3841  16.4419  16.4553  16.5186  16.5519
    16.5576  16.6107  16.6918  16.8172  16.8522  16.8850  16.9557  16.9960
    17.0606  17.1462  17.2178  17.3215  17.3450  17.4499  17.4864  17.5960
    17.7761  17.7893  17.8627  17.8794  17.9369  17.9710  18.0653  18.0683
    18.1836  18.2783  18.3026  18.3348  18.3859  18.4212  18.4303  18.5270
    18.5985  18.6468  18.7216  18.8605  18.9307  19.2020  19.2124  19.3828
    19.4043  19.4216  19.4389  19.5486  19.5632  19.6087  19.7893  19.8988
    19.9221  19.9315  20.0509  20.0714  20.1222  20.1524  20.1559  20.2480
    20.2640  20.3131  20.4178  20.4235  20.4468  20.4952  20.5473  20.5898
    20.6159  20.6315  20.6972  20.7899  20.8021  20.8893  20.9037  20.9847
    21.0318  21.0526  21.0918  21.1400

          k = 0.2500 0.0000 0.0000 ( 31106 PWs)   bands (ev):

   -50.8292 -50.8245 -50.8169 -50.7588 -50.7506 -50.7414 -50.6904 -50.6174
   -50.5982 -50.5881 -50.5702 -50.5346 -50.5307 -50.4956 -50.4936 -50.4839
   -50.4821 -50.4253 -50.4114 -50.4028 -50.3487 -50.3383 -50.2071 -50.1975
   -21.5261 -21.1609 -21.0693 -21.0614 -20.6383 -20.4868 -20.4117 -20.4037
   -20.2880 -20.2036 -20.1085 -20.0453 -19.7873 -19.7595 -19.6928 -19.5722
   -18.7595 -18.6508 -10.3689 -10.3137  -9.8915  -9.2709  -9.0160  -9.0005
    -8.9529  -8.8923  -8.7914  -8.6337  -8.6225  -8.5149  -8.4835  -8.3611
    -8.2256  -8.1688  -7.9154  -7.8161  -7.7536  -7.7246  -7.4725  -7.2289
    -7.1098  -6.8646  -6.6573  -6.5515  -6.3033  -6.1983  -6.0848  -6.0280
    -6.0144  -5.9547  -5.8303  -5.8056  -5.6260  -5.6249  -5.2251  -5.1939
    -5.0852  -5.0610  -4.9656  -4.9588  -4.8824  -4.7064  -4.5632  -4.5182
    -4.5039  -4.3477  -4.2241  -4.0333  -3.7326  -3.6791  -3.4810  -3.3493
    -3.3249  -3.2506  -3.1817  -3.0396  -3.0081  -2.9651  -2.9562  -2.7008
    -2.5809  -2.3869  -2.2932  -2.1681  -1.9918  -1.9337  -1.7970  -1.5962
    -1.5208  -1.3633  -1.2915  -1.2865  -0.9506  -0.7289  -0.4825  -0.2841
    -0.1654  -0.1337   1.3464   1.5374   1.5960   1.7040   1.8683   1.9131
     2.1010   2.3245   2.4298   3.0129   3.0863   3.0918   3.1729   3.3719
     3.4817   4.2744   4.5231   4.9830   5.1662   5.3872   5.8107   6.0315
     6.0857   6.3892   6.4966   6.6993   6.9883   7.1653   7.4455   7.5113
     7.5229   7.5948   7.6105   7.9032   7.9964   8.1471   8.2070   8.2497
     8.2539   8.2924   8.4480   8.5435   8.6319   8.8415   8.8841   8.9238
     9.0019   9.0337   9.1138   9.1474   9.1497   9.2259   9.2522   9.2522
     9.3615   9.3642   9.3702   9.3710   9.3783   9.4421   9.4960   9.7099
     9.7191   9.7539   9.9336   9.9529  10.0294  10.1123  10.1497  10.2125
    10.2671  10.3445  10.4436  10.4519  10.5188  10.5893  10.6487  10.9132
    10.9704  11.1065  11.1371  11.1749  11.1986  11.2276  11.2756  11.3621
    11.3763  11.5044  11.7629  11.9316  11.9474  11.9646  12.0632  12.1453
    12.2675  12.3873  12.4628  12.4835  12.6631  12.7307  12.7656  12.7830
    12.8172  13.1904  13.2648  13.3455  13.3922  13.4638  13.6783  13.6855
    13.7313  13.8378  13.8745  13.9670  13.9969  14.0769  14.1199  14.1752
    14.2086  14.2596  14.2873  14.4515  14.5214  14.5669  14.5995  14.6556
    14.7934  14.8820  14.9150  15.0697  15.1331  15.2312  15.3146  15.3557
    15.4259  15.5329  15.5588  15.7002  15.7462  15.9159  15.9193  16.0302
    16.0396  16.1494  16.2136  16.3023  16.3415  16.3663  16.4013  16.4491
    16.6596  16.7332  16.8966  17.0873  17.1018  17.1848  17.2707  17.2843
    17.4350  17.4774  17.4983  17.5872  17.6967  17.7100  17.9165  18.0542
    18.1299  18.1725  18.2567  18.4003  18.4863  18.5863  18.6553  18.6813
    18.7645  18.9314  19.0540  19.0908  19.1879  19.1999  19.2178  19.2675
    19.2849  19.3519  19.3539  19.3924  19.4176  19.4851  19.5497  19.5788
    19.5944  19.6488  19.6713  19.7789  19.8289  19.8767  19.9196  20.0303
    20.0505  20.0879  20.1401  20.1998  20.2155  20.2302  20.3115  20.4342
    20.4752  20.5117  20.5328  20.6228  20.6663  20.6920  20.7884  20.7970
    20.8433  20.8631  20.9821  20.9995  21.1025  21.1796  21.1906  21.2673
    21.3097  21.3397  21.3645  21.4000

          k = 0.2500 0.2476 0.0000 ( 31099 PWs)   bands (ev):

   -50.8292 -50.8246 -50.8170 -50.7589 -50.7506 -50.7415 -50.6900 -50.6173
   -50.5965 -50.5875 -50.5697 -50.5347 -50.5306 -50.4956 -50.4929 -50.4859
   -50.4820 -50.4253 -50.4115 -50.4028 -50.3488 -50.3383 -50.2077 -50.1969
   -21.4574 -21.0672 -21.0465 -21.0011 -20.6327 -20.5113 -20.4302 -20.4234
   -20.3078 -20.2096 -20.0997 -20.0220 -19.9234 -19.8810 -19.7514 -19.5729
   -18.7583 -18.6494 -10.0046  -9.8472  -9.7860  -9.4515  -8.9714  -8.9577
    -8.9167  -8.7951  -8.7057  -8.6852  -8.6167  -8.5317  -8.4312  -8.3678
    -8.1318  -8.1137  -7.9895  -7.8084  -7.4993  -7.4579  -7.3585  -7.2759
    -7.1309  -6.8797  -6.7369  -6.5737  -6.5310  -6.3569  -6.2683  -6.2527
    -6.1063  -6.1035  -6.0371  -5.9478  -5.8744  -5.7816  -5.6323  -5.5715
    -5.3038  -5.2390  -5.1436  -4.8967  -4.8430  -4.7871  -4.6241  -4.4825
    -4.4334  -4.2451  -4.1587  -3.9351  -3.7608  -3.5195  -3.3635  -3.3408
    -3.3243  -3.1439  -2.9642  -2.9260  -2.7729  -2.7421  -2.6907  -2.6272
    -2.6082  -2.5169  -2.3536  -2.3367  -2.1702  -2.1242  -1.9422  -1.6528
    -1.3647  -1.2453  -1.1975  -0.9872  -0.9752  -0.7740  -0.5709  -0.4244
    -0.1586   0.0430   0.9651   1.1296   1.5760   1.6199   1.7577   2.1665
     2.3776   2.6584   2.8324   2.8721   3.1649   3.1795   3.3172   3.4030
     3.7670   4.3174   4.7568   5.1682   5.3922   5.5585   5.6633   5.9060
     6.1368   6.2897   6.5386   6.5954   6.6324   6.8669   7.0459   7.1148
     7.2743   7.3758   7.4484   7.6285   7.6743   7.8841   7.9478   8.0438
     8.1433   8.3550   8.4374   8.4859   8.5580   8.7403   8.7936   8.8770
     8.8960   9.1184   9.1464   9.1487   9.1514   9.2286   9.2520   9.2540
     9.2967   9.3638   9.3654   9.3719   9.3723   9.4699   9.6131   9.6831
     9.7319   9.9133   9.9990  10.0871  10.2193  10.3039  10.3193  10.4005
    10.4161  10.4995  10.5730  10.6982  10.8082  10.8512  10.9093  10.9995
    11.0217  11.2308  11.3189  11.4021  11.5605  11.5714  11.6199  11.7520
    11.7827  11.9257  12.0472  12.1290  12.1427  12.2655  12.2779  12.3884
    12.4982  12.6262  12.6300  12.6753  12.6857  12.7996  12.8290  12.9641
    13.0400  13.0787  13.1343  13.1753  13.2120  13.3337  13.4714  13.5884
    13.5942  13.7216  13.8194  13.8366  13.9742  14.0418  14.1007  14.1056
    14.2325  14.3567  14.4358  14.4715  14.5513  14.7256  14.7536  14.8862
    14.9476  15.2273  15.2618  15.2995  15.3859  15.4895  15.5415  15.5707
    15.6202  15.7665  15.7992  15.8385  15.8894  15.9064  15.9576  16.0527
    16.0637  16.1209  16.1590  16.2375  16.3379  16.3585  16.3956  16.4784
    16.5758  16.6504  16.6915  16.7390  16.8338  16.8664  17.0086  17.1182
    17.1690  17.3501  17.3598  17.4353  17.4406  17.5148  17.5528  17.5724
    17.6584  17.7230  17.7355  17.8173  17.8718  17.8800  17.9671  17.9825
    18.1833  18.2791  18.3337  18.3424  18.4745  18.5007  18.5688  18.6128
    18.7294  18.8127  18.9010  18.9459  19.0522  19.0725  19.1425  19.2179
    19.2252  19.2930  19.3682  19.4094  19.5772  19.6755  19.7103  19.7228
    19.8458  19.8749  19.9409  20.0173  20.0659  20.2864  20.3608  20.3876
    20.4915  20.5275  20.6152  20.6199  20.6941  20.6966  20.7934  20.8607
    20.9295  20.9296  21.0370  21.0978  21.1055  21.2654  21.2963  21.3115
    21.3714  21.4344  21.4929  21.5809

          k = 0.2500-0.4953 0.0000 ( 31088 PWs)   bands (ev):

   -50.8292 -50.8248 -50.8171 -50.7590 -50.7507 -50.7415 -50.6897 -50.6172
   -50.5951 -50.5866 -50.5692 -50.5348 -50.5306 -50.4957 -50.4923 -50.4878
   -50.4820 -50.4252 -50.4117 -50.4028 -50.3489 -50.3383 -50.2082 -50.1964
   -21.3892 -21.0649 -20.9524 -20.8122 -20.6258 -20.5349 -20.4571 -20.4420
   -20.4039 -20.2191 -20.1065 -20.0894 -20.0229 -20.0006 -19.7614 -19.5734
   -18.7572 -18.6487  -9.9087  -9.5846  -9.1886  -9.0898  -9.0617  -8.9649
    -8.9474  -8.7789  -8.6336  -8.4676  -8.4623  -8.4456  -8.4227  -8.3323
    -8.1777  -8.0116  -7.9749  -7.6835  -7.5459  -7.4773  -7.3738  -7.2974
    -7.0783  -7.0023  -6.9630  -6.9250  -6.9074  -6.7636  -6.5202  -6.4357
    -6.4016  -6.0707  -6.0517  -6.0406  -5.9862  -5.9207  -5.8042  -5.7735
    -5.5306  -5.4125  -5.0021  -4.9280  -4.8174  -4.6451  -4.5908  -4.3479
    -4.2834  -4.0907  -4.0664  -3.8488  -3.7512  -3.7021  -3.4759  -3.4194
    -3.1729  -3.0343  -3.0312  -2.8831  -2.8632  -2.7884  -2.7397  -2.6662
    -2.5658  -2.5596  -2.3954  -2.1306  -2.0725  -1.7765  -1.7277  -1.5974
    -1.4309  -1.3169  -1.3113  -1.0426  -0.8251  -0.7502  -0.6272  -0.5184
    -0.0430   0.1596   0.5430   0.7176   1.5893   1.6352   2.1701   2.1863
     2.2876   2.4065   2.8249   3.1767   3.1910   3.3776   3.4706   3.6986
     4.3634   4.5267   4.8562   5.4323   5.4724   5.5503   5.8118   5.8608
     5.9912   6.0189   6.0796   6.2790   6.5679   6.7504   6.8220   7.0513
     7.2491   7.2716   7.2970   7.4097   7.5763   7.7393   7.8554   7.9093
     8.0262   8.1263   8.2085   8.2199   8.3720   8.4947   8.6064   8.7490
     8.8876   8.9745   9.0244   9.1490   9.1493   9.2516   9.2519   9.3625
     9.3629   9.3689   9.3714   9.4138   9.4581   9.5457   9.5831   9.7193
     9.8129   9.8212  10.0037  10.0519  10.2055  10.2779  10.3796  10.4239
    10.5244  10.9157  10.9673  11.0006  11.0622  11.3069  11.3836  11.4212
    11.4410  11.4996  11.5667  11.6631  11.7516  11.7600  11.8780  12.0068
    12.0142  12.1021  12.1464  12.2273  12.4573  12.4577  12.5660  12.6155
    12.7126  12.7273  12.7863  12.8407  12.8565  13.0382  13.1170  13.1908
    13.2435  13.2479  13.3061  13.3080  13.3918  13.5660  13.5712  13.6111
    13.6541  13.8557  13.9150  13.9354  14.0011  14.1107  14.2350  14.3960
    14.4843  14.5238  14.5568  14.5977  14.6345  14.6476  14.7140  14.7351
    14.7937  14.8472  14.9290  14.9490  15.0303  15.1049  15.1302  15.3050
    15.3879  15.4792  15.5022  15.5677  15.6428  15.8174  15.8771  15.9609
    16.0048  16.0778  16.1460  16.1777  16.2145  16.3650  16.4341  16.4774
    16.5234  16.5985  16.6405  16.6588  16.7584  16.7810  16.9046  16.9308
    16.9489  17.0394  17.0654  17.1254  17.2147  17.3004  17.3316  17.3410
    17.4958  17.5800  17.6240  17.6478  17.7909  17.9047  17.9144  17.9259
    18.0201  18.0381  18.2020  18.2755  18.3732  18.3971  18.4290  18.5364
    18.6054  18.6134  18.6945  18.6990  18.7489  18.8740  18.9052  18.9400
    19.0328  19.0564  19.1626  19.1717  19.3058  19.4170  19.4186  19.4272
    19.6006  19.6698  19.7024  19.7493  19.8127  19.8133  19.8392  19.9071
    19.9894  19.9936  20.3224  20.3281  20.5018  20.5110  20.5706  20.5731
    20.6627  20.7681  20.7741  20.8811  20.9468  20.9957  21.0146  21.1494
    21.1643  21.2364  21.3168  21.4904

          k =-0.5000 0.0000 0.0000 ( 31104 PWs)   bands (ev):

   -50.8270 -50.8270 -50.7833 -50.7831 -50.7521 -50.7519 -50.6555 -50.6555
   -50.5938 -50.5936 -50.5349 -50.5347 -50.5322 -50.5319 -50.4832 -50.4829
   -50.4613 -50.4611 -50.4074 -50.4071 -50.3436 -50.3435 -50.2025 -50.2022
   -21.2378 -21.2378 -20.8958 -20.8958 -20.7981 -20.7980 -20.4574 -20.4573
   -20.1192 -20.1191 -19.9924 -19.9923 -19.9065 -19.9065 -19.6687 -19.6685
   -18.7726 -18.7716  -9.7352  -9.7351  -9.7133  -9.7133  -9.4638  -9.4638
    -8.7809  -8.7808  -8.7189  -8.7189  -8.5485  -8.5484  -8.3846  -8.3845
    -7.9793  -7.9793  -7.8474  -7.8474  -7.4382  -7.4382  -7.1317  -7.1317
    -6.9782  -6.9781  -6.8456  -6.8455  -6.5831  -6.5831  -6.3255  -6.3250
    -6.1911  -6.1910  -5.7538  -5.7538  -5.6729  -5.6729  -5.6020  -5.6018
    -5.4075  -5.4074  -5.1088  -5.1087  -4.8311  -4.8310  -4.6483  -4.6482
    -4.4461  -4.4461  -4.0531  -4.0530  -3.5677  -3.5676  -3.4956  -3.4956
    -3.0750  -3.0749  -3.0327  -3.0326  -2.9390  -2.9389  -2.7169  -2.7168
    -2.1080  -2.1079  -1.9829  -1.9827  -1.8597  -1.8596  -1.6657  -1.6655
    -1.3623  -1.3622  -1.2937  -1.2930  -0.9331  -0.9330  -0.5526  -0.5525
    -0.0832  -0.0831   1.6361   1.6362   1.7906   1.7907   2.2694   2.2694
     2.2848   2.2850   2.3687   2.3689   2.3958   2.3959   3.2723   3.2724
     4.3058   4.3058   4.8517   4.8518   5.2373   5.2373   5.6363   5.6363
     5.9052   5.9052   6.6149   6.6149   6.7073   6.7074   7.1011   7.1011
     7.7465   7.7465   8.1153   8.1154   8.1779   8.1779   8.2340   8.2341
     8.5995   8.5996   8.8179   8.8179   8.8736   8.8736   9.0321   9.0321
     9.0840   9.0840   9.1495   9.1497   9.2131   9.2131   9.2523   9.2523
     9.3253   9.3253   9.3636   9.3638   9.3709   9.3712   9.4180   9.4180
     9.5571   9.5572   9.6691   9.6692   9.8735   9.8736  10.0575  10.0575
    10.1335  10.1335  10.2977  10.2977  10.5795  10.5796  10.9346  10.9346
    10.9935  10.9936  11.2796  11.2796  11.5927  11.5927  11.7142  11.7142
    11.8334  11.8335  11.9660  11.9660  12.0378  12.0378  12.3980  12.3980
    12.5405  12.5405  12.7614  12.7614  12.8740  12.8740  13.0085  13.0085
    13.1532  13.1533  13.2089  13.2091  13.3008  13.3008  13.5310  13.5311
    13.6590  13.6591  13.7887  13.7887  13.9963  13.9963  14.0753  14.0753
    14.1949  14.1949  14.2815  14.2815  14.4803  14.4803  14.6621  14.6621
    14.8099  14.8099  15.0934  15.0934  15.3386  15.3386  15.4755  15.4756
    15.8654  15.8654  16.0680  16.0681  16.1860  16.1860  16.2321  16.2322
    16.2885  16.2885  16.3841  16.3842  16.4436  16.4437  16.5786  16.5786
    16.6264  16.6264  16.6690  16.6691  16.8155  16.8155  16.8596  16.8597
    17.0544  17.0544  17.2110  17.2110  17.5202  17.5203  17.6304  17.6305
    17.8115  17.8115  18.0407  18.0407  18.1298  18.1298  18.3818  18.3818
    18.4657  18.4658  18.5366  18.5367  18.7349  18.7350  18.8842  18.8842
    19.0657  19.0659  19.1079  19.1080  19.2357  19.2358  19.3292  19.3293
    19.5469  19.5469  19.5953  19.5953  19.7426  19.7427  19.7997  19.7997
    19.8978  19.8978  20.0153  20.0153  20.1081  20.1081  20.2232  20.2232
    20.2674  20.2674  20.3082  20.3082  20.5014  20.5014  20.6485  20.6485
    20.7374  20.7375  20.9598  20.9599  21.0060  21.0061  21.0981  21.0982
    21.1722  21.1723  21.2601  21.2603

          k =-0.5000 0.2476 0.0000 ( 31120 PWs)   bands (ev):

   -50.8271 -50.8270 -50.7834 -50.7832 -50.7522 -50.7520 -50.6553 -50.6553
   -50.5927 -50.5922 -50.5347 -50.5345 -50.5322 -50.5320 -50.4843 -50.4839
   -50.4610 -50.4608 -50.4075 -50.4072 -50.3436 -50.3436 -50.2025 -50.2022
   -21.2083 -21.2080 -20.8156 -20.8153 -20.6992 -20.6990 -20.4687 -20.4686
   -20.1833 -20.1794 -20.0811 -20.0782 -20.0206 -20.0197 -19.6660 -19.6655
   -18.7716 -18.7706  -9.4632  -9.4580  -9.3385  -9.3367  -9.3082  -9.3079
    -8.7739  -8.7710  -8.7214  -8.7195  -8.5024  -8.4947  -8.3567  -8.3524
    -8.1075  -8.0622  -7.7756  -7.7335  -7.5144  -7.4906  -7.3601  -7.3593
    -7.1930  -7.1104  -6.9670  -6.8523  -6.6043  -6.5555  -6.4097  -6.3842
    -6.1902  -6.1806  -5.9710  -5.9629  -5.8206  -5.8107  -5.7377  -5.7366
    -5.6743  -5.6581  -5.3651  -5.3239  -4.8821  -4.8194  -4.6583  -4.6123
    -4.4644  -4.3503  -4.0272  -3.8519  -3.7625  -3.7405  -3.4862  -3.4414
    -2.9886  -2.9808  -2.7947  -2.7463  -2.5777  -2.5568  -2.5287  -2.4859
    -2.3644  -2.2938  -2.1725  -2.1297  -1.7256  -1.6941  -1.6180  -1.6116
    -1.3700  -1.3690  -1.2115  -1.1499  -1.0374  -1.0147  -0.7326  -0.7124
     0.0475   0.0479   1.5826   1.5901   1.6475   1.6479   1.8339   1.8346
     2.0934   2.0995   2.5664   2.5751   2.9319   2.9335   3.3706   3.3754
     4.5403   4.5500   4.9488   4.9489   5.4649   5.4661   5.8232   5.8325
     6.1025   6.1159   6.3260   6.3522   6.7266   6.7302   6.9844   6.9956
     7.2268   7.2325   7.3184   7.3200   7.7309   7.7425   7.9156   7.9380
     8.0914   8.1077   8.2751   8.3058   8.5764   8.6080   8.7721   8.8373
     9.0101   9.1250   9.1493   9.1500   9.2512   9.2513   9.3022   9.3056
     9.3651   9.3655   9.3734   9.3738   9.6006   9.6283   9.6948   9.6996
     9.8429   9.8431   9.9268   9.9478  10.2612  10.2730  10.4862  10.5086
    10.7428  10.7451  10.8923  10.8998  10.9721  10.9831  11.1297  11.1404
    11.3695  11.3790  11.5300  11.5383  11.7060  11.7144  11.8973  11.9514
    12.0746  12.1153  12.2437  12.2485  12.2699  12.2812  12.5679  12.5686
    12.6283  12.6639  12.9051  12.9258  13.0038  13.0257  13.1717  13.1821
    13.2743  13.2851  13.3884  13.4025  13.4879  13.4910  13.5384  13.5557
    13.7491  13.7681  13.8750  13.8867  14.1059  14.1464  14.2484  14.2513
    14.3498  14.3596  14.4089  14.4259  14.5367  14.5511  14.5971  14.6216
    14.6926  14.7004  14.8844  14.9070  14.9895  15.0103  15.0861  15.0884
    15.2388  15.2479  15.4405  15.4555  15.6125  15.6205  15.8524  15.8792
    16.0523  16.0710  16.1942  16.2169  16.3339  16.3355  16.3904  16.4163
    16.5836  16.5906  16.6029  16.6145  16.6873  16.7076  16.7874  16.8040
    16.9661  16.9753  17.1301  17.1313  17.2151  17.3035  17.4646  17.4808
    17.5628  17.5812  17.7473  17.7510  17.8857  17.9398  17.9576  17.9984
    18.0873  18.1144  18.3074  18.3461  18.3860  18.3959  18.4436  18.4479
    18.6124  18.6255  18.7438  18.7461  18.8396  18.8411  18.9827  19.0157
    19.1386  19.1634  19.2388  19.2786  19.4320  19.4365  19.5833  19.6176
    19.6831  19.6943  19.7982  19.8127  19.9701  19.9795  20.1014  20.1043
    20.2934  20.3090  20.3288  20.3392  20.4173  20.4693  20.5262  20.5890
    20.7506  20.7652  20.9156  20.9511  20.9817  21.0218  21.2580  21.2920
    21.4126  21.4194  21.5724  21.5932

          k =-0.5000-0.4953 0.0000 ( 31140 PWs)   bands (ev):

   -50.8271 -50.8271 -50.7834 -50.7832 -50.7522 -50.7520 -50.6551 -50.6551
   -50.5912 -50.5910 -50.5345 -50.5343 -50.5322 -50.5320 -50.4852 -50.4850
   -50.4607 -50.4605 -50.4075 -50.4073 -50.3437 -50.3437 -50.2025 -50.2021
   -21.1817 -21.1817 -20.6294 -20.6293 -20.6113 -20.6112 -20.3916 -20.3916
   -20.3840 -20.3839 -20.2855 -20.2854 -20.0510 -20.0508 -19.6655 -19.6654
   -18.7707 -18.7697  -9.4419  -9.4419  -8.7829  -8.7829  -8.7673  -8.7673
    -8.5325  -8.5325  -8.4998  -8.4997  -8.4242  -8.4242  -8.3926  -8.3926
    -8.2133  -8.2133  -8.1267  -8.1267  -7.9993  -7.9993  -7.5497  -7.5496
    -7.0199  -7.0198  -6.7870  -6.7869  -6.7007  -6.7006  -6.4619  -6.4618
    -6.4090  -6.4089  -6.3470  -6.3468  -6.1747  -6.1746  -6.1336  -6.1336
    -5.7465  -5.7463  -5.0378  -5.0378  -4.8237  -4.8237  -4.5228  -4.5227
    -4.2561  -4.2557  -4.1519  -4.1519  -3.5681  -3.5680  -3.2629  -3.2628
    -3.0600  -3.0600  -2.7988  -2.7988  -2.6408  -2.6407  -2.4571  -2.4570
    -2.1859  -2.1858  -2.1537  -2.1536  -1.5533  -1.5531  -1.4875  -1.4874
    -1.3267  -1.3262  -1.1652  -1.1650  -1.0016  -1.0015  -0.9003  -0.9002
     0.1442   0.1443   1.2120   1.2121   1.3643   1.3645   1.7745   1.7746
     2.1578   2.1583   2.8399   2.8400   3.0670   3.0671   3.5261   3.5264
     4.9950   4.9951   5.1186   5.1186   5.5521   5.5521   6.1298   6.1298
     6.1744   6.1744   6.2866   6.2866   6.5105   6.5105   6.7193   6.7193
     6.8231   6.8231   7.0364   7.0365   7.4539   7.4539   7.5208   7.5208
     7.7578   7.7578   8.0109   8.0109   8.4817   8.4817   8.8159   8.8159
     8.9471   8.9471   9.1495   9.1497   9.1996   9.1996   9.2522   9.2523
     9.3353   9.3354   9.3701   9.3704   9.3718   9.3721   9.9034   9.9034
    10.0871  10.0872  10.2034  10.2034  10.3343  10.3344  10.5587  10.5587
    10.9050  10.9050  10.9821  10.9822  11.2491  11.2491  11.7163  11.7163
    11.9520  11.9520  12.1768  12.1769  12.2866  12.2866  12.4930  12.4930
    12.5290  12.5290  12.6619  12.6620  12.8405  12.8405  12.9646  12.9647
    13.0572  13.0572  13.2332  13.2333  13.3911  13.3911  13.4571  13.4571
    13.5287  13.5288  13.5907  13.5907  13.6786  13.6786  13.7172  13.7173
    13.7507  13.7507  13.8508  13.8509  13.9701  13.9701  14.0167  14.0167
    14.0589  14.0589  14.2634  14.2636  14.3224  14.3224  14.4475  14.4475
    14.4943  14.4943  14.6159  14.6160  14.8035  14.8035  15.0628  15.0628
    15.1607  15.1607  15.2485  15.2485  15.3088  15.3088  15.3629  15.3629
    15.4569  15.4569  15.5779  15.5779  15.7525  15.7525  15.8169  15.8169
    15.9342  15.9342  16.0283  16.0283  16.3463  16.3463  16.5049  16.5049
    16.7245  16.7246  16.8397  16.8397  16.9421  16.9421  17.0105  17.0105
    17.1857  17.1857  17.3555  17.3555  17.5707  17.5707  17.7963  17.7964
    18.0958  18.0958  18.1572  18.1572  18.3474  18.3475  18.3757  18.3758
    18.4259  18.4260  18.7436  18.7436  18.9150  18.9151  19.1589  19.1589
    19.3420  19.3420  19.4761  19.4761  19.6437  19.6438  19.7109  19.7110
    20.1042  20.1042  20.1965  20.1965  20.2869  20.2869  20.6155  20.6155
    20.6529  20.6529  20.7163  20.7163  20.7733  20.7733  20.9352  20.9353
    21.0116  21.0117  21.0531  21.0531  21.2508  21.2508  21.3149  21.3149
    21.3426  21.3426  21.4479  21.4480

          k =-0.2500 0.2476 0.0000 ( 31099 PWs)   bands (ev):

   -50.8292 -50.8246 -50.8170 -50.7589 -50.7506 -50.7414 -50.6900 -50.6173
   -50.5968 -50.5872 -50.5697 -50.5347 -50.5307 -50.4956 -50.4930 -50.4857
   -50.4821 -50.4252 -50.4116 -50.4028 -50.3488 -50.3383 -50.2077 -50.1969
   -21.4575 -21.0670 -21.0465 -21.0008 -20.6324 -20.5115 -20.4300 -20.4234
   -20.3077 -20.2128 -20.0999 -20.0191 -19.9231 -19.8808 -19.7524 -19.5727
   -18.7583 -18.6494 -10.0012  -9.8479  -9.7878  -9.4573  -8.9593  -8.9591
    -8.9353  -8.7690  -8.7034  -8.6857  -8.6206  -8.5364  -8.4313  -8.3761
    -8.1395  -8.1356  -7.9901  -7.7905  -7.4859  -7.4653  -7.3603  -7.2093
    -7.1375  -6.8672  -6.7540  -6.6397  -6.5258  -6.3766  -6.2839  -6.2532
    -6.1362  -6.0981  -5.9623  -5.9247  -5.8780  -5.7786  -5.6336  -5.5752
    -5.3040  -5.2491  -5.1071  -4.9395  -4.9045  -4.6768  -4.6336  -4.5787
    -4.4206  -4.2627  -4.1704  -3.8692  -3.7430  -3.5182  -3.3959  -3.3157
    -3.2789  -3.1119  -2.9622  -2.9258  -2.8011  -2.7646  -2.7461  -2.6168
    -2.6124  -2.5068  -2.4414  -2.2967  -2.1611  -2.1110  -1.8865  -1.6723
    -1.3623  -1.2229  -1.2207  -1.0009  -0.9889  -0.7487  -0.5723  -0.4284
    -0.1580   0.0426   0.9637   1.1296   1.5751   1.6202   1.7614   2.1670
     2.3782   2.6488   2.8420   2.8737   3.1622   3.1805   3.3126   3.4056
     3.7636   4.3177   4.7572   5.1716   5.3940   5.5780   5.6825   5.9062
     6.1402   6.2817   6.5410   6.5805   6.6342   6.8269   7.0519   7.0894
     7.2817   7.3643   7.4443   7.6261   7.6668   7.8698   7.9757   8.0612
     8.1552   8.3621   8.4412   8.4423   8.5720   8.7390   8.7976   8.8634
     8.9047   9.1196   9.1439   9.1487   9.1495   9.2252   9.2522   9.2537
     9.3196   9.3638   9.3651   9.3720   9.3725   9.5155   9.6184   9.6894
     9.7375   9.8810  10.0103  10.0866  10.1785  10.3036  10.3081  10.3977
    10.4163  10.4635  10.5761  10.7475  10.8062  10.8205  10.9218  11.0151
    11.0235  11.2258  11.3279  11.4057  11.5405  11.5690  11.6908  11.7344
    11.7909  11.9246  12.0538  12.1306  12.1632  12.2584  12.2853  12.3794
    12.5237  12.5956  12.6167  12.6846  12.7198  12.7932  12.8253  12.9074
    13.0603  13.0824  13.1305  13.1977  13.2840  13.3345  13.4483  13.5653
    13.5824  13.7358  13.8556  13.8670  13.9760  13.9778  14.0486  14.1261
    14.2521  14.3388  14.4058  14.5093  14.5570  14.7356  14.7464  14.8657
    14.8707  15.1875  15.1928  15.3580  15.3589  15.5009  15.5425  15.5755
    15.6168  15.7516  15.7773  15.8222  15.8634  15.9071  15.9741  16.0505
    16.0558  16.1141  16.1492  16.2535  16.3412  16.3612  16.4235  16.4326
    16.5724  16.6437  16.7060  16.7479  16.7939  16.8272  17.0772  17.1493
    17.1828  17.3475  17.3712  17.4385  17.4430  17.4854  17.5623  17.5844
    17.6527  17.7304  17.7329  17.8448  17.9010  17.9235  17.9697  17.9759
    18.1892  18.2270  18.3110  18.3806  18.4545  18.4952  18.5796  18.6241
    18.7759  18.8437  18.9261  18.9462  19.0511  19.1128  19.1354  19.1992
    19.2688  19.2861  19.3564  19.4377  19.5572  19.6141  19.7164  19.7407
    19.8357  19.9216  19.9689  20.0628  20.1152  20.2754  20.3428  20.3510
    20.4510  20.5308  20.5905  20.6242  20.6530  20.7743  20.7929  20.8641
    20.8735  20.9547  21.0085  21.1133  21.1285  21.2731  21.3268  21.3466
    21.3526  21.4178  21.4713  21.5486

     the Fermi energy is    -1.0053 ev

!    total energy              =   -2073.01700730 Ry
     Harris-Foulkes estimate   =   -2073.01700784 Ry
     estimated scf accuracy    <       0.00000059 Ry

     The total energy is the sum of the following terms:

     one-electron contribution =  -21977.57444839 Ry
     hartree contribution      =   11030.62637336 Ry
     xc contribution           =    -569.28004979 Ry
     ewald contribution        =    9442.24806282 Ry
     Hubbard energy            =       0.96450533 Ry
     smearing contrib. (-TS)   =      -0.00145063 Ry

     convergence has been achieved in  26 iterations

     Forces acting on atoms (Ry/au):


     negative rho (up, down):  0.313E+01 0.000E+00
     atom    1 type  1   force =    -0.00787697   -0.01391093    0.00399100
     atom    2 type  1   force =     0.00015879    0.00682157    0.00130479
     atom    3 type  2   force =     0.00003719    0.00530712   -0.00316062
     atom    4 type  2   force =     0.00933799    0.00768652   -0.00289224
     atom    5 type  1   force =    -0.00310381   -0.01655345    0.00045554
     atom    6 type  1   force =     0.00452375    0.01469435    0.00005188
     atom    7 type  1   force =    -0.00039726   -0.00169193    0.01254505
     atom    8 type  1   force =    -0.00325427   -0.00054134    0.00125770
     atom    9 type  2   force =     0.00120967    0.00008661   -0.00394598
     atom   10 type  2   force =     0.00001495   -0.00137869   -0.00311446
     atom   11 type  1   force =    -0.00012383    0.01110388   -0.00448897
     atom   12 type  1   force =     0.00018183   -0.01062317   -0.00454776
     atom   13 type  1   force =    -0.00084612   -0.00012996    0.00022634
     atom   14 type  1   force =    -0.00784218   -0.01390815    0.00403923
     atom   15 type  1   force =     0.00019846    0.00682319    0.00130243
     atom   16 type  2   force =     0.00005832    0.00530213   -0.00316219
     atom   17 type  2   force =     0.00937218    0.00768406   -0.00289857
     atom   18 type  1   force =    -0.00314539   -0.01656771    0.00045396
     atom   19 type  1   force =     0.00448040    0.01470932    0.00004861
     atom   20 type  1   force =    -0.00035115   -0.00169356    0.01250755
     atom   21 type  1   force =    -0.00324754   -0.00054177    0.00126578
     atom   22 type  2   force =     0.00117292    0.00008603   -0.00394514
     atom   23 type  2   force =     0.00000892   -0.00137832   -0.00308986
     atom   24 type  1   force =    -0.00007353    0.01110141   -0.00449559
     atom   25 type  1   force =     0.00023351   -0.01062012   -0.00455546
     atom   26 type  1   force =    -0.00085271   -0.00012932    0.00007293
     atom   27 type  3   force =    -0.00009171   -0.00136921    0.00195257
     atom   28 type  3   force =    -0.00009113   -0.00136897    0.00195218
     atom   29 type  3   force =     0.00015204    0.00049959    0.00043530
     atom   30 type  3   force =     0.00015668    0.00050080    0.00043401

     Total force =     0.023116     Total SCF correction =     0.002902
     SCF correction compared to forces is large: reduce conv_thr to get better values

     BFGS Geometry Optimization

     number of scf cycles    =   1
     number of bfgs steps    =   0

     energy   new            =   -2073.0170073037 Ry

     new trust radius        =       0.0125450517 bohr
     new conv_thr            =       0.0000010000 Ry


ATOMIC_POSITIONS (crystal)
O0       0.000000000   0.000000000   0.378739936    0   0   1
O0       0.000000000   0.500000000   0.401386134    0   0   1
Ir1      0.250000000   0.500000000   0.452016696    0   0   1
Ir1      0.000000000   0.000000000   0.453532071    0   0   1
O0       0.250000000   0.810000000   0.453179124    0   0   1
O0       0.250000000   0.190000000   0.452811039    0   0   1
O0       0.000000000   0.500000000   0.498441265    0   0   1
O0       0.000000000   0.000000000   0.529405190    0   0   1
Ir1      0.250000000   0.000000000   0.576590966    0   0   1
Ir1      0.000000000   0.500000000   0.572007620    0   0   1
O0       0.250000000   0.690000000   0.577060090    0   0   1
O0       0.250000000   0.310000000   0.577098913    0   0   1
O0       0.000000000   0.000000000   0.621234533    0   0   1
O0       0.500000000   0.000000000   0.378740902    0   0   1
O0       0.500000000   0.500000000   0.401386086    0   0   1
Ir1      0.750000000   0.500000000   0.452016664    0   0   1
Ir1      0.500000000   0.000000000   0.453531944    0   0   1
O0       0.750000000   0.810000000   0.453179092    0   0   1
O0       0.750000000   0.190000000   0.452810974    0   0   1
O0       0.500000000   0.500000000   0.498440514    0   0   1
O0       0.500000000   0.000000000   0.529405352    0   0   1
Ir1      0.750000000   0.000000000   0.576590983    0   0   1
Ir1      0.500000000   0.500000000   0.572008113    0   0   1
O0       0.750000000   0.690000000   0.577059958    0   0   1
O0       0.750000000   0.310000000   0.577098759    0   0   1
O0       0.500000000   0.000000000   0.621241461    0   0   1
H2      -0.000057630   0.636227150   0.383589108
H2       0.499942418   0.636227170   0.383589100
H2       0.143662651   0.033541176   0.367088719
H2       0.643663036   0.033541276   0.367088693


     Check: negative starting charge=   -3.334716
     NEW-OLD atomic charge density approx. for the potential

     Check: negative/imaginary core charge=   -0.000003    0.000000
     Check: negative starting charge=   -3.333829

     negative rho (up, down):  0.313E+01 0.000E+00
 Atomic wfc used for LDA+U Projector are NOT orthogonalized

     total cpu time spent up to now is     5638.6 secs

     per-process dynamical memory:   449.4 Mb

     Self-consistent Calculation

     iteration #  1     ecut=    40.00 Ry     beta=0.70
     Davidson diagonalization with overlap
     ethr =  1.00E-06,  avg # of iterations =  3.5
 --- enter write_ns ---
 LDA+U parameters:
U( 2)     =  2.50000000
alpha( 2) =  0.00000000
atom    3   Tr[ns(na)] =   8.12648
    eigenvalues: 
  0.603  0.627  0.894  0.968  0.971
    eigenvectors:
  0.000  0.193  0.003  0.002  0.802
  1.000  0.000  0.000  0.000  0.000
  0.000  0.000  0.996  0.000  0.003
  0.000  0.807  0.000  0.000  0.193
  0.000  0.000  0.000  0.998  0.002
    occupations:
  0.904 -0.000  0.003 -0.136 -0.000
 -0.000  0.603 -0.000 -0.000 -0.006
  0.003 -0.000  0.894 -0.004  0.001
 -0.136 -0.000 -0.004  0.694 -0.000
 -0.000 -0.006  0.001 -0.000  0.968
atom    4   Tr[ns(na)] =   8.09974
    eigenvalues: 
  0.618  0.665  0.867  0.918  0.982
    eigenvectors:
  0.000  0.989  0.000  0.000  0.010
  0.000  0.000  0.051  0.949  0.000
  0.000  0.000  0.949  0.051  0.000
  0.000  0.010  0.000  0.000  0.990
  1.000  0.000  0.000  0.000  0.000
    occupations:
  0.669 -0.003 -0.001  0.032  0.001
 -0.003  0.915  0.011  0.000 -0.001
 -0.001  0.011  0.869 -0.000  0.000
  0.032  0.000 -0.000  0.978  0.000
  0.001 -0.001  0.000  0.000  0.618
atom    9   Tr[ns(na)] =   8.07359
    eigenvalues: 
  0.649  0.666  0.850  0.891  0.980
    eigenvectors:
  0.000  0.145  0.000  0.000  0.855
  1.000  0.000  0.000  0.000  0.000
  0.000  0.000  1.000  0.000  0.000
  0.000  0.854  0.000  0.000  0.145
  0.000  0.000  0.000  1.000  0.000
    occupations:
  0.935  0.000 -0.000 -0.111 -0.001
  0.000  0.649  0.000  0.000 -0.000
 -0.000  0.000  0.850 -0.000 -0.000
 -0.111  0.000 -0.000  0.712  0.001
 -0.001 -0.000 -0.000  0.001  0.891
atom   10   Tr[ns(na)] =   8.06180
    eigenvalues: 
  0.587  0.608  0.924  0.933  0.980
    eigenvectors:
  0.995  0.000  0.000  0.000  0.005
  0.000  0.000  1.000  0.000  0.000
  0.000  0.000  0.000  1.000  0.000
  0.005  0.000  0.000  0.000  0.995
  0.000  1.000  0.000  0.000  0.000
    occupations:
  0.589  0.000  0.002  0.029 -0.000
  0.000  0.924 -0.000  0.000 -0.000
  0.002 -0.000  0.933  0.000  0.000
  0.029  0.000  0.000  0.978  0.000
 -0.000 -0.000  0.000  0.000  0.608
atom   16   Tr[ns(na)] =   8.12757
    eigenvalues: 
  0.603  0.627  0.894  0.968  0.971
    eigenvectors:
  0.000  0.193  0.003  0.002  0.802
  1.000  0.000  0.000  0.000  0.000
  0.000  0.000  0.996  0.000  0.003
  0.000  0.807  0.000  0.000  0.193
  0.000  0.000  0.000  0.998  0.002
    occupations:
  0.904 -0.000  0.003 -0.136  0.000
 -0.000  0.603 -0.000 -0.000 -0.006
  0.003 -0.000  0.894 -0.004  0.001
 -0.136 -0.000 -0.004  0.694 -0.000
  0.000 -0.006  0.001 -0.000  0.968
atom   17   Tr[ns(na)] =   8.10112
    eigenvalues: 
  0.619  0.665  0.867  0.918  0.982
    eigenvectors:
  0.000  0.989  0.000  0.000  0.010
  0.000  0.000  0.051  0.948  0.000
  0.000  0.000  0.949  0.051  0.000
  0.000  0.010  0.000  0.000  0.990
  1.000  0.000  0.000  0.000  0.000
    occupations:
  0.669 -0.003 -0.001  0.032  0.001
 -0.003  0.915  0.011  0.000 -0.001
 -0.001  0.011  0.870 -0.000  0.000
  0.032  0.000 -0.000  0.978  0.000
  0.001 -0.001  0.000  0.000  0.619
atom   22   Tr[ns(na)] =   8.07358
    eigenvalues: 
  0.649  0.666  0.850  0.891  0.980
    eigenvectors:
  0.000  0.145  0.000  0.000  0.855
  1.000  0.000  0.000  0.000  0.000
  0.000  0.000  1.000  0.000  0.000
  0.000  0.854  0.000  0.000  0.145
  0.000  0.000  0.000  1.000  0.000
    occupations:
  0.935  0.000 -0.000 -0.111 -0.001
  0.000  0.649  0.000  0.000 -0.000
 -0.000  0.000  0.850 -0.000 -0.000
 -0.111  0.000 -0.000  0.712  0.001
 -0.001 -0.000 -0.000  0.001  0.891
atom   23   Tr[ns(na)] =   8.06056
    eigenvalues: 
  0.587  0.608  0.923  0.932  0.980
    eigenvectors:
  0.995  0.000  0.000  0.000  0.005
  0.000  0.000  1.000  0.000  0.000
  0.000  0.000  0.000  1.000  0.000
  0.005  0.000  0.000  0.000  0.995
  0.000  1.000  0.000  0.000  0.000
    occupations:
  0.589  0.000  0.002  0.029 -0.000
  0.000  0.923 -0.000  0.000 -0.000
  0.002 -0.000  0.932  0.000  0.000
  0.029  0.000  0.000  0.977  0.000
 -0.000 -0.000  0.000  0.000  0.608
N of occupied +U levels =  64.7244315
 --- exit write_ns ---

     negative rho (up, down):  0.313E+01 0.000E+00

     total cpu time spent up to now is     5895.2 secs

     total energy              =   -2073.01585458 Ry
     Harris-Foulkes estimate   =   -2073.01742711 Ry
     estimated scf accuracy    <       0.00182837 Ry

     iteration #  2     ecut=    40.00 Ry     beta=0.70
     Davidson diagonalization with overlap
     ethr =  7.88E-07,  avg # of iterations =  4.9

     negative rho (up, down):  0.313E+01 0.000E+00

     total cpu time spent up to now is     6122.7 secs

     total energy              =   -2072.99484124 Ry
     Harris-Foulkes estimate   =   -2073.03964083 Ry
     estimated scf accuracy    <       0.73203225 Ry

     iteration #  3     ecut=    40.00 Ry     beta=0.70
     Davidson diagonalization with overlap
     ethr =  7.88E-07,  avg # of iterations =  5.2

     negative rho (up, down):  0.313E+01 0.000E+00

     total cpu time spent up to now is     6351.7 secs

     total energy              =   -2073.01698659 Ry
     Harris-Foulkes estimate   =   -2073.01769716 Ry
     estimated scf accuracy    <       0.00435790 Ry

     iteration #  4     ecut=    40.00 Ry     beta=0.70
     Davidson diagonalization with overlap
     ethr =  7.88E-07,  avg # of iterations =  1.0

     negative rho (up, down):  0.313E+01 0.000E+00

     total cpu time spent up to now is     6526.3 secs

     total energy              =   -2073.01730426 Ry
     Harris-Foulkes estimate   =   -2073.01738286 Ry
     estimated scf accuracy    <       0.00033641 Ry

     iteration #  5     ecut=    40.00 Ry     beta=0.70
     Davidson diagonalization with overlap
     ethr =  1.45E-07,  avg # of iterations =  1.0

     negative rho (up, down):  0.313E+01 0.000E+00

     total cpu time spent up to now is     6701.1 secs

     total energy              =   -2073.01732966 Ry
     Harris-Foulkes estimate   =   -2073.01736610 Ry
     estimated scf accuracy    <       0.00018162 Ry

     iteration #  6     ecut=    40.00 Ry     beta=0.70
     Davidson diagonalization with overlap
     ethr =  7.83E-08,  avg # of iterations =  1.0

     negative rho (up, down):  0.313E+01 0.000E+00

     total cpu time spent up to now is     6874.9 secs

     total energy              =   -2073.01733757 Ry
     Harris-Foulkes estimate   =   -2073.01736705 Ry
     estimated scf accuracy    <       0.00018702 Ry

     iteration #  7     ecut=    40.00 Ry     beta=0.70
     Davidson diagonalization with overlap
     ethr =  7.83E-08,  avg # of iterations =  1.0

     negative rho (up, down):  0.313E+01 0.000E+00

     total cpu time spent up to now is     7050.1 secs

     total energy              =   -2073.01734983 Ry
     Harris-Foulkes estimate   =   -2073.01735611 Ry
     estimated scf accuracy    <       0.00002696 Ry

     iteration #  8     ecut=    40.00 Ry     beta=0.70
     Davidson diagonalization with overlap
     ethr =  1.16E-08,  avg # of iterations =  1.0

     negative rho (up, down):  0.313E+01 0.000E+00

     total cpu time spent up to now is     7231.6 secs

     total energy              =   -2073.01735271 Ry
     Harris-Foulkes estimate   =   -2073.01735374 Ry
     estimated scf accuracy    <       0.00000360 Ry

     iteration #  9     ecut=    40.00 Ry     beta=0.70
     Davidson diagonalization with overlap
     ethr =  1.55E-09,  avg # of iterations =  1.0

     negative rho (up, down):  0.313E+01 0.000E+00

     total cpu time spent up to now is     7414.7 secs

     total energy              =   -2073.01735292 Ry
     Harris-Foulkes estimate   =   -2073.01735367 Ry
     estimated scf accuracy    <       0.00000348 Ry

     iteration # 10     ecut=    40.00 Ry     beta=0.70
     Davidson diagonalization with overlap
     ethr =  1.50E-09,  avg # of iterations =  1.0

     negative rho (up, down):  0.313E+01 0.000E+00

     total cpu time spent up to now is     7591.9 secs

     total energy              =   -2073.01735315 Ry
     Harris-Foulkes estimate   =   -2073.01735351 Ry
     estimated scf accuracy    <       0.00000186 Ry

     iteration # 11     ecut=    40.00 Ry     beta=0.70
     Davidson diagonalization with overlap
     ethr =  8.02E-10,  avg # of iterations =  1.0

[...]
     8.6130   8.6131   8.8213   8.8214   8.8795   8.8795   9.0482   9.0482
     9.1097   9.1097   9.1691   9.1693   9.2213   9.2213   9.2680   9.2680
     9.3267   9.3267   9.3632   9.3632   9.3917   9.3918   9.4221   9.4222
     9.5884   9.5884   9.6766   9.6766   9.8859   9.8859  10.0624  10.0624
    10.1527  10.1527  10.3092  10.3092  10.5859  10.5859  10.9359  10.9359
    11.0075  11.0075  11.2839  11.2840  11.5805  11.5805  11.7151  11.7151
    11.8372  11.8373  11.9944  11.9944  12.0689  12.0689  12.4044  12.4044
    12.5459  12.5459  12.7608  12.7608  12.8721  12.8721  13.0301  13.0302
    13.1551  13.1552  13.2251  13.2252  13.3061  13.3061  13.5414  13.5415
    13.6755  13.6756  13.7992  13.7992  14.0142  14.0142  14.0952  14.0953
    14.2060  14.2060  14.2912  14.2912  14.4804  14.4804  14.6601  14.6601
    14.8080  14.8080  15.0922  15.0922  15.3301  15.3301  15.4819  15.4820
    15.8532  15.8532  16.0810  16.0811  16.1912  16.1912  16.2340  16.2340
    16.2964  16.2965  16.3913  16.3913  16.4376  16.4376  16.5783  16.5783
    16.6235  16.6235  16.6820  16.6820  16.8114  16.8114  16.8509  16.8509
    17.0512  17.0512  17.2077  17.2077  17.5253  17.5253  17.6343  17.6343
    17.8066  17.8066  18.0340  18.0340  18.1280  18.1280  18.3877  18.3877
    18.4653  18.4653  18.5279  18.5279  18.7285  18.7285  18.8951  18.8951
    19.0568  19.0568  19.1074  19.1074  19.2281  19.2281  19.3233  19.3233
    19.5518  19.5518  19.5998  19.5999  19.7447  19.7447  19.7996  19.7996
    19.8943  19.8943  20.0114  20.0114  20.1111  20.1111  20.2134  20.2134
    20.2674  20.2674  20.3058  20.3058  20.4915  20.4915  20.6481  20.6481
    20.7434  20.7435  20.9758  20.9759  21.0291  21.0291  21.1125  21.1125
    21.1799  21.1799  21.2847  21.2848

          k =-0.5000 0.2476 0.0000 ( 31120 PWs)   bands (ev):

   -50.8145 -50.8144 -50.7659 -50.7657 -50.7408 -50.7407 -50.6426 -50.6426
   -50.5774 -50.5770 -50.5581 -50.5581 -50.5475 -50.5475 -50.4543 -50.4540
   -50.4347 -50.4346 -50.3813 -50.3812 -50.3295 -50.3295 -50.2132 -50.2132
   -21.2172 -21.2169 -20.8174 -20.8172 -20.6874 -20.6872 -20.4795 -20.4795
   -20.1920 -20.1882 -20.0681 -20.0651 -20.0263 -20.0257 -19.6734 -19.6729
   -18.7423 -18.7423  -9.4764  -9.4721  -9.3209  -9.3207  -9.3121  -9.3109
    -8.7976  -8.7940  -8.7424  -8.7415  -8.5151  -8.5071  -8.3525  -8.3483
    -8.1188  -8.0774  -7.7847  -7.7437  -7.5047  -7.4820  -7.3683  -7.3651
    -7.2140  -7.1270  -6.9845  -6.8663  -6.5983  -6.5491  -6.3959  -6.3696
    -6.1818  -6.1739  -5.9787  -5.9705  -5.8053  -5.7894  -5.7326  -5.7278
    -5.6688  -5.6418  -5.3497  -5.3065  -4.8846  -4.8212  -4.6598  -4.6144
    -4.4577  -4.3351  -4.0269  -3.8361  -3.7491  -3.7271  -3.4661  -3.4237
    -2.9821  -2.9696  -2.7804  -2.7275  -2.5564  -2.5369  -2.5092  -2.4734
    -2.3593  -2.2868  -2.1683  -2.1287  -1.7035  -1.6712  -1.5992  -1.5928
    -1.3594  -1.3585  -1.1922  -1.1283  -1.0153  -0.9918  -0.7021  -0.6814
     0.0810   0.0814   1.6074   1.6153   1.6631   1.6631   1.8493   1.8500
     2.1412   2.1473   2.5983   2.6073   2.9542   2.9557   3.4020   3.4070
     4.5507   4.5606   4.9388   4.9389   5.4659   5.4669   5.8190   5.8280
     6.1099   6.1267   6.3365   6.3609   6.7272   6.7295   7.0036   7.0132
     7.2250   7.2306   7.3189   7.3203   7.7270   7.7395   7.9296   7.9505
     8.1082   8.1186   8.2888   8.3243   8.5822   8.6190   8.7826   8.8476
     9.0266   9.1384   9.1692   9.1697   9.2668   9.2669   9.3185   9.3199
     9.3654   9.3660   9.3934   9.3939   9.6099   9.6445   9.7125   9.7200
     9.8572   9.8602   9.9454   9.9667  10.2692  10.2801  10.5069  10.5308
    10.7562  10.7615  10.9011  10.9062  10.9697  10.9795  11.1329  11.1450
    11.3752  11.3851  11.5429  11.5540  11.7159  11.7207  11.8935  11.9437
    12.0867  12.1272  12.2514  12.2582  12.2780  12.2907  12.5726  12.5741
    12.6363  12.6668  12.9084  12.9286  13.0048  13.0283  13.1879  13.2024
    13.2844  13.2902  13.4037  13.4205  13.4943  13.5006  13.5514  13.5668
    13.7573  13.7740  13.9006  13.9088  14.1352  14.1622  14.2635  14.2748
    14.3515  14.3609  14.4139  14.4269  14.5349  14.5555  14.6095  14.6307
    14.6938  14.7009  14.8867  14.9063  14.9977  15.0133  15.0805  15.0855
    15.2414  15.2486  15.4386  15.4523  15.6021  15.6116  15.8476  15.8744
    16.0532  16.0714  16.1904  16.2150  16.3323  16.3364  16.3886  16.4119
    16.5879  16.5916  16.6066  16.6165  16.6824  16.7011  16.7798  16.7966
    16.9689  16.9776  17.1346  17.1381  17.2191  17.3125  17.4611  17.4787
    17.5673  17.5819  17.7484  17.7489  17.8951  17.9466  17.9583  17.9993
    18.0790  18.1099  18.3057  18.3443  18.3853  18.3940  18.4383  18.4444
    18.6154  18.6310  18.7400  18.7402  18.8348  18.8366  18.9822  19.0111
    19.1341  19.1578  19.2472  19.2873  19.4317  19.4384  19.5784  19.6141
    19.6775  19.6900  19.8011  19.8178  19.9607  19.9699  20.1008  20.1048
    20.2824  20.3117  20.3335  20.3410  20.4276  20.4640  20.5235  20.5939
    20.7474  20.7585  20.9168  20.9545  20.9941  21.0370  21.2752  21.3034
    21.4291  21.4297  21.5706  21.5940

          k =-0.5000-0.4953 0.0000 ( 31140 PWs)   bands (ev):

   -50.8145 -50.8145 -50.7659 -50.7658 -50.7409 -50.7407 -50.6424 -50.6423
   -50.5761 -50.5760 -50.5581 -50.5581 -50.5473 -50.5473 -50.4551 -50.4550
   -50.4344 -50.4343 -50.3814 -50.3813 -50.3296 -50.3295 -50.2132 -50.2131
   -21.1923 -21.1923 -20.6423 -20.6423 -20.6049 -20.6048 -20.3865 -20.3865
   -20.3738 -20.3738 -20.2760 -20.2760 -20.0698 -20.0698 -19.6728 -19.6728
   -18.7414 -18.7414  -9.4573  -9.4573  -8.8010  -8.8009  -8.7865  -8.7865
    -8.5232  -8.5232  -8.5069  -8.5069  -8.4277  -8.4277  -8.3910  -8.3910
    -8.2083  -8.2083  -8.1284  -8.1284  -8.0086  -8.0086  -7.5785  -7.5785
    -7.0359  -7.0358  -6.7905  -6.7904  -6.7017  -6.7017  -6.4406  -6.4406
    -6.3865  -6.3865  -6.3255  -6.3255  -6.1955  -6.1954  -6.1234  -6.1234
    -5.7514  -5.7514  -5.0342  -5.0342  -4.8111  -4.8110  -4.5196  -4.5196
    -4.2558  -4.2558  -4.1320  -4.1320  -3.5496  -3.5494  -3.2581  -3.2580
    -3.0435  -3.0435  -2.7912  -2.7912  -2.6237  -2.6236  -2.4369  -2.4368
    -2.1718  -2.1718  -2.1383  -2.1383  -1.5322  -1.5322  -1.4793  -1.4793
    -1.3163  -1.3162  -1.1391  -1.1391  -0.9710  -0.9709  -0.8783  -0.8783
     0.1737   0.1737   1.2330   1.2331   1.3705   1.3705   1.7995   1.7995
     2.2070   2.2070   2.8838   2.8840   3.0885   3.0886   3.5518   3.5518
     5.0071   5.0071   5.0985   5.0985   5.5529   5.5530   6.1285   6.1285
     6.1714   6.1714   6.2866   6.2866   6.5066   6.5066   6.7293   6.7293
     6.8306   6.8307   7.0576   7.0576   7.4533   7.4533   7.5518   7.5518
     7.7726   7.7727   8.0110   8.0110   8.4828   8.4829   8.8221   8.8221
     8.9667   8.9667   9.1693   9.1694   9.2135   9.2135   9.2679   9.2679
     9.3624   9.3624   9.3665   9.3666   9.3994   9.3994   9.9038   9.9038
    10.0986  10.0986  10.2199  10.2199  10.3616  10.3617  10.5800  10.5800
    10.9134  10.9135  10.9849  10.9850  11.2579  11.2579  11.7243  11.7243
    11.9694  11.9694  12.1880  12.1880  12.2973  12.2973  12.5036  12.5036
    12.5462  12.5462  12.6693  12.6693  12.8614  12.8614  12.9822  12.9823
    13.0689  13.0689  13.2384  13.2384  13.3902  13.3902  13.4692  13.4692
    13.5289  13.5289  13.5933  13.5934  13.6825  13.6825  13.7166  13.7166
    13.7518  13.7518  13.8538  13.8538  13.9718  13.9718  14.0159  14.0159
    14.0617  14.0617  14.2739  14.2739  14.3261  14.3261  14.4528  14.4528
    14.4942  14.4942  14.6233  14.6233  14.8059  14.8059  15.0591  15.0591
    15.1639  15.1639  15.2527  15.2527  15.3093  15.3093  15.3635  15.3636
    15.4534  15.4534  15.5799  15.5800  15.7479  15.7479  15.8219  15.8219
    15.9469  15.9469  16.0353  16.0353  16.3507  16.3507  16.5065  16.5066
    16.7224  16.7224  16.8575  16.8575  16.9359  16.9359  17.0238  17.0238
    17.1734  17.1734  17.3521  17.3521  17.5623  17.5623  17.7872  17.7872
    18.0906  18.0906  18.1613  18.1613  18.3379  18.3379  18.3819  18.3819
    18.4294  18.4294  18.7445  18.7445  18.9129  18.9130  19.1546  19.1546
    19.3330  19.3330  19.4600  19.4600  19.6340  19.6340  19.7080  19.7080
    20.1109  20.1109  20.1916  20.1916  20.2965  20.2965  20.6140  20.6140
    20.6543  20.6543  20.7311  20.7312  20.7793  20.7793  20.9306  20.9306
    21.0103  21.0103  21.0535  21.0535  21.2499  21.2499  21.3110  21.3110
    21.3399  21.3399  21.4450  21.4450

          k =-0.2500 0.2476 0.0000 ( 31099 PWs)   bands (ev):

   -50.8166 -50.8120 -50.7991 -50.7470 -50.7397 -50.7247 -50.6774 -50.6045
   -50.5832 -50.5814 -50.5721 -50.5603 -50.5555 -50.5089 -50.4676 -50.4559
   -50.4521 -50.3988 -50.3856 -50.3766 -50.3347 -50.3241 -50.2185 -50.2077
   -21.4640 -21.0779 -21.0493 -20.9909 -20.6308 -20.5035 -20.4459 -20.4289
   -20.3253 -20.2035 -20.0977 -20.0352 -19.9045 -19.8780 -19.7556 -19.5811
   -18.7284 -18.6233 -10.0074  -9.8502  -9.7887  -9.4570  -8.9857  -8.9706
    -8.9543  -8.7621  -8.7043  -8.6952  -8.6178  -8.5496  -8.4400  -8.3982
    -8.1567  -8.1477  -8.0106  -7.8121  -7.4875  -7.4725  -7.3494  -7.2128
    -7.1435  -6.8639  -6.7514  -6.6348  -6.5311  -6.3671  -6.2817  -6.2365
    -6.1323  -6.0837  -5.9504  -5.9099  -5.8861  -5.7566  -5.6356  -5.5686
    -5.3422  -5.2409  -5.0923  -4.9316  -4.8925  -4.6776  -4.6229  -4.5712
    -4.4188  -4.2447  -4.1626  -3.8525  -3.7198  -3.5050  -3.3862  -3.3120
    -3.2637  -3.0993  -2.9446  -2.9132  -2.7888  -2.7677  -2.7325  -2.6109
    -2.5953  -2.4944  -2.4270  -2.2772  -2.1627  -2.1067  -1.8728  -1.6511
    -1.3532  -1.1988  -1.1933  -0.9690  -0.9689  -0.7217  -0.5475  -0.3970
    -0.1185   0.0707   0.9842   1.1315   1.6124   1.6654   1.7966   2.1891
     2.3916   2.6750   2.8716   2.8998   3.1852   3.2211   3.3489   3.4289
     3.7777   4.3293   4.7581   5.1694   5.4087   5.5865   5.6895   5.8799
     6.1384   6.2942   6.5410   6.5826   6.6351   6.8231   7.0486   7.0852
     7.3065   7.3828   7.4523   7.6345   7.6839   7.8747   7.9962   8.0749
     8.1615   8.3523   8.4467   8.4534   8.5750   8.7565   8.8127   8.8738
     8.9152   9.1318   9.1666   9.1685   9.1701   9.2396   9.2680   9.2694
     9.3314   9.3640   9.3650   9.3917   9.3930   9.5273   9.6257   9.6948
     9.7503   9.9178  10.0206  10.0931  10.1848  10.3068  10.3075  10.4074
    10.4200  10.4811  10.5858  10.7490  10.8026  10.8242  10.9460  11.0285
    11.0304  11.2375  11.3403  11.4213  11.5441  11.5718  11.7006  11.7416
    11.7892  11.9381  12.0694  12.1322  12.1697  12.2906  12.2972  12.3859
    12.5205  12.5962  12.6251  12.7006  12.7264  12.7922  12.8239  12.9118
    13.0660  13.1021  13.1418  13.2145  13.2937  13.3362  13.4598  13.5946
    13.5960  13.7357  13.8598  13.8717  13.9837  13.9876  14.0616  14.1292
    14.2570  14.3484  14.4076  14.5046  14.5585  14.7422  14.7467  14.8719
    14.8763  15.1930  15.2062  15.3591  15.3634  15.5073  15.5434  15.5715
    15.6197  15.7540  15.7748  15.8258  15.8660  15.9034  15.9779  16.0485
    16.0616  16.1215  16.1526  16.2637  16.3345  16.3696  16.4267  16.4347
    16.5768  16.6500  16.7079  16.7474  16.7922  16.8287  17.0805  17.1437
    17.1914  17.3516  17.3690  17.4402  17.4407  17.4806  17.5638  17.5840
    17.6478  17.7288  17.7370  17.8395  17.9019  17.9177  17.9689  17.9779
    18.1804  18.2267  18.3080  18.3825  18.4604  18.4863  18.5820  18.6150
    18.7850  18.8416  18.9210  18.9480  19.0426  19.1164  19.1309  19.2001
    19.2684  19.2855  19.3497  19.4445  19.5708  19.6096  19.7148  19.7473
    19.8304  19.9259  19.9766  20.0711  20.1195  20.2826  20.3408  20.3442
    20.4494  20.5369  20.5919  20.6321  20.6692  20.7717  20.8007  20.8779
    20.8812  20.9587  21.0149  21.1210  21.1356  21.2738  21.3233  21.3468
    21.3546  21.4316  21.4691  21.5460

     the Fermi energy is    -0.9800 ev

!    total energy              =   -2073.01790756 Ry
     Harris-Foulkes estimate   =   -2073.01790756 Ry
     estimated scf accuracy    <          5.2E-09 Ry

     The total energy is the sum of the following terms:

     one-electron contribution =  -22037.57402567 Ry
     hartree contribution      =   11060.71912594 Ry
     xc contribution           =    -569.34110462 Ry
     ewald contribution        =    9472.21637736 Ry
     Hubbard energy            =       0.96323381 Ry
     smearing contrib. (-TS)   =      -0.00151438 Ry

     convergence has been achieved in  14 iterations

     Forces acting on atoms (Ry/au):


     negative rho (up, down):  0.313E+01 0.000E+00
     atom    1 type  1   force =    -0.00749311   -0.01359968   -0.00005413
     atom    2 type  1   force =     0.00010067    0.00505595   -0.00021638
     atom    3 type  2   force =     0.00004485    0.00519747   -0.00061701
     atom    4 type  2   force =     0.00922566    0.00775215   -0.00046538
     atom    5 type  1   force =    -0.00335486   -0.01621450   -0.00009103
     atom    6 type  1   force =     0.00466146    0.01440425   -0.00001545
     atom    7 type  1   force =    -0.00037508   -0.00176848    0.00082532
     atom    8 type  1   force =    -0.00328232   -0.00048097   -0.00003039
     atom    9 type  2   force =     0.00120026    0.00012021   -0.00032236
     atom   10 type  2   force =     0.00000993   -0.00135985   -0.00075450
     atom   11 type  1   force =    -0.00009082    0.01246639    0.00056208
     atom   12 type  1   force =     0.00020408   -0.01204060    0.00057252
     atom   13 type  1   force =    -0.00084562   -0.00010761   -0.00016698
     atom   14 type  1   force =    -0.00747474   -0.01359292   -0.00009494
     atom   15 type  1   force =     0.00008820    0.00505987   -0.00022266
     atom   16 type  2   force =     0.00004627    0.00519770   -0.00061875
     atom   17 type  2   force =     0.00921200    0.00775265   -0.00044074
     atom   18 type  1   force =    -0.00334882   -0.01621002   -0.00009139
     atom   19 type  1   force =     0.00466713    0.01440055   -0.00001642
     atom   20 type  1   force =    -0.00039369   -0.00176841    0.00082927
     atom   21 type  1   force =    -0.00330133   -0.00048100    0.00001600
     atom   22 type  2   force =     0.00119078    0.00012118   -0.00032096
     atom   23 type  2   force =     0.00000439   -0.00135980   -0.00075352
     atom   24 type  1   force =    -0.00009093    0.01245947    0.00056439
     atom   25 type  1   force =     0.00020399   -0.01203380    0.00057511
     atom   26 type  1   force =    -0.00086191   -0.00010760   -0.00017853
     atom   27 type  3   force =     0.00001679    0.00027509    0.00079941
     atom   28 type  3   force =     0.00001644    0.00026947    0.00080187
     atom   29 type  3   force =     0.00002269    0.00029975   -0.00004221
     atom   30 type  3   force =    -0.00000236    0.00029312   -0.00003225

     Total force =     0.002641     Total SCF correction =     0.000196

     bfgs converged in   8 scf cycles and   7 bfgs steps
     (criteria: energy < 0.10E-03, force < 0.10E-02)

     End of BFGS Geometry Optimization

     Final energy   =   -2073.0179075574 Ry
Begin final coordinates

ATOMIC_POSITIONS (crystal)
O0       0.000000000   0.000000000   0.378876557    0   0   1
O0       0.000000000   0.500000000   0.401941225    0   0   1
Ir1      0.250000000   0.500000000   0.452486022    0   0   1
Ir1      0.000000000   0.000000000   0.453582333    0   0   1
O0       0.250000000   0.810000000   0.453354648    0   0   1
O0       0.250000000   0.190000000   0.452919289    0   0   1
O0       0.000000000   0.500000000   0.498771187    0   0   1
O0       0.000000000   0.000000000   0.529149658    0   0   1
Ir1      0.250000000   0.000000000   0.576142982    0   0   1
Ir1      0.000000000   0.500000000   0.572051238    0   0   1
O0       0.250000000   0.690000000   0.576357089    0   0   1
O0       0.250000000   0.310000000   0.576387907    0   0   1
O0       0.000000000   0.000000000   0.620768962    0   0   1
O0       0.500000000   0.000000000   0.378877182    0   0   1
O0       0.500000000   0.500000000   0.401941378    0   0   1
Ir1      0.750000000   0.500000000   0.452486057    0   0   1
Ir1      0.500000000   0.000000000   0.453581329    0   0   1
O0       0.750000000   0.810000000   0.453354576    0   0   1
O0       0.750000000   0.190000000   0.452919269    0   0   1
O0       0.500000000   0.500000000   0.498770968    0   0   1
O0       0.500000000   0.000000000   0.529147569    0   0   1
Ir1      0.750000000   0.000000000   0.576142929    0   0   1
Ir1      0.500000000   0.500000000   0.572051098    0   0   1
O0       0.750000000   0.690000000   0.576357349    0   0   1
O0       0.750000000   0.310000000   0.576388156    0   0   1
O0       0.500000000   0.000000000   0.620769205    0   0   1
H2      -0.000152853   0.636040047   0.384091768
H2       0.499847210   0.636040186   0.384091768
H2       0.143498569   0.034197480   0.367305410
H2       0.643499516   0.034198165   0.367304892
End final coordinates



     init_run     :    107.74s CPU    109.77s WALL (       1 calls)
     electrons    :  24543.11s CPU  25269.99s WALL (       8 calls)
     update_pot   :    143.71s CPU    146.52s WALL (       7 calls)
     forces       :   1064.28s CPU   1086.90s WALL (       8 calls)

     Called by init_run:
     wfcinit      :     35.65s CPU     36.24s WALL (       1 calls)
     potinit      :      7.57s CPU      7.72s WALL (       1 calls)

     Called by electrons:
     c_bands      :  12727.49s CPU  13123.47s WALL (     133 calls)
     sum_band     :   4985.89s CPU   5137.44s WALL (     133 calls)
     v_of_rho     :    144.80s CPU    152.00s WALL (     135 calls)
     newd         :   6999.05s CPU   7045.29s WALL (     135 calls)
     mix_rho      :     25.53s CPU     26.32s WALL (     133 calls)

     Called by c_bands:
     init_us_2    :     28.87s CPU     29.30s WALL (     873 calls)
     cegterg      :  12539.22s CPU  12874.01s WALL (     399 calls)

     Called by *egterg:
     h_psi        :   7427.47s CPU   7624.52s WALL (    1079 calls)
     s_psi        :    749.72s CPU    760.78s WALL (    1127 calls)
     g_psi        :     15.89s CPU     15.89s WALL (     677 calls)
     cdiaghg      :    985.43s CPU    987.97s WALL (    1037 calls)

     Called by h_psi:
     add_vuspsi   :    724.75s CPU    736.83s WALL (    1079 calls)
     vhpsi        :    723.01s CPU    732.99s WALL (    1079 calls)

     General routines
     calbec       :   1772.85s CPU   1797.13s WALL (    9532 calls)
     fft          :    198.30s CPU    245.59s WALL (    2247 calls)
     ffts         :      2.48s CPU      2.54s WALL (     268 calls)
     fftw         :   4325.77s CPU   4546.92s WALL (  730622 calls)
     interpolate  :     22.69s CPU     22.98s WALL (     268 calls)
     davcio       :      0.06s CPU     15.57s WALL (     897 calls)

     Parallel routines
     fft_scatter  :   1655.37s CPU   1915.52s WALL (  733137 calls)
     Hubbard U routines
     new_ns       :    157.32s CPU    171.00s WALL (     133 calls)
     vhpsi        :    723.01s CPU    732.99s WALL (    1079 calls)
     force_hub    :    278.80s CPU    286.42s WALL (       8 calls)

     PWSCF        :     7h17m CPU        7h30m WALL


   This run was terminated on:   3:53:51   6May2014            

=------------------------------------------------------------------------------=
   JOB DONE.
=------------------------------------------------------------------------------=
---------------------------------------
Running PBS batch system epilogue script
Job id: 340762.audhumbla.fysik.dtu.dk
Username: zhonxu
Groupname: campgst
Jobname: IrO2/Eads-2-layers/bare-U-2.5
Sessionid: 8939
Resources limits: neednodes=2:ppn=8:xeon8,nodes=2:ppn=8:xeon8,walltime=48:00:00
Resources used: cput=119:59:47,mem=17697256kb,vmem=21466780kb,walltime=07:30:34
Queuename: verylong
Accounting:
This job has allocated the following 16 nodes:
b022 b022 b022 b022 b022 b022 b022 b022 b010 b010 b010 b010 b010 b010 b010 b010
Finished epilogue job 340762.audhumbla.fysik.dtu.dk for zhonxu
