
     Program PWSCF v.5.0.2 (svn rev. 9656) starts on  9May2014 at  7:34:57 

     This program is part of the open-source Quantum ESPRESSO suite
     for quantum simulation of materials; please cite
         "P. Giannozzi et al., J. Phys.:Condens. Matter 21 395502 (2009);
          URL http://www.quantum-espresso.org", 
     in publications or presentations arising from this work. More details at
     http://www.quantum-espresso.org/quote.php

     Parallel version (MPI), running on    16 processors
     K-points division:     npool     =       4
     R & G space division:  proc/nbgrp/npool/nimage =       4

     Current dimensions of program PWSCF are:
     Max number of different atomic species (ntypx) = 10
     Max number of k-points (npk) =  40000
     Max angular momentum in pseudopotentials (lmaxx) =  3
     Reading input from pwscf.in
Warning: card &CELL ignored
Warning: card / ignored

     Subspace diagonalization in iterative solution of the eigenvalue problem:
     a serial algorithm will be used


     Parallelization info
     --------------------
     sticks:   dense  smooth     PW     G-vecs:    dense   smooth      PW
     Min        1333     428    119               322637    58444    8739
     Max        1334     429    120               322642    58462    8748
     Sum        5335    1713    477              1290557   233813   34969



     bravais-lattice index     =            0
     lattice parameter (alat)  =      10.1289  a.u.
     unit-cell volume          =    6836.7721 (a.u.)^3
     number of atoms/cell      =           30
     number of atomic types    =            3
     number of electrons       =       232.00
     number of Kohn-Sham states=          348
     kinetic-energy cutoff     =      40.0000  Ry
     charge density cutoff     =     500.0000  Ry
     convergence threshold     =      1.0E-06
     mixing beta               =       0.7000
     number of iterations used =            8  plain     mixing
     Exchange-correlation      = SLA  PW   PBE  PBE ( 1 4 3 4 0)
     EXX-fraction              =        0.00
     nstep                     =           50


     celldm(1)=  10.128932  celldm(2)=   0.000000  celldm(3)=   0.000000
     celldm(4)=   0.000000  celldm(5)=   0.000000  celldm(6)=   0.000000

     crystal axes: (cart. coord. in units of alat)
               a(1) = (   1.000000   0.000000   0.000000 )  
               a(2) = (   0.000000   1.306037   0.000000 )  
               a(3) = (   0.000000   0.000000   5.037380 )  

     reciprocal axes: (cart. coord. in units 2 pi/alat)
               b(1) = (  1.000000  0.000000  0.000000 )  
               b(2) = (  0.000000  0.765675  0.000000 )  
               b(3) = (  0.000000  0.000000  0.198516 )  


     PseudoPot. # 1 for O  read from file:
     /home/camp/zhonxu/pseudo/o_pbe_v1.01.uspp.F.UPF
     MD5 check sum: 2bcb18d16ea4b960afae9ec6d52f22d2
     Pseudo is Ultrasoft + core correction, Zval =  6.0
     Generated by new atomic code, or converted to UPF format
     Using radial grid of  737 points,  5 beta functions with: 
                l(1) =   0
                l(2) =   0
                l(3) =   1
                l(4) =   1
                l(5) =   2
     Q(r) pseudized with  8 coefficients,  rinner =    0.900   0.900   0.900
                                                       0.900   0.900

     PseudoPot. # 2 for Re read from file:
     /home/camp/zhonxu/pseudo/re_pbe_v1.uspp.F.UPF
     MD5 check sum: 6f5a5dcaf9c96c20d0ffdde0de57afc6
     Pseudo is Ultrasoft + core correction, Zval = 15.0
     Generated by new atomic code, or converted to UPF format
     Using radial grid of  981 points,  8 beta functions with: 
                l(1) =   0
                l(2) =   0
                l(3) =   1
                l(4) =   1
                l(5) =   2
                l(6) =   2
                l(7) =   3
                l(8) =   3
     Q(r) pseudized with  8 coefficients,  rinner =    1.000   1.000   1.000
                                                       1.000   1.000   1.000
                                                       1.000

     PseudoPot. # 3 for H  read from file:
     /home/camp/zhonxu/pseudo/h_pbe_v1.uspp.F.UPF
     MD5 check sum: 3408e3ff4ec8b0a4e358431e7e038a48
     Pseudo is Ultrasoft, Zval =  1.0
     Generated by new atomic code, or converted to UPF format
     Using radial grid of  615 points,  2 beta functions with: 
                l(1) =   0
                l(2) =   0
     Q(r) pseudized with  8 coefficients,  rinner =    0.700

     atomic species   valence    mass     pseudopotential
        O0             6.00    15.99940     O ( 1.00)
        Re1           15.00   186.20700     Re( 1.00)
        H2             1.00     1.00794     H ( 1.00)


     Simplified LDA+U calculation (l_max = 2) with parameters (eV):
     atomic species    L          U    alpha       J0     beta
        Re1            2     3.5000   0.0000   0.0000   0.0000



     No symmetry found



   Cartesian axes

     site n.     atom                  positions (alat units)
         1           O0  tau(   1) = (   0.0000000   0.0000000   1.8688176  )
         2           O0  tau(   2) = (   0.0000000   0.6530184   1.9243296  )
         3           Re1 tau(   3) = (   0.2500000   0.6530184   2.2228951  )
         4           Re1 tau(   4) = (   0.0000000   0.0000000   2.2352367  )
         5           O0  tau(   5) = (   0.2500000   1.0187087   2.2249100  )
         6           O0  tau(   6) = (   0.2500000   0.2873281   2.2250611  )
         7           O0  tau(   7) = (   0.0000000   0.6530184   2.5071041  )
         8           O0  tau(   8) = (   0.0000000   0.0000000   2.5966183  )
         9           Re1 tau(   9) = (   0.2500000   0.0000000   2.8989619  )
        10           Re1 tau(  10) = (   0.0000000   0.6530184   2.8608793  )
        11           O0  tau(  11) = (   0.2500000   0.9403465   2.8908013  )
        12           O0  tau(  12) = (   0.2500000   0.3656903   2.8907005  )
        13           O0  tau(  13) = (   0.0000000   0.0000000   3.1620138  )
        14           O0  tau(  14) = (   0.5000000   0.0000000   1.8688176  )
        15           O0  tau(  15) = (   0.5000000   0.6530184   1.9243296  )
        16           Re1 tau(  16) = (   0.7500000   0.6530184   2.2228951  )
        17           Re1 tau(  17) = (   0.5000000   0.0000000   2.2352367  )
        18           O0  tau(  18) = (   0.7500000   1.0187087   2.2249604  )
        19           O0  tau(  19) = (   0.7500000   0.2873281   2.2250611  )
        20           O0  tau(  20) = (   0.5000000   0.6530184   2.5071041  )
        21           O0  tau(  21) = (   0.5000000   0.0000000   2.5966183  )
        22           Re1 tau(  22) = (   0.7500000   0.0000000   2.8989619  )
        23           Re1 tau(  23) = (   0.5000000   0.6530184   2.8609296  )
        24           O0  tau(  24) = (   0.7500000   0.9403465   2.8908013  )
        25           O0  tau(  25) = (   0.7500000   0.3656903   2.8907005  )
        26           O0  tau(  26) = (   0.5000000   0.0000000   3.1620138  )
        27           H2  tau(  27) = (  -0.0003800   0.8172395   1.8403061  )
        28           H2  tau(  28) = (   0.4996200   0.8172395   1.8403061  )
        29           H2  tau(  29) = (   0.1698700   0.0284977   1.7974380  )
        30           H2  tau(  30) = (   0.6698800   0.0284977   1.7974380  )

     number of k points=    10  Methfessel-Paxton smearing, width (Ry)=  0.0100
                       cart. coord. in units 2pi/alat
        k(    1) = (   0.0000000   0.0000000   0.0000000), wk =   0.1250000
        k(    2) = (   0.0000000   0.1914188   0.0000000), wk =   0.2500000
        k(    3) = (   0.0000000  -0.3828376   0.0000000), wk =   0.1250000
        k(    4) = (   0.2500000   0.0000000   0.0000000), wk =   0.2500000
        k(    5) = (   0.2500000   0.1914188   0.0000000), wk =   0.2500000
        k(    6) = (   0.2500000  -0.3828376   0.0000000), wk =   0.2500000
        k(    7) = (  -0.5000000   0.0000000   0.0000000), wk =   0.1250000
        k(    8) = (  -0.5000000   0.1914188   0.0000000), wk =   0.2500000
        k(    9) = (  -0.5000000  -0.3828376   0.0000000), wk =   0.1250000
        k(   10) = (  -0.2500000   0.1914188   0.0000000), wk =   0.2500000

     Dense  grid:  1290557 G-vectors     FFT dimensions: (  75,  96, 375)

     Smooth grid:   233813 G-vectors     FFT dimensions: (  45,  54, 216)

     Largest allocated arrays     est. size (Mb)     dimensions
        Kohn-Sham Wavefunctions        39.11 Mb     (   7365,  348)
        Atomic wavefunctions           20.23 Mb     (   7365,  180)
        NL pseudopotentials            55.97 Mb     (   7365,  498)
        Each V/rho on FFT grid         10.33 Mb     ( 676800)
        Each G-vector array             2.46 Mb     ( 322642)
        G-vector shells                 1.07 Mb     ( 139625)
     Largest temporary arrays     est. size (Mb)     dimensions
        Auxiliary wavefunctions       156.43 Mb     (   7365, 1392)
        Each subspace H/S matrix       29.57 Mb     (1392,1392)
        Each <psi_i|beta_j> matrix      2.64 Mb     (    498,  348)
        Arrays for rho mixing          82.62 Mb     ( 676800,   8)

     Check: negative/imaginary core charge=   -0.000003    0.000000

     Initial potential from superposition of free atoms
     Check: negative starting charge=   -0.237311

     starting charge  227.99958, renormalised to  232.00000

     negative rho (up, down):  0.241E+00 0.000E+00
     Number of +U iterations with fixed ns =  0
     Starting occupations:
 --- enter write_ns ---
 LDA+U parameters:
U( 2)     =  3.50000000
alpha( 2) =  0.00000000
atom    3   Tr[ns(na)] =   5.00000
    eigenvalues: 
  0.500  0.500  0.500  0.500  0.500
    eigenvectors:
  1.000  0.000  0.000  0.000  0.000
  0.000  1.000  0.000  0.000  0.000
  0.000  0.000  1.000  0.000  0.000
  0.000  0.000  0.000  1.000  0.000
  0.000  0.000  0.000  0.000  1.000
    occupations:
  0.500  0.000  0.000  0.000  0.000
  0.000  0.500  0.000  0.000  0.000
  0.000  0.000  0.500  0.000  0.000
  0.000  0.000  0.000  0.500  0.000
  0.000  0.000  0.000  0.000  0.500
atom    4   Tr[ns(na)] =   5.00000
    eigenvalues: 
  0.500  0.500  0.500  0.500  0.500
    eigenvectors:
  1.000  0.000  0.000  0.000  0.000
  0.000  1.000  0.000  0.000  0.000
  0.000  0.000  1.000  0.000  0.000
  0.000  0.000  0.000  1.000  0.000
  0.000  0.000  0.000  0.000  1.000
    occupations:
  0.500  0.000  0.000  0.000  0.000
  0.000  0.500  0.000  0.000  0.000
  0.000  0.000  0.500  0.000  0.000
  0.000  0.000  0.000  0.500  0.000
  0.000  0.000  0.000  0.000  0.500
atom    9   Tr[ns(na)] =   5.00000
    eigenvalues: 
  0.500  0.500  0.500  0.500  0.500
    eigenvectors:
  1.000  0.000  0.000  0.000  0.000
  0.000  1.000  0.000  0.000  0.000
  0.000  0.000  1.000  0.000  0.000
  0.000  0.000  0.000  1.000  0.000
  0.000  0.000  0.000  0.000  1.000
    occupations:
  0.500  0.000  0.000  0.000  0.000
  0.000  0.500  0.000  0.000  0.000
  0.000  0.000  0.500  0.000  0.000
  0.000  0.000  0.000  0.500  0.000
  0.000  0.000  0.000  0.000  0.500
atom   10   Tr[ns(na)] =   5.00000
    eigenvalues: 
  0.500  0.500  0.500  0.500  0.500
    eigenvectors:
  1.000  0.000  0.000  0.000  0.000
  0.000  1.000  0.000  0.000  0.000
  0.000  0.000  1.000  0.000  0.000
  0.000  0.000  0.000  1.000  0.000
  0.000  0.000  0.000  0.000  1.000
    occupations:
  0.500  0.000  0.000  0.000  0.000
  0.000  0.500  0.000  0.000  0.000
  0.000  0.000  0.500  0.000  0.000
  0.000  0.000  0.000  0.500  0.000
  0.000  0.000  0.000  0.000  0.500
atom   16   Tr[ns(na)] =   5.00000
    eigenvalues: 
  0.500  0.500  0.500  0.500  0.500
    eigenvectors:
  1.000  0.000  0.000  0.000  0.000
  0.000  1.000  0.000  0.000  0.000
  0.000  0.000  1.000  0.000  0.000
  0.000  0.000  0.000  1.000  0.000
  0.000  0.000  0.000  0.000  1.000
    occupations:
  0.500  0.000  0.000  0.000  0.000
  0.000  0.500  0.000  0.000  0.000
  0.000  0.000  0.500  0.000  0.000
  0.000  0.000  0.000  0.500  0.000
  0.000  0.000  0.000  0.000  0.500
atom   17   Tr[ns(na)] =   5.00000
    eigenvalues: 
  0.500  0.500  0.500  0.500  0.500
    eigenvectors:
  1.000  0.000  0.000  0.000  0.000
  0.000  1.000  0.000  0.000  0.000
  0.000  0.000  1.000  0.000  0.000
  0.000  0.000  0.000  1.000  0.000
  0.000  0.000  0.000  0.000  1.000
    occupations:
  0.500  0.000  0.000  0.000  0.000
  0.000  0.500  0.000  0.000  0.000
  0.000  0.000  0.500  0.000  0.000
  0.000  0.000  0.000  0.500  0.000
  0.000  0.000  0.000  0.000  0.500
atom   22   Tr[ns(na)] =   5.00000
    eigenvalues: 
  0.500  0.500  0.500  0.500  0.500
    eigenvectors:
  1.000  0.000  0.000  0.000  0.000
  0.000  1.000  0.000  0.000  0.000
  0.000  0.000  1.000  0.000  0.000
  0.000  0.000  0.000  1.000  0.000
  0.000  0.000  0.000  0.000  1.000
    occupations:
  0.500  0.000  0.000  0.000  0.000
  0.000  0.500  0.000  0.000  0.000
  0.000  0.000  0.500  0.000  0.000
  0.000  0.000  0.000  0.500  0.000
  0.000  0.000  0.000  0.000  0.500
atom   23   Tr[ns(na)] =   5.00000
    eigenvalues: 
  0.500  0.500  0.500  0.500  0.500
    eigenvectors:
  1.000  0.000  0.000  0.000  0.000
  0.000  1.000  0.000  0.000  0.000
  0.000  0.000  1.000  0.000  0.000
  0.000  0.000  0.000  1.000  0.000
  0.000  0.000  0.000  0.000  1.000
    occupations:
  0.500  0.000  0.000  0.000  0.000
  0.000  0.500  0.000  0.000  0.000
  0.000  0.000  0.500  0.000  0.000
  0.000  0.000  0.000  0.500  0.000
  0.000  0.000  0.000  0.000  0.500
N of occupied +U levels =  40.0000000
 --- exit write_ns ---
 Atomic wfc used for LDA+U Projector are NOT orthogonalized
     Starting wfc are  180 randomized atomic wfcs

     total cpu time spent up to now is      255.6 secs

     per-process dynamical memory:   413.0 Mb

     Self-consistent Calculation

     iteration #  1     ecut=    40.00 Ry     beta=0.70
     Davidson diagonalization with overlap
     ethr =  1.00E-02,  avg # of iterations =  5.7
 --- enter write_ns ---
 LDA+U parameters:
U( 2)     =  3.50000000
alpha( 2) =  0.00000000
atom    3   Tr[ns(na)] =   4.93051
    eigenvalues: 
  0.345  0.457  0.493  0.503  0.668
    eigenvectors:
  0.003  0.000  0.502  0.000  0.495
  0.000  0.996  0.000  0.004  0.000
  0.997  0.000  0.001  0.000  0.002
  0.000  0.000  0.497  0.000  0.503
  0.000  0.004  0.000  0.996  0.000
    occupations:
  0.579  0.000  0.013 -0.087  0.000
  0.000  0.457 -0.000 -0.000  0.003
  0.013 -0.000  0.345 -0.006 -0.000
 -0.087 -0.000 -0.006  0.581 -0.000
  0.000  0.003 -0.000 -0.000  0.503
atom    4   Tr[ns(na)] =   5.01473
    eigenvalues: 
  0.334  0.453  0.508  0.521  0.692
    eigenvectors:
  0.000  0.000  0.806  0.150  0.044
  0.000  0.000  0.158  0.842  0.000
  1.000  0.000  0.000  0.000  0.000
  0.000  0.000  0.036  0.008  0.956
  0.000  1.000  0.000  0.000  0.000
    occupations:
  0.518  0.005  0.002 -0.037  0.000
  0.005  0.519  0.000 -0.000 -0.000
  0.002  0.000  0.334 -0.001  0.000
 -0.037 -0.000 -0.001  0.684  0.000
  0.000 -0.000  0.000  0.000  0.453
atom    9   Tr[ns(na)] =   6.36076
    eigenvalues: 
  0.506  0.507  0.632  0.741  0.794
    eigenvectors:
  0.028  0.341  0.000  0.631  0.000
  0.924  0.076  0.000  0.000  0.000
  0.000  0.000  1.000  0.000  0.000
  0.048  0.584  0.000  0.369  0.000
  0.000  0.000  0.000  0.000  1.000
    occupations:
  0.654  0.000 -0.000 -0.113  0.000
  0.000  0.506 -0.000  0.000 -0.000
 -0.000 -0.000  0.632  0.000 -0.000
 -0.113  0.000  0.000  0.593 -0.000
  0.000 -0.000 -0.000 -0.000  0.794
atom   10   Tr[ns(na)] =   6.64020
    eigenvalues: 
  0.476  0.478  0.732  0.806  0.828
    eigenvectors:
  0.000  0.977  0.023  0.000  0.000
  0.000  0.000  0.000  1.000  0.000
  0.000  0.000  0.000  0.000  1.000
  0.000  0.023  0.977  0.000  0.000
  1.000  0.000  0.000  0.000  0.000
    occupations:
  0.484 -0.000  0.000 -0.038  0.000
 -0.000  0.806  0.000  0.000 -0.000
  0.000  0.000  0.828 -0.000  0.000
 -0.038  0.000 -0.000  0.726  0.000
  0.000 -0.000  0.000  0.000  0.476
atom   16   Tr[ns(na)] =   4.93049
    eigenvalues: 
  0.345  0.457  0.493  0.503  0.668
    eigenvectors:
  0.003  0.000  0.502  0.000  0.495
  0.000  0.996  0.000  0.004  0.000
  0.997  0.000  0.001  0.000  0.002
  0.000  0.000  0.497  0.000  0.503
  0.000  0.004  0.000  0.996  0.000
    occupations:
  0.579  0.000  0.013 -0.087  0.000
  0.000  0.457 -0.000  0.000  0.003
  0.013 -0.000  0.345 -0.006 -0.000
 -0.087  0.000 -0.006  0.581 -0.000
  0.000  0.003 -0.000 -0.000  0.503
atom   17   Tr[ns(na)] =   5.01478
    eigenvalues: 
  0.334  0.453  0.508  0.521  0.692
    eigenvectors:
  0.000  0.000  0.806  0.150  0.044
  0.000  0.000  0.158  0.842  0.000
  1.000  0.000  0.000  0.000  0.000
  0.000  0.000  0.036  0.008  0.956
  0.000  1.000  0.000  0.000  0.000
    occupations:
  0.518  0.005  0.002 -0.037  0.000
  0.005  0.519  0.001 -0.000 -0.000
  0.002  0.001  0.334 -0.001  0.000
 -0.037 -0.000 -0.001  0.684  0.000
  0.000 -0.000  0.000  0.000  0.453
atom   22   Tr[ns(na)] =   6.36076
    eigenvalues: 
  0.506  0.507  0.632  0.741  0.794
    eigenvectors:
  0.028  0.340  0.000  0.631  0.000
  0.924  0.076  0.000  0.000  0.000
  0.000  0.000  1.000  0.000  0.000
  0.048  0.583  0.000  0.369  0.000
  0.000  0.000  0.000  0.000  1.000
    occupations:
  0.654  0.000 -0.000 -0.113  0.000
  0.000  0.506 -0.000  0.000 -0.000
 -0.000 -0.000  0.632  0.000  0.000
 -0.113  0.000  0.000  0.593 -0.000
  0.000 -0.000  0.000 -0.000  0.794
atom   23   Tr[ns(na)] =   6.64060
    eigenvalues: 
  0.476  0.478  0.732  0.806  0.828
    eigenvectors:
  0.000  0.977  0.023  0.000  0.000
  0.000  0.000  0.000  1.000  0.000
  0.000  0.000  0.000  0.000  1.000
  0.000  0.023  0.977  0.000  0.000
  1.000  0.000  0.000  0.000  0.000
    occupations:
  0.484 -0.000  0.000 -0.038  0.000
 -0.000  0.806  0.000  0.000 -0.000
  0.000  0.000  0.828 -0.000  0.000
 -0.038  0.000 -0.000  0.726  0.000
  0.000 -0.000  0.000  0.000  0.476
N of occupied +U levels =  45.8928358
 --- exit write_ns ---

     negative rho (up, down):  0.283E+00 0.000E+00

     total cpu time spent up to now is      672.3 secs

     total energy              =   -2129.02968513 Ry
     Harris-Foulkes estimate   =   -2142.24314061 Ry
     estimated scf accuracy    <      15.76369147 Ry

     iteration #  2     ecut=    40.00 Ry     beta=0.70
     Davidson diagonalization with overlap
     ethr =  6.79E-03,  avg # of iterations =  5.1

     negative rho (up, down):  0.280E+00 0.000E+00

     total cpu time spent up to now is     1094.7 secs

     total energy              =   -2042.44481645 Ry
     Harris-Foulkes estimate   =   -2269.14746553 Ry
     estimated scf accuracy    <    2837.22612276 Ry

     iteration #  3     ecut=    40.00 Ry     beta=0.70
     Davidson diagonalization with overlap
     ethr =  6.79E-03,  avg # of iterations =  6.1

     negative rho (up, down):  0.245E+00 0.000E+00

     total cpu time spent up to now is     1522.4 secs

     total energy              =   -2130.71631177 Ry
     Harris-Foulkes estimate   =   -2150.16253371 Ry
     estimated scf accuracy    <     123.52582476 Ry

     iteration #  4     ecut=    40.00 Ry     beta=0.70
     Davidson diagonalization with overlap
     ethr =  6.79E-03,  avg # of iterations =  3.3

     negative rho (up, down):  0.233E+00 0.000E+00

     total cpu time spent up to now is     1805.2 secs

     total energy              =   -2139.39495009 Ry
     Harris-Foulkes estimate   =   -2142.04885848 Ry
     estimated scf accuracy    <      15.90089834 Ry

     iteration #  5     ecut=    40.00 Ry     beta=0.70
     Davidson diagonalization with overlap
     ethr =  6.79E-03,  avg # of iterations =  1.0

     negative rho (up, down):  0.234E+00 0.000E+00

     total cpu time spent up to now is     2064.7 secs

     total energy              =   -2140.75456822 Ry
     Harris-Foulkes estimate   =   -2141.06490350 Ry
     estimated scf accuracy    <       3.28723056 Ry

     iteration #  6     ecut=    40.00 Ry     beta=0.70
     Davidson diagonalization with overlap
     ethr =  1.42E-03,  avg # of iterations =  3.5

     negative rho (up, down):  0.234E+00 0.000E+00

     total cpu time spent up to now is     2337.5 secs

     total energy              =   -2140.80407938 Ry
     Harris-Foulkes estimate   =   -2140.87488863 Ry
     estimated scf accuracy    <       0.73744728 Ry

     iteration #  7     ecut=    40.00 Ry     beta=0.70
     Davidson diagonalization with overlap
     ethr =  3.18E-04,  avg # of iterations =  5.4

     negative rho (up, down):  0.235E+00 0.000E+00

     total cpu time spent up to now is     2619.0 secs

     total energy              =   -2140.79118007 Ry
     Harris-Foulkes estimate   =   -2140.85215671 Ry
     estimated scf accuracy    <       0.57231550 Ry

     iteration #  8     ecut=    40.00 Ry     beta=0.70
     Davidson diagonalization with overlap
     ethr =  2.47E-04,  avg # of iterations =  3.7

     negative rho (up, down):  0.237E+00 0.000E+00

     total cpu time spent up to now is     2917.2 secs

     total energy              =   -2140.78387282 Ry
     Harris-Foulkes estimate   =   -2140.88260278 Ry
     estimated scf accuracy    <       1.75080009 Ry

     iteration #  9     ecut=    40.00 Ry     beta=0.70
     Davidson diagonalization with overlap
     ethr =  2.47E-04,  avg # of iterations =  4.0

     negative rho (up, down):  0.238E+00 0.000E+00

     total cpu time spent up to now is     3185.5 secs

     total energy              =   -2140.76922926 Ry
     Harris-Foulkes estimate   =   -2140.85977463 Ry
     estimated scf accuracy    <       0.85343988 Ry

     iteration # 10     ecut=    40.00 Ry     beta=0.70
     Davidson diagonalization with overlap
     ethr =  2.47E-04,  avg # of iterations =  3.8

     negative rho (up, down):  0.238E+00 0.000E+00

     total cpu time spent up to now is     3460.1 secs

     total energy              =   -2140.79087814 Ry
     Harris-Foulkes estimate   =   -2140.81797655 Ry
     estimated scf accuracy    <       0.18626449 Ry

     iteration # 11     ecut=    40.00 Ry     beta=0.70
     Davidson diagonalization with overlap
     ethr =  8.03E-05,  avg # of iterations =  6.0

     negative rho (up, down):  0.238E+00 0.000E+00

     total cpu time spent up to now is     3761.8 secs

     total energy              =   -2140.80226455 Ry
     Harris-Foulkes estimate   =   -2140.81010743 Ry
     estimated scf accuracy    <       0.06312263 Ry

     iteration # 12     ecut=    40.00 Ry     beta=0.70
     Davidson diagonalization with overlap
     ethr =  2.72E-05,  avg # of iterations =  3.0

     negative rho (up, down):  0.237E+00 0.000E+00

     total cpu time spent up to now is     4031.4 secs

     total energy              =   -2140.80031360 Ry
     Harris-Foulkes estimate   =   -2140.80616609 Ry
     estimated scf accuracy    <       0.01154194 Ry

     iteration # 13     ecut=    40.00 Ry     beta=0.70
     Davidson diagonalization with overlap
     ethr =  4.97E-06,  avg # of iterations =  5.9

     negative rho (up, down):  0.237E+00 0.000E+00

     total cpu time spent up to now is     4341.8 secs

     total energy              =   -2140.79840362 Ry
     Harris-Foulkes estimate   =   -2140.81365420 Ry
     estimated scf accuracy    <       0.07963782 Ry

     iteration # 14     ecut=    40.00 Ry     beta=0.70
     Davidson diagonalization with overlap
     ethr =  4.97E-06,  avg # of iterations =  5.3

     negative rho (up, down):  0.238E+00 0.000E+00

     total cpu time spent up to now is     4638.5 secs

     total energy              =   -2140.80506653 Ry
     Harris-Foulkes estimate   =   -2140.80529743 Ry
     estimated scf accuracy    <       0.00125976 Ry

     iteration # 15     ecut=    40.00 Ry     beta=0.70
     Davidson diagonalization with overlap
     ethr =  5.43E-07,  avg # of iterations =  1.6

     negative rho (up, down):  0.237E+00 0.000E+00

     total cpu time spent up to now is     4885.7 secs

     total energy              =   -2140.80520293 Ry
     Harris-Foulkes estimate   =   -2140.80531478 Ry
     estimated scf accuracy    <       0.00087174 Ry

     iteration # 16     ecut=    40.00 Ry     beta=0.70
     Davidson diagonalization with overlap
     ethr =  3.76E-07,  avg # of iterations =  1.0

     negative rho (up, down):  0.238E+00 0.000E+00

     total cpu time spent up to now is     5152.8 secs

     total energy              =   -2140.80520525 Ry
     Harris-Foulkes estimate   =   -2140.80530797 Ry
     estimated scf accuracy    <       0.00070627 Ry

     iteration # 17     ecut=    40.00 Ry     beta=0.70
     Davidson diagonalization with overlap
     ethr =  3.04E-07,  avg # of iterations =  1.0

     negative rho (up, down):  0.237E+00 0.000E+00

     total cpu time spent up to now is     5397.1 secs

     total energy              =   -2140.80517907 Ry
     Harris-Foulkes estimate   =   -2140.80535882 Ry
     estimated scf accuracy    <       0.00193348 Ry

     iteration # 18     ecut=    40.00 Ry     beta=0.70
     Davidson diagonalization with overlap
     ethr =  3.04E-07,  avg # of iterations =  1.0

     negative rho (up, down):  0.237E+00 0.000E+00

     total cpu time spent up to now is     5661.8 secs

     total energy              =   -2140.80527664 Ry
     Harris-Foulkes estimate   =   -2140.80531074 Ry
     estimated scf accuracy    <       0.00032457 Ry

     iteration # 19     ecut=    40.00 Ry     beta=0.70
     Davidson diagonalization with overlap
     ethr =  1.40E-07,  avg # of iterations =  1.0

     negative rho (up, down):  0.237E+00 0.000E+00

     total cpu time spent up to now is     5917.6 secs

     total energy              =   -2140.80527973 Ry
     Harris-Foulkes estimate   =   -2140.80530937 Ry
     estimated scf accuracy    <       0.00027156 Ry

     iteration # 20     ecut=    40.00 Ry     beta=0.70
     Davidson diagonalization with overlap
     ethr =  1.17E-07,  avg # of iterations =  1.0

     negative rho (up, down):  0.237E+00 0.000E+00

     total cpu time spent up to now is     6182.0 secs

     total energy              =   -2140.80529400 Ry
     Harris-Foulkes estimate   =   -2140.80529968 Ry
     estimated scf accuracy    <       0.00006730 Ry

     iteration # 21     ecut=    40.00 Ry     beta=0.70
     Davidson diagonalization with overlap
     ethr =  2.90E-08,  avg # of iterations =  1.0

     negative rho (up, down):  0.237E+00 0.000E+00

     total cpu time spent up to now is     6438.3 secs

     total energy              =   -2140.80529463 Ry
     Harris-Foulkes estimate   =   -2140.80530073 Ry
     estimated scf accuracy    <       0.00004864 Ry

     iteration # 22     ecut=    40.00 Ry     beta=0.70
     Davidson diagonalization with overlap
     ethr =  2.10E-08,  avg # of iterations =  1.0

     negative rho (up, down):  0.237E+00 0.000E+00

     total cpu time spent up to now is     6691.7 secs

     total energy              =   -2140.80529703 Ry
     Harris-Foulkes estimate   =   -2140.80530087 Ry
     estimated scf accuracy    <       0.00004409 Ry

     iteration # 23     ecut=    40.00 Ry     beta=0.70
     Davidson diagonalization with overlap
     ethr =  1.90E-08,  avg # of iterations =  1.0

     negative rho (up, down):  0.237E+00 0.000E+00

     total cpu time spent up to now is     6950.0 secs

     total energy              =   -2140.80529868 Ry
     Harris-Foulkes estimate   =   -2140.80529951 Ry
     estimated scf accuracy    <       0.00001458 Ry

     iteration # 24     ecut=    40.00 Ry     beta=0.70
     Davidson diagonalization with overlap
     ethr =  6.29E-09,  avg # of iterations =  1.0

     negative rho (up, down):  0.237E+00 0.000E+00

     total cpu time spent up to now is     7214.9 secs

     total energy              =   -2140.80529894 Ry
     Harris-Foulkes estimate   =   -2140.80529931 Ry
     estimated scf accuracy    <       0.00000283 Ry

     iteration # 25     ecut=    40.00 Ry     beta=0.70
     Davidson diagonalization with overlap
     ethr =  1.22E-09,  avg # of iterations =  1.0

     negative rho (up, down):  0.237E+00 0.000E+00

     total cpu time spent up to now is     7467.0 secs

     total energy              =   -2140.80529901 Ry
     Harris-Foulkes estimate   =   -2140.80529924 Ry
     estimated scf accuracy    <       0.00000129 Ry

     iteration # 26     ecut=    40.00 Ry     beta=0.70
     Davidson diagonalization with overlap
     ethr =  5.57E-10,  avg # of iterations =  1.0

     negative rho (up, down):  0.237E+00 0.000E+00

     total cpu time spent up to now is     7726.4 secs

     total energy              =   -2140.80529887 Ry
     Harris-Foulkes estimate   =   -2140.80529940 Ry
     estimated scf accuracy    <       0.00000323 Ry

     iteration # 27     ecut=    40.00 Ry     beta=0.70
     Davidson diagonalization with overlap
     ethr =  5.57E-10,  avg # of iterations =  1.0

     negative rho (up, down):  0.237E+00 0.000E+00

     total cpu time spent up to now is     7979.7 secs

     total energy              =   -2140.80529913 Ry
     Harris-Foulkes estimate   =   -2140.80529927 Ry
     estimated scf accuracy    <       0.00000115 Ry

     iteration # 28     ecut=    40.00 Ry     beta=0.70
     Davidson diagonalization with overlap
     ethr =  4.95E-10,  avg # of iterations =  1.0

     negative rho (up, down):  0.237E+00 0.000E+00

     total cpu time spent up to now is     8251.6 secs

     End of self-consistent calculation
 --- enter write_ns ---
 LDA+U parameters:
U( 2)     =  3.50000000
alpha( 2) =  0.00000000
atom    3   Tr[ns(na)] =   6.59561
    eigenvalues: 
  0.531  0.567  0.623  0.762  0.815
    eigenvectors:
  0.000  0.359  0.004  0.638  0.000
  0.999  0.000  0.000  0.000  0.001
  0.000  0.001  0.990  0.009  0.000
  0.000  0.641  0.007  0.353  0.000
  0.001  0.000  0.000  0.000  0.999
    occupations:
  0.692  0.000  0.012 -0.093 -0.000
  0.000  0.531 -0.000 -0.000 -0.008
  0.012 -0.000  0.624 -0.007  0.001
 -0.093 -0.000 -0.007  0.636  0.000
 -0.000 -0.008  0.001  0.000  0.815
atom    4   Tr[ns(na)] =   6.55211
    eigenvalues: 
  0.568  0.604  0.609  0.713  0.783
    eigenvectors:
  0.000  0.986  0.001  0.001  0.012
  0.000  0.001  0.006  0.994  0.000
  0.000  0.001  0.993  0.006  0.000
  0.000  0.012  0.000  0.000  0.988
  1.000  0.000  0.000  0.000  0.000
    occupations:
  0.606  0.003  0.000 -0.019  0.001
  0.003  0.712  0.008 -0.000 -0.002
  0.000  0.008  0.610  0.001 -0.000
 -0.019 -0.000  0.001  0.780 -0.000
  0.001 -0.002 -0.000 -0.000  0.568
atom    9   Tr[ns(na)] =   6.56095
    eigenvalues: 
  0.592  0.604  0.606  0.726  0.752
    eigenvectors:
  0.250  0.000  0.000  0.006  0.744
  0.000  0.988  0.012  0.000  0.000
  0.000  0.012  0.988  0.000  0.000
  0.750  0.000  0.000  0.002  0.248
  0.000  0.000  0.000  0.992  0.008
    occupations:
  0.712  0.000 -0.001 -0.069  0.002
  0.000  0.604  0.000  0.000  0.000
 -0.001  0.000  0.606  0.001 -0.000
 -0.069  0.000  0.001  0.632 -0.001
  0.002  0.000 -0.000 -0.001  0.726
atom   10   Tr[ns(na)] =   6.55666
    eigenvalues: 
  0.473  0.534  0.694  0.763  0.816
    eigenvectors:
  0.997  0.000  0.000  0.003  0.000
  0.000  0.000  0.000  0.000  1.000
  0.000  0.000  1.000  0.000  0.000
  0.003  0.000  0.000  0.997  0.000
  0.000  1.000  0.000  0.000  0.000
    occupations:
  0.473  0.000 -0.000 -0.016  0.000
  0.000  0.816  0.001 -0.000  0.001
 -0.000  0.001  0.694  0.000  0.000
 -0.016 -0.000  0.000  0.762 -0.000
  0.000  0.001  0.000 -0.000  0.534
atom   16   Tr[ns(na)] =   6.59532
    eigenvalues: 
  0.531  0.567  0.623  0.762  0.815
    eigenvectors:
  0.000  0.359  0.004  0.638  0.000
  0.999  0.000  0.000  0.000  0.001
  0.000  0.001  0.990  0.009  0.000
  0.000  0.641  0.007  0.353  0.000
  0.001  0.000  0.000  0.000  0.999
    occupations:
  0.692  0.000  0.012 -0.093 -0.000
  0.000  0.531  0.000 -0.000 -0.008
  0.012  0.000  0.624 -0.007  0.001
 -0.093 -0.000 -0.007  0.636  0.000
 -0.000 -0.008  0.001  0.000  0.814
atom   17   Tr[ns(na)] =   6.55216
    eigenvalues: 
  0.568  0.604  0.609  0.713  0.783
    eigenvectors:
  0.000  0.986  0.001  0.001  0.012
  0.000  0.001  0.006  0.994  0.000
  0.000  0.001  0.993  0.006  0.000
  0.000  0.012  0.000  0.000  0.988
  1.000  0.000  0.000  0.000  0.000
    occupations:
  0.606  0.003  0.000 -0.019  0.001
  0.003  0.712  0.008 -0.000 -0.002
  0.000  0.008  0.609  0.001 -0.000
 -0.019 -0.000  0.001  0.780 -0.000
  0.001 -0.002 -0.000 -0.000  0.568
atom   22   Tr[ns(na)] =   6.56108
    eigenvalues: 
  0.592  0.604  0.606  0.726  0.752
    eigenvectors:
  0.250  0.000  0.000  0.006  0.744
  0.000  0.988  0.012  0.000  0.000
  0.000  0.012  0.988  0.000  0.000
  0.750  0.000  0.000  0.002  0.248
  0.000  0.000  0.000  0.992  0.008
    occupations:
  0.712  0.000 -0.001 -0.070  0.002
  0.000  0.604  0.000  0.000  0.000
 -0.001  0.000  0.606  0.001  0.000
 -0.070  0.000  0.001  0.632 -0.001
  0.002  0.000  0.000 -0.001  0.726
atom   23   Tr[ns(na)] =   6.55656
    eigenvalues: 
  0.472  0.534  0.694  0.763  0.816
    eigenvectors:
  0.997  0.000  0.000  0.003  0.000
  0.000  0.000  0.000  0.000  1.000
  0.000  0.000  1.000  0.000  0.000
  0.003  0.000  0.000  0.997  0.000
  0.000  1.000  0.000  0.000  0.000
    occupations:
  0.473  0.000 -0.000 -0.016  0.000
  0.000  0.816  0.001 -0.000  0.001
 -0.000  0.001  0.694  0.000  0.000
 -0.016 -0.000  0.000  0.762 -0.000
  0.000  0.001  0.000 -0.000  0.534
N of occupied +U levels =  52.5304485
 --- exit write_ns ---

          k = 0.0000 0.0000 0.0000 ( 29221 PWs)   bands (ev):

   -81.1823 -81.1264 -80.9524 -80.8953 -80.6290 -80.5734 -80.5187 -80.4621
   -43.3725 -43.1983 -43.1137 -43.1103 -43.0245 -42.9658 -42.9587 -42.8675
   -42.8227 -42.7998 -42.7606 -42.7489 -42.6732 -42.6032 -42.5134 -42.5121
   -42.5077 -42.4964 -42.4264 -42.4256 -42.3690 -42.3005 -41.9186 -41.8722
   -21.0360 -20.5586 -20.4853 -20.4063 -20.0846 -19.9299 -19.6860 -19.6003
   -19.5685 -19.5508 -19.4821 -19.3207 -19.2929 -19.1931 -19.1606 -18.8574
   -18.3044 -17.9946  -9.6927  -9.5085  -9.2759  -8.9570  -8.6911  -8.5257
    -8.4053  -8.0616  -8.0294  -7.9261  -7.8491  -7.7467  -7.6843  -7.3841
    -7.2356  -7.2231  -6.9632  -6.8297  -6.8102  -6.7181  -6.6519  -6.2961
    -6.2766  -5.6729  -5.6225  -5.5704  -5.4287  -5.3923  -5.2500  -5.1820
    -5.1011  -5.0762  -4.8544  -4.7878  -4.7708  -4.7370  -4.5026  -4.4755
    -4.2128  -4.1932  -4.1515  -3.9958  -3.9799  -3.7294  -3.6920  -3.6100
    -3.3925  -3.3081  -3.2792  -3.2641  -3.1944  -3.1493  -2.9897  -2.9225
    -2.8716  -2.6625  -2.4789  -1.3445  -1.1488  -0.9181  -0.4628  -0.3168
    -0.2623   0.2853   0.3216   0.3423   0.4539   0.5336   0.6833   0.9784
     1.0050   1.0870   1.3915   1.8750   2.1295   2.6503   2.7761   3.1382
     3.1637   3.2349   3.2783   3.4780   3.7946   4.2003   4.2738   4.5142
     4.6375   4.6767   4.8396   4.8954   4.9455   5.0008   5.0178   5.0834
     5.2385   5.2980   5.5111   5.5982   6.0798   6.3756   6.4830   6.7302
     7.3392   7.5161   7.6081   7.6614   7.7865   7.9185   8.0380   8.1663
     8.1970   8.2889   8.4494   8.4765   8.6605   8.7259   8.8694   8.8991
     8.9798   9.0436   9.1420   9.3429   9.3870   9.5851   9.6929   9.7394
     9.7584   9.8379   9.9983  10.0152  10.1434  10.1564  10.1748  10.4469
    10.5442  10.5848  10.6966  10.7564  10.9574  10.9859  11.1427  11.3579
    11.3666  11.4078  11.4322  11.8008  11.8891  11.8924  11.9985  12.0382
    12.0565  12.1959  12.2653  12.3304  12.5570  12.7306  12.8325  12.8874
    12.9437  12.9489  12.9752  13.0154  13.0364  13.1550  13.1795  13.2312
    13.2426  13.2896  13.3329  13.4797  13.5396  13.5438  13.6112  13.7939
    13.8917  13.9105  13.9599  13.9914  14.0222  14.0416  14.0435  14.2270
    14.2448  14.2924  14.3091  14.5313  14.5409  14.8118  14.8581  14.9343
    14.9756  15.0236  15.0816  15.1353  15.2030  15.4601  15.4830  15.5009
    15.5922  15.6354  15.7222  15.8813  15.9119  15.9829  16.0170  16.0965
    16.2782  16.3653  16.4962  16.5455  16.5944  16.7695  16.7708  16.8530
    16.8990  16.9992  17.0248  17.0975  17.1511  17.2067  17.2194  17.3599
    17.4465  17.4734  17.5639  17.6288  17.8509  17.9980  18.0643  18.1004
    18.2406  18.3325  18.3580  18.5062  18.5496  18.5695  18.7295  18.8002
    18.8401  18.9360  18.9873  19.0034  19.1585  19.2763  19.3121  19.3399
    19.4062  19.5650  19.5781  19.6590  19.7569  19.8541  19.9095  20.0541
    20.0854  20.0942  20.1410  20.1669  20.3898  20.4907  20.5263  20.5949
    20.6790  20.7333  20.8876  20.9570  20.9908  21.0371  21.0739  21.1582
    21.2903  21.4593  21.5519  21.5718  21.6596  21.7528  21.8587  21.8650
    21.9732  22.0400  22.0495  22.1060  22.1420  22.1542  22.1678  22.2277
    22.2624  22.3613  22.3688  22.4483  22.4749  22.5248  22.5582  22.5767
    22.6543  22.7192  22.7337  22.7492

          k = 0.0000 0.1914 0.0000 ( 29141 PWs)   bands (ev):

   -81.1822 -81.1266 -80.9522 -80.8953 -80.6287 -80.5734 -80.5186 -80.4623
   -43.3726 -43.1981 -43.1136 -43.1093 -43.0244 -42.9655 -42.9572 -42.8695
   -42.8228 -42.7992 -42.7582 -42.7489 -42.6731 -42.6032 -42.5149 -42.5133
   -42.5093 -42.4964 -42.4259 -42.4256 -42.3685 -42.3004 -41.9186 -41.8723
   -20.9893 -20.4741 -20.4062 -20.3584 -20.0858 -19.9012 -19.8815 -19.7954
   -19.6821 -19.5926 -19.5542 -19.3716 -19.3460 -18.9753 -18.9543 -18.8519
   -18.3018 -17.9942  -9.4116  -9.1807  -9.0244  -9.0137  -8.9245  -8.5399
    -8.5252  -8.4034  -8.2543  -8.2172  -8.1532  -7.9234  -7.7928  -7.3084
    -7.2704  -7.2242  -6.6628  -6.5605  -6.4210  -6.4018  -6.3278  -6.2029
    -6.0788  -5.9146  -5.7454  -5.7021  -5.6001  -5.5209  -5.4206  -5.2795
    -5.2495  -5.1695  -4.8959  -4.8450  -4.8178  -4.5318  -4.4531  -4.3992
    -4.3707  -4.0855  -4.0349  -4.0307  -3.7035  -3.6075  -3.5555  -3.5127
    -3.5074  -3.3437  -3.2793  -3.2412  -3.1831  -3.1288  -2.9726  -2.8531
    -2.8271  -2.7069  -2.5118  -1.5532  -1.5073  -1.3408  -1.1204  -0.3117
    -0.0868   0.3821   0.5482   0.8009   0.8031   0.8791   0.8845   0.9351
     1.0226   1.1168   1.2813   1.6840   2.1691   2.4457   2.9426   3.1482
     3.2423   3.3339   3.4582   3.5900   3.8205   3.8373   4.2245   4.2713
     4.2801   4.3141   4.4949   4.5459   4.8110   5.0256   5.0398   5.0887
     5.3947   5.6019   5.9097   6.3638   6.3827   6.5079   6.5103   6.6585
     6.7478   6.9167   7.0557   7.4152   7.6490   7.7883   7.9185   8.0682
     8.1592   8.1716   8.4470   8.5445   8.8586   8.9302   8.9525   9.2287
     9.3894   9.4372   9.5201   9.5651   9.6342   9.8154   9.8794   9.9658
     9.9827  10.0814  10.1502  10.3287  10.3366  10.3513  10.3965  10.6581
    10.6995  10.7517  10.7695  10.8835  11.1132  11.1693  11.2075  11.3115
    11.4139  11.4288  11.5553  11.6588  11.7111  11.7662  11.8123  11.8248
    11.9123  12.0960  12.1306  12.1512  12.2132  12.2722  12.2979  12.4009
    12.4932  12.5423  12.6428  12.7989  12.8186  12.9893  13.0450  13.1869
    13.2365  13.3047  13.4723  13.5057  13.6381  13.6787  13.7019  13.7162
    13.8032  13.9221  13.9906  14.0346  14.1678  14.2279  14.2941  14.3235
    14.4573  14.4656  14.5348  14.5785  14.6435  14.7673  14.8136  14.8277
    14.9393  14.9659  15.0612  15.1178  15.2629  15.2785  15.3289  15.4917
    15.5044  15.5749  15.6488  15.6834  15.7283  15.7447  15.8287  15.8675
    15.8892  16.1986  16.2463  16.4209  16.4804  16.6334  16.6899  16.7678
    16.9432  17.0249  17.0938  17.1584  17.2515  17.2860  17.3067  17.3280
    17.3648  17.5972  17.7059  17.7719  17.9521  18.0443  18.2073  18.2804
    18.3122  18.3530  18.4591  18.5295  18.6641  18.7637  18.8888  18.9672
    18.9779  18.9824  19.0544  19.0739  19.1581  19.3298  19.3651  19.4647
    19.4766  19.4983  19.5569  19.6193  19.6459  19.7645  19.7752  19.8007
    19.9004  19.9169  20.1334  20.1990  20.2386  20.3585  20.3845  20.3918
    20.4089  20.4700  20.5588  20.6968  20.7549  20.8224  20.8929  20.9102
    21.0397  21.0439  21.1137  21.1843  21.3035  21.4099  21.5237  21.5351
    21.6403  21.6485  21.6673  21.7079  21.7892  21.9726  22.0234  22.1339
    22.1496  22.2633  22.2877  22.3651  22.4373  22.4801  22.5728  22.6500
    22.6576  22.7093  22.7740  22.8214

          k = 0.0000-0.3828 0.0000 ( 29262 PWs)   bands (ev):

   -81.1820 -81.1268 -80.9520 -80.8953 -80.6284 -80.5735 -80.5184 -80.4624
   -43.3728 -43.1981 -43.1136 -43.1083 -43.0245 -42.9655 -42.9558 -42.8716
   -42.8229 -42.7987 -42.7560 -42.7490 -42.6732 -42.6033 -42.5170 -42.5145
   -42.5104 -42.4965 -42.4257 -42.4254 -42.3681 -42.3004 -41.9186 -41.8723
   -20.9476 -20.4061 -20.3575 -20.2029 -20.0312 -19.9562 -19.9431 -19.8540
   -19.7465 -19.6780 -19.6609 -19.5582 -19.4922 -18.8704 -18.7597 -18.7564
   -18.3000 -17.9937  -9.3417  -9.2085  -8.9372  -8.7925  -8.7126  -8.6021
    -8.5779  -8.5085  -8.4093  -8.2873  -8.2712  -7.8199  -7.7303  -7.2502
    -7.1940  -7.1115  -7.0746  -7.0383  -6.8425  -6.5542  -6.4374  -5.9817
    -5.8033  -5.6984  -5.6623  -5.5708  -5.4502  -5.3564  -5.3542  -5.1887
    -5.1822  -5.1161  -5.0251  -4.9140  -4.7857  -4.6621  -4.5035  -4.4762
    -4.1892  -4.0644  -3.8631  -3.8355  -3.8036  -3.7769  -3.6681  -3.6229
    -3.5888  -3.3221  -3.2343  -3.2302  -3.0594  -2.9504  -2.8886  -2.7697
    -2.7649  -2.6299  -2.5060  -1.9570  -1.9194  -1.7067  -1.3377  -0.3124
     0.2230   0.4987   0.5899   0.6356   0.8325   0.9991   1.1654   1.1919
     1.2986   1.3487   1.3669   1.4728   2.1944   2.2539   2.9059   2.9092
     3.0639   3.2066   3.4243   3.4941   3.7049   3.9045   4.0443   4.1976
     4.2763   4.3598   4.7371   4.8739   4.9313   5.0613   5.0895   5.1578
     5.4904   5.6018   5.8156   5.9044   6.1684   6.3110   6.5743   6.6538
     6.8041   7.0817   7.1408   7.2829   7.2905   7.4849   7.6759   7.8972
     8.0793   8.3042   8.5259   8.5861   8.7360   8.7730   9.0673   9.2563
     9.4576   9.6939   9.7442   9.9164   9.9701  10.1482  10.2224  10.3235
    10.3769  10.4473  10.5262  10.6545  10.6945  10.8048  10.8281  10.8552
    10.8969  10.9815  11.0710  11.1303  11.2589  11.2983  11.3575  11.4113
    11.4531  11.4940  11.5017  11.5243  11.6274  11.6552  11.6879  11.6970
    11.7687  11.8371  11.8990  12.0038  12.0528  12.0558  12.1039  12.2772
    12.3088  12.3582  12.3966  12.4144  12.4938  12.5364  12.7481  12.9543
    12.9552  12.9728  13.0657  13.1138  13.4387  13.4817  13.4922  13.5765
    13.6291  13.7046  13.7552  13.8000  13.8326  14.1029  14.1320  14.1983
    14.2709  14.2816  14.3496  14.4802  14.4892  14.7100  14.8120  14.8199
    14.9176  15.0508  15.0621  15.2734  15.3225  15.3314  15.5147  15.6362
    15.8518  15.9322  16.0101  16.1350  16.2238  16.3846  16.4741  16.4836
    16.4974  16.5655  16.7057  16.7287  16.7869  16.8165  16.8642  16.9622
    16.9983  17.0312  17.0627  17.0637  17.3002  17.3480  17.3852  17.4368
    17.5122  17.5325  17.5940  17.5964  17.6405  17.7353  17.7450  17.7848
    17.8752  18.0152  18.1564  18.1660  18.1962  18.2909  18.3338  18.5271
    18.5671  18.5816  18.6869  18.7357  18.7506  18.8283  18.9653  19.0533
    19.0652  19.0735  19.1729  19.3906  19.4893  19.6166  19.7903  19.8035
    19.8524  19.8754  19.9319  19.9478  19.9865  20.0995  20.1718  20.4478
    20.5012  20.5515  20.6147  20.6610  20.6870  20.8522  20.8994  20.9735
    21.0279  21.2027  21.2092  21.3217  21.4077  21.4264  21.4554  21.4800
    21.6864  21.7386  21.9634  22.0131  22.0168  22.1421  22.1796  22.2368
    22.2878  22.5459  22.5493  22.5713  22.6148  22.7652  22.8181  22.9031
    22.9440  23.0545  23.0613  23.0739

          k = 0.2500 0.0000 0.0000 ( 29190 PWs)   bands (ev):

   -81.1683 -81.1290 -80.9392 -80.8990 -80.6156 -80.5765 -80.5057 -80.4659
   -43.2593 -43.1018 -43.0907 -43.0817 -43.0377 -42.9876 -42.9468 -42.8823
   -42.8025 -42.7284 -42.6958 -42.6853 -42.6455 -42.6406 -42.6227 -42.5016
   -42.5011 -42.4890 -42.4463 -42.4407 -42.4397 -42.3901 -42.0628 -42.0166
   -20.8747 -20.4280 -20.4012 -20.3218 -20.0515 -19.8778 -19.8383 -19.6174
   -19.5402 -19.4825 -19.4434 -19.4327 -19.4101 -19.2447 -19.2066 -18.9523
   -18.3242 -18.1256  -9.2512  -9.1096  -8.9480  -8.7084  -8.5762  -8.1922
    -8.0615  -7.9337  -7.8324  -7.7542  -7.6994  -7.6755  -7.5349  -7.4864
    -7.4470  -7.1428  -6.9797  -6.7558  -6.6146  -6.5352  -6.4693  -6.4343
    -6.2410  -6.2224  -5.9127  -5.8972  -5.7690  -5.6253  -5.3699  -5.3052
    -5.0866  -4.9404  -4.9009  -4.7720  -4.6700  -4.5880  -4.5139  -4.4790
    -4.4548  -4.4122  -4.2810  -4.1262  -4.0121  -3.9483  -3.7735  -3.7055
    -3.5647  -3.4443  -3.3190  -3.2330  -3.1710  -2.9668  -2.8137  -2.7704
    -2.6421  -2.5492  -2.2757  -1.0897  -1.0630  -0.8682  -0.5515  -0.4481
    -0.2697  -0.0708   0.0521   0.2494   0.3343   0.4608   0.6852   1.0131
     1.0893   1.2042   1.2999   1.4584   1.5739   1.5894   1.7372   1.7705
     2.2919   2.5102   3.5082   3.8430   4.1785   4.2954   4.3974   4.5278
     4.7349   4.7377   4.8234   4.8251   4.9103   5.0634   5.0805   5.1997
     5.3099   5.3150   5.7290   5.9582   6.2703   6.4428   6.5799   6.8840
     7.0354   7.2818   7.5627   7.6500   7.8251   7.8791   7.9506   8.1296
     8.2181   8.2288   8.2643   8.5196   8.5566   8.6149   8.6455   8.8520
     9.0601   9.1252   9.2923   9.2963   9.4148   9.4690   9.4958   9.6897
     9.7759   9.8237   9.9690   9.9780  10.0163  10.0460  10.3430  10.4424
    10.4789  10.5173  10.7234  10.7624  10.8290  10.9733  11.0055  11.1128
    11.1409  11.1891  11.2919  11.4829  11.5618  11.6444  11.6954  11.8011
    11.8329  12.1237  12.2915  12.3232  12.3742  12.5425  12.6140  12.7610
    12.8425  12.9339  13.1119  13.1725  13.2034  13.3097  13.3259  13.4362
    13.5030  13.5325  13.5908  13.6943  13.8160  13.9082  14.0380  14.0554
    14.0883  14.3772  14.3978  14.4666  14.5117  14.5146  14.7565  14.8235
    14.8867  14.9188  14.9701  15.0544  15.1558  15.2020  15.3629  15.4192
    15.5786  15.6041  15.6954  15.7205  15.7794  15.8838  16.0109  16.0418
    16.1088  16.1536  16.2196  16.2752  16.4417  16.4698  16.5436  16.5925
    16.6752  16.6808  16.7335  16.8534  17.0605  17.0708  17.1668  17.2655
    17.2702  17.3237  17.3827  17.4206  17.4737  17.5323  17.5804  17.6237
    17.6904  17.7211  17.8274  17.9584  18.0686  18.1066  18.1241  18.2759
    18.3035  18.3053  18.3841  18.4627  18.5659  18.6412  18.6661  18.8120
    18.8242  18.9704  18.9959  19.0802  19.2212  19.2549  19.2960  19.3904
    19.4383  19.4807  19.5839  19.6231  19.6398  19.8340  19.8594  19.9098
    19.9466  20.0375  20.0807  20.1461  20.1847  20.2632  20.2676  20.4288
    20.4383  20.4622  20.5068  20.5070  20.6239  20.7222  20.7982  20.8378
    20.8504  20.9244  20.9250  20.9961  21.0441  21.1363  21.1857  21.2659
    21.3024  21.4117  21.5078  21.5410  21.7135  21.9185  21.9246  21.9828
    22.0281  22.0751  22.0891  22.2010  22.2488  22.2577  22.3458  22.4170
    22.4267  22.4960  22.5125  22.6309

          k = 0.2500 0.1914 0.0000 ( 29229 PWs)   bands (ev):

   -81.1682 -81.1292 -80.9390 -80.8990 -80.6154 -80.5765 -80.5057 -80.4660
   -43.2593 -43.1018 -43.0896 -43.0816 -43.0378 -42.9870 -42.9456 -42.8827
   -42.8025 -42.7285 -42.6958 -42.6850 -42.6447 -42.6407 -42.6227 -42.5028
   -42.5017 -42.4910 -42.4461 -42.4406 -42.4397 -42.3900 -42.0628 -42.0166
   -20.8390 -20.4015 -20.3489 -20.2125 -20.0487 -19.9343 -19.8130 -19.7977
   -19.7458 -19.5826 -19.4771 -19.3964 -19.3478 -19.1388 -19.1055 -18.9444
   -18.3223 -18.1264  -9.0269  -8.8043  -8.8033  -8.6876  -8.5860  -8.3631
    -8.3227  -8.1871  -8.0258  -7.8733  -7.8683  -7.8480  -7.5968  -7.3845
    -7.3457  -7.0759  -6.8339  -6.7009  -6.5779  -6.5765  -6.4890  -6.2188
    -6.0746  -6.0626  -5.7854  -5.7586  -5.5909  -5.5493  -5.5118  -5.3203
    -5.1705  -5.0470  -4.9274  -4.8740  -4.8329  -4.7355  -4.7266  -4.6195
    -4.5762  -4.5202  -4.2106  -4.0683  -4.0590  -3.9065  -3.7814  -3.6349
    -3.5759  -3.4743  -3.3827  -3.2176  -3.1742  -2.9244  -2.7849  -2.6988
    -2.3629  -2.2607  -2.0791  -1.4988  -1.2179  -1.0672  -1.0571  -0.3432
    -0.2071   0.1813   0.2971   0.3034   0.5802   0.6997   0.7293   1.0372
     1.1361   1.2321   1.3871   1.4236   1.5497   1.7347   1.7514   1.8223
     2.3196   2.3525   3.6634   3.7121   3.8786   3.9084   4.1060   4.2529
     4.5147   4.5213   4.7659   4.7741   4.8824   4.9106   5.2284   5.4024
     5.7809   5.8216   5.9958   6.2144   6.2358   6.4474   6.6399   6.7134
     6.8613   6.9723   7.2384   7.3084   7.4233   7.7028   7.7462   8.0232
     8.1307   8.3102   8.3108   8.4650   8.5606   8.5882   8.7504   8.9096
     9.0747   9.3526   9.3915   9.4036   9.5992   9.6627   9.7114   9.7579
     9.8022   9.9155   9.9162  10.1488  10.1982  10.2719  10.3111  10.3192
    10.4135  10.6842  10.7214  10.8041  10.9387  10.9827  11.0340  11.2160
    11.3664  11.4338  11.4767  11.6674  11.7824  11.8852  11.9556  12.1268
    12.3025  12.3843  12.4864  12.5214  12.6074  12.6575  12.7075  12.8119
    12.8468  12.9710  13.0243  13.1885  13.2245  13.3270  13.4803  13.5413
    13.6110  13.6676  13.7724  13.8005  13.9170  13.9362  13.9687  14.0307
    14.1015  14.2331  14.2945  14.3062  14.4305  14.5126  14.5456  14.5711
    14.7024  14.7778  14.7895  14.8429  14.8779  14.9475  14.9621  15.0352
    15.1010  15.2025  15.2855  15.3754  15.4973  15.5296  15.6708  15.7013
    15.8875  15.9500  16.0836  16.1362  16.1798  16.2223  16.2700  16.4216
    16.5399  16.5536  16.6158  16.6897  16.7756  16.8607  16.8696  16.9723
    17.1190  17.1240  17.2169  17.3139  17.3415  17.4583  17.5642  17.6697
    17.6995  17.7003  17.7649  17.8785  17.9785  18.0320  18.0920  18.2023
    18.2108  18.3109  18.3515  18.3766  18.4949  18.5062  18.6397  18.6722
    18.7610  18.8901  18.9243  19.0257  19.0432  19.0602  19.1450  19.3280
    19.4233  19.5078  19.5775  19.6492  19.7652  19.9347  19.9583  20.0150
    20.0242  20.1181  20.2335  20.2480  20.4555  20.4811  20.5244  20.5915
    20.5950  20.7525  20.7609  20.8047  20.8671  20.9277  20.9325  21.0449
    21.1342  21.1567  21.2704  21.3057  21.4040  21.4406  21.4805  21.4953
    21.6262  21.6529  21.7712  21.8179  21.9202  21.9294  22.0921  22.0970
    22.1653  22.2260  22.2455  22.3439  22.3501  22.4150  22.4672  22.5232
    22.5431  22.6130  22.6385  22.7028

          k = 0.2500-0.3828 0.0000 ( 29202 PWs)   bands (ev):

   -81.1682 -81.1294 -80.9388 -80.8990 -80.6151 -80.5765 -80.5056 -80.4662
   -43.2595 -43.1018 -43.0885 -43.0815 -43.0377 -42.9864 -42.9443 -42.8832
   -42.8025 -42.7285 -42.6958 -42.6846 -42.6438 -42.6409 -42.6226 -42.5044
   -42.5018 -42.4929 -42.4458 -42.4406 -42.4397 -42.3900 -42.0628 -42.0165
   -20.8073 -20.4019 -20.2103 -20.1669 -20.0182 -19.9163 -19.8588 -19.7859
   -19.7541 -19.6954 -19.6533 -19.5890 -19.4097 -19.0160 -18.9512 -18.9070
   -18.3208 -18.1275  -8.9831  -8.8444  -8.6321  -8.5844  -8.5337  -8.2992
    -8.2246  -8.2059  -8.0997  -7.8809  -7.8340  -7.7227  -7.6286  -7.5977
    -7.5923  -7.3115  -7.0797  -6.9141  -6.8688  -6.4627  -6.1807  -5.9801
    -5.8143  -5.8056  -5.7255  -5.6312  -5.5926  -5.4821  -5.3854  -5.2732
    -5.2013  -5.0803  -5.0335  -5.0259  -4.9933  -4.9296  -4.8669  -4.7137
    -4.7115  -4.5597  -4.2344  -3.9407  -3.9295  -3.8987  -3.8130  -3.6571
    -3.5960  -3.3973  -3.3848  -3.2069  -3.0160  -2.9575  -2.8052  -2.6113
    -2.3461  -2.1700  -1.8703  -1.6995  -1.6413  -1.4686  -1.0763  -0.2429
    -0.1343   0.1999   0.3846   0.7543   0.8380   0.8586   0.9224   1.0663
     1.1287   1.1818   1.4476   1.5532   1.6432   1.7118   1.8551   2.1451
     2.2169   2.3672   2.8891   3.0478   3.4523   3.6888   3.8582   4.3001
     4.5416   4.6045   4.7950   4.8729   5.1201   5.3051   5.3821   5.5178
     5.8249   5.9406   6.1684   6.2091   6.2741   6.3530   6.5372   6.6980
     6.7474   6.9811   6.9953   7.1023   7.1863   7.5574   7.7349   7.7625
     7.8800   8.3257   8.3301   8.4829   8.6074   8.6464   8.7299   8.9079
     8.9818   9.0339   9.1633   9.1723   9.4825   9.6041   9.6622   9.7744
    10.0574  10.0935  10.2777  10.3367  10.4712  10.5245  10.5943  10.6797
    10.7049  10.7909  10.7944  11.0398  11.2579  11.3237  11.3877  11.6723
    11.6727  11.8176  11.8727  11.9412  12.0134  12.0723  12.1060  12.2095
    12.2316  12.3055  12.3610  12.3972  12.4963  12.6438  12.6945  12.7281
    12.7797  12.9779  13.1545  13.2256  13.3201  13.3605  13.4283  13.5905
    13.6675  13.7491  13.7782  13.8134  13.8823  13.9549  14.0033  14.0464
    14.1077  14.2002  14.2373  14.3386  14.3443  14.4206  14.4437  14.4934
    14.5133  14.6193  14.6216  14.6275  14.7241  14.7423  14.7712  14.8026
    14.8549  15.1914  15.2567  15.3236  15.3410  15.3633  15.4013  15.4875
    15.6035  15.6448  15.6599  15.7572  15.7951  15.9632  16.0011  16.1764
    16.1836  16.2622  16.3329  16.4472  16.5818  16.6363  16.6567  16.8337
    16.8443  16.8735  16.9985  17.0114  17.2543  17.4251  17.4691  17.4817
    17.5064  17.6198  17.6429  17.6924  17.7499  17.7911  17.9134  18.1439
    18.1508  18.2179  18.2771  18.3051  18.4277  18.5201  18.7250  18.7644
    18.8808  19.0387  19.1053  19.2060  19.3487  19.4334  19.5365  19.5920
    19.6571  19.7393  19.7759  19.8081  19.8708  19.8940  20.0029  20.1020
    20.1287  20.1639  20.1760  20.2201  20.2759  20.3543  20.3832  20.5027
    20.5751  20.7333  20.8550  20.9531  20.9998  21.0006  21.1518  21.1826
    21.2278  21.2725  21.2739  21.3434  21.3993  21.5009  21.5343  21.6309
    21.6462  21.7325  21.7535  21.8334  21.8614  21.8631  21.9250  22.0147
    22.1011  22.1258  22.2100  22.3245  22.3916  22.4485  22.4617  22.5086
    22.5922  22.6120  22.6309  22.6758

          k =-0.5000 0.0000 0.0000 ( 29180 PWs)   bands (ev):

   -81.1430 -81.1429 -80.9144 -80.9143 -80.5911 -80.5907 -80.4816 -80.4809
   -43.0722 -43.0721 -43.0436 -43.0435 -42.9615 -42.9614 -42.9162 -42.9161
   -42.7862 -42.7860 -42.7414 -42.7412 -42.6783 -42.6779 -42.4745 -42.4734
   -42.4727 -42.4724 -42.4407 -42.4398 -42.3867 -42.3864 -42.3433 -42.3428
   -20.5280 -20.5279 -20.1954 -20.1947 -19.9290 -19.9288 -19.8788 -19.8785
   -19.6068 -19.6067 -19.3809 -19.3808 -19.3165 -19.3164 -19.1725 -19.1724
   -18.3086 -18.3086  -8.5207  -8.5207  -8.3365  -8.3364  -8.2446  -8.2445
    -8.0639  -8.0638  -7.9609  -7.9599  -7.5314  -7.5311  -7.3520  -7.3519
    -7.0695  -7.0694  -6.9239  -6.9238  -6.6564  -6.6562  -6.1896  -6.1896
    -6.0650  -6.0649  -5.9722  -5.9722  -5.7203  -5.7202  -5.3425  -5.3425
    -5.3275  -5.3274  -5.1398  -5.1395  -5.0655  -5.0652  -4.7590  -4.7588
    -4.7187  -4.7187  -4.5442  -4.5440  -4.0478  -4.0478  -3.5564  -3.5564
    -3.4882  -3.4880  -3.1603  -3.1603  -2.9750  -2.9749  -2.8827  -2.8826
    -1.2655  -1.2655  -1.0374  -1.0369  -0.8974  -0.8974  -0.8490  -0.8488
    -0.6873  -0.6872  -0.3923  -0.3922  -0.1350  -0.1350   0.2409   0.2410
     0.4825   0.4826   0.7499   0.7501   1.4457   1.4458   1.8622   1.8628
     2.0442   2.0443   3.9839   3.9840   4.2575   4.2576   4.5314   4.5314
     4.7668   4.7676   4.8796   4.8797   4.9243   4.9245   5.2579   5.2582
     5.7337   5.7338   6.0454   6.0460   6.2705   6.2709   6.6436   6.6441
     6.8434   6.8436   7.3432   7.3436   7.7168   7.7171   7.8524   7.8529
     8.5045   8.5053   8.6448   8.6453   8.6781   8.6783   8.9424   8.9429
     9.0993   9.1001   9.1967   9.1974   9.4036   9.4043   9.5442   9.5451
     9.7099   9.7101   9.7592   9.7593   9.8984   9.8989  10.2834  10.2841
    10.3749  10.3751  10.4557  10.4560  10.5797  10.5798  10.6968  10.6971
    10.8923  10.8928  11.4392  11.4394  11.4966  11.4969  11.8945  11.8948
    12.0358  12.0363  12.1336  12.1341  12.3304  12.3314  12.7508  12.7511
    13.1707  13.1710  13.3610  13.3613  13.4254  13.4261  13.6711  13.6716
    13.7995  13.7997  13.9391  13.9392  14.3632  14.3633  14.4503  14.4503
    14.5734  14.5737  14.8372  14.8377  14.9351  14.9351  15.1232  15.1234
    15.3121  15.3125  15.5236  15.5238  15.5484  15.5488  15.6859  15.6862
    15.8914  15.8916  16.1260  16.1262  16.3735  16.3736  16.4258  16.4260
    16.4938  16.4940  16.6615  16.6620  16.7779  16.7781  16.9698  16.9702
    17.0686  17.0690  17.1559  17.1562  17.3778  17.3782  17.5121  17.5125
    17.7789  17.7791  17.8098  17.8103  17.8498  17.8499  18.0557  18.0564
    18.2145  18.2150  18.2317  18.2318  18.3502  18.3509  18.5531  18.5539
    18.6047  18.6057  18.7403  18.7405  18.8625  18.8633  18.9794  18.9795
    19.1101  19.1105  19.2350  19.2353  19.3711  19.3714  19.3953  19.3956
    19.4312  19.4314  19.5825  19.5831  19.6049  19.6055  19.6769  19.6775
    19.7540  19.7545  19.8432  19.8436  19.9337  19.9341  20.0146  20.0149
    20.1436  20.1439  20.2624  20.2630  20.3174  20.3179  20.4236  20.4239
    20.6816  20.6822  20.8281  20.8287  20.9392  20.9396  20.9540  20.9545
    21.0421  21.0426  21.0796  21.0799  21.2194  21.2196  21.2930  21.2932
    21.4489  21.4492  21.5812  21.5815  21.7360  21.7362  21.8148  21.8152
    22.0441  22.0444  22.2984  22.2986

          k =-0.5000 0.1914 0.0000 ( 29244 PWs)   bands (ev):

   -81.1431 -81.1430 -80.9143 -80.9142 -80.5910 -80.5906 -80.4817 -80.4809
   -43.0723 -43.0721 -43.0427 -43.0425 -42.9617 -42.9614 -42.9156 -42.9155
   -42.7862 -42.7860 -42.7414 -42.7412 -42.6783 -42.6779 -42.4746 -42.4738
   -42.4734 -42.4731 -42.4416 -42.4407 -42.3866 -42.3863 -42.3431 -42.3426
   -20.5212 -20.5211 -20.1641 -20.1633 -19.9062 -19.9052 -19.8767 -19.8759
   -19.6613 -19.6585 -19.3765 -19.3742 -19.3418 -19.3416 -19.1704 -19.1701
   -18.3088 -18.3088  -8.5182  -8.5176  -8.3202  -8.3148  -8.2591  -8.2553
    -8.0885  -8.0846  -7.9616  -7.9607  -7.3955  -7.3812  -7.1639  -7.1528
    -7.0790  -7.0405  -6.9105  -6.8500  -6.5866  -6.5719  -6.3824  -6.3511
    -6.2798  -6.2723  -6.0200  -5.9754  -5.7318  -5.7057  -5.5675  -5.5557
    -5.3729  -5.3653  -5.2456  -5.2176  -4.9729  -4.9565  -4.8849  -4.8307
    -4.7370  -4.7337  -4.4293  -4.4131  -4.0695  -4.0676  -3.5747  -3.5256
    -3.4641  -3.4628  -3.1720  -3.1620  -3.0494  -3.0348  -2.7713  -2.7219
    -1.2947  -1.2946  -1.1087  -1.0660  -0.9597  -0.9465  -0.7118  -0.7026
    -0.5777  -0.5700  -0.3485  -0.3476   0.0621   0.0781   0.3155   0.3209
     0.5408   0.5580   0.9258   0.9530   1.3319   1.3469   1.7498   1.7541
     2.0676   2.0695   3.6962   3.7008   3.8602   3.8615   4.1411   4.1428
     4.4248   4.4274   5.1392   5.1422   5.3774   5.3821   5.5911   5.5945
     5.7391   5.7494   6.2161   6.2187   6.3475   6.3482   6.6802   6.6898
     6.9289   6.9323   7.1451   7.1606   7.6396   7.6432   7.7517   7.7552
     7.8682   7.8752   8.0943   8.1031   8.3720   8.3738   8.5881   8.6157
     8.9613   8.9642   9.1202   9.1457   9.3975   9.3983   9.5158   9.5634
     9.7812   9.8476  10.1240  10.1307  10.3665  10.3675  10.6078  10.6122
    10.6964  10.7000  10.8133  10.8255  10.8534  10.9066  11.0777  11.1059
    11.2583  11.2714  11.5575  11.5637  11.7793  11.7917  12.0120  12.0516
    12.2055  12.2350  12.2822  12.2830  12.7312  12.7537  12.7847  12.8411
    13.0693  13.1036  13.3427  13.3951  13.5324  13.5453  13.7018  13.7212
    13.8576  13.8876  14.0548  14.0552  14.3196  14.3296  14.4385  14.4548
    14.5753  14.5804  14.7228  14.7486  14.8573  14.8789  14.8850  14.8900
    15.0810  15.1225  15.3727  15.3856  15.4423  15.4492  15.5893  15.5964
    15.7180  15.7214  15.8354  15.8389  16.0032  16.0224  16.1481  16.2283
    16.2713  16.2762  16.4211  16.4290  16.5289  16.5415  16.6045  16.6317
    16.7305  16.7315  16.8414  16.8552  17.0232  17.0237  17.1435  17.1553
    17.2213  17.2256  17.2829  17.2878  17.4878  17.5064  17.5931  17.6458
    17.8203  17.8402  17.9027  17.9105  18.0028  18.0230  18.2490  18.2621
    18.2642  18.2748  18.3824  18.3993  18.4852  18.5051  18.6285  18.6291
    18.8355  18.8393  18.9603  18.9801  19.1653  19.1902  19.2871  19.2991
    19.4007  19.4107  19.5836  19.5848  19.6539  19.6553  19.8206  19.8416
    19.9626  19.9741  20.1790  20.2056  20.2730  20.2962  20.3914  20.4005
    20.5995  20.6117  20.7337  20.7428  20.8024  20.8041  20.9087  20.9147
    21.0167  21.0194  21.2043  21.2290  21.3035  21.3068  21.3892  21.3966
    21.5885  21.5924  21.6567  21.6607  21.7702  21.7712  21.8392  21.8443
    21.9170  21.9256  21.9519  21.9565  22.0898  22.0899  22.2930  22.3043
    22.3773  22.3980  22.4275  22.4442

          k =-0.5000-0.3828 0.0000 ( 29192 PWs)   bands (ev):

   -81.1432 -81.1431 -80.9142 -80.9141 -80.5908 -80.5904 -80.4817 -80.4809
   -43.0723 -43.0722 -43.0417 -43.0416 -42.9617 -42.9616 -42.9149 -42.9148
   -42.7861 -42.7860 -42.7414 -42.7412 -42.6783 -42.6779 -42.4748 -42.4745
   -42.4741 -42.4733 -42.4424 -42.4415 -42.3865 -42.3861 -42.3429 -42.3424
   -20.5148 -20.5147 -20.1233 -20.1223 -19.9262 -19.9262 -19.7945 -19.7943
   -19.7554 -19.7553 -19.3700 -19.3700 -19.3692 -19.3692 -19.1685 -19.1683
   -18.3090 -18.3090  -8.4808  -8.4808  -8.3170  -8.3169  -8.2482  -8.2482
    -8.0799  -8.0799  -7.9465  -7.9456  -7.3268  -7.3265  -7.0730  -7.0728
    -7.0315  -7.0314  -6.8371  -6.8370  -6.6696  -6.6695  -6.4453  -6.4452
    -6.2587  -6.2584  -5.9539  -5.9535  -5.7263  -5.7263  -5.6243  -5.6241
    -5.4864  -5.4863  -5.3893  -5.3892  -5.0295  -5.0294  -4.8940  -4.8939
    -4.7934  -4.7933  -4.2225  -4.2225  -4.0345  -4.0344  -3.6506  -3.6506
    -3.4318  -3.4316  -3.1643  -3.1642  -3.1288  -3.1287  -2.5962  -2.5962
    -1.4225  -1.4225  -1.1925  -1.1923  -1.0872  -1.0869  -0.8018  -0.8015
    -0.4606  -0.4600   0.0833   0.0834   0.3022   0.3024   0.6460   0.6461
     0.7624   0.7626   1.0330   1.0331   1.4337   1.4339   1.4656   1.4657
     2.1083   2.1088   2.9625   2.9626   3.1562   3.1568   4.1883   4.1884
     4.4962   4.4962   5.2869   5.2871   5.4997   5.4998   5.8724   5.8725
     6.1615   6.1617   6.2653   6.2655   6.3991   6.3998   6.7747   6.7754
     6.9031   6.9038   7.1145   7.1150   7.2387   7.2391   7.4766   7.4771
     7.6652   7.6658   7.9398   7.9403   8.1662   8.1668   8.5251   8.5255
     8.7008   8.7011   8.8696   8.8699   9.2679   9.2684   9.5804   9.5809
     9.9166   9.9168  10.0598  10.0601  10.5039  10.5042  10.7575  10.7577
    10.9907  10.9909  11.0602  11.0605  11.2817  11.2820  11.5750  11.5754
    11.6880  11.6886  12.1242  12.1246  12.3622  12.3626  12.4904  12.4910
    12.7816  12.7822  12.9382  12.9387  12.9912  12.9921  13.0825  13.0830
    13.2274  13.2279  13.3655  13.3658  13.4306  13.4313  13.4804  13.4808
    13.7147  13.7149  13.7841  13.7849  13.9767  13.9768  14.1345  14.1349
    14.2235  14.2239  14.3865  14.3869  14.5897  14.5899  14.6331  14.6333
    14.7349  14.7352  15.0192  15.0196  15.1400  15.1408  15.2595  15.2596
    15.3852  15.3856  15.6083  15.6089  15.7973  15.7977  15.8766  15.8770
    16.1653  16.1655  16.2955  16.2957  16.3198  16.3202  16.5081  16.5082
    16.6522  16.6529  16.7296  16.7297  16.9865  16.9868  17.1858  17.1862
    17.2257  17.2261  17.3334  17.3339  17.5419  17.5426  17.6376  17.6378
    17.7032  17.7036  17.7366  17.7370  17.9446  17.9449  18.0902  18.0903
    18.1395  18.1398  18.2077  18.2080  18.3074  18.3080  18.3957  18.3960
    18.5044  18.5045  18.5858  18.5864  18.8558  18.8563  18.9053  18.9055
    19.0278  19.0280  19.4245  19.4250  19.5614  19.5617  19.6726  19.6729
    19.8680  19.8684  20.0769  20.0770  20.1795  20.1800  20.4825  20.4827
    20.6107  20.6111  20.7580  20.7581  20.7831  20.7836  21.0203  21.0211
    21.2265  21.2266  21.2723  21.2724  21.4520  21.4528  21.7255  21.7256
    21.7759  21.7761  22.0848  22.0850  22.1932  22.1936  22.2567  22.2570
    22.3691  22.3693  22.5120  22.5122  22.5638  22.5643  22.7709  22.7710
    22.8573  22.8574  22.9423  22.9424

          k =-0.2500 0.1914 0.0000 ( 29229 PWs)   bands (ev):

   -81.1682 -81.1292 -80.9390 -80.8990 -80.6154 -80.5765 -80.5057 -80.4660
   -43.2594 -43.1018 -43.0896 -43.0816 -43.0378 -42.9869 -42.9456 -42.8827
   -42.8025 -42.7285 -42.6958 -42.6850 -42.6446 -42.6408 -42.6227 -42.5027
   -42.5017 -42.4910 -42.4461 -42.4407 -42.4397 -42.3900 -42.0628 -42.0166
   -20.8390 -20.4014 -20.3490 -20.2122 -20.0486 -19.9338 -19.8123 -19.7982
   -19.7458 -19.5837 -19.4771 -19.3973 -19.3479 -19.1387 -19.1051 -18.9436
   -18.3223 -18.1264  -9.0246  -8.8089  -8.8052  -8.6865  -8.5802  -8.3648
    -8.3248  -8.1904  -8.0281  -7.8766  -7.8687  -7.8416  -7.5954  -7.3896
    -7.3492  -7.0730  -6.8206  -6.7075  -6.5739  -6.5734  -6.4801  -6.2072
    -6.0680  -6.0537  -5.8311  -5.7639  -5.5938  -5.5469  -5.5397  -5.2754
    -5.1605  -5.0561  -4.9289  -4.8946  -4.8300  -4.7423  -4.7123  -4.6155
    -4.5662  -4.5183  -4.2529  -4.0567  -4.0157  -3.9009  -3.7801  -3.6549
    -3.6514  -3.4286  -3.3629  -3.2313  -3.1631  -2.9065  -2.8179  -2.6811
    -2.3711  -2.2606  -2.0796  -1.4986  -1.2305  -1.0722  -1.0005  -0.3647
    -0.2158   0.1736   0.2834   0.2968   0.5826   0.7068   0.7277   1.0495
     1.1537   1.2361   1.3772   1.4238   1.5495   1.7283   1.7541   1.8210
     2.3197   2.3506   3.6647   3.7099   3.8795   3.9151   4.1051   4.2465
     4.5128   4.5255   4.7663   4.7733   4.8746   4.9180   5.2287   5.4022
     5.7827   5.8272   6.0022   6.2130   6.2298   6.4540   6.6296   6.7136
     6.8580   6.9754   7.2301   7.3061   7.4246   7.6919   7.7578   8.0142
     8.1305   8.3048   8.3204   8.4577   8.5829   8.6174   8.7299   8.8849
     9.0822   9.3437   9.3873   9.4037   9.5957   9.6657   9.7256   9.7484
     9.8109   9.9099   9.9509  10.1304  10.1603  10.2734  10.3126  10.3906
    10.4041  10.6372  10.7317  10.7986  10.9287  11.0259  11.0395  11.2050
    11.3851  11.4368  11.4447  11.6807  11.7846  11.8798  11.9587  12.1031
    12.3143  12.3815  12.4927  12.5088  12.6237  12.6621  12.6817  12.8167
    12.8445  12.9750  13.0140  13.1900  13.2242  13.3293  13.4790  13.5403
    13.6182  13.6635  13.7808  13.8083  13.8966  13.9064  13.9675  14.0421
    14.1075  14.2322  14.2630  14.3220  14.4338  14.5154  14.5469  14.5706
    14.6948  14.7762  14.7979  14.8542  14.8795  14.9281  14.9975  15.0258
    15.1003  15.2185  15.2871  15.3902  15.4961  15.5630  15.6431  15.7253
    15.8718  15.9490  16.0821  16.1073  16.1845  16.2254  16.2640  16.4164
    16.5273  16.5671  16.6207  16.6841  16.7742  16.8529  16.8641  16.9976
    17.1256  17.1302  17.1961  17.3086  17.3567  17.4729  17.5520  17.6601
    17.6975  17.7179  17.7525  17.8867  17.9694  18.0417  18.0762  18.2052
    18.2170  18.3094  18.3096  18.3832  18.5170  18.5173  18.6521  18.6601
    18.7689  18.8781  18.8870  18.9842  19.0630  19.0676  19.1543  19.3173
    19.4363  19.5069  19.5735  19.6605  19.7661  19.9007  19.9689  19.9907
    20.0488  20.1121  20.2263  20.2300  20.4419  20.4697  20.5555  20.5859
    20.6298  20.7353  20.7688  20.8029  20.8505  20.8976  20.9652  21.0581
    21.1406  21.1779  21.2706  21.3125  21.3915  21.4597  21.5038  21.5086
    21.6309  21.6464  21.7608  21.8226  21.9168  21.9362  22.0892  22.1142
    22.1643  22.2527  22.2652  22.3522  22.3626  22.4047  22.4526  22.5303
    22.5429  22.6249  22.6368  22.7085

     the Fermi energy is     0.3568 ev

!    total energy              =   -2140.80529860 Ry
     Harris-Foulkes estimate   =   -2140.80529921 Ry
     estimated scf accuracy    <       0.00000067 Ry

     The total energy is the sum of the following terms:

     one-electron contribution =  -23476.86174155 Ry
     hartree contribution      =   11754.05784393 Ry
     xc contribution           =    -587.16070260 Ry
     ewald contribution        =   10166.94488344 Ry
     Hubbard energy            =       2.21533124 Ry
     smearing contrib. (-TS)   =      -0.00091305 Ry

     convergence has been achieved in  28 iterations

     Forces acting on atoms (Ry/au):


     negative rho (up, down):  0.237E+00 0.000E+00
     atom    1 type  1   force =    -0.00478182   -0.00690268    0.00927991
     atom    2 type  1   force =     0.00000618    0.00958802    0.00082572
     atom    3 type  2   force =    -0.00009358   -0.00515287    0.00465759
     atom    4 type  2   force =     0.00163523    0.00777396   -0.00010092
     atom    5 type  1   force =     0.00173928    0.00980793    0.00126736
     atom    6 type  1   force =     0.00027544   -0.01094535    0.00047000
     atom    7 type  1   force =    -0.00019939    0.00015410   -0.00114740
     atom    8 type  1   force =     0.00271912   -0.00129290   -0.00874915
     atom    9 type  2   force =    -0.00164045    0.00040413    0.00314745
     atom   10 type  2   force =     0.00006544   -0.00118377   -0.00504686
     atom   11 type  1   force =     0.00017736   -0.00488394   -0.00117077
     atom   12 type  1   force =    -0.00026063    0.00488896   -0.00074163
     atom   13 type  1   force =    -0.00041257    0.00043262   -0.00282192
     atom   14 type  1   force =    -0.00468480   -0.00689201    0.00924706
     atom   15 type  1   force =     0.00006651    0.00957457    0.00082865
     atom   16 type  2   force =    -0.00013374   -0.00515487    0.00467656
     atom   17 type  2   force =     0.00162215    0.00777491   -0.00012807
     atom   18 type  1   force =     0.00175357    0.00976213    0.00120084
     atom   19 type  1   force =     0.00028640   -0.01090710    0.00046582
     atom   20 type  1   force =    -0.00015304    0.00015544   -0.00101014
     atom   21 type  1   force =     0.00269370   -0.00129422   -0.00874331
     atom   22 type  2   force =    -0.00156686    0.00039983    0.00312449
     atom   23 type  2   force =     0.00006040   -0.00118443   -0.00528625
     atom   24 type  1   force =     0.00016050   -0.00490422   -0.00117127
     atom   25 type  1   force =    -0.00028101    0.00491015   -0.00074363
     atom   26 type  1   force =    -0.00044569    0.00043393   -0.00282062
     atom   27 type  3   force =     0.00000442   -0.00301398    0.00012666
     atom   28 type  3   force =     0.00000308   -0.00301234    0.00012889
     atom   29 type  3   force =     0.00072609    0.00033700    0.00010184
     atom   30 type  3   force =     0.00065870    0.00032699    0.00013310

     Total force =     0.022083     Total SCF correction =     0.004517
     SCF correction compared to forces is large: reduce conv_thr to get better values

     BFGS Geometry Optimization

     number of scf cycles    =   1
     number of bfgs steps    =   0

     energy   new            =   -2140.8052986027 Ry

     new trust radius        =       0.0092799052 bohr
     new conv_thr            =       0.0000010000 Ry


ATOMIC_POSITIONS (crystal)
O0       0.000000000   0.000000000   0.371171876    0   0   1
O0       0.000000000   0.500000000   0.382026183    0   0   1
Re1      0.250000000   0.500000000   0.441371284    0   0   1
Re1      0.000000000   0.000000000   0.443728022    0   0   1
O0       0.250000000   0.780000000   0.441704839    0   0   1
O0       0.250000000   0.220000000   0.441719211    0   0   1
O0       0.000000000   0.500000000   0.497677512    0   0   1
O0       0.000000000   0.000000000   0.515298526    0   0   1
Re1      0.250000000   0.000000000   0.575551687    0   0   1
Re1      0.000000000   0.500000000   0.567831087    0   0   1
O0       0.250000000   0.720000000   0.573847054    0   0   1
O0       0.250000000   0.280000000   0.573835465    0   0   1
O0       0.000000000   0.000000000   0.627654694    0   0   1
O0       0.500000000   0.000000000   0.371171232    0   0   1
O0       0.500000000   0.500000000   0.382026241    0   0   1
Re1      0.750000000   0.500000000   0.441371655    0   0   1
Re1      0.500000000   0.000000000   0.443727490    0   0   1
O0       0.750000000   0.780000000   0.441713535    0   0   1
O0       0.750000000   0.220000000   0.441719130    0   0   1
O0       0.500000000   0.500000000   0.497680202    0   0   1
O0       0.500000000   0.000000000   0.515298641    0   0   1
Re1      0.750000000   0.000000000   0.575551237    0   0   1
Re1      0.500000000   0.500000000   0.567836395    0   0   1
O0       0.750000000   0.720000000   0.573847044    0   0   1
O0       0.750000000   0.280000000   0.573835426    0   0   1
O0       0.500000000   0.000000000   0.627654719    0   0   1
H2      -0.000379564   0.625512164   0.365332482
H2       0.499620304   0.625512289   0.365332526
H2       0.169941685   0.021845475   0.356821996
H2       0.669945031   0.021844718   0.356822609


     Check: negative starting charge=   -0.237311
     NEW-OLD atomic charge density approx. for the potential

     Check: negative/imaginary core charge=   -0.000003    0.000000
     Check: negative starting charge=   -0.237443

     negative rho (up, down):  0.238E+00 0.000E+00
 Atomic wfc used for LDA+U Projector are NOT orthogonalized

     total cpu time spent up to now is     8640.2 secs

     per-process dynamical memory:   444.8 Mb

     Self-consistent Calculation

     iteration #  1     ecut=    40.00 Ry     beta=0.70
     Davidson diagonalization with overlap
     ethr =  1.00E-06,  avg # of iterations =  3.0
 --- enter write_ns ---
 LDA+U parameters:
U( 2)     =  3.50000000
alpha( 2) =  0.00000000
atom    3   Tr[ns(na)] =   6.61158
    eigenvalues: 
  0.531  0.567  0.627  0.762  0.819
    eigenvectors:
  0.000  0.358  0.004  0.638  0.000
  0.999  0.000  0.000  0.000  0.001
  0.000  0.001  0.990  0.010  0.000
  0.000  0.641  0.006  0.352  0.000
  0.001  0.000  0.000  0.000  0.999
    occupations:
  0.692  0.000  0.012 -0.093 -0.000
  0.000  0.531 -0.000 -0.000 -0.008
  0.012 -0.000  0.628 -0.007  0.001
 -0.093 -0.000 -0.007  0.636  0.000
 -0.000 -0.008  0.001  0.000  0.818
atom    4   Tr[ns(na)] =   6.55682
    eigenvalues: 
  0.569  0.605  0.609  0.713  0.783
    eigenvectors:
  0.000  0.983  0.003  0.001  0.012
  0.000  0.001  0.006  0.994  0.000
  0.000  0.004  0.991  0.005  0.000
  0.000  0.012  0.000  0.000  0.988
  1.000  0.000  0.000  0.000  0.000
    occupations:
  0.607  0.003  0.000 -0.019  0.001
  0.003  0.712  0.008 -0.000 -0.002
  0.000  0.008  0.609  0.001 -0.000
 -0.019 -0.000  0.001  0.781 -0.000
  0.001 -0.002 -0.000 -0.000  0.569
atom    9   Tr[ns(na)] =   6.55728
    eigenvalues: 
  0.591  0.604  0.606  0.725  0.752
    eigenvectors:
  0.249  0.000  0.000  0.006  0.745
  0.000  0.981  0.018  0.000  0.000
  0.000  0.018  0.981  0.000  0.000
  0.750  0.000  0.000  0.002  0.248
  0.000  0.000  0.000  0.993  0.007
    occupations:
  0.712  0.000 -0.001 -0.070  0.002
  0.000  0.604  0.000  0.000  0.000
 -0.001  0.000  0.606  0.001 -0.000
 -0.070  0.000  0.001  0.631 -0.001
  0.002  0.000 -0.000 -0.001  0.725
atom   10   Tr[ns(na)] =   6.54853
    eigenvalues: 
  0.472  0.533  0.691  0.763  0.815
    eigenvectors:
  0.997  0.000  0.000  0.003  0.000
  0.000  0.000  0.000  0.000  1.000
  0.000  0.000  1.000  0.000  0.000
  0.003  0.000  0.000  0.997  0.000
  0.000  1.000  0.000  0.000  0.000
    occupations:
  0.473  0.000 -0.000 -0.016  0.000
  0.000  0.815  0.001 -0.000  0.001
 -0.000  0.001  0.691  0.000  0.000
 -0.016 -0.000  0.000  0.762 -0.000
  0.000  0.001  0.000 -0.000  0.533
atom   16   Tr[ns(na)] =   6.61418
    eigenvalues: 
  0.531  0.567  0.627  0.762  0.819
    eigenvectors:
  0.000  0.358  0.004  0.638  0.000
  0.999  0.000  0.000  0.000  0.001
  0.000  0.001  0.990  0.010  0.000
  0.000  0.642  0.006  0.352  0.000
  0.001  0.000  0.000  0.000  0.999
    occupations:
  0.692  0.000  0.012 -0.093 -0.000
  0.000  0.531 -0.000 -0.000 -0.008
  0.012 -0.000  0.628 -0.007  0.001
 -0.093 -0.000 -0.007  0.636  0.000
 -0.000 -0.008  0.001  0.000  0.819
atom   17   Tr[ns(na)] =   6.55649
    eigenvalues: 
  0.569  0.605  0.609  0.713  0.783
    eigenvectors:
  0.000  0.983  0.004  0.001  0.012
  0.000  0.001  0.006  0.994  0.000
  0.000  0.004  0.991  0.005  0.000
  0.000  0.012  0.000  0.000  0.988
  1.000  0.000  0.000  0.000  0.000
    occupations:
  0.607  0.003  0.000 -0.019  0.001
  0.003  0.712  0.008 -0.000 -0.002
  0.000  0.008  0.609  0.001 -0.000
 -0.019 -0.000  0.001  0.781 -0.000
  0.001 -0.002 -0.000 -0.000  0.569
atom   22   Tr[ns(na)] =   6.55613
    eigenvalues: 
  0.591  0.604  0.606  0.725  0.752
    eigenvectors:
  0.249  0.000  0.000  0.006  0.745
  0.000  0.979  0.021  0.000  0.000
  0.000  0.021  0.979  0.000  0.000
  0.750  0.000  0.000  0.002  0.248
  0.000  0.000  0.000  0.993  0.007
    occupations:
  0.712  0.000 -0.001 -0.070  0.002
  0.000  0.604  0.000  0.000  0.000
 -0.001  0.000  0.606  0.001  0.000
 -0.070  0.000  0.001  0.631 -0.001
  0.002  0.000  0.000 -0.001  0.725
atom   23   Tr[ns(na)] =   6.54915
    eigenvalues: 
  0.472  0.533  0.691  0.763  0.815
    eigenvectors:
  0.997  0.000  0.000  0.003  0.000
  0.000  0.000  0.000  0.000  1.000
  0.000  0.000  1.000  0.000  0.000
  0.003  0.000  0.000  0.997  0.000
  0.000  1.000  0.000  0.000  0.000
    occupations:
  0.473  0.000 -0.000 -0.016  0.000
  0.000  0.815  0.001 -0.000  0.001
 -0.000  0.001  0.691  0.000  0.000
 -0.016 -0.000  0.000  0.762 -0.000
  0.000  0.001  0.000 -0.000  0.533
N of occupied +U levels =  52.5501694
 --- exit write_ns ---

     negative rho (up, down):  0.237E+00 0.000E+00

     total cpu time spent up to now is     8963.1 secs

     total energy              =   -2140.80443184 Ry
     Harris-Foulkes estimate   =   -2140.80569064 Ry
     estimated scf accuracy    <       0.00149192 Ry

     iteration #  2     ecut=    40.00 Ry     beta=0.70
     Davidson diagonalization with overlap
     ethr =  6.43E-07,  avg # of iterations =  4.6

     negative rho (up, down):  0.238E+00 0.000E+00

     total cpu time spent up to now is     9265.7 secs

     total energy              =   -2140.78520025 Ry
     Harris-Foulkes estimate   =   -2140.83175241 Ry
     estimated scf accuracy    <       1.00650005 Ry

     iteration #  3     ecut=    40.00 Ry     beta=0.70
     Davidson diagonalization with overlap
     ethr =  6.43E-07,  avg # of iterations =  5.2

     negative rho (up, down):  0.238E+00 0.000E+00

     total cpu time spent up to now is     9559.5 secs

     total energy              =   -2140.80523932 Ry
     Harris-Foulkes estimate   =   -2140.80597602 Ry
     estimated scf accuracy    <       0.00429559 Ry

     iteration #  4     ecut=    40.00 Ry     beta=0.70
     Davidson diagonalization with overlap
     ethr =  6.43E-07,  avg # of iterations =  1.0

     negative rho (up, down):  0.238E+00 0.000E+00

     total cpu time spent up to now is     9817.0 secs

     total energy              =   -2140.80557079 Ry
     Harris-Foulkes estimate   =   -2140.80567838 Ry
     estimated scf accuracy    <       0.00072564 Ry

     iteration #  5     ecut=    40.00 Ry     beta=0.70
     Davidson diagonalization with overlap
     ethr =  3.13E-07,  avg # of iterations =  1.0

     negative rho (up, down):  0.238E+00 0.000E+00

     total cpu time spent up to now is    10078.8 secs

     total energy              =   -2140.80558117 Ry
     Harris-Foulkes estimate   =   -2140.80567370 Ry
     estimated scf accuracy    <       0.00077774 Ry

     iteration #  6     ecut=    40.00 Ry     beta=0.70
     Davidson diagonalization with overlap
     ethr =  3.13E-07,  avg # of iterations =  1.0

     negative rho (up, down):  0.238E+00 0.000E+00

     total cpu time spent up to now is    10342.4 secs

     total energy              =   -2140.80562238 Ry
     Harris-Foulkes estimate   =   -2140.80564732 Ry
     estimated scf accuracy    <       0.00019652 Ry

     iteration #  7     ecut=    40.00 Ry     beta=0.70
     Davidson diagonalization with overlap
     ethr =  8.47E-08,  avg # of iterations =  1.0

     negative rho (up, down):  0.238E+00 0.000E+00

     total cpu time spent up to now is    10600.1 secs

     total energy              =   -2140.80563246 Ry
     Harris-Foulkes estimate   =   -2140.80563839 Ry
     estimated scf accuracy    <       0.00002666 Ry

     iteration #  8     ecut=    40.00 Ry     beta=0.70
     Davidson diagonalization with overlap
     ethr =  1.15E-08,  avg # of iterations =  1.0

     negative rho (up, down):  0.238E+00 0.000E+00

     total cpu time spent up to now is    10875.3 secs

     total energy              =   -2140.80563505 Ry
     Harris-Foulkes estimate   =   -2140.80563601 Ry
     estimated scf accuracy    <       0.00000397 Ry

     iteration #  9     ecut=    40.00 Ry     beta=0.70
[...]
    -3.4689  -3.4689  -3.1550  -3.1550  -2.9768  -2.9767  -2.8820  -2.8820
    -1.2420  -1.2419  -1.0010  -1.0010  -0.8704  -0.8704  -0.8199  -0.8199
    -0.6639  -0.6639  -0.3566  -0.3566  -0.1029  -0.1029   0.2788   0.2789
     0.5294   0.5294   0.7946   0.7947   1.4889   1.4889   1.9122   1.9122
     2.0900   2.0900   4.0292   4.0292   4.3163   4.3163   4.5552   4.5552
     4.8001   4.8001   4.9174   4.9174   4.9600   4.9600   5.2737   5.2740
     5.7841   5.7842   6.0393   6.0399   6.2867   6.2872   6.6680   6.6684
     6.8509   6.8512   7.3431   7.3434   7.7507   7.7509   7.8472   7.8476
     8.4763   8.4769   8.6567   8.6570   8.6948   8.6948   8.9475   8.9480
     9.0927   9.0934   9.1860   9.1867   9.4112   9.4117   9.5408   9.5416
     9.7143   9.7148   9.7786   9.7787   9.9148   9.9153  10.2943  10.2948
    10.3936  10.3938  10.4701  10.4701  10.6165  10.6167  10.7142  10.7145
    10.8937  10.8941  11.4442  11.4445  11.5074  11.5077  11.9010  11.9012
    12.0364  12.0370  12.1359  12.1361  12.3407  12.3414  12.7472  12.7474
    13.1678  13.1680  13.3585  13.3590  13.4329  13.4333  13.6789  13.6792
    13.8105  13.8107  13.9481  13.9483  14.3822  14.3824  14.4719  14.4720
    14.5972  14.5974  14.8491  14.8495  14.9560  14.9561  15.1282  15.1283
    15.3141  15.3143  15.5315  15.5317  15.5537  15.5543  15.7110  15.7112
    15.8985  15.8986  16.1567  16.1568  16.3798  16.3799  16.4264  16.4266
    16.5175  16.5176  16.6598  16.6601  16.7998  16.8000  16.9743  16.9747
    17.0797  17.0801  17.1649  17.1651  17.3742  17.3744  17.5030  17.5034
    17.7765  17.7769  17.8227  17.8232  17.8619  17.8619  18.0523  18.0527
    18.2012  18.2018  18.2214  18.2216  18.3420  18.3425  18.5513  18.5521
    18.6008  18.6016  18.7450  18.7453  18.8566  18.8572  18.9684  18.9686
    19.0952  19.0956  19.2276  19.2278  19.3734  19.3737  19.3968  19.3973
    19.4225  19.4228  19.5749  19.5753  19.6031  19.6035  19.6755  19.6759
    19.7519  19.7525  19.8408  19.8412  19.9329  19.9335  20.0119  20.0122
    20.1398  20.1402  20.2592  20.2599  20.3158  20.3164  20.4294  20.4296
    20.6782  20.6789  20.8350  20.8355  20.9400  20.9403  20.9593  20.9598
    21.0377  21.0387  21.0793  21.0796  21.2214  21.2216  21.3035  21.3039
    21.4479  21.4482  21.5783  21.5786  21.7367  21.7369  21.8083  21.8087
    22.0484  22.0487  22.2972  22.2975

          k =-0.5000 0.1914 0.0000 ( 29244 PWs)   bands (ev):

   -81.1261 -81.1260 -80.8705 -80.8705 -80.5479 -80.5479 -80.4474 -80.4473
   -43.0741 -43.0741 -43.0256 -43.0254 -42.9429 -42.9426 -42.8715 -42.8715
   -42.7458 -42.7458 -42.7011 -42.7010 -42.6410 -42.6410 -42.4473 -42.4473
   -42.4316 -42.4316 -42.4107 -42.4106 -42.3519 -42.3519 -42.3067 -42.3066
   -20.5139 -20.5138 -20.1871 -20.1870 -19.9244 -19.9238 -19.8459 -19.8455
   -19.6658 -19.6630 -19.3527 -19.3502 -19.3119 -19.3118 -19.1801 -19.1800
   -18.2955 -18.2954  -8.5283  -8.5278  -8.3070  -8.3018  -8.2333  -8.2286
    -8.1251  -8.1202  -7.9946  -7.9945  -7.4003  -7.3855  -7.1459  -7.1320
    -7.0929  -7.0567  -6.9182  -6.8617  -6.5895  -6.5746  -6.3638  -6.3329
    -6.2570  -6.2492  -6.0310  -5.9818  -5.7159  -5.6885  -5.5477  -5.5355
    -5.3724  -5.3608  -5.2380  -5.2131  -4.9546  -4.9395  -4.8592  -4.8148
    -4.7126  -4.7074  -4.4165  -4.3992  -4.0565  -4.0543  -3.5620  -3.5092
    -3.4472  -3.4468  -3.1671  -3.1562  -3.0400  -3.0232  -2.7789  -2.7311
    -1.2696  -1.2696  -1.0785  -1.0355  -0.9252  -0.9144  -0.6877  -0.6782
    -0.5505  -0.5439  -0.3185  -0.3174   0.0973   0.1139   0.3505   0.3554
     0.5869   0.6043   0.9756   1.0040   1.3729   1.3886   1.7981   1.8025
     2.1135   2.1154   3.7236   3.7280   3.8932   3.8944   4.1856   4.1875
     4.4909   4.4931   5.1796   5.1824   5.3944   5.3991   5.6257   5.6292
     5.7822   5.7926   6.2081   6.2106   6.3677   6.3686   6.6903   6.7009
     6.9240   6.9261   7.1428   7.1580   7.6408   7.6432   7.7691   7.7763
     7.8683   7.8772   8.1034   8.1124   8.3775   8.3781   8.5994   8.6294
     8.9747   8.9761   9.1291   9.1530   9.4062   9.4103   9.5309   9.5727
     9.7808   9.8441  10.1500  10.1557  10.3735  10.3767  10.6253  10.6357
    10.7156  10.7175  10.8098  10.8188  10.8684  10.9345  11.0916  11.1277
    11.2587  11.2686  11.5680  11.5726  11.7801  11.7940  12.0147  12.0556
    12.2077  12.2328  12.2811  12.2868  12.7349  12.7575  12.7817  12.8309
    13.0741  13.1068  13.3496  13.4013  13.5392  13.5505  13.7066  13.7236
    13.8823  13.9132  14.0681  14.0697  14.3296  14.3398  14.4600  14.4730
    14.6016  14.6061  14.7401  14.7668  14.8560  14.8787  14.8960  14.9014
    15.0839  15.1243  15.3770  15.3901  15.4374  15.4455  15.5982  15.6056
    15.7235  15.7303  15.8402  15.8492  16.0032  16.0268  16.1540  16.2269
    16.2897  16.2917  16.4243  16.4353  16.5358  16.5529  16.6069  16.6425
    16.7278  16.7314  16.8523  16.8626  17.0223  17.0227  17.1397  17.1535
    17.2292  17.2339  17.2880  17.2945  17.4993  17.5206  17.6024  17.6504
    17.8280  17.8506  17.8891  17.9022  17.9980  18.0221  18.2506  18.2572
    18.2637  18.2822  18.3762  18.3957  18.4840  18.5035  18.6246  18.6264
    18.8340  18.8366  18.9613  18.9794  19.1683  19.1951  19.2858  19.3000
    19.3959  19.4057  19.5808  19.5827  19.6614  19.6626  19.8249  19.8471
    19.9569  19.9687  20.1801  20.2058  20.2719  20.2941  20.4001  20.4115
    20.6032  20.6141  20.7376  20.7455  20.7977  20.7985  20.9215  20.9254
    21.0043  21.0079  21.1991  21.2233  21.3044  21.3097  21.3821  21.3948
    21.5984  21.6014  21.6521  21.6574  21.7720  21.7731  21.8388  21.8440
    21.9153  21.9230  21.9485  21.9542  22.0783  22.0793  22.2943  22.3066
    22.3759  22.3958  22.4301  22.4473

          k =-0.5000-0.3828 0.0000 ( 29192 PWs)   bands (ev):

   -81.1261 -81.1261 -80.8704 -80.8704 -80.5478 -80.5478 -80.4474 -80.4473
   -43.0741 -43.0741 -43.0246 -43.0245 -42.9428 -42.9428 -42.8708 -42.8708
   -42.7458 -42.7457 -42.7011 -42.7010 -42.6410 -42.6410 -42.4473 -42.4473
   -42.4324 -42.4324 -42.4115 -42.4115 -42.3517 -42.3517 -42.3064 -42.3064
   -20.5073 -20.5073 -20.1551 -20.1551 -19.9287 -19.9287 -19.7720 -19.7720
   -19.7522 -19.7522 -19.3507 -19.3507 -19.3411 -19.3411 -19.1783 -19.1783
   -18.2957 -18.2957  -8.4967  -8.4966  -8.2931  -8.2931  -8.2361  -8.2361
    -8.1084  -8.1084  -7.9785  -7.9785  -7.3352  -7.3352  -7.0697  -7.0696
    -7.0304  -7.0304  -6.8469  -6.8469  -6.6582  -6.6582  -6.4198  -6.4198
    -6.2619  -6.2618  -5.9575  -5.9575  -5.7197  -5.7197  -5.6086  -5.6086
    -5.4673  -5.4673  -5.3712  -5.3712  -5.0086  -5.0086  -4.8781  -4.8781
    -4.7786  -4.7786  -4.2095  -4.2095  -4.0165  -4.0164  -3.6345  -3.6345
    -3.4183  -3.4183  -3.1574  -3.1574  -3.1165  -3.1165  -2.6062  -2.6062
    -1.3905  -1.3905  -1.1719  -1.1719  -1.0581  -1.0580  -0.7699  -0.7698
    -0.4297  -0.4297   0.1144   0.1144   0.3310   0.3310   0.6838   0.6838
     0.8067   0.8067   1.0827   1.0828   1.4779   1.4779   1.5114   1.5115
     2.1545   2.1545   2.9879   2.9879   3.1880   3.1881   4.2395   4.2396
     4.5625   4.5625   5.3137   5.3138   5.5529   5.5529   5.8994   5.8995
     6.1858   6.1860   6.2934   6.2935   6.3941   6.3946   6.7619   6.7627
     6.8926   6.8933   7.1164   7.1170   7.2395   7.2399   7.4800   7.4805
     7.6620   7.6625   7.9541   7.9546   8.1794   8.1799   8.5372   8.5376
     8.7338   8.7341   8.8846   8.8849   9.2892   9.2895   9.5844   9.5851
     9.9328   9.9330  10.0804  10.0807  10.5089  10.5090  10.7780  10.7783
    11.0032  11.0034  11.0871  11.0872  11.2869  11.2871  11.5746  11.5750
    11.6859  11.6865  12.1234  12.1238  12.3635  12.3638  12.5138  12.5142
    12.7755  12.7759  12.9355  12.9359  12.9844  12.9852  13.0769  13.0775
    13.2246  13.2253  13.3784  13.3786  13.4430  13.4436  13.4869  13.4871
    13.7258  13.7259  13.7885  13.7892  13.9975  13.9977  14.1379  14.1383
    14.2249  14.2253  14.3944  14.3947  14.5961  14.5962  14.6473  14.6474
    14.7534  14.7536  15.0272  15.0275  15.1392  15.1399  15.2702  15.2704
    15.3944  15.3948  15.6130  15.6134  15.8018  15.8021  15.8859  15.8863
    16.1752  16.1755  16.2987  16.2988  16.3215  16.3219  16.5200  16.5200
    16.6558  16.6563  16.7326  16.7328  16.9778  16.9780  17.1950  17.1954
    17.2255  17.2257  17.3302  17.3305  17.5394  17.5401  17.6380  17.6383
    17.7092  17.7097  17.7410  17.7412  17.9606  17.9609  18.0987  18.0989
    18.1426  18.1428  18.2118  18.2122  18.3182  18.3186  18.4024  18.4027
    18.5050  18.5056  18.5848  18.5855  18.8550  18.8554  18.9000  18.9004
    19.0274  19.0276  19.4156  19.4161  19.5650  19.5654  19.6748  19.6751
    19.8630  19.8636  20.0706  20.0708  20.1824  20.1826  20.4945  20.4947
    20.6295  20.6296  20.7506  20.7508  20.7832  20.7836  21.0104  21.0110
    21.2247  21.2247  21.2675  21.2678  21.4580  21.4587  21.7307  21.7310
    21.7999  21.7999  22.0989  22.0990  22.2092  22.2096  22.2761  22.2763
    22.3872  22.3875  22.5305  22.5306  22.5557  22.5559  22.7641  22.7644
    22.8618  22.8619  22.9581  22.9582

          k =-0.2500 0.1914 0.0000 ( 29229 PWs)   bands (ev):

   -81.1512 -81.1122 -80.8952 -80.8552 -80.5726 -80.5336 -80.4717 -80.4321
   -43.2404 -43.1037 -43.0726 -43.0482 -43.0322 -42.9700 -42.9016 -42.8387
   -42.7633 -42.6920 -42.6563 -42.6519 -42.6217 -42.6085 -42.5845 -42.4748
   -42.4625 -42.4591 -42.4132 -42.4045 -42.3986 -42.3596 -42.0269 -41.9802
   -20.8420 -20.4048 -20.3446 -20.2046 -20.0575 -19.9410 -19.8243 -19.7709
   -19.7433 -19.6119 -19.4759 -19.3683 -19.3244 -19.1112 -19.0745 -18.9581
   -18.3117 -18.1171  -9.0420  -8.8167  -8.7873  -8.6575  -8.6214  -8.3599
    -8.3053  -8.2170  -8.0272  -7.8838  -7.8815  -7.8308  -7.6167  -7.4014
    -7.3596  -7.0729  -6.8086  -6.6899  -6.5832  -6.5590  -6.4588  -6.2072
    -6.0649  -6.0364  -5.8177  -5.7643  -5.5712  -5.5670  -5.5240  -5.2719
    -5.1467  -5.0298  -4.9009  -4.8861  -4.8180  -4.7280  -4.6971  -4.6282
    -4.5465  -4.4948  -4.2309  -4.0465  -3.9957  -3.8908  -3.7712  -3.6518
    -3.6472  -3.4196  -3.3486  -3.2215  -3.1509  -2.8970  -2.8304  -2.6803
    -2.3477  -2.2311  -2.0555  -1.4694  -1.1975  -1.0453  -0.9604  -0.3338
    -0.1817   0.2053   0.3263   0.3297   0.6158   0.7490   0.7768   1.0949
     1.2039   1.2771   1.4183   1.4487   1.5874   1.7723   1.7849   1.8519
     2.3660   2.3940   3.6868   3.7386   3.9110   3.9448   4.1348   4.3034
     4.5496   4.5897   4.7983   4.8387   4.9122   4.9509   5.2286   5.4125
     5.7890   5.8787   5.9990   6.2332   6.2501   6.4928   6.6594   6.7110
     6.8554   6.9857   7.2463   7.3403   7.4256   7.6788   7.7688   8.0039
     8.1432   8.3143   8.3259   8.4684   8.5976   8.6298   8.7564   8.8834
     9.0924   9.3437   9.3903   9.4106   9.6037   9.6753   9.7516   9.7602
     9.8317   9.9174   9.9557  10.1411  10.1717  10.2864  10.3215  10.4225
    10.4358  10.6423  10.7459  10.7978  10.9335  11.0396  11.0442  11.2239
    11.3944  11.4339  11.4587  11.6906  11.7883  11.8958  11.9558  12.1023
    12.3099  12.4125  12.4933  12.5015  12.6344  12.6660  12.6934  12.8237
    12.8471  12.9684  13.0210  13.1946  13.2273  13.3297  13.4909  13.5438
    13.6188  13.6727  13.7904  13.8008  13.9024  13.9092  13.9676  14.0459
    14.1221  14.2410  14.2689  14.3244  14.4219  14.5266  14.5540  14.5833
    14.7326  14.7758  14.8060  14.8557  14.8831  14.9331  15.0119  15.0331
    15.0982  15.2214  15.2994  15.3899  15.4993  15.5715  15.6468  15.7229
    15.8806  15.9471  16.0929  16.1107  16.1861  16.2284  16.2677  16.4176
    16.5203  16.5723  16.6264  16.6876  16.7751  16.8546  16.8804  17.0039
    17.1192  17.1263  17.1953  17.3206  17.3505  17.4832  17.5446  17.6599
    17.7029  17.7202  17.7643  17.8900  17.9685  18.0393  18.1006  18.1989
    18.2219  18.3149  18.3167  18.3900  18.5174  18.5340  18.6556  18.6638
    18.7745  18.8816  18.8877  18.9766  19.0671  19.0726  19.1653  19.3135
    19.4441  19.5148  19.5689  19.6582  19.7706  19.9235  19.9713  19.9931
    20.0631  20.1266  20.2289  20.2305  20.4506  20.4778  20.5472  20.5836
    20.6324  20.7490  20.7710  20.8061  20.8614  20.8934  20.9624  21.0505
    21.1388  21.1746  21.2728  21.3068  21.4068  21.4531  21.5089  21.5177
    21.6473  21.6508  21.7573  21.8262  21.9181  21.9418  22.0969  22.1312
    22.1778  22.2442  22.2681  22.3449  22.3596  22.4135  22.4619  22.5378
    22.5449  22.6189  22.6302  22.7143

     the Fermi energy is     0.3932 ev

!    total energy              =   -2140.80601698 Ry
     Harris-Foulkes estimate   =   -2140.80601699 Ry
     estimated scf accuracy    <          2.0E-09 Ry

     The total energy is the sum of the following terms:

     one-electron contribution =  -23534.04131717 Ry
     hartree contribution      =   11782.83601431 Ry
     xc contribution           =    -587.23533655 Ry
     ewald contribution        =   10195.42151976 Ry
     Hubbard energy            =       2.21391445 Ry
     smearing contrib. (-TS)   =      -0.00081178 Ry

     convergence has been achieved in  14 iterations

     Forces acting on atoms (Ry/au):


     negative rho (up, down):  0.238E+00 0.000E+00
     atom    1 type  1   force =    -0.00433834   -0.00654790   -0.00000352
     atom    2 type  1   force =     0.00005391    0.00552304   -0.00056995
     atom    3 type  2   force =    -0.00011740   -0.00412498    0.00000089
     atom    4 type  2   force =     0.00148202    0.00751461   -0.00005666
     atom    5 type  1   force =     0.00179095    0.01053010    0.00004149
     atom    6 type  1   force =     0.00023117   -0.01163291    0.00014726
     atom    7 type  1   force =    -0.00015773   -0.00022969    0.00011551
     atom    8 type  1   force =     0.00280290   -0.00099960   -0.00034459
     atom    9 type  2   force =    -0.00162219    0.00041029    0.00019059
     atom   10 type  2   force =     0.00006891   -0.00130149    0.00002735
     atom   11 type  1   force =     0.00018468   -0.00426817    0.00002503
     atom   12 type  1   force =    -0.00027586    0.00460659    0.00003507
     atom   13 type  1   force =    -0.00044510    0.00024673    0.00029188
     atom   14 type  1   force =    -0.00433218   -0.00654218    0.00000460
     atom   15 type  1   force =     0.00005193    0.00551253   -0.00057055
     atom   16 type  2   force =    -0.00011260   -0.00412494   -0.00000273
     atom   17 type  2   force =     0.00148148    0.00751444   -0.00005698
     atom   18 type  1   force =     0.00178748    0.01053130    0.00005310
     atom   19 type  1   force =     0.00022521   -0.01163378    0.00014846
     atom   20 type  1   force =    -0.00015717   -0.00022891    0.00012305
     atom   21 type  1   force =     0.00280487   -0.00099980   -0.00035039
     atom   22 type  2   force =    -0.00163743    0.00041124    0.00019010
     atom   23 type  2   force =     0.00007041   -0.00130155    0.00003864
     atom   24 type  1   force =     0.00018794   -0.00427043    0.00002219
     atom   25 type  1   force =    -0.00027434    0.00460731    0.00003417
     atom   26 type  1   force =    -0.00044847    0.00024927    0.00029044
     atom   27 type  3   force =    -0.00000219    0.00012506   -0.00039222
     atom   28 type  3   force =    -0.00000129    0.00012685   -0.00039341
     atom   29 type  3   force =     0.00034787    0.00014884    0.00048131
     atom   30 type  3   force =     0.00035059    0.00014815    0.00047988

     Total force =     0.001521     Total SCF correction =     0.000073

     bfgs converged in   8 scf cycles and   7 bfgs steps
     (criteria: energy < 0.10E-03, force < 0.10E-02)

     End of BFGS Geometry Optimization

     Final energy   =   -2140.8060169834 Ry
Begin final coordinates

ATOMIC_POSITIONS (crystal)
O0       0.000000000   0.000000000   0.371595790    0   0   1
O0       0.000000000   0.500000000   0.382313503    0   0   1
Re1      0.250000000   0.500000000   0.441476936    0   0   1
Re1      0.000000000   0.000000000   0.443939759    0   0   1
O0       0.250000000   0.780000000   0.442041848    0   0   1
O0       0.250000000   0.220000000   0.441933795    0   0   1
O0       0.000000000   0.500000000   0.497562349    0   0   1
O0       0.000000000   0.000000000   0.515153158    0   0   1
Re1      0.250000000   0.000000000   0.575312266    0   0   1
Re1      0.000000000   0.500000000   0.567579325    0   0   1
O0       0.250000000   0.720000000   0.573412818    0   0   1
O0       0.250000000   0.280000000   0.573481842    0   0   1
O0       0.000000000   0.000000000   0.627416800    0   0   1
O0       0.500000000   0.000000000   0.371595638    0   0   1
O0       0.500000000   0.500000000   0.382313299    0   0   1
Re1      0.750000000   0.500000000   0.441476950    0   0   1
Re1      0.500000000   0.000000000   0.443939651    0   0   1
O0       0.750000000   0.780000000   0.442040178    0   0   1
O0       0.750000000   0.220000000   0.441933712    0   0   1
O0       0.500000000   0.500000000   0.497561764    0   0   1
O0       0.500000000   0.000000000   0.515152763    0   0   1
Re1      0.750000000   0.000000000   0.575312667    0   0   1
Re1      0.500000000   0.500000000   0.567578904    0   0   1
O0       0.750000000   0.720000000   0.573413621    0   0   1
O0       0.750000000   0.280000000   0.573482399    0   0   1
O0       0.500000000   0.000000000   0.627417009    0   0   1
H2      -0.000382910   0.624506418   0.365185072
H2       0.499616364   0.624506655   0.365185093
H2       0.169351253   0.021930812   0.357175497
H2       0.669351626   0.021930887   0.357175595
End final coordinates



     init_run     :    146.24s CPU    149.60s WALL (       1 calls)
     electrons    :  32729.77s CPU  35948.10s WALL (       8 calls)
     update_pot   :    135.04s CPU    141.98s WALL (       7 calls)
     forces       :   1593.69s CPU   1738.45s WALL (       8 calls)

     Called by init_run:
     wfcinit      :     36.07s CPU     37.36s WALL (       1 calls)
     potinit      :      6.99s CPU      7.22s WALL (       1 calls)

     Called by electrons:
     c_bands      :  12437.47s CPU  12831.44s WALL (     133 calls)
     sum_band     :   7329.32s CPU   8046.39s WALL (     133 calls)
     v_of_rho     :    128.03s CPU    134.88s WALL (     136 calls)
     newd         :  11420.32s CPU  11488.14s WALL (     136 calls)
     mix_rho      :     23.16s CPU     23.99s WALL (     133 calls)

     Called by c_bands:
     init_us_2    :     34.14s CPU     34.52s WALL (     873 calls)
     cegterg      :  12176.45s CPU  12528.41s WALL (     399 calls)

     Called by *egterg:
     h_psi        :   7206.38s CPU   7443.99s WALL (    1116 calls)
     s_psi        :    843.24s CPU    853.01s WALL (    1164 calls)
     g_psi        :     14.81s CPU     14.81s WALL (     714 calls)
     cdiaghg      :   1030.65s CPU   1032.95s WALL (    1077 calls)

     Called by h_psi:
     add_vuspsi   :    813.27s CPU    823.81s WALL (    1116 calls)
     vhpsi        :    692.29s CPU    704.54s WALL (    1116 calls)

     General routines
     calbec       :   1926.72s CPU   1958.26s WALL (    9606 calls)
     fft          :    223.16s CPU    317.99s WALL (    2259 calls)
     ffts         :      2.21s CPU      2.28s WALL (     269 calls)
     fftw         :   4064.84s CPU   4321.92s WALL (  727968 calls)
     interpolate  :     19.27s CPU     19.63s WALL (     269 calls)
     davcio       :      0.07s CPU     15.11s WALL (     897 calls)

     Parallel routines
     fft_scatter  :   1584.78s CPU   1927.27s WALL (  730496 calls)
     Hubbard U routines
     new_ns       :    153.54s CPU    163.23s WALL (     133 calls)
     vhpsi        :    692.29s CPU    704.54s WALL (    1116 calls)
     force_hub    :    303.06s CPU    309.63s WALL (       8 calls)

     PWSCF        :     9h49m CPU       10h47m WALL


   This run was terminated on:  18:22: 2   9May2014            

=------------------------------------------------------------------------------=
   JOB DONE.
=------------------------------------------------------------------------------=
