
     Program PWSCF v.5.0.2 (svn rev. 9656) starts on 14Feb2014 at 13:39:32 

     This program is part of the open-source Quantum ESPRESSO suite
     for quantum simulation of materials; please cite
         "P. Giannozzi et al., J. Phys.:Condens. Matter 21 395502 (2009);
          URL http://www.quantum-espresso.org", 
     in publications or presentations arising from this work. More details at
     http://www.quantum-espresso.org/quote.php

     Parallel version (MPI), running on    16 processors
     R & G space division:  proc/nbgrp/npool/nimage =      16

     Current dimensions of program PWSCF are:
     Max number of different atomic species (ntypx) = 10
     Max number of k-points (npk) =  40000
     Max angular momentum in pseudopotentials (lmaxx) =  3
     Reading input from alpha_-0.07/alpha_-0.07.in
Warning: card &IONS ignored
Warning: card / ignored
Warning: card &CELL ignored
Warning: card / ignored

     Subspace diagonalization in iterative solution of the eigenvalue problem:
     a serial algorithm will be used


     Parallelization info
     --------------------
     sticks:   dense  smooth     PW     G-vecs:    dense   smooth      PW
     Min         681     219     61                35432     6413     959
     Max         682     220     62                35433     6424     961
     Sum       10901    3505    981               566923   102685   15363



     bravais-lattice index     =            0
     lattice parameter (alat)  =      16.5540  a.u.
     unit-cell volume          =    3003.5358 (a.u.)^3
     number of atoms/cell      =           48
     number of atomic types    =            3
     number of electrons       =       416.00
     number of Kohn-Sham states=          600
     kinetic-energy cutoff     =      40.0000  Ry
     charge density cutoff     =     500.0000  Ry
     convergence threshold     =      1.0E-06
     mixing beta               =       0.7000
     number of iterations used =            8  plain     mixing
     Exchange-correlation      = SLA  PW   PBE  PBE ( 1 4 3 4 0)
     EXX-fraction              =        0.00

     celldm(1)=  16.554001  celldm(2)=   0.000000  celldm(3)=   0.000000
     celldm(4)=   0.000000  celldm(5)=   0.000000  celldm(6)=   0.000000

     crystal axes: (cart. coord. in units of alat)
               a(1) = (   1.000000   0.000000   0.000000 )  
               a(2) = (   0.000000   1.000000   0.000000 )  
               a(3) = (   0.000000   0.000000   0.662100 )  

     reciprocal axes: (cart. coord. in units 2 pi/alat)
               b(1) = (  1.000000  0.000000  0.000000 )  
               b(2) = (  0.000000  1.000000  0.000000 )  
               b(3) = (  0.000000  0.000000  1.510345 )  


     PseudoPot. # 1 for Cr read from file:
     /home/camp/zhonxu/pseudo/cr_pbe_v1.uspp.F.UPF
     MD5 check sum: 68b6f918d1762dccfb11451fe85b0e0e
     Pseudo is Ultrasoft + core correction, Zval = 14.0
     Generated by new atomic code, or converted to UPF format
     Using radial grid of  857 points,  6 beta functions with: 
                l(1) =   0
                l(2) =   0
                l(3) =   1
                l(4) =   1
                l(5) =   2
                l(6) =   2
     Q(r) pseudized with  6 coefficients,  rinner =    1.000   1.000   1.000
                                                       1.000   1.000

     PseudoPot. # 2 for O  read from file:
     /home/camp/zhonxu/pseudo/o_pbe_v1.01.uspp.F.UPF
     MD5 check sum: 2bcb18d16ea4b960afae9ec6d52f22d2
     Pseudo is Ultrasoft + core correction, Zval =  6.0
     Generated by new atomic code, or converted to UPF format
     Using radial grid of  737 points,  5 beta functions with: 
                l(1) =   0
                l(2) =   0
                l(3) =   1
                l(4) =   1
                l(5) =   2
     Q(r) pseudized with  8 coefficients,  rinner =    0.900   0.900   0.900
                                                       0.900   0.900

     PseudoPot. # 3 for O  read from file:
     /home/camp/zhonxu/pseudo/o_pbe_v1.01.uspp.F.UPF
     MD5 check sum: 2bcb18d16ea4b960afae9ec6d52f22d2
     Pseudo is Ultrasoft + core correction, Zval =  6.0
     Generated by new atomic code, or converted to UPF format
     Using radial grid of  737 points,  5 beta functions with: 
                l(1) =   0
                l(2) =   0
                l(3) =   1
                l(4) =   1
                l(5) =   2
     Q(r) pseudized with  8 coefficients,  rinner =    0.900   0.900   0.900
                                                       0.900   0.900

     atomic species   valence    mass     pseudopotential
        Cr0           14.00    51.99600     Cr( 1.00)
        O1             6.00    15.99940     O ( 1.00)
        O2             6.00    15.99940     O ( 1.00)

     Starting magnetic structure 
     atomic species   magnetization
        Cr0          0.600
        O1           0.000
        O2           0.000


     Simplified LDA+U calculation (l_max = 2) with parameters (eV):
     atomic species    L          U    alpha       J0     beta
        Cr0            2     0.0000   0.0000   0.0000   0.0000
        O1             1     0.0000  -0.0700   0.0000   0.0000
        O2             1     0.0000   0.0000   0.0000   0.0000



      4 Sym. Ops. (no inversion) found



   Cartesian axes

     site n.     atom                  positions (alat units)
         1           Cr0 tau(   1) = (  -0.1500000  -0.1500000   0.0000000  )
         2           Cr0 tau(   2) = (   0.1000000   0.1000000   0.1655251  )
         3           Cr0 tau(   3) = (  -0.1500000  -0.1500000   0.3310502  )
         4           Cr0 tau(   4) = (   0.1000000   0.1000000   0.4965753  )
         5           Cr0 tau(   5) = (  -0.1500000   0.3500000   0.0000000  )
         6           Cr0 tau(   6) = (   0.1000000   0.6000000   0.1655251  )
         7           Cr0 tau(   7) = (  -0.1500000   0.3500000   0.3310502  )
         8           Cr0 tau(   8) = (   0.1000000   0.6000000   0.4965753  )
         9           Cr0 tau(   9) = (   0.3500000  -0.1500000   0.0000000  )
        10           Cr0 tau(  10) = (   0.6000000   0.1000000   0.1655251  )
        11           Cr0 tau(  11) = (   0.3500000  -0.1500000   0.3310502  )
        12           Cr0 tau(  12) = (   0.6000000   0.1000000   0.4965753  )
        13           Cr0 tau(  13) = (   0.3500000   0.3500000   0.0000000  )
        14           Cr0 tau(  14) = (   0.6000000   0.6000000   0.1655251  )
        15           Cr0 tau(  15) = (   0.3500000   0.3500000   0.3310502  )
        16           Cr0 tau(  16) = (   0.6000000   0.6000000   0.4965753  )
        17           O1  tau(  17) = (   0.0000000   0.0000000   0.0000000  )
        18           O2  tau(  18) = (  -0.3000000  -0.3000000   0.0000000  )
        19           O2  tau(  19) = (   0.2500000  -0.0500000   0.1655251  )
        20           O2  tau(  20) = (  -0.0500000   0.2500000   0.1655251  )
        21           O2  tau(  21) = (   0.0000000   0.0000000   0.3310502  )
        22           O2  tau(  22) = (  -0.3000000  -0.3000000   0.3310502  )
        23           O2  tau(  23) = (   0.2500000  -0.0500000   0.4965753  )
        24           O2  tau(  24) = (  -0.0500000   0.2500000   0.4965753  )
        25           O2  tau(  25) = (   0.0000000   0.5000000   0.0000000  )
        26           O2  tau(  26) = (  -0.3000000   0.2000000   0.0000000  )
        27           O2  tau(  27) = (   0.2500000   0.4500000   0.1655251  )
        28           O2  tau(  28) = (  -0.0500000   0.7500000   0.1655251  )
        29           O2  tau(  29) = (   0.0000000   0.5000000   0.3310502  )
        30           O2  tau(  30) = (  -0.3000000   0.2000000   0.3310502  )
        31           O2  tau(  31) = (   0.2500000   0.4500000   0.4965753  )
        32           O2  tau(  32) = (  -0.0500000   0.7500000   0.4965753  )
        33           O2  tau(  33) = (   0.5000000   0.0000000   0.0000000  )
        34           O2  tau(  34) = (   0.2000000  -0.3000000   0.0000000  )
        35           O2  tau(  35) = (   0.7500000  -0.0500000   0.1655251  )
        36           O2  tau(  36) = (   0.4500000   0.2500000   0.1655251  )
        37           O2  tau(  37) = (   0.5000000   0.0000000   0.3310502  )
        38           O2  tau(  38) = (   0.2000000  -0.3000000   0.3310502  )
        39           O2  tau(  39) = (   0.7500000  -0.0500000   0.4965753  )
        40           O2  tau(  40) = (   0.4500000   0.2500000   0.4965753  )
        41           O2  tau(  41) = (   0.5000000   0.5000000   0.0000000  )
        42           O2  tau(  42) = (   0.2000000   0.2000000   0.0000000  )
        43           O2  tau(  43) = (   0.7500000   0.4500000   0.1655251  )
        44           O2  tau(  44) = (   0.4500000   0.7500000   0.1655251  )
        45           O2  tau(  45) = (   0.5000000   0.5000000   0.3310502  )
        46           O2  tau(  46) = (   0.2000000   0.2000000   0.3310502  )
        47           O2  tau(  47) = (   0.7500000   0.4500000   0.4965753  )
        48           O2  tau(  48) = (   0.4500000   0.7500000   0.4965753  )

     number of k points=    42  Methfessel-Paxton smearing, width (Ry)=  0.0100
                       cart. coord. in units 2pi/alat
        k(    1) = (   0.0000000   0.0000000   0.0000000), wk =   0.0156250
        k(    2) = (   0.0000000   0.0000000   0.3775862), wk =   0.0312500
        k(    3) = (   0.0000000   0.0000000  -0.7551724), wk =   0.0156250
        k(    4) = (   0.0000000   0.2500000   0.0000000), wk =   0.0625000
        k(    5) = (   0.0000000   0.2500000   0.3775862), wk =   0.1250000
        k(    6) = (   0.0000000   0.2500000  -0.7551724), wk =   0.0625000
        k(    7) = (   0.0000000  -0.5000000   0.0000000), wk =   0.0312500
        k(    8) = (   0.0000000  -0.5000000   0.3775862), wk =   0.0625000
        k(    9) = (   0.0000000  -0.5000000  -0.7551724), wk =   0.0312500
        k(   10) = (   0.2500000   0.2500000   0.0000000), wk =   0.0312500
        k(   11) = (   0.2500000   0.2500000   0.3775862), wk =   0.0625000
        k(   12) = (   0.2500000   0.2500000  -0.7551724), wk =   0.0312500
        k(   13) = (   0.2500000  -0.5000000   0.0000000), wk =   0.0625000
        k(   14) = (   0.2500000  -0.5000000   0.3775862), wk =   0.1250000
        k(   15) = (   0.2500000  -0.5000000  -0.7551724), wk =   0.0625000
        k(   16) = (  -0.5000000  -0.5000000   0.0000000), wk =   0.0156250
        k(   17) = (  -0.5000000  -0.5000000   0.3775862), wk =   0.0312500
        k(   18) = (  -0.5000000  -0.5000000  -0.7551724), wk =   0.0156250
        k(   19) = (   0.2500000  -0.2500000   0.0000000), wk =   0.0312500
        k(   20) = (   0.2500000  -0.2500000   0.3775862), wk =   0.0625000
        k(   21) = (   0.2500000  -0.2500000  -0.7551724), wk =   0.0312500
        k(   22) = (   0.0000000   0.0000000   0.0000000), wk =   0.0156250
        k(   23) = (   0.0000000   0.0000000   0.3775862), wk =   0.0312500
        k(   24) = (   0.0000000   0.0000000  -0.7551724), wk =   0.0156250
        k(   25) = (   0.0000000   0.2500000   0.0000000), wk =   0.0625000
        k(   26) = (   0.0000000   0.2500000   0.3775862), wk =   0.1250000
        k(   27) = (   0.0000000   0.2500000  -0.7551724), wk =   0.0625000
        k(   28) = (   0.0000000  -0.5000000   0.0000000), wk =   0.0312500
        k(   29) = (   0.0000000  -0.5000000   0.3775862), wk =   0.0625000
        k(   30) = (   0.0000000  -0.5000000  -0.7551724), wk =   0.0312500
        k(   31) = (   0.2500000   0.2500000   0.0000000), wk =   0.0312500
        k(   32) = (   0.2500000   0.2500000   0.3775862), wk =   0.0625000
        k(   33) = (   0.2500000   0.2500000  -0.7551724), wk =   0.0312500
        k(   34) = (   0.2500000  -0.5000000   0.0000000), wk =   0.0625000
        k(   35) = (   0.2500000  -0.5000000   0.3775862), wk =   0.1250000
        k(   36) = (   0.2500000  -0.5000000  -0.7551724), wk =   0.0625000
        k(   37) = (  -0.5000000  -0.5000000   0.0000000), wk =   0.0156250
        k(   38) = (  -0.5000000  -0.5000000   0.3775862), wk =   0.0312500
        k(   39) = (  -0.5000000  -0.5000000  -0.7551724), wk =   0.0156250
        k(   40) = (   0.2500000  -0.2500000   0.0000000), wk =   0.0312500
        k(   41) = (   0.2500000  -0.2500000   0.3775862), wk =   0.0625000
        k(   42) = (   0.2500000  -0.2500000  -0.7551724), wk =   0.0312500

     Dense  grid:   566923 G-vectors     FFT dimensions: ( 120, 120,  80)

     Smooth grid:   102685 G-vectors     FFT dimensions: (  72,  72,  45)

     Largest allocated arrays     est. size (Mb)     dimensions
        Kohn-Sham Wavefunctions         7.36 Mb     (    804,  600)
        Atomic wavefunctions            3.53 Mb     (    804,  288)
        NL pseudopotentials             8.64 Mb     (    804,  704)
        Each V/rho on FFT grid          2.20 Mb     (  72000,   2)
        Each G-vector array             0.27 Mb     (  35433)
        G-vector shells                 0.10 Mb     (  13625)
     Largest temporary arrays     est. size (Mb)     dimensions
        Auxiliary wavefunctions        29.44 Mb     (    804, 2400)
        Each subspace H/S matrix       87.89 Mb     (2400,2400)
        Each <psi_i|beta_j> matrix      6.45 Mb     (    704,  600)
        Arrays for rho mixing           8.79 Mb     (  72000,   8)

     Check: negative/imaginary core charge=   -0.000034    0.000000

     The initial density is read from file :
     alpha_-0.07/pwscf.save/charge-density.dat

     Number of +U iterations with fixed ns =  0
     Starting occupations:
 --- enter write_ns ---
 LDA+U parameters:
U( 1)     =  0.00000000
alpha( 1) =  0.00000000
U( 2)     =  0.00000000
alpha( 2) = -0.07000000
U( 3)     =  0.00000000
alpha( 3) =  0.00000000
atom    1   Tr[ns(na)] (up, down, total) =   3.40848  1.32718  4.73565
   spin  1
    eigenvalues: 
  0.480  0.519  0.637  0.799  0.973
    eigenvectors:
  0.000  0.290  0.000  0.000  0.710
  0.500  0.000  0.000  0.500  0.000
  0.500  0.000  0.000  0.500  0.000
  0.000  0.000  1.000  0.000  0.000
  0.000  0.710  0.000  0.000  0.290
    occupations:
  0.841 -0.000 -0.000 -0.000  0.206
 -0.000  0.640  0.160  0.000  0.000
 -0.000  0.160  0.640  0.000  0.000
 -0.000  0.000  0.000  0.637 -0.000
  0.206  0.000  0.000 -0.000  0.650
   spin  2
    eigenvalues: 
  0.134  0.188  0.215  0.389  0.400
    eigenvectors:
  0.711  0.000  0.000  0.000  0.289
  0.000  0.500  0.000  0.500  0.000
  0.000  0.500  0.000  0.500  0.000
  0.000  0.000  1.000  0.000  0.000
  0.289  0.000  0.000  0.000  0.711
    occupations:
  0.211 -0.000 -0.000  0.000 -0.120
 -0.000  0.289 -0.101  0.000  0.000
 -0.000 -0.101  0.289  0.000  0.000
  0.000  0.000  0.000  0.215 -0.000
 -0.120  0.000  0.000 -0.000  0.323
atomic mag. moment =     2.081299
atom    2   Tr[ns(na)] (up, down, total) =   3.40827  1.32713  4.73540
   spin  1
    eigenvalues: 
  0.480  0.519  0.637  0.799  0.973
    eigenvectors:
  0.000  0.290  0.000  0.000  0.710
  0.500  0.000  0.000  0.500  0.000
  0.500  0.000  0.000  0.500  0.000
  0.000  0.000  1.000  0.000  0.000
  0.000  0.710  0.000  0.000  0.290
    occupations:
  0.841 -0.000 -0.000  0.000 -0.206
 -0.000  0.640 -0.160  0.000  0.000
 -0.000 -0.160  0.640 -0.000  0.000
  0.000  0.000 -0.000  0.637 -0.000
 -0.206  0.000  0.000 -0.000  0.650
   spin  2
    eigenvalues: 
  0.134  0.188  0.215  0.389  0.400
    eigenvectors:
  0.711  0.000  0.000  0.000  0.289
  0.000  0.500  0.000  0.500  0.000
  0.000  0.500  0.000  0.500  0.000
  0.000  0.000  1.000  0.000  0.000
  0.289  0.000  0.000  0.000  0.711
    occupations:
  0.211  0.000  0.000 -0.000  0.120
  0.000  0.289  0.101  0.000  0.000
  0.000  0.101  0.289 -0.000  0.000
 -0.000  0.000 -0.000  0.215 -0.000
  0.120  0.000  0.000 -0.000  0.323
atomic mag. moment =     2.081146
atom    3   Tr[ns(na)] (up, down, total) =   3.40771  1.32696  4.73467
   spin  1
    eigenvalues: 
  0.480  0.519  0.637  0.799  0.973
    eigenvectors:
  0.000  0.290  0.000  0.000  0.710
  0.500  0.000  0.000  0.500  0.000
  0.500  0.000  0.000  0.500  0.000
  0.000  0.000  1.000  0.000  0.000
  0.000  0.710  0.000  0.000  0.290
    occupations:
  0.841 -0.000 -0.000 -0.000  0.206
 -0.000  0.639  0.160  0.000  0.000
 -0.000  0.160  0.639  0.000  0.000
 -0.000  0.000  0.000  0.637 -0.000
  0.206  0.000  0.000 -0.000  0.650
   spin  2
    eigenvalues: 
  0.134  0.188  0.215  0.389  0.400
    eigenvectors:
  0.711  0.000  0.000  0.000  0.289
  0.000  0.500  0.000  0.500  0.000
  0.000  0.500  0.000  0.500  0.000
  0.000  0.000  1.000  0.000  0.000
  0.289  0.000  0.000  0.000  0.711
    occupations:
  0.211 -0.000 -0.000  0.000 -0.120
 -0.000  0.289 -0.101  0.000  0.000
 -0.000 -0.101  0.289  0.000  0.000
  0.000  0.000  0.000  0.215 -0.000
 -0.120  0.000  0.000 -0.000  0.323
atomic mag. moment =     2.080749
atom    4   Tr[ns(na)] (up, down, total) =   3.40827  1.32713  4.73540
   spin  1
    eigenvalues: 
  0.480  0.519  0.637  0.799  0.973
    eigenvectors:
  0.000  0.290  0.000  0.000  0.710
  0.500  0.000  0.000  0.500  0.000
  0.500  0.000  0.000  0.500  0.000
  0.000  0.000  1.000  0.000  0.000
  0.000  0.710  0.000  0.000  0.290
    occupations:
  0.841  0.000  0.000  0.000 -0.206
  0.000  0.640 -0.160 -0.000 -0.000
  0.000 -0.160  0.640  0.000 -0.000
  0.000 -0.000  0.000  0.637 -0.000
 -0.206 -0.000 -0.000 -0.000  0.650
   spin  2
    eigenvalues: 
  0.134  0.188  0.215  0.389  0.400
    eigenvectors:
  0.711  0.000  0.000  0.000  0.289
  0.000  0.500  0.000  0.500  0.000
  0.000  0.500  0.000  0.500  0.000
  0.000  0.000  1.000  0.000  0.000
  0.289  0.000  0.000  0.000  0.711
    occupations:
  0.211 -0.000 -0.000 -0.000  0.120
 -0.000  0.289  0.101 -0.000 -0.000
 -0.000  0.101  0.289  0.000 -0.000
 -0.000 -0.000  0.000  0.215 -0.000
  0.120 -0.000 -0.000 -0.000  0.323
atomic mag. moment =     2.081146
atom    5   Tr[ns(na)] (up, down, total) =   3.40796  1.32704  4.73500
   spin  1
    eigenvalues: 
  0.480  0.519  0.637  0.799  0.973
    eigenvectors:
  0.000  0.290  0.000  0.000  0.710
  0.500  0.000  0.000  0.500  0.000
  0.500  0.000  0.000  0.500  0.000
  0.000  0.000  1.000  0.000  0.000
  0.000  0.710  0.000  0.000  0.290
    occupations:
  0.841 -0.000 -0.000  0.000  0.206
 -0.000  0.640  0.160  0.000  0.000
 -0.000  0.160  0.640  0.000  0.000
  0.000  0.000  0.000  0.637  0.000
  0.206  0.000  0.000  0.000  0.650
   spin  2
    eigenvalues: 
  0.134  0.188  0.215  0.389  0.400
    eigenvectors:
  0.711  0.000  0.000  0.000  0.289
  0.000  0.500  0.000  0.500  0.000
  0.000  0.500  0.000  0.500  0.000
  0.000  0.000  1.000  0.000  0.000
  0.289  0.000  0.000  0.000  0.711
    occupations:
  0.211 -0.000 -0.000  0.000 -0.120
 -0.000  0.289 -0.101  0.000  0.000
 -0.000 -0.101  0.289  0.000  0.000
  0.000  0.000  0.000  0.215 -0.000
 -0.120  0.000  0.000 -0.000  0.323
atomic mag. moment =     2.080916
atom    6   Tr[ns(na)] (up, down, total) =   3.40817  1.32709  4.73526
   spin  1
    eigenvalues: 
  0.480  0.519  0.637  0.799  0.973
    eigenvectors:
  0.000  0.290  0.000  0.000  0.710
  0.500  0.000  0.000  0.500  0.000
  0.500  0.000  0.000  0.500  0.000
  0.000  0.000  1.000  0.000  0.000
  0.000  0.710  0.000  0.000  0.290
    occupations:
  0.841 -0.000  0.000 -0.000 -0.206
 -0.000  0.640 -0.160  0.000 -0.000
  0.000 -0.160  0.640  0.000  0.000
 -0.000  0.000  0.000  0.637  0.000
 -0.206 -0.000  0.000  0.000  0.650
   spin  2
    eigenvalues: 
  0.134  0.188  0.215  0.389  0.400
    eigenvectors:
  0.711  0.000  0.000  0.000  0.289
  0.000  0.500  0.000  0.500  0.000
  0.000  0.500  0.000  0.500  0.000
  0.000  0.000  1.000  0.000  0.000
  0.289  0.000  0.000  0.000  0.711
    occupations:
  0.211  0.000 -0.000  0.000  0.120
  0.000  0.289  0.101 -0.000  0.000
 -0.000  0.101  0.289  0.000 -0.000
  0.000 -0.000  0.000  0.215  0.000
  0.120  0.000 -0.000  0.000  0.323
atomic mag. moment =     2.081073
atom    7   Tr[ns(na)] (up, down, total) =   3.40814  1.32709  4.73524
   spin  1
    eigenvalues: 
  0.480  0.519  0.637  0.799  0.973
    eigenvectors:
  0.000  0.290  0.000  0.000  0.710
  0.500  0.000  0.000  0.500  0.000
  0.500  0.000  0.000  0.500  0.000
  0.000  0.000  1.000  0.000  0.000
  0.000  0.710  0.000  0.000  0.290
    occupations:
  0.841 -0.000 -0.000 -0.000  0.206
 -0.000  0.640  0.160  0.000  0.000
 -0.000  0.160  0.640  0.000  0.000
 -0.000  0.000  0.000  0.637 -0.000
  0.206  0.000  0.000 -0.000  0.650
   spin  2
    eigenvalues: 
  0.134  0.188  0.215  0.389  0.400
    eigenvectors:
  0.711  0.000  0.000  0.000  0.289
  0.000  0.500  0.000  0.500  0.000
  0.000  0.500  0.000  0.500  0.000
  0.000  0.000  1.000  0.000  0.000
  0.289  0.000  0.000  0.000  0.711
    occupations:
  0.211 -0.000 -0.000 -0.000 -0.120
 -0.000  0.289 -0.101  0.000  0.000
 -0.000 -0.101  0.289  0.000  0.000
 -0.000  0.000  0.000  0.215  0.000
 -0.120  0.000  0.000  0.000  0.323
atomic mag. moment =     2.081051
atom    8   Tr[ns(na)] (up, down, total) =   3.40817  1.32709  4.73526
   spin  1
    eigenvalues: 
  0.480  0.519  0.637  0.799  0.973
    eigenvectors:
  0.000  0.290  0.000  0.000  0.710
  0.500  0.000  0.000  0.500  0.000
  0.500  0.000  0.000  0.500  0.000
  0.000  0.000  1.000  0.000  0.000
  0.000  0.710  0.000  0.000  0.290
    occupations:
  0.841  0.000 -0.000 -0.000 -0.206
  0.000  0.640 -0.160 -0.000  0.000
 -0.000 -0.160  0.640 -0.000 -0.000
 -0.000 -0.000 -0.000  0.637  0.000
 -0.206  0.000 -0.000  0.000  0.650
   spin  2
    eigenvalues: 
  0.134  0.188  0.215  0.389  0.400
    eigenvectors:
  0.711  0.000  0.000  0.000  0.289
  0.000  0.500  0.000  0.500  0.000
  0.000  0.500  0.000  0.500  0.000
  0.000  0.000  1.000  0.000  0.000
  0.289  0.000  0.000  0.000  0.711
    occupations:
  0.211 -0.000  0.000  0.000  0.120
 -0.000  0.289  0.101  0.000 -0.000
  0.000  0.101  0.289 -0.000  0.000
  0.000  0.000 -0.000  0.215  0.000
  0.120 -0.000  0.000  0.000  0.323
atomic mag. moment =     2.081073
atom    9   Tr[ns(na)] (up, down, total) =   3.40796  1.32704  4.73500
   spin  1
    eigenvalues: 
  0.480  0.519  0.637  0.799  0.973
    eigenvectors:
  0.000  0.290  0.000  0.000  0.710
  0.500  0.000  0.000  0.500  0.000
  0.500  0.000  0.000  0.500  0.000
  0.000  0.000  1.000  0.000  0.000
  0.000  0.710  0.000  0.000  0.290
    occupations:
  0.841 -0.000 -0.000 -0.000  0.206
 -0.000  0.640  0.160  0.000  0.000
 -0.000  0.160  0.640  0.000  0.000
 -0.000  0.000  0.000  0.637 -0.000
  0.206  0.000  0.000 -0.000  0.650
   spin  2
    eigenvalues: 
  0.134  0.188  0.215  0.389  0.400
    eigenvectors:
  0.711  0.000  0.000  0.000  0.289
  0.000  0.500  0.000  0.500  0.000
  0.000  0.500  0.000  0.500  0.000
  0.000  0.000  1.000  0.000  0.000
  0.289  0.000  0.000  0.000  0.711
    occupations:
  0.211 -0.000 -0.000 -0.000 -0.120
 -0.000  0.289 -0.101  0.000  0.000
 -0.000 -0.101  0.289  0.000  0.000
 -0.000  0.000  0.000  0.215  0.000
 -0.120  0.000  0.000  0.000  0.323
atomic mag. moment =     2.080916
atom   10   Tr[ns(na)] (up, down, total) =   3.40817  1.32709  4.73526
   spin  1
    eigenvalues: 
  0.480  0.519  0.637  0.799  0.973
    eigenvectors:
  0.000  0.290  0.000  0.000  0.710
  0.500  0.000  0.000  0.500  0.000
  0.500  0.000  0.000  0.500  0.000
  0.000  0.000  1.000  0.000  0.000
  0.000  0.710  0.000  0.000  0.290
    occupations:
  0.841  0.000 -0.000  0.000 -0.206
  0.000  0.640 -0.160 -0.000  0.000
 -0.000 -0.160  0.640 -0.000 -0.000
  0.000 -0.000 -0.000  0.637 -0.000
 -0.206  0.000 -0.000 -0.000  0.650
   spin  2
    eigenvalues: 
  0.134  0.188  0.215  0.389  0.400
    eigenvectors:
  0.711  0.000  0.000  0.000  0.289
  0.000  0.500  0.000  0.500  0.000
  0.000  0.500  0.000  0.500  0.000
  0.000  0.000  1.000  0.000  0.000
  0.289  0.000  0.000  0.000  0.711
    occupations:
  0.211 -0.000  0.000 -0.000  0.120
 -0.000  0.289  0.101 -0.000 -0.000
  0.000  0.101  0.289  0.000  0.000
 -0.000 -0.000  0.000  0.215 -0.000
  0.120 -0.000  0.000 -0.000  0.323
atomic mag. moment =     2.081073
atom   11   Tr[ns(na)] (up, down, total) =   3.40814  1.32709  4.73524
   spin  1
    eigenvalues: 
  0.480  0.519  0.637  0.799  0.973
    eigenvectors:
  0.000  0.290  0.000  0.000  0.710
  0.500  0.000  0.000  0.500  0.000
  0.500  0.000  0.000  0.500  0.000
  0.000  0.000  1.000  0.000  0.000
  0.000  0.710  0.000  0.000  0.290
    occupations:
  0.841 -0.000 -0.000  0.000  0.206
 -0.000  0.640  0.160  0.000  0.000
 -0.000  0.160  0.640  0.000  0.000
  0.000  0.000  0.000  0.637  0.000
  0.206  0.000  0.000  0.000  0.650
   spin  2
    eigenvalues: 
  0.134  0.188  0.215  0.389  0.400
    eigenvectors:
  0.711  0.000  0.000  0.000  0.289
  0.000  0.500  0.000  0.500  0.000
  0.000  0.500  0.000  0.500  0.000
  0.000  0.000  1.000  0.000  0.000
  0.289  0.000  0.000  0.000  0.711
    occupations:
  0.211 -0.000 -0.000  0.000 -0.120
 -0.000  0.289 -0.101  0.000  0.000
 -0.000 -0.101  0.289  0.000  0.000
  0.000  0.000  0.000  0.215 -0.000
 -0.120  0.000  0.000 -0.000  0.323
atomic mag. moment =     2.081051
atom   12   Tr[ns(na)] (up, down, total) =   3.40817  1.32709  4.73526
   spin  1
    eigenvalues: 
  0.480  0.519  0.637  0.799  0.973
    eigenvectors:
  0.000  0.290  0.000  0.000  0.710
  0.500  0.000  0.000  0.500  0.000
  0.500  0.000  0.000  0.500  0.000
  0.000  0.000  1.000  0.000  0.000
  0.000  0.710  0.000  0.000  0.290
    occupations:
  0.841 -0.000  0.000  0.000 -0.206
 -0.000  0.640 -0.160  0.000 -0.000
  0.000 -0.160  0.640  0.000  0.000
  0.000  0.000  0.000  0.637 -0.000
 -0.206 -0.000  0.000 -0.000  0.650
   spin  2
    eigenvalues: 
  0.134  0.188  0.215  0.389  0.400
    eigenvectors:
  0.711  0.000  0.000  0.000  0.289
  0.000  0.500  0.000  0.500  0.000
  0.000  0.500  0.000  0.500  0.000
  0.000  0.000  1.000  0.000  0.000
  0.289  0.000  0.000  0.000  0.711
    occupations:
  0.211  0.000 -0.000 -0.000  0.120
  0.000  0.289  0.101  0.000  0.000
 -0.000  0.101  0.289 -0.000 -0.000
 -0.000  0.000 -0.000  0.215 -0.000
  0.120  0.000 -0.000 -0.000  0.323
atomic mag. moment =     2.081073
atom   13   Tr[ns(na)] (up, down, total) =   3.40779  1.32698  4.73477
   spin  1
    eigenvalues: 
  0.480  0.519  0.637  0.799  0.973
    eigenvectors:
  0.000  0.290  0.000  0.000  0.710
  0.500  0.000  0.000  0.500  0.000
  0.500  0.000  0.000  0.500  0.000
  0.000  0.000  1.000  0.000  0.000
  0.000  0.710  0.000  0.000  0.290
    occupations:
  0.841 -0.000 -0.000 -0.000  0.206
 -0.000  0.640  0.160  0.000  0.000
 -0.000  0.160  0.640  0.000  0.000
 -0.000  0.000  0.000  0.637 -0.000
  0.206  0.000  0.000 -0.000  0.650
   spin  2
    eigenvalues: 
  0.134  0.188  0.215  0.389  0.400
    eigenvectors:
  0.711  0.000  0.000  0.000  0.289
  0.000  0.500  0.000  0.500  0.000
  0.000  0.500  0.000  0.500  0.000
  0.000  0.000  1.000  0.000  0.000
  0.289  0.000  0.000  0.000  0.711
    occupations:
  0.211 -0.000 -0.000  0.000 -0.120
 -0.000  0.289 -0.101  0.000  0.000
 -0.000 -0.101  0.289  0.000  0.000
  0.000  0.000  0.000  0.215 -0.000
 -0.120  0.000  0.000 -0.000  0.323
atomic mag. moment =     2.080806
atom   14   Tr[ns(na)] (up, down, total) =   3.40796  1.32701  4.73496
   spin  1
    eigenvalues: 
  0.480  0.519  0.637  0.799  0.973
    eigenvectors:
  0.000  0.290  0.000  0.000  0.710
  0.500  0.000  0.000  0.500  0.000
  0.500  0.000  0.000  0.500  0.000
  0.000  0.000  1.000  0.000  0.000
  0.000  0.710  0.000  0.000  0.290
    occupations:
  0.841  0.000  0.000  0.000 -0.206
  0.000  0.640 -0.160 -0.000 -0.000
  0.000 -0.160  0.640  0.000 -0.000
  0.000 -0.000  0.000  0.637 -0.000
 -0.206 -0.000 -0.000 -0.000  0.650
   spin  2
    eigenvalues: 
  0.134  0.188  0.215  0.389  0.400
    eigenvectors:
  0.711  0.000  0.000  0.000  0.289
  0.000  0.500  0.000  0.500  0.000
  0.000  0.500  0.000  0.500  0.000
  0.000  0.000  1.000  0.000  0.000
  0.289  0.000  0.000  0.000  0.711
    occupations:
  0.211 -0.000 -0.000 -0.000  0.120
 -0.000  0.289  0.101 -0.000 -0.000
 -0.000  0.101  0.289  0.000 -0.000
 -0.000 -0.000  0.000  0.215 -0.000
  0.120 -0.000 -0.000 -0.000  0.323
atomic mag. moment =     2.080952
atom   15   Tr[ns(na)] (up, down, total) =   3.40842  1.32716  4.73558
   spin  1
    eigenvalues: 
  0.480  0.519  0.637  0.799  0.973
    eigenvectors:
  0.000  0.290  0.000  0.000  0.710
  0.500  0.000  0.000  0.500  0.000
  0.500  0.000  0.000  0.500  0.000
  0.000  0.000  1.000  0.000  0.000
  0.000  0.710  0.000  0.000  0.290
    occupations:
  0.841 -0.000 -0.000 -0.000  0.206
 -0.000  0.640  0.160  0.000  0.000
 -0.000  0.160  0.640  0.000  0.000
 -0.000  0.000  0.000  0.637 -0.000
  0.206  0.000  0.000 -0.000  0.650
   spin  2
    eigenvalues: 
  0.134  0.188  0.215  0.389  0.400
    eigenvectors:
  0.711  0.000  0.000  0.000  0.289
  0.000  0.500  0.000  0.500  0.000
  0.000  0.500  0.000  0.500  0.000
  0.000  0.000  1.000  0.000  0.000
  0.289  0.000  0.000  0.000  0.711
    occupations:
  0.211 -0.000 -0.000  0.000 -0.120
 -0.000  0.289 -0.101  0.000  0.000
 -0.000 -0.101  0.289  0.000  0.000
  0.000  0.000  0.000  0.215 -0.000
 -0.120  0.000  0.000 -0.000  0.323
atomic mag. moment =     2.081258
atom   16   Tr[ns(na)] (up, down, total) =   3.40796  1.32701  4.73496
   spin  1
    eigenvalues: 
  0.480  0.519  0.637  0.799  0.973
    eigenvectors:
  0.000  0.290  0.000  0.000  0.710
  0.500  0.000  0.000  0.500  0.000
  0.500  0.000  0.000  0.500  0.000
  0.000  0.000  1.000  0.000  0.000
  0.000  0.710  0.000  0.000  0.290
    occupations:
  0.841 -0.000 -0.000  0.000 -0.206
 -0.000  0.640 -0.160  0.000  0.000
 -0.000 -0.160  0.640 -0.000  0.000
  0.000  0.000 -0.000  0.637 -0.000
 -0.206  0.000  0.000 -0.000  0.650
   spin  2
    eigenvalues: 
  0.134  0.188  0.215  0.389  0.400
    eigenvectors:
  0.711  0.000  0.000  0.000  0.289
  0.000  0.500  0.000  0.500  0.000
  0.000  0.500  0.000  0.500  0.000
  0.000  0.000  1.000  0.000  0.000
  0.289  0.000  0.000  0.000  0.711
    occupations:
  0.211  0.000  0.000 -0.000  0.120
  0.000  0.289  0.101  0.000  0.000
  0.000  0.101  0.289 -0.000  0.000
 -0.000  0.000 -0.000  0.215 -0.000
  0.120  0.000  0.000 -0.000  0.323
atomic mag. moment =     2.080952
atom   17   Tr[ns(na)] (up, down, total) =   2.61444  2.69607  5.31051
   spin  1
    eigenvalues: 
  0.854  0.873  0.888
    eigenvectors:
  0.000  0.000  1.000
  0.500  0.500  0.000
  0.500  0.500  0.000
    occupations:
  0.888 -0.000 -0.000
 -0.000  0.863  0.010
 -0.000  0.010  0.863
   spin  2
    eigenvalues: 
  0.888  0.899  0.909
    eigenvectors:
  0.000  1.000  0.000
  0.500  0.000  0.500
  0.500  0.000  0.500
    occupations:
  0.899 -0.000 -0.000
 -0.000  0.899 -0.011
 -0.000 -0.011  0.899
atomic mag. moment =    -0.081635
atom   18   Tr[ns(na)] (up, down, total) =   2.61445  2.69610  5.31055
   spin  1
    eigenvalues: 
  0.854  0.873  0.888
    eigenvectors:
  0.000  0.000  1.000
  0.500  0.500  0.000
  0.500  0.500  0.000
    occupations:
  0.888 -0.000 -0.000
 -0.000  0.863  0.010
 -0.000  0.010  0.863
   spin  2
    eigenvalues: 
  0.888  0.899  0.909
    eigenvectors:
  0.000  1.000  0.000
  0.500  0.000  0.500
  0.500  0.000  0.500
    occupations:
  0.899 -0.000 -0.000
 -0.000  0.899 -0.011
 -0.000 -0.011  0.899
atomic mag. moment =    -0.081648
atom   19   Tr[ns(na)] (up, down, total) =   2.61438  2.69606  5.31044
   spin  1
    eigenvalues: 
  0.854  0.873  0.888
    eigenvectors:
  0.000  0.000  1.000
  0.500  0.500  0.000
  0.500  0.500  0.000
    occupations:
  0.888  0.000 -0.000
  0.000  0.863 -0.010
 -0.000 -0.010  0.863
   spin  2
    eigenvalues: 
  0.888  0.899  0.909
    eigenvectors:
  0.000  1.000  0.000
  0.500  0.000  0.500
  0.500  0.000  0.500
    occupations:
  0.899  0.000 -0.000
  0.000  0.899  0.011
 -0.000  0.011  0.899
atomic mag. moment =    -0.081672
atom   20   Tr[ns(na)] (up, down, total) =   2.61438  2.69606  5.31044
   spin  1
    eigenvalues: 
  0.854  0.873  0.888
    eigenvectors:
  0.000  0.000  1.000
  0.500  0.500  0.000
  0.500  0.500  0.000
    occupations:
  0.888 -0.000  0.000
 -0.000  0.863 -0.010
  0.000 -0.010  0.863
   spin  2
    eigenvalues: 
  0.888  0.899  0.909
    eigenvectors:
  0.000  1.000  0.000
  0.500  0.000  0.500
  0.500  0.000  0.500
    occupations:
  0.899 -0.000  0.000
 -0.000  0.899  0.011
  0.000  0.011  0.899
atomic mag. moment =    -0.081672
atom   21   Tr[ns(na)] (up, down, total) =   2.61443  2.69608  5.31051
   spin  1
    eigenvalues: 
  0.854  0.873  0.888
    eigenvectors:
  0.000  0.000  1.000
  0.500  0.500  0.000
  0.500  0.500  0.000
    occupations:
  0.888 -0.000 -0.000
 -0.000  0.863  0.010
 -0.000  0.010  0.863
   spin  2
    eigenvalues: 
  0.888  0.899  0.909
    eigenvectors:
  0.000  1.000  0.000
  0.500  0.000  0.500
  0.500  0.000  0.500
    occupations:
  0.899 -0.000 -0.000
 -0.000  0.899 -0.011
 -0.000 -0.011  0.899
atomic mag. moment =    -0.081654
atom   22   Tr[ns(na)] (up, down, total) =   2.61444  2.69611  5.31055
   spin  1
    eigenvalues: 
  0.854  0.873  0.888
    eigenvectors:
  0.000  0.000  1.000
  0.500  0.500  0.000
  0.500  0.500  0.000
    occupations:
  0.888 -0.000 -0.000
 -0.000  0.863  0.010
 -0.000  0.010  0.863
   spin  2
    eigenvalues: 
  0.888  0.899  0.909
    eigenvectors:
  0.000  1.000  0.000
  0.500  0.000  0.500
  0.500  0.000  0.500
    occupations:
  0.899 -0.000 -0.000
 -0.000  0.899 -0.011
 -0.000 -0.011  0.899
atomic mag. moment =    -0.081669
atom   23   Tr[ns(na)] (up, down, total) =   2.61438  2.69606  5.31044
   spin  1
    eigenvalues: 
  0.854  0.873  0.888
    eigenvectors:
  0.000  0.000  1.000
  0.500  0.500  0.000
  0.500  0.500  0.000
    occupations:
  0.888 -0.000  0.000
 -0.000  0.863 -0.010
  0.000 -0.010  0.863
   spin  2
    eigenvalues: 
  0.888  0.899  0.909
    eigenvectors:
  0.000  1.000  0.000
  0.500  0.000  0.500
  0.500  0.000  0.500
    occupations:
  0.899 -0.000  0.000
 -0.000  0.899  0.011
  0.000  0.011  0.899
atomic mag. moment =    -0.081672
atom   24   Tr[ns(na)] (up, down, total) =   2.61438  2.69606  5.31044
   spin  1
    eigenvalues: 
  0.854  0.873  0.888
    eigenvectors:
  0.000  0.000  1.000
  0.500  0.500  0.000
  0.500  0.500  0.000
    occupations:
  0.888  0.000 -0.000
  0.000  0.863 -0.010
 -0.000 -0.010  0.863
   spin  2
    eigenvalues: 
  0.888  0.899  0.909
    eigenvectors:
  0.000  1.000  0.000
  0.500  0.000  0.500
  0.500  0.000  0.500
    occupations:
  0.899  0.000 -0.000
  0.000  0.899  0.011
 -0.000  0.011  0.899
atomic mag. moment =    -0.081672
atom   25   Tr[ns(na)] (up, down, total) =   2.61442  2.69608  5.31050
   spin  1
    eigenvalues: 
  0.854  0.873  0.888
    eigenvectors:
  0.000  0.000  1.000
  0.500  0.500  0.000
  0.500  0.500  0.000
    occupations:
  0.888 -0.000 -0.000
 -0.000  0.863  0.010
 -0.000  0.010  0.863
   spin  2
    eigenvalues: 
  0.888  0.899  0.909
    eigenvectors:
  0.000  1.000  0.000
  0.500  0.000  0.500
  0.500  0.000  0.500
    occupations:
  0.899 -0.000 -0.000
 -0.000  0.899 -0.011
 -0.000 -0.011  0.899
atomic mag. moment =    -0.081659
atom   26   Tr[ns(na)] (up, down, total) =   2.61441  2.69608  5.31049
   spin  1
    eigenvalues: 
  0.854  0.873  0.888
    eigenvectors:
  0.000  0.000  1.000
  0.500  0.500  0.000
  0.500  0.500  0.000
    occupations:
  0.888 -0.000 -0.000
 -0.000  0.863  0.010
 -0.000  0.010  0.863
   spin  2
    eigenvalues: 
  0.888  0.899  0.909
    eigenvectors:
  0.000  1.000  0.000
  0.500  0.000  0.500
  0.500  0.000  0.500
    occupations:
  0.899 -0.000 -0.000
 -0.000  0.899 -0.011
 -0.000 -0.011  0.899
atomic mag. moment =    -0.081663
atom   27   Tr[ns(na)] (up, down, total) =   2.61440  2.69606  5.31046
   spin  1
    eigenvalues: 
  0.854  0.873  0.888
    eigenvectors:
  0.000  0.000  1.000
  0.500  0.500  0.000
  0.500  0.500  0.000
    occupations:
  0.888  0.000 -0.000
  0.000  0.863 -0.010
 -0.000 -0.010  0.863
   spin  2
    eigenvalues: 
  0.888  0.899  0.909
    eigenvectors:
  0.000  1.000  0.000
  0.500  0.000  0.500
  0.500  0.000  0.500
    occupations:
  0.899  0.000 -0.000
  0.000  0.899  0.011
 -0.000  0.011  0.899
atomic mag. moment =    -0.081665
atom   28   Tr[ns(na)] (up, down, total) =   2.61440  2.69606  5.31046
   spin  1
    eigenvalues: 
  0.854  0.873  0.888
    eigenvectors:
  0.000  0.000  1.000
  0.500  0.500  0.000
  0.500  0.500  0.000
    occupations:
  0.888  0.000 -0.000
  0.000  0.863 -0.010
 -0.000 -0.010  0.863
   spin  2
    eigenvalues: 
  0.888  0.899  0.909
    eigenvectors:
  0.000  1.000  0.000
  0.500  0.000  0.500
  0.500  0.000  0.500
    occupations:
  0.899  0.000 -0.000
  0.000  0.899  0.011
 -0.000  0.011  0.899
atomic mag. moment =    -0.081666
atom   29   Tr[ns(na)] (up, down, total) =   2.61443  2.69608  5.31051
   spin  1
    eigenvalues: 
  0.854  0.873  0.888
    eigenvectors:
  0.000  0.000  1.000
  0.500  0.500  0.000
  0.500  0.500  0.000
    occupations:
  0.888 -0.000 -0.000
 -0.000  0.863  0.010
 -0.000  0.010  0.863
   spin  2
    eigenvalues: 
  0.888  0.899  0.909
    eigenvectors:
  0.000  1.000  0.000
  0.500  0.000  0.500
  0.500  0.000  0.500
    occupations:
  0.899 -0.000 -0.000
 -0.000  0.899 -0.011
 -0.000 -0.011  0.899
atomic mag. moment =    -0.081653
atom   30   Tr[ns(na)] (up, down, total) =   2.61441  2.69607  5.31049
   spin  1
    eigenvalues: 
  0.854  0.873  0.888
    eigenvectors:
  0.000  0.000  1.000
  0.500  0.500  0.000
  0.500  0.500  0.000
    occupations:
  0.888 -0.000 -0.000
 -0.000  0.863  0.010
 -0.000  0.010  0.863
   spin  2
    eigenvalues: 
  0.888  0.899  0.909
    eigenvectors:
  0.000  1.000  0.000
  0.500  0.000  0.500
  0.500  0.000  0.500
    occupations:
  0.899 -0.000 -0.000
 -0.000  0.899 -0.011
 -0.000 -0.011  0.899
atomic mag. moment =    -0.081659
atom   31   Tr[ns(na)] (up, down, total) =   2.61440  2.69606  5.31046
   spin  1
    eigenvalues: 
  0.854  0.873  0.888
    eigenvectors:
  0.000  0.000  1.000
  0.500  0.500  0.000
  0.500  0.500  0.000
    occupations:
  0.888 -0.000  0.000
 -0.000  0.863 -0.010
  0.000 -0.010  0.863
   spin  2
    eigenvalues: 
  0.888  0.899  0.909
    eigenvectors:
  0.000  1.000  0.000
  0.500  0.000  0.500
  0.500  0.000  0.500
    occupations:
  0.899 -0.000  0.000
 -0.000  0.899  0.011
  0.000  0.011  0.899
atomic mag. moment =    -0.081665
atom   32   Tr[ns(na)] (up, down, total) =   2.61440  2.69606  5.31046
   spin  1
    eigenvalues: 
  0.854  0.873  0.888
    eigenvectors:
  0.000  0.000  1.000
  0.500  0.500  0.000
  0.500  0.500  0.000
    occupations:
  0.888 -0.000  0.000
 -0.000  0.863 -0.010
  0.000 -0.010  0.863
   spin  2
    eigenvalues: 
  0.888  0.899  0.909
    eigenvectors:
  0.000  1.000  0.000
  0.500  0.000  0.500
  0.500  0.000  0.500
    occupations:
  0.899 -0.000  0.000
 -0.000  0.899  0.011
  0.000  0.011  0.899
atomic mag. moment =    -0.081666
atom   33   Tr[ns(na)] (up, down, total) =   2.61442  2.69608  5.31050
   spin  1
    eigenvalues: 
  0.854  0.873  0.888
    eigenvectors:
  0.000  0.000  1.000
  0.500  0.500  0.000
  0.500  0.500  0.000
    occupations:
  0.888 -0.000 -0.000
 -0.000  0.863  0.010
 -0.000  0.010  0.863
   spin  2
    eigenvalues: 
  0.888  0.899  0.909
    eigenvectors:
  0.000  1.000  0.000
  0.500  0.000  0.500
  0.500  0.000  0.500
    occupations:
  0.899 -0.000 -0.000
 -0.000  0.899 -0.011
 -0.000 -0.011  0.899
atomic mag. moment =    -0.081659
atom   34   Tr[ns(na)] (up, down, total) =   2.61441  2.69608  5.31049
   spin  1
    eigenvalues: 
  0.854  0.873  0.888
    eigenvectors:
  0.000  0.000  1.000
  0.500  0.500  0.000
  0.500  0.500  0.000
    occupations:
  0.888 -0.000 -0.000
 -0.000  0.863  0.010
 -0.000  0.010  0.863
   spin  2
    eigenvalues: 
  0.888  0.899  0.909
    eigenvectors:
  0.000  1.000  0.000
  0.500  0.000  0.500
  0.500  0.000  0.500
    occupations:
  0.899 -0.000 -0.000
 -0.000  0.899 -0.011
 -0.000 -0.011  0.899
atomic mag. moment =    -0.081663
atom   35   Tr[ns(na)] (up, down, total) =   2.61440  2.69606  5.31046
   spin  1
    eigenvalues: 
  0.854  0.873  0.888
    eigenvectors:
  0.000  0.000  1.000
  0.500  0.500  0.000
  0.500  0.500  0.000
    occupations:
  0.888 -0.000  0.000
 -0.000  0.863 -0.010
  0.000 -0.010  0.863
   spin  2
    eigenvalues: 
  0.888  0.899  0.909
    eigenvectors:
  0.000  1.000  0.000
  0.500  0.000  0.500
  0.500  0.000  0.500
    occupations:
  0.899 -0.000  0.000
 -0.000  0.899  0.011
  0.000  0.011  0.899
atomic mag. moment =    -0.081666
atom   36   Tr[ns(na)] (up, down, total) =   2.61440  2.69606  5.31046
   spin  1
    eigenvalues: 
  0.854  0.873  0.888
    eigenvectors:
  0.000  0.000  1.000
  0.500  0.500  0.000
  0.500  0.500  0.000
    occupations:
  0.888 -0.000  0.000
 -0.000  0.863 -0.010
  0.000 -0.010  0.863
   spin  2
    eigenvalues: 
  0.888  0.899  0.909
    eigenvectors:
  0.000  1.000  0.000
  0.500  0.000  0.500
  0.500  0.000  0.500
    occupations:
  0.899 -0.000  0.000
 -0.000  0.899  0.011
  0.000  0.011  0.899
atomic mag. moment =    -0.081665
atom   37   Tr[ns(na)] (up, down, total) =   2.61443  2.69608  5.31051
   spin  1
    eigenvalues: 
  0.854  0.873  0.888
    eigenvectors:
  0.000  0.000  1.000
  0.500  0.500  0.000
  0.500  0.500  0.000
    occupations:
  0.888 -0.000 -0.000
 -0.000  0.863  0.010
 -0.000  0.010  0.863
   spin  2
    eigenvalues: 
  0.888  0.899  0.909
    eigenvectors:
  0.000  1.000  0.000
  0.500  0.000  0.500
  0.500  0.000  0.500
    occupations:
  0.899 -0.000 -0.000
 -0.000  0.899 -0.011
 -0.000 -0.011  0.899
atomic mag. moment =    -0.081653
atom   38   Tr[ns(na)] (up, down, total) =   2.61441  2.69607  5.31049
   spin  1
    eigenvalues: 
  0.854  0.873  0.888
    eigenvectors:
  0.000  0.000  1.000
  0.500  0.500  0.000
  0.500  0.500  0.000
    occupations:
  0.888 -0.000 -0.000
 -0.000  0.863  0.010
 -0.000  0.010  0.863
   spin  2
    eigenvalues: 
  0.888  0.899  0.909
    eigenvectors:
  0.000  1.000  0.000
  0.500  0.000  0.500
  0.500  0.000  0.500
    occupations:
  0.899 -0.000 -0.000
 -0.000  0.899 -0.011
 -0.000 -0.011  0.899
atomic mag. moment =    -0.081659
atom   39   Tr[ns(na)] (up, down, total) =   2.61440  2.69606  5.31046
   spin  1
    eigenvalues: 
  0.854  0.873  0.888
    eigenvectors:
  0.000  0.000  1.000
  0.500  0.500  0.000
  0.500  0.500  0.000
    occupations:
  0.888  0.000 -0.000
  0.000  0.863 -0.010
 -0.000 -0.010  0.863
   spin  2
    eigenvalues: 
  0.888  0.899  0.909
    eigenvectors:
  0.000  1.000  0.000
  0.500  0.000  0.500
  0.500  0.000  0.500
    occupations:
  0.899  0.000 -0.000
  0.000  0.899  0.011
 -0.000  0.011  0.899
atomic mag. moment =    -0.081666
atom   40   Tr[ns(na)] (up, down, total) =   2.61440  2.69606  5.31046
   spin  1
    eigenvalues: 
  0.854  0.873  0.888
    eigenvectors:
  0.000  0.000  1.000
  0.500  0.500  0.000
  0.500  0.500  0.000
    occupations:
  0.888  0.000 -0.000
  0.000  0.863 -0.010
 -0.000 -0.010  0.863
   spin  2
    eigenvalues: 
  0.888  0.899  0.909
    eigenvectors:
  0.000  1.000  0.000
  0.500  0.000  0.500
  0.500  0.000  0.500
    occupations:
  0.899  0.000 -0.000
  0.000  0.899  0.011
 -0.000  0.011  0.899
atomic mag. moment =    -0.081665
atom   41   Tr[ns(na)] (up, down, total) =   2.61444  2.69611  5.31054
   spin  1
    eigenvalues: 
  0.854  0.873  0.888
    eigenvectors:
  0.000  0.000  1.000
  0.500  0.500  0.000
  0.500  0.500  0.000
    occupations:
  0.888 -0.000 -0.000
 -0.000  0.863  0.010
 -0.000  0.010  0.863
   spin  2
    eigenvalues: 
  0.888  0.899  0.909
    eigenvectors:
  0.000  1.000  0.000
  0.500  0.000  0.500
  0.500  0.000  0.500
    occupations:
  0.899 -0.000 -0.000
 -0.000  0.899 -0.011
 -0.000 -0.011  0.899
atomic mag. moment =    -0.081670
atom   42   Tr[ns(na)] (up, down, total) =   2.61444  2.69609  5.31053
   spin  1
    eigenvalues: 
  0.854  0.873  0.888
    eigenvectors:
  0.000  0.000  1.000
  0.500  0.500  0.000
  0.500  0.500  0.000
    occupations:
  0.888 -0.000 -0.000
 -0.000  0.863  0.010
 -0.000  0.010  0.863
   spin  2
    eigenvalues: 
  0.888  0.899  0.909
    eigenvectors:
  0.000  1.000  0.000
  0.500  0.000  0.500
  0.500  0.000  0.500
    occupations:
  0.899 -0.000 -0.000
 -0.000  0.899 -0.011
 -0.000 -0.011  0.899
atomic mag. moment =    -0.081647
atom   43   Tr[ns(na)] (up, down, total) =   2.61440  2.69607  5.31047
   spin  1
    eigenvalues: 
  0.854  0.873  0.888
    eigenvectors:
  0.000  0.000  1.000
  0.500  0.500  0.000
  0.500  0.500  0.000
    occupations:
  0.888  0.000 -0.000
  0.000  0.863 -0.010
 -0.000 -0.010  0.863
   spin  2
    eigenvalues: 
  0.888  0.899  0.909
    eigenvectors:
  0.000  1.000  0.000
  0.500  0.000  0.500
  0.500  0.000  0.500
    occupations:
  0.899  0.000 -0.000
  0.000  0.899  0.011
 -0.000  0.011  0.899
atomic mag. moment =    -0.081674
atom   44   Tr[ns(na)] (up, down, total) =   2.61440  2.69607  5.31047
   spin  1
    eigenvalues: 
  0.854  0.873  0.888
    eigenvectors:
  0.000  0.000  1.000
  0.500  0.500  0.000
  0.500  0.500  0.000
    occupations:
  0.888 -0.000  0.000
 -0.000  0.863 -0.010
  0.000 -0.010  0.863
   spin  2
    eigenvalues: 
  0.888  0.899  0.909
    eigenvectors:
  0.000  1.000  0.000
  0.500  0.000  0.500
  0.500  0.000  0.500
    occupations:
  0.899 -0.000  0.000
 -0.000  0.899  0.011
  0.000  0.011  0.899
atomic mag. moment =    -0.081674
atom   45   Tr[ns(na)] (up, down, total) =   2.61444  2.69610  5.31054
   spin  1
    eigenvalues: 
  0.854  0.873  0.888
    eigenvectors:
  0.000  0.000  1.000
  0.500  0.500  0.000
  0.500  0.500  0.000
    occupations:
  0.888 -0.000 -0.000
 -0.000  0.863  0.010
 -0.000  0.010  0.863
   spin  2
    eigenvalues: 
  0.888  0.899  0.909
    eigenvectors:
  0.000  1.000  0.000
  0.500  0.000  0.500
  0.500  0.000  0.500
    occupations:
  0.899 -0.000 -0.000
 -0.000  0.899 -0.011
 -0.000 -0.011  0.899
atomic mag. moment =    -0.081653
atom   46   Tr[ns(na)] (up, down, total) =   2.61444  2.69608  5.31052
   spin  1
    eigenvalues: 
  0.854  0.873  0.888
    eigenvectors:
  0.000  0.000  1.000
  0.500  0.500  0.000
  0.500  0.500  0.000
    occupations:
  0.888 -0.000 -0.000
 -0.000  0.863  0.010
 -0.000  0.010  0.863
   spin  2
    eigenvalues: 
  0.888  0.899  0.909
    eigenvectors:
  0.000  1.000  0.000
  0.500  0.000  0.500
  0.500  0.000  0.500
    occupations:
  0.899 -0.000 -0.000
 -0.000  0.899 -0.011
 -0.000 -0.011  0.899
atomic mag. moment =    -0.081632
atom   47   Tr[ns(na)] (up, down, total) =   2.61440  2.69607  5.31047
   spin  1
    eigenvalues: 
  0.854  0.873  0.888
    eigenvectors:
  0.000  0.000  1.000
  0.500  0.500  0.000
  0.500  0.500  0.000
    occupations:
  0.888 -0.000  0.000
 -0.000  0.863 -0.010
  0.000 -0.010  0.863
   spin  2
    eigenvalues: 
  0.888  0.899  0.909
    eigenvectors:
  0.000  1.000  0.000
  0.500  0.000  0.500
  0.500  0.000  0.500
    occupations:
  0.899 -0.000  0.000
 -0.000  0.899  0.011
  0.000  0.011  0.899
atomic mag. moment =    -0.081674
atom   48   Tr[ns(na)] (up, down, total) =   2.61440  2.69607  5.31047
   spin  1
    eigenvalues: 
  0.854  0.873  0.888
    eigenvectors:
  0.000  0.000  1.000
  0.500  0.500  0.000
  0.500  0.500  0.000
    occupations:
  0.888  0.000 -0.000
  0.000  0.863 -0.010
 -0.000 -0.010  0.863
   spin  2
    eigenvalues: 
  0.888  0.899  0.909
    eigenvectors:
  0.000  1.000  0.000
  0.500  0.000  0.500
  0.500  0.000  0.500
    occupations:
  0.899  0.000 -0.000
  0.000  0.899  0.011
 -0.000  0.011  0.899
atomic mag. moment =    -0.081674
N of occupied +U levels = 245.6984710
 --- exit write_ns ---
 Atomic wfc used for LDA+U Projector are NOT orthogonalized
     Starting wfc from file

     total cpu time spent up to now is      103.9 secs

     per-process dynamical memory:    84.2 Mb

     Self-consistent Calculation

     iteration #  1     ecut=    40.00 Ry     beta=0.70
     Davidson diagonalization with overlap
     ethr =  2.49E-10,  avg # of iterations =  5.6
 --- enter write_ns ---
 LDA+U parameters:
U( 1)     =  0.00000000
alpha( 1) =  0.00000000
U( 2)     =  0.00000000
alpha( 2) = -0.07000000
U( 3)     =  0.00000000
alpha( 3) =  0.00000000
atom    1   Tr[ns(na)] (up, down, total) =   3.40186  1.32398  4.72584
   spin  1
    eigenvalues: 
  0.480  0.517  0.635  0.797  0.973
    eigenvectors:
  0.000  0.290  0.000  0.000  0.710
  0.500  0.000  0.000  0.500  0.000
  0.500  0.000  0.000  0.500  0.000
  0.000  0.000  1.000  0.000  0.000
  0.000  0.710  0.000  0.000  0.290
    occupations:
  0.841 -0.000 -0.000 -0.000  0.207
 -0.000  0.638  0.159  0.000  0.000
 -0.000  0.159  0.638  0.000  0.000
 -0.000  0.000  0.000  0.635 -0.000
  0.207  0.000  0.000 -0.000  0.650
   spin  2
    eigenvalues: 
  0.134  0.187  0.214  0.389  0.399
    eigenvectors:
  0.711  0.000  0.000  0.000  0.289
  0.000  0.500  0.000  0.500  0.000
  0.000  0.500  0.000  0.500  0.000
  0.000  0.000  1.000  0.000  0.000
  0.289  0.000  0.000  0.000  0.711
    occupations:
  0.211 -0.000 -0.000  0.000 -0.120
 -0.000  0.288 -0.101  0.000  0.000
 -0.000 -0.101  0.288  0.000  0.000
  0.000  0.000  0.000  0.214 -0.000
 -0.120  0.000  0.000 -0.000  0.323
atomic mag. moment =     2.077874
atom    2   Tr[ns(na)] (up, down, total) =   3.40497  1.32485  4.72983
   spin  1
    eigenvalues: 
  0.479  0.518  0.636  0.799  0.973
    eigenvectors:
  0.000  0.290  0.000  0.000  0.710
  0.500  0.000  0.000  0.500  0.000
  0.500  0.000  0.000  0.500  0.000
  0.000  0.000  1.000  0.000  0.000
  0.000  0.710  0.000  0.000  0.290
    occupations:
  0.841  0.000  0.000  0.000 -0.206
  0.000  0.639 -0.160 -0.000  0.000
  0.000 -0.160  0.639  0.000  0.000
  0.000 -0.000  0.000  0.636 -0.000
 -0.206  0.000  0.000 -0.000  0.650
   spin  2
    eigenvalues: 
  0.134  0.187  0.215  0.389  0.400
    eigenvectors:
  0.711  0.000  0.000  0.000  0.289
  0.000  0.500  0.000  0.500  0.000
  0.000  0.500  0.000  0.500  0.000
  0.000  0.000  1.000  0.000  0.000
  0.289  0.000  0.000  0.000  0.711
    occupations:
  0.211  0.000  0.000 -0.000  0.120
  0.000  0.288  0.101  0.000  0.000
  0.000  0.101  0.288 -0.000  0.000
 -0.000  0.000 -0.000  0.215 -0.000
  0.120  0.000  0.000 -0.000  0.323
atomic mag. moment =     2.080118
atom    3   Tr[ns(na)] (up, down, total) =   3.41362  1.32869  4.74231
   spin  1
    eigenvalues: 
  0.480  0.519  0.639  0.801  0.973
    eigenvectors:
  0.000  0.290  0.000  0.000  0.710
  0.500  0.000  0.000  0.500  0.000
  0.500  0.000  0.000  0.500  0.000
  0.000  0.000  1.000  0.000  0.000
  0.000  0.710  0.000  0.000  0.290
    occupations:
  0.841 -0.000 -0.000 -0.000  0.206
 -0.000  0.641  0.161  0.000  0.000
 -0.000  0.161  0.641  0.000  0.000
 -0.000  0.000  0.000  0.639 -0.000
  0.206  0.000  0.000 -0.000  0.651
   spin  2
    eigenvalues: 
  0.135  0.188  0.216  0.390  0.400
    eigenvectors:
  0.711  0.000  0.000  0.000  0.289
  0.000  0.500  0.000  0.500  0.000
  0.000  0.500  0.000  0.500  0.000
  0.000  0.000  1.000  0.000  0.000
  0.289  0.000  0.000  0.000  0.711
    occupations:
  0.211 -0.000 -0.000  0.000 -0.120
 -0.000  0.289 -0.101  0.000  0.000
 -0.000 -0.101  0.289  0.000  0.000
  0.000  0.000  0.000  0.216 -0.000
 -0.120  0.000  0.000 -0.000  0.324
atomic mag. moment =     2.084934
atom    4   Tr[ns(na)] (up, down, total) =   3.40497  1.32485  4.72983
   spin  1
    eigenvalues: 
  0.479  0.518  0.636  0.799  0.973
    eigenvectors:
  0.000  0.290  0.000  0.000  0.710
  0.500  0.000  0.000  0.500  0.000
  0.500  0.000  0.000  0.500  0.000
  0.000  0.000  1.000  0.000  0.000
  0.000  0.710  0.000  0.000  0.290
    occupations:
  0.841 -0.000 -0.000  0.000 -0.206
 -0.000  0.639 -0.160  0.000 -0.000
 -0.000 -0.160  0.639 -0.000 -0.000
  0.000  0.000 -0.000  0.636 -0.000
 -0.206 -0.000 -0.000 -0.000  0.650
   spin  2
    eigenvalues: 
  0.134  0.187  0.215  0.389  0.400
    eigenvectors:
  0.711  0.000  0.000  0.000  0.289
  0.000  0.500  0.000  0.500  0.000
  0.000  0.500  0.000  0.500  0.000
  0.000  0.000  1.000  0.000  0.000
  0.289  0.000  0.000  0.000  0.711
    occupations:
  0.211 -0.000 -0.000 -0.000  0.120
 -0.000  0.288  0.101 -0.000 -0.000
 -0.000  0.101  0.288  0.000 -0.000
 -0.000 -0.000  0.000  0.215 -0.000
  0.120 -0.000 -0.000 -0.000  0.323
atomic mag. moment =     2.080118
atom    5   Tr[ns(na)] (up, down, total) =   3.41023  1.32775  4.73798
   spin  1
    eigenvalues: 
  0.480  0.519  0.638  0.800  0.973
    eigenvectors:
  0.000  0.290  0.000  0.000  0.710
  0.500  0.000  0.000  0.500  0.000
  0.500  0.000  0.000  0.500  0.000
  0.000  0.000  1.000  0.000  0.000
  0.000  0.710  0.000  0.000  0.290
    occupations:
  0.841 -0.000 -0.000 -0.000  0.206
 -0.000  0.640  0.160  0.000  0.000
 -0.000  0.160  0.640  0.000  0.000
 -0.000  0.000  0.000  0.638 -0.000
  0.206  0.000  0.000 -0.000  0.651
   spin  2
    eigenvalues: 
  0.134  0.188  0.215  0.390  0.400
    eigenvectors:
  0.711  0.000  0.000  0.000  0.289
  0.000  0.500  0.000  0.500  0.000
  0.000  0.500  0.000  0.500  0.000
  0.000  0.000  1.000  0.000  0.000
  0.289  0.000  0.000  0.000  0.711
    occupations:
  0.211 -0.000 -0.000 -0.000 -0.120
 -0.000  0.289 -0.101  0.000  0.000
 -0.000 -0.101  0.289  0.000  0.000
 -0.000  0.000  0.000  0.215 -0.000
 -0.120  0.000  0.000 -0.000  0.323
atomic mag. moment =     2.082483
atom    6   Tr[ns(na)] (up, down, total) =   3.40715  1.32691  4.73407
   spin  1
    eigenvalues: 
  0.480  0.519  0.637  0.799  0.973
    eigenvectors:
  0.000  0.290  0.000  0.000  0.710
  0.500  0.000  0.000  0.500  0.000
  0.500  0.000  0.000  0.500  0.000
  0.000  0.000  1.000  0.000  0.000
  0.000  0.710  0.000  0.000  0.290
    occupations:
  0.841  0.000 -0.000 -0.000 -0.206
  0.000  0.639 -0.159 -0.000  0.000
 -0.000 -0.159  0.639  0.000 -0.000
 -0.000 -0.000  0.000  0.637 -0.000
 -0.206  0.000 -0.000 -0.000  0.650
   spin  2
    eigenvalues: 
  0.134  0.188  0.215  0.389  0.400
    eigenvectors:
  0.711  0.000  0.000  0.000  0.289
  0.000  0.500  0.000  0.500  0.000
  0.000  0.500  0.000  0.500  0.000
  0.000  0.000  1.000  0.000  0.000
  0.289  0.000  0.000  0.000  0.711
    occupations:
  0.211 -0.000  0.000  0.000  0.120
 -0.000  0.289  0.101 -0.000 -0.000
  0.000  0.101  0.289  0.000  0.000
  0.000 -0.000  0.000  0.215 -0.000
  0.120 -0.000  0.000 -0.000  0.323
atomic mag. moment =     2.080240
atom    7   Tr[ns(na)] (up, down, total) =   3.40762  1.32697  4.73459
   spin  1
    eigenvalues: 
  0.480  0.519  0.637  0.799  0.973
    eigenvectors:
  0.000  0.290  0.000  0.000  0.710
  0.500  0.000  0.000  0.500  0.000
  0.500  0.000  0.000  0.500  0.000
  0.000  0.000  1.000  0.000  0.000
  0.000  0.710  0.000  0.000  0.290
    occupations:
  0.841 -0.000 -0.000  0.000  0.206
 -0.000  0.639  0.159  0.000  0.000
 -0.000  0.159  0.639  0.000  0.000
  0.000  0.000  0.000  0.637 -0.000
  0.206  0.000  0.000 -0.000  0.650
   spin  2
    eigenvalues: 
  0.134  0.188  0.215  0.389  0.400
    eigenvectors:
  0.711  0.000  0.000  0.000  0.289
  0.000  0.500  0.000  0.500  0.000
  0.000  0.500  0.000  0.500  0.000
  0.000  0.000  1.000  0.000  0.000
  0.289  0.000  0.000  0.000  0.711
    occupations:
  0.211 -0.000 -0.000 -0.000 -0.120
 -0.000  0.289 -0.101  0.000  0.000
 -0.000 -0.101  0.289  0.000  0.000
 -0.000  0.000  0.000  0.215  0.000
 -0.120  0.000  0.000  0.000  0.323
atomic mag. moment =     2.080644
atom    8   Tr[ns(na)] (up, down, total) =   3.40715  1.32691  4.73407
   spin  1
    eigenvalues: 
  0.480  0.519  0.637  0.799  0.973
    eigenvectors:
  0.000  0.290  0.000  0.000  0.710
  0.500  0.000  0.000  0.500  0.000
  0.500  0.000  0.000  0.500  0.000
  0.000  0.000  1.000  0.000  0.000
  0.000  0.710  0.000  0.000  0.290
    occupations:
  0.841 -0.000  0.000 -0.000 -0.206
 -0.000  0.639 -0.159  0.000 -0.000
  0.000 -0.159  0.639 -0.000  0.000
 -0.000  0.000 -0.000  0.637 -0.000
 -0.206 -0.000  0.000 -0.000  0.650
   spin  2
    eigenvalues: 
  0.134  0.188  0.215  0.389  0.400
    eigenvectors:
  0.711  0.000  0.000  0.000  0.289
  0.000  0.500  0.000  0.500  0.000
  0.000  0.500  0.000  0.500  0.000
  0.000  0.000  1.000  0.000  0.000
  0.289  0.000  0.000  0.000  0.711
    occupations:
  0.211  0.000 -0.000  0.000  0.120
  0.000  0.289  0.101  0.000  0.000
 -0.000  0.101  0.289 -0.000 -0.000
  0.000  0.000 -0.000  0.215 -0.000
  0.120  0.000 -0.000 -0.000  0.323
atomic mag. moment =     2.080240
atom    9   Tr[ns(na)] (up, down, total) =   3.41023  1.32775  4.73798
   spin  1
    eigenvalues: 
  0.480  0.519  0.638  0.800  0.973
    eigenvectors:
  0.000  0.290  0.000  0.000  0.710
  0.500  0.000  0.000  0.500  0.000
  0.500  0.000  0.000  0.500  0.000
  0.000  0.000  1.000  0.000  0.000
  0.000  0.710  0.000  0.000  0.290
    occupations:
  0.841 -0.000 -0.000  0.000  0.206
 -0.000  0.640  0.160  0.000  0.000
 -0.000  0.160  0.640  0.000  0.000
  0.000  0.000  0.000  0.638  0.000
  0.206  0.000  0.000  0.000  0.651
   spin  2
    eigenvalues: 
  0.134  0.188  0.215  0.390  0.400
    eigenvectors:
  0.711  0.000  0.000  0.000  0.289
  0.000  0.500  0.000  0.500  0.000
  0.000  0.500  0.000  0.500  0.000
  0.000  0.000  1.000  0.000  0.000
  0.289  0.000  0.000  0.000  0.711
    occupations:
  0.211 -0.000 -0.000  0.000 -0.120
 -0.000  0.289 -0.101  0.000  0.000
 -0.000 -0.101  0.289  0.000  0.000
  0.000  0.000  0.000  0.215  0.000
 -0.120  0.000  0.000  0.000  0.323
atomic mag. moment =     2.082483
atom   10   Tr[ns(na)] (up, down, total) =   3.40715  1.32691  4.73407
   spin  1
    eigenvalues: 
  0.480  0.519  0.637  0.799  0.973
    eigenvectors:
  0.000  0.290  0.000  0.000  0.710
  0.500  0.000  0.000  0.500  0.000
  0.500  0.000  0.000  0.500  0.000
  0.000  0.000  1.000  0.000  0.000
  0.000  0.710  0.000  0.000  0.290
    occupations:
  0.841 -0.000  0.000  0.000 -0.206
 -0.000  0.639 -0.159 -0.000 -0.000
  0.000 -0.159  0.639  0.000  0.000
  0.000 -0.000  0.000  0.637  0.000
 -0.206 -0.000  0.000  0.000  0.650
   spin  2
    eigenvalues: 
  0.134  0.188  0.215  0.389  0.400
    eigenvectors:
  0.711  0.000  0.000  0.000  0.289
  0.000  0.500  0.000  0.500  0.000
  0.000  0.500  0.000  0.500  0.000
  0.000  0.000  1.000  0.000  0.000
  0.289  0.000  0.000  0.000  0.711
    occupations:
  0.211  0.000 -0.000 -0.000  0.120
  0.000  0.289  0.101 -0.000  0.000
 -0.000  0.101  0.289  0.000 -0.000
 -0.000 -0.000  0.000  0.215  0.000
  0.120  0.000 -0.000  0.000  0.323
atomic mag. moment =     2.080240
atom   11   Tr[ns(na)] (up, down, total) =   3.40762  1.32697  4.73459
   spin  1
    eigenvalues: 
  0.480  0.519  0.637  0.799  0.973
    eigenvectors:
  0.000  0.290  0.000  0.000  0.710
  0.500  0.000  0.000  0.500  0.000
  0.500  0.000  0.000  0.500  0.000
  0.000  0.000  1.000  0.000  0.000
  0.000  0.710  0.000  0.000  0.290
    occupations:
  0.841 -0.000 -0.000 -0.000  0.206
 -0.000  0.639  0.159  0.000  0.000
 -0.000  0.159  0.639  0.000  0.000
 -0.000  0.000  0.000  0.637  0.000
  0.206  0.000  0.000  0.000  0.650
   spin  2
    eigenvalues: 
  0.134  0.188  0.215  0.389  0.400
    eigenvectors:
  0.711  0.000  0.000  0.000  0.289
  0.000  0.500  0.000  0.500  0.000
  0.000  0.500  0.000  0.500  0.000
  0.000  0.000  1.000  0.000  0.000
  0.289  0.000  0.000  0.000  0.711
    occupations:
  0.211 -0.000 -0.000  0.000 -0.120
 -0.000  0.289 -0.101  0.000  0.000
 -0.000 -0.101  0.289  0.000  0.000
  0.000  0.000  0.000  0.215 -0.000
 -0.120  0.000  0.000 -0.000  0.323
atomic mag. moment =     2.080644
atom   12   Tr[ns(na)] (up, down, total) =   3.40715  1.32691  4.73407
   spin  1
    eigenvalues: 
  0.480  0.519  0.637  0.799  0.973
    eigenvectors:
  0.000  0.290  0.000  0.000  0.710
  0.500  0.000  0.000  0.500  0.000
  0.500  0.000  0.000  0.500  0.000
  0.000  0.000  1.000  0.000  0.000
  0.000  0.710  0.000  0.000  0.290
    occupations:
  0.841  0.000 -0.000  0.000 -0.206
  0.000  0.639 -0.159  0.000  0.000
 -0.000 -0.159  0.639 -0.000 -0.000
  0.000  0.000 -0.000  0.637  0.000
 -0.206  0.000 -0.000  0.000  0.650
   spin  2
    eigenvalues: 
  0.134  0.188  0.215  0.389  0.400
    eigenvectors:
  0.711  0.000  0.000  0.000  0.289
  0.000  0.500  0.000  0.500  0.000
  0.000  0.500  0.000  0.500  0.000
  0.000  0.000  1.000  0.000  0.000
  0.289  0.000  0.000  0.000  0.711
    occupations:
  0.211 -0.000  0.000 -0.000  0.120
 -0.000  0.289  0.101  0.000 -0.000
  0.000  0.101  0.289 -0.000  0.000
 -0.000  0.000 -0.000  0.215  0.000
  0.120 -0.000  0.000  0.000  0.323
atomic mag. moment =     2.080240
atom   13   Tr[ns(na)] (up, down, total) =   3.41252  1.32843  4.74095
   spin  1
    eigenvalues: 
  0.480  0.519  0.639  0.801  0.973
    eigenvectors:
  0.000  0.290  0.000  0.000  0.710
  0.500  0.000  0.000  0.500  0.000
  0.500  0.000  0.000  0.500  0.000
  0.000  0.000  1.000  0.000  0.000
  0.000  0.710  0.000  0.000  0.290
    occupations:
  0.841 -0.000 -0.000 -0.000  0.206
 -0.000  0.641  0.160  0.000  0.000
 -0.000  0.160  0.641  0.000  0.000
 -0.000  0.000  0.000  0.639 -0.000
  0.206  0.000  0.000 -0.000  0.651
   spin  2
    eigenvalues: 
  0.135  0.188  0.216  0.390  0.400
    eigenvectors:
  0.711  0.000  0.000  0.000  0.289
  0.000  0.500  0.000  0.500  0.000
  0.000  0.500  0.000  0.500  0.000
  0.000  0.000  1.000  0.000  0.000
  0.289  0.000  0.000  0.000  0.711
    occupations:
  0.211 -0.000 -0.000  0.000 -0.120
 -0.000  0.289 -0.101  0.000  0.000
 -0.000 -0.101  0.289  0.000  0.000
  0.000  0.000  0.000  0.216 -0.000
 -0.120  0.000  0.000 -0.000  0.324
atomic mag. moment =     2.084094
atom   14   Tr[ns(na)] (up, down, total) =   3.41006  1.32782  4.73788
   spin  1
    eigenvalues: 
  0.480  0.519  0.638  0.800  0.973
    eigenvectors:
  0.000  0.290  0.000  0.000  0.710
  0.500  0.000  0.000  0.500  0.000
  0.500  0.000  0.000  0.500  0.000
  0.000  0.000  1.000  0.000  0.000
  0.000  0.710  0.000  0.000  0.290
    occupations:
  0.841 -0.000 -0.000  0.000 -0.206
 -0.000  0.640 -0.160  0.000  0.000
 -0.000 -0.160  0.640 -0.000  0.000
  0.000  0.000 -0.000  0.638 -0.000
 -0.206  0.000  0.000 -0.000  0.651
   spin  2
    eigenvalues: 
  0.134  0.188  0.215  0.390  0.400
    eigenvectors:
  0.711  0.000  0.000  0.000  0.289
  0.000  0.500  0.000  0.500  0.000
  0.000  0.500  0.000  0.500  0.000
  0.000  0.000  1.000  0.000  0.000
  0.289  0.000  0.000  0.000  0.711
    occupations:
  0.211  0.000  0.000 -0.000  0.120
  0.000  0.289  0.101  0.000  0.000
  0.000  0.101  0.289 -0.000  0.000
 -0.000  0.000 -0.000  0.215 -0.000
  0.120  0.000  0.000 -0.000  0.323
atomic mag. moment =     2.082237
atom   15   Tr[ns(na)] (up, down, total) =   3.40372  1.32587  4.72959
   spin  1
    eigenvalues: 
  0.480  0.518  0.636  0.798  0.973
    eigenvectors:
  0.000  0.290  0.000  0.000  0.710
  0.500  0.000  0.000  0.500  0.000
  0.500  0.000  0.000  0.500  0.000
  0.000  0.000  1.000  0.000  0.000
  0.000  0.710  0.000  0.000  0.290
    occupations:
  0.841 -0.000 -0.000 -0.000  0.206
 -0.000  0.639  0.159  0.000  0.000
 -0.000  0.159  0.639  0.000  0.000
 -0.000  0.000  0.000  0.636 -0.000
  0.206  0.000  0.000 -0.000  0.650
   spin  2
    eigenvalues: 
  0.134  0.188  0.215  0.389  0.400
    eigenvectors:
  0.711  0.000  0.000  0.000  0.289
  0.000  0.500  0.000  0.500  0.000
  0.000  0.500  0.000  0.500  0.000
  0.000  0.000  1.000  0.000  0.000
  0.289  0.000  0.000  0.000  0.711
    occupations:
  0.211 -0.000 -0.000  0.000 -0.120
 -0.000  0.288 -0.101  0.000  0.000
 -0.000 -0.101  0.288  0.000  0.000
  0.000  0.000  0.000  0.215 -0.000
 -0.120  0.000  0.000 -0.000  0.323
atomic mag. moment =     2.077858
atom   16   Tr[ns(na)] (up, down, total) =   3.41006  1.32782  4.73788
   spin  1
    eigenvalues: 
  0.480  0.519  0.638  0.800  0.973
    eigenvectors:
  0.000  0.290  0.000  0.000  0.710
  0.500  0.000  0.000  0.500  0.000
  0.500  0.000  0.000  0.500  0.000
  0.000  0.000  1.000  0.000  0.000
  0.000  0.710  0.000  0.000  0.290
    occupations:
  0.841  0.000  0.000  0.000 -0.206
  0.000  0.640 -0.160 -0.000 -0.000
  0.000 -0.160  0.640  0.000 -0.000
  0.000 -0.000  0.000  0.638 -0.000
 -0.206 -0.000 -0.000 -0.000  0.651
   spin  2
    eigenvalues: 
  0.134  0.188  0.215  0.390  0.400
    eigenvectors:
  0.711  0.000  0.000  0.000  0.289
  0.000  0.500  0.000  0.500  0.000
  0.000  0.500  0.000  0.500  0.000
  0.000  0.000  1.000  0.000  0.000
  0.289  0.000  0.000  0.000  0.711
    occupations:
  0.211 -0.000 -0.000 -0.000  0.120
 -0.000  0.289  0.101 -0.000 -0.000
 -0.000  0.101  0.289  0.000 -0.000
 -0.000 -0.000  0.000  0.215 -0.000
  0.120 -0.000 -0.000 -0.000  0.323
atomic mag. moment =     2.082237
atom   17   Tr[ns(na)] (up, down, total) =   2.62339  2.70123  5.32462
   spin  1
    eigenvalues: 
  0.859  0.875  0.890
    eigenvectors:
  0.000  0.000  1.000
  0.500  0.500  0.000
  0.500  0.500  0.000
    occupations:
  0.890 -0.000 -0.000
 -0.000  0.867  0.008
 -0.000  0.008  0.867
   spin  2
    eigenvalues: 
  0.889  0.900  0.911
    eigenvectors:
  0.000  1.000  0.000
  0.500  0.000  0.500
  0.500  0.000  0.500
    occupations:
  0.900 -0.000 -0.000
 -0.000  0.900 -0.011
 -0.000 -0.011  0.900
atomic mag. moment =    -0.077836
atom   18   Tr[ns(na)] (up, down, total) =   2.61361  2.69591  5.30952
   spin  1
    eigenvalues: 
  0.853  0.873  0.888
    eigenvectors:
  0.000  0.000  1.000
  0.500  0.500  0.000
  0.500  0.500  0.000
    occupations:
  0.888 -0.000 -0.000
 -0.000  0.863  0.010
 -0.000  0.010  0.863
   spin  2
    eigenvalues: 
  0.888  0.899  0.909
    eigenvectors:
  0.000  1.000  0.000
  0.500  0.000  0.500
  0.500  0.000  0.500
    occupations:
  0.899 -0.000 -0.000
 -0.000  0.899 -0.011
 -0.000 -0.011  0.899
atomic mag. moment =    -0.082295
atom   19   Tr[ns(na)] (up, down, total) =   2.61425  2.69605  5.31030
   spin  1
    eigenvalues: 
  0.854  0.873  0.888
    eigenvectors:
  0.000  0.000  1.000
  0.500  0.500  0.000
  0.500  0.500  0.000
    occupations:
  0.888  0.000  0.000
  0.000  0.863 -0.010
  0.000 -0.010  0.863
   spin  2
    eigenvalues: 
  0.888  0.899  0.909
    eigenvectors:
  0.000  1.000  0.000
  0.500  0.000  0.500
  0.500  0.000  0.500
    occupations:
  0.899 -0.000  0.000
 -0.000  0.899  0.011
  0.000  0.011  0.899
atomic mag. moment =    -0.081806
atom   20   Tr[ns(na)] (up, down, total) =   2.61425  2.69605  5.31030
   spin  1
    eigenvalues: 
  0.854  0.873  0.888
    eigenvectors:
  0.000  0.000  1.000
  0.500  0.500  0.000
  0.500  0.500  0.000
    occupations:
  0.888  0.000  0.000
  0.000  0.863 -0.010
  0.000 -0.010  0.863
   spin  2
    eigenvalues: 
  0.888  0.899  0.909
    eigenvectors:
  0.000  1.000  0.000
  0.500  0.000  0.500
  0.500  0.000  0.500
    occupations:
  0.899  0.000 -0.000
  0.000  0.899  0.011
 -0.000  0.011  0.899
atomic mag. moment =    -0.081806
atom   21   Tr[ns(na)] (up, down, total) =   2.61411  2.69589  5.31000
   spin  1
    eigenvalues: 
  0.854  0.873  0.888
    eigenvectors:
  0.000  0.000  1.000
  0.500  0.500  0.000
  0.500  0.500  0.000
    occupations:
  0.888 -0.000 -0.000
 -0.000  0.863  0.010
 -0.000  0.010  0.863
   spin  2
    eigenvalues: 
  0.888  0.899  0.909
    eigenvectors:
  0.000  1.000  0.000
  0.500  0.000  0.500
  0.500  0.000  0.500
    occupations:
  0.899 -0.000 -0.000
 -0.000  0.899 -0.011
 -0.000 -0.011  0.899
atomic mag. moment =    -0.081786
atom   22   Tr[ns(na)] (up, down, total) =   2.61437  2.69581  5.31017
   spin  1
    eigenvalues: 
  0.854  0.873  0.888
    eigenvectors:
  0.000  0.000  1.000
  0.500  0.500  0.000
  0.500  0.500  0.000
    occupations:
  0.888 -0.000 -0.000
 -0.000  0.863  0.010
 -0.000  0.010  0.863
   spin  2
    eigenvalues: 
  0.888  0.899  0.909
    eigenvectors:
  0.000  1.000  0.000
  0.500  0.000  0.500
  0.500  0.000  0.500
    occupations:
  0.899 -0.000 -0.000
 -0.000  0.899 -0.011
 -0.000 -0.011  0.899
atomic mag. moment =    -0.081440
atom   23   Tr[ns(na)] (up, down, total) =   2.61425  2.69605  5.31030
   spin  1
    eigenvalues: 
  0.854  0.873  0.888
    eigenvectors:
  0.000  0.000  1.000
  0.500  0.500  0.000
  0.500  0.500  0.000
    occupations:
  0.888 -0.000 -0.000
 -0.000  0.863 -0.010
 -0.000 -0.010  0.863
   spin  2
    eigenvalues: 
  0.888  0.899  0.909
    eigenvectors:
  0.000  1.000  0.000
  0.500  0.000  0.500
  0.500  0.000  0.500
    occupations:
  0.899  0.000 -0.000
  0.000  0.899  0.011
 -0.000  0.011  0.899
atomic mag. moment =    -0.081806
atom   24   Tr[ns(na)] (up, down, total) =   2.61425  2.69605  5.31030
   spin  1
    eigenvalues: 
  0.854  0.873  0.888
    eigenvectors:
  0.000  0.000  1.000
  0.500  0.500  0.000
  0.500  0.500  0.000
    occupations:
  0.888 -0.000 -0.000
 -0.000  0.863 -0.010
 -0.000 -0.010  0.863
   spin  2
    eigenvalues: 
  0.888  0.899  0.909
    eigenvectors:
  0.000  1.000  0.000
  0.500  0.000  0.500
  0.500  0.000  0.500
    occupations:
  0.899 -0.000  0.000
 -0.000  0.899  0.011
  0.000  0.011  0.899
atomic mag. moment =    -0.081806
atom   25   Tr[ns(na)] (up, down, total) =   2.61427  2.69600  5.31027
   spin  1
    eigenvalues: 
  0.854  0.873  0.888
    eigenvectors:
  0.000  0.000  1.000
  0.500  0.500  0.000
  0.500  0.500  0.000
    occupations:
  0.888 -0.000 -0.000
 -0.000  0.863  0.010
 -0.000  0.010  0.863
   spin  2
    eigenvalues: 
  0.888  0.899  0.909
    eigenvectors:
  0.000  1.000  0.000
  0.500  0.000  0.500
  0.500  0.000  0.500
    occupations:
  0.899 -0.000 -0.000
 -0.000  0.899 -0.011
 -0.000 -0.011  0.899
atomic mag. moment =    -0.081725
atom   26   Tr[ns(na)] (up, down, total) =   2.61423  2.69602  5.31025
   spin  1
    eigenvalues: 
  0.854  0.873  0.888
    eigenvectors:
  0.000  0.000  1.000
  0.500  0.500  0.000
  0.500  0.500  0.000
    occupations:
  0.888 -0.000 -0.000
 -0.000  0.863  0.010
 -0.000  0.010  0.863
   spin  2
    eigenvalues: 
  0.888  0.899  0.909
    eigenvectors:
  0.000  1.000  0.000
  0.500  0.000  0.500
  0.500  0.000  0.500
    occupations:
  0.899 -0.000 -0.000
 -0.000  0.899 -0.011
 -0.000 -0.011  0.899
atomic mag. moment =    -0.081785
atom   27   Tr[ns(na)] (up, down, total) =   2.61431  2.69607  5.31038
   spin  1
    eigenvalues: 
  0.854  0.873  0.888
    eigenvectors:
  0.000  0.000  1.000
  0.500  0.500  0.000
  0.500  0.500  0.000
    occupations:
  0.888 -0.000  0.000
 -0.000  0.863 -0.010
  0.000 -0.010  0.863
   spin  2
    eigenvalues: 
  0.888  0.899  0.909
    eigenvectors:
  0.000  1.000  0.000
  0.500  0.000  0.500
  0.500  0.000  0.500
    occupations:
  0.899 -0.000  0.000
 -0.000  0.899  0.011
  0.000  0.011  0.899
atomic mag. moment =    -0.081766
atom   28   Tr[ns(na)] (up, down, total) =   2.61424  2.69605  5.31029
   spin  1
    eigenvalues: 
  0.854  0.873  0.888
    eigenvectors:
  0.000  0.000  1.000
  0.500  0.500  0.000
  0.500  0.500  0.000
    occupations:
  0.888 -0.000  0.000
 -0.000  0.863 -0.010
  0.000 -0.010  0.863
   spin  2
    eigenvalues: 
  0.888  0.899  0.909
    eigenvectors:
  0.000  1.000  0.000
  0.500  0.000  0.500
  0.500  0.000  0.500
    occupations:
  0.899 -0.000  0.000
 -0.000  0.899  0.011
  0.000  0.011  0.899
atomic mag. moment =    -0.081801
atom   29   Tr[ns(na)] (up, down, total) =   2.61421  2.69602  5.31023
   spin  1
    eigenvalues: 
  0.854  0.873  0.888
    eigenvectors:
  0.000  0.000  1.000
  0.499  0.501  0.000
  0.501  0.499  0.000
    occupations:
  0.888 -0.000 -0.000
 -0.000  0.863  0.010
 -0.000  0.010  0.863
   spin  2
    eigenvalues: 
  0.888  0.899  0.909
    eigenvectors:
  0.000  1.000  0.000
  0.500  0.000  0.500
  0.500  0.000  0.500
    occupations:
  0.899 -0.000 -0.000
 -0.000  0.899 -0.011
 -0.000 -0.011  0.899
atomic mag. moment =    -0.081814
atom   30   Tr[ns(na)] (up, down, total) =   2.61428  2.69605  5.31033
   spin  1
    eigenvalues: 
  0.854  0.873  0.888
    eigenvectors:
  0.000  0.000  1.000
  0.500  0.500  0.000
  0.500  0.500  0.000
    occupations:
  0.888 -0.000 -0.000
 -0.000  0.863  0.010
 -0.000  0.010  0.863
   spin  2
    eigenvalues: 
  0.888  0.899  0.909
    eigenvectors:
  0.000  1.000  0.000
  0.500  0.000  0.500
  0.500  0.000  0.500
    occupations:
  0.899 -0.000 -0.000
 -0.000  0.899 -0.011
 -0.000 -0.011  0.899
atomic mag. moment =    -0.081771
atom   31   Tr[ns(na)] (up, down, total) =   2.61431  2.69607  5.31038
   spin  1
    eigenvalues: 
  0.854  0.873  0.888
    eigenvectors:
  0.000  0.000  1.000
  0.500  0.500  0.000
  0.500  0.500  0.000
    occupations:
  0.888  0.000 -0.000
  0.000  0.863 -0.010
 -0.000 -0.010  0.863
   spin  2
    eigenvalues: 
  0.888  0.899  0.909
    eigenvectors:
  0.000  1.000  0.000
  0.500  0.000  0.500
  0.500  0.000  0.500
    occupations:
  0.899  0.000 -0.000
  0.000  0.899  0.011
 -0.000  0.011  0.899
atomic mag. moment =    -0.081766
atom   32   Tr[ns(na)] (up, down, total) =   2.61424  2.69605  5.31029
   spin  1
    eigenvalues: 
  0.854  0.873  0.888
    eigenvectors:
  0.000  0.000  1.000
  0.500  0.500  0.000
  0.500  0.500  0.000
    occupations:
  0.888  0.000 -0.000
  0.000  0.863 -0.010
 -0.000 -0.010  0.863
   spin  2
    eigenvalues: 
  0.888  0.899  0.909
    eigenvectors:
  0.000  1.000  0.000
  0.500  0.000  0.500
  0.500  0.000  0.500
    occupations:
  0.899  0.000 -0.000
  0.000  0.899  0.011
 -0.000  0.011  0.899
atomic mag. moment =    -0.081801
atom   33   Tr[ns(na)] (up, down, total) =   2.61427  2.69600  5.31027
   spin  1
    eigenvalues: 
  0.854  0.873  0.888
    eigenvectors:
  0.000  0.000  1.000
  0.500  0.500  0.000
  0.500  0.500  0.000
    occupations:
  0.888 -0.000 -0.000
 -0.000  0.863  0.010
 -0.000  0.010  0.863
   spin  2
    eigenvalues: 
  0.888  0.899  0.909
    eigenvectors:
  0.000  1.000  0.000
  0.500  0.000  0.500
  0.500  0.000  0.500
    occupations:
  0.899 -0.000 -0.000
 -0.000  0.899 -0.011
 -0.000 -0.011  0.899
atomic mag. moment =    -0.081725
atom   34   Tr[ns(na)] (up, down, total) =   2.61423  2.69602  5.31025
   spin  1
    eigenvalues: 
  0.854  0.873  0.888
    eigenvectors:
  0.000  0.000  1.000
  0.500  0.500  0.000
  0.500  0.500  0.000
    occupations:
  0.888 -0.000 -0.000
 -0.000  0.863  0.010
 -0.000  0.010  0.863
   spin  2
    eigenvalues: 
  0.888  0.899  0.909
    eigenvectors:
  0.000  1.000  0.000
  0.500  0.000  0.500
  0.500  0.000  0.500
    occupations:
  0.899 -0.000 -0.000
 -0.000  0.899 -0.011
 -0.000 -0.011  0.899
atomic mag. moment =    -0.081785
atom   35   Tr[ns(na)] (up, down, total) =   2.61424  2.69605  5.31029
   spin  1
    eigenvalues: 
  0.854  0.873  0.888
    eigenvectors:
  0.000  0.000  1.000
  0.500  0.500  0.000
  0.500  0.500  0.000
    occupations:
  0.888  0.000 -0.000
  0.000  0.863 -0.010
 -0.000 -0.010  0.863
   spin  2
    eigenvalues: 
  0.888  0.899  0.909
    eigenvectors:
  0.000  1.000  0.000
  0.500  0.000  0.500
  0.500  0.000  0.500
    occupations:
  0.899  0.000 -0.000
  0.000  0.899  0.011
 -0.000  0.011  0.899
atomic mag. moment =    -0.081801
atom   36   Tr[ns(na)] (up, down, total) =   2.61431  2.69607  5.31038
   spin  1
    eigenvalues: 
  0.854  0.873  0.888
    eigenvectors:
  0.000  0.000  1.000
  0.500  0.500  0.000
  0.500  0.500  0.000
    occupations:
  0.888  0.000 -0.000
  0.000  0.863 -0.010
 -0.000 -0.010  0.863
   spin  2
    eigenvalues: 
  0.888  0.899  0.909
    eigenvectors:
  0.000  1.000  0.000
  0.500  0.000  0.500
  0.500  0.000  0.500
    occupations:
  0.899  0.000 -0.000
  0.000  0.899  0.011
 -0.000  0.011  0.899
atomic mag. moment =    -0.081766
atom   37   Tr[ns(na)] (up, down, total) =   2.61421  2.69602  5.31023
   spin  1
    eigenvalues: 
  0.854  0.873  0.888
    eigenvectors:
  0.000  0.000  1.000
  0.501  0.499  0.000
  0.499  0.501  0.000
    occupations:
  0.888 -0.000 -0.000
 -0.000  0.863  0.010
 -0.000  0.010  0.863
   spin  2
    eigenvalues: 
  0.888  0.899  0.909
    eigenvectors:
  0.000  1.000  0.000
  0.500  0.000  0.500
  0.500  0.000  0.500
    occupations:
  0.899 -0.000 -0.000
 -0.000  0.899 -0.011
 -0.000 -0.011  0.899
atomic mag. moment =    -0.081814
atom   38   Tr[ns(na)] (up, down, total) =   2.61428  2.69605  5.31033
   spin  1
    eigenvalues: 
  0.854  0.873  0.888
    eigenvectors:
  0.000  0.000  1.000
  0.500  0.500  0.000
  0.500  0.500  0.000
    occupations:
  0.888 -0.000 -0.000
 -0.000  0.863  0.010
 -0.000  0.010  0.863
   spin  2
    eigenvalues: 
  0.888  0.899  0.909
    eigenvectors:
  0.000  1.000  0.000
  0.500  0.000  0.500
  0.500  0.000  0.500
    occupations:
  0.899 -0.000 -0.000
 -0.000  0.899 -0.011
 -0.000 -0.011  0.899
atomic mag. moment =    -0.081771
atom   39   Tr[ns(na)] (up, down, total) =   2.61424  2.69605  5.31029
   spin  1
    eigenvalues: 
  0.854  0.873  0.888
    eigenvectors:
  0.000  0.000  1.000
  0.500  0.500  0.000
  0.500  0.500  0.000
    occupations:
  0.888 -0.000  0.000
 -0.000  0.863 -0.010
  0.000 -0.010  0.863
   spin  2
    eigenvalues: 
  0.888  0.899  0.909
    eigenvectors:
  0.000  1.000  0.000
  0.500  0.000  0.500
  0.500  0.000  0.500
    occupations:
  0.899 -0.000  0.000
 -0.000  0.899  0.011
  0.000  0.011  0.899
atomic mag. moment =    -0.081801
atom   40   Tr[ns(na)] (up, down, total) =   2.61431  2.69607  5.31038
   spin  1
    eigenvalues: 
  0.854  0.873  0.888
    eigenvectors:
  0.000  0.000  1.000
  0.500  0.500  0.000
  0.500  0.500  0.000
    occupations:
  0.888 -0.000  0.000
 -0.000  0.863 -0.010
  0.000 -0.010  0.863
   spin  2
    eigenvalues: 
  0.888  0.899  0.909
    eigenvectors:
  0.000  1.000  0.000
  0.500  0.000  0.500
  0.500  0.000  0.500
    occupations:
  0.899 -0.000  0.000
 -0.000  0.899  0.011
  0.000  0.011  0.899
atomic mag. moment =    -0.081766
atom   41   Tr[ns(na)] (up, down, total) =   2.61446  2.69585  5.31031
   spin  1
    eigenvalues: 
  0.854  0.873  0.888
    eigenvectors:
  0.000  0.000  1.000
  0.500  0.500  0.000
  0.500  0.500  0.000
    occupations:
  0.888 -0.000 -0.000
 -0.000  0.863  0.010
 -0.000  0.010  0.863
   spin  2
    eigenvalues: 
  0.888  0.899  0.909
    eigenvectors:
  0.000  1.000  0.000
  0.500  0.000  0.500
  0.500  0.000  0.500
    occupations:
  0.899 -0.000 -0.000
 -0.000  0.899 -0.011
 -0.000 -0.011  0.899
atomic mag. moment =    -0.081396
atom   42   Tr[ns(na)] (up, down, total) =   2.61395  2.69594  5.30988
   spin  1
    eigenvalues: 
  0.853  0.873  0.888
    eigenvectors:
  0.000  0.000  1.000
  0.500  0.500  0.000
  0.500  0.500  0.000
    occupations:
  0.888 -0.000 -0.000
 -0.000  0.863  0.010
 -0.000  0.010  0.863
   spin  2
    eigenvalues: 
  0.888  0.899  0.909
    eigenvectors:
  0.000  1.000  0.000
  0.500  0.000  0.500
  0.500  0.000  0.500
    occupations:
  0.899 -0.000 -0.000
 -0.000  0.899 -0.011
 -0.000 -0.011  0.899
atomic mag. moment =    -0.081992
atom   43   Tr[ns(na)] (up, down, total) =   2.61444  2.69602  5.31046
   spin  1
    eigenvalues: 
  0.854  0.873  0.888
    eigenvectors:
  0.000  0.000  1.000
  0.500  0.500  0.000
  0.500  0.500  0.000
    occupations:
  0.888 -0.000  0.000
 -0.000  0.863 -0.010
  0.000 -0.010  0.863
   spin  2
    eigenvalues: 
  0.888  0.899  0.909
    eigenvectors:
  0.000  1.000  0.000
  0.500  0.000  0.500
  0.500  0.000  0.500
    occupations:
  0.899 -0.000  0.000
 -0.000  0.899  0.011
  0.000  0.011  0.899
atomic mag. moment =    -0.081574
atom   44   Tr[ns(na)] (up, down, total) =   2.61444  2.69602  5.31046
   spin  1
    eigenvalues: 
  0.854  0.873  0.888
    eigenvectors:
  0.000  0.000  1.000
  0.500  0.500  0.000
  0.500  0.500  0.000
    occupations:
  0.888  0.000 -0.000
  0.000  0.863 -0.010
 -0.000 -0.010  0.863
   spin  2
    eigenvalues: 
  0.888  0.899  0.909
    eigenvectors:
  0.000  1.000  0.000
  0.500  0.000  0.500
  0.500  0.000  0.500
    occupations:
  0.899  0.000 -0.000
  0.000  0.899  0.011
 -0.000  0.011  0.899
atomic mag. moment =    -0.081574
atom   45   Tr[ns(na)] (up, down, total) =   2.61449  2.69596  5.31044
   spin  1
    eigenvalues: 
  0.854  0.873  0.888
    eigenvectors:
  0.000  0.000  1.000
  0.500  0.500  0.000
  0.500  0.500  0.000
    occupations:
  0.888 -0.000 -0.000
 -0.000  0.863  0.009
[...]
   -59.9684 -59.9678 -59.9676 -59.9676 -59.9672 -59.9671 -59.9670 -59.9670
   -31.6517 -31.6502 -31.6498 -31.6491 -31.6487 -31.6480 -31.6474 -31.6472
   -31.6344 -31.6341 -31.6339 -31.6334 -31.6332 -31.6331 -31.6329 -31.6325
   -31.2922 -31.2919 -31.2905 -31.2905 -31.2904 -31.2901 -31.2883 -31.2880
   -31.2581 -31.2576 -31.2567 -31.2564 -31.2563 -31.2560 -31.2547 -31.2540
   -31.2113 -31.2109 -31.2101 -31.2096 -31.2084 -31.2081 -31.2077 -31.2075
   -31.0219 -31.0165 -31.0162 -31.0140 -31.0107 -31.0086 -31.0083 -31.0029
    -8.6430  -8.1958  -8.1934  -7.9558  -7.6580  -7.5073  -7.5036  -7.2097
    -7.1953  -7.1912  -7.1651  -7.1508  -7.1506  -7.1232  -7.0670  -7.0358
    -6.9368  -6.8548  -6.8420  -6.8420  -6.8338  -6.7986  -6.7946  -6.7939
    -6.7714  -6.7548  -6.7444  -6.7398  -6.6802  -6.6785  -6.6680  -6.6045
     3.9938   4.2044   4.4612   4.4620   4.5140   4.6003   4.6913   4.6956
     4.7379   4.8629   4.8643   4.9605   4.9639   4.9649   4.9714   4.9814
     5.0755   5.1055   5.3174   5.3530   5.4265   5.4272   5.7753   5.7768
     5.7790   5.8911   5.8932   5.9116   5.9813   5.9827   6.1423   6.1890
     6.2092   6.2190   6.2250   6.2251   6.2644   6.2778   6.2800   6.4166
     6.6232   6.6603   6.6628   6.7063   6.7080   6.9187   7.0066   7.0077
     7.0455   7.0819   7.1180   7.1524   7.1649   7.1672   7.1688   7.1980
     7.2715   7.3406   7.3422   7.5859   7.6838   7.7088   7.9054   7.9056
     7.9494   7.9844   7.9864   8.0170   8.0173   8.3269   8.3437   8.3711
     8.3724   8.3969   8.4135   8.4787   8.5998   8.6081   8.6088   8.6510
     8.6574   8.8731   8.8737   8.9562   8.9585   9.1557   9.1562   9.1958
     9.2007   9.2195   9.3267   9.4316   9.5643   9.6208   9.6215  10.1410
    12.0395  12.0399  12.1718  12.2002  12.2005  12.2538  12.2540  12.3711
    12.4431  12.4614  12.5181  12.5245  12.5246  12.6058  12.6445  12.6914
    12.7697  12.7697  12.7809  12.7835  12.8382  12.8383  12.9075  13.0072
    13.0074  13.1329  13.1334  13.1614  13.3870  13.4002  13.4093  13.4095
    13.4177  13.4179  13.4313  13.4314  13.4391  13.5428  13.6473  13.6476
    13.6555  13.6928  13.6932  13.6935  13.9014  13.9015  13.9490  14.1491
    14.2689  14.3667  14.3671  14.5168  14.6465  14.6817  14.6820  15.2060
    15.2062  15.3088  15.3091  15.3732  15.4173  15.6122  15.6126  15.6888
    15.8653  15.8718  15.8728  15.8729  15.9338  16.0790  16.0896  16.1251
    16.3386  16.3472  16.3475  16.4497  16.4499  16.6713  16.6714  17.2333
    19.6373  20.9039  20.9058  21.9008  22.2771  22.2791  22.6634  22.6712
    22.7580  22.8395  23.2557  23.3833  23.3853  23.5632  23.6974  23.6989
    23.8545  23.8582  23.8591  23.9365  24.7637  24.9348  25.0097  25.0102
    25.1504  25.1510  25.7741  25.7829  25.7846  25.8733  25.9493  26.0486
    26.0833  26.2552  26.3432  26.3673  26.4654  26.4665  26.8714  27.0670
    27.0872  27.0883  27.2069  27.2668  27.5115  27.5140  27.5331  27.5345
    28.0241  28.0454  28.0460  28.2210  28.3288  28.4739  28.4752  28.5041
    28.5043  28.6007  29.0578  29.0804  29.0816  29.2791  29.2885  29.3480
    29.3498  29.3708  29.5923  29.5999  29.6512  29.6529  29.7996  29.8806
    30.2429  30.2437  30.4362  30.6053  30.6059  30.7213  30.7569  30.9839
    31.2041  31.2536  31.2542  31.3983  31.6653  31.8004  31.8614  31.8638
    32.3097  32.4141  32.4144  32.7230  32.8436  32.8439  33.2770  33.2955
    33.3195  33.4404  33.5445  33.5469  33.5645  33.8618  33.8626  34.0885
    34.1066  34.1120  34.3036  34.3039  34.4828  34.6567  34.6619  34.6629
    34.9228  34.9234  35.0779  35.0780  35.1164  35.6190  35.8997  36.5704
    36.5758  36.9191  37.0222  37.0610  37.0615  37.0686  37.3146  37.4337
    37.4345  37.4567  37.7213  37.7220  37.7225  37.7226  38.2116  38.2124
    38.2266  38.3605  38.3619  38.4637  38.5410  38.5423  38.6979  39.0885
    39.3049  39.5121  39.5438  39.9819  39.9821  40.1471  40.1709  40.1712
    40.2706  40.3429  40.3644  40.3651  40.4411  40.4417  40.5759  40.5767
    41.0430  41.0829  41.0835  41.2153  41.3278  41.4015  41.4902  41.8724
    42.0274  42.0280  42.3702  42.3703  42.3791  42.4166  42.6799  42.7518
    42.7539  42.9261  43.1026  43.1475  43.2263  43.7105  43.7112  43.7886
    43.9472  43.9767  43.9802  44.0107  44.1365  44.3042  44.3152  44.3155
    44.3443  44.3737  44.4078  44.4089  44.4181  44.4200  44.5635  44.5645
    44.7015  44.7354  44.7362  44.8551  44.9407  45.1238  45.1240  45.2120
    45.2123  45.2450  45.4094  45.5497  45.7355  46.0389  46.4124  46.5479
    46.5685  46.5703  46.6273  46.6278  46.8158  46.9445  47.0537  47.0844
    47.2000  47.3422  47.3430  47.3480  47.3481  47.6218  47.6923  47.8155
    47.8165  47.8502  48.2788  48.2789  48.4248  48.5719  48.5722  48.8212
    48.8369  49.3260  49.3873  49.5496  49.5505  49.7622  49.7629  49.8214
    49.8371  49.8376  50.0170  50.1672  50.1685  50.2766  50.2813  50.2820
    50.3959  50.4111  50.4321  50.5119  50.5127  50.5500  50.7237  50.8969
    51.1949  51.2797  51.4722  51.4733  51.5663  51.7164  51.7261  51.8506
    51.8674  51.8724  51.8732  51.8919  51.8927  52.1580  52.1582  52.2525
    52.6664  52.6676  52.8992  52.8995  52.9022  52.9154  52.9474  52.9477
    53.0432  53.1132  53.2562  53.2912  53.3865  53.3882  53.5077  53.6140
    53.6151  53.7216  53.7755  53.8791  53.8797  54.0437  54.0774  54.0840
    54.0915  54.1500  54.1505  54.1814  54.2600  54.3349  54.4863  54.4875
    54.5601  54.5674  54.7173  54.8141  54.8144  55.0057  55.0068  55.0216
    55.1079  55.2908  55.3420  55.3428  55.3794  55.4304  55.4316  55.6595

          k = 0.2500-0.2500 0.3776 ( 12832 PWs)   bands (ev):

   -59.9838 -59.9826 -59.9821 -59.9814 -59.9807 -59.9799 -59.9796 -59.9782
   -59.9712 -59.9705 -59.9702 -59.9699 -59.9697 -59.9692 -59.9690 -59.9685
   -31.6490 -31.6476 -31.6474 -31.6467 -31.6463 -31.6458 -31.6455 -31.6452
   -31.6363 -31.6361 -31.6360 -31.6358 -31.6356 -31.6353 -31.6351 -31.6350
   -31.2868 -31.2865 -31.2853 -31.2853 -31.2853 -31.2850 -31.2834 -31.2831
   -31.2619 -31.2614 -31.2610 -31.2608 -31.2607 -31.2604 -31.2596 -31.2590
   -31.1857 -31.1827 -31.1822 -31.1819 -31.1815 -31.1794 -31.1790 -31.1788
   -31.0506 -31.0455 -31.0452 -31.0434 -31.0403 -31.0383 -31.0380 -31.0332
    -8.4978  -8.0727  -8.0703  -7.8419  -7.6128  -7.5583  -7.4196  -7.4162
    -7.4002  -7.3973  -7.2493  -7.1065  -7.1035  -7.0985  -7.0066  -6.9464
    -6.9092  -6.8801  -6.8392  -6.8377  -6.8213  -6.8186  -6.7997  -6.7961
    -6.7953  -6.7804  -6.7715  -6.7664  -6.7081  -6.7066  -6.7039  -6.6372
     4.1655   4.3321   4.6070   4.6076   4.6482   4.7597   4.8692   4.9307
     4.9335   4.9713   4.9796   5.0500   5.0842   5.1050   5.1201   5.1234
     5.1300   5.1320   5.2730   5.2735   5.3374   5.3517   5.5816   5.5878
     5.6154   5.6170   5.7144   5.7164   5.7461   5.9461   5.9484   5.9498
     5.9512   6.0330   6.0511   6.2672   6.3213   6.4369   6.4376   6.5046
     6.6456   6.6969   6.6986   6.7793   6.8975   6.8994   6.9474   6.9492
     6.9919   7.0064   7.1361   7.1369   7.3992   7.4359   7.4377   7.4392
     7.4401   7.4586   7.4788   7.5405   7.5933   7.5960   7.6109   7.7503
     7.7730   7.7731   7.8403   7.9246   7.9248   8.0558   8.2134   8.3428
     8.3440   8.3998   8.4711   8.4714   8.4992   8.5107   8.5246   8.5391
     8.5581   8.8080   8.8696   8.8704   8.9584   9.1758   9.2007   9.2012
     9.2601   9.2613   9.2976   9.3031   9.4008   9.5962   9.5968   9.9905
    12.0328  12.0331  12.1633  12.3044  12.3062  12.3973  12.4633  12.4939
    12.4942  12.5445  12.5786  12.5788  12.7280  12.7282  12.7460  12.7915
    12.8095  12.8332  12.8774  12.9159  12.9159  12.9299  13.0565  13.0945
    13.1393  13.1394  13.2166  13.2985  13.2988  13.3107  13.3291  13.3293
    13.3618  13.3765  13.3962  13.4555  13.4557  13.5309  13.5705  13.5747
    13.6432  13.6435  13.6444  13.6447  13.8082  13.8083  13.8405  14.0590
    14.3668  14.3672  14.4807  14.6392  14.7483  14.7744  14.7746  15.1277
    15.1278  15.3349  15.3360  15.3591  15.3801  15.3802  15.4448  15.6036
    15.6270  15.7063  15.7063  15.7331  15.8718  15.8725  16.0413  16.2041
    16.2043  16.2185  16.2666  16.4874  16.4875  16.6168  16.6168  17.0810
    20.0528  21.2678  21.2699  22.1521  22.3891  22.6670  22.6692  22.8228
    22.8517  22.8540  22.9970  23.2347  23.2525  23.3408  23.9490  23.9505
    24.1777  24.1792  24.2833  24.8609  25.0349  25.2587  25.3338  25.3347
    25.4582  25.5254  25.5261  25.7960  25.9945  26.1294  26.1543  26.1558
    26.2687  26.2695  26.3316  26.4180  26.5549  26.5556  26.6040  26.8252
    26.8271  26.9294  27.1013  27.1022  27.2417  27.3508  27.4681  27.4693
    27.8964  27.8969  27.9569  28.2221  28.3501  28.4516  28.4525  28.6402
    28.6415  28.6880  28.9873  29.1491  29.2136  29.2377  29.2392  29.2889
    29.3912  29.3921  29.4075  29.4088  29.4361  29.5971  29.6475  29.6715
    29.6980  29.9455  29.9469  30.1183  30.1192  30.4868  30.6860  30.7828
    30.9417  30.9496  30.9508  30.9579  30.9851  30.9856  31.1959  31.3258
    31.6101  31.8419  31.9869  31.9872  32.7084  32.7089  32.8496  33.3664
    33.3993  33.5058  33.5063  33.6152  33.6156  34.1008  34.1344  34.1757
    34.5691  34.5836  34.6734  34.6744  34.7821  34.8329  35.0775  35.1549
    35.1553  35.4569  35.4574  35.9347  36.0624  36.0625  36.1302  36.3639
    36.5623  36.6329  37.4329  37.4335  37.4664  37.5047  37.5785  37.5788
    37.6185  37.6831  37.7263  37.8558  37.8562  37.8911  38.0416  38.0551
    38.1888  38.1896  38.3637  38.3640  38.4266  38.7998  38.8009  38.9820
    39.0554  39.0554  39.3676  39.4013  39.5417  39.6463  39.6796  40.0599
    40.0602  40.2432  40.2438  40.4892  40.4898  40.8637  40.9139  40.9140
    40.9397  40.9402  41.1359  41.2615  41.2990  41.3032  41.3861  41.5696
    41.6635  41.6642  41.7466  41.8829  41.8840  41.9101  42.0550  42.2443
    42.2447  42.4103  42.4162  42.4165  42.5154  42.5656  42.5940  43.1236
    43.5732  43.7962  43.7964  43.7968  43.8438  43.8447  44.3537  44.5968
    44.6949  44.7800  44.7806  44.9976  45.0228  45.1331  45.1615  45.2919
    45.4523  45.5405  45.7359  45.7368  45.7836  45.7843  45.9489  45.9494
    46.1784  46.1788  46.2086  46.3122  46.3123  46.3674  46.4383  46.6188
    46.6780  46.6827  46.9317  46.9937  47.1343  47.3186  47.3192  47.4056
    47.4073  47.4592  47.6706  47.6709  47.7615  47.9137  48.0318  48.0928
    48.0938  48.3150  48.4100  48.9036  48.9047  48.9490  48.9495  48.9696
    49.1549  49.2292  49.6176  49.6180  49.7942  49.7943  49.8848  49.9924
    49.9933  50.1977  50.2240  50.2944  50.2977  50.3686  50.3739  50.3741
    50.5393  50.7587  50.7588  50.9121  50.9131  50.9149  50.9840  51.0785
    51.0791  51.1429  51.1688  51.2985  51.3103  51.3571  51.3579  51.4019
    51.4030  51.5698  51.7742  51.7744  51.7886  51.9388  52.0472  52.0477
    52.1208  52.2083  52.2291  52.2832  52.4177  52.4186  52.4998  52.5943
    52.6785  52.8003  52.8011  52.8107  52.8184  52.8827  52.8836  52.9151
    52.9160  52.9494  53.0827  53.1471  53.2096  53.5695  53.6289  53.8262
    53.8781  53.9046  53.9049  53.9226  54.0561  54.0564  54.0610  54.0617
    54.1327  54.2265  54.5596  54.5603  54.7713  54.7717  54.8060  54.8360
    54.8365  54.8669  54.8730  54.8750  54.9062  54.9921  55.4212  55.4221

          k = 0.2500-0.2500-0.7552 ( 12844 PWs)   bands (ev):

   -59.9776 -59.9776 -59.9771 -59.9765 -59.9764 -59.9758 -59.9758 -59.9757
   -59.9753 -59.9749 -59.9746 -59.9745 -59.9744 -59.9741 -59.9733 -59.9731
   -31.6426 -31.6423 -31.6418 -31.6417 -31.6416 -31.6411 -31.6411 -31.6411
   -31.6409 -31.6408 -31.6408 -31.6408 -31.6407 -31.6404 -31.6404 -31.6402
   -31.2741 -31.2738 -31.2736 -31.2736 -31.2735 -31.2730 -31.2730 -31.2728
   -31.2728 -31.2727 -31.2724 -31.2722 -31.2716 -31.2714 -31.2711 -31.2711
   -31.1192 -31.1190 -31.1148 -31.1147 -31.1146 -31.1143 -31.1136 -31.1135
   -31.1114 -31.1113 -31.1094 -31.1094 -31.1091 -31.1089 -31.1061 -31.1060
    -8.1111  -8.1085  -7.7574  -7.7571  -7.7568  -7.7530  -7.5572  -7.5534
    -7.3178  -7.3177  -7.2225  -7.2225  -7.2217  -7.2151  -6.8854  -6.8839
    -6.8518  -6.8515  -6.8460  -6.8424  -6.8287  -6.8286  -6.8280  -6.8209
    -6.7955  -6.7952  -6.7735  -6.7735  -6.7732  -6.7701  -6.7203  -6.7142
     4.5915   4.5957   4.6240   4.6278   4.9357   4.9358   4.9365   4.9365
     4.9403   4.9407   5.1375   5.1395   5.1663   5.1666   5.2500   5.2518
     5.3317   5.3353   5.3356   5.3357   5.3494   5.3495   5.4126   5.4156
     5.4172   5.4172   5.7355   5.7369   5.7387   5.7388   5.8093   5.8097
     6.1336   6.1341   6.1782   6.1800   6.1822   6.1822   6.3506   6.3516
     6.6892   6.6901   6.6902   6.6902   6.8124   6.8125   6.8380   6.8386
     6.8398   6.8398   7.1331   7.1361   7.2292   7.2313   7.4215   7.4218
     7.4240   7.4242   7.5444   7.5459   7.7013   7.7014   7.7020   7.7021
     7.7124   7.7130   7.8309   7.8310   8.0410   8.0413   8.1115   8.1123
     8.3231   8.3237   8.4809   8.4822   8.4822   8.4823   8.5828   8.5834
     8.7352   8.7370   8.9092   8.9105   9.0709   9.0713   9.0714   9.0716
     9.1004   9.1009   9.4538   9.4558   9.4560   9.4563   9.5968   9.5978
    12.0846  12.0846  12.2745  12.2746  12.2749  12.2750  12.5315  12.5316
    12.7511  12.7511  12.7514  12.7515  12.7762  12.7762  12.8283  12.8284
    13.0553  13.0553  13.1116  13.1116  13.1607  13.1608  13.1671  13.1672
    13.1672  13.1675  13.1991  13.1993  13.2281  13.2282  13.2420  13.2421
    13.3595  13.3595  13.3597  13.3597  13.4146  13.4146  13.5400  13.5401
    13.5401  13.5403  13.6364  13.6365  13.6365  13.6367  13.8382  13.8384
    14.6291  14.6295  14.6296  14.6301  14.8258  14.8259  15.0474  15.0475
    15.0476  15.0478  15.0542  15.0544  15.2464  15.2465  15.5141  15.5145
    15.5168  15.5171  15.7208  15.7208  15.8699  15.8700  15.8701  15.8702
    16.1428  16.1429  16.5357  16.5357  16.5357  16.5359  16.6384  16.6385
    21.0911  21.0922  22.0480  22.0484  22.0494  22.0515  22.5976  22.5987
    23.3292  23.3307  23.4328  23.4331  23.4342  23.4363  24.4402  24.4406
    24.5845  24.5857  25.0624  25.0636  25.3382  25.3387  25.3398  25.3408
    25.7504  25.7514  25.9346  25.9348  26.2288  26.2289  26.2310  26.2310
    26.3114  26.3129  26.4028  26.4036  26.4968  26.4969  26.5586  26.5593
    26.5596  26.5603  26.9415  26.9421  26.9425  26.9434  27.7321  27.7332
    28.1008  28.1016  28.1018  28.1030  28.1540  28.1545  28.4361  28.4361
    28.8114  28.8115  28.9157  28.9163  28.9166  28.9183  29.0391  29.0393
    29.0395  29.0400  29.1120  29.1123  29.2415  29.2416  29.4888  29.4900
    29.7760  29.7768  30.1038  30.1038  30.1042  30.1052  30.3566  30.3568
    30.3988  30.4002  30.8069  30.8073  30.8074  30.8079  31.2196  31.2198
    31.7825  31.7832  31.7832  31.7838  31.8786  31.8795  32.8147  32.8153
    33.1727  33.1733  33.1735  33.1741  33.6752  33.6752  33.7684  33.7685
    34.8979  34.8980  35.4686  35.4689  35.4691  35.4696  35.7782  35.7783
    35.8092  35.8093  35.8836  35.8850  36.7570  36.7577  36.8588  36.8592
    36.8596  36.8600  37.1739  37.1750  37.2381  37.2387  37.4469  37.4471
    37.4475  37.4479  38.0252  38.0255  38.0260  38.0261  38.2562  38.2569
    38.2593  38.2596  38.2597  38.2602  38.5484  38.5495  38.6587  38.6590
    39.3962  39.3968  39.4346  39.4346  39.4348  39.4359  39.8893  39.8893
    39.8900  39.8908  40.0340  40.0344  40.4562  40.4566  40.6570  40.6575
    40.6624  40.6631  40.6632  40.6635  40.9554  40.9556  41.0467  41.0471
    41.0478  41.0478  41.8605  41.8606  41.8610  41.8614  42.1875  42.1878
    42.4953  42.4958  42.4959  42.4964  42.6604  42.6606  43.3523  43.3527
    43.8540  43.8541  43.8545  43.8549  44.0312  44.0314  44.1219  44.1225
    44.5329  44.5332  44.6253  44.6257  44.9621  44.9625  44.9627  44.9631
    45.1612  45.1614  45.6014  45.6019  45.6020  45.6022  46.0456  46.0467
    46.8415  46.8422  46.8677  46.8682  46.8685  46.8690  47.1464  47.1472
    47.4019  47.4024  47.5254  47.5259  48.0501  48.0506  48.3376  48.3377
    48.3381  48.3391  48.3597  48.3602  48.3603  48.3608  48.4018  48.4019
    48.5567  48.5569  48.8735  48.8736  48.8739  48.8741  48.9916  48.9916
    49.4328  49.4328  49.7030  49.7032  49.9451  49.9456  49.9456  49.9463
    50.0428  50.0428  50.2013  50.2015  50.2018  50.2021  50.5721  50.5723
    50.7299  50.7305  50.8817  50.8817  50.8824  50.8833  50.8903  50.8905
    51.2137  51.2139  51.2139  51.2144  51.3169  51.3175  51.3586  51.3593
    51.4421  51.4423  51.6975  51.6979  51.6984  51.6991  51.9031  51.9032
    51.9041  51.9042  52.0168  52.0169  52.0273  52.0279  52.1465  52.1473
    52.5430  52.5437  52.6106  52.6108  52.6109  52.6122  52.6253  52.6254
    52.6355  52.6359  52.7743  52.7751  52.8133  52.8139  52.9531  52.9535
    52.9540  52.9547  53.4929  53.4929  53.4933  53.4933  53.6927  53.6936
    54.0843  54.0857  54.4123  54.4128  54.4131  54.4141  54.5562  54.5568
    54.5569  54.5577  54.8096  54.8100  54.9907  54.9911  55.0080  55.0085

     the Fermi energy is    11.2576 ev

!    total energy              =   -3849.35995942 Ry
     Harris-Foulkes estimate   =   -3849.35996020 Ry
     estimated scf accuracy    <       0.00000089 Ry

     The total energy is the sum of the following terms:

     one-electron contribution =   -1589.08234371 Ry
     hartree contribution      =    1012.65676254 Ry
     xc contribution           =    -596.48618166 Ry
     ewald contribution        =   -2676.42062880 Ry
     Hubbard energy            =      -0.02734865 Ry
     smearing contrib. (-TS)   =      -0.00021914 Ry

     total magnetization       =    32.00 Bohr mag/cell
     absolute magnetization    =    36.72 Bohr mag/cell

     convergence has been achieved in   6 iterations

     Writing output data file pwscf.save

     init_run     :     31.43s CPU     99.72s WALL (       1 calls)
     electrons    :   9019.88s CPU  10413.59s WALL (       1 calls)

     Called by init_run:
     wfcinit      :     18.22s CPU     85.14s WALL (       1 calls)
     potinit      :      1.01s CPU      1.78s WALL (       1 calls)

     Called by electrons:
     c_bands      :   8553.60s CPU   9695.61s WALL (       6 calls)
     sum_band     :    390.39s CPU    632.76s WALL (       6 calls)
     v_of_rho     :      3.22s CPU      5.01s WALL (       7 calls)
     newd         :     81.67s CPU     87.24s WALL (       7 calls)
     mix_rho      :      0.43s CPU      0.74s WALL (       6 calls)

     Called by c_bands:
     init_us_2    :      2.99s CPU      3.18s WALL (     546 calls)
     cegterg      :   8542.07s CPU   9644.62s WALL (     252 calls)

     Called by *egterg:
     h_psi        :   1599.47s CPU   2344.95s WALL (     780 calls)
     s_psi        :    173.90s CPU    174.62s WALL (     822 calls)
     g_psi        :      2.13s CPU      2.15s WALL (     528 calls)
     cdiaghg      :   5707.99s CPU   5793.21s WALL (     738 calls)

     Called by h_psi:
     add_vuspsi   :    168.36s CPU    169.11s WALL (     780 calls)
     vhpsi        :    356.39s CPU    464.55s WALL (     780 calls)

     General routines
     calbec       :    545.73s CPU    750.15s WALL (    2106 calls)
     fft          :      3.98s CPU      7.63s WALL (     205 calls)
     ffts         :      0.09s CPU      0.20s WALL (      26 calls)
     fftw         :    986.38s CPU   1712.19s WALL (  826698 calls)
     interpolate  :      0.58s CPU      1.20s WALL (      26 calls)
     davcio       :      0.85s CPU    153.06s WALL (    1596 calls)

     Parallel routines
     fft_scatter  :    628.44s CPU   1339.47s WALL (  826929 calls)
     Hubbard U routines
     new_ns       :     70.55s CPU    162.82s WALL (       6 calls)
     vhpsi        :    356.39s CPU    464.55s WALL (     780 calls)

     PWSCF        :     2h30m CPU        2h55m WALL


   This run was terminated on:  16:34:52  14Feb2014            

=------------------------------------------------------------------------------=
   JOB DONE.
=------------------------------------------------------------------------------=
