
     Program PWSCF v.5.0.2 (svn rev. 9656) starts on 28Mar2014 at  6:11:39 

     This program is part of the open-source Quantum ESPRESSO suite
     for quantum simulation of materials; please cite
         "P. Giannozzi et al., J. Phys.:Condens. Matter 21 395502 (2009);
          URL http://www.quantum-espresso.org", 
     in publications or presentations arising from this work. More details at
     http://www.quantum-espresso.org/quote.php

     Parallel version (MPI), running on    32 processors
     R & G space division:  proc/nbgrp/npool/nimage =      32

     Current dimensions of program PWSCF are:
     Max number of different atomic species (ntypx) = 10
     Max number of k-points (npk) =  40000
     Max angular momentum in pseudopotentials (lmaxx) =  3
     Reading input from pwscf.in
Warning: card &CELL ignored
Warning: card / ignored

     Subspace diagonalization in iterative solution of the eigenvalue problem:
     a serial algorithm will be used


     Parallelization info
     --------------------
     sticks:   dense  smooth     PW     G-vecs:    dense   smooth      PW
     Min         177      57     15                57345    10357    1521
     Max         178      58     16                57362    10414    1554
     Sum        5677    1827    505              1835289   332293   49225



     bravais-lattice index     =            0
     lattice parameter (alat)  =      11.7919  a.u.
     unit-cell volume          =    9723.6088 (a.u.)^3
     number of atoms/cell      =           49
     number of atomic types    =            2
     number of electrons       =       454.00
     number of Kohn-Sham states=          657
     kinetic-energy cutoff     =      40.0000  Ry
     charge density cutoff     =     500.0000  Ry
     convergence threshold     =      1.0E-06
     mixing beta               =       0.3000
     number of iterations used =            8  plain     mixing
     Exchange-correlation      = SLA  PW   PBE  PBE ( 1 4 3 4 0)
     EXX-fraction              =        0.00
     nstep                     =           50


     celldm(1)=  11.791891  celldm(2)=   0.000000  celldm(3)=   0.000000
     celldm(4)=   0.000000  celldm(5)=   0.000000  celldm(6)=   0.000000

     crystal axes: (cart. coord. in units of alat)
               a(1) = (   1.000000   0.000000   0.000000 )  
               a(2) = (   0.000000   1.026665   0.000000 )  
               a(3) = (   0.000000   0.000000   5.776283 )  

     reciprocal axes: (cart. coord. in units 2 pi/alat)
               b(1) = (  1.000000  0.000000  0.000000 )  
               b(2) = (  0.000000  0.974028  0.000000 )  
               b(3) = (  0.000000  0.000000  0.173122 )  


     PseudoPot. # 1 for O  read from file:
     /home/camp/zhonxu/pseudo/o_pbe_v1.01.uspp.F.UPF
     MD5 check sum: 2bcb18d16ea4b960afae9ec6d52f22d2
     Pseudo is Ultrasoft + core correction, Zval =  6.0
     Generated by new atomic code, or converted to UPF format
     Using radial grid of  737 points,  5 beta functions with: 
                l(1) =   0
                l(2) =   0
                l(3) =   1
                l(4) =   1
                l(5) =   2
     Q(r) pseudized with  8 coefficients,  rinner =    0.900   0.900   0.900
                                                       0.900   0.900

     PseudoPot. # 2 for Ru read from file:
     /home/camp/zhonxu/pseudo/ru_pbe_v1.uspp.F.UPF
     MD5 check sum: df00be1c11b23341d9806d8f1dfa10cf
     Pseudo is Ultrasoft + core correction, Zval = 16.0
     Generated by new atomic code, or converted to UPF format
     Using radial grid of  967 points,  6 beta functions with: 
                l(1) =   0
                l(2) =   0
                l(3) =   1
                l(4) =   1
                l(5) =   2
                l(6) =   2
     Q(r) pseudized with  8 coefficients,  rinner =    1.300   1.300   1.300
                                                       1.300   1.300

     atomic species   valence    mass     pseudopotential
        O0             6.00    15.99940     O ( 1.00)
        Ru1           16.00   101.07000     Ru( 1.00)

      4 Sym. Ops. (no inversion) found



   Cartesian axes

     site n.     atom                  positions (alat units)
         1           O0  tau(   1) = (   0.0000000   0.5133323   1.9230980  )
         2           Ru1 tau(   2) = (   0.2500000   0.5133323   2.1181631  )
         3           Ru1 tau(   3) = (   0.0000000   0.0000000   2.1181631  )
         4           O0  tau(   4) = (   0.2500000   0.8315984   2.1181631  )
         5           O0  tau(   5) = (   0.2500000   0.1950663   2.1181631  )
         6           O0  tau(   6) = (   0.0000000   0.5133323   2.3132282  )
         7           O0  tau(   7) = (   0.0000000   0.0000000   2.4364363  )
         8           Ru1 tau(   8) = (   0.2500000   0.0000000   2.6315014  )
         9           Ru1 tau(   9) = (   0.0000000   0.5133323   2.6315014  )
        10           O0  tau(  10) = (   0.2500000   0.7083986   2.6315014  )
        11           O0  tau(  11) = (   0.2500000   0.3182660   2.6315014  )
        12           O0  tau(  12) = (   0.0000000   0.0000000   2.8265665  )
        13           O0  tau(  13) = (   0.0000000   0.5133323   2.9427276  )
        14           Ru1 tau(  14) = (   0.2500000   0.5133323   3.1406808  )
        15           Ru1 tau(  15) = (   0.0000000   0.0000000   3.1457639  )
        16           O0  tau(  16) = (   0.2500000   0.8279742   3.1435689  )
        17           O0  tau(  17) = (   0.2500000   0.1986904   3.1435689  )
        18           O0  tau(  18) = (   0.0000000   0.5133323   3.3386918  )
        19           O0  tau(  19) = (   0.0000000   0.0000000   3.4580876  )
        20           Ru1 tau(  20) = (   0.2500000   0.0000000   3.6718101  )
        21           Ru1 tau(  21) = (   0.0000000   0.5133323   3.6403293  )
        22           O0  tau(  22) = (   0.2500000   0.7080495   3.6659760  )
        23           O0  tau(  23) = (   0.2500000   0.3186151   3.6659760  )
        24           O0  tau(  24) = (   0.0000000   0.0000000   3.8466582  )
        25           O0  tau(  25) = (   0.5000000   0.5133323   1.9230980  )
        26           Ru1 tau(  26) = (   0.7500000   0.5133323   2.1181631  )
        27           Ru1 tau(  27) = (   0.5000000   0.0000000   2.1181631  )
        28           O0  tau(  28) = (   0.7500000   0.8315984   2.1181631  )
        29           O0  tau(  29) = (   0.7500000   0.1950663   2.1181631  )
        30           O0  tau(  30) = (   0.5000000   0.5133323   2.3132282  )
        31           O0  tau(  31) = (   0.5000000   0.0000000   2.4364363  )
        32           Ru1 tau(  32) = (   0.7500000   0.0000000   2.6315014  )
        33           Ru1 tau(  33) = (   0.5000000   0.5133323   2.6315014  )
        34           O0  tau(  34) = (   0.7500000   0.7083986   2.6315014  )
        35           O0  tau(  35) = (   0.7500000   0.3182660   2.6315014  )
        36           O0  tau(  36) = (   0.5000000   0.0000000   2.8265665  )
        37           O0  tau(  37) = (   0.5000000   0.5133323   2.9427276  )
        38           Ru1 tau(  38) = (   0.7500000   0.5133323   3.1406808  )
        39           Ru1 tau(  39) = (   0.5000000   0.0000000   3.1457639  )
        40           O0  tau(  40) = (   0.7500000   0.8279742   3.1435689  )
        41           O0  tau(  41) = (   0.7500000   0.1986904   3.1435689  )
        42           O0  tau(  42) = (   0.5000000   0.5133323   3.3386918  )
        43           O0  tau(  43) = (   0.5000000   0.0000000   3.4580876  )
        44           Ru1 tau(  44) = (   0.7500000   0.0000000   3.6718101  )
        45           Ru1 tau(  45) = (   0.5000000   0.5133323   3.6403293  )
        46           O0  tau(  46) = (   0.7500000   0.7080495   3.6659760  )
        47           O0  tau(  47) = (   0.7500000   0.3186151   3.6659760  )
        48           O0  tau(  48) = (   0.5000000   0.0000000   3.8466582  )
        49           O0  tau(  49) = (   0.5000000   0.5133323   3.8145998  )

     number of k points=     9  Methfessel-Paxton smearing, width (Ry)=  0.0100
                       cart. coord. in units 2pi/alat
        k(    1) = (   0.0000000   0.0000000   0.0000000), wk =   0.1250000
        k(    2) = (   0.0000000   0.2435070   0.0000000), wk =   0.2500000
        k(    3) = (   0.0000000  -0.4870139   0.0000000), wk =   0.1250000
        k(    4) = (   0.2500000   0.0000000   0.0000000), wk =   0.2500000
        k(    5) = (   0.2500000   0.2435070   0.0000000), wk =   0.5000000
        k(    6) = (   0.2500000  -0.4870139   0.0000000), wk =   0.2500000
        k(    7) = (  -0.5000000   0.0000000   0.0000000), wk =   0.1250000
        k(    8) = (  -0.5000000   0.2435070   0.0000000), wk =   0.2500000
        k(    9) = (  -0.5000000  -0.4870139   0.0000000), wk =   0.1250000

     Dense  grid:  1835289 G-vectors     FFT dimensions: (  90,  90, 486)

     Smooth grid:   332293 G-vectors     FFT dimensions: (  48,  50, 288)

     Largest allocated arrays     est. size (Mb)     dimensions
        Kohn-Sham Wavefunctions        13.50 Mb     (   1347,  657)
        NL pseudopotentials            14.74 Mb     (   1347,  717)
        Each V/rho on FFT grid          1.98 Mb     ( 129600)
        Each G-vector array             0.44 Mb     (  57362)
        G-vector shells                 0.22 Mb     (  28219)
     Largest temporary arrays     est. size (Mb)     dimensions
        Auxiliary wavefunctions        54.01 Mb     (   1347, 2628)
        Each subspace H/S matrix      105.38 Mb     (2628,2628)
        Each <psi_i|beta_j> matrix      7.19 Mb     (    717,  657)
        Arrays for rho mixing          15.82 Mb     ( 129600,   8)

     Check: negative/imaginary core charge=   -0.000004    0.000000

     Initial potential from superposition of free atoms
     Check: negative starting charge=   -1.043415

     starting charge  437.99970, renormalised to  454.00000

     negative rho (up, down):  0.108E+01 0.000E+00
     Starting wfc are  340 randomized atomic wfcs

     total cpu time spent up to now is       86.1 secs

     Self-consistent Calculation

     iteration #  1     ecut=    40.00 Ry     beta=0.30
     Davidson diagonalization with overlap
     ethr =  1.00E-02,  avg # of iterations =  6.0

     negative rho (up, down):  0.115E+01 0.000E+00

     total cpu time spent up to now is     1768.2 secs

     total energy              =   -4025.09651311 Ry
     Harris-Foulkes estimate   =   -4163.49539691 Ry
     estimated scf accuracy    <     275.24879085 Ry

     iteration #  2     ecut=    40.00 Ry     beta=0.30
     Davidson diagonalization with overlap
     ethr =  1.00E-02,  avg # of iterations =  8.0

     negative rho (up, down):  0.114E+01 0.000E+00

     total cpu time spent up to now is     3197.7 secs

     total energy              =   -3591.77262758 Ry
     Harris-Foulkes estimate   =   -5316.20786954 Ry
     estimated scf accuracy    <   43759.95840814 Ry

     iteration #  3     ecut=    40.00 Ry     beta=0.30
     Davidson diagonalization with overlap
     ethr =  1.00E-02,  avg # of iterations =  6.0

     negative rho (up, down):  0.114E+01 0.000E+00

     total cpu time spent up to now is     4395.7 secs

     total energy              =   -4113.74954873 Ry
     Harris-Foulkes estimate   =   -4221.37196369 Ry
     estimated scf accuracy    <    2601.72381267 Ry

     iteration #  4     ecut=    40.00 Ry     beta=0.30
     Davidson diagonalization with overlap
     ethr =  1.00E-02,  avg # of iterations =  5.0

     negative rho (up, down):  0.114E+01 0.000E+00

     total cpu time spent up to now is     5131.6 secs

     total energy              =   -4146.61325143 Ry
     Harris-Foulkes estimate   =   -4163.17735904 Ry
     estimated scf accuracy    <     276.64020709 Ry

     iteration #  5     ecut=    40.00 Ry     beta=0.30
     Davidson diagonalization with overlap
     ethr =  1.00E-02,  avg # of iterations =  2.7

     negative rho (up, down):  0.114E+01 0.000E+00

     total cpu time spent up to now is     5463.4 secs

     total energy              =   -4149.95433312 Ry
     Harris-Foulkes estimate   =   -4157.32189682 Ry
     estimated scf accuracy    <      63.78397670 Ry

     iteration #  6     ecut=    40.00 Ry     beta=0.30
     Davidson diagonalization with overlap
     ethr =  1.00E-02,  avg # of iterations =  1.0

     negative rho (up, down):  0.114E+01 0.000E+00

     total cpu time spent up to now is     5692.2 secs

     total energy              =   -4153.00568754 Ry
     Harris-Foulkes estimate   =   -4155.66778076 Ry
     estimated scf accuracy    <      62.36983197 Ry

     iteration #  7     ecut=    40.00 Ry     beta=0.30
     Davidson diagonalization with overlap
     ethr =  1.00E-02,  avg # of iterations =  1.0

     negative rho (up, down):  0.114E+01 0.000E+00

     total cpu time spent up to now is     5920.4 secs

     total energy              =   -4154.16557437 Ry
     Harris-Foulkes estimate   =   -4154.52829305 Ry
     estimated scf accuracy    <      14.80993174 Ry

     iteration #  8     ecut=    40.00 Ry     beta=0.30
     Davidson diagonalization with overlap
     ethr =  3.26E-03,  avg # of iterations =  1.0

     negative rho (up, down):  0.114E+01 0.000E+00

     total cpu time spent up to now is     6149.1 secs

     total energy              =   -4154.10655269 Ry
     Harris-Foulkes estimate   =   -4154.42973607 Ry
     estimated scf accuracy    <       7.52796117 Ry

     iteration #  9     ecut=    40.00 Ry     beta=0.30
     Davidson diagonalization with overlap
     ethr =  1.66E-03,  avg # of iterations =  1.8

     negative rho (up, down):  0.114E+01 0.000E+00

     total cpu time spent up to now is     6425.4 secs

     total energy              =   -4154.13453436 Ry
     Harris-Foulkes estimate   =   -4154.27831064 Ry
     estimated scf accuracy    <       2.46639351 Ry

     iteration # 10     ecut=    40.00 Ry     beta=0.30
     Davidson diagonalization with overlap
     ethr =  5.43E-04,  avg # of iterations =  5.3

     negative rho (up, down):  0.114E+01 0.000E+00

     total cpu time spent up to now is     6952.5 secs

     total energy              =   -4154.14040316 Ry
     Harris-Foulkes estimate   =   -4154.29919279 Ry
     estimated scf accuracy    <       7.24674612 Ry

     iteration # 11     ecut=    40.00 Ry     beta=0.30
     Davidson diagonalization with overlap
     ethr =  5.43E-04,  avg # of iterations =  1.1

     negative rho (up, down):  0.114E+01 0.000E+00

     total cpu time spent up to now is     7189.8 secs

     total energy              =   -4154.13635017 Ry
     Harris-Foulkes estimate   =   -4154.23831109 Ry
     estimated scf accuracy    <       0.86362383 Ry

     iteration # 12     ecut=    40.00 Ry     beta=0.30
     Davidson diagonalization with overlap
     ethr =  1.90E-04,  avg # of iterations =  6.3

     negative rho (up, down):  0.114E+01 0.000E+00

     total cpu time spent up to now is     7771.4 secs

     total energy              =   -4154.16245259 Ry
     Harris-Foulkes estimate   =   -4154.22354153 Ry
     estimated scf accuracy    <       1.39023493 Ry

     iteration # 13     ecut=    40.00 Ry     beta=0.30
     Davidson diagonalization with overlap
     ethr =  1.90E-04,  avg # of iterations =  1.3

     negative rho (up, down):  0.114E+01 0.000E+00

     total cpu time spent up to now is     8019.3 secs

     total energy              =   -4154.17035092 Ry
     Harris-Foulkes estimate   =   -4154.21598307 Ry
     estimated scf accuracy    <       0.81577431 Ry

     iteration # 14     ecut=    40.00 Ry     beta=0.30
     Davidson diagonalization with overlap
     ethr =  1.80E-04,  avg # of iterations =  1.0

     negative rho (up, down):  0.115E+01 0.000E+00

     total cpu time spent up to now is     8249.1 secs

     total energy              =   -4154.19224952 Ry
     Harris-Foulkes estimate   =   -4154.19901739 Ry
     estimated scf accuracy    <       0.13892088 Ry

     iteration # 15     ecut=    40.00 Ry     beta=0.30
     Davidson diagonalization with overlap
     ethr =  3.06E-05,  avg # of iterations =  6.9

     negative rho (up, down):  0.115E+01 0.000E+00

     total cpu time spent up to now is     8856.4 secs

     total energy              =   -4154.19425137 Ry
     Harris-Foulkes estimate   =   -4154.19672042 Ry
     estimated scf accuracy    <       0.02567772 Ry

     iteration # 16     ecut=    40.00 Ry     beta=0.30
     Davidson diagonalization with overlap
     ethr =  5.66E-06,  avg # of iterations =  5.0

     negative rho (up, down):  0.115E+01 0.000E+00

     total cpu time spent up to now is     9346.6 secs

     total energy              =   -4154.19475433 Ry
     Harris-Foulkes estimate   =   -4154.19653979 Ry
     estimated scf accuracy    <       0.01711200 Ry

     iteration # 17     ecut=    40.00 Ry     beta=0.30
     Davidson diagonalization with overlap
     ethr =  3.77E-06,  avg # of iterations =  5.6

     negative rho (up, down):  0.115E+01 0.000E+00

     total cpu time spent up to now is     9866.7 secs

     total energy              =   -4154.19416484 Ry
     Harris-Foulkes estimate   =   -4154.19678995 Ry
     estimated scf accuracy    <       0.02405220 Ry

     iteration # 18     ecut=    40.00 Ry     beta=0.30
     Davidson diagonalization with overlap
     ethr =  3.77E-06,  avg # of iterations =  1.6

     negative rho (up, down):  0.115E+01 0.000E+00

     total cpu time spent up to now is    10127.2 secs

     total energy              =   -4154.19434983 Ry
     Harris-Foulkes estimate   =   -4154.19711923 Ry
     estimated scf accuracy    <       0.04209853 Ry

     iteration # 19     ecut=    40.00 Ry     beta=0.30
     Davidson diagonalization with overlap
     ethr =  3.77E-06,  avg # of iterations =  1.0

     negative rho (up, down):  0.115E+01 0.000E+00

     total cpu time spent up to now is    10355.6 secs

     total energy              =   -4154.19567386 Ry
     Harris-Foulkes estimate   =   -4154.19603641 Ry
     estimated scf accuracy    <       0.00591949 Ry

     iteration # 20     ecut=    40.00 Ry     beta=0.30
     Davidson diagonalization with overlap
     ethr =  1.30E-06,  avg # of iterations =  3.6

     negative rho (up, down):  0.115E+01 0.000E+00

     total cpu time spent up to now is    10743.4 secs

     total energy              =   -4154.19554649 Ry
     Harris-Foulkes estimate   =   -4154.19615296 Ry
     estimated scf accuracy    <       0.02800266 Ry

     iteration # 21     ecut=    40.00 Ry     beta=0.30
     Davidson diagonalization with overlap
     ethr =  1.30E-06,  avg # of iterations =  4.4

     negative rho (up, down):  0.115E+01 0.000E+00

     total cpu time spent up to now is    11181.4 secs

     total energy              =   -4154.19543757 Ry
     Harris-Foulkes estimate   =   -4154.19629639 Ry
     estimated scf accuracy    <       0.04760773 Ry

     iteration # 22     ecut=    40.00 Ry     beta=0.30
     Davidson diagonalization with overlap
     ethr =  1.30E-06,  avg # of iterations =  1.6

     negative rho (up, down):  0.115E+01 0.000E+00

     total cpu time spent up to now is    11444.2 secs

     total energy              =   -4154.19569759 Ry
     Harris-Foulkes estimate   =   -4154.19612219 Ry
     estimated scf accuracy    <       0.00759228 Ry

     iteration # 23     ecut=    40.00 Ry     beta=0.30
     Davidson diagonalization with overlap
     ethr =  1.30E-06,  avg # of iterations =  1.2

     negative rho (up, down):  0.115E+01 0.000E+00

     total cpu time spent up to now is    11687.3 secs

     total energy              =   -4154.19584752 Ry
     Harris-Foulkes estimate   =   -4154.19598385 Ry
     estimated scf accuracy    <       0.00203586 Ry

     iteration # 24     ecut=    40.00 Ry     beta=0.30
     Davidson diagonalization with overlap
     ethr =  4.48E-07,  avg # of iterations =  1.0

     negative rho (up, down):  0.115E+01 0.000E+00

     total cpu time spent up to now is    11916.3 secs

     total energy              =   -4154.19574070 Ry
     Harris-Foulkes estimate   =   -4154.19610773 Ry
     estimated scf accuracy    <       0.00957316 Ry

     iteration # 25     ecut=    40.00 Ry     beta=0.30
     Davidson diagonalization with overlap
     ethr =  4.48E-07,  avg # of iterations =  1.0

     negative rho (up, down):  0.115E+01 0.000E+00

     total cpu time spent up to now is    12148.2 secs

     total energy              =   -4154.19590436 Ry
     Harris-Foulkes estimate   =   -4154.19595077 Ry
     estimated scf accuracy    <       0.00041233 Ry

     iteration # 26     ecut=    40.00 Ry     beta=0.30
     Davidson diagonalization with overlap
     ethr =  9.08E-08,  avg # of iterations =  1.0

     negative rho (up, down):  0.115E+01 0.000E+00

     total cpu time spent up to now is    12379.6 secs

     total energy              =   -4154.19591317 Ry
     Harris-Foulkes estimate   =   -4154.19595823 Ry
     estimated scf accuracy    <       0.00072616 Ry

     iteration # 27     ecut=    40.00 Ry     beta=0.30
     Davidson diagonalization with overlap
     ethr =  9.08E-08,  avg # of iterations =  1.0

     negative rho (up, down):  0.115E+01 0.000E+00

     total cpu time spent up to now is    12609.1 secs

     total energy              =   -4154.19593031 Ry
     Harris-Foulkes estimate   =   -4154.19594401 Ry
     estimated scf accuracy    <       0.00012459 Ry

     iteration # 28     ecut=    40.00 Ry     beta=0.30
     Davidson diagonalization with overlap
     ethr =  2.74E-08,  avg # of iterations =  1.0

     negative rho (up, down):  0.115E+01 0.000E+00

     total cpu time spent up to now is    12840.1 secs

     total energy              =   -4154.19592320 Ry
     Harris-Foulkes estimate   =   -4154.19595057 Ry
     estimated scf accuracy    <       0.00034232 Ry

     iteration # 29     ecut=    40.00 Ry     beta=0.30
     Davidson diagonalization with overlap
     ethr =  2.74E-08,  avg # of iterations =  1.0

     negative rho (up, down):  0.115E+01 0.000E+00

     total cpu time spent up to now is    13071.2 secs

     total energy              =   -4154.19593372 Ry
     Harris-Foulkes estimate   =   -4154.19594455 Ry
     estimated scf accuracy    <       0.00017470 Ry

     iteration # 30     ecut=    40.00 Ry     beta=0.30
     Davidson diagonalization with overlap
     ethr =  2.74E-08,  avg # of iterations =  1.0

     negative rho (up, down):  0.115E+01 0.000E+00

     total cpu time spent up to now is    13301.4 secs

     total energy              =   -4154.19593709 Ry
     Harris-Foulkes estimate   =   -4154.19594255 Ry
     estimated scf accuracy    <       0.00015192 Ry

     iteration # 31     ecut=    40.00 Ry     beta=0.30
     Davidson diagonalization with overlap
     ethr =  2.74E-08,  avg # of iterations =  1.0

     negative rho (up, down):  0.115E+01 0.000E+00

     total cpu time spent up to now is    13533.3 secs

     total energy              =   -4154.19593541 Ry
     Harris-Foulkes estimate   =   -4154.19594534 Ry
     estimated scf accuracy    <       0.00075838 Ry

     iteration # 32     ecut=    40.00 Ry     beta=0.30
     Davidson diagonalization with overlap
     ethr =  2.74E-08,  avg # of iterations =  1.0

     negative rho (up, down):  0.115E+01 0.000E+00

     total cpu time spent up to now is    13763.3 secs

     total energy              =   -4154.19593746 Ry
     Harris-Foulkes estimate   =   -4154.19594451 Ry
     estimated scf accuracy    <       0.00008143 Ry

     iteration # 33     ecut=    40.00 Ry     beta=0.30
     Davidson diagonalization with overlap
     ethr =  1.79E-08,  avg # of iterations =  1.0

     negative rho (up, down):  0.115E+01 0.000E+00

     total cpu time spent up to now is    13993.6 secs

     total energy              =   -4154.19594082 Ry
     Harris-Foulkes estimate   =   -4154.19594234 Ry
     estimated scf accuracy    <       0.00006209 Ry

     iteration # 34     ecut=    40.00 Ry     beta=0.30
     Davidson diagonalization with overlap
     ethr =  1.37E-08,  avg # of iterations =  1.0

     negative rho (up, down):  0.115E+01 0.000E+00

     total cpu time spent up to now is    14222.9 secs

     total energy              =   -4154.19593828 Ry
     Harris-Foulkes estimate   =   -4154.19594495 Ry
     estimated scf accuracy    <       0.00015675 Ry

     iteration # 35     ecut=    40.00 Ry     beta=0.30
     Davidson diagonalization with overlap
     ethr =  1.37E-08,  avg # of iterations =  1.0

     negative rho (up, down):  0.115E+01 0.000E+00

     total cpu time spent up to now is    14453.4 secs

     total energy              =   -4154.19594102 Ry
     Harris-Foulkes estimate   =   -4154.19594300 Ry
     estimated scf accuracy    <       0.00003535 Ry

     iteration # 36     ecut=    40.00 Ry     beta=0.30
     Davidson diagonalization with overlap
     ethr =  7.79E-09,  avg # of iterations =  1.0

     negative rho (up, down):  0.115E+01 0.000E+00

     total cpu time spent up to now is    14683.2 secs

     total energy              =   -4154.19594113 Ry
     Harris-Foulkes estimate   =   -4154.19594334 Ry
     estimated scf accuracy    <       0.00002765 Ry

     iteration # 37     ecut=    40.00 Ry     beta=0.30
     Davidson diagonalization with overlap
     ethr =  6.09E-09,  avg # of iterations =  1.0

     negative rho (up, down):  0.115E+01 0.000E+00

     total cpu time spent up to now is    14913.3 secs

     total energy              =   -4154.19594210 Ry
     Harris-Foulkes estimate   =   -4154.19594271 Ry
     estimated scf accuracy    <       0.00000816 Ry

     iteration # 38     ecut=    40.00 Ry     beta=0.30
     Davidson diagonalization with overlap
     ethr =  1.80E-09,  avg # of iterations =  1.0

     negative rho (up, down):  0.115E+01 0.000E+00

     total cpu time spent up to now is    15144.5 secs

     total energy              =   -4154.19594185 Ry
     Harris-Foulkes estimate   =   -4154.19594294 Ry
     estimated scf accuracy    <       0.00001119 Ry

     iteration # 39     ecut=    40.00 Ry     beta=0.30
     Davidson diagonalization with overlap
     ethr =  1.80E-09,  avg # of iterations =  1.0

     negative rho (up, down):  0.115E+01 0.000E+00

     total cpu time spent up to now is    15372.3 secs

     total energy              =   -4154.19594168 Ry
     Harris-Foulkes estimate   =   -4154.19594336 Ry
     estimated scf accuracy    <       0.00002291 Ry

     iteration # 40     ecut=    40.00 Ry     beta=0.30
     Davidson diagonalization with overlap
     ethr =  1.80E-09,  avg # of iterations =  1.0

     negative rho (up, down):  0.115E+01 0.000E+00

     total cpu time spent up to now is    15600.9 secs

     total energy              =   -4154.19594234 Ry
     Harris-Foulkes estimate   =   -4154.19594281 Ry
     estimated scf accuracy    <       0.00000919 Ry

     iteration # 41     ecut=    40.00 Ry     beta=0.30
     Davidson diagonalization with overlap
     ethr =  1.80E-09,  avg # of iterations =  1.0

     negative rho (up, down):  0.115E+01 0.000E+00

     total cpu time spent up to now is    15830.2 secs

     total energy              =   -4154.19594233 Ry
     Harris-Foulkes estimate   =   -4154.19594296 Ry
     estimated scf accuracy    <       0.00005853 Ry

     iteration # 42     ecut=    40.00 Ry     beta=0.30
     Davidson diagonalization with overlap
     ethr =  1.80E-09,  avg # of iterations =  1.0

     negative rho (up, down):  0.115E+01 0.000E+00

     total cpu time spent up to now is    16059.9 secs

     total energy              =   -4154.19594248 Ry
     Harris-Foulkes estimate   =   -4154.19594283 Ry
     estimated scf accuracy    <       0.00000309 Ry

     iteration # 43     ecut=    40.00 Ry     beta=0.30
     Davidson diagonalization with overlap
     ethr =  6.80E-10,  avg # of iterations =  1.0

     negative rho (up, down):  0.115E+01 0.000E+00

     total cpu time spent up to now is    16288.2 secs

     total energy              =   -4154.19594267 Ry
     Harris-Foulkes estimate   =   -4154.19594277 Ry
     estimated scf accuracy    <       0.00000564 Ry

     iteration # 44     ecut=    40.00 Ry     beta=0.30
     Davidson diagonalization with overlap
     ethr =  6.80E-10,  avg # of iterations =  1.0

     negative rho (up, down):  0.115E+01 0.000E+00

     total cpu time spent up to now is    16517.9 secs

     total energy              =   -4154.19594262 Ry
     Harris-Foulkes estimate   =   -4154.19594284 Ry
     estimated scf accuracy    <       0.00000402 Ry

     iteration # 45     ecut=    40.00 Ry     beta=0.30
     Davidson diagonalization with overlap
     ethr =  6.80E-10,  avg # of iterations =  1.0

     negative rho (up, down):  0.115E+01 0.000E+00

     total cpu time spent up to now is    16747.5 secs

     total energy              =   -4154.19594265 Ry
     Harris-Foulkes estimate   =   -4154.19594288 Ry
     estimated scf accuracy    <       0.00000604 Ry

     iteration # 46     ecut=    40.00 Ry     beta=0.30
     Davidson diagonalization with overlap
     ethr =  6.80E-10,  avg # of iterations =  1.0

     negative rho (up, down):  0.115E+01 0.000E+00

     total cpu time spent up to now is    16978.8 secs

     total energy              =   -4154.19594272 Ry
     Harris-Foulkes estimate   =   -4154.19594283 Ry
     estimated scf accuracy    <       0.00000105 Ry

     iteration # 47     ecut=    40.00 Ry     beta=0.30
     Davidson diagonalization with overlap
     ethr =  2.31E-10,  avg # of iterations =  1.0

     negative rho (up, down):  0.115E+01 0.000E+00

     total cpu time spent up to now is    17207.6 secs

     total energy              =   -4154.19594277 Ry
     Harris-Foulkes estimate   =   -4154.19594283 Ry
     estimated scf accuracy    <       0.00000110 Ry

     iteration # 48     ecut=    40.00 Ry     beta=0.30
     Davidson diagonalization with overlap
     ethr =  2.31E-10,  avg # of iterations =  1.0

     negative rho (up, down):  0.115E+01 0.000E+00

     total cpu time spent up to now is    17434.5 secs

     End of self-consistent calculation

          k = 0.0000 0.0000 0.0000 ( 41487 PWs)   bands (ev):

   -79.4541 -72.6879 -72.6772 -72.5058 -72.4956 -72.3532 -72.3427 -72.3198
   -72.2939 -72.2815 -72.2566 -72.2229 -72.2128 -72.1740 -72.0272 -72.0110
   -53.9048 -46.3193 -46.1738 -42.8365 -42.6934 -42.6807 -42.6511 -42.5752
   -42.5652 -42.5572 -42.5533 -42.5518 -42.5208 -42.5196 -42.5174 -42.5134
   -42.5060 -42.4872 -42.4720 -42.4173 -42.4017 -42.3935 -42.3892 -42.3518
   -42.3336 -42.3193 -42.2807 -42.2474 -42.2436 -42.2094 -42.2070 -42.1694
   -42.1667 -42.1554 -42.1466 -42.1425 -42.1065 -42.1058 -42.0900 -42.0849
   -42.0824 -42.0611 -42.0297 -42.0288 -41.9602 -41.8694 -41.8676 -41.8342
   -20.3048 -18.9736 -18.8134 -18.5722 -18.3857 -18.2754 -18.0979 -17.9365
   -17.9023 -17.8714 -17.8533 -17.8231 -17.7944 -17.6700 -17.6134 -17.5756
   -17.5623 -17.5565 -17.4985 -17.4914 -17.4349 -17.4344 -17.3210 -17.3046
   -17.2594 -17.1784 -17.0537 -17.0424 -16.9855 -16.9197 -16.7873 -16.2038
   -16.1323 -15.4230 -15.2851 -10.9210  -7.4755  -7.0457  -7.0271  -6.9817
    -6.7649  -6.7517  -6.5984  -6.1185  -6.0200  -5.9070  -5.8526  -5.8262
    -5.7554  -5.7547  -5.6946  -5.6657  -5.6428  -5.6361  -5.6301  -5.5951
    -5.5761  -5.5519  -5.5168  -5.4966  -5.4860  -5.4455  -5.3498  -5.2770
    -5.2666  -5.1711  -5.1708  -5.0989  -5.0985  -5.0536  -4.8918  -4.7368
    -4.5213  -4.4545  -4.3979  -4.3910  -4.2067  -4.0096  -3.7392  -3.7130
    -3.6049  -3.5774  -3.5630  -3.5407  -3.5122  -3.4878  -3.3425  -3.3146
    -3.2245  -3.1489  -3.1457  -3.1093  -3.1029  -3.0794  -3.0704  -3.0083
    -2.9719  -2.8727  -2.7949  -2.7817  -2.7568  -2.6390  -2.5864  -2.4613
    -2.4308  -2.4176  -2.3585  -2.3407  -2.3344  -2.2807  -2.2406  -2.2290
    -2.1795  -2.1438  -2.1332  -2.0670  -1.9819  -1.9429  -1.8602  -1.8464
    -1.7825  -1.7188  -1.5982  -1.5469  -1.5201  -1.4739  -1.3908  -1.2976
    -1.2181  -1.0813  -1.0103  -0.8361  -0.7368  -0.5188  -0.1593  -0.1406
    -0.1301  -0.1120  -0.0625  -0.0319  -0.0265   0.1323   0.1379   0.1896
     0.2179   0.3389   0.3607   0.3626   0.3915   0.4922   0.5454   0.5585
     0.5741   0.5973   0.6181   0.6312   0.6518   0.6626   0.6657   0.8609
     0.8635   1.0409   1.0622   1.0889   1.1807   1.2354   1.4976   1.5945
     1.6477   1.7610   1.8886   1.9456   2.1135   2.1172   2.1409   2.1849
     2.2373   2.3002   2.3680   2.4541   2.7395   2.8297   3.0173   3.1086
     3.3440   3.5047   3.6618   4.0827   4.2222   4.2590   4.3119   4.3265
     4.3502   4.4005   4.4362   4.4776   4.5585   4.6377   4.8239   5.2425
     5.2949   5.4223   5.4446   5.4675   5.5245   5.6322   5.6887   5.7110
     5.8115   5.8700   5.9287   5.9698   5.9874   6.3612   6.5551   6.8490
     7.2388   7.4312   8.0400   8.1062   8.7711   8.8436   8.8789   8.9272
     9.0081   9.1781   9.3745   9.4171   9.4707   9.5831   9.6222   9.7578
     9.8148   9.8297   9.9264   9.9775  10.1032  10.1674  10.3349  10.3630
    10.3889  10.4809  10.6046  10.6111  10.7101  10.7740  10.8390  10.8901
    10.9239  11.0213  11.0554  11.0974  11.1208  11.1252  11.1969  11.3479
    11.3878  11.3964  11.4984  11.5827  11.6646  11.6835  11.7359  11.7728
    11.8220  11.9022  11.9830  12.0064  12.2046  12.3775  12.3886  12.4428
    12.5227  12.5338  12.5758  12.8013  12.8030  12.8039  12.9095  13.0830
    13.1937  13.2090  13.2673  13.2683  13.4301  13.4447  13.4508  13.4516
    13.5409  13.6608  13.7051  13.7189  13.7397  13.8050  13.8211  13.8337
    13.8546  13.9662  13.9812  14.0100  14.0122  14.0498  14.0700  14.1634
    14.1834  14.2155  14.3578  14.3657  14.4083  14.4141  14.5076  14.5173
    14.5572  14.5611  14.6417  14.6549  14.6679  14.7725  14.7809  14.8275
    14.8789  14.9057  14.9229  14.9802  15.0465  15.1495  15.1714  15.2364
    15.3215  15.3568  15.4583  15.4635  15.4733  15.5636  15.5833  15.7816
    15.8311  15.8740  15.9977  16.0056  16.1009  16.1071  16.2154  16.2333
    16.2941  16.3793  16.4144  16.4983  16.5858  16.6344  16.7469  16.9084
    16.9615  16.9962  17.0317  17.0696  17.0696  17.0902  17.2538  17.3211
    17.4341  17.4451  17.5628  17.5720  17.6991  17.7032  17.7214  17.8984
    17.9177  18.0246  18.0687  18.0885  18.1302  18.1988  18.2656  18.2776
    18.2878  18.4807  18.5664  18.5720  18.6475  18.7645  18.7905  18.8167
    18.8820  18.9253  18.9668  19.0757  19.1010  19.3104  19.4214  19.4459
    19.4574  19.4620  19.5469  19.5671  19.5841  19.6441  19.6850  19.7993
    19.8201  19.8482  20.0471  20.0910  20.1295  20.1805  20.1822  20.3432
    20.3939  20.3995  20.4966  20.5080  20.5794  20.6175  20.6443  20.7450
    20.7501  20.7729  20.8195  20.8276  20.8736  20.9101  20.9748  20.9861
    21.0569  21.0689  21.1009  21.1346  21.1917  21.3126  21.3196  21.3274
    21.3470  21.3962  21.4148  21.4316  21.4747  21.5291  21.5893  21.6505
    21.6876  21.7222  21.7427  21.8147  21.8675  21.8994  21.9100  21.9527
    21.9702  22.0671  22.1443  22.1539  22.1636  22.2633  22.2647  22.3625
    22.3661  22.3673  22.4893  22.5325  22.5430  22.5933  22.6874  22.7252
    22.7572  22.7646  22.7938  22.8274  22.8527  22.8716  22.8800  22.8982
    22.9612  23.0311  23.0899  23.1684  23.2180  23.2645  23.3434  23.3541
    23.4534  23.4842  23.5065  23.5544  23.5657  23.6089  23.6403  23.6803
    23.8103  23.8610  23.9006  23.9609  24.0137  24.0266  24.0743  24.1565
    24.1650  24.1858  24.2378  24.2778  24.3299  24.3339  24.3755  24.4105
    24.4107  24.4120  24.4557  24.4703  24.4887  24.4958  24.5037  24.5527
    24.5565  24.6186  24.6396  24.6884  24.7040  24.7369  24.7703  24.8371
    24.8586  24.8633  24.8671  24.8752  24.9936  25.0000  25.0189  25.0508
    25.0588  25.0621  25.0724  25.1250  25.1771  25.2117  25.2189  25.2276
    25.2845  25.2867  25.3565  25.3799  25.3899  25.4523  25.4587  25.4881
    25.5054  25.5852  25.6000  25.6594  25.6980  25.7112  25.7494  25.7606
    25.7723  25.7967  25.8634  25.9114  25.9250  25.9654  26.0024  26.0173
    26.0321  26.0454  26.0641  26.0985  26.2154  26.2210  26.2376  26.2680
    26.2881  26.3694  26.3706  26.4216  26.4365  26.5533  26.6100  26.6362
    26.6513  26.7273  26.7685  26.7853  26.8130  26.9494  26.9776  26.9836
    27.0073  27.0633  27.1526  27.1733  27.1851  27.1893  27.2263  27.2614
    27.2846

          k = 0.0000 0.2435 0.0000 ( 41552 PWs)   bands (ev):

   -79.4542 -72.6879 -72.6772 -72.5058 -72.4956 -72.3531 -72.3427 -72.3198
   -72.2939 -72.2815 -72.2566 -72.2230 -72.2127 -72.1740 -72.0272 -72.0110
   -53.9047 -46.3193 -46.1738 -42.8365 -42.6931 -42.6811 -42.6511 -42.5753
   -42.5643 -42.5572 -42.5533 -42.5527 -42.5196 -42.5193 -42.5174 -42.5134
   -42.5080 -42.4872 -42.4720 -42.4154 -42.4046 -42.3935 -42.3895 -42.3518
   -42.3321 -42.3187 -42.2777 -42.2470 -42.2440 -42.2091 -42.2070 -42.1694
   -42.1666 -42.1554 -42.1469 -42.1417 -42.1071 -42.1058 -42.0905 -42.0867
   -42.0821 -42.0611 -42.0298 -42.0289 -41.9603 -41.8704 -41.8680 -41.8342
   -20.3037 -18.8621 -18.7174 -18.5036 -18.3251 -18.2365 -18.1147 -18.0790
   -17.9412 -17.8493 -17.8198 -17.8098 -17.7744 -17.7413 -17.7108 -17.6900
   -17.6792 -17.5863 -17.4374 -17.4141 -17.3737 -17.3060 -17.3050 -17.2732
   -17.2591 -17.1946 -17.1500 -17.1045 -17.0675 -17.0534 -16.7880 -16.2033
   -16.1290 -15.4183 -15.2848 -10.8868  -7.1596  -6.7981  -6.7717  -6.6411
    -6.6203  -6.5978  -6.5426  -6.0864  -5.9984  -5.9885  -5.9704  -5.8975
    -5.8437  -5.8331  -5.7974  -5.7279  -5.7167  -5.6847  -5.6300  -5.5667
    -5.5346  -5.5217  -5.4807  -5.4215  -5.4157  -5.4069  -5.3720  -5.3675
    -5.3471  -5.2585  -5.1442  -4.9454  -4.9276  -4.7155  -4.5554  -4.3962
    -4.3870  -4.3118  -4.2868  -4.2032  -4.0804  -4.0510  -3.8925  -3.8510
    -3.7840  -3.7382  -3.6507  -3.6399  -3.6109  -3.5620  -3.5475  -3.5345
    -3.4611  -3.4475  -3.3631  -3.1904  -3.1604  -3.0832  -3.0375  -2.9830
    -2.9283  -2.9166  -2.8487  -2.8400  -2.7223  -2.6695  -2.6204  -2.6127
    -2.5566  -2.5226  -2.4697  -2.4631  -2.4299  -2.4091  -2.3411  -2.2991
    -2.2598  -2.2504  -2.1804  -2.0845  -2.0655  -2.0577  -1.9754  -1.8625
    -1.8486  -1.7620  -1.7514  -1.7156  -1.6297  -1.5951  -1.4987  -1.4475
    -1.2759  -1.2170  -1.1709  -1.0105  -0.8581  -0.1700  -0.1323  -0.0309
     0.0401   0.1113   0.1320   0.1321   0.2399   0.2630   0.2907   0.3031
     0.3423   0.3924   0.4029   0.4132   0.4759   0.4833   0.4946   0.5259
     0.5260   0.5855   0.6046   0.6168   0.6233   0.6344   0.6757   0.6799
     0.7455   0.8971   1.0754   1.1542   1.2544   1.4223   1.5681   1.6932
     1.8078   1.9166   2.0235   2.0242   2.0830   2.1088   2.1844   2.1983
     2.2085   2.2987   2.3423   2.3712   2.4103   2.5952   3.0384   3.1585
     3.4399   3.5246   3.5317   3.5549   3.5914   3.7662   4.2365   4.3169
     4.3383   4.6738   4.7541   4.8168   5.3338   5.3826   5.4288   5.4524
     5.4566   5.4792   5.5355   5.5560   5.6214   5.6527   5.6707   5.6939
     5.6941   5.7217   5.8166   6.0580   6.1970   6.4454   6.5753   6.9896
     7.4208   7.4405   7.7382   7.9942   8.0890   8.2843   8.3296   8.5296
     8.8702   9.0152   9.0506   9.1618   9.3058   9.4613   9.5398   9.6194
     9.8579  10.0090  10.0256  10.0618  10.1562  10.3108  10.3368  10.3482
    10.5057  10.5764  10.6228  10.6761  10.7740  10.8275  10.8296  11.0258
    11.1849  11.1941  11.2470  11.3180  11.3224  11.3899  11.4101  11.5296
    11.5929  11.5930  11.6212  11.6395  11.6992  11.7803  11.8134  11.8652
    11.9124  11.9652  12.0063  12.0299  12.0716  12.1567  12.1662  12.2591
    12.2607  12.3790  12.4811  12.5328  12.5543  12.6090  12.7000  12.7435
    12.9245  12.9618  12.9648  12.9753  12.9975  13.1529  13.2395  13.2929
    13.3153  13.4285  13.5669  13.5702  13.5945  13.8479  13.9116  13.9571
    14.0220  14.1288  14.1783  14.1865  14.2041  14.2657  14.3059  14.3599
    14.4220  14.5356  14.6335  14.6541  14.6976  14.7579  14.8241  14.8603
    14.9855  15.0046  15.0155  15.0832  15.1027  15.1684  15.2127  15.2456
    15.2710  15.2847  15.3087  15.3656  15.3761  15.4903  15.4980  15.5300
    15.6274  15.6916  15.7123  15.7489  15.7900  15.8394  15.8633  15.9382
    15.9857  16.1182  16.1858  16.2276  16.2655  16.3762  16.4320  16.4448
    16.5319  16.5583  16.6773  16.7201  16.7791  16.7843  16.8197  16.9035
    16.9172  17.0221  17.0608  17.1222  17.1696  17.2233  17.2434  17.3479
    17.3943  17.4579  17.4818  17.4852  17.5447  17.5819  17.6236  17.7782
    17.7838  17.8638  17.8659  17.9459  17.9697  18.0506  18.1068  18.2618
    18.3139  18.3297  18.4040  18.4396  18.4626  18.5354  18.5656  18.6452
    18.6778  18.6930  18.7167  18.8019  18.8383  18.9546  19.0059  19.0629
    19.1207  19.1774  19.2702  19.3265  19.4074  19.4214  19.4442  19.4703
    19.4820  19.6208  19.7219  19.7398  19.7645  19.8414  19.8779  19.8889
    19.9625  19.9852  20.0372  20.2305  20.2718  20.3394  20.3719  20.3937
    20.4646  20.5161  20.5771  20.6183  20.6794  20.7283  20.8806  20.9168
    20.9216  20.9792  21.0329  21.0423  21.0963  21.0992  21.1284  21.1701
    21.1998  21.2313  21.2378  21.3031  21.3124  21.3863  21.4210  21.4772
    21.5162  21.5870  21.6083  21.6441  21.6540  21.7518  21.7750  21.7981
    21.8072  21.8198  21.8332  21.9008  21.9824  22.0145  22.0629  22.0639
    22.1226  22.2205  22.2479  22.3001  22.3563  22.3971  22.4206  22.4273
    22.4544  22.4790  22.5204  22.5350  22.6140  22.6365  22.6492  22.7116
    22.7562  22.7573  22.7830  22.9776  23.0111  23.0407  23.0423  23.0739
    23.1063  23.2047  23.2488  23.2865  23.3181  23.3599  23.3973  23.4379
    23.4921  23.5536  23.5643  23.5975  23.6209  23.6457  23.6900  23.7707
    23.7774  23.8107  23.8253  23.8768  23.9111  23.9392  23.9630  24.0170
    24.0207  24.0899  24.1595  24.1954  24.2137  24.2857  24.3381  24.3478
    24.3838  24.4404  24.4722  24.4843  24.5144  24.5243  24.6115  24.6837
    24.7109  24.7738  24.7998  24.8069  24.8305  24.8756  24.8981  25.0226
    25.0710  25.0819  25.0865  25.2132  25.2685  25.2704  25.3557  25.3788
    25.4481  25.4701  25.4980  25.5137  25.5627  25.6113  25.7086  25.7210
    25.7587  25.7760  25.8595  25.8867  25.8920  25.9697  25.9930  26.1001
    26.1711  26.1868  26.2128  26.2129  26.2333  26.2924  26.3713  26.3942
    26.4224  26.4361  26.4738  26.4879  26.5376  26.5489  26.6133  26.8275
    26.8338  26.8423  26.8727  26.9637  26.9774  27.1390  27.1639  27.1991
    27.2003  27.2397  27.2522  27.2593  27.3135  27.3189  27.3216  27.3603
    27.3671  27.3985  27.4000  27.5177  27.5282  27.5793  27.5959  27.6115
    27.6675

          k = 0.0000-0.4870 0.0000 ( 41512 PWs)   bands (ev):

   -79.4542 -72.6879 -72.6772 -72.5058 -72.4956 -72.3531 -72.3427 -72.3198
   -72.2939 -72.2815 -72.2566 -72.2230 -72.2128 -72.1740 -72.0272 -72.0110
   -53.9047 -46.3193 -46.1737 -42.8365 -42.6928 -42.6814 -42.6511 -42.5754
   -42.5633 -42.5572 -42.5535 -42.5533 -42.5195 -42.5177 -42.5174 -42.5134
   -42.5099 -42.4872 -42.4721 -42.4133 -42.4074 -42.3935 -42.3897 -42.3518
   -42.3309 -42.3180 -42.2748 -42.2466 -42.2444 -42.2089 -42.2070 -42.1694
   -42.1665 -42.1555 -42.1471 -42.1408 -42.1085 -42.1051 -42.0911 -42.0884
   -42.0821 -42.0612 -42.0299 -42.0290 -41.9603 -41.8714 -41.8684 -41.8341
   -20.3026 -18.6960 -18.5449 -18.5330 -18.2440 -18.2387 -18.1491 -18.0864
   -17.9235 -17.8890 -17.8525 -17.8447 -17.8302 -17.7919 -17.7880 -17.6954
   -17.6513 -17.5972 -17.4909 -17.4405 -17.3055 -17.3035 -17.2908 -17.2594
   -17.2556 -17.2234 -17.2121 -17.1849 -17.1723 -17.0545 -16.7911 -16.2028
   -16.1264 -15.4135 -15.2837 -10.8569  -6.8066  -6.7708  -6.7340  -6.6703
    -6.1515  -6.1321  -6.0749  -6.0360  -6.0161  -5.9836  -5.9824  -5.9338
    -5.9135  -5.8230  -5.7813  -5.6988  -5.6976  -5.6306  -5.5864  -5.4895
    -5.4890  -5.4819  -5.4733  -5.4588  -5.3729  -5.3472  -5.3295  -5.3173
    -5.2161  -5.1898  -4.9112  -4.8936  -4.8604  -4.6793  -4.6776  -4.5279
    -4.5126  -4.3862  -4.3748  -4.2711  -4.1945  -4.1914  -4.1316  -3.9281
    -3.9047  -3.8142  -3.8050  -3.7997  -3.7540  -3.5896  -3.5660  -3.4632
    -3.4470  -3.4336  -3.3837  -3.2802  -3.2471  -3.1915  -3.1361  -3.1021
    -3.0457  -3.0375  -3.0110  -2.9755  -2.9414  -2.8986  -2.8046  -2.7844
    -2.7087  -2.7076  -2.5643  -2.5598  -2.3974  -2.3858  -2.3305  -2.2913
    -2.2520  -2.1977  -2.1618  -2.0753  -1.9829  -1.9317  -1.8145  -1.8103
    -1.7735  -1.7669  -1.7341  -1.7011  -1.6291  -1.5498  -1.5468  -1.5294
    -1.3743  -1.2896  -1.2345  -1.0958  -1.0881  -0.5039  -0.4765  -0.2025
    -0.1821  -0.1569   0.1160   0.1229   0.1694   0.1923   0.3685   0.3815
     0.4023   0.4554   0.4957   0.5696   0.5903   0.6044   0.6350   0.6810
     0.6987   0.7088   0.7543   0.7660   0.8423   0.8859   0.8925   0.9161
     0.9303   0.9938   1.0709   1.1166   1.2355   1.3628   1.5877   1.6197
     1.7568   1.7626   1.7773   1.8232   2.0850   2.1397   2.1480   2.1558
     2.3655   2.3675   2.3964   2.4280   2.5477   2.6268   2.9273   3.0845
     3.1712   3.1952   3.2944   3.5607   3.5685   4.2414   4.2512   4.2888
     4.3422   4.5526   5.0014   5.1419   5.2101   5.4212   5.4352   5.4489
     5.5014   5.6523   5.6766   5.6767   5.6827   5.7328   5.8094   5.8320
     5.9605   6.0013   6.0827   6.1180   6.4898   6.5521   6.8635   6.9613
     7.0967   7.2990   7.3565   7.7350   7.7582   8.1063   8.2596   8.4807
     8.7132   8.9392   9.0253   9.0911   9.1721   9.2778   9.4176   9.5582
     9.6049   9.8383   9.8615  10.0809  10.1083  10.2191  10.2955  10.6180
    10.6762  10.6895  10.7464  10.7499  10.7802  10.7999  10.8398  10.9482
    11.0557  11.0721  11.0854  11.1188  11.1847  11.3787  11.4129  11.4143
    11.4795  11.5034  11.5050  11.5205  11.6475  11.6691  11.7851  11.8347
    11.8709  11.9626  11.9861  12.0150  12.0845  12.1776  12.2200  12.3275
    12.4826  12.5592  12.6470  12.7195  12.8304  12.8905  12.9426  12.9917
    13.0498  13.0960  13.1522  13.1768  13.2440  13.3456  13.4219  13.5079
    13.5822  13.6495  13.6711  13.6973  13.7025  13.7457  13.8993  13.9906
    13.9924  14.1450  14.1952  14.2465  14.3053  14.3890  14.5112  14.5298
    14.5436  14.5510  14.6018  14.6877  14.8091  14.8647  14.8729  14.8984
    14.9414  15.0229  15.0614  15.1174  15.1700  15.1847  15.1888  15.2628
    15.3407  15.3432  15.4053  15.4592  15.4719  15.4801  15.4965  15.6243
    15.6829  15.8790  15.9242  15.9985  16.0673  16.0921  16.0990  16.1669
    16.1960  16.2950  16.2971  16.4993  16.5408  16.5583  16.7290  16.7867
    16.9024  16.9044  16.9239  16.9644  17.0242  17.0278  17.0430  17.1354
    17.1853  17.2245  17.2429  17.3936  17.4454  17.4674  17.5479  17.5502
    17.5595  17.5755  17.6266  17.6554  17.7052  17.7346  17.8710  17.9227
    17.9254  17.9500  18.0064  18.0585  18.1106  18.1277  18.1836  18.2169
    18.2982  18.3165  18.3763  18.3980  18.4157  18.4298  18.4661  18.5072
    18.5161  18.5875  18.6013  18.6387  18.6442  18.7085  18.7277  18.7550
    18.8004  18.8573  18.9222  19.0041  19.0718  19.1674  19.1795  19.2113
    19.2362  19.2464  19.2807  19.2876  19.3180  19.3289  19.3429  19.5918
    19.7300  19.7603  19.8128  19.8521  19.8614  19.8997  19.9100  19.9137
    19.9463  19.9839  20.0328  20.1374  20.1722  20.2674  20.3212  20.4913
    20.5039  20.5273  20.5884  20.6335  20.6452  20.6852  20.7132  20.7518
    20.7750  20.8013  20.8049  21.0396  21.1311  21.1553  21.2082  21.2173
    21.2600  21.2662  21.3976  21.4140  21.4311  21.4365  21.4859  21.6071
    21.6181  21.7144  21.8006  21.8704  21.8974  22.0116  22.0154  22.0369
    22.0824  22.1289  22.1639  22.1923  22.2677  22.2968  22.3298  22.3331
    22.3903  22.4540  22.4659  22.4789  22.5419  22.5544  22.5844  22.6097
    22.6164  22.6428  22.6666  22.6787  22.7656  22.8003  22.8326  22.8719
    22.9210  22.9265  22.9521  22.9718  23.0856  23.0899  23.0950  23.1223
    23.1663  23.2296  23.2951  23.3317  23.3405  23.3840  23.4024  23.4112
    23.6009  23.6215  23.6504  23.7283  23.7450  23.7824  23.8047  23.8931
    23.9354  23.9871  24.0293  24.0708  24.1647  24.1917  24.2308  24.2372
    24.2541  24.3330  24.3333  24.3391  24.3807  24.4043  24.4488  24.4687
    24.5854  24.6067  24.7157  24.7435  24.9045  24.9874  25.0054  25.0061
    25.0181  25.0453  25.1103  25.1229  25.1948  25.2257  25.2290  25.3103
    25.3359  25.4387  25.4526  25.4646  25.6468  25.6644  25.6809  25.6975
    25.7781  25.7881  26.0018  26.0249  26.0570  26.1910  26.2333  26.2602
    26.3423  26.3584  26.3960  26.4475  26.4531  26.4705  26.5280  26.5595
    26.5924  26.5948  26.6762  26.7362  26.8229  26.8937  26.9785  27.0100
    27.0912  27.1264  27.1646  27.1703  27.1796  27.2033  27.2570  27.2902
    27.4044  27.4400  27.4707  27.4931  27.5376  27.6124  27.6530  27.6590
    27.6697  27.8121  27.8402  27.8843  27.9663  27.9737  28.0872  28.1650
    28.2315

          k = 0.2500 0.0000 0.0000 ( 41496 PWs)   bands (ev):

   -79.4542 -72.6864 -72.6788 -72.5043 -72.4971 -72.3516 -72.3442 -72.3194
   -72.2936 -72.2818 -72.2569 -72.2215 -72.2142 -72.1740 -72.0263 -72.0119
   -53.9047 -46.3186 -46.1738 -42.8098 -42.6915 -42.6826 -42.6788 -42.5638
   -42.5632 -42.5537 -42.5486 -42.5438 -42.5246 -42.5186 -42.5168 -42.5129
   -42.5081 -42.4867 -42.4719 -42.4193 -42.4150 -42.4040 -42.3636 -42.3478
   -42.3291 -42.3021 -42.2559 -42.2486 -42.2365 -42.2190 -42.2019 -42.1756
   -42.1731 -42.1656 -42.1540 -42.1315 -42.1171 -42.1078 -42.1035 -42.0833
   -42.0771 -42.0634 -42.0419 -42.0313 -41.9875 -41.8676 -41.8658 -41.8378
   -20.3017 -18.8451 -18.6858 -18.4702 -18.2848 -18.1750 -18.0944 -18.0248
   -17.9649 -17.8450 -17.7958 -17.7932 -17.7519 -17.7139 -17.6860 -17.6360
   -17.5971 -17.5363 -17.4892 -17.4408 -17.4194 -17.4029 -17.3638 -17.3297
   -17.2821 -17.2263 -17.1407 -17.1217 -17.0617 -16.9998 -16.8662 -16.2410
   -16.1822 -15.4257 -15.2884 -10.8922  -7.2838  -6.8678  -6.8497  -6.8069
    -6.6179  -6.5893  -6.5583  -6.1809  -6.0289  -5.9378  -5.8993  -5.8278
    -5.7983  -5.7908  -5.7862  -5.7373  -5.7294  -5.6910  -5.6871  -5.6411
    -5.6203  -5.5979  -5.5234  -5.5045  -5.4310  -5.3433  -5.3426  -5.2590
    -5.1629  -5.0854  -5.0746  -5.0475  -4.9029  -4.8660  -4.7395  -4.6541
    -4.5161  -4.3711  -4.3101  -4.2682  -4.1345  -4.1266  -3.8297  -3.7625
    -3.7401  -3.7052  -3.6471  -3.5688  -3.5237  -3.4874  -3.3910  -3.3830
    -3.3428  -3.2626  -3.2470  -3.2053  -3.1149  -3.0811  -3.0563  -3.0397
    -3.0197  -2.9123  -2.8868  -2.8640  -2.8046  -2.7573  -2.6615  -2.6553
    -2.6505  -2.6255  -2.5441  -2.4845  -2.4720  -2.4052  -2.3301  -2.2848
    -2.2115  -2.1930  -2.1810  -2.1609  -2.0818  -2.0394  -1.9902  -1.8640
    -1.8596  -1.7962  -1.7701  -1.7528  -1.7025  -1.5982  -1.4795  -1.4685
    -1.3788  -1.1890  -1.1073  -1.0485  -0.7904  -0.2473  -0.0782   0.0206
     0.0947   0.1309   0.1682   0.2085   0.2157   0.2529   0.3533   0.4115
     0.4150   0.4391   0.5318   0.5722   0.5748   0.5968   0.6249   0.6418
     0.7058   0.7148   0.7227   0.7369   0.8274   0.8664   0.8733   0.9476
     0.9971   1.1119   1.2449   1.3103   1.3388   1.3882   1.4234   1.4758
     1.5410   1.6489   1.6978   1.7595   1.9312   1.9722   2.0601   2.1959
     2.2711   2.2982   2.3064   2.3323   2.5985   2.9553   2.9817   3.3309
     3.5463   3.6315   3.6608   4.1774   4.2298   4.3640   4.3861   4.4330
     4.4478   4.4898   4.5279   4.5420   4.6218   4.6624   4.8037   4.9139
     4.9979   5.0655   5.2736   5.3936   5.3960   5.4935   5.5274   5.5545
     5.5671   5.5856   5.7057   6.1418   6.2146   6.4907   6.6161   7.0416
     7.4060   7.5843   7.8128   7.8448   8.1394   8.2922   8.4388   8.5530
     8.9158   8.9882   9.0561   9.3382   9.4426   9.5708   9.6094   9.8120
     9.8595   9.9864  10.0223  10.1359  10.2147  10.2625  10.3997  10.5079
    10.5511  10.5986  10.6628  10.6975  10.7245  10.9731  11.0198  11.0725
    11.1060  11.1462  11.1578  11.2373  11.2676  11.3768  11.3912  11.4257
    11.4880  11.6086  11.6459  11.6665  11.7262  11.8195  11.8404  11.8969
    11.9112  11.9908  12.0581  12.0624  12.1893  12.2740  12.2834  12.3169
    12.4365  12.4963  12.5454  12.5936  12.6718  12.7160  12.8221  12.8568
    12.8912  13.0439  13.0908  13.1805  13.1921  13.2582  13.3708  13.3898
    13.4116  13.4878  13.5646  13.6619  13.6872  13.7853  13.8200  13.9157
    13.9409  13.9768  14.0073  14.1105  14.1485  14.1550  14.1757  14.2354
    14.3331  14.3431  14.4406  14.4894  14.5767  14.6292  14.6447  14.6805
    14.7428  14.8401  14.8764  14.9306  14.9749  15.0068  15.1118  15.1820
    15.2536  15.2858  15.3625  15.4009  15.4809  15.5223  15.5601  15.6000
    15.6038  15.7102  15.7779  15.8521  15.9106  15.9804  16.0113  16.0755
    16.1068  16.2195  16.2505  16.3013  16.3513  16.3548  16.4465  16.4690
    16.4963  16.5667  16.5975  16.7100  16.7531  16.8503  16.8725  16.9294
    16.9870  17.0095  17.0222  17.1302  17.1611  17.2609  17.3157  17.3792
    17.3793  17.3992  17.4554  17.5023  17.5515  17.5855  17.5937  17.6736
    17.7141  17.8546  17.9080  17.9209  17.9710  17.9815  18.0591  18.1186
    18.1647  18.2014  18.2518  18.2814  18.2984  18.3126  18.4169  18.5329
    18.5971  18.6458  18.6969  18.7972  18.8632  18.9118  18.9339  19.0582
    19.0653  19.1525  19.1556  19.1726  19.2539  19.3298  19.3398  19.4011
    19.4744  19.4840  19.5156  19.6082  19.7577  19.9350  19.9787  20.0007
    20.0835  20.1500  20.2061  20.2465  20.3234  20.3707  20.3809  20.5031
    20.5484  20.5869  20.6231  20.6570  20.6954  20.8070  20.8142  20.8822
    20.9034  20.9695  21.0183  21.0658  21.1089  21.1619  21.1906  21.2140
    21.2975  21.3157  21.3636  21.3944  21.4039  21.4370  21.5242  21.6002
    21.6136  21.6247  21.6671  21.6960  21.7110  21.7819  21.8337  21.9421
    21.9623  21.9815  21.9873  22.0197  22.0516  22.1336  22.1375  22.1690
    22.2249  22.2764  22.4051  22.4348  22.4547  22.4720  22.5051  22.5590
    22.6066  22.6639  22.6969  22.7433  22.7598  22.7929  22.8184  22.8329
    22.8742  22.8774  22.9126  22.9246  23.0043  23.0090  23.0396  23.0675
    23.0981  23.1116  23.1165  23.1548  23.2422  23.2715  23.2870  23.3107
    23.3210  23.3591  23.4045  23.4228  23.5476  23.5711  23.6463  23.6848
    23.7203  23.7312  23.8227  23.8434  23.8705  23.9221  23.9480  23.9784
    24.0033  24.0806  24.0946  24.1260  24.2002  24.2034  24.2166  24.2650
    24.3509  24.3662  24.4124  24.4588  24.5473  24.5709  24.5797  24.6647
    24.7537  24.8178  24.8558  24.8799  24.8877  24.8981  24.9744  24.9794
    24.9930  25.0732  25.1065  25.1320  25.2903  25.3049  25.3118  25.4112
    25.4532  25.4753  25.4918  25.5321  25.5691  25.6545  25.7056  25.7611
    25.7621  25.7991  25.8647  25.8911  25.9657  25.9947  26.0327  26.0651
    26.0936  26.0999  26.1185  26.1877  26.2429  26.3403  26.3514  26.3772
    26.3922  26.4027  26.4326  26.4880  26.5093  26.5172  26.5251  26.5874
    26.6378  26.6893  26.7101  26.7433  26.7676  26.8234  26.8609  26.9085
    26.9703  26.9738  27.0407  27.1255  27.1905  27.2523  27.3364  27.3474
    27.3857  27.4244  27.4639  27.4747  27.5034  27.5150  27.6011  27.6378
    27.6598

          k = 0.2500 0.2435 0.0000 ( 41508 PWs)   bands (ev):

   -79.4542 -72.6864 -72.6788 -72.5043 -72.4971 -72.3516 -72.3442 -72.3194
   -72.2936 -72.2818 -72.2569 -72.2215 -72.2142 -72.1740 -72.0263 -72.0119
   -53.9047 -46.3187 -46.1737 -42.8098 -42.6913 -42.6829 -42.6788 -42.5638
   -42.5625 -42.5543 -42.5486 -42.5438 -42.5246 -42.5175 -42.5168 -42.5129
   -42.5094 -42.4867 -42.4719 -42.4193 -42.4135 -42.4058 -42.3638 -42.3477
   -42.3290 -42.3007 -42.2537 -42.2482 -42.2364 -42.2195 -42.2019 -42.1755
   -42.1732 -42.1656 -42.1540 -42.1308 -42.1164 -42.1085 -42.1045 -42.0846
   -42.0769 -42.0637 -42.0420 -42.0316 -41.9874 -41.8680 -41.8666 -41.8380
   -20.3008 -18.7372 -18.5961 -18.4128 -18.2205 -18.1339 -18.0885 -18.0385
   -17.9398 -17.8514 -17.8352 -17.7957 -17.7569 -17.7422 -17.7205 -17.6899
   -17.6355 -17.5852 -17.4791 -17.4469 -17.4399 -17.3676 -17.3296 -17.3240
   -17.2750 -17.2489 -17.2165 -17.1716 -17.1463 -17.1354 -16.8667 -16.2411
   -16.1795 -15.4221 -15.2876 -10.8521  -6.9914  -6.6620  -6.6220  -6.5833
    -6.4537  -6.4289  -6.3797  -6.0030  -5.9247  -5.9049  -5.8931  -5.8684
    -5.8502  -5.8000  -5.7885  -5.7398  -5.6849  -5.6763  -5.6030  -5.5984
    -5.5516  -5.5226  -5.4981  -5.4483  -5.4260  -5.3845  -5.2651  -5.2224
    -5.1982  -5.1428  -5.0437  -5.0394  -4.8242  -4.7694  -4.6341  -4.5301
    -4.4997  -4.4700  -4.3117  -4.2511  -4.1774  -4.0104  -3.9981  -3.9030
    -3.8538  -3.8223  -3.7636  -3.6754  -3.6350  -3.6010  -3.5304  -3.4938
    -3.4291  -3.4095  -3.3434  -3.3129  -3.2941  -3.1998  -3.1572  -3.0961
    -3.0598  -3.0471  -3.0283  -3.0108  -2.9500  -2.8743  -2.8349  -2.8021
    -2.7630  -2.7029  -2.6600  -2.6283  -2.5605  -2.5030  -2.4445  -2.4163
    -2.3967  -2.2988  -2.2172  -2.1575  -2.1286  -2.0088  -1.9881  -1.9594
    -1.8823  -1.8230  -1.7756  -1.6878  -1.5869  -1.5327  -1.3663  -1.3388
    -1.3039  -1.2026  -1.1839  -1.0996  -0.9462  -0.2053  -0.0619   0.0444
     0.0691   0.2008   0.2123   0.2262   0.3114   0.3789   0.3935   0.4530
     0.4839   0.5165   0.5875   0.6300   0.6538   0.6706   0.7124   0.7443
     0.7590   0.7987   0.8023   0.8150   0.8455   0.8708   0.8916   0.9329
     0.9697   1.0825   1.2475   1.2968   1.3741   1.3939   1.4649   1.5890
     1.6928   1.7769   1.8047   1.8570   1.9485   1.9684   2.0575   2.0815
     2.0952   2.3165   2.3841   2.4150   2.4822   2.5252   3.0842   3.3647
     3.5621   3.6055   3.6868   3.7145   3.7219   3.8680   4.2682   4.3247
     4.4003   4.4843   4.7420   4.7652   4.8885   5.0031   5.1440   5.1792
     5.2484   5.3016   5.3224   5.3934   5.4040   5.4411   5.5050   5.5902
     5.6399   5.7664   5.8861   6.1819   6.4168   6.5041   6.8114   7.2217
     7.5611   7.6548   7.8244   7.9678   8.1021   8.2386   8.3539   8.3706
     8.5469   8.6438   8.7648   8.8202   9.0820   9.1252   9.3721   9.4957
     9.6582   9.7106   9.7625  10.0509  10.1046  10.2241  10.2536  10.3614
    10.4175  10.4687  10.6040  10.6283  10.6514  10.7102  10.8298  10.9051
    10.9939  11.0121  11.1164  11.2201  11.3032  11.3866  11.4265  11.4546
    11.4998  11.6913  11.7001  11.8576  11.9369  11.9904  12.0257  12.0588
    12.1694  12.2309  12.2893  12.3279  12.4127  12.5174  12.6057  12.6115
    12.6945  12.7097  12.7625  12.7916  12.8584  12.8935  13.0137  13.0900
    13.1966  13.2576  13.3054  13.4085  13.4783  13.4941  13.5185  13.6005
    13.6347  13.6716  13.7422  13.8165  13.8426  13.9696  14.0315  14.0951
    14.1524  14.2205  14.2436  14.2701  14.3073  14.3784  14.4136  14.4424
    14.4827  14.5102  14.5534  14.5688  14.5824  14.6189  14.6687  14.7405
    14.8270  14.8896  14.8910  14.9829  14.9996  15.1292  15.2044  15.2421
    15.2665  15.3120  15.3565  15.4018  15.4250  15.4840  15.5149  15.6367
    15.7050  15.8206  15.8766  15.9191  15.9946  16.0316  16.1187  16.1987
    16.2241  16.3080  16.3690  16.4291  16.4313  16.5353  16.5667  16.6246
    16.6468  16.6914  16.7414  16.7724  16.7958  16.8686  16.9220  16.9566
    16.9923  17.0418  17.0635  17.1235  17.1610  17.1938  17.2565  17.2800
    17.3733  17.4078  17.5076  17.5268  17.5827  17.6944  17.7311  17.7540
    17.7785  17.8236  17.8559  17.8990  17.9759  18.0001  18.0396  18.0870
    18.1011  18.1283  18.1767  18.2762  18.3207  18.3522  18.3662  18.4344
    18.4744  18.4888  18.5106  18.6608  18.7265  18.7343  18.8287  18.9301
    18.9602  19.0355  19.0887  19.1374  19.1970  19.2446  19.2776  19.3025
    19.3238  19.3647  19.4347  19.4714  19.4817  19.5188  19.5651  19.5862
    19.5947  19.6312  19.7161  19.7397  19.7703  19.8278  19.8808  19.9047
    19.9533  19.9850  20.1069  20.1354  20.2071  20.2513  20.2787  20.3144
    20.4011  20.4234  20.4347  20.4959  20.5235  20.5576  20.6215  20.6943
    20.7621  20.8660  20.9521  21.0021  21.0673  21.0730  21.1060  21.1490
    21.1675  21.1731  21.2961  21.3802  21.4710  21.4893  21.5701  21.6652
    21.6836  21.7551  21.7797  21.8355  21.8458  21.9459  21.9831  22.0279
    22.0797  22.1529  22.1705  22.2066  22.2480  22.3599  22.3777  22.4192
    22.4512  22.5454  22.5673  22.5778  22.6568  22.7232  22.7788  22.8330
    22.8647  22.8866  22.9634  22.9866  23.0477  23.0541  23.0764  23.1400
    23.2371  23.2482  23.3142  23.3711  23.3903  23.4307  23.4457  23.5348
    23.5581  23.5817  23.5985  23.6595  23.6903  23.7296  23.7527  23.8215
    23.8378  23.8787  23.9100  23.9887  24.0017  24.0546  24.1140  24.1373
    24.2236  24.2590  24.2885  24.3187  24.3504  24.3936  24.4497  24.4741
    24.4988  24.5823  24.6358  24.6671  24.7476  24.7669  24.8127  24.8391
    24.9190  24.9348  24.9686  24.9989  25.0491  25.0774  25.1094  25.1351
    25.1634  25.2115  25.2631  25.2793  25.3298  25.3589  25.4632  25.5067
    25.5295  25.5822  25.6120  25.6414  25.6671  25.7706  25.8179  25.8312
    25.8727  25.9058  25.9173  25.9991  26.0144  26.0303  26.0813  26.1286
    26.1578  26.1697  26.2078  26.2628  26.2897  26.3210  26.3841  26.4304
    26.4517  26.5067  26.5406  26.5969  26.6295  26.6620  26.6958  26.7778
    26.8033  26.8184  26.8990  26.9278  26.9797  27.0068  27.0776  27.0870
    27.1183  27.1669  27.2086  27.2445  27.2714  27.2909  27.3204  27.3695
    27.3784  27.4350  27.4790  27.5121  27.5562  27.5763  27.6051  27.6334
    27.6618

          k = 0.2500-0.4870 0.0000 ( 41596 PWs)   bands (ev):

   -79.4543 -72.6864 -72.6788 -72.5043 -72.4971 -72.3516 -72.3442 -72.3195
   -72.2936 -72.2818 -72.2569 -72.2215 -72.2143 -72.1740 -72.0263 -72.0119
   -53.9047 -46.3187 -46.1737 -42.8098 -42.6912 -42.6831 -42.6788 -42.5638
   -42.5618 -42.5549 -42.5486 -42.5439 -42.5246 -42.5168 -42.5163 -42.5129
   -42.5106 -42.4867 -42.4719 -42.4193 -42.4121 -42.4075 -42.3640 -42.3477
   -42.3289 -42.2993 -42.2516 -42.2478 -42.2363 -42.2199 -42.2019 -42.1755
   -42.1733 -42.1656 -42.1540 -42.1301 -42.1156 -42.1093 -42.1056 -42.0858
   -42.0768 -42.0640 -42.0421 -42.0318 -41.9874 -41.8684 -41.8674 -41.8381
   -20.2999 -18.5760 -18.4495 -18.4137 -18.1624 -18.1421 -18.0921 -17.9820
   -17.8841 -17.8564 -17.8337 -17.8184 -17.7996 -17.7817 -17.7620 -17.7482
   -17.6659 -17.6205 -17.5278 -17.4490 -17.4078 -17.3730 -17.3321 -17.3297
   -17.3161 -17.3098 -17.2788 -17.2543 -17.2243 -17.1453 -16.8694 -16.2413
   -16.1773 -15.4185 -15.2866 -10.8155  -6.6850  -6.6407  -6.6069  -6.5119
    -5.9591  -5.9263  -5.9097  -5.8863  -5.8669  -5.7852  -5.7844  -5.7564
    -5.7433  -5.7359  -5.7092  -5.6838  -5.6837  -5.6760  -5.5829  -5.5545
    -5.5403  -5.5378  -5.4793  -5.4664  -5.4310  -5.3907  -5.2971  -5.2463
    -5.1831  -5.0614  -5.0559  -4.7786  -4.7139  -4.6688  -4.6636  -4.6325
    -4.4880  -4.4388  -4.3173  -4.2834  -4.2615  -4.2189  -4.1046  -4.0511
    -4.0475  -3.9952  -3.9356  -3.8857  -3.8515  -3.8449  -3.8017  -3.7603
    -3.7394  -3.5284  -3.5137  -3.4191  -3.4177  -3.3510  -3.3373  -3.2902
    -3.2634  -3.2202  -3.1702  -3.1537  -3.0909  -2.9686  -2.9660  -2.9317
    -2.9279  -2.8230  -2.7363  -2.7087  -2.6664  -2.5740  -2.4415  -2.3735
    -2.3278  -2.1993  -2.1333  -2.0751  -2.0354  -1.9298  -1.8812  -1.8379
    -1.7758  -1.6717  -1.6384  -1.5382  -1.5004  -1.4353  -1.3551  -1.3295
    -1.3242  -1.2926  -1.1655  -1.1420  -1.1098  -0.3297  -0.3289  -0.2400
    -0.1521   0.2019   0.2148   0.2595   0.3121   0.3934   0.4102   0.4742
     0.5076   0.5757   0.5953   0.6561   0.6854   0.7661   0.8439   0.8478
     0.8927   0.9150   0.9387   0.9733   1.0023   1.0582   1.0753   1.1603
     1.2038   1.2460   1.2498   1.2701   1.3506   1.3784   1.5511   1.5603
     1.6143   1.6631   1.7019   1.9185   1.9766   1.9814   2.0153   2.0600
     2.1191   2.2077   2.2404   2.4627   2.5202   2.6461   3.0812   3.2368
     3.3144   3.3572   3.4058   3.5164   3.7215   4.1084   4.3033   4.3331
     4.3384   4.4056   4.6432   4.7535   4.8346   4.9437   5.1451   5.2803
     5.3329   5.3883   5.4016   5.4393   5.5066   5.6914   5.7578   5.8675
     5.8956   5.9049   6.0081   6.2908   6.6682   6.7985   7.1024   7.2051
     7.3492   7.5420   7.6037   7.8300   7.9803   8.1079   8.1285   8.5134
     8.5993   8.6213   8.8401   9.0322   9.0362   9.1029   9.2408   9.3131
     9.3450   9.4248   9.4300   9.5443   9.6140   9.8483   9.9416  10.0234
    10.1613  10.2519  10.3619  10.4469  10.4829  10.6905  10.7260  10.8628
    10.8973  11.0127  11.0447  11.1291  11.2057  11.2325  11.3538  11.4407
    11.5103  11.8047  11.8448  11.8948  11.9906  12.0192  12.1725  12.2698
    12.3396  12.4207  12.5501  12.6902  12.7329  12.8363  12.8579  12.8932
    12.9566  13.0498  13.1177  13.1208  13.1876  13.3145  13.3158  13.3883
    13.4162  13.5159  13.5168  13.6227  13.6279  13.6429  13.7375  13.7786
    13.9150  13.9542  14.0179  14.1112  14.1624  14.1756  14.2019  14.2175
    14.2729  14.3693  14.3818  14.4204  14.4426  14.5113  14.5234  14.5323
    14.7330  14.7482  14.7834  14.8603  14.8799  14.8819  14.9320  14.9893
    15.0520  15.0979  15.1468  15.2212  15.2271  15.2641  15.2824  15.3447
    15.3863  15.3956  15.4124  15.4836  15.5663  15.5836  15.6311  15.6873
    15.7077  15.7611  15.8069  15.9786  15.9874  16.0662  16.1229  16.1965
    16.2512  16.2795  16.3008  16.3272  16.3888  16.4624  16.4942  16.5082
    16.5648  16.5720  16.6382  16.6812  16.7459  16.7577  16.8112  16.8603
    16.8816  16.9209  16.9257  16.9791  17.0080  17.0550  17.1121  17.2621
    17.3051  17.3134  17.3738  17.4066  17.4078  17.4180  17.4879  17.4949
    17.5894  17.6294  17.6895  17.7056  17.8997  18.0201  18.0387  18.0940
    18.0998  18.1669  18.1928  18.2036  18.2460  18.2495  18.3321  18.4585
    18.4723  18.5011  18.5263  18.5645  18.5986  18.6057  18.6132  18.7135
    18.7298  18.7646  18.8181  18.8675  18.8822  18.9074  18.9140  19.0002
    19.0585  19.0614  19.1257  19.1942  19.2376  19.3250  19.3911  19.4013
    19.4031  19.5387  19.7325  19.7328  19.8160  19.8402  19.9034  19.9188
    19.9775  20.0244  20.0263  20.1427  20.1593  20.2067  20.2207  20.2877
    20.3100  20.3207  20.3563  20.3780  20.4876  20.5262  20.5782  20.6330
    20.6562  20.7124  20.7512  20.7634  20.7784  20.8470  20.9960  21.0037
    21.0340  21.0972  21.1405  21.1503  21.1923  21.2109  21.2394  21.2979
    21.3342  21.4425  21.4756  21.5122  21.6180  21.6770  21.6804  21.7000
    21.8143  21.8398  21.8698  21.8755  21.9350  21.9596  21.9760  22.0073
    22.0303  22.1563  22.1714  22.2624  22.3000  22.3139  22.4543  22.4646
    22.5176  22.6220  22.6309  22.6548  22.6705  22.8374  22.8644  22.9002
    22.9422  22.9554  22.9930  23.0411  23.0431  23.2042  23.2906  23.3216
    23.3286  23.4000  23.4951  23.5076  23.5574  23.6290  23.6515  23.6830
    23.7272  23.8245  23.8310  23.8857  23.9340  24.0224  24.1055  24.1839
    24.2483  24.2850  24.3077  24.3963  24.4034  24.4713  24.5625  24.5819
    24.6141  24.6229  24.7309  24.7522  24.7766  24.8399  24.9115  24.9739
    25.0431  25.0822  25.1192  25.1662  25.2180  25.2729  25.2861  25.4306
    25.4540  25.5562  25.5730  25.6076  25.6536  25.6834  25.7418  25.7610
    25.8112  25.8385  25.9152  25.9430  25.9590  26.0285  26.0598  26.0767
    26.1392  26.1534  26.1929  26.1967  26.2819  26.3053  26.3395  26.3443
    26.4242  26.4392  26.5004  26.5533  26.5660  26.5886  26.6223  26.6286
    26.6413  26.6856  26.7093  26.7370  26.7704  26.8077  26.8099  26.8384
    26.8830  26.9447  26.9496  26.9601  27.0305  27.0407  27.0576  27.1208
    27.1997  27.2581  27.2918  27.3084  27.3744  27.4043  27.4190  27.4402
    27.4609  27.4683  27.5354  27.5387  27.6077  27.6534  27.6931  27.7339
    27.7437

          k =-0.5000 0.0000 0.0000 ( 41612 PWs)   bands (ev):

   -79.4544 -72.6826 -72.6826 -72.5007 -72.5007 -72.3479 -72.3479 -72.3191
   -72.2932 -72.2822 -72.2573 -72.2179 -72.2178 -72.1740 -72.0253 -72.0129
   -53.9048 -46.3180 -46.1738 -42.7448 -42.7447 -42.6875 -42.6867 -42.5611
   -42.5585 -42.5585 -42.5392 -42.5344 -42.5190 -42.5162 -42.5134 -42.5133
   -42.4864 -42.4808 -42.4793 -42.4718 -42.4096 -42.4094 -42.3381 -42.3379
   -42.3007 -42.3005 -42.2504 -42.2498 -42.2266 -42.2046 -42.1905 -42.1901
   -42.1816 -42.1647 -42.1611 -42.1602 -42.1531 -42.1009 -42.0816 -42.0661
   -42.0629 -42.0625 -42.0542 -42.0516 -42.0331 -41.8677 -41.8608 -41.8429
   -20.2988 -18.5771 -18.4967 -18.3368 -18.3212 -18.2221 -18.1001 -18.0283
   -17.9440 -17.9103 -17.8980 -17.8598 -17.6611 -17.6436 -17.6410 -17.5903
   -17.5642 -17.5610 -17.5318 -17.4901 -17.4437 -17.4005 -17.3087 -17.3085
   -17.3052 -17.2426 -17.2426 -17.1865 -17.1864 -17.0696 -17.0267 -16.2666
   -16.2466 -15.4286 -15.2918 -10.8649  -6.8636  -6.6851  -6.5093  -6.4556
    -6.4212  -6.3829  -6.3762  -6.3533  -6.3434  -6.2734  -6.1943  -6.1626
    -6.0761  -5.8108  -5.7951  -5.7512  -5.7375  -5.7145  -5.7021  -5.6082
    -5.6065  -5.5543  -5.5333  -5.3978  -5.3487  -5.3276  -5.2820  -5.2598
    -4.9815  -4.8651  -4.8205  -4.7961  -4.7714  -4.5922  -4.4500  -4.4249
    -4.4165  -4.3939  -4.3291  -4.2751  -4.0695  -4.0496  -3.9592  -3.9409
    -3.9314  -3.8157  -3.7742  -3.7740  -3.7018  -3.6495  -3.6305  -3.6298
    -3.4052  -3.3895  -3.3710  -3.3103  -3.2201  -3.1992  -3.1588  -3.0337
    -2.9661  -2.9536  -2.9010  -2.8591  -2.8561  -2.8333  -2.8197  -2.8122
    -2.8003  -2.7269  -2.6033  -2.5563  -2.4851  -2.4029  -2.3766  -2.3585
    -2.2805  -2.2615  -2.2556  -2.2512  -2.2395  -2.2043  -2.1136  -2.0882
    -1.9941  -1.9792  -1.9375  -1.8908  -1.6185  -1.5026  -1.4125  -1.3332
    -1.3302  -1.2875  -1.2803  -1.0079  -0.9917  -0.2271  -0.1460  -0.1267
     0.0661   0.2857   0.4042   0.4640   0.4961   0.5088   0.5126   0.5218
     0.5456   0.5539   0.6488   0.6559   0.6688   0.8295   0.8793   0.8988
     0.9299   0.9579   0.9803   1.0407   1.0563   1.0667   1.1171   1.1296
     1.1928   1.2061   1.3375   1.3411   1.3526   1.3596   1.4081   1.4109
     1.4274   1.4298   1.4309   1.6059   1.6656   1.7865   1.9243   1.9852
     2.2238   2.2480   2.3416   2.4174   2.4300   3.0174   3.1039   3.5835
     3.7305   3.8254   3.9986   4.1123   4.2762   4.3492   4.3818   4.5507
     4.5510   4.5667   4.7313   4.7416   4.7480   4.7536   4.7826   4.7914
     4.8020   4.8138   4.8518   4.8845   4.8996   4.9548   4.9600   5.5132
     5.5372   5.8523   5.9156   6.3495   6.4242   6.8541   6.8560   6.9560
     6.9694   7.3016   7.3289   7.7182   7.7784   8.2116   8.3201   8.6999
     8.7423   8.9976   9.0781   9.3421   9.3506   9.6482   9.6605   9.6940
     9.7798  10.0217  10.0409  10.2527  10.2563  10.3125  10.3281  10.5159
    10.5572  10.5779  10.5916  10.6840  10.7147  10.8390  10.8620  10.9037
    10.9324  11.1567  11.1760  11.2429  11.2509  11.2810  11.3079  11.4499
    11.5327  11.5481  11.7102  11.7114  11.7996  11.8491  11.8878  12.1521
    12.1768  12.2161  12.3058  12.3115  12.3368  12.4073  12.4142  12.4849
    12.5499  12.6376  12.6461  12.7129  12.7380  12.7576  12.8052  12.8136
    12.9294  13.0022  13.0347  13.1247  13.2243  13.2981  13.4244  13.4676
    13.5088  13.6061  13.7419  13.8268  13.8906  13.9942  14.0460  14.0933
    14.2189  14.2206  14.2526  14.2720  14.3134  14.3177  14.3663  14.3806
    14.4443  14.5711  14.5735  14.6128  14.6134  14.6157  14.6610  14.6682
    14.8509  14.8632  14.8974  14.9020  14.9141  15.1084  15.1520  15.2248
    15.4063  15.5000  15.5142  15.5493  15.6167  15.6927  15.7413  15.8318
    15.8376  15.9232  15.9476  16.0372  16.1729  16.1918  16.2319  16.2536
    16.3705  16.4076  16.4898  16.6017  16.6055  16.6453  16.6922  16.6927
    16.6979  16.7151  16.7274  16.7424  16.7971  16.8125  16.8362  16.8400
    16.9014  16.9579  17.0340  17.0737  17.0793  17.1249  17.1783  17.1968
    17.1968  17.3817  17.4543  17.5932  17.5988  17.6337  17.6970  17.7007
    17.7108  17.9674  17.9680  17.9697  18.0487  18.1111  18.1655  18.1665
    18.2366  18.2837  18.3372  18.3523  18.3842  18.3866  18.4980  18.5000
    18.5148  18.5336  18.5460  18.5930  18.6234  18.6318  18.7057  18.7751
    18.8306  18.8447  18.8904  18.9668  18.9822  19.0019  19.0304  19.1648
    19.1952  19.2144  19.2532  19.2730  19.2995  19.4285  19.4927  19.7948
    19.7952  19.7997  19.8659  19.9205  19.9763  19.9792  20.0383  20.0790
    20.1005  20.1764  20.2240  20.2515  20.2660  20.3896  20.4637  20.5279
    20.5950  20.7009  20.7321  20.8258  20.8919  20.9426  20.9441  21.0673
    21.1678  21.1880  21.2029  21.2254  21.2304  21.2637  21.2901  21.3101
    21.4573  21.5064  21.5333  21.5358  21.5464  21.6176  21.6185  21.7716
    21.7803  21.7901  21.8149  21.8207  21.8436  21.9129  21.9287  21.9784
    21.9914  22.0286  22.0683  22.0817  22.0975  22.1821  22.1834  22.2363
    22.2373  22.2680  22.3011  22.3394  22.3881  22.4570  22.5072  22.5317
    22.5896  22.6995  22.7151  22.7642  22.8194  22.8957  22.9077  22.9429
    23.0163  23.0249  23.0837  23.1387  23.1485  23.1977  23.2319  23.2474
    23.3298  23.4404  23.4427  23.4891  23.5335  23.5495  23.5586  23.6459
    23.6696  23.6895  23.7691  23.7870  23.8074  23.8111  23.8513  23.8545
    24.0237  24.0395  24.0498  24.0850  24.1069  24.1515  24.1691  24.2072
    24.2423  24.2939  24.3073  24.3122  24.3239  24.3550  24.5246  24.5521
    24.5779  24.6094  24.6979  24.7678  24.8704  24.8871  24.9487  24.9833
    25.0582  25.0584  25.0588  25.1052  25.1465  25.1908  25.2753  25.3088
    25.3778  25.3854  25.3955  25.3971  25.4956  25.5043  25.5571  25.5882
    25.7156  25.7873  25.8476  25.9346  26.0937  26.1077  26.1809  26.2159
    26.2948  26.2993  26.3682  26.3868  26.4072  26.4319  26.5358  26.5758
    26.5971  26.6122  26.6511  26.7345  26.8316  26.8421  26.8664  26.9701
    27.0286  27.0485  27.0664  27.0741  27.0786  27.1543  27.1577  27.1768
    27.2172  27.2328  27.2471  27.3063  27.3645  27.3982  27.4187  27.4906
    27.5338  27.5524  27.5526  27.6555  27.6610  27.6746  27.6810  27.7018
    27.8513

          k =-0.5000 0.2435 0.0000 ( 41580 PWs)   bands (ev):

   -79.4542 -72.6826 -72.6826 -72.5007 -72.5007 -72.3479 -72.3479 -72.3191
   -72.2932 -72.2822 -72.2573 -72.2179 -72.2178 -72.1740 -72.0253 -72.0129
   -53.9048 -46.3181 -46.1738 -42.7448 -42.7447 -42.6871 -42.6871 -42.5611
   -42.5584 -42.5584 -42.5392 -42.5344 -42.5190 -42.5162 -42.5133 -42.5133
   -42.4864 -42.4809 -42.4794 -42.4718 -42.4094 -42.4094 -42.3380 -42.3379
   -42.3008 -42.3006 -42.2499 -42.2494 -42.2261 -42.2036 -42.1904 -42.1898
   -42.1807 -42.1647 -42.1616 -42.1610 -42.1531 -42.1016 -42.0825 -42.0667
   -42.0626 -42.0626 -42.0538 -42.0512 -42.0336 -41.8681 -41.8613 -41.8433
   -20.2980 -18.4754 -18.4400 -18.2625 -18.2417 -18.1800 -18.0196 -17.9621
   -17.9431 -17.9066 -17.8585 -17.8325 -17.7512 -17.7426 -17.6424 -17.6191
   -17.5863 -17.5634 -17.5184 -17.4966 -17.4299 -17.4119 -17.3926 -17.3825
   -17.3264 -17.3187 -17.3166 -17.2925 -17.2735 -17.0724 -17.0254 -16.2657
   -16.2458 -15.4258 -15.2907 -10.8184  -6.7411  -6.5849  -6.3772  -6.2421
    -6.2208  -6.1421  -6.0702  -6.0624  -6.0464  -6.0349  -6.0190  -6.0049
    -5.9943  -5.7908  -5.7791  -5.7318  -5.7244  -5.6099  -5.5719  -5.5551
    -5.5483  -5.4693  -5.4622  -5.4446  -5.3945  -5.3373  -5.2680  -5.2251
    -4.8523  -4.8406  -4.8371  -4.8071  -4.6995  -4.6255  -4.5844  -4.4571
    -4.4498  -4.3995  -4.3822  -4.3380  -4.3193  -4.3011  -4.2780  -4.2353
    -4.1619  -4.1016  -4.0469  -3.9990  -3.9954  -3.8861  -3.6329  -3.6204
    -3.5154  -3.4748  -3.3850  -3.3812  -3.2834  -3.2826  -3.1937  -3.1837
    -3.1308  -3.0984  -3.0575  -2.9811  -2.9212  -2.8905  -2.8706  -2.8263
    -2.8252  -2.7741  -2.7737  -2.6501  -2.6451  -2.5871  -2.5679  -2.4465
    -2.3933  -2.3270  -2.3206  -2.1630  -2.1347  -2.0692  -2.0617  -2.0287
    -1.9964  -1.9511  -1.9228  -1.8575  -1.5383  -1.5093  -1.3250  -1.2875
    -1.2689  -1.2627  -1.1007  -1.0912  -1.0698  -0.2144  -0.2142  -0.0985
     0.0197   0.3563   0.4072   0.4870   0.5347   0.5674   0.5773   0.6193
     0.6891   0.6962   0.8113   0.8241   0.8927   0.9242   0.9403   0.9721
     0.9769   1.0223   1.0278   1.0419   1.0530   1.1165   1.1405   1.1604
     1.2268   1.2399   1.2733   1.2748   1.3234   1.3558   1.4978   1.5026
     1.5669   1.5830   1.6244   1.6267   1.6573   1.6837   1.8534   1.8834
     2.1008   2.1078   2.3721   2.5301   2.5417   2.6723   3.1538   3.4934
     3.8501   3.9073   3.9347   4.1132   4.1310   4.1606   4.1800   4.1911
     4.2268   4.2273   4.2636   4.5704   4.6425   4.7136   4.8016   4.8249
     4.8641   4.9473   5.0095   5.2343   5.2755   5.3331   5.3455   5.5970
     5.6145   5.9681   6.0087   6.5467   6.5872   6.9943   6.9976   7.1616
     7.1835   7.4988   7.5365   7.8871   7.9637   8.2766   8.3351   8.5328
     8.5330   8.8791   8.9299   8.9620   9.0397   9.0964   9.1147   9.2565
     9.3119   9.4940   9.5485   9.5854   9.6177   9.8271   9.8361  10.1044
    10.2491  10.3187  10.4025  10.5134  10.5322  10.7472  10.7808  10.9017
    11.0750  11.0931  11.1101  11.2435  11.3093  11.3546  11.3752  11.6333
    11.8042  11.8329  11.8810  11.9575  11.9912  12.0808  12.3166  12.4731
    12.5133  12.5418  12.6336  12.6373  12.6456  12.7761  12.8201  12.8656
    12.9974  13.0207  13.0478  13.1166  13.1788  13.2226  13.2819  13.3544
    13.3856  13.3978  13.4534  13.5158  13.5765  13.5954  13.6099  13.6516
    13.8791  13.9500  14.0859  14.0928  14.0938  14.1560  14.1709  14.2193
    14.2895  14.2988  14.3709  14.3858  14.4229  14.4332  14.4597  14.5205
    14.5399  14.6001  14.6217  14.7745  14.7954  14.7965  14.8634  14.9135
    15.0286  15.0429  15.1098  15.1399  15.2383  15.2695  15.2905  15.3910
    15.4432  15.5912  15.6540  15.6819  15.7524  15.7781  15.8104  15.8643
    15.8948  15.9015  15.9615  15.9841  16.0896  16.1486  16.1764  16.2183
    16.2920  16.3655  16.3677  16.4092  16.5079  16.5799  16.5998  16.6066
    16.6929  16.6963  16.7371  16.7979  16.8329  16.8761  16.9264  16.9438
    16.9489  16.9872  16.9921  17.0051  17.0767  17.1347  17.1736  17.1962
    17.2400  17.2529  17.2853  17.3209  17.3807  17.4153  17.4997  17.5003
    17.5400  17.5658  17.5745  17.5869  17.6580  17.6795  17.6842  17.7874
    17.7997  17.8410  17.8533  17.8772  17.9241  17.9310  18.1334  18.1411
    18.1869  18.2591  18.2902  18.3867  18.4031  18.4915  18.5189  18.5607
    18.5957  18.5999  18.6473  18.7374  18.7866  18.8677  18.9068  18.9386
    18.9983  19.1223  19.1550  19.2545  19.3339  19.3661  19.3909  19.4883
    19.5331  19.5715  19.5800  19.6997  19.8012  19.8299  19.8863  19.9783
    20.0022  20.0335  20.0454  20.0628  20.1356  20.1991  20.2552  20.2776
    20.2990  20.3750  20.3784  20.5267  20.5694  20.5762  20.6147  20.6385
    20.6669  20.6777  20.7181  20.7183  20.8499  20.9713  21.0091  21.0604
    21.1302  21.1707  21.1769  21.1928  21.2078  21.2496  21.2758  21.3399
    21.3936  21.5022  21.5331  21.5746  21.5902  21.7082  21.7156  21.7740
    21.7983  21.8831  21.9208  22.0377  22.1275  22.1504  22.2236  22.2727
    22.2777  22.3435  22.3891  22.4404  22.4506  22.5073  22.5374  22.6412
    22.6454  22.6883  22.7081  22.8248  22.9587  22.9846  23.0038  23.0738
    23.1493  23.1935  23.2175  23.2513  23.2705  23.3926  23.4405  23.5279
    23.5793  23.6494  23.6631  23.7648  23.7714  23.8243  23.8618  23.9619
    23.9641  24.0473  24.0484  24.1000  24.1163  24.1311  24.1908  24.2168
    24.2207  24.2564  24.3206  24.3778  24.3983  24.4058  24.5010  24.5612
    24.5819  24.6209  24.6436  24.7051  24.7598  24.7722  24.8277  24.9091
    25.0142  25.0752  25.1154  25.1585  25.2585  25.3030  25.3175  25.4221
    25.4434  25.4489  25.5225  25.5277  25.5687  25.5915  25.6153  25.6473
    25.6736  25.6905  25.7166  25.7621  25.7650  25.7942  25.8086  25.8823
    25.8922  25.9715  25.9909  25.9951  26.0578  26.0603  26.0886  26.0984
    26.1653  26.1658  26.2707  26.3307  26.3545  26.4197  26.4386  26.4683
    26.4774  26.4880  26.5339  26.5460  26.5735  26.5872  26.6171  26.6593
    26.7001  26.7787  26.7876  26.8220  26.8281  26.9334  26.9392  26.9692
    27.0275  27.0276  27.0668  27.1065  27.1765  27.2080  27.3014  27.3294
    27.3682  27.3734  27.3942  27.4245  27.4327  27.4800  27.5370  27.5928
    27.6037

[...]
    12.3402  12.3919  12.4723  12.5895  12.6991  12.7628  12.8285  12.8292
    12.8525  12.8700  12.9121  12.9153  12.9269  12.9822  13.0540  13.0986
    13.2338  13.2597  13.2644  13.3023  13.5952  13.6452  13.6647  13.6860
    13.7035  13.7090  13.7573  13.7990  13.8012  13.8200  13.8454  13.8765
    14.0364  14.0403  14.1054  14.1216  14.1931  14.2767  14.3344  14.3442
    14.3856  14.4641  14.5165  14.5475  14.8014  14.9199  15.0051  15.0148
    15.0563  15.0800  15.1318  15.1892  15.2234  15.3360  15.3484  15.3830
    15.4579  15.5296  15.5358  15.6012  15.6240  15.6752  15.7401  15.7609
    15.7989  15.8464  15.8527  15.8892  15.9097  15.9466  16.0750  16.1560
    16.1906  16.2204  16.2845  16.2938  16.3073  16.3176  16.3411  16.3950
    16.4050  16.4774  16.4947  16.5968  16.6292  16.6699  16.6953  16.7542
    16.8049  16.8198  16.8532  16.8915  16.9158  16.9253  16.9897  17.0813
    17.1188  17.1241  17.2302  17.2407  17.2547  17.2795  17.2825  17.3755
    17.3766  17.4277  17.5101  17.5119  17.5494  17.6022  17.6738  17.7118
    17.7190  17.7568  17.8885  17.9331  17.9343  17.9736  17.9875  18.0916
    18.2746  18.3238  18.3993  18.4022  18.5314  18.5540  18.5909  18.6304
    18.7317  18.7434  18.7695  18.8241  18.8271  18.8806  18.9833  19.0459
    19.0644  19.1160  19.1262  19.1870  19.1951  19.2485  19.4206  19.4574
    19.4754  19.5258  19.6000  19.7353  19.7678  19.7761  19.8149  19.8324
    19.8504  19.8865  19.9992  20.0312  20.0937  20.1722  20.1879  20.2676
    20.2847  20.3864  20.4695  20.4997  20.5377  20.5761  20.6081  20.6496
    20.6817  20.7436  20.7470  20.7543  20.7649  20.8161  20.8465  20.8829
    21.0457  21.0681  21.2211  21.2423  21.2686  21.3168  21.3319  21.3607
    21.3638  21.4460  21.4996  21.6115  21.6171  21.6892  21.6962  21.7418
    21.7510  21.8567  21.8620  21.9100  22.1332  22.1616  22.1665  22.1818
    22.1824  22.2428  22.2559  22.2781  22.3315  22.4032  22.4707  22.5127
    22.5656  22.6834  22.6987  22.7820  22.8866  22.9352  22.9448  22.9816
    22.9871  23.0510  23.0952  23.1874  23.2852  23.2936  23.3164  23.3503
    23.3943  23.4819  23.5551  23.5950  23.6359  23.6769  23.6813  23.6894
    23.7440  23.7467  23.8071  23.9174  23.9393  24.0231  24.0781  24.0867
    24.1282  24.1447  24.2052  24.2124  24.2242  24.2944  24.3120  24.4535
    24.5015  24.5898  24.6208  24.6292  24.6368  24.7667  24.7929  24.8836
    24.9074  25.0311  25.1286  25.1590  25.1591  25.1706  25.2089  25.2337
    25.2350  25.2665  25.3684  25.4633  25.4853  25.4908  25.5773  25.6349
    25.6395  25.7129  25.7181  25.7434  25.7484  25.8488  25.8748  25.8895
    25.9683  26.0052  26.0295  26.0679  26.1169  26.1187  26.1580  26.1918
    26.2111  26.2211  26.2607  26.2756  26.2953  26.3341  26.3413  26.3550
    26.4389  26.4663  26.4928  26.5139  26.5349  26.5610  26.5685  26.6592
    26.6759  26.6991  26.7159  26.7350  26.7576  26.8071  26.8112  26.8641
    26.8760  26.9107  26.9193  26.9476  27.0369  27.0727  27.1271  27.1544
    27.1925  27.1965  27.2214  27.2756  27.3158  27.3415  27.3580  27.4141
    27.4221

          k =-0.5000-0.4870 0.0000 ( 41560 PWs)   bands (ev):

   -73.7665 -73.3492 -73.3492 -73.1254 -73.1254 -72.9636 -72.9636 -72.9422
   -72.9090 -72.9053 -72.8853 -72.8382 -72.8378 -72.8360 -72.6474 -72.6354
   -44.2205 -43.6084 -43.4262 -43.4157 -43.4085 -43.3128 -43.3110 -43.2025
   -43.2016 -43.1835 -43.1835 -43.1834 -43.1416 -43.1393 -43.1299 -43.1298
   -43.1160 -43.1016 -43.1001 -43.0907 -43.0295 -43.0294 -42.9651 -42.9650
   -42.9158 -42.9154 -42.8738 -42.8496 -42.8474 -42.8146 -42.8082 -42.8080
   -42.8003 -42.7877 -42.7876 -42.7837 -42.7738 -42.7243 -42.7004 -42.6892
   -42.6789 -42.6785 -42.6756 -42.6724 -42.6640 -42.5801 -42.4829 -42.4665
   -18.9446 -18.8697 -18.7385 -18.7310 -18.6067 -18.6033 -18.4630 -18.4574
   -18.3190 -18.3087 -18.3041 -18.3028 -18.2106 -18.1976 -18.1922 -18.1890
   -18.1714 -18.1570 -18.1292 -18.1249 -18.1095 -18.1068 -18.0428 -18.0414
   -18.0380 -18.0316 -17.9036 -17.8981 -17.6123 -17.6036 -16.8748 -16.8586
   -16.6517  -6.9595  -6.9557  -6.8193  -6.8115  -6.5091  -6.4968  -6.3256
    -6.3228  -6.2598  -6.2137  -6.2119  -6.1991  -6.1971  -6.1937  -6.1899
    -6.1651  -6.1508  -6.1410  -6.1347  -6.1023  -5.9325  -5.8868  -5.8849
    -5.8729  -5.8499  -5.8428  -5.7932  -5.7927  -5.7762  -5.7621  -5.5195
    -5.5194  -5.4971  -5.4917  -5.4664  -5.4623  -5.4312  -5.4286  -5.3948
    -5.3700  -5.0602  -4.9951  -4.9690  -4.8990  -4.8741  -4.8715  -4.7493
    -4.7141  -4.6446  -4.4063  -4.3852  -4.3558  -4.3425  -4.3011  -4.1928
    -4.1713  -4.1400  -4.0596  -4.0354  -4.0342  -4.0165  -4.0146  -4.0102
    -4.0053  -3.8348  -3.8272  -3.7623  -3.7534  -3.7362  -3.7341  -3.7303
    -3.6834  -3.4340  -3.3390  -3.2951  -3.2854  -2.7846  -2.7677  -2.7577
    -2.6802  -2.5593  -2.5386  -2.5073  -2.4862  -2.4479  -2.3976  -2.3886
    -2.2573  -2.2518  -2.1374  -2.0826  -2.0732  -2.0584  -2.0007  -1.9969
    -1.8378  -1.7922  -1.3391  -1.3376  -0.7384  -0.6413  -0.5896  -0.5177
    -0.4240  -0.3671  -0.2852  -0.2184  -0.0967  -0.0756  -0.0503  -0.0317
     0.0364   0.0510   0.0862   0.1928   0.2882   0.4707   0.4816   0.5391
     0.5771   0.5800   0.5900   0.6160   0.6556   0.6587   0.6616   0.6770
     0.6795   0.7270   0.7659   0.7765   0.7866   0.7988   0.8643   0.9876
     1.0047   1.0397   1.0492   1.1197   1.1358   1.1689   1.2134   1.2481
     1.2594   1.2791   1.3278   1.4651   2.0032   2.0127   2.4542   2.8221
     3.1365   3.1439   3.1518   3.1718   3.1838   3.2447   3.2485   3.3879
     3.3996   3.4495   3.5136   4.0261   4.0428   4.0606   4.1428   4.4159
     4.4424   4.4644   4.5218   4.8984   4.9404   4.9488   5.0123   5.1976
     5.2134   5.2621   5.2881   5.7160   6.6772   6.6818   7.4916   7.7482
     7.7497   8.0304   8.0365   8.1107   8.1669   8.1822   8.2418   8.3507
     8.4181   8.4795   8.5013   8.6673   8.8278   8.8942   8.8957   9.0752
     9.3158   9.3510   9.3989   9.4140   9.4226   9.4293   9.4356   9.5677
     9.9588   9.9884  10.0109  10.0273  10.0479  10.0956  10.0964  10.3111
    10.7520  10.7865  10.8170  10.8488  10.8577  10.8807  10.9415  11.1707
    11.5591  11.5910  11.6566  11.9456  12.0422  12.0441  12.1391  12.2885
    12.5046  12.5078  12.7502  12.9458  12.9653  12.9707  13.0145  13.1989
    13.2031  13.2150  13.4889  13.5444  13.5484  13.6008  13.6386  13.7053
    13.7100  13.7287  13.8469  13.8591  13.8925  13.9117  13.9716  13.9839
    14.0071  14.0710  14.0940  14.1114  14.1243  14.2627  14.3043  14.3322
    14.3470  14.5748  14.6061  14.6376  14.6699  14.7832  14.8123  14.8160
    14.8249  14.8838  14.9229  14.9499  14.9558  15.0886  15.2534  15.2666
    15.3559  15.3764  15.3923  15.4447  15.4729  15.5077  15.5638  15.6057
    15.6226  15.6258  15.6572  15.6875  15.7245  15.7262  15.7400  15.7622
    15.7722  15.8210  15.8247  15.8507  15.9079  15.9226  15.9289  15.9418
    15.9444  16.0108  16.0230  16.1397  16.1539  16.1589  16.1960  16.2418
    16.2570  16.2722  16.2771  16.3930  16.3948  16.3951  16.5193  16.5260
    16.5426  16.5434  16.5793  16.5804  16.6824  16.7104  16.7322  16.8025
    16.8222  16.8283  16.8858  16.9025  17.0667  17.0759  17.1778  17.1904
    17.3170  17.3367  17.3500  17.4076  17.4431  17.4729  17.5058  17.6622
    17.6669  17.6749  17.7443  17.7746  17.7858  17.8174  17.8245  17.9200
    17.9770  18.0106  18.1052  18.1105  18.1151  18.1866  18.3001  18.3388
    18.3443  18.3572  18.3724  18.3937  18.5394  18.5489  18.5751  18.7073
    18.7434  18.7902  18.8039  18.8377  18.9159  18.9163  18.9289  18.9936
    19.0852  19.1293  19.2323  19.3518  19.3587  19.3748  19.3877  19.4706
    19.5052  19.5402  19.5496  19.5822  19.8837  19.9779  19.9868  20.1048
    20.1569  20.1796  20.2026  20.2221  20.2850  20.3024  20.3056  20.3913
    20.4520  20.4528  20.5477  20.6490  20.6660  20.7252  20.7690  20.7841
    20.7925  20.8456  20.8622  21.1641  21.3679  21.4051  21.5916  21.7521
    21.7715  21.7826  21.8162  21.8455  21.8677  21.9062  21.9173  22.0771
    22.0785  22.0930  22.1551  22.1951  22.2150  22.2427  22.2714  22.3270
    22.5760  22.5783  22.6365  22.7234  22.7390  22.7523  22.7827  22.9440
    22.9506  22.9619  22.9772  23.0136  23.0267  23.0653  23.1285  23.1537
    23.1591  23.1718  23.2532  23.3862  23.3995  23.4071  23.4249  23.5301
    23.5516  23.5546  23.5619  23.5888  23.6270  23.6558  23.6799  23.7037
    23.7045  23.7402  23.8396  23.8609  23.8702  23.9277  23.9442  23.9889
    24.1126  24.1136  24.1406  24.1821  24.1925  24.1961  24.2179  24.2408
    24.3195  24.3606  24.3694  24.4089  24.4556  24.4938  24.5111  24.5562
    24.5710  24.5851  24.5988  24.7766  24.7850  24.7895  24.8650  24.8730
    24.8894  24.8964  25.0291  25.0919  25.1325  25.1390  25.1434  25.1573
    25.2839  25.3478  25.4201  25.4782  25.5082  25.5631  25.5649  25.5651
    25.6468  25.6861  25.7104  25.7946  25.8003  25.8259  25.8479  25.9339
    25.9693  26.0298  26.0938  26.1199  26.1640  26.1805  26.2199  26.2590
    26.2963  26.3068  26.3595  26.3860  26.5121  26.5892  26.6048  26.7221
    26.7932  26.8109  26.8914  26.9349  26.9365  26.9416  26.9488  26.9637
    27.1054  27.1101  27.1102  27.1428  27.1914  27.2025  27.2085  27.2790
    27.3046  27.3271  27.3747  27.4548  27.4613  27.5052  27.5403  27.5923
    27.6424

     the Fermi energy is     0.6416 ev

!    total energy              =   -4156.39178773 Ry
     Harris-Foulkes estimate   =   -4156.39178774 Ry
     estimated scf accuracy    <          8.9E-09 Ry

     The total energy is the sum of the following terms:

     one-electron contribution =  -87182.18346918 Ry
     hartree contribution      =   43645.60373895 Ry
     xc contribution           =    -633.86066633 Ry
     ewald contribution        =   40014.05039430 Ry
     smearing contrib. (-TS)   =      -0.00178547 Ry

     convergence has been achieved in  19 iterations

     Forces acting on atoms (Ry/au):


     negative rho (up, down):  0.116E+01 0.000E+00
     atom    1 type  1   force =     0.00000000    0.00000000    0.05479091
     atom    2 type  2   force =     0.00034934   -0.00000000   -0.08842752
     atom    3 type  2   force =     0.00000000    0.00000000    0.08242519
     atom    4 type  1   force =    -0.00011440   -0.00508003   -0.02539185
     atom    5 type  1   force =    -0.00011440    0.00508003   -0.02539185
     atom    6 type  1   force =     0.00000000    0.00000000    0.04374187
     atom    7 type  1   force =     0.00000000    0.00000000   -0.03035118
     atom    8 type  2   force =    -0.00122189    0.00000000   -0.01998344
     atom    9 type  2   force =     0.00000000    0.00000000   -0.00689569
     atom   10 type  1   force =     0.00053491    0.02357262   -0.00307462
     atom   11 type  1   force =     0.00053491   -0.02357262   -0.00307462
     atom   12 type  1   force =     0.00000000    0.00000000    0.03076521
     atom   13 type  1   force =     0.00000000    0.00000000    0.00071992
     atom   14 type  2   force =     0.00181345    0.00000000   -0.02233645
     atom   15 type  2   force =     0.00000000    0.00000000    0.00241501
     atom   16 type  1   force =     0.00105819   -0.00129917   -0.00023663
     atom   17 type  1   force =     0.00105819    0.00129917   -0.00023663
     atom   18 type  1   force =     0.00000000    0.00000000   -0.00235434
     atom   19 type  1   force =     0.00000000    0.00000000   -0.00020753
     atom   20 type  2   force =     0.00840023    0.00000000    0.01070028
     atom   21 type  2   force =     0.00000000    0.00000000   -0.00873497
     atom   22 type  1   force =    -0.03387681    0.02512891   -0.03204939
     atom   23 type  1   force =    -0.03387681   -0.02512891   -0.03204939
     atom   24 type  1   force =     0.00000000    0.00000000   -0.00561133
     atom   25 type  1   force =     0.00000000    0.00000000    0.05598251
     atom   26 type  2   force =    -0.00034934    0.00000000   -0.08842752
     atom   27 type  2   force =     0.00000000    0.00000000    0.08216855
     atom   28 type  1   force =     0.00011440   -0.00508003   -0.02539185
     atom   29 type  1   force =     0.00011440    0.00508003   -0.02539185
     atom   30 type  1   force =     0.00000000    0.00000000    0.03515221
     atom   31 type  1   force =     0.00000000    0.00000000   -0.03048320
     atom   32 type  2   force =     0.00122189    0.00000000   -0.01998344
     atom   33 type  2   force =     0.00000000    0.00000000   -0.01292392
     atom   34 type  1   force =    -0.00053491    0.02357262   -0.00307462
     atom   35 type  1   force =    -0.00053491   -0.02357262   -0.00307462
     atom   36 type  1   force =     0.00000000    0.00000000    0.03267090
     atom   37 type  1   force =     0.00000000    0.00000000    0.00118049
     atom   38 type  2   force =    -0.00181345    0.00000000   -0.02233645
     atom   39 type  2   force =     0.00000000    0.00000000    0.00186184
     atom   40 type  1   force =    -0.00105819   -0.00129917   -0.00023663
     atom   41 type  1   force =    -0.00105819    0.00129917   -0.00023663
     atom   42 type  1   force =     0.00000000    0.00000000   -0.00826791
     atom   43 type  1   force =     0.00000000    0.00000000    0.00071019
     atom   44 type  2   force =    -0.00840023    0.00000000    0.01070028
     atom   45 type  2   force =     0.00000000    0.00000000    0.17654856
     atom   46 type  1   force =     0.03387681    0.02512891   -0.03204939
     atom   47 type  1   force =     0.03387681   -0.02512891   -0.03204939
     atom   48 type  1   force =     0.00000000    0.00000000   -0.01221042
     atom   49 type  1   force =     0.00000000    0.00000000    0.00001135

     Total force =     0.000011     Total SCF correction =     0.000007
     SCF correction compared to forces is large: reduce conv_thr to get better values

     bfgs converged in   9 scf cycles and   8 bfgs steps
     (criteria: energy < 0.10E-03, force < 0.10E-02)

     End of BFGS Geometry Optimization

     Final energy   =   -4156.3917877284 Ry
Begin final coordinates

ATOMIC_POSITIONS (crystal)
O0       0.000000000   0.500000000   0.332930000    0   0   0
Ru1      0.250000000   0.500000000   0.366700000    0   0   0
Ru1      0.000000000   0.000000000   0.366700000    0   0   0
O0       0.250000000   0.810000000   0.366700000    0   0   0
O0       0.250000000   0.190000000   0.366700000    0   0   0
O0       0.000000000   0.500000000   0.400470000    0   0   0
O0       0.000000000   0.000000000   0.421800000    0   0   0
Ru1      0.250000000   0.000000000   0.455570000    0   0   0
Ru1      0.000000000   0.500000000   0.455570000    0   0   0
O0       0.250000000   0.690000000   0.455570000    0   0   0
O0       0.250000000   0.310000000   0.455570000    0   0   0
O0       0.000000000   0.000000000   0.489340000    0   0   0
O0       0.000000000   0.500000000   0.509450000    0   0   0
Ru1      0.250000000   0.500000000   0.543720000    0   0   0
Ru1      0.000000000   0.000000000   0.544600000    0   0   0
O0       0.250000000   0.806470000   0.544220000    0   0   0
O0       0.250000000   0.193530000   0.544220000    0   0   0
O0       0.000000000   0.500000000   0.578000000    0   0   0
O0       0.000000000   0.000000000   0.598670000    0   0   0
Ru1      0.250000000   0.000000000   0.635670000    0   0   0
Ru1      0.000000000   0.500000000   0.630220000    0   0   0
O0       0.250000000   0.689660000   0.634660000    0   0   0
O0       0.250000000   0.310340000   0.634660000    0   0   0
O0       0.000000000   0.000000000   0.665940000    0   0   0
O0       0.500000000   0.500000000   0.332930000    0   0   0
Ru1      0.750000000   0.500000000   0.366700000    0   0   0
Ru1      0.500000000   0.000000000   0.366700000    0   0   0
O0       0.750000000   0.810000000   0.366700000    0   0   0
O0       0.750000000   0.190000000   0.366700000    0   0   0
O0       0.500000000   0.500000000   0.400470000    0   0   0
O0       0.500000000   0.000000000   0.421800000    0   0   0
Ru1      0.750000000   0.000000000   0.455570000    0   0   0
Ru1      0.500000000   0.500000000   0.455570000    0   0   0
O0       0.750000000   0.690000000   0.455570000    0   0   0
O0       0.750000000   0.310000000   0.455570000    0   0   0
O0       0.500000000   0.000000000   0.489340000    0   0   0
O0       0.500000000   0.500000000   0.509450000    0   0   0
Ru1      0.750000000   0.500000000   0.543720000    0   0   0
Ru1      0.500000000   0.000000000   0.544600000    0   0   0
O0       0.750000000   0.806470000   0.544220000    0   0   0
O0       0.750000000   0.193530000   0.544220000    0   0   0
O0       0.500000000   0.500000000   0.578000000    0   0   0
O0       0.500000000   0.000000000   0.598670000    0   0   0
Ru1      0.750000000   0.000000000   0.635670000    0   0   0
Ru1      0.500000000   0.500000000   0.630220000    0   0   0
O0       0.750000000   0.689660000   0.634660000    0   0   0
O0       0.750000000   0.310340000   0.634660000    0   0   0
O0       0.500000000   0.000000000   0.665940000    0   0   0
O0       0.500000000   0.500000000   0.678651814
End final coordinates



     init_run     :     77.64s CPU     85.00s WALL (       1 calls)
     electrons    :  91572.18s CPU  95517.62s WALL (       9 calls)
     update_pot   :     42.87s CPU     48.63s WALL (       8 calls)
     forces       :    403.33s CPU    411.26s WALL (       9 calls)

     Called by init_run:
     wfcinit      :     61.45s CPU     63.78s WALL (       1 calls)
     potinit      :      3.50s CPU      4.03s WALL (       1 calls)

     Called by electrons:
     c_bands      :  82777.30s CPU  84821.58s WALL (     302 calls)
     sum_band     :   5442.29s CPU   5801.15s WALL (     302 calls)
     v_of_rho     :    527.48s CPU    632.79s WALL (     311 calls)
     newd         :   2435.98s CPU   3759.63s WALL (     311 calls)
     mix_rho      :    205.16s CPU    226.07s WALL (     302 calls)

     Called by c_bands:
     init_us_2    :     33.28s CPU     35.07s WALL (    5526 calls)
     cegterg      :  82602.39s CPU  84637.66s WALL (    2718 calls)

     Called by *egterg:
     h_psi        :  15298.35s CPU  16290.14s WALL (    7945 calls)
     s_psi        :   3435.44s CPU   3484.01s WALL (    7945 calls)
     g_psi        :     27.54s CPU     27.61s WALL (    5218 calls)
     cdiaghg      :  46151.16s CPU  46661.80s WALL (    7864 calls)

     Called by h_psi:
     add_vuspsi   :   3442.50s CPU   3496.55s WALL (    7945 calls)

     General routines
     calbec       :   5352.28s CPU   5409.38s WALL (   10744 calls)
     fft          :    943.35s CPU   1110.44s WALL (    5047 calls)
     ffts         :     54.13s CPU     62.94s WALL (     613 calls)
     fftw         :   7702.64s CPU   8848.25s WALL ( 9223868 calls)
     interpolate  :    151.70s CPU    180.89s WALL (     613 calls)

     Parallel routines
     fft_scatter  :   4344.07s CPU   5234.83s WALL ( 9229528 calls)

     PWSCF        :     1d    1h36m CPU        1d    2h42m WALL


   This run was terminated on:   8:54:25  29Mar2014            

=------------------------------------------------------------------------------=
   JOB DONE.
=------------------------------------------------------------------------------=
---------------------------------------
Running PBS batch system epilogue script
Job id: 314582.audhumbla.fysik.dtu.dk
Username: zhonxu
Groupname: campgst
Jobname: RuO2/Eads-4-layers/O
Sessionid: 10462
Resources limits: neednodes=2:ppn=16:xeon16,nodes=2:ppn=16:xeon16,walltime=48:00:00
Resources used: cput=850:37:06,mem=25050616kb,vmem=32502072kb,walltime=26:42:51
Queuename: verylong
Accounting:
This job has allocated the following 32 nodes:
g076 g076 g076 g076 g076 g076 g076 g076 g076 g076 g076 g076 g076 g076 g076 g076 g016 g016 g016 g016 g016 g016 g016 g016 g016 g016 g016 g016 g016 g016 g016 g016
Finished epilogue job 314582.audhumbla.fysik.dtu.dk for zhonxu
