
     Program PWSCF v.5.0.2 (svn rev. 9656) starts on 23Jan2014 at 19:35:53 

     This program is part of the open-source Quantum ESPRESSO suite
     for quantum simulation of materials; please cite
         "P. Giannozzi et al., J. Phys.:Condens. Matter 21 395502 (2009);
          URL http://www.quantum-espresso.org", 
     in publications or presentations arising from this work. More details at
     http://www.quantum-espresso.org/quote.php

     Parallel version (MPI), running on     4 processors
     R & G space division:  proc/nbgrp/npool/nimage =       4

     Current dimensions of program PWSCF are:
     Max number of different atomic species (ntypx) = 10
     Max number of k-points (npk) =  40000
     Max angular momentum in pseudopotentials (lmaxx) =  3
     Reading input from ReO2-v-1.0.in

     Subspace diagonalization in iterative solution of the eigenvalue problem:
     a serial algorithm will be used


     Parallelization info
     --------------------
     sticks:   dense  smooth     PW     G-vecs:    dense   smooth      PW
     Min         745     237     72                19728     3577     588
     Max         746     238     74                19729     3588     589
     Sum        2981     949    293                78915    14331    2353



     bravais-lattice index     =            0
     lattice parameter (alat)  =       8.6590  a.u.
     unit-cell volume          =     418.3967 (a.u.)^3
     number of atoms/cell      =            6
     number of atomic types    =            2
     number of electrons       =        54.00
     number of Kohn-Sham states=           81
     kinetic-energy cutoff     =      40.0000  Ry
     charge density cutoff     =     500.0000  Ry
     convergence threshold     =      1.0E-06
     mixing beta               =       0.7000
     number of iterations used =            8  plain     mixing
     Exchange-correlation      = SLA  PW   PBE  PBE ( 1 4 3 4 0)
     EXX-fraction              =        0.00
     nstep                     =           50


     celldm(1)=   8.658997  celldm(2)=   0.000000  celldm(3)=   0.000000
     celldm(4)=   0.000000  celldm(5)=   0.000000  celldm(6)=   0.000000

     crystal axes: (cart. coord. in units of alat)
               a(1) = (   1.000000   0.000000   0.000000 )  
               a(2) = (   0.000000   1.000000   0.000000 )  
               a(3) = (   0.000000   0.000000   0.644444 )  

     reciprocal axes: (cart. coord. in units 2 pi/alat)
               b(1) = (  1.000000  0.000000  0.000000 )  
               b(2) = (  0.000000  1.000000  0.000000 )  
               b(3) = (  0.000000  0.000000  1.551724 )  


     PseudoPot. # 1 for Re read from file:
     /home/camp/zhonxu/pseudo/re_pbe_v1.uspp.F.UPF
     MD5 check sum: 6f5a5dcaf9c96c20d0ffdde0de57afc6
     Pseudo is Ultrasoft + core correction, Zval = 15.0
     Generated by new atomic code, or converted to UPF format
     Using radial grid of  981 points,  8 beta functions with: 
                l(1) =   0
                l(2) =   0
                l(3) =   1
                l(4) =   1
                l(5) =   2
                l(6) =   2
                l(7) =   3
                l(8) =   3
     Q(r) pseudized with  8 coefficients,  rinner =    1.000   1.000   1.000
                                                       1.000   1.000   1.000
                                                       1.000

     PseudoPot. # 2 for O  read from file:
     /home/camp/zhonxu/pseudo/o_pbe_v1.01.uspp.F.UPF
     MD5 check sum: 2bcb18d16ea4b960afae9ec6d52f22d2
     Pseudo is Ultrasoft + core correction, Zval =  6.0
     Generated by new atomic code, or converted to UPF format
     Using radial grid of  737 points,  5 beta functions with: 
                l(1) =   0
                l(2) =   0
                l(3) =   1
                l(4) =   1
                l(5) =   2
     Q(r) pseudized with  8 coefficients,  rinner =    0.900   0.900   0.900
                                                       0.900   0.900

     atomic species   valence    mass     pseudopotential
        Re0           15.00   186.20700     Re( 1.00)
        O1             6.00    15.99940     O ( 1.00)

     Starting magnetic structure 
     atomic species   magnetization
        Re0          0.600
        O1           0.000

     16 Sym. Ops., with inversion, found ( 8 have fractional translation)



   Cartesian axes

     site n.     atom                  positions (alat units)
         1           Re0 tau(   1) = (   0.0000000   0.0000000   0.0000000  )
         2           Re0 tau(   2) = (   0.5000000   0.5000000   0.3222222  )
         3           O1  tau(   3) = (   0.3050000   0.3050000   0.0000000  )
         4           O1  tau(   4) = (  -0.3050000  -0.3050000   0.0000000  )
         5           O1  tau(   5) = (   0.8050000   0.1950000   0.3222222  )
         6           O1  tau(   6) = (   0.1950000   0.8050000   0.3222222  )

     number of k points=    36  Methfessel-Paxton smearing, width (Ry)=  0.0100
                       cart. coord. in units 2pi/alat
        k(    1) = (   0.0000000   0.0000000   0.0000000), wk =   0.0080000
        k(    2) = (   0.0000000   0.0000000   0.3103448), wk =   0.0160000
        k(    3) = (   0.0000000   0.0000000   0.6206897), wk =   0.0160000
        k(    4) = (   0.0000000   0.2000000   0.0000000), wk =   0.0320000
        k(    5) = (   0.0000000   0.2000000   0.3103448), wk =   0.0640000
        k(    6) = (   0.0000000   0.2000000   0.6206897), wk =   0.0640000
        k(    7) = (   0.0000000   0.4000000   0.0000000), wk =   0.0320000
        k(    8) = (   0.0000000   0.4000000   0.3103448), wk =   0.0640000
        k(    9) = (   0.0000000   0.4000000   0.6206897), wk =   0.0640000
        k(   10) = (   0.2000000   0.2000000   0.0000000), wk =   0.0320000
        k(   11) = (   0.2000000   0.2000000   0.3103448), wk =   0.0640000
        k(   12) = (   0.2000000   0.2000000   0.6206897), wk =   0.0640000
        k(   13) = (   0.2000000   0.4000000   0.0000000), wk =   0.0640000
        k(   14) = (   0.2000000   0.4000000   0.3103448), wk =   0.1280000
        k(   15) = (   0.2000000   0.4000000   0.6206897), wk =   0.1280000
        k(   16) = (   0.4000000   0.4000000   0.0000000), wk =   0.0320000
        k(   17) = (   0.4000000   0.4000000   0.3103448), wk =   0.0640000
        k(   18) = (   0.4000000   0.4000000   0.6206897), wk =   0.0640000
        k(   19) = (   0.0000000   0.0000000   0.0000000), wk =   0.0080000
        k(   20) = (   0.0000000   0.0000000   0.3103448), wk =   0.0160000
        k(   21) = (   0.0000000   0.0000000   0.6206897), wk =   0.0160000
        k(   22) = (   0.0000000   0.2000000   0.0000000), wk =   0.0320000
        k(   23) = (   0.0000000   0.2000000   0.3103448), wk =   0.0640000
        k(   24) = (   0.0000000   0.2000000   0.6206897), wk =   0.0640000
        k(   25) = (   0.0000000   0.4000000   0.0000000), wk =   0.0320000
        k(   26) = (   0.0000000   0.4000000   0.3103448), wk =   0.0640000
        k(   27) = (   0.0000000   0.4000000   0.6206897), wk =   0.0640000
        k(   28) = (   0.2000000   0.2000000   0.0000000), wk =   0.0320000
        k(   29) = (   0.2000000   0.2000000   0.3103448), wk =   0.0640000
        k(   30) = (   0.2000000   0.2000000   0.6206897), wk =   0.0640000
        k(   31) = (   0.2000000   0.4000000   0.0000000), wk =   0.0640000
        k(   32) = (   0.2000000   0.4000000   0.3103448), wk =   0.1280000
        k(   33) = (   0.2000000   0.4000000   0.6206897), wk =   0.1280000
        k(   34) = (   0.4000000   0.4000000   0.0000000), wk =   0.0320000
        k(   35) = (   0.4000000   0.4000000   0.3103448), wk =   0.0640000
        k(   36) = (   0.4000000   0.4000000   0.6206897), wk =   0.0640000

     Dense  grid:    78915 G-vectors     FFT dimensions: (  64,  64,  40)

     Smooth grid:    14331 G-vectors     FFT dimensions: (  36,  36,  24)

     Largest allocated arrays     est. size (Mb)     dimensions
        Kohn-Sham Wavefunctions         0.56 Mb     (    452,   81)
        NL pseudopotentials             0.80 Mb     (    452,  116)
        Each V/rho on FFT grid          1.25 Mb     (  40960,   2)
        Each G-vector array             0.15 Mb     (  19729)
        G-vector shells                 0.15 Mb     (  19729)
     Largest temporary arrays     est. size (Mb)     dimensions
        Auxiliary wavefunctions         2.23 Mb     (    452,  324)
        Each subspace H/S matrix        1.60 Mb     ( 324, 324)
        Each <psi_i|beta_j> matrix      0.14 Mb     (    116,   81)
        Arrays for rho mixing           5.00 Mb     (  40960,   8)

     Check: negative/imaginary core charge=   -0.000004    0.000000

     Initial potential from superposition of free atoms
     Check: negative starting charge=(component1):   -0.046499
     Check: negative starting charge=(component2):   -0.011266

     starting charge   52.99990, renormalised to   54.00000

     negative rho (up, down):  0.474E-01 0.115E-01
     Starting wfc are   42 randomized atomic wfcs

     total cpu time spent up to now is       12.1 secs

     per-process dynamical memory:    56.7 Mb

     Self-consistent Calculation

     iteration #  1     ecut=    40.00 Ry     beta=0.70
     Davidson diagonalization with overlap
     ethr =  1.00E-02,  avg # of iterations =  5.1

     negative rho (up, down):  0.175E-01 0.513E-01

     total cpu time spent up to now is       60.4 secs

     total energy              =    -517.52575954 Ry
     Harris-Foulkes estimate   =    -517.78278955 Ry
     estimated scf accuracy    <       2.23804310 Ry

     total magnetization       =     5.98 Bohr mag/cell
     absolute magnetization    =     6.27 Bohr mag/cell

     iteration #  2     ecut=    40.00 Ry     beta=0.70
     Davidson diagonalization with overlap
     ethr =  4.14E-03,  avg # of iterations =  1.1

     negative rho (up, down):  0.134E-01 0.464E-01

     total cpu time spent up to now is       79.5 secs

     total energy              =    -517.50385749 Ry
     Harris-Foulkes estimate   =    -518.93367014 Ry
     estimated scf accuracy    <       3.64547001 Ry

     total magnetization       =     3.12 Bohr mag/cell
     absolute magnetization    =     3.28 Bohr mag/cell

     iteration #  3     ecut=    40.00 Ry     beta=0.70
     Davidson diagonalization with overlap
     ethr =  4.14E-03,  avg # of iterations =  1.0

     negative rho (up, down):  0.103E-01 0.541E-01

     total cpu time spent up to now is       98.3 secs

     total energy              =    -518.35598256 Ry
     Harris-Foulkes estimate   =    -518.34423479 Ry
     estimated scf accuracy    <       0.17665706 Ry

     total magnetization       =     4.24 Bohr mag/cell
     absolute magnetization    =     4.31 Bohr mag/cell

     iteration #  4     ecut=    40.00 Ry     beta=0.70
     Davidson diagonalization with overlap
     ethr =  3.27E-04,  avg # of iterations =  1.1

     negative rho (up, down):  0.122E-01 0.501E-01

     total cpu time spent up to now is      117.3 secs

     total energy              =    -518.41276987 Ry
     Harris-Foulkes estimate   =    -518.40629100 Ry
     estimated scf accuracy    <       0.00981246 Ry

     total magnetization       =     2.90 Bohr mag/cell
     absolute magnetization    =     2.92 Bohr mag/cell

     iteration #  5     ecut=    40.00 Ry     beta=0.70
     Davidson diagonalization with overlap
     ethr =  1.82E-05,  avg # of iterations =  2.8

     negative rho (up, down):  0.168E-01 0.435E-01

     total cpu time spent up to now is      139.3 secs

     total energy              =    -518.41818019 Ry
     Harris-Foulkes estimate   =    -518.41533360 Ry
     estimated scf accuracy    <       0.00241517 Ry

     total magnetization       =     2.60 Bohr mag/cell
     absolute magnetization    =     2.61 Bohr mag/cell

     iteration #  6     ecut=    40.00 Ry     beta=0.70
     Davidson diagonalization with overlap
     ethr =  4.47E-06,  avg # of iterations =  2.9

     negative rho (up, down):  0.168E-01 0.435E-01

     total cpu time spent up to now is      164.5 secs

     total energy              =    -518.42286980 Ry
     Harris-Foulkes estimate   =    -518.42291322 Ry
     estimated scf accuracy    <       0.00188146 Ry

     total magnetization       =     1.98 Bohr mag/cell
     absolute magnetization    =     1.98 Bohr mag/cell

     iteration #  7     ecut=    40.00 Ry     beta=0.70
     Davidson diagonalization with overlap
     ethr =  3.48E-06,  avg # of iterations =  1.0

     negative rho (up, down):  0.211E-01 0.382E-01

     total cpu time spent up to now is      183.0 secs

     total energy              =    -518.42267929 Ry
     Harris-Foulkes estimate   =    -518.42288347 Ry
     estimated scf accuracy    <       0.00240753 Ry

     total magnetization       =     1.99 Bohr mag/cell
     absolute magnetization    =     2.00 Bohr mag/cell

     iteration #  8     ecut=    40.00 Ry     beta=0.70
     Davidson diagonalization with overlap
     ethr =  3.48E-06,  avg # of iterations =  2.2

     negative rho (up, down):  0.209E-01 0.385E-01

     total cpu time spent up to now is      205.1 secs

     total energy              =    -518.42726980 Ry
     Harris-Foulkes estimate   =    -518.42756524 Ry
     estimated scf accuracy    <       0.00248417 Ry

     total magnetization       =     1.23 Bohr mag/cell
     absolute magnetization    =     1.23 Bohr mag/cell

     iteration #  9     ecut=    40.00 Ry     beta=0.70
     Davidson diagonalization with overlap
     ethr =  3.48E-06,  avg # of iterations =  1.0

     negative rho (up, down):  0.222E-01 0.369E-01

     total cpu time spent up to now is      223.5 secs

     total energy              =    -518.42838263 Ry
     Harris-Foulkes estimate   =    -518.42728648 Ry
     estimated scf accuracy    <       0.00255226 Ry

     total magnetization       =     1.27 Bohr mag/cell
     absolute magnetization    =     1.28 Bohr mag/cell

     iteration # 10     ecut=    40.00 Ry     beta=0.70
     Davidson diagonalization with overlap
     ethr =  3.48E-06,  avg # of iterations =  1.0

     negative rho (up, down):  0.303E-01 0.278E-01

     total cpu time spent up to now is      242.1 secs

     total energy              =    -518.41787789 Ry
     Harris-Foulkes estimate   =    -518.42894899 Ry
     estimated scf accuracy    <       0.00195606 Ry

     total magnetization       =     1.02 Bohr mag/cell
     absolute magnetization    =     1.03 Bohr mag/cell

     iteration # 11     ecut=    40.00 Ry     beta=0.70
     Davidson diagonalization with overlap
     ethr =  3.48E-06,  avg # of iterations =  2.9

     negative rho (up, down):  0.295E-01 0.286E-01

     total cpu time spent up to now is      273.1 secs

     total energy              =    -518.43163375 Ry
     Harris-Foulkes estimate   =    -518.43177024 Ry
     estimated scf accuracy    <       0.00065571 Ry

     total magnetization       =    -0.22 Bohr mag/cell
     absolute magnetization    =     0.22 Bohr mag/cell

     iteration # 12     ecut=    40.00 Ry     beta=0.70
     Davidson diagonalization with overlap
     ethr =  1.21E-06,  avg # of iterations =  1.0

     negative rho (up, down):  0.274E-01 0.306E-01

     total cpu time spent up to now is      291.6 secs

     total energy              =    -518.43089622 Ry
     Harris-Foulkes estimate   =    -518.43178158 Ry
     estimated scf accuracy    <       0.00026395 Ry

     total magnetization       =    -0.08 Bohr mag/cell
     absolute magnetization    =     0.09 Bohr mag/cell

     iteration # 13     ecut=    40.00 Ry     beta=0.70
     Davidson diagonalization with overlap
     ethr =  4.89E-07,  avg # of iterations =  2.0

     negative rho (up, down):  0.265E-01 0.315E-01

     total cpu time spent up to now is      313.1 secs

     total energy              =    -518.43171979 Ry
     Harris-Foulkes estimate   =    -518.43188784 Ry
     estimated scf accuracy    <       0.00001108 Ry

     total magnetization       =     0.28 Bohr mag/cell
     absolute magnetization    =     0.28 Bohr mag/cell

     iteration # 14     ecut=    40.00 Ry     beta=0.70
     Davidson diagonalization with overlap
     ethr =  2.05E-08,  avg # of iterations =  2.0

     negative rho (up, down):  0.268E-01 0.312E-01

     total cpu time spent up to now is      335.5 secs

     total energy              =    -518.43188177 Ry
     Harris-Foulkes estimate   =    -518.43188569 Ry
     estimated scf accuracy    <       0.00002171 Ry

     total magnetization       =     0.41 Bohr mag/cell
     absolute magnetization    =     0.41 Bohr mag/cell

     iteration # 15     ecut=    40.00 Ry     beta=0.70
     Davidson diagonalization with overlap
     ethr =  2.05E-08,  avg # of iterations =  2.0

     negative rho (up, down):  0.270E-01 0.310E-01

     total cpu time spent up to now is      357.1 secs

     total energy              =    -518.43189040 Ry
     Harris-Foulkes estimate   =    -518.43189475 Ry
     estimated scf accuracy    <       0.00000842 Ry

     total magnetization       =     0.38 Bohr mag/cell
     absolute magnetization    =     0.38 Bohr mag/cell

     iteration # 16     ecut=    40.00 Ry     beta=0.70
     Davidson diagonalization with overlap
     ethr =  1.56E-08,  avg # of iterations =  1.8

     negative rho (up, down):  0.271E-01 0.309E-01

     total cpu time spent up to now is      378.8 secs

     total energy              =    -518.43189483 Ry
     Harris-Foulkes estimate   =    -518.43189757 Ry
     estimated scf accuracy    <       0.00000227 Ry

     total magnetization       =     0.35 Bohr mag/cell
     absolute magnetization    =     0.35 Bohr mag/cell

     iteration # 17     ecut=    40.00 Ry     beta=0.70
     Davidson diagonalization with overlap
     ethr =  4.20E-09,  avg # of iterations =  2.0

     negative rho (up, down):  0.271E-01 0.309E-01

     total cpu time spent up to now is      400.9 secs

     End of self-consistent calculation

 ------ SPIN UP ------------


          k = 0.0000 0.0000 0.0000 (  1819 PWs)   bands (ev):

   -65.2586 -65.2541 -27.2429 -27.2429 -27.2164 -27.1818 -27.1148 -27.1148
    -6.2558  -5.1236  -3.7805  -3.7805   5.3654   5.7172   7.0469   7.6534
     7.6534  10.0059  10.0059  10.5694  11.6950  11.9175  11.9175  12.5377
    14.3319  14.3709  15.2591  15.3633  15.3633  18.8961  18.9555  19.8728
    22.2336  22.2336  23.8214  24.1743  24.1743  28.1461  28.7795  28.9946
    31.4340  31.5322  32.2301  32.2301  34.5315  35.3285  36.0008  36.0008
    37.1023  37.1023  38.2263  42.2102  42.5159  42.5159  43.0871  43.5859
    44.9481  45.9648  45.9648  46.3573  46.5989  46.7373  46.7373  47.6367
    47.7635  48.6891  48.6891  49.0736  51.7770  53.9266  53.9266  54.0848
    54.8289  54.8289  54.8320  55.6231  56.0378  56.1068  56.1214  56.1214
    57.2557

          k = 0.0000 0.0000 0.3103 (  1807 PWs)   bands (ev):

   -65.2518 -65.2481 -27.3779 -27.3508 -27.2082 -27.2082 -27.1063 -27.1063
    -5.7365  -4.7623  -4.1204  -4.1204   6.1189   6.3020   7.5440   7.6452
     7.6452   9.1467  10.0637  10.5398  10.5398  11.0286  11.0286  12.3256
    14.9487  15.0766  15.4393  15.9962  15.9962  18.3406  19.7188  20.9521
    21.5635  21.5635  23.3740  26.0499  26.0499  28.4066  29.0457  29.1863
    29.2970  30.7767  31.6489  31.6489  32.1858  36.8027  36.9642  36.9642
    37.1018  37.1018  39.3284  41.2514  41.7459  41.9545  41.9545  42.0217
    42.6470  43.4270  43.8086  43.8086  47.2181  48.3992  48.3992  49.3089
    50.0201  50.0201  50.5432  50.6843  51.5104  52.9792  53.0602  53.0602
    54.1259  54.4397  54.4397  56.5513  57.4772  57.5361  58.4810  58.4810
    58.4913

          k = 0.0000 0.0000 0.6207 (  1784 PWs)   bands (ev):

   -65.2401 -65.2387 -27.6273 -27.6178 -27.1447 -27.1447 -27.0999 -27.0999
    -4.7207  -4.6366  -4.6366  -4.3043   7.1670   7.4308   7.7430   8.0351
     8.0351   8.4259   8.9456   9.6022   9.6022  10.8854  11.0972  11.0972
    15.4518  16.0301  16.6329  16.8916  16.8916  16.8944  20.5425  20.7150
    21.4809  21.4809  24.4831  26.7572  28.5752  28.5752  28.8254  29.1084
    29.1495  29.9210  30.3861  30.3861  30.7429  32.6115  36.7463  36.7463
    38.1974  38.1974  39.5300  40.1475  40.6628  41.0192  42.1003  42.2041
    42.2041  44.1890  44.1890  45.8010  47.8661  47.8661  47.9963  50.3147
    50.3147  50.5168  50.5168  50.6584  51.5937  52.3808  52.6323  54.3307
    54.4262  54.4262  55.5386  55.7087  56.7614  56.7614  58.9643  59.4226
    59.6187

          k = 0.0000 0.2000 0.0000 (  1791 PWs)   bands (ev):

   -65.2582 -65.2546 -27.2317 -27.2312 -27.2130 -27.1850 -27.1270 -27.1263
    -6.0923  -5.0982  -3.9781  -3.8891   5.7349   6.0000   7.3331   7.6834
     7.6935   9.5692   9.7039  10.5114  11.0925  11.3872  11.6257  12.3924
    14.6622  14.7900  15.6233  15.6930  15.7001  18.5664  19.3270  20.4993
    21.9817  22.0200  23.3193  24.1058  24.3966  27.9486  28.5946  28.7448
    30.2262  31.9898  32.5347  33.1042  34.9599  34.9832  35.0714  35.3000
    37.2328  38.1067  39.9578  40.7056  42.5687  42.5833  43.4325  44.0071
    44.3459  45.4073  45.6556  45.7554  46.7082  47.3451  47.6048  48.0564
    48.9293  48.9303  49.4829  50.0654  51.6895  52.6172  53.1783  53.4421
    53.4704  53.8651  54.1771  54.9378  54.9904  56.4026  56.4362  58.2804
    59.0012

          k = 0.0000 0.2000 0.3103 (  1793 PWs)   bands (ev):

   -65.2514 -65.2484 -27.3770 -27.3548 -27.1985 -27.1977 -27.1158 -27.1152
    -5.6005  -4.7206  -4.2845  -4.1900   6.3636   6.5520   7.4647   7.6229
     8.0940   8.9712   9.4444  10.3247  10.3536  10.9859  11.0226  12.1818
    14.9564  15.5071  15.7013  15.9547  16.3310  18.0778  19.9903  20.6036
    21.2879  22.1840  23.0712  25.6157  26.1253  28.4443  28.8365  28.9390
    29.5631  30.6218  31.0340  32.1489  33.2503  35.8054  36.5109  36.6459
    36.9994  37.8502  40.0607  40.7587  41.1014  41.1549  42.1226  42.6257
    43.5038  43.6389  44.4177  45.1878  47.9793  48.1884  48.5626  48.9432
    49.5496  50.3428  50.6056  50.8091  52.2721  52.3622  52.7459  52.9140
    53.1529  53.7213  54.8461  56.0180  56.4913  57.3387  58.4036  59.0355
    59.2663

          k = 0.0000 0.2000 0.6207 (  1777 PWs)   bands (ev):

   -65.2400 -65.2389 -27.6279 -27.6200 -27.1408 -27.1402 -27.1030 -27.1024
    -4.9460  -4.8265  -4.3527  -4.1316   7.0786   7.0997   7.4147   7.8105
     8.3877   8.6016   9.3643   9.7710   9.9397  10.8136  10.9040  11.2019
    14.9805  15.9972  16.2258  16.6613  17.1378  17.3781  20.1575  20.4134
    21.7094  22.2486  24.4086  26.2536  27.7583  28.1606  28.8064  28.8279
    29.9111  30.0415  30.0531  30.5903  32.3825  32.5298  36.3152  36.5258
    37.5803  38.1859  39.4128  39.8184  41.1965  41.2695  42.2538  42.6546
    43.6780  43.8873  43.9644  46.5475  47.9705  48.2117  48.6008  48.8760
    50.1246  50.1934  50.3107  51.6312  51.6331  52.3540  52.6436  53.7777
    53.8689  54.7512  55.3954  56.0062  57.2701  57.5470  57.6398  58.0264
    59.6034

          k = 0.0000 0.4000 0.0000 (  1784 PWs)   bands (ev):

   -65.2571 -65.2557 -27.2043 -27.2039 -27.2026 -27.1935 -27.1569 -27.1553
    -5.6613  -5.2044  -4.2453  -4.1280   6.5119   6.6091   7.7419   7.7539
     8.1929   8.7924   8.8986   9.5685  10.5236  10.8457  11.6088  11.9807
    15.1147  15.2021  16.0951  16.1613  16.6295  17.6681  20.5059  21.5808
    21.6230  21.8026  22.1561  23.3533  25.2376  26.7189  28.6050  28.9388
    29.7018  31.5338  32.6695  33.2417  33.3871  34.7115  36.0733  37.2241
    37.5289  39.1916  40.4624  41.2954  41.4556  42.4257  42.4425  42.5344
    44.7258  44.8427  45.7688  46.7127  47.4292  47.7977  47.8660  48.5995
    50.0243  50.2413  50.7265  51.0177  51.2548  51.9211  52.2425  52.3595
    53.1874  53.5460  53.6806  54.0782  54.6611  55.0010  57.9746  58.0813
    58.0950

          k = 0.0000 0.4000 0.3103 (  1788 PWs)   bands (ev):

   -65.2505 -65.2494 -27.3725 -27.3639 -27.1734 -27.1718 -27.1402 -27.1390
    -5.2340  -4.7780  -4.5153  -4.3577   6.9510   7.1524   7.4879   7.5623
     8.4139   8.6489   9.1636   9.6413   9.7635  10.4111  11.4838  11.8544
    15.3686  15.7191  16.1175  16.1967  16.9208  17.4706  20.1780  20.2564
    21.2575  22.2275  23.4051  24.6263  26.5887  27.5984  28.7730  29.0414
    29.9457  30.1601  30.9171  32.2769  34.1360  35.1741  36.3780  36.9135
    37.1008  38.4952  39.6819  39.9366  40.9990  41.0686  42.1768  42.1940
    43.9656  45.5804  45.7453  46.6760  47.2674  48.0872  48.5132  49.2735
    50.1202  50.3436  50.6797  50.7665  51.8679  51.9313  52.4562  52.7383
    53.6408  53.9184  54.5219  56.3942  56.3972  56.9521  57.3206  57.7165
    57.9758

          k = 0.0000 0.4000 0.6207 (  1786 PWs)   bands (ev):

   -65.2396 -65.2392 -27.6279 -27.6248 -27.1325 -27.1316 -27.1098 -27.1089
    -5.0712  -5.0250  -4.0895  -4.0033   6.7653   6.8586   7.3240   7.4003
     8.8013   9.1802   9.4037  10.1116  10.2769  10.4340  10.9456  11.5733
    14.4411  14.9727  16.5282  16.6772  17.4317  17.5181  19.8219  20.0233
    22.3566  22.8041  24.5509  25.3183  27.4585  27.6480  28.5407  28.5872
    29.3912  29.7088  30.9829  31.6402  32.5577  33.6608  35.4436  35.9707
    37.8943  38.3196  39.4475  39.6012  41.2263  41.2417  42.7884  43.0113
    43.9129  44.0720  46.5194  46.7327  46.9080  47.5051  48.7651  49.1578
    50.0687  50.1174  50.4795  51.2542  51.9542  51.9841  52.8294  54.2292
    54.6675  54.8506  55.9495  56.0976  56.3366  56.6614  57.6681  58.3014
    58.9959

          k = 0.2000 0.2000 0.0000 (  1800 PWs)   bands (ev):

   -65.2579 -65.2549 -27.2464 -27.2105 -27.2006 -27.1875 -27.1586 -27.1120
    -5.9803  -5.1046  -4.1920  -3.8248   5.5420   6.5948   7.5964   7.6287
     7.7570   8.8364   9.9651  10.4896  10.9228  11.3321  11.3564  12.2685
    14.3433  15.1653  15.3774  16.0858  16.1290  18.3391  19.3398  21.3536
    21.6021  22.2261  22.7272  24.3447  24.3718  27.6377  27.7678  29.2389
    29.5465  32.0260  32.4493  34.6787  35.1101  35.2513  35.4549  35.8075
    36.1777  37.7193  39.8709  40.0882  41.8922  42.8271  43.0317  43.2316
    44.5597  45.9131  46.0720  46.6986  46.9373  48.2314  48.3648  48.5596
    48.5876  49.2354  49.3015  51.2736  51.2983  51.7818  51.8583  52.9096
    53.2072  54.2070  54.2073  55.1378  55.9027  56.5814  57.0025  57.0783
    57.5659

          k = 0.2000 0.2000 0.3103 (  1793 PWs)   bands (ev):

   -65.2511 -65.2487 -27.3752 -27.3574 -27.2113 -27.1701 -27.1418 -27.1041
    -5.5012  -4.6887  -4.4684  -4.1585   6.1965   7.0535   7.3472   7.6690
     8.3283   8.6649   9.5897   9.7919  10.4339  10.9538  11.1931  11.9967
    15.0161  15.2402  15.8139  16.3638  16.4500  17.8649  20.0857  20.2872
    21.5169  22.6258  22.7710  25.6113  25.7910  27.9649  28.5649  28.7684
    29.6813  30.5440  32.0335  32.2680  33.3304  35.0951  36.2158  36.9291
    37.3215  38.2070  39.7775  40.4881  40.9010  41.2411  42.5282  42.9233
    43.3501  44.3721  45.4160  45.4643  47.5674  47.9484  48.5552  49.0977
    49.3213  50.1991  51.0486  51.2319  52.0945  52.3451  52.3711  52.9308
    53.0334  53.6267  54.1310  54.9721  57.1547  57.4385  58.1101  58.3899
    59.7898

          k = 0.2000 0.2000 0.6207 (  1790 PWs)   bands (ev):

   -65.2399 -65.2390 -27.6279 -27.6210 -27.1461 -27.1314 -27.1097 -27.0994
    -5.0593  -4.6673  -4.4900  -4.0214   6.8683   7.3278   7.3853   7.6148
     7.8889   9.2776   9.4264   9.8245  10.1127  10.4903  11.0495  11.4296
    14.7446  16.1960  16.2449  16.4750  16.7126  17.6625  19.8127  20.9030
    21.4377  22.5416  24.3803  26.1515  26.7616  27.9319  28.3967  28.5138
    29.0630  30.8029  30.9487  31.9214  32.0695  33.1469  35.8131  36.3373
    37.2813  38.0746  38.6529  40.9513  41.2527  42.4193  42.7018  43.2824
    43.4813  43.8966  44.4644  46.8202  47.5030  48.0315  48.6237  49.0689
    49.2506  50.0019  50.5586  50.9081  51.6799  52.5080  52.9341  53.5656
    53.5669  54.6979  55.7443  55.8113  56.2854  57.2447  58.1304  58.2085
    59.3649

          k = 0.2000 0.4000 0.0000 (  1786 PWs)   bands (ev):

   -65.2570 -65.2558 -27.2371 -27.2079 -27.2033 -27.1946 -27.1519 -27.1223
    -5.6783  -5.3039  -4.2131  -3.9802   5.8705   6.5699   7.6544   7.7341
     8.3518   8.8713   9.4807  10.1763  10.6429  11.0246  11.2178  11.7604
    14.7161  15.1593  15.6734  16.1373  16.8661  17.6952  20.1288  21.4495
    21.5969  21.9912  22.7031  23.8021  25.2092  26.5419  27.7315  28.2384
    30.0351  31.2611  33.6962  34.5926  34.7943  34.9950  35.9471  36.8179
    37.3607  38.1444  39.1239  40.2691  41.0163  41.4026  42.1439  43.3429
    44.7394  44.8282  46.6000  47.1933  47.8469  48.0718  49.0873  49.5832
    49.6792  50.3630  50.4803  51.0733  51.5124  51.8816  52.2077  52.3454
    53.2196  53.7567  54.0124  54.4314  54.7260  55.5449  56.0659  56.6155
    58.0479

          k = 0.2000 0.4000 0.3103 (  1789 PWs)   bands (ev):

   -65.2504 -65.2495 -27.3703 -27.3636 -27.2027 -27.1768 -27.1358 -27.1120
    -5.2362  -4.8914  -4.4548  -4.2693   6.4478   7.0629   7.3875   7.4784
     8.6474   8.9897   9.4009   9.8320  10.1326  10.5836  11.2157  11.5841
    15.3972  15.6001  15.7719  16.2700  16.8297  17.3413  20.2454  20.5770
    21.3001  21.9560  23.7632  24.7634  26.2149  27.1142  28.4389  28.6091
    29.9192  30.2843  31.9436  32.4834  33.9996  34.6146  36.3715  37.5032
    37.7360  38.5770  39.6134  39.7547  41.3232  41.4322  42.2729  42.7772
    43.8041  44.9910  45.6131  46.4388  47.3093  48.3676  48.6257  49.2251
    49.4993  50.5175  50.6158  50.9372  51.4663  51.9427  52.3097  52.4702
    53.8556  53.9637  54.9597  55.0341  55.5337  56.1818  57.1077  57.7433
    59.2386

          k = 0.2000 0.4000 0.6207 (  1788 PWs)   bands (ev):

   -65.2396 -65.2393 -27.6265 -27.6236 -27.1425 -27.1332 -27.1087 -27.1019
    -5.0524  -4.8838  -4.2392  -4.0324   6.7651   6.9530   7.3883   7.5832
     8.2006   8.9785   9.6084   9.8564  10.3543  10.7595  11.1554  11.6709
    14.6087  15.2693  16.4479  16.6268  16.9437  17.4670  19.9039  20.4611
    22.0127  22.5947  24.5707  25.2975  26.4557  27.0442  28.0916  28.4991
    29.2368  30.0625  31.7353  32.2578  33.0262  34.1695  35.1712  36.0196
    37.7858  38.3960  38.7783  40.1686  42.1183  42.4805  43.0419  43.3286
    44.4344  44.9243  45.9482  46.4439  46.9569  47.5237  48.6965  48.8592
    49.3680  49.5747  50.0046  50.8984  51.7479  52.4510  53.0361  53.0844
    53.7749  54.0430  55.0417  55.5892  56.1706  56.5710  57.5993  58.3956
    58.9215

          k = 0.4000 0.4000 0.0000 (  1798 PWs)   bands (ev):

   -65.2566 -65.2562 -27.2520 -27.2406 -27.2007 -27.1974 -27.1196 -27.1078
    -5.6508  -5.5088  -4.0186  -3.8937   5.5609   5.8762   7.5891   7.6337
     8.9820   9.5534   9.8928  10.4437  10.8618  10.9730  11.1831  11.5194
    14.3080  14.6998  15.4021  15.6867  17.3059  17.6138  20.1034  20.6154
    21.9842  22.2127  23.6536  24.1469  25.4001  26.0990  26.9934  27.2211
    30.7204  31.3727  34.9772  35.4846  35.7468  35.8362  36.5185  36.6294
    36.9036  36.9799  38.0798  39.2262  39.7814  41.4761  42.2251  43.5188
    43.9795  45.1691  45.4450  46.2105  47.8975  49.2123  49.4711  50.2497
    50.3064  50.4130  50.9867  51.9354  51.9598  52.4447  52.7766  53.2059
    53.2496  53.6313  54.2376  54.7356  54.8153  55.3688  55.4215  57.0101
    58.9310

          k = 0.4000 0.4000 0.3103 (  1785 PWs)   bands (ev):

   -65.2501 -65.2497 -27.3662 -27.3637 -27.2161 -27.2055 -27.1097 -27.1007
    -5.1982  -5.0760  -4.3052  -4.2183   6.1968   6.4501   7.2912   7.3656
     9.3127   9.5959   9.6938  10.2478  10.4888  10.6785  10.8040  11.0667
    15.2252  15.5720  15.6354  15.8995  16.8261  17.0439  20.7392  20.8196
    21.4347  21.4773  24.3732  24.8156  25.8201  26.3305  28.2987  28.3573
    29.8709  30.2704  31.6951  32.3134  34.4095  35.4669  36.5345  38.0435
    38.0627  38.5297  40.0295  40.5955  41.1412  42.0559  42.7489  43.2298
    43.9749  44.2245  45.2604  45.5817  47.0333  47.5492  48.6790  48.7136
    49.6253  49.7430  50.2978  50.9397  51.0523  52.0838  52.5795  52.8957
    53.5239  54.1413  54.9747  55.4799  55.5793  56.3599  57.9503  58.0760
    58.1229

          k = 0.4000 0.4000 0.6207 (  1776 PWs)   bands (ev):

   -65.2395 -65.2394 -27.6236 -27.6222 -27.1481 -27.1437 -27.1013 -27.0984
    -4.8939  -4.7157  -4.4134  -4.2152   6.8901   7.2056   7.3296   7.5972
     8.0174   8.4613   9.4990   9.6577  10.7261  10.9349  11.5221  11.7581
    15.1341  15.7824  16.2717  16.4210  16.4939  16.9350  20.4392  21.1500
    21.3386  22.0154  24.5617  24.8805  26.0570  26.5057  27.7164  28.0340
    29.0063  29.3329  32.7887  32.9125  34.0500  34.6699  35.4179  36.0002
    38.5805  38.7690  38.7736  40.1373  42.8792  42.9172  44.2186  44.5511
    44.8381  45.2835  45.8907  46.7228  47.3520  47.3877  48.0813  48.1909
    48.9942  49.2008  49.8225  49.9367  50.8451  50.9837  51.5757  53.0527
    53.1787  54.0760  54.3440  55.1395  55.4349  55.8695  56.7004  57.3741
    58.6099

 ------ SPIN DOWN ----------


          k = 0.0000 0.0000 0.0000 (  1819 PWs)   bands (ev):

   -65.1912 -65.1866 -27.1744 -27.1744 -27.1011 -27.0663 -27.0351 -27.0351
    -6.2327  -5.1007  -3.7611  -3.7611   5.4120   5.7567   7.0756   7.6981
     7.6981  10.0243  10.0243  10.6005  11.7261  11.9326  11.9326  12.5583
    14.4301  14.4560  15.3344  15.5342  15.5342  18.9593  19.0198  19.9190
    22.3011  22.3011  23.8781  24.2108  24.2108  28.1612  28.8135  29.0686
    31.4652  31.5560  32.2706  32.2706  34.6190  35.3751  36.0553  36.0553
    37.1449  37.1449  38.2362  42.2360  42.5496  42.5496  43.1127  43.6603
    44.9621  45.9916  45.9916  46.4595  46.6448  46.7576  46.7576  47.6673
    47.8152  48.7275  48.7275  49.0885  51.8259  53.9688  53.9688  54.1470
    54.8713  54.8713  54.9423  55.6435  56.0510  56.1555  56.1555  56.1756
    57.2784

          k = 0.0000 0.0000 0.3103 (  1807 PWs)   bands (ev):

   -65.1843 -65.1806 -27.2630 -27.2359 -27.1383 -27.1383 -27.0282 -27.0282
    -5.7138  -4.7401  -4.0998  -4.0998   6.1613   6.3384   7.5724   7.6874
     7.6874   9.1807  10.0994  10.5675  10.5675  11.0618  11.0618  12.3414
    15.0278  15.1685  15.5435  16.1329  16.1329  18.4049  19.7814  20.9931
    21.6309  21.6309  23.4333  26.0917  26.0917  28.4222  29.1198  29.2258
    29.3366  30.7965  31.6843  31.6843  32.2602  36.8306  37.0015  37.0015
    37.1681  37.1681  39.4003  41.2635  41.7902  41.9830  41.9830  42.0567
    42.7096  43.4712  43.8454  43.8454  47.2693  48.4369  48.4369  49.3272
    50.0426  50.0426  50.5877  50.7263  51.5498  53.0440  53.0996  53.0996
    54.1540  54.4763  54.4763  56.6006  57.5044  57.5689  58.5154  58.5404
    58.5404

          k = 0.0000 0.0000 0.6207 (  1784 PWs)   bands (ev):

   -65.1727 -65.1713 -27.5131 -27.5036 -27.0685 -27.0685 -27.0278 -27.0278
    -4.6992  -4.6146  -4.6146  -4.2830   7.1999   7.4655   7.7740   8.0877
     8.0877   8.4570   8.9726   9.6371   9.6371  10.9077  11.1245  11.1245
    15.5229  16.1419  16.7557  16.9600  17.0151  17.0151  20.6085  20.7720
    21.5396  21.5396  24.5265  26.7992  28.6192  28.6192  28.8990  29.1244
    29.2196  29.9378  30.4209  30.4209  30.7864  32.6584  36.7870  36.7870
    38.2339  38.2339  39.5771  40.1814  40.7019  41.0673  42.1495  42.2596
    42.2596  44.2546  44.2546  45.8337  47.8985  47.8985  48.0189  50.3428
    50.3428  50.5638  50.5638  50.6807  51.6658  52.4505  52.6555  54.3490
    54.4815  54.4815  55.5713  55.7512  56.8007  56.8007  59.0066  59.4498
    59.6634

          k = 0.0000 0.2000 0.0000 (  1791 PWs)   bands (ev):

   -65.1908 -65.1871 -27.1643 -27.1638 -27.0976 -27.0695 -27.0463 -27.0457
    -6.0692  -5.0753  -3.9584  -3.8695   5.7809   6.0395   7.3617   7.7272
     7.7372   9.5922   9.7259  10.5481  11.1164  11.4262  11.6446  12.4115
    14.7527  14.8707  15.7716  15.7917  15.8591  18.6308  19.3881  20.5432
    22.0466  22.0852  23.3759  24.1398  24.4344  27.9766  28.6291  28.8068
    30.2697  32.0142  32.5640  33.1572  34.9877  35.0707  35.1077  35.3451
    37.2780  38.1568  40.0094  40.7298  42.6051  42.6087  43.4925  44.0415
    44.3630  45.4341  45.6830  45.7962  46.7627  47.3739  47.6714  48.0845
    48.9491  48.9827  49.5181  50.0955  51.7365  52.6755  53.2180  53.4769
    53.4997  53.9100  54.2245  54.9628  55.0927  56.4685  56.4700  58.3273
    59.0422

          k = 0.0000 0.2000 0.3103 (  1793 PWs)   bands (ev):

   -65.1839 -65.1810 -27.2625 -27.2401 -27.1295 -27.1283 -27.0366 -27.0359
    -5.5780  -4.6984  -4.2638  -4.1693   6.4050   6.5882   7.5005   7.6640
     8.1281   9.0088   9.4842  10.3493  10.3787  11.0212  11.0590  12.2001
    15.0525  15.5959  15.7981  16.0930  16.4550  18.1455  20.0529  20.6597
    21.3500  22.2346  23.1285  25.6514  26.1673  28.4821  28.8750  28.9880
    29.6151  30.6441  31.0671  32.2209  33.2885  35.8627  36.5727  36.6814
    37.0368  37.8892  40.1239  40.8031  41.1329  41.1857  42.1697  42.6710
    43.5275  43.6803  44.4552  45.2201  48.0076  48.2340  48.5989  48.9834
    49.5831  50.3720  50.6448  50.8538  52.3058  52.4145  52.7944  52.9539
    53.1849  53.7570  54.8824  56.0683  56.5266  57.3727  58.4377  59.1091
    59.3156

          k = 0.0000 0.2000 0.6207 (  1777 PWs)   bands (ev):

   -65.1726 -65.1714 -27.5138 -27.5059 -27.0648 -27.0640 -27.0309 -27.0302
    -4.9240  -4.8045  -4.3311  -4.1103   7.1190   7.1439   7.4475   7.8481
     8.4239   8.6378   9.3905   9.8079   9.9730  10.8418  10.9345  11.2236
    15.0667  16.0915  16.3381  16.7830  17.2509  17.4753  20.2186  20.4817
    21.7641  22.3035  24.4484  26.2894  27.8012  28.2145  28.8385  28.8764
    29.9418  30.0862  30.1137  30.6289  32.4172  32.5794  36.3614  36.5698
    37.6261  38.2256  39.4472  39.8550  41.2403  41.3028  42.3016  42.7047
    43.7481  43.9515  44.0081  46.5787  48.0031  48.2399  48.6367  48.9046
    50.1662  50.2407  50.3398  51.6607  51.6863  52.3937  52.7088  53.8264
    53.9239  54.7872  55.4345  56.0488  57.3009  57.5830  57.6856  58.0662
    59.6420

          k = 0.0000 0.4000 0.0000 (  1784 PWs)   bands (ev):

   -65.1896 -65.1882 -27.1418 -27.1410 -27.0889 -27.0781 -27.0704 -27.0693
    -5.6382  -5.1814  -4.2253  -4.1079   6.5559   6.6497   7.7841   7.7958
     8.2216   8.8200   8.9257   9.5972  10.5690  10.8926  11.6274  11.9994
    15.1985  15.2830  16.2612  16.3260  16.6972  17.7335  20.5636  21.6404
    21.6830  21.8471  22.2057  23.3856  25.2809  26.7678  28.6387  28.9632
    29.7660  31.5910  32.6951  33.2681  33.4120  34.7464  36.1581  37.2549
    37.5995  39.2306  40.5137  41.3231  41.4794  42.4627  42.4849  42.5847
    44.7636  44.8679  45.7995  46.7587  47.4604  47.8238  47.8987  48.6512
    50.0516  50.2953  50.7539  51.0435  51.3004  51.9680  52.2847  52.4034
    53.2346  53.5963  53.7545  54.1085  54.6959  55.1004  58.0320  58.1152
    58.1244

          k = 0.0000 0.4000 0.3103 (  1788 PWs)   bands (ev):

   -65.1830 -65.1819 -27.2584 -27.2496 -27.1096 -27.1079 -27.0551 -27.0541
    -5.2117  -4.7559  -4.4941  -4.3366   6.9897   7.1877   7.5271   7.5995
     8.4513   8.6909   9.1988   9.6706   9.7956  10.4453  11.5134  11.8793
    15.4836  15.8418  16.2029  16.2951  17.0323  17.5539  20.2351  20.3189
    21.3089  22.2811  23.4473  24.6615  26.6341  27.6512  28.8106  29.0733
    29.9870  30.1890  30.9646  32.3373  34.2005  35.2430  36.4154  36.9437
    37.1363  38.5427  39.7228  39.9748  41.0362  41.1161  42.2058  42.2308
    44.0083  45.6066  45.7917  46.7150  47.3015  48.1321  48.5497  49.3153
    50.1625  50.3803  50.7206  50.8080  51.8972  51.9677  52.5030  52.7907
    53.6863  53.9551  54.5552  56.4340  56.4460  56.9891  57.3681  57.7730
    58.0094

          k = 0.0000 0.4000 0.6207 (  1786 PWs)   bands (ev):

   -65.1722 -65.1718 -27.5140 -27.5108 -27.0564 -27.0550 -27.0379 -27.0365
    -5.0491  -5.0029  -4.0683  -3.9822   6.8116   6.9064   7.3576   7.4323
     8.8309   9.2084   9.4323  10.1406  10.3100  10.4645  10.9785  11.5916
    14.5449  15.0712  16.6443  16.7965  17.5366  17.6180  19.8868  20.0915
    22.4078  22.8564  24.5843  25.3499  27.5042  27.6972  28.5764  28.6261
    29.4290  29.7520  31.0408  31.6912  32.6116  33.7040  35.4918  36.0162
    37.9455  38.3665  39.4869  39.6412  41.2629  41.2713  42.8160  43.0444
    43.9542  44.1321  46.5666  46.7822  46.9535  47.5380  48.8024  49.1992
    50.1103  50.1643  50.5198  51.2918  52.0047  52.0291  52.8754  54.2854
    54.7088  54.8886  55.9945  56.1406  56.3722  56.7127  57.6961  58.3443
    59.0171

          k = 0.2000 0.2000 0.0000 (  1800 PWs)   bands (ev):

   -65.1904 -65.1874 -27.1778 -27.1397 -27.0951 -27.0721 -27.0714 -27.0326
    -5.9571  -5.0816  -4.1719  -3.8054   5.5854   6.6372   7.6246   7.6733
     7.7990   8.8634   9.9872  10.5316  10.9416  11.3677  11.3788  12.2857
    14.4369  15.2468  15.5483  16.1539  16.2942  18.4032  19.3980  21.3980
    21.6621  22.2932  22.7847  24.3853  24.4006  27.6870  27.7941  29.2772
    29.6049  32.0713  32.4741  34.7071  35.1824  35.2727  35.5149  35.8506
    36.2216  37.7643  39.9166  40.1437  41.9191  42.8573  43.0730  43.2655
    44.5838  45.9489  46.1125  46.7315  46.9645  48.2987  48.4018  48.5926
    48.6391  49.2922  49.3149  51.3083  51.3284  51.8321  51.8988  52.9388
    53.2442  54.2338  54.3052  55.1831  55.9470  56.6589  57.0464  57.1213
    57.5984

          k = 0.2000 0.2000 0.3103 (  1793 PWs)   bands (ev):

   -65.1837 -65.1813 -27.2607 -27.2428 -27.1412 -27.1072 -27.0558 -27.0262
    -5.4786  -4.6664  -4.4474  -4.1380   6.2359   7.0903   7.3858   7.7079
     8.3603   8.7082   9.6234   9.8238  10.4641  10.9828  11.2234  12.0176
    15.1195  15.3394  15.9309  16.4859  16.5557  17.9346  20.1482  20.3406
    21.5817  22.6719  22.8260  25.6391  25.8357  28.0117  28.5958  28.8170
    29.7371  30.5731  32.1048  32.3002  33.3629  35.1646  36.2612  36.9629
    37.3551  38.2500  39.8345  40.5289  40.9351  41.2842  42.5704  42.9781
    43.3969  44.4029  45.4415  45.4910  47.6094  47.9844  48.5850  49.1388
    49.3589  50.2405  51.0919  51.2575  52.1301  52.3967  52.4068  52.9810
    53.0679  53.6703  54.1653  55.0169  57.1954  57.5002  58.1516  58.4211
    59.8492

          k = 0.2000 0.2000 0.6207 (  1790 PWs)   bands (ev):

   -65.1725 -65.1715 -27.5138 -27.5068 -27.0700 -27.0549 -27.0377 -27.0273
    -5.0373  -4.6453  -4.4684  -4.0002   6.9154   7.3604   7.4175   7.6642
     7.9215   9.3059   9.4543   9.8565  10.1412  10.5323  11.0763  11.4501
    14.8375  16.2679  16.3594  16.6024  16.8327  17.7671  19.8779  20.9655
    21.4958  22.5932  24.4166  26.1880  26.7830  27.9913  28.4254  28.5855
    29.1125  30.8542  30.9784  31.9760  32.0979  33.1933  35.8570  36.3800
    37.3290  38.1227  38.6867  40.9905  41.2866  42.4748  42.7306  43.3402
    43.5251  43.9563  44.5216  46.8534  47.5386  48.0586  48.6571  49.1032
    49.2828  50.0418  50.5930  50.9479  51.7238  52.5723  53.0019  53.5991
    53.6075  54.7348  55.7807  55.8631  56.3395  57.2872  58.1751  58.2376
    59.3956

          k = 0.2000 0.4000 0.0000 (  1786 PWs)   bands (ev):

   -65.1895 -65.1884 -27.1692 -27.1447 -27.0880 -27.0791 -27.0670 -27.0421
    -5.6552  -5.2808  -4.1930  -3.9606   5.9129   6.6121   7.6982   7.7762
     8.3793   8.8983   9.5085  10.2008  10.6874  11.0639  11.2391  11.7797
    14.8031  15.2417  15.8409  16.3028  16.9312  17.7592  20.1866  21.5079
    21.6566  22.0558  22.7391  23.8315  25.2529  26.5909  27.7662  28.2739
    30.0901  31.3108  33.7228  34.6197  34.8233  35.0338  36.0303  36.8518
    37.4279  38.1814  39.1564  40.3130  41.0463  41.4425  42.1854  43.3870
    44.7705  44.8564  46.6404  47.2291  47.8966  48.1038  49.1172  49.6334
    49.7089  50.4128  50.5186  51.1029  51.5435  51.9240  52.2383  52.4068
    53.2542  53.8396  54.0423  54.4734  54.8085  55.5829  56.0997  56.6581
    58.1004

          k = 0.2000 0.4000 0.3103 (  1789 PWs)   bands (ev):

   -65.1829 -65.1820 -27.2560 -27.2492 -27.1330 -27.1114 -27.0522 -27.0332
    -5.2138  -4.8691  -4.4337  -4.2487   6.4863   7.0997   7.4271   7.5172
     8.6878   9.0240   9.4361   9.8639  10.1618  10.6141  11.2451  11.6104
    15.5128  15.7063  15.8868  16.3755  16.9263  17.4197  20.3037  20.6377
    21.3556  22.0105  23.8027  24.7953  26.2587  27.1619  28.4765  28.6434
    29.9777  30.3276  31.9968  32.5277  34.0590  34.6588  36.4096  37.5409
    37.7696  38.6234  39.6565  39.7939  41.3689  41.4669  42.3173  42.8157
    43.8573  45.0380  45.6417  46.4787  47.3437  48.4025  48.6612  49.2630
    49.5355  50.5576  50.6537  50.9758  51.5019  51.9813  52.3458  52.5082
    53.9039  54.0047  55.0012  55.0819  55.5773  56.2337  57.1535  57.7793
    59.2810

          k = 0.2000 0.4000 0.6207 (  1788 PWs)   bands (ev):

   -65.1722 -65.1718 -27.5125 -27.5095 -27.0665 -27.0570 -27.0364 -27.0296
    -5.0303  -4.8618  -4.2178  -4.0112   6.8114   6.9958   7.4233   7.6163
     8.2362   9.0087   9.6365   9.8845  10.3843  10.7884  11.1877  11.6911
    14.7097  15.3641  16.5652  16.7458  17.0501  17.5723  19.9690  20.5254
    22.0665  22.6458  24.6007  25.3250  26.4883  27.0873  28.1442  28.5570
    29.2894  30.1092  31.7756  32.3012  33.0747  34.2125  35.2165  36.0638
    37.8297  38.4474  38.8249  40.2088  42.1577  42.5205  43.0721  43.3672
    44.4835  44.9666  45.9942  46.4783  47.0018  47.5607  48.7405  48.9006
    49.4073  49.6113  50.0398  50.9485  51.7919  52.4906  53.0924  53.1201
    53.8160  54.0989  55.0889  55.6446  56.2072  56.6105  57.6452  58.4210
    58.9493

          k = 0.4000 0.4000 0.0000 (  1798 PWs)   bands (ev):

   -65.1891 -65.1887 -27.1831 -27.1724 -27.0853 -27.0820 -27.0397 -27.0287
    -5.6275  -5.4855  -3.9991  -3.8744   5.6035   5.9185   7.6338   7.6775
     9.0078   9.5738   9.9239  10.4682  10.8820  11.0103  11.2149  11.5353
    14.4021  14.7866  15.5730  15.8543  17.3684  17.6761  20.1649  20.6769
    22.0486  22.2794  23.6791  24.1655  25.4539  26.1508  27.0318  27.2607
    30.7706  31.4210  35.0021  35.5376  35.7852  35.9180  36.5384  36.6690
    36.9268  37.0314  38.1242  39.2646  39.8077  41.5197  42.2672  43.5536
    44.0218  45.2050  45.4798  46.2470  47.9424  49.2537  49.5230  50.2960
    50.3427  50.4506  51.0040  51.9696  51.9856  52.5379  52.8150  53.2736
    53.3081  53.6690  54.2746  54.7689  54.8468  55.4039  55.4616  57.0429
    58.9825

          k = 0.4000 0.4000 0.3103 (  1785 PWs)   bands (ev):

   -65.1826 -65.1823 -27.2514 -27.2490 -27.1457 -27.1356 -27.0311 -27.0230
    -5.1755  -5.0534  -4.2846  -4.1979   6.2355   6.4883   7.3318   7.4058
     9.3512   9.6265   9.7294  10.2794  10.5169  10.7056  10.8344  11.0894
    15.3264  15.6693  15.7709  16.0466  16.8961  17.1129  20.8010  20.8790
    21.4949  21.5331  24.4035  24.8367  25.8745  26.3810  28.3351  28.3944
    29.9271  30.3167  31.7636  32.3781  34.4377  35.4964  36.5696  38.0720
    38.1090  38.5750  40.0680  40.6344  41.1812  42.0982  42.8064  43.2790
    44.0387  44.2709  45.2994  45.6076  47.0780  47.5807  48.7093  48.7395
    49.6668  49.7813  50.3474  50.9653  51.1018  52.1055  52.6103  52.9327
    53.5628  54.1867  55.0091  55.5414  55.6129  56.3988  57.9920  58.1170
    58.1698

          k = 0.4000 0.4000 0.6207 (  1776 PWs)   bands (ev):

   -65.1721 -65.1719 -27.5094 -27.5080 -27.0720 -27.0677 -27.0290 -27.0263
    -4.8718  -4.6938  -4.3918  -4.1938   6.9330   7.2366   7.3779   7.6319
     8.0526   8.4966   9.5276   9.6855  10.7534  10.9616  11.5521  11.7827
    15.2259  15.8496  16.4022  16.5442  16.6135  17.0473  20.5015  21.2106
    21.3946  22.0679  24.5827  24.8973  26.1059  26.5664  27.7423  28.0814
    29.0735  29.3931  32.8348  32.9672  34.0787  34.7027  35.4628  36.0443
    38.6177  38.8269  38.8344  40.1762  42.9157  42.9525  44.2618  44.5925
    44.8810  45.3412  45.9234  46.7565  47.3820  47.4257  48.1165  48.2265
    49.0292  49.2517  49.8573  49.9981  50.8925  51.0254  51.6317  53.0867
    53.2100  54.1088  54.3825  55.1762  55.4952  55.9332  56.7365  57.4185
    58.6522

     the Fermi energy is    16.2332 ev

!    total energy              =    -518.43189775 Ry
     Harris-Foulkes estimate   =    -518.43189780 Ry
     estimated scf accuracy    <       0.00000015 Ry

     The total energy is the sum of the following terms:

     one-electron contribution =    -111.97584130 Ry
     hartree contribution      =      88.81210987 Ry
     xc contribution           =    -142.99667025 Ry
     ewald contribution        =    -352.27128932 Ry
     smearing contrib. (-TS)   =      -0.00020675 Ry

     total magnetization       =     0.33 Bohr mag/cell
     absolute magnetization    =     0.33 Bohr mag/cell

     convergence has been achieved in  17 iterations

     Forces acting on atoms (Ry/au):


     negative rho (up, down):  0.271E-01 0.309E-01
     atom    1 type  1   force =     0.00000000    0.00000000    0.00000000
     atom    2 type  1   force =     0.00000000    0.00000000    0.00000000
     atom    3 type  2   force =    -0.06992020   -0.06992020    0.00000000
     atom    4 type  2   force =     0.06992020    0.06992020    0.00000000
     atom    5 type  2   force =    -0.06992020    0.06992020    0.00000000
     atom    6 type  2   force =     0.06992020   -0.06992020    0.00000000

     Total force =     0.197764     Total SCF correction =     0.000603


     entering subroutine stress ...


     negative rho (up, down):  0.271E-01 0.309E-01
          total   stress  (Ry/bohr**3)                   (kbar)     P=  281.32
   0.00189666   0.00000000   0.00000000        279.01      0.00      0.00
   0.00000000   0.00189666   0.00000000          0.00    279.01      0.00
   0.00000000   0.00000000   0.00194374          0.00      0.00    285.93

     Volume is kept fixed: isostatic pressure set to zero

     BFGS Geometry Optimization

     number of scf cycles    =   1
     number of bfgs steps    =   0

     enthalpy new            =    -518.4318977534 Ry

     new trust radius        =       0.0988820958 bohr
     new conv_thr            =       0.0000010000 Ry

     new unit-cell volume =    418.39674 a.u.^3 (    62.00000 Ang^3 )

CELL_PARAMETERS (alat=  8.65899730)
   0.999607862   0.000000000   0.000000000
   0.000000000   0.999607862   0.000000000
   0.000000000   0.000000000   0.644950165

ATOMIC_POSITIONS (crystal)
Re0      0.000000000   0.000000000   0.000000000    0   0   0
Re0      0.500000000   0.500000000   0.500000000    0   0   0
O1       0.296925139   0.296925139   0.000000000    1   1   0
O1      -0.296925139  -0.296925139   0.000000000    1   1   0
O1       0.796925139   0.203074861   0.500000000    1   1   0
O1       0.203074861   0.796925139   0.500000000    1   1   0


     Check: negative starting charge=(component1):   -0.057764
     NEW-OLD atomic charge density approx. for the potential
     NEW k-points:
        k(    1) = (   0.0000000   0.0000000   0.0000000), wk =   0.0080000
        k(    2) = (   0.0000000   0.0000000   0.3101015), wk =   0.0160000
        k(    3) = (   0.0000000   0.0000000   0.6202030), wk =   0.0160000
        k(    4) = (   0.0000000   0.2000785   0.0000000), wk =   0.0320000
        k(    5) = (   0.0000000   0.2000785   0.3101015), wk =   0.0640000
        k(    6) = (   0.0000000   0.2000785   0.6202030), wk =   0.0640000
        k(    7) = (   0.0000000   0.4001569   0.0000000), wk =   0.0320000
        k(    8) = (   0.0000000   0.4001569   0.3101015), wk =   0.0640000
        k(    9) = (   0.0000000   0.4001569   0.6202030), wk =   0.0640000
        k(   10) = (   0.2000785   0.2000785   0.0000000), wk =   0.0320000
        k(   11) = (   0.2000785   0.2000785   0.3101015), wk =   0.0640000
        k(   12) = (   0.2000785   0.2000785   0.6202030), wk =   0.0640000
        k(   13) = (   0.2000785   0.4001569   0.0000000), wk =   0.0640000
        k(   14) = (   0.2000785   0.4001569   0.3101015), wk =   0.1280000
        k(   15) = (   0.2000785   0.4001569   0.6202030), wk =   0.1280000
        k(   16) = (   0.4001569   0.4001569   0.0000000), wk =   0.0320000
        k(   17) = (   0.4001569   0.4001569   0.3101015), wk =   0.0640000
        k(   18) = (   0.4001569   0.4001569   0.6202030), wk =   0.0640000
        k(   19) = (   0.0000000   0.0000000   0.0000000), wk =   0.0080000
        k(   20) = (   0.0000000   0.0000000   0.3101015), wk =   0.0160000
        k(   21) = (   0.0000000   0.0000000   0.6202030), wk =   0.0160000
        k(   22) = (   0.0000000   0.2000785   0.0000000), wk =   0.0320000
        k(   23) = (   0.0000000   0.2000785   0.3101015), wk =   0.0640000
        k(   24) = (   0.0000000   0.2000785   0.6202030), wk =   0.0640000
        k(   25) = (   0.0000000   0.4001569   0.0000000), wk =   0.0320000
        k(   26) = (   0.0000000   0.4001569   0.3101015), wk =   0.0640000
        k(   27) = (   0.0000000   0.4001569   0.6202030), wk =   0.0640000
        k(   28) = (   0.2000785   0.2000785   0.0000000), wk =   0.0320000
        k(   29) = (   0.2000785   0.2000785   0.3101015), wk =   0.0640000
        k(   30) = (   0.2000785   0.2000785   0.6202030), wk =   0.0640000
        k(   31) = (   0.2000785   0.4001569   0.0000000), wk =   0.0640000
        k(   32) = (   0.2000785   0.4001569   0.3101015), wk =   0.1280000
        k(   33) = (   0.2000785   0.4001569   0.6202030), wk =   0.1280000
        k(   34) = (   0.4001569   0.4001569   0.0000000), wk =   0.0320000
        k(   35) = (   0.4001569   0.4001569   0.3101015), wk =   0.0640000
        k(   36) = (   0.4001569   0.4001569   0.6202030), wk =   0.0640000

     Check: negative/imaginary core charge=   -0.000004    0.000000
     Check: negative starting charge=(component1):   -0.057793

     negative rho (up, down):  0.271E-01 0.309E-01

     total cpu time spent up to now is      452.7 secs

     per-process dynamical memory:    70.2 Mb

     Self-consistent Calculation

     iteration #  1     ecut=    40.00 Ry     beta=0.70
     Davidson diagonalization with overlap
     ethr =  1.00E-06,  avg # of iterations =  5.1

     negative rho (up, down):  0.280E-01 0.307E-01

     total cpu time spent up to now is      501.9 secs

     total energy              =    -518.45761578 Ry
     Harris-Foulkes estimate   =    -518.46028387 Ry
     estimated scf accuracy    <       0.00546236 Ry

     total magnetization       =     0.19 Bohr mag/cell
     absolute magnetization    =     0.19 Bohr mag/cell

     iteration #  2     ecut=    40.00 Ry     beta=0.70
     Davidson diagonalization with overlap
     ethr =  1.01E-05,  avg # of iterations =  1.9

     negative rho (up, down):  0.280E-01 0.302E-01

     total cpu time spent up to now is      523.9 secs

     total energy              =    -518.45826207 Ry
     Harris-Foulkes estimate   =    -518.45912942 Ry
     estimated scf accuracy    <       0.00146594 Ry

     total magnetization       =     0.16 Bohr mag/cell
     absolute magnetization    =     0.16 Bohr mag/cell

     iteration #  3     ecut=    40.00 Ry     beta=0.70
     Davidson diagonalization with overlap
     ethr =  2.71E-06,  avg # of iterations =  1.2

     negative rho (up, down):  0.283E-01 0.302E-01

     total cpu time spent up to now is      544.7 secs

     total energy              =    -518.45870778 Ry
     Harris-Foulkes estimate   =    -518.45916352 Ry
     estimated scf accuracy    <       0.00121367 Ry

     total magnetization       =     0.13 Bohr mag/cell
     absolute magnetization    =     0.13 Bohr mag/cell

     iteration #  4     ecut=    40.00 Ry     beta=0.70
     Davidson diagonalization with overlap
     ethr =  2.25E-06,  avg # of iterations =  1.0

     negative rho (up, down):  0.285E-01 0.299E-01

     total cpu time spent up to now is      564.8 secs

     total energy              =    -518.45895168 Ry
     Harris-Foulkes estimate   =    -518.45892656 Ry
     estimated scf accuracy    <       0.00001636 Ry

     total magnetization       =     0.11 Bohr mag/cell
     absolute magnetization    =     0.11 Bohr mag/cell

     iteration #  5     ecut=    40.00 Ry     beta=0.70
     Davidson diagonalization with overlap
     ethr =  3.03E-08,  avg # of iterations =  1.9

     negative rho (up, down):  0.288E-01 0.296E-01

     total cpu time spent up to now is      586.7 secs

     total energy              =    -518.45897598 Ry
     Harris-Foulkes estimate   =    -518.45896334 Ry
     estimated scf accuracy    <       0.00000610 Ry

     total magnetization       =     0.08 Bohr mag/cell
     absolute magnetization    =     0.08 Bohr mag/cell

     iteration #  6     ecut=    40.00 Ry     beta=0.70
     Davidson diagonalization with overlap
     ethr =  1.13E-08,  avg # of iterations =  2.0

     negative rho (up, down):  0.291E-01 0.293E-01

     total cpu time spent up to now is      609.7 secs

     total energy              =    -518.45898123 Ry
     Harris-Foulkes estimate   =    -518.45898933 Ry
     estimated scf accuracy    <       0.00000235 Ry

     total magnetization       =     0.05 Bohr mag/cell
     absolute magnetization    =     0.05 Bohr mag/cell

     iteration #  7     ecut=    40.00 Ry     beta=0.70
     Davidson diagonalization with overlap
     ethr =  4.36E-09,  avg # of iterations =  2.0

     negative rho (up, down):  0.292E-01 0.293E-01

     total cpu time spent up to now is      633.7 secs

     End of self-consistent calculation

 ------ SPIN UP ------------


          k = 0.0000 0.0000 0.0000 (  1819 PWs)   bands (ev):

   -65.3177 -65.3132 -27.3244 -27.3244 -27.1882 -27.1882 -27.1726 -27.1369
    -6.1486  -4.9733  -3.7599  -3.7599   5.4301   5.7822   6.9736   7.9922
     7.9922  10.0748  10.0748  10.5797  11.7610  11.9623  11.9623  12.7574
    14.0179  14.1434  15.0240  15.4093  15.4093  19.0147  19.0422  19.8487
    21.6931  21.6931  24.0108  24.0108  24.1126  28.3725  28.5481  29.0015
    31.3411  31.4904  32.4709  32.4709  34.4692  35.7421  36.1541  36.1541
    37.0708  37.0708  37.9932  41.8887  42.5371  42.5371  43.2310  43.8498
    44.8540  46.3802  46.4644  46.4644  46.6093  46.8872  47.1050  47.1050
    47.8446  48.3731  48.3731  48.4792  51.4405  53.9848  53.9848  54.2273
    54.6424  54.6424  54.9167  55.6053  55.7981  56.0241  56.0241  56.2329
    57.3581

          k = 0.0000 0.0000 0.3101 (  1807 PWs)   bands (ev):

   -65.3112 -65.3076 -27.3211 -27.2970 -27.2970 -27.2932 -27.1758 -27.1758
    -5.6859  -4.6878  -4.0362  -4.0362   6.1662   6.3143   7.4616   7.8147
     7.8147   9.1967  10.1695  10.6912  10.6912  11.0383  11.0383  12.3546
    14.8444  14.9602  15.2949  15.9672  15.9672  18.4535  19.8409  21.1761
    21.1892  21.1892  23.4905  25.8684  25.8684  28.5783  28.8932  29.0439
    29.4575  30.6005  31.8914  31.8914  32.2036  36.8549  36.9907  36.9907
    37.2251  37.2251  39.1122  41.1247  41.4183  42.1408  42.1695  42.1695
    42.4273  43.5212  44.0597  44.0597  47.0870  48.3619  48.3619  49.3935
    49.8169  50.1570  50.1570  50.4545  51.6196  53.0026  53.0026  53.2704
    54.1393  54.4867  54.4867  56.7773  57.3181  57.8375  57.9998  57.9998
    58.2309

          k = 0.0000 0.0000 0.6202 (  1784 PWs)   bands (ev):

   -65.3003 -65.2989 -27.5507 -27.5409 -27.2530 -27.2530 -27.1553 -27.1553
    -4.7720  -4.4653  -4.4653  -4.3555   7.0971   7.3750   7.8675   8.0694
     8.0694   8.5548   8.8368   9.5758   9.5758  10.7562  11.2167  11.2167
    15.6908  16.1639  16.7469  16.8060  16.8060  17.1037  20.6907  21.1281
    21.1281  21.2562  24.2410  26.8469  28.6337  28.6337  28.9112  29.1185
    29.2596  29.7450  30.2054  30.6164  30.6164  32.1792  36.9738  36.9738
    38.3668  38.3668  39.5360  39.9978  40.5581  40.6862  42.1218  42.3661
    42.3661  44.0265  44.0265  45.5184  48.0080  48.3687  48.3687  49.9343
    49.9343  50.3014  50.3014  50.8630  51.5482  52.0114  52.7108  54.8103
    55.1753  55.1753  55.7232  55.7943  56.6391  56.6391  59.0997  59.3878
    59.3878

          k = 0.0000 0.2001 0.0000 (  1791 PWs)   bands (ev):

   -65.3173 -65.3136 -27.3135 -27.3130 -27.2000 -27.1995 -27.1691 -27.1403
    -5.9722  -4.9133  -4.0019  -3.8818   5.8304   6.0958   7.2705   8.0349
     8.0515   9.5673   9.6939  10.4861  11.1327  11.4021  11.7052  12.5799
    14.4583  14.4595  15.5220  15.7256  15.8175  18.5838  19.4567  20.4288
    21.3919  21.4437  23.6146  24.0792  24.3630  28.1528  28.4120  28.7573
    30.1162  31.9530  32.7183  33.1867  34.9565  34.9632  35.1077  35.6413
    37.3038  38.0548  40.0018  40.6196  42.5201  42.6786  43.7507  43.8090
    44.4127  45.4314  45.9203  45.9961  46.7149  47.3469  47.7482  48.2758
    48.5213  48.6500  49.1907  49.9623  51.1927  52.9063  53.0570  53.4554
    53.7177  53.8358  53.8739  55.1094  55.1537  56.3377  56.5040  58.1268
    59.1299

          k = 0.0000 0.2001 0.3101 (  1793 PWs)   bands (ev):

   -65.3109 -65.3079 -27.3270 -27.3053 -27.2813 -27.2807 -27.1841 -27.1827
    -5.5445  -4.6364  -4.2139  -4.1107   6.4054   6.5737   7.5132   7.7944
     8.1730   9.0253   9.5329  10.3048  10.3200  11.0901  11.2075  12.2892
    14.9107  15.2673  15.5353  15.9313  16.3627  18.1694  20.1433  20.5163
    20.8995  21.9561  23.3450  25.5705  26.0098  28.5602  28.6192  29.0160
    29.5454  30.4834  31.1952  32.2163  33.3678  35.7185  36.4343  36.8099
    37.0328  37.9547  39.9803  40.7422  41.0833  41.3147  42.0410  42.6390
    43.5346  43.8223  44.6979  45.1924  47.7089  48.0880  48.9216  49.0285
    49.3506  50.1038  50.6011  50.6235  52.2653  52.4611  52.5474  52.6108
    53.3983  53.8648  54.9194  56.1704  56.2623  57.2108  58.4303  59.1731
    59.2269

          k = 0.0000 0.2001 0.6202 (  1777 PWs)   bands (ev):

   -65.3001 -65.2990 -27.5523 -27.5441 -27.2497 -27.2493 -27.1567 -27.1563
    -4.9255  -4.7500  -4.2498  -4.0840   7.0240   7.1661   7.2823   7.7983
     8.4322   8.6744   9.3603   9.7314  10.0215  10.8924  11.0608  11.1471
    15.1347  16.0227  16.3327  16.7464  17.1301  17.4329  20.1854  20.4016
    21.5685  22.3870  24.2486  26.4131  27.7913  28.2814  28.7467  28.8438
    29.5698  30.0502  30.1146  30.5642  32.3660  32.4016  36.3878  36.6197
    37.6355  38.2745  39.3155  39.7814  41.0575  41.2702  42.5017  42.7110
    43.6789  43.7508  44.0367  46.2697  48.2011  48.2971  48.6630  49.1011
    49.7567  49.8496  50.2977  51.3957  51.6021  52.4468  52.5683  54.2100
    54.3255  54.9665  55.6673  56.1562  57.3474  57.4208  57.7540  58.0062
    59.6546

          k = 0.0000 0.4002 0.0000 (  1784 PWs)   bands (ev):

   -65.3162 -65.3148 -27.2882 -27.2872 -27.2273 -27.2260 -27.1602 -27.1491
    -5.4949  -4.9523  -4.3544  -4.1636   6.7210   6.8269   8.1227   8.1431
     8.1573   8.6200   8.7298   9.5765  10.4477  10.7873  11.7481  12.1469
    14.8672  14.9063  16.3174  16.4076  16.5191  17.6158  20.5377  20.8958
    20.9564  21.3639  22.8632  23.5830  25.3144  26.8704  28.4699  28.9246
    29.5289  31.4715  32.7586  33.2329  33.3814  34.8352  36.1357  37.2588
    37.6367  39.1698  40.3209  41.2467  41.4741  42.3848  42.7816  42.9334
    44.7255  45.1733  45.7594  46.5850  47.5689  47.9302  47.9907  48.1845
    49.5482  49.8337  50.9240  51.2027  51.3472  51.5773  52.1016  52.6310
    53.2103  53.3468  53.7731  54.2273  54.5416  55.1277  58.0046  58.0842
    58.0932

          k = 0.0000 0.4002 0.3101 (  1788 PWs)   bands (ev):

   -65.3100 -65.3088 -27.3268 -27.3173 -27.2608 -27.2575 -27.2013 -27.1991
    -5.1613  -4.6574  -4.4896  -4.2917   6.9864   7.1788   7.6901   7.7354
     8.4644   8.6699   9.1274   9.6029   9.7499  10.4770  11.6714  12.0239
    15.2811  15.5407  15.9760  16.1426  17.0009  17.5374  19.9326  20.0696
    21.1943  22.1241  23.6468  24.7184  26.6158  27.7040  28.6104  29.0432
    29.9764  30.1582  30.8047  32.2418  34.0666  35.1073  36.4077  37.0452
    37.0670  38.6203  39.5541  39.8955  41.1615  41.2175  42.2501  42.3243
    44.0287  45.6915  45.9404  46.7255  47.2407  47.8652  48.5903  49.2902
    49.5956  50.2498  50.8476  50.9700  51.7276  51.9405  52.3980  52.3990
    53.8090  53.8132  54.6639  56.1692  56.3482  56.7631  57.3174  58.0069
    58.1296

          k = 0.0000 0.4002 0.6202 (  1786 PWs)   bands (ev):

   -65.2998 -65.2994 -27.5538 -27.5505 -27.2442 -27.2438 -27.1588 -27.1584
    -5.0368  -4.9772  -3.9946  -3.9211   6.8159   6.8995   7.1226   7.2021
     8.8811   9.3293   9.3783  10.1517  10.4241  10.4636  11.1205  11.6258
    14.4760  14.9605  16.6231  16.7580  17.4492  17.5352  19.7146  19.9013
    22.4121  22.9532  24.6147  25.5046  27.4931  27.7044  28.4307  28.4631
    29.2527  29.7947  30.9408  31.3691  32.6627  33.6205  35.4992  36.0223
    37.9472  38.2504  39.3882  39.4721  41.1938  41.3279  43.0823  43.0896
    43.9334  44.1054  46.3541  46.7675  46.9609  47.2951  48.7389  49.1488
    49.5354  49.9469  50.6081  51.5535  51.8618  52.4728  52.8287  54.5555
    54.5643  55.1621  55.8516  56.0733  56.3771  56.5004  57.6111  58.4431
    59.1669

          k = 0.2001 0.2001 0.0000 (  1800 PWs)   bands (ev):

   -65.3169 -65.3140 -27.3279 -27.2855 -27.2286 -27.1855 -27.1665 -27.1429
    -5.8540  -4.8756  -4.2793  -3.8066   5.6022   6.8161   7.5455   7.9638
     8.1446   8.6627  10.0193  10.4295  11.0158  11.3608  11.4041  12.3883
    14.0883  14.8825  15.4297  15.9543  16.3628  18.3461  19.4224  20.9269
    21.2140  21.6830  23.0775  24.3058  24.5294  27.6347  27.9364  29.1592
    29.3525  32.1704  32.4166  34.7350  35.1764  35.1786  35.6857  35.7078
    36.3445  37.6847  39.9178  40.1503  41.9425  42.7354  43.0431  43.3947
    44.6840  46.2268  46.2728  46.6418  46.6430  48.0850  48.5654  48.5990
    48.7957  48.8165  49.3069  50.7689  51.2476  51.7773  51.7972  53.0690
    53.3965  54.3046  54.4309  54.6192  55.8243  56.6401  57.0600  57.2312
    57.7641

          k = 0.2001 0.2001 0.3101 (  1793 PWs)   bands (ev):

   -65.3106 -65.3082 -27.3253 -27.3042 -27.2998 -27.2575 -27.2012 -27.1739
    -5.4415  -4.5751  -4.4342  -4.0769   6.2223   7.0922   7.4483   7.8824
     8.3331   8.6935   9.5966   9.8413  10.5570  10.8880  11.3576  12.1517
    14.9369  15.0548  15.6039  16.3922  16.4837  17.9443  19.9813  20.3012
    21.1451  22.3241  23.2174  25.5601  25.8251  27.9058  28.5843  28.7875
    29.5754  30.5867  32.1484  32.3044  33.2923  34.9532  36.2178  37.0782
    37.3728  38.2551  39.6062  40.6003  40.9129  41.2100  42.6512  42.9071
    43.6732  44.3309  45.4799  45.6058  47.5160  47.6804  48.8198  49.0338
    49.3518  50.1855  50.5602  51.4395  51.8244  52.3250  52.3272  52.9168
    53.1919  53.5555  54.3625  54.8579  57.0173  57.3726  58.2465  58.3656
    59.6105

          k = 0.2001 0.2001 0.6202 (  1790 PWs)   bands (ev):

   -65.3000 -65.2991 -27.5530 -27.5449 -27.2540 -27.2437 -27.1587 -27.1553
    -5.0264  -4.5241  -4.4985  -3.9397   6.9237   7.1282   7.3520   7.6304
     7.9361   9.3645   9.4876   9.7576  10.0760  10.7805  11.0918  11.3881
    14.8864  16.2260  16.3684  16.4010  16.8443  17.6976  19.7120  21.0896
    21.2497  22.6468  24.2839  26.2970  26.8003  27.8336  28.4991  28.5704
    28.9889  30.5493  30.8795  31.9245  32.1485  33.1113  35.8371  36.2834
    37.3107  38.1212  38.7077  40.7339  41.2937  42.4053  43.0744  43.1468
    43.5558  43.8363  44.5520  46.5229  47.6582  47.9437  48.7470  49.1214
    49.2375  49.7122  50.3825  51.1563  51.3441  52.3274  53.0034  53.5899
    54.2126  55.0511  55.8671  56.1262  56.3165  57.2636  58.0012  58.2455
    59.1091

          k = 0.2001 0.4002 0.0000 (  1786 PWs)   bands (ev):

   -65.3160 -65.3149 -27.3187 -27.2915 -27.2232 -27.1956 -27.1592 -27.1502
    -5.5288  -5.0953  -4.2847  -3.9852   5.9557   6.7725   8.0028   8.1160
     8.3231   8.7552   9.4493  10.1819  10.5819  11.0186  11.3064  11.8566
    14.4615  14.8866  15.7936  16.3755  16.7893  17.6627  20.1713  20.9188
    21.3291  21.4051  23.0685  23.9784  25.3480  26.6316  27.7665  28.2037
    29.8381  31.2179  33.6892  34.6211  34.8090  35.1289  36.0132  36.7332
    37.4438  38.0896  39.1023  40.3852  40.8955  41.6237  42.1473  43.3347
    44.7483  45.2082  46.9063  47.1229  47.9699  47.9933  49.0316  49.2883
    49.6214  49.9628  50.4966  51.3580  51.4914  51.9512  52.0480  52.4255
    53.3031  53.9022  53.9413  54.3437  54.9000  55.4412  56.0120  56.5331
    58.0393

          k = 0.2001 0.4002 0.3101 (  1789 PWs)   bands (ev):

   -65.3098 -65.3089 -27.3233 -27.3161 -27.2845 -27.2605 -27.1983 -27.1806
    -5.1660  -4.7995  -4.4028  -4.1960   6.4711   7.0828   7.5402   7.6954
     8.6587   9.0094   9.4269   9.8384  10.1237  10.5779  11.3903  11.7644
    15.2618  15.4905  15.5833  16.2593  16.8936  17.4020  19.9924  20.5825
    21.0721  21.9394  23.9051  24.8381  26.2771  27.1353  28.3946  28.5988
    29.8566  30.3953  31.9879  32.3908  33.9392  34.5935  36.2395  37.4125
    37.8493  38.6431  39.5070  39.7088  41.3320  41.5790  42.3814  43.0383
    43.9222  45.1392  45.6213  46.4766  47.4173  48.2291  48.4085  48.9509
    49.7377  50.3624  50.5405  51.2862  51.4298  51.8384  52.4435  52.5386
    53.6167  53.9106  54.6067  55.2210  55.3147  56.1419  57.1076  57.9028
    59.2358

          k = 0.2001 0.4002 0.6202 (  1788 PWs)   bands (ev):

   -65.2998 -65.2994 -27.5520 -27.5482 -27.2509 -27.2445 -27.1586 -27.1564
    -5.0090  -4.8186  -4.1778  -3.9500   6.8119   6.9440   7.2109   7.4775
     8.2744   9.0729   9.6729   9.9281  10.3320  10.7645  11.3397  11.7387
    14.6735  15.2680  16.5538  16.6826  16.9763  17.4754  19.7835  20.4035
    22.0960  22.7057  24.6126  25.4093  26.4355  26.9457  28.1636  28.5615
    29.2062  29.8946  31.7413  32.2778  32.9883  34.0971  35.1511  35.9971
    37.6645  38.4677  38.9282  39.9753  42.1829  42.5204  43.2069  43.4047
    44.4284  44.9886  45.8249  46.3191  46.9542  47.4145  48.5220  48.8280
    49.2141  49.3209  50.1820  51.4763  51.6952  52.3682  52.8674  53.3003
    53.7850  54.2860  55.1309  55.6533  56.0782  56.6959  57.5343  58.1915
    58.8941

          k = 0.4002 0.4002 0.0000 (  1798 PWs)   bands (ev):

   -65.3157 -65.3152 -27.3334 -27.3221 -27.1930 -27.1814 -27.1564 -27.1530
    -5.5147  -5.3562  -4.0276  -3.8792   5.6086   5.9530   7.9183   7.9786
     9.0094   9.6556   9.9080  10.5478  10.7845  10.9740  11.2211  11.4557
    14.0522  14.4417  15.4643  15.8123  17.2742  17.5971  20.1698  20.6706
    21.3958  21.6664  23.8225  24.2239  25.6128  26.1776  27.0239  27.1969
    30.6351  31.4073  34.9779  35.5126  35.6143  35.9307  36.4744  36.5204
    36.9715  37.0309  38.1235  39.3204  39.6587  41.3954  42.2793  43.5209
    43.5567  45.2247  45.9970  46.4046  48.2932  49.2320  49.6368  49.8952
    50.5592  50.8009  51.0013  51.8346  52.0417  52.1898  52.3696  53.2320
    53.3582  53.4146  54.3829  54.5151  54.8373  55.1226  55.6538  57.2470
    58.8552

          k = 0.4002 0.4002 0.3101 (  1785 PWs)   bands (ev):

   -65.3096 -65.3092 -27.3170 -27.3079 -27.3042 -27.2852 -27.1787 -27.1709
    -5.1293  -5.0015  -4.2347  -4.1407   6.2119   6.4678   7.4454   7.5398
     9.3717   9.6110   9.7683  10.2497  10.4410  10.7542  10.8710  11.2199
    15.0496  15.3701  15.5907  15.9045  16.8809  17.0966  20.6159  20.9596
    21.0693  21.4300  24.4378  24.8493  25.9045  26.3509  28.1983  28.2831
    29.9838  30.5147  31.8124  32.3817  34.2454  35.3304  36.3532  37.7840
    37.9799  38.3602  40.1114  40.7551  41.0827  42.0407  42.8799  43.5530
    44.1617  44.4434  45.3247  45.4448  47.0787  47.3430  48.7734  48.9135
    49.4374  49.8822  50.1858  51.3297  51.7603  51.9971  52.3603  52.6233
    53.2573  53.4038  54.6047  55.4237  55.7776  56.4144  58.0124  58.0477
    58.4362

          k = 0.4002 0.4002 0.6202 (  1776 PWs)   bands (ev):

   -65.2996 -65.2995 -27.5477 -27.5457 -27.2554 -27.2515 -27.1563 -27.1550
    -4.8216  -4.5508  -4.4586  -4.1657   6.9050   7.1587   7.3524   7.5255
     8.0629   8.5718   9.4623   9.7031  10.6335  10.8662  11.7084  11.8831
    15.2137  15.9670  16.1139  16.5206  16.6115  16.9215  20.3658  21.0018
    21.5679  22.1202  24.5870  24.9002  25.9242  26.1979  27.9530  28.1429
    29.1065  29.3658  32.9622  33.0954  33.7585  34.4511  35.2554  35.8384
    38.3059  39.1906  39.2038  39.7603  43.0346  43.0700  44.1664  44.3950
    44.7001  45.4424  45.7221  46.3803  47.3347  47.4664  48.0942  48.2032
    48.8180  49.1135  49.8010  50.2186  51.0416  51.2189  51.4553  52.6711
    53.0434  54.1769  54.4677  54.9655  55.7090  56.1146  56.7023  57.4762
    58.6387

 ------ SPIN DOWN ----------


          k = 0.0000 0.0000 0.0000 (  1819 PWs)   bands (ev):

   -65.3151 -65.3106 -27.3215 -27.3215 -27.1863 -27.1863 -27.1672 -27.1315
    -6.1470  -4.9718  -3.7584  -3.7584   5.4328   5.7838   6.9748   7.9944
     7.9944  10.0763  10.0763  10.5814  11.7629  11.9640  11.9640  12.7597
    14.0199  14.1469  15.0245  15.4186  15.4186  19.0159  19.0447  19.8512
    21.6966  21.6966  24.0123  24.0123  24.1146  28.3735  28.5498  29.0048
    31.3422  31.4911  32.4722  32.4722  34.4741  35.7448  36.1561  36.1561
    37.0717  37.0717  37.9929  41.8892  42.5385  42.5385  43.2316  43.8523
    44.8551  46.3861  46.4658  46.4658  46.6118  46.8899  47.1052  47.1052
    47.8461  48.3753  48.3753  48.4799  51.4425  53.9867  53.9867  54.2302
    54.6435  54.6435  54.9214  55.6063  55.7987  56.0255  56.0255  56.2354
    57.3583

          k = 0.0000 0.0000 0.3101 (  1807 PWs)   bands (ev):

   -65.3086 -65.3050 -27.3157 -27.2939 -27.2939 -27.2878 -27.1741 -27.1741
    -5.6843  -4.6862  -4.0346  -4.0346   6.1686   6.3159   7.4628   7.8169
     7.8169   9.1981  10.1709  10.6928  10.6928  11.0409  11.0409  12.3568
    14.8470  14.9608  15.2991  15.9750  15.9750  18.4546  19.8435  21.1783
    21.1925  21.1925  23.4927  25.8700  25.8700  28.5792  28.8950  29.0474
    29.4594  30.6012  31.8918  31.8918  32.2080  36.8561  36.9929  36.9929
    37.2268  37.2268  39.1161  41.1246  41.4200  42.1420  42.1709  42.1709
    42.4296  43.5240  44.0611  44.0611  47.0888  48.3638  48.3638  49.3940
    49.8191  50.1574  50.1574  50.4568  51.6217  53.0046  53.0046  53.2729
    54.1398  54.4877  54.4877  56.7798  57.3190  57.8382  58.0020  58.0020
    58.2320

          k = 0.0000 0.0000 0.6202 (  1784 PWs)   bands (ev):

   -65.2977 -65.2963 -27.5454 -27.5355 -27.2493 -27.2493 -27.1542 -27.1542
    -4.7704  -4.4637  -4.4637  -4.3539   7.0987   7.3767   7.8688   8.0725
     8.0725   8.5559   8.8382   9.5779   9.5779  10.7579  11.2187  11.2187
    15.6917  16.1675  16.7514  16.8137  16.8137  17.1048  20.6937  21.1307
    21.1307  21.2590  24.2431  26.8493  28.6349  28.6349  28.9147  29.1193
    29.2624  29.7457  30.2088  30.6163  30.6163  32.1820  36.9757  36.9757
    38.3683  38.3683  39.5382  39.9992  40.5596  40.6882  42.1240  42.3685
    42.3685  44.0298  44.0298  45.5191  48.0083  48.3700  48.3700  49.9371
    49.9371  50.3026  50.3026  50.8634  51.5513  52.0150  52.7109  54.8108
    55.1777  55.1777  55.7241  55.7964  56.6403  56.6403  59.1016  59.3895
    59.6958

          k = 0.0000 0.2001 0.0000 (  1791 PWs)   bands (ev):

   -65.3147 -65.3110 -27.3105 -27.3100 -27.1982 -27.1977 -27.1637 -27.1349
    -5.9706  -4.9117  -4.0004  -3.8802   5.8330   6.0974   7.2717   8.0370
     8.0536   9.5689   9.6952  10.4883  11.1345  11.4045  11.7072  12.5822
    14.4613  14.4614  15.5228  15.7348  15.8265  18.5849  19.4592  20.4312
    21.3952  21.4470  23.6167  24.0807  24.3645  28.1545  28.4138  28.7597
    30.1184  31.9538  32.7186  33.1890  34.9614  34.9634  35.1083  35.6438
    37.3052  38.0562  40.0041  40.6198  42.5206  42.6801  43.7519  43.8118
    44.4136  45.4324  45.9223  45.9974  46.7178  47.3495  47.7489  48.2767
    48.5224  48.6531  49.1927  49.9639  51.1949  52.9088  53.0585  53.4571
    53.7188  53.8376  53.8756  55.1139  55.1544  56.3387  56.5066  58.1288
    59.1312

          k = 0.0000 0.2001 0.3101 (  1793 PWs)   bands (ev):

   -65.3083 -65.3053 -27.3221 -27.3005 -27.2775 -27.2771 -27.1826 -27.1811
    -5.5429  -4.6348  -4.2123  -4.1092   6.4077   6.5753   7.5148   7.7966
     8.1748   9.0271   9.5350  10.3063  10.3215  11.0922  11.2101  12.2915
    14.9135  15.2699  15.5389  15.9392  16.3689  18.1708  20.1461  20.5192
    20.9024  21.9585  23.3472  25.5720  26.0113  28.5623  28.6210  29.0177
    29.5483  30.4840  31.1957  32.2205  33.3688  35.7209  36.4378  36.8109
    37.0339  37.9557  39.9833  40.7443  41.0844  41.3158  42.0429  42.6411
    43.5355  43.8241  44.6993  45.1942  47.7101  48.0895  48.9234  49.0299
    49.3522  50.1055  50.6024  50.6250  52.2676  52.4627  52.5495  52.6123
    53.3995  53.8662  54.9206  56.1725  56.2639  57.2117  58.4319  59.1747
    59.2305

          k = 0.0000 0.2001 0.6202 (  1777 PWs)   bands (ev):

   -65.2975 -65.2964 -27.5470 -27.5388 -27.2460 -27.2455 -27.1557 -27.1552
    -4.9239  -4.7484  -4.2482  -4.0824   7.0259   7.1682   7.2840   7.8003
     8.4340   8.6762   9.3618   9.7335  10.0232  10.8942  11.0630  11.1492
    15.1374  16.0276  16.3364  16.7508  17.1360  17.4366  20.1881  20.4047
    21.5710  22.3895  24.2506  26.4149  27.7932  28.2832  28.7475  28.8462
    29.5717  30.0532  30.1155  30.5657  32.3685  32.4022  36.3900  36.6216
    37.6375  38.2763  39.3167  39.7831  41.0594  41.2714  42.5033  42.7132
    43.6826  43.7525  44.0403  46.2707  48.2016  48.2986  48.6641  49.1029
    49.7589  49.8515  50.2986  51.3967  51.6048  52.4499  52.5692  54.2126
    54.3270  54.9687  55.6684  56.1581  57.3489  57.4217  57.7557  58.0079
    59.6562

          k = 0.0000 0.4002 0.0000 (  1784 PWs)   bands (ev):

   -65.3135 -65.3122 -27.2847 -27.2836 -27.2260 -27.2247 -27.1548 -27.1437
    -5.4933  -4.9508  -4.3529  -4.1621   6.7234   6.8287   8.1246   8.1451
     8.1588   8.6216   8.7311   9.5782  10.4505  10.7902  11.7502  12.1491
    14.8697  14.9084  16.3265  16.4166  16.5201  17.6169  20.5400  20.8986
    20.9593  21.3662  22.8651  23.5846  25.3162  26.8727  28.4719  28.9259
    29.5319  31.4740  32.7586  33.2339  33.3814  34.8368  36.1404  37.2593
    37.6405  39.1705  40.3228  41.2471  41.4746  42.3860  42.7835  42.9357
    44.7269  45.1743  45.7607  46.5870  47.5702  47.9313  47.9917  48.1871
    49.5493  49.8365  50.9254  51.2041  51.3492  51.5793  52.1034  52.6325
    53.2124  53.3486  53.7769  54.2285  54.5430  55.1324  58.0070  58.0852
    58.0941

          k = 0.0000 0.4002 0.3101 (  1788 PWs)   bands (ev):

   -65.3074 -65.3062 -27.3218 -27.3123 -27.2570 -27.2534 -27.2002 -27.1977
    -5.1597  -4.6558  -4.4880  -4.2901   6.9884   7.1803   7.6922   7.7373
     8.4663   8.6723   9.1291   9.6045   9.7516  10.4787  11.6738  12.0263
    15.2861  15.5456  15.9787  16.1475  17.0060  17.5399  19.9352  20.0724
    21.1965  22.1264  23.6488  24.7201  26.6175  27.7062  28.6122  29.0447
    29.9782  30.1591  30.8064  32.2449  34.0700  35.1111  36.4085  37.0461
    37.0681  38.6218  39.5556  39.8967  41.1636  41.2191  42.2510  42.3256
    44.0304  45.6933  45.9415  46.7274  47.2425  47.8670  48.5919  49.2917
    49.5971  50.2511  50.8493  50.9719  51.7289  51.9430  52.3993  52.4019
    53.8107  53.8146  54.6653  56.1704  56.3500  56.7643  57.3193  58.0099
    58.1311

          k = 0.0000 0.4002 0.6202 (  1786 PWs)   bands (ev):

   -65.2972 -65.2968 -27.5485 -27.5452 -27.2404 -27.2399 -27.1579 -27.1575
    -5.0352  -4.9756  -3.9930  -3.9195   6.8182   6.9020   7.1244   7.2036
     8.8828   9.3310   9.3798  10.1533  10.4259  10.4651  11.1232  11.6279
    14.4801  14.9650  16.6269  16.7621  17.4542  17.5396  19.7174  19.9044
    22.4144  22.9555  24.6166  25.5061  27.4952  27.7062  28.4327  28.4651
    29.2539  29.7958  30.9435  31.3711  32.6657  33.6224  35.5011  36.0240
    37.9495  38.2523  39.3893  39.4733  41.1957  41.3291  43.0834  43.0906
    43.9354  44.1084  46.3565  46.7693  46.9628  47.2967  48.7403  49.1504
    49.5373  49.9492  50.6093  51.5555  51.8633  52.4743  52.8309  54.5578
    54.5661  55.1638  55.8537  56.0754  56.3790  56.5017  57.6124  58.4447
    59.1677

          k = 0.2001 0.2001 0.0000 (  1800 PWs)   bands (ev):

   -65.3143 -65.3114 -27.3251 -27.2820 -27.2274 -27.1835 -27.1611 -27.1375
    -5.8524  -4.8740  -4.2777  -3.8051   5.6044   6.8182   7.5468   7.9660
     8.1465   8.6641  10.0208  10.4321  11.0178  11.3629  11.4055  12.3905
    14.0913  14.8848  15.4389  15.9552  16.3719  18.3472  19.4247  20.9298
[...]
    -4.6726  -4.4277  -4.2311  -3.9511   6.6831   7.1311   7.2245   7.5882
     7.7288   8.4438   8.5740   9.4085  10.5424  10.7480  11.6714  11.8929
    14.5707  14.8449  15.8454  16.2582  17.8449  17.9534  19.8505  20.8822
    21.2195  22.0268  24.7310  25.2348  25.3671  25.5351  29.3692  29.3899
    30.6248  30.7848  31.8973  32.2359  33.8191  34.4765  34.9721  35.6364
    38.1938  38.4824  39.3145  39.5012  41.8640  42.3013  43.3783  43.8556
    44.0124  44.3208  45.8828  46.6428  46.9790  47.3839  47.8862  48.2588
    48.7293  49.2194  49.4038  50.0998  50.9684  51.0960  51.6061  51.7765
    53.2901  54.2663  56.5613  57.5029  57.8052  57.9994  58.9684  58.9970
    60.4303

 ------ SPIN DOWN ----------


          k = 0.0000 0.0000 0.0000 (  1789 PWs)   bands (ev):

   -65.8401 -65.8379 -27.8938 -27.8938 -27.7723 -27.7723 -27.1463 -27.1286
    -6.0776  -4.9515  -3.9647  -3.9647   5.3220   5.7410   6.7629   9.6266
     9.6266   9.6347   9.6347  11.7403  11.7563  11.8221  11.8221  11.9513
    12.5038  12.6931  14.3852  16.1206  16.1206  18.5566  18.7137  19.9733
    20.5466  20.5466  23.3091  24.5450  24.5450  26.8823  27.6552  27.6612
    31.5552  31.5552  32.1551  34.2281  34.2281  35.4136  35.6147  35.6147
    37.0187  37.7670  39.5546  39.8649  42.6589  43.1867  43.1867  44.6983
    44.6983  45.4781  46.3709  46.5538  46.5538  46.9247  47.2593  48.7115
    49.7463  49.9556  49.9556  50.2301  51.9890  51.9890  53.7176  53.7176
    54.0420  54.0515  54.3652  55.0514  55.5150  56.1706  56.1706  58.0784
    58.0784

          k = 0.0000 0.0000 0.3500 (  1794 PWs)   bands (ev):

   -65.8140 -65.8121 -27.8283 -27.8283 -27.7359 -27.7359 -27.5408 -27.5281
    -5.5384  -4.5896  -4.1061  -4.1061   6.3549   6.4847   7.3708   7.9512
     7.9512   9.5227  10.3494  10.7125  10.7125  11.0772  11.0772  12.6609
    13.7092  13.8438  14.2604  15.7684  15.7684  18.2309  19.3632  20.4441
    20.4441  21.6862  23.0168  27.0157  27.0157  27.3599  27.3911  27.8755
    31.0788  31.5115  31.5115  31.6105  33.6252  35.3312  35.3312  36.2957
    36.2957  39.8085  39.8601  40.9361  41.6851  41.7622  41.7622  42.8760
    44.8566  44.8566  45.0249  45.6314  45.9312  45.9312  49.2055  49.4224
    50.3467  50.5300  50.5300  51.8761  51.9740  52.1651  52.1651  53.1578
    53.9823  53.9823  54.9682  55.8658  56.4765  56.9419  56.9419  57.1642
    58.4577

          k = 0.0000 0.0000 0.7000 (  1798 PWs)   bands (ev):

   -65.7713 -65.7705 -28.1405 -28.1360 -27.7137 -27.7137 -27.6825 -27.6825
    -4.4909  -4.3744  -4.3744  -4.0929   7.1472   7.3633   7.5492   7.5492
     7.9427   8.4902   8.8031   8.8031   9.0460  11.1615  11.1615  11.2270
    15.2040  15.6884  15.6884  16.8701  17.6470  17.7921  19.8228  20.9710
    20.9710  21.7262  24.6396  26.7017  28.4700  28.4798  28.9833  29.3574
    29.8201  30.0156  30.0156  30.9362  30.9362  33.4760  36.1995  36.1995
    37.3918  37.3918  37.9701  38.0887  39.6763  39.6959  42.7703  42.7703
    44.7086  44.7086  45.7133  47.8959  47.8959  48.8035  48.8947  49.8546
    50.6422  50.6422  51.5504  51.5504  51.7833  52.1756  52.9097  55.2979
    55.7432  55.7432  55.7624  57.3004  57.3004  58.6137  58.6137  58.6792
    59.6148

          k = 0.0000 0.1883 0.0000 (  1779 PWs)   bands (ev):

   -65.8399 -65.8381 -27.8868 -27.8865 -27.7800 -27.7797 -27.1446 -27.1303
    -5.9160  -4.8904  -4.1924  -4.0669   5.6864   6.0185   7.0442   9.0894
     9.1713   9.6782   9.6926  10.7528  11.4525  11.6403  12.2253  12.3545
    12.4240  12.6705  14.9970  16.4186  16.4796  18.2890  18.9275  20.2885
    20.3232  20.4085  22.8617  24.3863  24.8502  27.0008  27.3705  27.7993
    30.1190  31.8657  32.7057  33.5264  34.8063  35.1920  35.8075  36.5547
    37.5038  39.0711  39.4036  40.8883  42.1007  42.2258  42.3873  44.1256
    44.9163  45.2085  45.8575  46.1907  46.6837  47.1411  47.5140  48.6663
    48.9840  49.9129  50.4642  51.3819  51.4839  52.3316  52.3724  52.9465
    53.3623  53.5449  54.0223  55.0779  55.6120  55.7467  56.5740  57.2878
    58.2570

          k = 0.0000 0.1883 0.3500 (  1779 PWs)   bands (ev):

   -65.8138 -65.8123 -27.8223 -27.8218 -27.7430 -27.7425 -27.5391 -27.5287
    -5.4162  -4.5593  -4.2479  -4.1569   6.4668   6.6426   7.5347   7.9081
     8.1573   9.4455   9.7717  10.4239  10.4911  10.9946  11.2329  12.5101
    14.0030  14.0892  14.6245  15.6914  16.0521  17.9520  19.4857  19.8948
    20.3752  22.0572  23.0074  25.9734  26.8428  27.4523  27.6712  28.9201
    30.6200  31.1900  31.3578  32.3433  33.3832  35.6687  35.7372  36.3843
    36.5179  39.5083  39.5569  40.3744  41.6308  41.7053  42.4944  42.8627
    44.7950  45.0995  45.5603  45.7611  46.0513  46.5822  48.0935  49.2729
    49.7036  50.4053  50.7863  51.5610  51.9014  52.1225  52.9144  53.2805
    53.7666  53.7677  54.7943  55.2534  55.4403  55.8661  56.7222  58.2615
    58.4847

          k = 0.0000 0.1883 0.7000 (  1796 PWs)   bands (ev):

   -65.7712 -65.7706 -28.1408 -28.1371 -27.7108 -27.7104 -27.6852 -27.6848
    -4.7378  -4.6109  -4.0569  -3.8572   6.7432   6.7851   7.1020   7.4863
     8.1547   8.6314   9.1968   9.5327   9.7950  10.8216  11.0532  11.4901
    14.4591  15.1458  16.1178  16.9176  17.8510  17.8721  19.6783  19.9114
    21.3058  22.7025  24.5851  26.5623  27.7901  28.0164  28.7048  28.8407
    29.7307  30.5678  30.7315  31.2269  31.9107  33.2876  35.6836  36.0246
    36.7902  37.0844  39.0882  39.2428  39.7721  39.9916  42.7681  43.0082
    44.0634  45.0827  46.4829  47.4403  47.7807  48.4718  48.5356  48.8326
    50.7438  50.8548  51.3876  51.6725  52.3562  52.4177  53.0907  53.7934
    54.7985  55.6703  56.4204  57.1086  57.4038  57.4381  57.9154  58.2400
    59.5001

          k = 0.0000 0.3766 0.0000 (  1774 PWs)   bands (ev):

   -65.8393 -65.8386 -27.8726 -27.8723 -27.7949 -27.7947 -27.1401 -27.1346
    -5.4731  -4.9287  -4.5185  -4.3117   6.5337   6.6895   7.8872   8.1051
     8.1972   9.2196   9.7849   9.8028  11.5215  11.6741  11.7431  12.1375
    12.8326  12.8415  16.1226  16.9959  17.0634  17.2954  19.8147  19.8609
    19.8813  20.8374  22.5252  23.5706  25.5871  26.5865  27.3681  27.8851
    29.6225  30.9935  32.6439  32.8009  35.7821  36.9259  37.0350  38.1304
    38.4586  38.7493  39.0270  40.0170  40.3108  41.5628  43.4862  44.0038
    44.6333  45.3192  45.5250  46.5635  47.0738  47.4545  47.8570  47.9567
    48.5101  48.7453  49.8629  49.9796  50.7067  50.8441  52.4646  52.8399
    52.9400  53.5090  53.8831  54.7799  55.5593  56.4240  56.7909  56.9689
    58.2227

          k = 0.0000 0.3766 0.3500 (  1789 PWs)   bands (ev):

   -65.8133 -65.8128 -27.8095 -27.8087 -27.7577 -27.7568 -27.5349 -27.5309
    -5.0870  -4.6701  -4.4065  -4.2812   6.7552   6.9032   7.8575   7.8764
     8.4931   8.9879   9.3409   9.7986  10.3029  10.6674  11.6260  12.1006
    14.1592  14.3265  15.5567  15.8889  16.6809  17.2912  19.0282  19.0387
    21.0169  21.8704  23.6397  24.7654  26.8966  27.2125  28.3051  29.2911
    30.6966  30.9160  30.9986  32.3396  34.1555  35.8452  36.1540  36.8414
    37.9672  38.2249  38.4208  39.5804  41.8080  41.9977  43.0164  43.5120
    44.4076  44.5806  45.4023  45.5235  47.3086  48.1710  48.3300  48.8594
    49.7816  50.5799  50.9522  51.1954  51.3666  51.4125  52.0329  52.6600
    52.8870  53.5019  54.3018  54.3293  55.5782  56.0828  56.9446  57.3174
    58.0606

          k = 0.0000 0.3766 0.7000 (  1793 PWs)   bands (ev):

   -65.7710 -65.7708 -28.1406 -28.1392 -27.7034 -27.7026 -27.6921 -27.6914
    -4.8790  -4.8312  -3.7586  -3.6785   6.3084   6.3760   6.7823   6.8333
     8.9101   9.1787   9.6041  10.0736  10.3977  10.5264  11.1626  11.7702
    13.6832  14.1780  16.5463  16.8265  18.0872  18.3021  18.8553  19.0685
    22.3036  23.1063  24.9143  25.8256  27.4275  27.4941  28.3312  28.3538
    30.0075  30.2834  31.2636  31.8450  33.2864  33.6574  34.7612  35.5442
    36.9656  37.0236  39.6168  40.1874  40.8267  41.1166  41.7898  42.4821
    44.7036  45.6369  46.1866  46.8018  47.7343  47.7642  47.7960  48.0985
    51.2033  51.4769  51.6186  51.8035  52.4997  52.6459  53.3827  53.4941
    54.2385  54.9019  55.5532  55.5923  57.3297  57.4399  57.6197  58.1438
    58.6212

          k = 0.1883 0.1883 0.0000 (  1777 PWs)   bands (ev):

   -65.8397 -65.8383 -27.8958 -27.8717 -27.7956 -27.7706 -27.1432 -27.1315
    -5.8088  -4.8441  -4.4562  -3.9981   5.5181   6.6566   7.3083   8.1463
     9.5732   9.6137   9.8003  10.9494  10.9536  11.5352  11.8409  12.2271
    12.4309  12.8210  15.5356  16.1334  17.0278  18.0602  19.0692  19.8395
    20.5406  20.8010  22.4958  24.6650  24.7535  26.6127  27.5632  27.7966
    29.8235  31.3361  33.4592  33.9036  35.1401  35.3885  35.9190  36.2040
    37.7649  39.3593  39.8790  40.4835  41.8639  42.2370  42.7239  43.2971
    43.6940  44.3092  46.2320  46.4390  46.8592  47.1235  47.8173  48.2443
    49.6189  50.1933  50.3943  50.9992  51.7065  51.8011  52.0825  53.1970
    53.6198  53.9061  54.1546  54.3682  55.0537  55.9236  56.1866  57.1649
    58.7634

          k = 0.1883 0.1883 0.3500 (  1789 PWs)   bands (ev):

   -65.8136 -65.8125 -27.8299 -27.8083 -27.7579 -27.7345 -27.5380 -27.5295
    -5.3262  -4.5469  -4.3910  -4.1343   6.3868   6.8602   7.6069   7.9788
     8.2219   9.1798   9.8999  10.3049  10.5453  10.6899  11.2830  12.3427
    13.7937  14.3322  14.7037  16.0974  16.1836  17.7361  18.9795  20.1348
    20.4186  22.1266  23.0972  25.8717  26.1763  26.9820  28.5573  29.1822
    30.5888  31.1168  31.6147  32.3994  33.4785  35.1963  35.4858  36.8159
    37.0673  39.5887  39.7809  40.2360  40.7486  41.6031  42.7624  43.6527
    44.0367  44.9071  45.7938  46.2763  46.5799  47.2025  48.2841  48.3621
    49.0196  50.6231  51.0289  51.1251  51.1961  52.1795  52.5350  53.1415
    53.6853  53.9051  54.1090  54.9044  55.7890  56.3306  56.9295  57.7337
    58.4877

          k = 0.1883 0.1883 0.7000 (  1792 PWs)   bands (ev):

   -65.7711 -65.7707 -28.1406 -28.1376 -27.7145 -27.7023 -27.6922 -27.6820
    -4.8656  -4.3948  -4.2769  -3.7001   6.3465   6.8222   7.3828   7.3935
     7.8933   8.6134   9.5766   9.7128   9.9331  10.7937  10.9886  11.6663
    14.3053  14.9625  16.0046  16.9765  17.8241  18.0781  18.9124  20.8453
    20.9442  22.8413  24.5149  26.4413  26.8211  27.2190  29.0773  29.2975
    29.9651  30.8228  30.8640  31.5892  32.1104  33.3791  35.4222  35.9460
    36.7282  37.6724  38.8303  39.0573  40.7430  40.9146  43.0933  43.3098
    43.6435  44.6657  46.6816  47.0400  47.6454  48.1484  48.4028  48.9208
    50.4227  50.4420  50.9460  51.6952  52.3374  52.3786  52.4136  52.9206
    54.7561  55.1781  56.2779  56.3060  57.7827  57.8526  58.2003  59.0109
    59.3261

          k = 0.1883 0.3766 0.0000 (  1773 PWs)   bands (ev):

   -65.8393 -65.8387 -27.8896 -27.8741 -27.7934 -27.7775 -27.1395 -27.1350
    -5.5093  -5.0912  -4.4262  -4.1499   5.8405   6.5997   8.0304   8.3127
     9.0014   9.6659   9.6829   9.7850  11.1924  11.6151  11.7791  11.9687
    12.3863  12.8017  16.4651  16.4911  17.0386  17.3969  19.7005  19.8327
    20.2973  20.6096  22.8669  23.9866  25.4153  26.1769  27.4077  27.6366
    29.8069  30.8088  33.6140  34.0334  35.2219  36.9332  37.3193  37.4862
    38.2085  38.5467  38.7549  39.9570  40.0807  41.1353  42.9664  43.5701
    44.3133  44.3487  44.9667  46.6879  47.0539  47.6314  48.0187  48.6294
    49.7326  49.9699  50.3376  50.5443  50.9223  51.2791  51.3330  51.8038
    52.8223  53.9316  55.0866  55.5999  55.7005  56.5247  57.2658  57.2907
    58.2975

          k = 0.1883 0.3766 0.3500 (  1790 PWs)   bands (ev):

   -65.8133 -65.8128 -27.8247 -27.8107 -27.7559 -27.7407 -27.5351 -27.5318
    -5.0848  -4.7690  -4.3568  -4.2171   6.5289   6.8406   7.7979   7.9156
     8.7186   9.0991   9.6107   9.9484  10.3494  10.5857  11.4589  11.9147
    14.0351  14.2694  15.2690  15.9943  16.6388  17.2002  19.0083  19.8167
    20.8368  21.6213  23.8649  24.8751  26.2743  26.6195  29.0578  29.6668
    30.2516  30.7037  31.9555  32.8542  33.9050  34.5707  35.7731  37.5793
    38.1664  38.4938  39.4107  40.0070  40.8483  41.5210  42.3354  43.1161
    44.7840  45.1006  45.6045  46.0061  47.4732  47.9706  48.5443  48.9884
    49.2974  49.9604  50.5972  51.0732  51.2410  51.4150  51.8097  52.5641
    52.7960  53.2570  54.1640  55.2239  55.7130  56.4838  56.6863  57.5665
    58.1512

          k = 0.1883 0.3766 0.7000 (  1793 PWs)   bands (ev):

   -65.7710 -65.7708 -28.1399 -28.1387 -27.7118 -27.7041 -27.6908 -27.6843
    -4.8576  -4.6676  -3.9624  -3.7111   6.3288   6.6958   6.8277   7.2669
     8.1611   8.8961   9.5435   9.9477  10.3279  10.6487  11.3125  11.8371
    13.9986  14.3944  16.2523  16.7186  17.9493  18.2321  18.8820  19.9178
    21.9708  22.7755  24.7652  25.6031  26.3601  26.4752  29.1190  29.1895
    30.2765  30.5219  31.5282  31.6943  33.3394  34.0264  34.8291  35.6659
    37.3281  37.6393  39.0788  39.7582  41.6945  42.1161  42.2988  42.6335
    44.8134  45.2913  45.9504  46.2405  46.7431  47.4911  48.2803  48.6103
    50.2744  50.4988  50.9279  51.0800  51.6440  51.8677  52.3032  53.3695
    53.7157  55.1011  55.7531  56.4127  56.8046  57.6314  58.3570  58.9629
    59.1923

          k = 0.3766 0.3766 0.0000 (  1749 PWs)   bands (ev):

   -65.8391 -65.8389 -27.8988 -27.8914 -27.7759 -27.7681 -27.1380 -27.1363
    -5.5017  -5.3525  -4.1816  -4.0506   5.5302   5.8379   8.7302   9.3862
     9.3974   9.5927   9.6547  10.1949  10.5464  11.1758  11.8188  11.9472
    12.1535  12.3312  16.1561  16.4776  17.0831  17.4124  19.6897  20.0580
    20.2919  20.5307  23.7646  24.4092  25.2115  25.6710  27.0607  27.1295
    30.5252  31.1380  34.4889  35.0760  35.6131  35.6896  37.2680  38.4819
    38.4937  38.5252  38.7766  38.9383  40.1676  40.7089  41.0117  42.0192
    42.1222  43.5140  45.2545  46.3068  47.5757  48.2594  49.1025  49.5284
    49.7349  50.7969  50.7998  51.5270  51.6364  51.8429  52.2725  52.9007
    53.2954  53.8940  55.7408  55.7734  56.2767  56.4026  57.0731  57.2617
    58.6409

          k = 0.3766 0.3766 0.3500 (  1780 PWs)   bands (ev):

   -65.8131 -65.8130 -27.8326 -27.8263 -27.7394 -27.7324 -27.5348 -27.5335
    -5.0447  -4.9323  -4.2441  -4.1790   6.3905   6.5411   7.7925   7.8735
     9.3056   9.5507   9.8859   9.9551  10.3155  10.4505  11.2764  11.5363
    13.8389  14.0720  15.3675  15.6185  16.7610  16.9812  19.7993  20.3736
    20.6012  21.0506  24.4149  24.9728  25.5652  25.9229  29.6284  29.6540
    30.3516  30.8346  32.7431  33.2515  33.2740  34.1710  36.0644  38.1810
    38.4172  39.0254  39.1621  40.1433  40.7396  41.1921  41.4832  42.7901
    43.5156  44.6224  46.9459  47.1019  47.7044  47.9795  48.5996  49.0331
    49.6576  49.8601  50.2694  50.6489  50.8185  51.2183  51.4570  51.9861
    52.6242  54.1178  54.4315  55.1518  55.7987  56.5994  56.8590  57.6125
    58.0875

          k = 0.3766 0.3766 0.7000 (  1799 PWs)   bands (ev):

   -65.7709 -65.7709 -28.1387 -28.1382 -27.7159 -27.7127 -27.6838 -27.6813
    -4.6722  -4.4273  -4.2307  -3.9507   6.6837   7.1317   7.2254   7.5887
     7.7293   8.4444   8.5746   9.4090  10.5430  10.7487  11.6720  11.8934
    14.5727  14.8470  15.8467  16.2597  17.8458  17.9544  19.8515  20.8833
    21.2203  22.0276  24.7317  25.2351  25.3681  25.5357  29.3696  29.3903
    30.6259  30.7859  31.8979  32.2365  33.8201  34.4776  34.9725  35.6369
    38.1943  38.4832  39.3151  39.5018  41.8647  42.3020  43.3789  43.8562
    44.0132  44.3213  45.8835  46.6434  46.9797  47.3845  47.8871  48.2595
    48.7300  49.2201  49.4047  50.1007  50.9691  51.0971  51.6068  51.7776
    53.2906  54.2669  56.5619  57.5035  57.8059  58.0002  58.9690  58.9978
    60.4311

     the Fermi energy is    16.0538 ev

!    total energy              =    -518.53525926 Ry
     Harris-Foulkes estimate   =    -518.53525925 Ry
     estimated scf accuracy    <          2.5E-09 Ry

     The total energy is the sum of the following terms:

     one-electron contribution =    -117.14539631 Ry
     hartree contribution      =      90.89044205 Ry
     xc contribution           =    -142.89687717 Ry
     ewald contribution        =    -349.38309069 Ry
     smearing contrib. (-TS)   =      -0.00033714 Ry

     total magnetization       =     0.00 Bohr mag/cell
     absolute magnetization    =     0.00 Bohr mag/cell

     convergence has been achieved in  13 iterations

     Forces acting on atoms (Ry/au):


     negative rho (up, down):  0.311E-01 0.312E-01
     atom    1 type  1   force =     0.00000000    0.00000000   -0.00000000
     atom    2 type  1   force =     0.00000000    0.00000000   -0.00000000
     atom    3 type  2   force =     0.00002088    0.00002088    0.00000000
     atom    4 type  2   force =    -0.00002088   -0.00002088   -0.00000000
     atom    5 type  2   force =     0.00002088   -0.00002088    0.00000000
     atom    6 type  2   force =    -0.00002088    0.00002088   -0.00000000

     Total force =     0.000059     Total SCF correction =     0.000005


     entering subroutine stress ...


     negative rho (up, down):  0.311E-01 0.312E-01
          total   stress  (Ry/bohr**3)                   (kbar)     P=  174.06
   0.00120653   0.00000000   0.00000000        177.49      0.00      0.00
   0.00000000   0.00120653   0.00000000          0.00    177.49      0.00
   0.00000000   0.00000000   0.00113668          0.00      0.00    167.21


     init_run     :     22.32s CPU     22.60s WALL (       2 calls)
     electrons    :   1763.31s CPU   1779.62s WALL (       9 calls)
     update_pot   :     30.11s CPU     30.28s WALL (       7 calls)
     forces       :    100.43s CPU    100.54s WALL (       9 calls)
     stress       :    278.63s CPU    279.13s WALL (       9 calls)

     Called by init_run:
     wfcinit      :     10.29s CPU     10.46s WALL (       2 calls)
     potinit      :      1.72s CPU      1.73s WALL (       2 calls)

     Called by electrons:
     c_bands      :   1313.19s CPU   1324.76s WALL (      68 calls)
     sum_band     :    246.17s CPU    248.14s WALL (      68 calls)
     v_of_rho     :     17.08s CPU     17.14s WALL (      76 calls)
     newd         :    207.97s CPU    208.18s WALL (      76 calls)
     mix_rho      :      1.49s CPU      1.50s WALL (      68 calls)

     Called by c_bands:
     init_us_2    :      6.58s CPU      6.57s WALL (    5616 calls)
     cegterg      :   1282.37s CPU   1293.85s WALL (    2448 calls)

     Called by *egterg:
     h_psi        :    574.53s CPU    584.71s WALL (    7974 calls)
     s_psi        :     52.40s CPU     52.37s WALL (    7974 calls)
     g_psi        :      3.39s CPU      3.40s WALL (    5454 calls)
     cdiaghg      :    348.90s CPU    349.21s WALL (    7614 calls)

     Called by h_psi:
     add_vuspsi   :     53.83s CPU     53.97s WALL (    7974 calls)

     General routines
     calbec       :     95.74s CPU     96.07s WALL (   11070 calls)
     fft          :     22.05s CPU     22.09s WALL (    2670 calls)
     ffts         :      0.23s CPU      0.24s WALL (     288 calls)
     fftw         :    466.66s CPU    473.05s WALL ( 1163090 calls)
     interpolate  :      1.67s CPU      1.69s WALL (     288 calls)

     Parallel routines
     fft_scatter  :    170.55s CPU    173.06s WALL ( 1166048 calls)

     PWSCF        : 36m53.53s CPU    37m11.01s WALL


   This run was terminated on:  20:13: 4  23Jan2014            

=------------------------------------------------------------------------------=
   JOB DONE.
=------------------------------------------------------------------------------=
---------------------------------------
Running PBS batch system epilogue script
Job id: 251218.audhumbla.fysik.dtu.dk
Username: zhonxu
Groupname: campgst
Jobname: ReO2/coarse-EOS/ReO2-v-1.0
Sessionid: 32374
Resources limits: neednodes=1:ppn=4:opteron4,nodes=1:ppn=4:opteron4,walltime=18:00:00
Resources used: cput=02:28:31,mem=415456kb,vmem=1301968kb,walltime=00:37:12
Queuename: verylong
Accounting:
This job has allocated the following 4 nodes:
q096 q096 q096 q096
Finished epilogue job 251218.audhumbla.fysik.dtu.dk for zhonxu
