
     Program PWSCF v.5.0.2 (svn rev. 9656) starts on  5May2014 at  0:51:21 

     This program is part of the open-source Quantum ESPRESSO suite
     for quantum simulation of materials; please cite
         "P. Giannozzi et al., J. Phys.:Condens. Matter 21 395502 (2009);
          URL http://www.quantum-espresso.org", 
     in publications or presentations arising from this work. More details at
     http://www.quantum-espresso.org/quote.php

     Parallel version (MPI), running on    16 processors
     K-points division:     npool     =       4
     R & G space division:  proc/nbgrp/npool/nimage =       4

     Current dimensions of program PWSCF are:
     Max number of different atomic species (ntypx) = 10
     Max number of k-points (npk) =  40000
     Max angular momentum in pseudopotentials (lmaxx) =  3
     Reading input from pwscf.in
Warning: card &CELL ignored
Warning: card / ignored

     Subspace diagonalization in iterative solution of the eigenvalue problem:
     a serial algorithm will be used


     Parallelization info
     --------------------
     sticks:   dense  smooth     PW     G-vecs:    dense   smooth      PW
     Min        1274     408    116               299662    54238    8133
     Max        1275     409    117               299663    54251    8135
     Sum        5097    1635    467              1198649   216969   32535



     bravais-lattice index     =            0
     lattice parameter (alat)  =      10.9604  a.u.
     unit-cell volume          =    6350.6732 (a.u.)^3
     number of atoms/cell      =           32
     number of atomic types    =            3
     number of electrons       =       231.00 (up: 123.00, down: 108.00)
     number of Kohn-Sham states=          334
     kinetic-energy cutoff     =      40.0000  Ry
     charge density cutoff     =     500.0000  Ry
     convergence threshold     =      1.0E-06
     mixing beta               =       0.7000
     number of iterations used =            8  plain     mixing
     Exchange-correlation      = SLA  PW   PBE  PBE ( 1 4 3 4 0)
     EXX-fraction              =        0.00
     nstep                     =           50


     celldm(1)=  10.960412  celldm(2)=   0.000000  celldm(3)=   0.000000
     celldm(4)=   0.000000  celldm(5)=   0.000000  celldm(6)=   0.000000

     crystal axes: (cart. coord. in units of alat)
               a(1) = (   1.000000   0.000000   0.000000 )  
               a(2) = (   0.000000   1.067975   0.000000 )  
               a(3) = (   0.000000   0.000000   4.516251 )  

     reciprocal axes: (cart. coord. in units 2 pi/alat)
               b(1) = (  1.000000  0.000000  0.000000 )  
               b(2) = (  0.000000  0.936351  0.000000 )  
               b(3) = (  0.000000  0.000000  0.221423 )  


     PseudoPot. # 1 for O  read from file:
     /home/camp/zhonxu/pseudo/o_pbe_v1.01.uspp.F.UPF
     MD5 check sum: 2bcb18d16ea4b960afae9ec6d52f22d2
     Pseudo is Ultrasoft + core correction, Zval =  6.0
     Generated by new atomic code, or converted to UPF format
     Using radial grid of  737 points,  5 beta functions with: 
                l(1) =   0
                l(2) =   0
                l(3) =   1
                l(4) =   1
                l(5) =   2
     Q(r) pseudized with  8 coefficients,  rinner =    0.900   0.900   0.900
                                                       0.900   0.900

     PseudoPot. # 2 for Cr read from file:
     /home/camp/zhonxu/pseudo/cr_pbe_v1.uspp.F.UPF
     MD5 check sum: 68b6f918d1762dccfb11451fe85b0e0e
     Pseudo is Ultrasoft + core correction, Zval = 14.0
     Generated by new atomic code, or converted to UPF format
     Using radial grid of  857 points,  6 beta functions with: 
                l(1) =   0
                l(2) =   0
                l(3) =   1
                l(4) =   1
                l(5) =   2
                l(6) =   2
     Q(r) pseudized with  6 coefficients,  rinner =    1.000   1.000   1.000
                                                       1.000   1.000

     PseudoPot. # 3 for H  read from file:
     /home/camp/zhonxu/pseudo/h_pbe_v1.uspp.F.UPF
     MD5 check sum: 3408e3ff4ec8b0a4e358431e7e038a48
     Pseudo is Ultrasoft, Zval =  1.0
     Generated by new atomic code, or converted to UPF format
     Using radial grid of  615 points,  2 beta functions with: 
                l(1) =   0
                l(2) =   0
     Q(r) pseudized with  8 coefficients,  rinner =    0.700

     atomic species   valence    mass     pseudopotential
        O0             6.00    15.99940     O ( 1.00)
        Cr1           14.00    51.99600     Cr( 1.00)
        H2             1.00     1.00794     H ( 1.00)

     Starting magnetic structure 
     atomic species   magnetization
        O0           0.000
        Cr1          0.600
        H2           0.000


     Simplified LDA+U calculation (l_max = 2) with parameters (eV):
     atomic species    L          U    alpha       J0     beta
        Cr1            2     1.0000   0.0000   0.0000   0.0000



     No symmetry found



   Cartesian axes

     site n.     atom                  positions (alat units)
         1           O0  tau(   1) = (   0.0000000   0.0000000   1.7072332  )
         2           O0  tau(   2) = (   0.0000000   0.5339875   1.8068165  )
         3           Cr1 tau(   3) = (   0.2500000   0.5339875   2.0386808  )
         4           Cr1 tau(   4) = (   0.0000000   0.0000000   2.0275709  )
         5           O0  tau(   5) = (   0.2500000   0.8543801   2.0319968  )
         6           O0  tau(   6) = (   0.2500000   0.2135950   2.0327194  )
         7           O0  tau(   7) = (   0.0000000   0.5339875   2.2464284  )
         8           O0  tau(   8) = (   0.0000000   0.0000000   2.3629476  )
         9           Cr1 tau(   9) = (   0.2500000   0.0000000   2.5576884  )
        10           Cr1 tau(  10) = (   0.0000000   0.5339875   2.5509140  )
        11           O0  tau(  11) = (   0.2500000   0.7475825   2.5906119  )
        12           O0  tau(  12) = (   0.2500000   0.3203925   2.5906119  )
        13           O0  tau(  13) = (   0.0000000   0.0000000   2.7911334  )
        14           O0  tau(  14) = (   0.5000000   0.0000000   1.7073235  )
        15           O0  tau(  15) = (   0.5000000   0.5339875   1.8079456  )
        16           Cr1 tau(  16) = (   0.7500000   0.5339875   2.0392228  )
        17           Cr1 tau(  17) = (   0.5000000   0.0000000   2.0278870  )
        18           O0  tau(  18) = (   0.7500000   0.8543801   2.0322226  )
        19           O0  tau(  19) = (   0.7500000   0.2135950   2.0329904  )
        20           O0  tau(  20) = (   0.5000000   0.5339875   2.2544673  )
        21           O0  tau(  21) = (   0.5000000   0.0000000   2.3630380  )
        22           Cr1 tau(  22) = (   0.7500000   0.0000000   2.6360002  )
        23           Cr1 tau(  23) = (   0.5000000   0.5339875   2.6018573  )
        24           O0  tau(  24) = (   0.7500000   0.7475825   2.5939087  )
        25           O0  tau(  25) = (   0.7500000   0.3203925   2.5936377  )
        26           O0  tau(  26) = (   0.5000000   0.0000000   2.7879720  )
        27           H2  tau(  27) = (  -0.0006000   0.6814001   1.7205110  )
        28           H2  tau(  28) = (   0.4996600   0.6814535   1.7215045  )
        29           H2  tau(  29) = (   0.1566500   0.0338121   1.6478896  )
        30           H2  tau(  30) = (   0.6567200   0.0335237   1.6481606  )
        31           O0  tau(  31) = (   0.5143900   0.5336458   2.9144271  )
        32           H2  tau(  32) = (   0.3645400   0.5319370   2.9931001  )

     number of k points=    20  Methfessel-Paxton smearing, width (Ry)=  0.0100
                       cart. coord. in units 2pi/alat
        k(    1) = (   0.0000000   0.0000000   0.0000000), wk =   0.0625000
        k(    2) = (   0.0000000   0.2340879   0.0000000), wk =   0.1250000
        k(    3) = (   0.0000000  -0.4681757   0.0000000), wk =   0.0625000
        k(    4) = (   0.2500000   0.0000000   0.0000000), wk =   0.1250000
        k(    5) = (   0.2500000   0.2340879   0.0000000), wk =   0.1250000
        k(    6) = (   0.2500000  -0.4681757   0.0000000), wk =   0.1250000
        k(    7) = (  -0.5000000   0.0000000   0.0000000), wk =   0.0625000
        k(    8) = (  -0.5000000   0.2340879   0.0000000), wk =   0.1250000
        k(    9) = (  -0.5000000  -0.4681757   0.0000000), wk =   0.0625000
        k(   10) = (  -0.2500000   0.2340879   0.0000000), wk =   0.1250000
        k(   11) = (   0.0000000   0.0000000   0.0000000), wk =   0.0625000
        k(   12) = (   0.0000000   0.2340879   0.0000000), wk =   0.1250000
        k(   13) = (   0.0000000  -0.4681757   0.0000000), wk =   0.0625000
        k(   14) = (   0.2500000   0.0000000   0.0000000), wk =   0.1250000
        k(   15) = (   0.2500000   0.2340879   0.0000000), wk =   0.1250000
        k(   16) = (   0.2500000  -0.4681757   0.0000000), wk =   0.1250000
        k(   17) = (  -0.5000000   0.0000000   0.0000000), wk =   0.0625000
        k(   18) = (  -0.5000000   0.2340879   0.0000000), wk =   0.1250000
        k(   19) = (  -0.5000000  -0.4681757   0.0000000), wk =   0.0625000
        k(   20) = (  -0.2500000   0.2340879   0.0000000), wk =   0.1250000

     Dense  grid:  1198649 G-vectors     FFT dimensions: (  80,  90, 360)

     Smooth grid:   216969 G-vectors     FFT dimensions: (  45,  48, 200)

     Largest allocated arrays     est. size (Mb)     dimensions
        Kohn-Sham Wavefunctions        35.08 Mb     (   6884,  334)
        Atomic wavefunctions           16.91 Mb     (   6884,  161)
        NL pseudopotentials            42.12 Mb     (   6884,  401)
        Each V/rho on FFT grid         19.78 Mb     ( 648000,   2)
        Each G-vector array             2.29 Mb     ( 299662)
        G-vector shells                 0.99 Mb     ( 129803)
     Largest temporary arrays     est. size (Mb)     dimensions
        Auxiliary wavefunctions       140.34 Mb     (   6884, 1336)
        Each subspace H/S matrix       27.24 Mb     (1336,1336)
        Each <psi_i|beta_j> matrix      2.04 Mb     (    401,  334)
        Arrays for rho mixing          79.10 Mb     ( 648000,   8)

     Check: negative/imaginary core charge=   -0.000012    0.000000

     Initial potential from superposition of free atoms
     Check: negative starting charge=(component1):   -0.001476
     Check: negative starting charge=(component2):   -0.000504

     starting charge  222.99983, renormalised to  231.00000

     negative rho (up, down):  0.153E-02 0.522E-03
     Number of +U iterations with fixed ns =  0
     Starting occupations:
 --- enter write_ns ---
 LDA+U parameters:
U( 2)     =  1.00000000
alpha( 2) =  0.00000000
atom    3   Tr[ns(na)] (up, down, total) =   5.00000  0.00000  5.00000
   spin  1
    eigenvalues: 
  1.000  1.000  1.000  1.000  1.000
    eigenvectors:
  1.000  0.000  0.000  0.000  0.000
  0.000  1.000  0.000  0.000  0.000
  0.000  0.000  1.000  0.000  0.000
  0.000  0.000  0.000  1.000  0.000
  0.000  0.000  0.000  0.000  1.000
    occupations:
  1.000  0.000  0.000  0.000  0.000
  0.000  1.000  0.000  0.000  0.000
  0.000  0.000  1.000  0.000  0.000
  0.000  0.000  0.000  1.000  0.000
  0.000  0.000  0.000  0.000  1.000
   spin  2
    eigenvalues: 
  0.000  0.000  0.000  0.000  0.000
    eigenvectors:
  1.000  0.000  0.000  0.000  0.000
  0.000  1.000  0.000  0.000  0.000
  0.000  0.000  1.000  0.000  0.000
  0.000  0.000  0.000  1.000  0.000
  0.000  0.000  0.000  0.000  1.000
    occupations:
  0.000  0.000  0.000  0.000  0.000
  0.000  0.000  0.000  0.000  0.000
  0.000  0.000  0.000  0.000  0.000
  0.000  0.000  0.000  0.000  0.000
  0.000  0.000  0.000  0.000  0.000
atomic mag. moment =     5.000000
atom    4   Tr[ns(na)] (up, down, total) =   5.00000  0.00000  5.00000
   spin  1
    eigenvalues: 
  1.000  1.000  1.000  1.000  1.000
    eigenvectors:
  1.000  0.000  0.000  0.000  0.000
  0.000  1.000  0.000  0.000  0.000
  0.000  0.000  1.000  0.000  0.000
  0.000  0.000  0.000  1.000  0.000
  0.000  0.000  0.000  0.000  1.000
    occupations:
  1.000  0.000  0.000  0.000  0.000
  0.000  1.000  0.000  0.000  0.000
  0.000  0.000  1.000  0.000  0.000
  0.000  0.000  0.000  1.000  0.000
  0.000  0.000  0.000  0.000  1.000
   spin  2
    eigenvalues: 
  0.000  0.000  0.000  0.000  0.000
    eigenvectors:
  1.000  0.000  0.000  0.000  0.000
  0.000  1.000  0.000  0.000  0.000
  0.000  0.000  1.000  0.000  0.000
  0.000  0.000  0.000  1.000  0.000
  0.000  0.000  0.000  0.000  1.000
    occupations:
  0.000  0.000  0.000  0.000  0.000
  0.000  0.000  0.000  0.000  0.000
  0.000  0.000  0.000  0.000  0.000
  0.000  0.000  0.000  0.000  0.000
  0.000  0.000  0.000  0.000  0.000
atomic mag. moment =     5.000000
atom    9   Tr[ns(na)] (up, down, total) =   5.00000  0.00000  5.00000
   spin  1
    eigenvalues: 
  1.000  1.000  1.000  1.000  1.000
    eigenvectors:
  1.000  0.000  0.000  0.000  0.000
  0.000  1.000  0.000  0.000  0.000
  0.000  0.000  1.000  0.000  0.000
  0.000  0.000  0.000  1.000  0.000
  0.000  0.000  0.000  0.000  1.000
    occupations:
  1.000  0.000  0.000  0.000  0.000
  0.000  1.000  0.000  0.000  0.000
  0.000  0.000  1.000  0.000  0.000
  0.000  0.000  0.000  1.000  0.000
  0.000  0.000  0.000  0.000  1.000
   spin  2
    eigenvalues: 
  0.000  0.000  0.000  0.000  0.000
    eigenvectors:
  1.000  0.000  0.000  0.000  0.000
  0.000  1.000  0.000  0.000  0.000
  0.000  0.000  1.000  0.000  0.000
  0.000  0.000  0.000  1.000  0.000
  0.000  0.000  0.000  0.000  1.000
    occupations:
  0.000  0.000  0.000  0.000  0.000
  0.000  0.000  0.000  0.000  0.000
  0.000  0.000  0.000  0.000  0.000
  0.000  0.000  0.000  0.000  0.000
  0.000  0.000  0.000  0.000  0.000
atomic mag. moment =     5.000000
atom   10   Tr[ns(na)] (up, down, total) =   5.00000  0.00000  5.00000
   spin  1
    eigenvalues: 
  1.000  1.000  1.000  1.000  1.000
    eigenvectors:
  1.000  0.000  0.000  0.000  0.000
  0.000  1.000  0.000  0.000  0.000
  0.000  0.000  1.000  0.000  0.000
  0.000  0.000  0.000  1.000  0.000
  0.000  0.000  0.000  0.000  1.000
    occupations:
  1.000  0.000  0.000  0.000  0.000
  0.000  1.000  0.000  0.000  0.000
  0.000  0.000  1.000  0.000  0.000
  0.000  0.000  0.000  1.000  0.000
  0.000  0.000  0.000  0.000  1.000
   spin  2
    eigenvalues: 
  0.000  0.000  0.000  0.000  0.000
    eigenvectors:
  1.000  0.000  0.000  0.000  0.000
  0.000  1.000  0.000  0.000  0.000
  0.000  0.000  1.000  0.000  0.000
  0.000  0.000  0.000  1.000  0.000
  0.000  0.000  0.000  0.000  1.000
    occupations:
  0.000  0.000  0.000  0.000  0.000
  0.000  0.000  0.000  0.000  0.000
  0.000  0.000  0.000  0.000  0.000
  0.000  0.000  0.000  0.000  0.000
  0.000  0.000  0.000  0.000  0.000
atomic mag. moment =     5.000000
atom   16   Tr[ns(na)] (up, down, total) =   5.00000  0.00000  5.00000
   spin  1
    eigenvalues: 
  1.000  1.000  1.000  1.000  1.000
    eigenvectors:
  1.000  0.000  0.000  0.000  0.000
  0.000  1.000  0.000  0.000  0.000
  0.000  0.000  1.000  0.000  0.000
  0.000  0.000  0.000  1.000  0.000
  0.000  0.000  0.000  0.000  1.000
    occupations:
  1.000  0.000  0.000  0.000  0.000
  0.000  1.000  0.000  0.000  0.000
  0.000  0.000  1.000  0.000  0.000
  0.000  0.000  0.000  1.000  0.000
  0.000  0.000  0.000  0.000  1.000
   spin  2
    eigenvalues: 
  0.000  0.000  0.000  0.000  0.000
    eigenvectors:
  1.000  0.000  0.000  0.000  0.000
  0.000  1.000  0.000  0.000  0.000
  0.000  0.000  1.000  0.000  0.000
  0.000  0.000  0.000  1.000  0.000
  0.000  0.000  0.000  0.000  1.000
    occupations:
  0.000  0.000  0.000  0.000  0.000
  0.000  0.000  0.000  0.000  0.000
  0.000  0.000  0.000  0.000  0.000
  0.000  0.000  0.000  0.000  0.000
  0.000  0.000  0.000  0.000  0.000
atomic mag. moment =     5.000000
atom   17   Tr[ns(na)] (up, down, total) =   5.00000  0.00000  5.00000
   spin  1
    eigenvalues: 
  1.000  1.000  1.000  1.000  1.000
    eigenvectors:
  1.000  0.000  0.000  0.000  0.000
  0.000  1.000  0.000  0.000  0.000
  0.000  0.000  1.000  0.000  0.000
  0.000  0.000  0.000  1.000  0.000
  0.000  0.000  0.000  0.000  1.000
    occupations:
  1.000  0.000  0.000  0.000  0.000
  0.000  1.000  0.000  0.000  0.000
  0.000  0.000  1.000  0.000  0.000
  0.000  0.000  0.000  1.000  0.000
  0.000  0.000  0.000  0.000  1.000
   spin  2
    eigenvalues: 
  0.000  0.000  0.000  0.000  0.000
    eigenvectors:
  1.000  0.000  0.000  0.000  0.000
  0.000  1.000  0.000  0.000  0.000
  0.000  0.000  1.000  0.000  0.000
  0.000  0.000  0.000  1.000  0.000
  0.000  0.000  0.000  0.000  1.000
    occupations:
  0.000  0.000  0.000  0.000  0.000
  0.000  0.000  0.000  0.000  0.000
  0.000  0.000  0.000  0.000  0.000
  0.000  0.000  0.000  0.000  0.000
  0.000  0.000  0.000  0.000  0.000
atomic mag. moment =     5.000000
atom   22   Tr[ns(na)] (up, down, total) =   5.00000  0.00000  5.00000
   spin  1
    eigenvalues: 
  1.000  1.000  1.000  1.000  1.000
    eigenvectors:
  1.000  0.000  0.000  0.000  0.000
  0.000  1.000  0.000  0.000  0.000
  0.000  0.000  1.000  0.000  0.000
  0.000  0.000  0.000  1.000  0.000
  0.000  0.000  0.000  0.000  1.000
    occupations:
  1.000  0.000  0.000  0.000  0.000
  0.000  1.000  0.000  0.000  0.000
  0.000  0.000  1.000  0.000  0.000
  0.000  0.000  0.000  1.000  0.000
  0.000  0.000  0.000  0.000  1.000
   spin  2
    eigenvalues: 
  0.000  0.000  0.000  0.000  0.000
    eigenvectors:
  1.000  0.000  0.000  0.000  0.000
  0.000  1.000  0.000  0.000  0.000
  0.000  0.000  1.000  0.000  0.000
  0.000  0.000  0.000  1.000  0.000
  0.000  0.000  0.000  0.000  1.000
    occupations:
  0.000  0.000  0.000  0.000  0.000
  0.000  0.000  0.000  0.000  0.000
  0.000  0.000  0.000  0.000  0.000
  0.000  0.000  0.000  0.000  0.000
  0.000  0.000  0.000  0.000  0.000
atomic mag. moment =     5.000000
atom   23   Tr[ns(na)] (up, down, total) =   5.00000  0.00000  5.00000
   spin  1
    eigenvalues: 
  1.000  1.000  1.000  1.000  1.000
    eigenvectors:
  1.000  0.000  0.000  0.000  0.000
  0.000  1.000  0.000  0.000  0.000
  0.000  0.000  1.000  0.000  0.000
  0.000  0.000  0.000  1.000  0.000
  0.000  0.000  0.000  0.000  1.000
    occupations:
  1.000  0.000  0.000  0.000  0.000
  0.000  1.000  0.000  0.000  0.000
  0.000  0.000  1.000  0.000  0.000
  0.000  0.000  0.000  1.000  0.000
  0.000  0.000  0.000  0.000  1.000
   spin  2
    eigenvalues: 
  0.000  0.000  0.000  0.000  0.000
    eigenvectors:
  1.000  0.000  0.000  0.000  0.000
  0.000  1.000  0.000  0.000  0.000
  0.000  0.000  1.000  0.000  0.000
  0.000  0.000  0.000  1.000  0.000
  0.000  0.000  0.000  0.000  1.000
    occupations:
  0.000  0.000  0.000  0.000  0.000
  0.000  0.000  0.000  0.000  0.000
  0.000  0.000  0.000  0.000  0.000
  0.000  0.000  0.000  0.000  0.000
  0.000  0.000  0.000  0.000  0.000
atomic mag. moment =     5.000000
N of occupied +U levels =  40.0000000
 --- exit write_ns ---
 Atomic wfc used for LDA+U Projector are NOT orthogonalized
     Starting wfc are  161 randomized atomic wfcs

     total cpu time spent up to now is      119.6 secs

     per-process dynamical memory:   419.9 Mb

     Self-consistent Calculation

     iteration #  1     ecut=    40.00 Ry     beta=0.70
     Davidson diagonalization with overlap
     ethr =  1.00E-02,  avg # of iterations =  5.3
 --- enter write_ns ---
 LDA+U parameters:
U( 2)     =  1.00000000
alpha( 2) =  0.00000000
atom    3   Tr[ns(na)] (up, down, total) =   3.04887  0.68398  3.73285
   spin  1
    eigenvalues: 
  0.509  0.513  0.598  0.705  0.723
    eigenvectors:
  0.202  0.175  0.004  0.155  0.464
  0.497  0.434  0.000  0.062  0.007
  0.019  0.035  0.876  0.036  0.034
  0.248  0.324  0.114  0.065  0.249
  0.034  0.032  0.006  0.682  0.246
    occupations:
  0.640 -0.008  0.036 -0.093  0.008
 -0.008  0.525 -0.005  0.002  0.049
  0.036 -0.005  0.602 -0.001 -0.005
 -0.093  0.002 -0.001  0.586 -0.009
  0.008  0.049 -0.005 -0.009  0.696
   spin  2
    eigenvalues: 
  0.072  0.081  0.083  0.215  0.234
    eigenvectors:
  0.626  0.005  0.183  0.000  0.186
  0.000  0.001  0.000  0.998  0.001
  0.225  0.014  0.761  0.000  0.000
  0.149  0.001  0.036  0.000  0.813
  0.000  0.979  0.020  0.001  0.000
    occupations:
  0.104 -0.001 -0.003  0.062 -0.000
 -0.001  0.215 -0.000  0.001  0.005
 -0.003 -0.000  0.080  0.004 -0.000
  0.062  0.001  0.004  0.204  0.000
 -0.000  0.005 -0.000  0.000  0.082
atomic mag. moment =     2.364897
atom    4   Tr[ns(na)] (up, down, total) =   2.94954  0.71764  3.66718
   spin  1
    eigenvalues: 
  0.470  0.505  0.607  0.676  0.692
    eigenvectors:
  0.000  0.624  0.001  0.310  0.065
  0.000  0.353  0.000  0.357  0.289
  0.000  0.021  0.000  0.333  0.646
  0.000  0.000  0.999  0.000  0.000
  0.999  0.001  0.000  0.000  0.000
    occupations:
  0.570  0.083  0.017  0.001 -0.000
  0.083  0.620 -0.022 -0.002  0.001
  0.017 -0.022  0.683 -0.000  0.000
  0.001 -0.002 -0.000  0.607  0.001
 -0.000  0.001  0.000  0.001  0.470
   spin  2
    eigenvalues: 
  0.071  0.086  0.102  0.214  0.244
    eigenvectors:
  0.009  0.002  0.000  0.000  0.989
  0.005  0.895  0.098  0.000  0.003
  0.001  0.097  0.902  0.000  0.000
  0.986  0.006  0.000  0.000  0.008
  0.000  0.000  0.000  1.000  0.000
    occupations:
  0.242  0.009  0.002 -0.015  0.000
  0.009  0.088 -0.005  0.000 -0.000
  0.002 -0.005  0.100  0.000  0.000
 -0.015  0.000  0.000  0.072  0.000
  0.000 -0.000  0.000  0.000  0.214
atomic mag. moment =     2.231898
atom    9   Tr[ns(na)] (up, down, total) =   4.04737  0.74322  4.79059
   spin  1
    eigenvalues: 
  0.567  0.569  0.957  0.976  0.978
    eigenvectors:
  0.103  0.086  0.001  0.807  0.003
  0.472  0.528  0.000  0.000  0.000
  0.000  0.000  0.352  0.000  0.647
  0.425  0.386  0.000  0.188  0.001
  0.000  0.000  0.646  0.004  0.350
    occupations:
  0.899 -0.004 -0.001 -0.160  0.000
 -0.004  0.568 -0.000  0.000 -0.002
 -0.001 -0.000  0.971 -0.000  0.010
 -0.160  0.000 -0.000  0.645 -0.001
  0.000 -0.002  0.010 -0.001  0.965
   spin  2
    eigenvalues: 
  0.088  0.089  0.096  0.234  0.235
    eigenvectors:
  0.002  0.854  0.000  0.065  0.078
  0.000  0.000  0.000  0.550  0.450
  0.997  0.003  0.000  0.000  0.000
  0.000  0.143  0.000  0.385  0.471
  0.000  0.000  1.000  0.000  0.000
    occupations:
  0.110  0.000 -0.000  0.051  0.000
  0.000  0.235  0.000 -0.001  0.000
 -0.000  0.000  0.088  0.000  0.000
  0.051 -0.001  0.000  0.214 -0.000
  0.000  0.000  0.000 -0.000  0.096
atomic mag. moment =     3.304152
atom   10   Tr[ns(na)] (up, down, total) =   4.24089  0.63679  4.87768
   spin  1
    eigenvalues: 
  0.592  0.702  0.980  0.981  0.986
    eigenvectors:
  0.000  0.996  0.000  0.002  0.002
  0.000  0.000  0.087  0.222  0.690
  0.001  0.000  0.711  0.287  0.000
  0.000  0.003  0.201  0.488  0.308
  0.998  0.000  0.001  0.000  0.000
    occupations:
  0.703  0.003 -0.004  0.016  0.002
  0.003  0.984  0.000  0.002 -0.000
 -0.004  0.000  0.980 -0.000 -0.015
  0.016  0.002 -0.000  0.981 -0.000
  0.002 -0.000 -0.015 -0.000  0.593
   spin  2
    eigenvalues: 
  0.070  0.083  0.090  0.182  0.213
    eigenvectors:
  0.015  0.000  0.000  0.985  0.000
  0.002  0.000  0.998  0.000  0.000
  0.000  1.000  0.000  0.000  0.000
  0.983  0.000  0.002  0.015  0.000
  0.000  0.000  0.000  0.000  1.000
    occupations:
  0.180 -0.000 -0.000 -0.014 -0.000
 -0.000  0.090 -0.000  0.001 -0.000
 -0.000 -0.000  0.083  0.000  0.001
 -0.014  0.001  0.000  0.072  0.000
 -0.000 -0.000  0.001  0.000  0.213
atomic mag. moment =     3.604095
atom   16   Tr[ns(na)] (up, down, total) =   3.03299  0.68377  3.71676
   spin  1
    eigenvalues: 
  0.507  0.513  0.596  0.682  0.735
    eigenvectors:
  0.134  0.253  0.006  0.258  0.349
  0.687  0.233  0.000  0.066  0.014
  0.012  0.044  0.861  0.017  0.065
  0.114  0.449  0.129  0.135  0.174
  0.052  0.021  0.004  0.524  0.398
    occupations:
  0.634  0.009  0.039 -0.089 -0.021
  0.009  0.523 -0.001 -0.003  0.049
  0.039 -0.001  0.602 -0.004 -0.014
 -0.089 -0.003 -0.004  0.584  0.015
 -0.021  0.049 -0.014  0.015  0.690
   spin  2
    eigenvalues: 
  0.071  0.082  0.083  0.214  0.234
    eigenvectors:
  0.646  0.005  0.163  0.000  0.186
  0.000  0.001  0.000  0.998  0.001
  0.201  0.017  0.782  0.000  0.000
  0.153  0.001  0.032  0.000  0.813
  0.000  0.976  0.022  0.001  0.000
    occupations:
  0.104  0.001 -0.003  0.062  0.000
  0.001  0.214  0.000 -0.001  0.005
 -0.003  0.000  0.081  0.004  0.000
  0.062 -0.001  0.004  0.204 -0.000
  0.000  0.005  0.000 -0.000  0.082
atomic mag. moment =     2.349223
atom   17   Tr[ns(na)] (up, down, total) =   2.89381  0.71572  3.60953
   spin  1
    eigenvalues: 
  0.467  0.498  0.580  0.666  0.682
    eigenvectors:
  0.001  0.578  0.009  0.282  0.131
  0.001  0.394  0.005  0.215  0.386
  0.000  0.026  0.003  0.502  0.469
  0.000  0.001  0.983  0.002  0.014
  0.998  0.002  0.000  0.000  0.000
    occupations:
  0.570  0.083  0.017 -0.004 -0.001
  0.083  0.606 -0.023 -0.011  0.001
  0.017 -0.023  0.669  0.005  0.001
 -0.004 -0.011  0.005  0.581  0.001
 -0.001  0.001  0.001  0.001  0.467
   spin  2
    eigenvalues: 
  0.071  0.086  0.101  0.214  0.244
    eigenvectors:
  0.009  0.002  0.000  0.000  0.989
  0.008  0.892  0.097  0.000  0.003
  0.001  0.097  0.903  0.000  0.000
  0.983  0.009  0.000  0.000  0.008
  0.000  0.000  0.000  1.000  0.000
    occupations:
  0.242  0.009  0.002 -0.015  0.000
  0.009  0.088 -0.004  0.001 -0.000
  0.002 -0.004  0.100  0.000  0.000
 -0.015  0.001  0.000  0.072  0.000
  0.000 -0.000  0.000  0.000  0.214
atomic mag. moment =     2.178083
atom   22   Tr[ns(na)] (up, down, total) =   3.96273  0.84908  4.81181
   spin  1
    eigenvalues: 
  0.550  0.562  0.928  0.943  0.980
    eigenvectors:
  0.008  0.029  0.929  0.034  0.000
  0.880  0.120  0.001  0.000  0.000
  0.000  0.000  0.000  0.013  0.987
  0.112  0.851  0.035  0.001  0.000
  0.000  0.000  0.035  0.952  0.013
    occupations:
  0.915  0.011 -0.000 -0.069  0.003
  0.011  0.552 -0.000  0.002 -0.002
 -0.000 -0.000  0.979  0.000 -0.004
 -0.069  0.002  0.000  0.574 -0.001
  0.003 -0.002 -0.004 -0.001  0.943
   spin  2
    eigenvalues: 
  0.093  0.127  0.129  0.246  0.255
    eigenvectors:
  0.000  0.988  0.000  0.001  0.012
  0.000  0.000  0.000  0.980  0.020
  0.999  0.000  0.001  0.000  0.000
  0.000  0.012  0.000  0.020  0.968
  0.001  0.000  0.999  0.000  0.000
    occupations:
  0.128 -0.001 -0.000  0.014  0.000
 -0.001  0.246 -0.000  0.001  0.000
 -0.000 -0.000  0.093 -0.000  0.001
  0.014  0.001 -0.000  0.253  0.000
  0.000  0.000  0.001  0.000  0.129
atomic mag. moment =     3.113649
atom   23   Tr[ns(na)] (up, down, total) =   4.02909  0.70123  4.73031
   spin  1
    eigenvalues: 
  0.523  0.571  0.971  0.981  0.984
    eigenvectors:
  0.000  0.998  0.001  0.000  0.001
  0.000  0.001  0.002  0.570  0.427
  0.002  0.000  0.043  0.418  0.537
  0.000  0.001  0.954  0.011  0.034
  0.998  0.000  0.000  0.001  0.001
    occupations:
  0.571 -0.011 -0.002  0.013 -0.000
 -0.011  0.982  0.002 -0.001 -0.001
 -0.002  0.002  0.981 -0.003  0.020
  0.013 -0.001 -0.003  0.971  0.001
 -0.000 -0.001  0.020  0.001  0.524
   spin  2
    eigenvalues: 
  0.070  0.085  0.093  0.215  0.237
    eigenvectors:
  0.009  0.000  0.000  0.000  0.991
  0.005  0.995  0.000  0.000  0.000
  0.000  0.000  0.999  0.000  0.000
  0.987  0.004  0.000  0.000  0.009
  0.000  0.000  0.000  1.000  0.000
    occupations:
  0.235  0.002  0.000 -0.016 -0.000
  0.002  0.085 -0.000 -0.001 -0.000
  0.000 -0.000  0.093 -0.000 -0.002
 -0.016 -0.001 -0.000  0.072  0.000
 -0.000 -0.000 -0.002  0.000  0.215
atomic mag. moment =     3.327860
N of occupied +U levels =  33.9367148
 --- exit write_ns ---

     negative rho (up, down):  0.302E-02 0.117E-02

     total cpu time spent up to now is      614.4 secs

     total energy              =   -2006.04805886 Ry
     Harris-Foulkes estimate   =   -2023.13819880 Ry
     estimated scf accuracy    <      30.14934538 Ry

     total magnetization       =    15.00 Bohr mag/cell
     absolute magnetization    =    30.08 Bohr mag/cell

     iteration #  2     ecut=    40.00 Ry     beta=0.70
     Davidson diagonalization with overlap
     ethr =  1.00E-02,  avg # of iterations =  7.0

     negative rho (up, down):  0.137E-01 0.714E-02

     total cpu time spent up to now is     1071.7 secs

     total energy              =   -1877.91554569 Ry
     Harris-Foulkes estimate   =   -2283.65927487 Ry
     estimated scf accuracy    <    4734.08634116 Ry

     total magnetization       =    15.00 Bohr mag/cell
     absolute magnetization    =    15.28 Bohr mag/cell

     iteration #  3     ecut=    40.00 Ry     beta=0.70
     Davidson diagonalization with overlap
     ethr =  1.00E-02,  avg # of iterations =  6.0

     negative rho (up, down):  0.787E-02 0.643E-02

     total cpu time spent up to now is     1557.7 secs

     total energy              =   -2018.98570031 Ry
     Harris-Foulkes estimate   =   -2029.75801421 Ry
     estimated scf accuracy    <      46.67961717 Ry

     total magnetization       =    15.00 Bohr mag/cell
     absolute magnetization    =    22.53 Bohr mag/cell

     iteration #  4     ecut=    40.00 Ry     beta=0.70
     Davidson diagonalization with overlap
     ethr =  1.00E-02,  avg # of iterations =  2.0

     negative rho (up, down):  0.695E-02 0.301E-02

     total cpu time spent up to now is     1785.2 secs

     total energy              =   -2024.59632867 Ry
     Harris-Foulkes estimate   =   -2028.32077849 Ry
     estimated scf accuracy    <      21.83315509 Ry

     total magnetization       =    15.00 Bohr mag/cell
     absolute magnetization    =    19.75 Bohr mag/cell

     iteration #  5     ecut=    40.00 Ry     beta=0.70
     Davidson diagonalization with overlap
     ethr =  9.45E-03,  avg # of iterations =  1.0

     negative rho (up, down):  0.854E-02 0.347E-02

     total cpu time spent up to now is     2005.3 secs

     total energy              =   -2024.00712015 Ry
     Harris-Foulkes estimate   =   -2027.97210180 Ry
     estimated scf accuracy    <      21.97509784 Ry

     total magnetization       =    15.00 Bohr mag/cell
     absolute magnetization    =    20.87 Bohr mag/cell

     iteration #  6     ecut=    40.00 Ry     beta=0.70
     Davidson diagonalization with overlap
     ethr =  9.45E-03,  avg # of iterations =  1.0

     negative rho (up, down):  0.595E-02 0.236E-02

     total cpu time spent up to now is     2246.6 secs

     total energy              =   -2025.55614184 Ry
     Harris-Foulkes estimate   =   -2027.57849126 Ry
     estimated scf accuracy    <      14.81788640 Ry

     total magnetization       =    15.00 Bohr mag/cell
     absolute magnetization    =    18.62 Bohr mag/cell

     iteration #  7     ecut=    40.00 Ry     beta=0.70
     Davidson diagonalization with overlap
     ethr =  6.41E-03,  avg # of iterations =  1.1

     negative rho (up, down):  0.635E-02 0.269E-02

     total cpu time spent up to now is     2477.4 secs

     total energy              =   -2025.93856401 Ry
     Harris-Foulkes estimate   =   -2027.05465972 Ry
     estimated scf accuracy    <       8.76574847 Ry

     total magnetization       =    15.00 Bohr mag/cell
     absolute magnetization    =    18.66 Bohr mag/cell

     iteration #  8     ecut=    40.00 Ry     beta=0.70
     Davidson diagonalization with overlap
     ethr =  3.79E-03,  avg # of iterations =  1.1

     negative rho (up, down):  0.107E-01 0.274E-02

     total cpu time spent up to now is     2698.7 secs

     total energy              =   -2026.17611344 Ry
     Harris-Foulkes estimate   =   -2026.68269100 Ry
     estimated scf accuracy    <       4.91137562 Ry

     total magnetization       =    15.00 Bohr mag/cell
     absolute magnetization    =    18.29 Bohr mag/cell

     iteration #  9     ecut=    40.00 Ry     beta=0.70
     Davidson diagonalization with overlap
     ethr =  2.13E-03,  avg # of iterations =  1.4

     negative rho (up, down):  0.695E-02 0.216E-02

     total cpu time spent up to now is     2918.2 secs

     total energy              =   -2026.48687706 Ry
     Harris-Foulkes estimate   =   -2026.55472553 Ry
     estimated scf accuracy    <       0.83072308 Ry

     total magnetization       =    15.00 Bohr mag/cell
     absolute magnetization    =    19.16 Bohr mag/cell

     iteration # 10     ecut=    40.00 Ry     beta=0.70
     Davidson diagonalization with overlap
     ethr =  3.60E-04,  avg # of iterations =  5.3

     negative rho (up, down):  0.672E-02 0.182E-02

     total cpu time spent up to now is     3178.6 secs

     total energy              =   -2026.47751106 Ry
     Harris-Foulkes estimate   =   -2026.55241800 Ry
     estimated scf accuracy    <       0.49070581 Ry

     total magnetization       =    15.00 Bohr mag/cell
     absolute magnetization    =    19.42 Bohr mag/cell

     iteration # 11     ecut=    40.00 Ry     beta=0.70
     Davidson diagonalization with overlap
     ethr =  2.12E-04,  avg # of iterations =  1.1

     negative rho (up, down):  0.501E-02 0.138E-02

     total cpu time spent up to now is     3394.5 secs

     total energy              =   -2026.50594776 Ry
     Harris-Foulkes estimate   =   -2026.57727457 Ry
     estimated scf accuracy    <       0.78955757 Ry

     total magnetization       =    15.00 Bohr mag/cell
     absolute magnetization    =    19.33 Bohr mag/cell

     iteration # 12     ecut=    40.00 Ry     beta=0.70
     Davidson diagonalization with overlap
     ethr =  2.12E-04,  avg # of iterations =  5.0

     negative rho (up, down):  0.848E-02 0.152E-02

     total cpu time spent up to now is     3652.4 secs

     total energy              =   -2026.44074562 Ry
     Harris-Foulkes estimate   =   -2026.64393980 Ry
     estimated scf accuracy    <       2.54558049 Ry

     total magnetization       =    15.00 Bohr mag/cell
     absolute magnetization    =    18.89 Bohr mag/cell

     iteration # 13     ecut=    40.00 Ry     beta=0.70
     Davidson diagonalization with overlap
     ethr =  2.12E-04,  avg # of iterations =  1.4

     negative rho (up, down):  0.535E-02 0.145E-02

     total cpu time spent up to now is     3879.7 secs

     total energy              =   -2026.50020608 Ry
     Harris-Foulkes estimate   =   -2026.58307315 Ry
     estimated scf accuracy    <       0.46434744 Ry

     total magnetization       =    15.00 Bohr mag/cell
     absolute magnetization    =    19.26 Bohr mag/cell

     iteration # 14     ecut=    40.00 Ry     beta=0.70
     Davidson diagonalization with overlap
     ethr =  2.01E-04,  avg # of iterations =  1.8

     negative rho (up, down):  0.514E-02 0.144E-02

     total cpu time spent up to now is     4096.2 secs

     total energy              =   -2026.52618979 Ry
     Harris-Foulkes estimate   =   -2026.57311189 Ry
     estimated scf accuracy    <       0.29852704 Ry

     total magnetization       =    15.00 Bohr mag/cell
     absolute magnetization    =    19.34 Bohr mag/cell

     iteration # 15     ecut=    40.00 Ry     beta=0.70
     Davidson diagonalization with overlap
     ethr =  1.29E-04,  avg # of iterations =  3.6

     negative rho (up, down):  0.442E-02 0.153E-02

     total cpu time spent up to now is     4326.4 secs

     total energy              =   -2026.54025436 Ry
     Harris-Foulkes estimate   =   -2026.55997879 Ry
     estimated scf accuracy    <       0.08941124 Ry

     total magnetization       =    15.00 Bohr mag/cell
     absolute magnetization    =    19.33 Bohr mag/cell

     iteration # 16     ecut=    40.00 Ry     beta=0.70
     Davidson diagonalization with overlap
     ethr =  3.87E-05,  avg # of iterations =  5.2

     negative rho (up, down):  0.530E-02 0.170E-02

     total cpu time spent up to now is     4581.3 secs

     total energy              =   -2026.52489890 Ry
     Harris-Foulkes estimate   =   -2026.58447794 Ry
     estimated scf accuracy    <       0.37058514 Ry

     total magnetization       =    15.00 Bohr mag/cell
     absolute magnetization    =    19.20 Bohr mag/cell

     iteration # 17     ecut=    40.00 Ry     beta=0.70
     Davidson diagonalization with overlap
     ethr =  3.87E-05,  avg # of iterations =  3.9

     negative rho (up, down):  0.494E-02 0.169E-02

     total cpu time spent up to now is     4817.6 secs

     total energy              =   -2026.55212492 Ry
     Harris-Foulkes estimate   =   -2026.55942508 Ry
     estimated scf accuracy    <       0.05132562 Ry

     total magnetization       =    15.00 Bohr mag/cell
     absolute magnetization    =    19.21 Bohr mag/cell

     iteration # 18     ecut=    40.00 Ry     beta=0.70
     Davidson diagonalization with overlap
     ethr =  2.22E-05,  avg # of iterations =  1.0

     negative rho (up, down):  0.530E-02 0.195E-02

     total cpu time spent up to now is     5033.4 secs

     total energy              =   -2026.55145025 Ry
     Harris-Foulkes estimate   =   -2026.55787601 Ry
     estimated scf accuracy    <       0.03018406 Ry

     total magnetization       =    15.00 Bohr mag/cell
     absolute magnetization    =    19.24 Bohr mag/cell

     iteration # 19     ecut=    40.00 Ry     beta=0.70
     Davidson diagonalization with overlap
     ethr =  1.31E-05,  avg # of iterations =  4.0

     negative rho (up, down):  0.587E-02 0.178E-02

     total cpu time spent up to now is     5278.0 secs

     total energy              =   -2026.53288503 Ry
     Harris-Foulkes estimate   =   -2026.57807042 Ry
     estimated scf accuracy    <       0.44147593 Ry

     total magnetization       =    15.00 Bohr mag/cell
     absolute magnetization    =    19.16 Bohr mag/cell

     iteration # 20     ecut=    40.00 Ry     beta=0.70
     Davidson diagonalization with overlap
     ethr =  1.31E-05,  avg # of iterations =  2.9

     negative rho (up, down):  0.490E-02 0.174E-02

     total cpu time spent up to now is     5512.8 secs

     total energy              =   -2026.55560787 Ry
     Harris-Foulkes estimate   =   -2026.55738127 Ry
     estimated scf accuracy    <       0.01004788 Ry

     total magnetization       =    15.00 Bohr mag/cell
     absolute magnetization    =    19.21 Bohr mag/cell

     iteration # 21     ecut=    40.00 Ry     beta=0.70
     Davidson diagonalization with overlap
     ethr =  4.35E-06,  avg # of iterations =  2.3

     negative rho (up, down):  0.506E-02 0.174E-02

     total cpu time spent up to now is     5737.8 secs

     total energy              =   -2026.55308536 Ry
     Harris-Foulkes estimate   =   -2026.56050930 Ry
     estimated scf accuracy    <       0.05828738 Ry

     total magnetization       =    15.00 Bohr mag/cell
     absolute magnetization    =    19.11 Bohr mag/cell

     iteration # 22     ecut=    40.00 Ry     beta=0.70
     Davidson diagonalization with overlap
     ethr =  4.35E-06,  avg # of iterations =  1.4

     negative rho (up, down):  0.496E-02 0.175E-02

     total cpu time spent up to now is     5955.6 secs

     total energy              =   -2026.55575495 Ry
     Harris-Foulkes estimate   =   -2026.55809935 Ry
     estimated scf accuracy    <       0.01973718 Ry

     total magnetization       =    15.00 Bohr mag/cell
     absolute magnetization    =    19.15 Bohr mag/cell

     iteration # 23     ecut=    40.00 Ry     beta=0.70
     Davidson diagonalization with overlap
     ethr =  4.35E-06,  avg # of iterations =  1.0

     negative rho (up, down):  0.488E-02 0.174E-02

     total cpu time spent up to now is     6173.1 secs

     total energy              =   -2026.55667889 Ry
     Harris-Foulkes estimate   =   -2026.55734290 Ry
     estimated scf accuracy    <       0.00740715 Ry

     total magnetization       =    15.00 Bohr mag/cell
     absolute magnetization    =    19.15 Bohr mag/cell

     iteration # 24     ecut=    40.00 Ry     beta=0.70
     Davidson diagonalization with overlap
     ethr =  3.21E-06,  avg # of iterations =  1.0

     negative rho (up, down):  0.488E-02 0.174E-02

     total cpu time spent up to now is     6405.4 secs

     total energy              =   -2026.55668485 Ry
     Harris-Foulkes estimate   =   -2026.55751271 Ry
     estimated scf accuracy    <       0.00670737 Ry

     total magnetization       =    15.00 Bohr mag/cell
     absolute magnetization    =    19.14 Bohr mag/cell

     iteration # 25     ecut=    40.00 Ry     beta=0.70
     Davidson diagonalization with overlap
     ethr =  2.90E-06,  avg # of iterations =  1.0

     negative rho (up, down):  0.486E-02 0.174E-02

     total cpu time spent up to now is     6628.2 secs

     total energy              =   -2026.55708677 Ry
     Harris-Foulkes estimate   =   -2026.55728257 Ry
     estimated scf accuracy    <       0.00259958 Ry

     total magnetization       =    15.00 Bohr mag/cell
     absolute magnetization    =    19.13 Bohr mag/cell

     iteration # 26     ecut=    40.00 Ry     beta=0.70
     Davidson diagonalization with overlap
     ethr =  1.13E-06,  avg # of iterations =  1.0

     negative rho (up, down):  0.487E-02 0.174E-02

     total cpu time spent up to now is     6840.8 secs

     total energy              =   -2026.55698322 Ry
     Harris-Foulkes estimate   =   -2026.55741177 Ry
     estimated scf accuracy    <       0.00149771 Ry

     total magnetization       =    15.00 Bohr mag/cell
     absolute magnetization    =    19.08 Bohr mag/cell

     iteration # 27     ecut=    40.00 Ry     beta=0.70
     Davidson diagonalization with overlap
     ethr =  6.48E-07,  avg # of iterations =  1.0

     negative rho (up, down):  0.488E-02 0.174E-02

     total cpu time spent up to now is     7053.6 secs

     total energy              =   -2026.55694338 Ry
     Harris-Foulkes estimate   =   -2026.55752409 Ry
     estimated scf accuracy    <       0.00439376 Ry

     total magnetization       =    15.00 Bohr mag/cell
     absolute magnetization    =    19.10 Bohr mag/cell

     iteration # 28     ecut=    40.00 Ry     beta=0.70
     Davidson diagonalization with overlap
     ethr =  6.48E-07,  avg # of iterations =  1.0

     negative rho (up, down):  0.485E-02 0.174E-02

     total cpu time spent up to now is     7265.9 secs

     total energy              =   -2026.55724245 Ry
     Harris-Foulkes estimate   =   -2026.55730087 Ry
     estimated scf accuracy    <       0.00090223 Ry

     total magnetization       =    15.00 Bohr mag/cell
     absolute magnetization    =    19.09 Bohr mag/cell

     iteration # 29     ecut=    40.00 Ry     beta=0.70
     Davidson diagonalization with overlap
     ethr =  3.91E-07,  avg # of iterations =  1.0

     negative rho (up, down):  0.486E-02 0.174E-02

     total cpu time spent up to now is     7485.2 secs

     total energy              =   -2026.55718629 Ry
     Harris-Foulkes estimate   =   -2026.55743804 Ry
     estimated scf accuracy    <       0.00135562 Ry

     total magnetization       =    15.00 Bohr mag/cell
     absolute magnetization    =    19.06 Bohr mag/cell

     iteration # 30     ecut=    40.00 Ry     beta=0.70
     Davidson diagonalization with overlap
     ethr =  3.91E-07,  avg # of iterations =  1.0

     negative rho (up, down):  0.486E-02 0.174E-02

     total cpu time spent up to now is     7702.2 secs

     total energy              =   -2026.55723620 Ry
     Harris-Foulkes estimate   =   -2026.55740348 Ry
     estimated scf accuracy    <       0.00119190 Ry

     total magnetization       =    15.00 Bohr mag/cell
     absolute magnetization    =    19.05 Bohr mag/cell

     iteration # 31     ecut=    40.00 Ry     beta=0.70
     Davidson diagonalization with overlap
     ethr =  3.91E-07,  avg # of iterations =  1.0

     negative rho (up, down):  0.486E-02 0.173E-02

     total cpu time spent up to now is     7932.3 secs

     total energy              =   -2026.55727499 Ry
     Harris-Foulkes estimate   =   -2026.55738953 Ry
     estimated scf accuracy    <       0.00089842 Ry

     total magnetization       =    15.00 Bohr mag/cell
     absolute magnetization    =    19.04 Bohr mag/cell

     iteration # 32     ecut=    40.00 Ry     beta=0.70
     Davidson diagonalization with overlap
     ethr =  3.89E-07,  avg # of iterations =  1.0

     negative rho (up, down):  0.486E-02 0.173E-02

     total cpu time spent up to now is     8159.2 secs

     total energy              =   -2026.55731026 Ry
     Harris-Foulkes estimate   =   -2026.55735198 Ry
     estimated scf accuracy    <       0.00034663 Ry

     total magnetization       =    15.00 Bohr mag/cell
     absolute magnetization    =    19.04 Bohr mag/cell

     iteration # 33     ecut=    40.00 Ry     beta=0.70
     Davidson diagonalization with overlap
     ethr =  1.50E-07,  avg # of iterations =  1.0

     negative rho (up, down):  0.486E-02 0.173E-02

     total cpu time spent up to now is     8386.5 secs

     total energy              =   -2026.55729045 Ry
     Harris-Foulkes estimate   =   -2026.55738032 Ry
     estimated scf accuracy    <       0.00105629 Ry

     total magnetization       =    15.00 Bohr mag/cell
     absolute magnetization    =    19.04 Bohr mag/cell

     iteration # 34     ecut=    40.00 Ry     beta=0.70
     Davidson diagonalization with overlap
     ethr =  1.50E-07,  avg # of iterations =  1.0

     negative rho (up, down):  0.486E-02 0.173E-02

     total cpu time spent up to now is     8613.3 secs

     total energy              =   -2026.55728973 Ry
     Harris-Foulkes estimate   =   -2026.55736925 Ry
     estimated scf accuracy    <       0.00046358 Ry

     total magnetization       =    15.00 Bohr mag/cell
     absolute magnetization    =    19.04 Bohr mag/cell

     iteration # 35     ecut=    40.00 Ry     beta=0.70
     Davidson diagonalization with overlap
     ethr =  1.50E-07,  avg # of iterations =  1.0

     negative rho (up, down):  0.486E-02 0.173E-02

     total cpu time spent up to now is     8840.5 secs

     total energy              =   -2026.55723986 Ry
     Harris-Foulkes estimate   =   -2026.55743415 Ry
     estimated scf accuracy    <       0.00130756 Ry

     total magnetization       =    15.00 Bohr mag/cell
     absolute magnetization    =    19.03 Bohr mag/cell

     iteration # 36     ecut=    40.00 Ry     beta=0.70
     Davidson diagonalization with overlap
     ethr =  1.50E-07,  avg # of iterations =  1.0

     negative rho (up, down):  0.486E-02 0.173E-02

     total cpu time spent up to now is     9069.2 secs

     total energy              =   -2026.55730186 Ry
     Harris-Foulkes estimate   =   -2026.55740908 Ry
     estimated scf accuracy    <       0.00103745 Ry

     total magnetization       =    15.00 Bohr mag/cell
     absolute magnetization    =    19.02 Bohr mag/cell

     iteration # 37     ecut=    40.00 Ry     beta=0.70
     Davidson diagonalization with overlap
     ethr =  1.50E-07,  avg # of iterations =  1.0

     negative rho (up, down):  0.486E-02 0.173E-02

     total cpu time spent up to now is     9297.4 secs

     total energy              =   -2026.55733484 Ry
     Harris-Foulkes estimate   =   -2026.55735669 Ry
     estimated scf accuracy    <       0.00009176 Ry

     total magnetization       =    15.00 Bohr mag/cell
     absolute magnetization    =    19.02 Bohr mag/cell

     iteration # 38     ecut=    40.00 Ry     beta=0.70
     Davidson diagonalization with overlap
     ethr =  3.97E-08,  avg # of iterations =  1.0

     negative rho (up, down):  0.486E-02 0.173E-02

     total cpu time spent up to now is     9524.4 secs

     total energy              =   -2026.55732123 Ry
     Harris-Foulkes estimate   =   -2026.55737367 Ry
     estimated scf accuracy    <       0.00036693 Ry

     total magnetization       =    15.00 Bohr mag/cell
     absolute magnetization    =    19.03 Bohr mag/cell

     iteration # 39     ecut=    40.00 Ry     beta=0.70
     Davidson diagonalization with overlap
     ethr =  3.97E-08,  avg # of iterations =  1.0

     negative rho (up, down):  0.486E-02 0.173E-02

     total cpu time spent up to now is     9752.9 secs

     total energy              =   -2026.55734568 Ry
     Harris-Foulkes estimate   =   -2026.55736140 Ry
     estimated scf accuracy    <       0.00013740 Ry

     total magnetization       =    15.00 Bohr mag/cell
     absolute magnetization    =    19.02 Bohr mag/cell

     iteration # 40     ecut=    40.00 Ry     beta=0.70
     Davidson diagonalization with overlap
     ethr =  3.97E-08,  avg # of iterations =  1.0

     negative rho (up, down):  0.486E-02 0.173E-02

     total cpu time spent up to now is     9971.0 secs

     total energy              =   -2026.55735567 Ry
     Harris-Foulkes estimate   =   -2026.55735587 Ry
     estimated scf accuracy    <       0.00002707 Ry

     total magnetization       =    15.00 Bohr mag/cell
     absolute magnetization    =    19.01 Bohr mag/cell

     iteration # 41     ecut=    40.00 Ry     beta=0.70
     Davidson diagonalization with overlap
     ethr =  1.17E-08,  avg # of iterations =  1.0

     negative rho (up, down):  0.486E-02 0.173E-02

     total cpu time spent up to now is    10189.3 secs

     total energy              =   -2026.55735429 Ry
     Harris-Foulkes estimate   =   -2026.55735899 Ry
     estimated scf accuracy    <       0.00002534 Ry

     total magnetization       =    15.00 Bohr mag/cell
     absolute magnetization    =    19.01 Bohr mag/cell

     iteration # 42     ecut=    40.00 Ry     beta=0.70
     Davidson diagonalization with overlap
     ethr =  1.10E-08,  avg # of iterations =  1.0

     negative rho (up, down):  0.486E-02 0.173E-02

     total cpu time spent up to now is    10405.0 secs

     total energy              =   -2026.55735646 Ry
     Harris-Foulkes estimate   =   -2026.55735810 Ry
     estimated scf accuracy    <       0.00002513 Ry

     total magnetization       =    15.00 Bohr mag/cell
     absolute magnetization    =    19.01 Bohr mag/cell

     iteration # 43     ecut=    40.00 Ry     beta=0.70
     Davidson diagonalization with overlap
     ethr =  1.09E-08,  avg # of iterations =  1.0

     negative rho (up, down):  0.486E-02 0.173E-02

     total cpu time spent up to now is    10623.6 secs

     total energy              =   -2026.55735632 Ry
     Harris-Foulkes estimate   =   -2026.55736040 Ry
     estimated scf accuracy    <       0.00006597 Ry

     total magnetization       =    15.00 Bohr mag/cell
     absolute magnetization    =    19.01 Bohr mag/cell

     iteration # 44     ecut=    40.00 Ry     beta=0.70
     Davidson diagonalization with overlap
     ethr =  1.09E-08,  avg # of iterations =  1.0

     negative rho (up, down):  0.486E-02 0.173E-02

     total cpu time spent up to now is    10835.8 secs

     total energy              =   -2026.55735863 Ry
     Harris-Foulkes estimate   =   -2026.55736042 Ry
     estimated scf accuracy    <       0.00002468 Ry

     total magnetization       =    15.00 Bohr mag/cell
     absolute magnetization    =    19.00 Bohr mag/cell

     iteration # 45     ecut=    40.00 Ry     beta=0.70
     Davidson diagonalization with overlap
     ethr =  1.07E-08,  avg # of iterations =  1.0

     negative rho (up, down):  0.486E-02 0.173E-02

     total cpu time spent up to now is    11054.4 secs

     total energy              =   -2026.55735932 Ry
     Harris-Foulkes estimate   =   -2026.55736295 Ry
     estimated scf accuracy    <       0.00001602 Ry

     total magnetization       =    15.00 Bohr mag/cell
     absolute magnetization    =    18.99 Bohr mag/cell

     iteration # 46     ecut=    40.00 Ry     beta=0.70
     Davidson diagonalization with overlap
     ethr =  6.93E-09,  avg # of iterations =  2.0

     negative rho (up, down):  0.486E-02 0.173E-02

     total cpu time spent up to now is    11284.4 secs

     total energy              =   -2026.55734590 Ry
     Harris-Foulkes estimate   =   -2026.55737452 Ry
     estimated scf accuracy    <       0.00022123 Ry

     total magnetization       =    15.00 Bohr mag/cell
     absolute magnetization    =    18.99 Bohr mag/cell

     iteration # 47     ecut=    40.00 Ry     beta=0.70
     Davidson diagonalization with overlap
     ethr =  6.93E-09,  avg # of iterations =  1.6

     negative rho (up, down):  0.486E-02 0.173E-02

     total cpu time spent up to now is    11532.8 secs

     total energy              =   -2026.55735766 Ry
     Harris-Foulkes estimate   =   -2026.55736452 Ry
     estimated scf accuracy    <       0.00004610 Ry

     total magnetization       =    15.00 Bohr mag/cell
     absolute magnetization    =    19.00 Bohr mag/cell

     iteration # 48     ecut=    40.00 Ry     beta=0.70
     Davidson diagonalization with overlap
     ethr =  6.93E-09,  avg # of iterations =  1.0

     negative rho (up, down):  0.486E-02 0.173E-02

     total cpu time spent up to now is    11778.7 secs

     total energy              =   -2026.55736042 Ry
     Harris-Foulkes estimate   =   -2026.55736308 Ry
     estimated scf accuracy    <       0.00002029 Ry

     total magnetization       =    15.00 Bohr mag/cell
     absolute magnetization    =    18.99 Bohr mag/cell

     iteration # 49     ecut=    40.00 Ry     beta=0.70
     Davidson diagonalization with overlap
     ethr =  6.93E-09,  avg # of iterations =  1.0

     negative rho (up, down):  0.486E-02 0.173E-02

     total cpu time spent up to now is    12007.9 secs

     total energy              =   -2026.55735995 Ry
     Harris-Foulkes estimate   =   -2026.55736404 Ry
     estimated scf accuracy    <       0.00003391 Ry

     total magnetization       =    15.00 Bohr mag/cell
     absolute magnetization    =    18.99 Bohr mag/cell

     iteration # 50     ecut=    40.00 Ry     beta=0.70
     Davidson diagonalization with overlap
     ethr =  6.93E-09,  avg # of iterations =  1.0

     negative rho (up, down):  0.486E-02 0.173E-02

     total cpu time spent up to now is    12235.8 secs

     total energy              =   -2026.55736114 Ry
     Harris-Foulkes estimate   =   -2026.55736321 Ry
     estimated scf accuracy    <       0.00001260 Ry

     total magnetization       =    15.00 Bohr mag/cell
     absolute magnetization    =    18.99 Bohr mag/cell

     iteration # 51     ecut=    40.00 Ry     beta=0.70
     Davidson diagonalization with overlap
     ethr =  5.45E-09,  avg # of iterations =  1.0

     negative rho (up, down):  0.486E-02 0.173E-02

     total cpu time spent up to now is    12467.5 secs

     total energy              =   -2026.55736188 Ry
     Harris-Foulkes estimate   =   -2026.55736250 Ry
     estimated scf accuracy    <       0.00000437 Ry

     total magnetization       =    15.00 Bohr mag/cell
     absolute magnetization    =    18.99 Bohr mag/cell

     iteration # 52     ecut=    40.00 Ry     beta=0.70
     Davidson diagonalization with overlap
     ethr =  1.89E-09,  avg # of iterations =  1.0

     negative rho (up, down):  0.486E-02 0.173E-02

     total cpu time spent up to now is    12698.3 secs

     total energy              =   -2026.55736186 Ry
     Harris-Foulkes estimate   =   -2026.55736245 Ry
     estimated scf accuracy    <       0.00000518 Ry

     total magnetization       =    15.00 Bohr mag/cell
     absolute magnetization    =    18.99 Bohr mag/cell

     iteration # 53     ecut=    40.00 Ry     beta=0.70
     Davidson diagonalization with overlap
     ethr =  1.89E-09,  avg # of iterations =  1.0

     negative rho (up, down):  0.486E-02 0.173E-02

     total cpu time spent up to now is    12930.4 secs

     total energy              =   -2026.55736206 Ry
     Harris-Foulkes estimate   =   -2026.55736235 Ry
     estimated scf accuracy    <       0.00000334 Ry

     total magnetization       =    15.00 Bohr mag/cell
     absolute magnetization    =    18.99 Bohr mag/cell

     iteration # 54     ecut=    40.00 Ry     beta=0.70
     Davidson diagonalization with overlap
     ethr =  1.45E-09,  avg # of iterations =  1.0

     negative rho (up, down):  0.486E-02 0.173E-02

     total cpu time spent up to now is    13160.5 secs

     total energy              =   -2026.55736231 Ry
     Harris-Foulkes estimate   =   -2026.55736231 Ry
     estimated scf accuracy    <       0.00000139 Ry

     total magnetization       =    15.00 Bohr mag/cell
     absolute magnetization    =    18.99 Bohr mag/cell

     iteration # 55     ecut=    40.00 Ry     beta=0.70
     Davidson diagonalization with overlap
     ethr =  6.03E-10,  avg # of iterations =  1.0

     negative rho (up, down):  0.486E-02 0.173E-02

     total cpu time spent up to now is    13382.6 secs

     total energy              =   -2026.55736222 Ry
     Harris-Foulkes estimate   =   -2026.55736250 Ry
     estimated scf accuracy    <       0.00000168 Ry

     total magnetization       =    15.00 Bohr mag/cell
     absolute magnetization    =    18.99 Bohr mag/cell

     iteration # 56     ecut=    40.00 Ry     beta=0.70
     Davidson diagonalization with overlap
     ethr =  6.03E-10,  avg # of iterations =  1.5

     negative rho (up, down):  0.486E-02 0.173E-02

     total cpu time spent up to now is    13602.2 secs

     total energy              =   -2026.55736153 Ry
     Harris-Foulkes estimate   =   -2026.55736326 Ry
     estimated scf accuracy    <       0.00001391 Ry

     total magnetization       =    15.00 Bohr mag/cell
     absolute magnetization    =    18.99 Bohr mag/cell

     iteration # 57     ecut=    40.00 Ry     beta=0.70
     Davidson diagonalization with overlap
     ethr =  6.03E-10,  avg # of iterations =  1.5

     negative rho (up, down):  0.486E-02 0.173E-02

     total cpu time spent up to now is    13823.4 secs

     End of self-consistent calculation
 --- enter write_ns ---
 LDA+U parameters:
U( 2)     =  1.00000000
alpha( 2) =  0.00000000
atom    3   Tr[ns(na)] (up, down, total) =   3.49426  1.19469  4.68895
   spin  1
    eigenvalues: 
  0.462  0.505  0.679  0.873  0.975
    eigenvectors:
  0.003  0.220  0.002  0.000  0.775
  0.989  0.010  0.000  0.000  0.000
  0.000  0.000  0.997  0.000  0.002
  0.008  0.769  0.001  0.000  0.222
  0.000  0.000  0.000  1.000  0.000
    occupations:
  0.869 -0.004  0.013 -0.195 -0.000
 -0.004  0.463  0.001 -0.003 -0.007
  0.013  0.001  0.680 -0.006  0.002
 -0.195 -0.003 -0.006  0.609 -0.000
 -0.000 -0.007  0.002 -0.000  0.873
   spin  2
    eigenvalues: 
  0.119  0.146  0.179  0.365  0.385
    eigenvectors:
  0.764  0.000  0.016  0.011  0.209
  0.000  0.003  0.000  0.950  0.047
  0.017  0.009  0.974  0.000  0.000
  0.219  0.000  0.002  0.037  0.743
  0.000  0.988  0.009  0.003  0.000
    occupations:
  0.178 -0.002 -0.004  0.110  0.000
 -0.002  0.365  0.000 -0.004  0.011
 -0.004  0.000  0.178  0.008 -0.003
  0.110 -0.004  0.008  0.326 -0.000
  0.000  0.011 -0.003 -0.000  0.147
atomic mag. moment =     2.299576
atom    4   Tr[ns(na)] (up, down, total) =   3.40963  1.28418  4.69380
   spin  1
    eigenvalues: 
  0.481  0.524  0.588  0.837  0.979
    eigenvectors:
  0.002  0.993  0.000  0.002  0.004
  0.000  0.001  0.017  0.982  0.000
  0.000  0.000  0.983  0.017  0.000
  0.000  0.004  0.000  0.000  0.996
  0.998  0.002  0.000  0.000  0.000
    occupations:
  0.526 -0.012 -0.001  0.028  0.002
 -0.012  0.833  0.032  0.003  0.000
 -0.001  0.032  0.592  0.002 -0.001
  0.028  0.003  0.002  0.978 -0.000
  0.002  0.000 -0.001 -0.000  0.481
   spin  2
    eigenvalues: 
  0.123  0.161  0.212  0.382  0.406
    eigenvectors:
  0.002  0.004  0.000  0.001  0.992
  0.002  0.952  0.042  0.000  0.004
  0.000  0.042  0.958  0.000  0.000
  0.996  0.002  0.000  0.000  0.002
  0.000  0.000  0.000  0.999  0.001
    occupations:
  0.404  0.015  0.004 -0.013  0.001
  0.015  0.164 -0.010  0.001 -0.000
  0.004 -0.010  0.210  0.000 -0.000
 -0.013  0.001  0.000  0.123  0.000
  0.001 -0.000 -0.000  0.000  0.383
atomic mag. moment =     2.125445
atom    9   Tr[ns(na)] (up, down, total) =   3.41577  1.31870  4.73447
   spin  1
    eigenvalues: 
  0.496  0.506  0.626  0.816  0.972
    eigenvectors:
  0.012  0.152  0.000  0.000  0.836
  0.928  0.072  0.000  0.000  0.000
  0.000  0.000  0.983  0.017  0.000
  0.059  0.776  0.000  0.000  0.164
  0.000  0.000  0.017  0.983  0.000
    occupations:
  0.895  0.002 -0.001 -0.173 -0.000
  0.002  0.496  0.002  0.002 -0.000
 -0.001  0.002  0.629 -0.001 -0.025
 -0.173  0.002 -0.001  0.582  0.002
 -0.000 -0.000 -0.025  0.002  0.813
   spin  2
    eigenvalues: 
  0.146  0.182  0.200  0.394  0.396
    eigenvectors:
  0.824  0.000  0.000  0.153  0.023
  0.000  0.000  0.000  0.125  0.875
  0.000  0.038  0.962  0.000  0.000
  0.176  0.000  0.000  0.722  0.102
  0.000  0.962  0.038  0.000  0.000
    occupations:
  0.190  0.001  0.000  0.095 -0.000
  0.001  0.396 -0.000  0.000  0.000
  0.000 -0.000  0.199  0.000  0.003
  0.095  0.000  0.000  0.351 -0.000
 -0.000  0.000  0.003 -0.000  0.183
atomic mag. moment =     2.097073
atom   10   Tr[ns(na)] (up, down, total) =   3.53990  1.13997  4.67987
   spin  1
    eigenvalues: 
  0.471  0.503  0.724  0.865  0.977
    eigenvectors:
  0.000  0.996  0.000  0.000  0.004
  0.000  0.000  0.000  0.967  0.033
  0.001  0.000  0.999  0.000  0.000
  0.000  0.004  0.000  0.033  0.963
  0.999  0.000  0.001  0.000  0.000
    occupations:
  0.505 -0.007  0.001  0.029 -0.000
 -0.007  0.868 -0.001 -0.020  0.001
  0.001 -0.001  0.724  0.000  0.006
  0.029 -0.020  0.000  0.972  0.000
 -0.000  0.001  0.006  0.000  0.471
   spin  2
    eigenvalues: 
  0.113  0.169  0.182  0.310  0.366
    eigenvectors:
  0.005  0.000  0.000  0.995  0.000
  0.002  0.998  0.000  0.000  0.000
  0.000  0.000  1.000  0.000  0.000
  0.993  0.002  0.000  0.005  0.000
  0.000  0.000  0.000  0.000  1.000
    occupations:
  0.309  0.000 -0.000 -0.014 -0.000
  0.000  0.169 -0.000  0.002 -0.000
 -0.000 -0.000  0.182 -0.000  0.002
 -0.014  0.002 -0.000  0.114  0.000
 -0.000 -0.000  0.002  0.000  0.366
atomic mag. moment =     2.399937
atom   16   Tr[ns(na)] (up, down, total) =   3.49220  1.19698  4.68918
   spin  1
    eigenvalues: 
  0.463  0.506  0.675  0.873  0.975
    eigenvectors:
  0.003  0.220  0.002  0.000  0.775
  0.987  0.013  0.000  0.000  0.000
  0.000  0.000  0.997  0.000  0.003
  0.009  0.768  0.001  0.000  0.222
  0.000  0.000  0.000  1.000  0.000
    occupations:
  0.870  0.005  0.014 -0.195  0.000
  0.005  0.464 -0.000  0.003 -0.007
  0.014 -0.000  0.676 -0.006 -0.000
 -0.195  0.003 -0.006  0.610 -0.000
  0.000 -0.007 -0.000 -0.000  0.873
   spin  2
    eigenvalues: 
  0.120  0.147  0.179  0.365  0.386
    eigenvectors:
  0.764  0.000  0.015  0.010  0.210
  0.000  0.003  0.000  0.953  0.044
  0.017  0.011  0.972  0.000  0.000
  0.219  0.000  0.002  0.034  0.745
  0.000  0.986  0.011  0.003  0.000
    occupations:
  0.179  0.002 -0.004  0.110 -0.000
  0.002  0.366 -0.000  0.004  0.011
 -0.004 -0.000  0.178  0.008  0.003
  0.110  0.004  0.008  0.327  0.000
 -0.000  0.011  0.003  0.000  0.148
atomic mag. moment =     2.295220
atom   17   Tr[ns(na)] (up, down, total) =   3.41575  1.27566  4.69141
   spin  1
    eigenvalues: 
  0.480  0.525  0.596  0.834  0.980
    eigenvectors:
  0.001  0.994  0.000  0.001  0.004
  0.000  0.001  0.016  0.983  0.000
  0.000  0.000  0.983  0.016  0.000
  0.000  0.004  0.000  0.000  0.996
  0.998  0.001  0.000  0.000  0.000
    occupations:
  0.527 -0.010 -0.002  0.027  0.002
 -0.010  0.830  0.030  0.001  0.000
 -0.002  0.030  0.600  0.001  0.002
  0.027  0.001  0.001  0.979 -0.000
  0.002  0.000  0.002 -0.000  0.480
   spin  2
    eigenvalues: 
  0.122  0.159  0.210  0.380  0.405
    eigenvectors:
  0.003  0.005  0.000  0.001  0.992
  0.002  0.950  0.043  0.000  0.005
  0.000  0.042  0.957  0.000  0.000
  0.995  0.002  0.000  0.000  0.002
  0.000  0.000  0.000  0.999  0.001
    occupations:
  0.403  0.017  0.004 -0.013  0.001
  0.017  0.163 -0.010  0.001 -0.000
  0.004 -0.010  0.208  0.000 -0.000
 -0.013  0.001  0.000  0.123  0.000
  0.001 -0.000 -0.000  0.000  0.380
atomic mag. moment =     2.140094
atom   22   Tr[ns(na)] (up, down, total) =   2.93562  1.91904  4.85465
   spin  1
    eigenvalues: 
  0.515  0.535  0.550  0.616  0.720
    eigenvectors:
  0.957  0.002  0.042  0.000  0.000
  0.003  0.994  0.003  0.000  0.000
  0.000  0.000  0.000  0.036  0.964
  0.041  0.004  0.955  0.000  0.000
  0.000  0.000  0.000  0.964  0.036
    occupations:
  0.516  0.001 -0.002  0.007  0.001
  0.001  0.535  0.001  0.001  0.000
 -0.002  0.001  0.716  0.000 -0.019
  0.007  0.001  0.000  0.548 -0.001
  0.001  0.000 -0.019 -0.001  0.620
   spin  2
    eigenvalues: 
  0.279  0.340  0.351  0.472  0.477
    eigenvectors:
  0.000  0.000  0.999  0.001  0.000
  0.000  0.000  0.000  0.034  0.966
  1.000  0.000  0.000  0.000  0.000
  0.000  0.000  0.001  0.965  0.034
  0.000  1.000  0.000  0.000  0.000
    occupations:
  0.351 -0.000  0.000  0.004 -0.000
 -0.000  0.477 -0.000 -0.001  0.000
  0.000 -0.000  0.279 -0.000 -0.001
  0.004 -0.001 -0.000  0.472  0.000
 -0.000  0.000 -0.001  0.000  0.340
atomic mag. moment =     1.016578
atom   23   Tr[ns(na)] (up, down, total) =   3.41802  1.26876  4.68678
   spin  1
    eigenvalues: 
  0.471  0.516  0.573  0.894  0.965
    eigenvectors:
  0.000  0.995  0.000  0.000  0.004
  0.000  0.000  0.000  0.940  0.060
  0.007  0.000  0.993  0.000  0.000
  0.000  0.005  0.000  0.060  0.936
  0.993  0.000  0.007  0.000  0.000
    occupations:
  0.518  0.003 -0.001  0.030  0.000
  0.003  0.898  0.002  0.017 -0.000
 -0.001  0.002  0.572 -0.002 -0.008
  0.030  0.017 -0.002  0.959 -0.000
  0.000 -0.000 -0.008 -0.000  0.472
   spin  2
    eigenvalues: 
  0.119  0.152  0.216  0.381  0.402
    eigenvectors:
  0.001  0.003  0.000  0.000  0.996
  0.005  0.992  0.000  0.000  0.003
  0.000  0.000  1.000  0.000  0.000
  0.993  0.005  0.000  0.000  0.002
  0.000  0.000  0.000  1.000  0.000
    occupations:
  0.401  0.013  0.000 -0.011  0.000
  0.013  0.152 -0.001 -0.003 -0.000
  0.000 -0.001  0.216  0.000 -0.003
 -0.011 -0.003  0.000  0.119 -0.000
  0.000 -0.000 -0.003 -0.000  0.381
atomic mag. moment =     2.149258
N of occupied +U levels =  37.7191133
 --- exit write_ns ---

 ------ SPIN UP ------------


          k = 0.0000 0.0000 0.0000 ( 27003 PWs)   bands (ev):

   -75.5390 -75.1656 -75.0463 -75.0057 -74.9935 -74.9665 -74.9523 -74.9345
   -46.9337 -46.8165 -46.8045 -46.6606 -46.4569 -46.4367 -46.3983 -46.3742
   -46.3536 -46.3530 -46.3469 -46.3204 -46.3165 -46.3133 -46.2911 -46.2883
   -46.2715 -46.2678 -46.2622 -46.2568 -46.2337 -46.2241 -46.1707 -46.1140
   -21.3324 -20.8906 -20.5435 -20.4465 -20.3613 -20.0597 -19.8909 -19.8279
   -19.7589 -19.7073 -19.5842 -19.5733 -19.4344 -19.4044 -19.3207 -19.2382
   -19.2000 -19.0798 -19.0115  -9.2816  -9.0560  -8.9132  -8.7370  -8.6029
    -8.2829  -7.9628  -7.9505  -7.8814  -7.8353  -7.7684  -7.7309  -7.6419
    -7.5194  -7.2424  -7.0449  -7.0327  -6.9726  -6.9546  -6.9308  -6.8644
    -6.6067  -6.5229  -6.4999  -6.2364  -6.1837  -5.8926  -5.7590  -5.7146
    -5.4940  -5.4074  -5.3162  -5.2767  -5.1934  -4.9647  -4.9576  -4.8679
    -4.8100  -4.7787  -4.6275  -4.5527  -4.3759  -4.3202  -4.2677  -4.1506
    -4.0249  -4.0074  -3.9277  -3.8975  -3.7817  -3.7223  -3.6855  -3.6220
    -3.4328  -3.3736  -3.3096  -3.2108  -2.9431  -2.8925  -2.7963  -2.5961
    -2.5569  -2.4943  -2.4887  -2.4733  -2.4347  -2.3767  -2.1688  -2.0567
    -1.8039  -1.5905  -1.5696  -1.5369  -1.4466  -1.2032  -1.1540  -1.0898
    -0.9773  -0.7888  -0.6613  -0.4604  -0.3282   0.4987   0.5735   0.9489
     1.2520   1.2963   1.4768   1.5069   1.6003   1.7797   1.9275   2.0171
     2.1016   2.2121   2.2980   2.7186   3.2321   3.2928   3.7740   4.2561
     4.7878   5.5500   6.1241   6.3779   6.7410   6.8862   7.1360   7.2563
     7.2605   7.2957   7.5180   7.6142   7.6969   7.8616   8.0406   8.1247
     8.1800   8.2212   8.3192   8.4811   8.5772   8.6191   8.7493   8.8600
     8.9410   9.2273   9.2803   9.3444   9.4471   9.5007   9.5827   9.7114
     9.8802   9.9434  10.0581  10.0780  10.1706  10.3237  10.5019  10.5645
    10.6473  10.6938  10.9817  11.0809  11.2517  11.3010  11.3621  11.4253
    11.4555  11.4641  11.5267  11.7706  11.7848  11.8365  12.0312  12.0859
    12.1025  12.1368  12.1701  12.2700  12.3542  12.3774  12.4347  12.5179
    12.5646  12.6591  12.6999  12.7669  12.7856  12.9740  13.0071  13.0783
    13.1065  13.1314  13.2026  13.2412  13.3069  13.3274  13.4574  13.5539
    13.6763  13.7551  13.7790  13.8866  13.9566  13.9741  14.1621  14.2535
    14.2977  14.3333  14.4751  14.5422  14.5697  14.6797  14.7658  14.8776
    14.9387  15.0287  15.0556  15.1585  15.2336  15.2975  15.3409  15.5199
    15.5584  15.6075  15.7873  15.8618  16.1278  16.2047  16.2709  16.4016
    16.4058  16.4432  16.6168  16.8208  16.8833  16.9432  17.0020  17.0677
    17.1045  17.1804  17.3739  17.4669  17.5947  17.6984  17.7921  17.8397
    17.9131  17.9970  18.0574  18.1645  18.2862  18.3224  18.5103  18.5671
    18.6926  18.7444  18.8006  18.8303  18.9734  19.0604  19.1484  19.2284
    19.2673  19.3092  19.4327  19.4535  19.4743  19.6405  19.7089  19.7464
    19.8306  19.8985  19.9843  20.0390  20.0750  20.2061  20.2830  20.3305
    20.3952  20.4403  20.4941  20.6229  20.6979  20.7470  20.8966  20.9851
    21.0280  21.0608  21.1644  21.1848  21.2466  21.3327  21.3842  21.4791
    21.5010  21.5273  21.5641  21.6003  21.7274  21.7756

          k = 0.0000 0.2341 0.0000 ( 27088 PWs)   bands (ev):

   -75.5390 -75.1656 -75.0463 -75.0057 -74.9935 -74.9665 -74.9524 -74.9345
   -46.9337 -46.8165 -46.8043 -46.6606 -46.4595 -46.4292 -46.4028 -46.3752
   -46.3536 -46.3533 -46.3450 -46.3186 -46.3148 -46.3121 -46.2944 -46.2909
   -46.2709 -46.2681 -46.2627 -46.2570 -46.2335 -46.2239 -46.1705 -46.1142
   -21.2526 -20.7900 -20.5415 -20.5013 -20.3480 -20.1190 -19.8978 -19.8467
   -19.8337 -19.7322 -19.6187 -19.5516 -19.3978 -19.3869 -19.3633 -19.3092
   -19.1551 -19.0872 -19.0049  -9.2129  -8.8303  -8.7583  -8.6385  -8.6096
    -8.3378  -8.2548  -7.9395  -7.8793  -7.7684  -7.6537  -7.6125  -7.4774
    -7.3741  -7.2213  -7.0921  -6.9411  -6.9143  -6.8682  -6.7470  -6.6841
    -6.5623  -6.4875  -6.4290  -6.2068  -6.1634  -6.0791  -5.9867  -5.8536
    -5.7304  -5.6729  -5.4842  -5.3378  -5.2066  -5.1272  -4.9522  -4.9363
    -4.8409  -4.7623  -4.7231  -4.6636  -4.4957  -4.4286  -4.3970  -4.2046
    -4.1599  -4.0897  -4.0277  -3.9494  -3.8321  -3.7362  -3.6543  -3.5731
    -3.5055  -3.2488  -3.0676  -3.0087  -2.8964  -2.7323  -2.6360  -2.5931
    -2.5489  -2.5063  -2.4859  -2.3962  -2.3582  -2.3181  -2.2672  -2.0975
    -2.0526  -1.9999  -1.7196  -1.4970  -1.2530  -1.1984  -1.0450  -0.9537
    -0.9355  -0.7699  -0.7294  -0.6486  -0.1501   0.4092   0.5409   0.5915
     0.7780   1.2209   1.6128   1.7762   1.8613   1.9102   2.0865   2.1360
     2.2013   2.2710   2.4955   2.5898   3.4588   3.5332   4.0201   4.4761
     4.9967   5.3964   5.6208   5.8796   6.0852   6.3786   6.5549   7.0658
     7.0773   7.3055   7.4114   7.5179   7.7431   7.9773   8.2359   8.3360
     8.3456   8.4398   8.4954   8.6765   8.7871   8.8668   8.9538   9.1230
     9.1895   9.3357   9.4257   9.5140   9.6355   9.7227   9.8373  10.0205
    10.0459  10.1031  10.1423  10.2380  10.2653  10.2932  10.3331  10.4158
    10.4544  10.5903  10.6362  10.7690  10.8168  10.9080  11.0730  11.2002
    11.2660  11.3419  11.4580  11.5779  11.6289  11.6676  11.7337  11.7474
    11.8644  11.9781  12.1372  12.3168  12.3717  12.4506  12.5352  12.6334
    12.7454  12.8299  12.8603  12.9643  13.0069  13.1591  13.2628  13.3879
    13.4225  13.4533  13.5817  13.6619  13.7636  13.8553  13.9726  14.0495
    14.1017  14.1361  14.2217  14.2806  14.3027  14.3622  14.4524  14.4870
    14.5314  14.6066  14.6509  14.7061  14.7600  14.8156  14.9611  14.9953
    15.1089  15.2004  15.2477  15.3116  15.3693  15.4383  15.4965  15.5279
    15.6437  15.6898  15.7192  15.8049  15.8852  15.9528  16.0824  16.1174
    16.1714  16.2493  16.3923  16.4116  16.5391  16.6119  16.6820  16.8169
    16.8739  17.0252  17.0995  17.1630  17.2182  17.3114  17.3425  17.4731
    17.6015  17.6704  17.7114  17.9054  18.0851  18.1015  18.2373  18.3739
    18.4533  18.5361  18.5842  18.7196  18.7606  18.8499  18.9470  19.0534
    19.0989  19.1740  19.2297  19.2923  19.4570  19.5371  19.5683  19.6386
    19.8889  19.9329  19.9949  20.0242  20.1100  20.1681  20.2269  20.2795
    20.3533  20.3875  20.4097  20.4859  20.5382  20.6480  20.6936  20.7629
    20.7682  20.8185  20.9310  20.9809  21.0050  21.0904  21.1548  21.2152
    21.2690  21.3009  21.3705  21.4596  21.5654  21.6228

          k = 0.0000-0.4682 0.0000 ( 27136 PWs)   bands (ev):

   -75.5390 -75.1656 -75.0463 -75.0057 -74.9935 -74.9664 -74.9524 -74.9345
   -46.9338 -46.8165 -46.8041 -46.6606 -46.4612 -46.4161 -46.4138 -46.3760
   -46.3576 -46.3536 -46.3343 -46.3187 -46.3159 -46.3089 -46.3029 -46.2908
   -46.2699 -46.2687 -46.2630 -46.2572 -46.2334 -46.2237 -46.1704 -46.1144
   -21.1513 -20.6523 -20.5602 -20.5295 -20.3306 -20.2886 -19.9387 -19.8511
   -19.8075 -19.7569 -19.6368 -19.5377 -19.5126 -19.3677 -19.3595 -19.2963
   -19.1164 -19.1094 -19.0051  -9.1738  -8.9196  -8.6145  -8.5193  -8.3519
    -8.2720  -8.2446  -7.9310  -7.8148  -7.6386  -7.6035  -7.3927  -7.3532
    -7.2951  -7.2752  -7.1334  -6.8402  -6.8253  -6.7720  -6.6966  -6.5897
    -6.5621  -6.5224  -6.4453  -6.2829  -6.2708  -6.2049  -6.1998  -5.8822
    -5.8456  -5.7373  -5.6186  -5.5346  -5.2890  -5.2355  -5.1999  -5.0906
    -4.9987  -4.8881  -4.8582  -4.7039  -4.5294  -4.4319  -4.3906  -4.2276
    -4.1539  -4.1235  -4.0411  -3.9373  -3.7355  -3.6171  -3.5275  -3.3904
    -3.3865  -3.2767  -3.1449  -3.0571  -2.8960  -2.8186  -2.7635  -2.6369
    -2.5713  -2.5675  -2.5006  -2.4366  -2.3893  -2.3674  -2.3174  -2.0960
    -1.8814  -1.8327  -1.4573  -1.4066  -1.3751  -1.2510  -1.1863  -0.9798
    -0.9440  -0.8133  -0.7705  -0.5245  -0.0212   0.0472   0.1946   0.5257
     1.0154   1.3903   1.7541   1.7685   1.7707   1.9644   2.1187   2.1359
     2.1617   2.2364   2.6651   2.8905   3.7937   4.0888   4.4409   4.6198
     4.7536   4.9158   5.1912   5.4289   5.7791   6.0684   6.4851   6.8628
     7.0861   7.2868   7.5294   7.6373   7.7803   7.8856   8.0634   8.2350
     8.3090   8.6039   8.7190   8.9673   9.0001   9.0530   9.1176   9.1582
     9.1937   9.2008   9.4428   9.5235   9.5336   9.6142   9.6493   9.6924
     9.8418   9.9026  10.0239  10.0670  10.1962  10.3172  10.3527  10.4607
    10.6975  10.7688  10.9254  10.9423  11.0073  11.0696  11.1617  11.2041
    11.3745  11.5333  11.5843  11.6341  11.6985  11.8243  12.0014  12.1638
    12.2233  12.2291  12.3919  12.4320  12.4754  12.5169  12.5900  12.7269
    12.8293  12.8805  12.9844  13.0393  13.1735  13.1923  13.2257  13.3357
    13.4261  13.5063  13.5233  13.6405  13.6753  13.7564  13.7862  13.8882
    14.1120  14.1600  14.2010  14.2446  14.3738  14.4595  14.5435  14.5997
    14.6403  14.6464  14.6945  14.7417  14.7935  14.9536  15.0436  15.0969
    15.2000  15.2367  15.2620  15.2948  15.3477  15.4621  15.5725  15.6235
    15.7623  15.8687  15.9327  16.0243  16.0521  16.0965  16.3318  16.4144
    16.4251  16.6166  16.6344  16.7593  16.7824  16.8532  16.8810  16.9413
    16.9987  17.0561  17.0749  17.0978  17.1395  17.4038  17.4591  17.5395
    17.5694  17.6343  17.7329  17.8266  17.9050  18.0036  18.0491  18.0740
    18.2288  18.2719  18.3169  18.4243  18.4415  18.4666  18.5356  18.5662
    18.6586  18.6976  18.7174  18.7834  18.9752  19.0358  19.0712  19.1242
    19.2091  19.2738  19.3536  19.3988  19.6501  19.6957  19.8533  19.9062
    20.0190  20.0916  20.1277  20.1935  20.2597  20.3481  20.3953  20.4022
    20.5644  20.7394  20.7447  20.8001  20.8390  20.8816  20.9491  21.0491
    21.0987  21.1336  21.1786  21.2472  21.2902  21.3198

          k = 0.2500 0.0000 0.0000 ( 27178 PWs)   bands (ev):

   -75.5390 -75.1653 -75.0465 -75.0057 -74.9924 -74.9674 -74.9508 -74.9360
   -46.9299 -46.8162 -46.8045 -46.6606 -46.4378 -46.4350 -46.3990 -46.3752
   -46.3544 -46.3487 -46.3273 -46.3244 -46.3119 -46.2961 -46.2925 -46.2878
   -46.2869 -46.2725 -46.2632 -46.2581 -46.2387 -46.2160 -46.1955 -46.1358
   -21.2123 -20.7827 -20.6200 -20.4210 -20.3466 -20.0999 -19.9533 -19.8668
   -19.8221 -19.6995 -19.5847 -19.5498 -19.4295 -19.4030 -19.3490 -19.2606
   -19.1824 -19.1039 -19.0313  -9.1183  -8.8993  -8.7687  -8.6883  -8.4592
    -8.2112  -8.0377  -7.9378  -7.8886  -7.8350  -7.8028  -7.7048  -7.6261
    -7.5023  -7.3554  -7.2918  -7.1004  -7.0449  -6.9677  -6.8195  -6.7371
    -6.6833  -6.5099  -6.4196  -6.0724  -6.0280  -5.8704  -5.7214  -5.6381
    -5.5472  -5.4571  -5.3663  -5.2925  -5.2174  -5.1499  -5.0962  -5.0675
    -4.9691  -4.8914  -4.6491  -4.5836  -4.4879  -4.3781  -4.3311  -4.2681
    -4.1814  -4.1743  -4.0652  -3.9836  -3.8977  -3.8645  -3.7853  -3.6348
    -3.3702  -3.2714  -3.1250  -2.9888  -2.9255  -2.8771  -2.7242  -2.5576
    -2.5225  -2.4824  -2.3354  -2.2995  -2.2451  -2.2100  -2.0919  -1.9953
    -1.8135  -1.7002  -1.5656  -1.4977  -1.3265  -1.2766  -1.0811  -1.0562
    -0.9889  -0.9153  -0.7231  -0.5525  -0.2363   0.5359   0.6440   1.0236
     1.2121   1.3084   1.4288   1.5086   1.5450   1.6301   1.7889   1.8757
     1.9950   2.0503   2.1739   2.6586   3.5417   3.5859   4.0636   4.5374
     5.0791   5.6170   5.7218   6.0134   6.2998   6.4177   6.7123   6.7706
     7.2073   7.3725   7.4780   7.5128   7.6133   7.8144   7.9015   7.9495
     8.0640   8.3230   8.4014   8.4890   8.7408   8.8549   8.9978   9.0959
     9.1971   9.3652   9.4137   9.5127   9.6159   9.7585   9.8864   9.9401
     9.9724  10.0728  10.0932  10.1601  10.2165  10.2463  10.3810  10.4715
    10.5969  10.6353  10.6715  10.7962  10.9287  11.0044  11.0944  11.2394
    11.3709  11.4041  11.4273  11.5748  11.6503  11.6978  11.7762  11.8208
    11.9815  12.0965  12.1825  12.3262  12.3819  12.5533  12.5709  12.6743
    12.7111  12.8371  12.8892  12.9763  13.0492  13.0967  13.2095  13.2433
    13.2967  13.4352  13.5314  13.5675  13.6814  13.7867  13.8832  14.0103
    14.1028  14.1942  14.2952  14.3711  14.4209  14.4397  14.5437  14.5777
    14.5876  14.6505  14.7033  14.7369  14.8488  14.9005  14.9616  15.1464
    15.2395  15.2856  15.3563  15.4232  15.5764  15.6543  15.6948  15.7263
    15.8387  15.8604  15.9922  16.0221  16.0919  16.2162  16.3230  16.4463
    16.4794  16.5691  16.6001  16.7178  16.8957  16.9243  17.0299  17.1178
    17.1657  17.2018  17.2251  17.3140  17.4423  17.5001  17.5938  17.6060
    17.6562  17.7344  17.8231  17.9069  18.0209  18.0657  18.1046  18.2109
    18.2960  18.3754  18.4965  18.6861  18.7146  18.8479  18.8862  18.9297
    18.9811  19.1153  19.2426  19.2761  19.4563  19.4992  19.6212  19.6571
    19.7000  19.7458  19.7740  19.8293  19.8799  19.9234  20.0608  20.1509
    20.1728  20.2339  20.3621  20.3999  20.4913  20.5258  20.5625  20.6668
    20.7712  20.8825  20.9294  21.0531  21.1184  21.1592  21.1897  21.2573
    21.2906  21.3094  21.3759  21.4441  21.4852  21.5332

          k = 0.2500 0.2341 0.0000 ( 27132 PWs)   bands (ev):

   -75.5390 -75.1653 -75.0465 -75.0057 -74.9924 -74.9674 -74.9508 -74.9360
   -46.9299 -46.8162 -46.8042 -46.6606 -46.4425 -46.4255 -46.4025 -46.3771
   -46.3544 -46.3432 -46.3348 -46.3186 -46.3100 -46.2975 -46.2923 -46.2909
   -46.2875 -46.2727 -46.2639 -46.2581 -46.2386 -46.2157 -46.1953 -46.1359
   -21.1429 -20.6930 -20.6081 -20.4388 -20.3501 -20.1071 -19.9475 -19.8621
   -19.8281 -19.7831 -19.6400 -19.5858 -19.4225 -19.4128 -19.3809 -19.3206
   -19.1480 -19.1010 -19.0236  -9.0738  -8.7208  -8.5977  -8.4703  -8.4400
    -8.2346  -8.0514  -7.9167  -7.8601  -7.8100  -7.7096  -7.6356  -7.5552
    -7.3812  -7.3142  -7.2372  -7.0620  -7.0061  -6.9067  -6.8054  -6.6735
    -6.5888  -6.5318  -6.3677  -6.1155  -6.0888  -5.9755  -5.8030  -5.7379
    -5.6513  -5.5921  -5.5038  -5.4399  -5.3668  -5.3442  -5.2462  -5.1739
    -5.1413  -5.0018  -4.8076  -4.7312  -4.6395  -4.4828  -4.4222  -4.3440
    -4.2104  -4.1543  -4.0872  -3.9771  -3.8539  -3.7984  -3.6834  -3.5598
    -3.3456  -3.2052  -3.1534  -2.9723  -2.7635  -2.6847  -2.5482  -2.4984
[...]
    -4.7344  -4.6363  -4.5864  -4.5411  -4.5363  -4.3371  -4.2504  -4.1419
    -4.0770  -3.9718  -3.8682  -3.8076  -3.7055  -3.5380  -3.4350  -3.3827
    -3.2835  -3.1986  -3.1242  -3.1079  -0.5535  -0.4155  -0.4005  -0.0285
     0.1533   0.2842   0.3039   0.4046   0.4098   0.4524   0.4738   0.5360
     0.6222   0.6448   0.6915   0.7375   0.7800   0.8073   0.9070   0.9437
     0.9668   1.0003   1.1944   1.3106   1.4695   1.5767   2.0930   2.2355
     2.3674   2.4435   2.6233   2.6617   2.7291   2.7860   2.9059   2.9326
     2.9556   3.2839   3.5146   3.5816   4.2079   4.4631   4.4667   4.7720
     4.9245   5.0655   5.3775   5.5641   5.9702   6.1588   6.6290   6.8366
     7.1739   7.3340   7.6356   7.7714   7.9009   8.0166   8.3047   8.3593
     8.3621   8.5035   8.5670   8.7056   8.7364   8.7754   8.8028   8.8236
     8.9162   8.9518   9.2067   9.2854   9.3621   9.3720   9.5656   9.7005
     9.8759  10.0065  10.1377  10.1935  10.2988  10.3634  10.5136  10.6040
    10.6758  10.8580  10.8917  11.0557  11.1604  11.2528  11.4373  11.4639
    11.5911  11.6633  11.7508  11.8103  11.9575  11.9864  12.1934  12.2921
    12.4440  12.5074  12.6594  12.7154  12.8640  12.8904  12.9737  13.0456
    13.1512  13.2855  13.3088  13.4123  13.4357  13.5179  13.6431  13.6758
    13.7936  13.8154  13.8545  13.8698  14.0274  14.1234  14.1580  14.2273
    14.3680  14.4504  14.5345  14.5875  14.7752  14.8046  14.8377  14.8810
    14.9973  15.0763  15.1410  15.2137  15.2241  15.3084  15.3580  15.4517
    15.4931  15.6124  15.7718  15.8445  15.9156  15.9803  16.0911  16.1229
    16.2806  16.3199  16.4647  16.5806  16.6191  16.7112  16.7852  16.8604
    16.8894  16.9861  17.0328  17.1908  17.2614  17.2839  17.3558  17.4207
    17.4580  17.5492  17.6019  17.6237  17.6415  17.6525  17.7231  17.7437
    17.7620  17.7988  17.9185  17.9722  17.9959  18.0221  18.1866  18.2368
    18.2462  18.3829  18.4459  18.5363  18.5651  18.6265  18.7050  18.8251
    18.8791  19.0024  19.1062  19.1304  19.1790  19.2358  19.2679  19.3366
    19.3708  19.4645  19.5583  19.6476  19.7287  19.8990  19.9292  19.9968
    20.0136  20.1754  20.2405  20.3451  20.3888  20.4201  20.4533  20.5000
    20.5283  20.5644  20.6007  20.6254  20.7051  20.7210  20.7468  20.9230
    20.9549  21.0293  21.1033  21.1324  21.2002  21.2275

          k =-0.5000 0.2341 0.0000 ( 27132 PWs)   bands (ev):

   -74.3780 -72.6924 -72.6763 -72.6707 -72.6243 -72.5536 -72.4296 -72.4174
   -46.0359 -45.6613 -45.4524 -44.3728 -44.2853 -44.2540 -44.2305 -44.2302
   -44.1648 -44.0641 -44.0448 -44.0235 -43.9882 -43.9430 -43.8451 -43.8201
   -43.8163 -43.7993 -43.7440 -43.7373 -43.7261 -43.7084 -43.5346 -43.5289
   -20.9576 -20.8490 -20.5587 -20.5482 -20.3109 -20.2396 -20.1829 -20.0904
   -19.8661 -19.7958 -19.7693 -19.7395 -19.5965 -19.5634 -19.5482 -19.4710
   -19.3307 -19.2864 -19.2374  -8.5434  -8.5192  -7.9864  -7.8546  -7.7847
    -7.7591  -7.7041  -7.6068  -7.5343  -7.4184  -7.3601  -7.3113  -7.2425
    -7.1689  -6.9882  -6.9147  -6.8654  -6.5707  -6.4740  -6.3991  -6.2935
    -6.2234  -6.0741  -6.0377  -5.9640  -5.8956  -5.8338  -5.6889  -5.5827
    -5.4597  -5.3808  -5.2244  -5.1548  -5.1270  -5.0637  -5.0327  -4.9472
    -4.8863  -4.8199  -4.7559  -4.6674  -4.6335  -4.3688  -4.2039  -4.0742
    -4.0317  -3.9111  -3.7838  -3.7510  -3.6507  -3.5869  -3.4784  -3.3778
    -3.2917  -3.1130  -3.0696  -3.0007  -0.6002  -0.4630  -0.3817  -0.0123
     0.1595   0.2095   0.3300   0.3600   0.4177   0.5057   0.5400   0.5844
     0.7131   0.7658   0.8077   0.8196   0.8349   0.8932   0.9536   0.9749
     1.0034   1.0660   1.2359   1.2913   1.4940   1.6308   2.0263   2.1775
     2.2885   2.4211   2.4876   2.4978   2.5196   2.6626   2.8398   3.0087
     3.0936   3.3764   3.6220   3.6901   4.3385   4.6829   4.6891   5.0097
     5.1546   5.2972   5.5834   5.7845   6.0992   6.2747   6.4289   6.5831
     6.6744   6.8695   7.0286   7.1201   7.1837   7.2836   7.5473   7.6535
     7.7375   7.8992   8.2179   8.3454   8.5236   8.7042   8.8161   8.9790
     9.0793   9.2784   9.3423   9.5278   9.7257   9.8963   9.9239  10.0023
    10.3694  10.4337  10.5377  10.5827  10.6416  10.7768  10.9548  10.9764
    11.0530  11.0933  11.2388  11.3764  11.4918  11.5655  11.6888  11.8082
    11.8570  11.8890  12.0106  12.0477  12.3127  12.4137  12.5414  12.5812
    12.7082  12.8129  12.8838  12.9188  12.9892  13.0876  13.1442  13.1857
    13.2709  13.3490  13.4998  13.5755  13.5924  13.6613  13.7817  13.8402
    13.9172  13.9743  14.0739  14.1062  14.1696  14.2952  14.3618  14.4283
    14.4896  14.5572  14.5984  14.6690  14.6981  14.7871  14.8794  14.9055
    14.9418  15.0646  15.1010  15.2887  15.3112  15.4009  15.4667  15.5166
    15.5811  15.6615  15.7285  15.8085  15.8412  15.8847  15.9467  15.9762
    16.0169  16.0923  16.1518  16.1962  16.2250  16.2423  16.2768  16.3759
    16.3901  16.4579  16.5306  16.6399  16.6817  16.7703  16.8100  16.8529
    16.8723  16.9270  17.0165  17.1084  17.1830  17.1967  17.2968  17.3572
    17.4035  17.4396  17.5431  17.6044  17.6990  17.7354  17.8418  17.8876
    17.9305  17.9762  18.0505  18.0822  18.1636  18.2903  18.3464  18.4338
    18.5079  18.5862  18.6374  18.7369  18.9097  18.9409  19.0840  19.1991
    19.2912  19.3784  19.4438  19.5203  19.5891  19.6197  19.7149  19.7910
    19.8602  19.8965  19.9265  19.9448  20.0044  20.0231  20.1026  20.1301
    20.1853  20.2420  20.3571  20.3980  20.4984  20.6335  20.7001  20.7552
    20.8944  20.9184  21.0289  21.0985  21.1727  21.3177

          k =-0.5000-0.4682 0.0000 ( 27168 PWs)   bands (ev):

   -74.3780 -72.6923 -72.6763 -72.6707 -72.6243 -72.5536 -72.4296 -72.4174
   -46.0360 -45.6613 -45.4523 -44.3720 -44.2853 -44.2540 -44.2305 -44.2302
   -44.1657 -44.0511 -44.0443 -44.0313 -43.9951 -43.9430 -43.8461 -43.8194
   -43.8163 -43.7993 -43.7439 -43.7368 -43.7260 -43.7079 -43.5346 -43.5289
   -20.9043 -20.8030 -20.5237 -20.3908 -20.3298 -20.3062 -20.1196 -20.0877
   -19.9741 -19.9254 -19.7744 -19.6982 -19.6736 -19.6573 -19.5821 -19.4409
   -19.3119 -19.2784 -19.2349  -8.5215  -8.4973  -7.9377  -7.7974  -7.6667
    -7.5830  -7.4066  -7.3832  -7.2401  -7.2196  -7.1910  -7.0517  -6.9968
    -6.9375  -6.9230  -6.7981  -6.7414  -6.6799  -6.6102  -6.6047  -6.4634
    -6.4125  -6.3714  -6.2973  -6.1219  -6.0028  -5.8814  -5.7592  -5.6561
    -5.5705  -5.5366  -5.4627  -5.4099  -5.3238  -5.2635  -5.1979  -5.0786
    -4.9812  -4.9080  -4.8922  -4.7179  -4.6936  -4.3674  -4.1285  -3.9816
    -3.9461  -3.8821  -3.7601  -3.6922  -3.6688  -3.5497  -3.4793  -3.4172
    -3.2735  -3.0739  -2.9446  -2.9391  -0.6445  -0.5069  -0.3925   0.0565
     0.0762   0.1403   0.3131   0.3488   0.3751   0.4741   0.5697   0.7325
     0.7720   0.8400   0.8441   0.9063   0.9790   1.0662   1.1106   1.1784
     1.1876   1.2081   1.2754   1.3072   1.4490   1.5823   1.7083   1.9816
     2.0520   2.0667   2.2878   2.4825   2.5272   2.9050   2.9206   2.9724
     3.2376   3.5889   3.6046   3.6449   4.5375   5.1470   5.1542   5.5611
     5.5618   5.6788   5.6835   5.7634   5.8678   5.9656   6.0126   6.0851
     6.2914   6.4455   6.5324   6.6188   6.8734   7.0357   7.1936   7.3064
     7.5803   7.7678   7.9863   8.1396   8.2710   8.4868   8.7196   8.9200
     9.0796   9.3440   9.3868   9.5040   9.5691   9.6664   9.8578  10.0513
    10.0986  10.3699  10.7512  10.9184  11.0036  11.1592  11.2434  11.3345
    11.3816  11.4521  11.5337  11.9027  12.1365  12.2810  12.4812  12.5453
    12.6203  12.6976  12.7329  12.7619  12.9039  12.9839  13.0206  13.1248
    13.2406  13.2614  13.2968  13.4312  13.5842  13.6106  13.6335  13.6472
    13.6910  13.7001  13.7654  13.7938  13.8082  13.8472  13.8845  13.9854
    14.0273  14.0501  14.0916  14.1134  14.1278  14.3147  14.3637  14.4438
    14.5229  14.5303  14.6130  14.6532  14.6739  14.7494  14.7586  14.7870
    14.7977  14.8303  14.8481  14.8678  14.9820  15.0673  15.0984  15.1237
    15.1996  15.2411  15.2724  15.3204  15.3557  15.4155  15.4389  15.4655
    15.5201  15.5782  15.6545  15.6792  15.7497  15.7918  15.8197  15.8865
    15.9704  16.0823  16.1204  16.1453  16.2487  16.3435  16.3659  16.5322
    16.5674  16.6071  16.6619  16.7798  16.8348  16.9563  17.0032  17.0985
    17.1365  17.1808  17.2423  17.2689  17.3268  17.3670  17.4186  17.5171
    17.5794  17.7578  17.8668  17.9158  17.9564  18.0094  18.0230  18.0654
    18.1426  18.2012  18.2875  18.4869  18.6020  18.6758  18.7654  18.8975
    18.9060  18.9679  18.9978  19.0857  19.1634  19.2667  19.3134  19.4069
    19.5902  19.9200  19.9998  20.0233  20.0703  20.2068  20.2463  20.3457
    20.3954  20.4922  20.7397  20.8511  20.9023  21.0007  21.2100  21.2649
    21.3434  21.4430  21.5251  21.5513  21.6415  21.7115

          k =-0.2500 0.2341 0.0000 ( 27132 PWs)   bands (ev):

   -74.3780 -72.6925 -72.6762 -72.6713 -72.6236 -72.5534 -72.4316 -72.4153
   -46.0374 -45.6614 -45.4524 -44.3728 -44.2858 -44.2548 -44.2300 -44.2293
   -44.1652 -44.0691 -44.0417 -44.0234 -43.9879 -43.9428 -43.8446 -43.8241
   -43.8185 -43.8045 -43.7904 -43.7891 -43.6679 -43.6532 -43.5971 -43.4655
   -21.1844 -20.7678 -20.6185 -20.5331 -20.4168 -20.2073 -20.0549 -19.9731
   -19.9164 -19.8673 -19.7465 -19.6845 -19.5688 -19.5386 -19.5245 -19.4487
   -19.3336 -19.2943 -19.2107  -8.7244  -8.4758  -8.1556  -8.1117  -7.9413
    -7.9165  -7.6660  -7.5816  -7.5339  -7.4382  -7.3462  -7.2753  -7.1507
    -7.1008  -6.9230  -6.8702  -6.7957  -6.7157  -6.6084  -6.4329  -6.3875
    -6.2880  -6.2045  -6.0141  -5.9226  -5.7617  -5.6863  -5.5870  -5.4389
    -5.3682  -5.3132  -5.2753  -5.2467  -5.1595  -5.0173  -4.9785  -4.9458
    -4.8121  -4.7447  -4.5399  -4.4148  -4.3615  -4.2327  -4.1664  -4.0913
    -4.0166  -3.9629  -3.8906  -3.8056  -3.6917  -3.5609  -3.5192  -3.4901
    -3.2302  -3.2072  -3.0819  -2.8450  -0.6167  -0.4789  -0.4623   0.0037
     0.0327   0.1400   0.2308   0.3029   0.3498   0.4008   0.5168   0.5591
     0.6209   0.6966   0.7680   0.8200   0.8735   0.9411   1.0007   1.0397
     1.0867   1.2479   1.2915   1.3386   1.4254   1.5522   1.8575   2.0667
     2.1647   2.4676   2.6225   2.6762   2.7683   2.9002   2.9936   3.0650
     3.1448   3.3617   3.6011   3.6792   3.8987   3.9465   4.3449   4.8032
     5.3297   5.7137   5.8761   5.8925   6.1686   6.2793   6.4298   6.5846
     6.7629   6.9069   7.0335   7.3286   7.4562   7.6766   7.8856   8.0063
     8.1228   8.3253   8.4008   8.5250   8.6735   8.8127   8.9969   9.1388
     9.2708   9.3304   9.4763   9.5656   9.6572   9.8143   9.8636  10.0289
    10.1409  10.2437  10.3338  10.4519  10.5306  10.6148  10.7183  10.8349
    10.9368  11.0213  11.1347  11.2391  11.2783  11.4260  11.4851  11.5960
    11.6725  11.7529  11.8931  11.9890  12.0846  12.1493  12.1797  12.2759
    12.3575  12.4187  12.5851  12.6772  12.7257  12.8364  12.9185  12.9790
    13.0099  13.0876  13.1615  13.1843  13.2226  13.3241  13.3579  13.4538
    13.5364  13.6386  13.7257  13.7962  13.8863  13.9050  14.0173  14.0816
    14.1332  14.2270  14.3670  14.4908  14.5511  14.6066  14.6724  14.7822
    14.8449  14.8787  14.9999  15.0791  15.1098  15.2731  15.3670  15.4246
    15.5291  15.5957  15.6367  15.7221  15.7528  15.8013  15.8949  15.9960
    16.0113  16.1242  16.2235  16.2655  16.3140  16.4234  16.4917  16.5222
    16.6184  16.7233  16.7650  16.8438  16.8875  16.9633  17.0169  17.1269
    17.2183  17.2430  17.3146  17.4226  17.4562  17.5266  17.5697  17.6181
    17.7200  17.7492  17.7671  17.8569  17.9471  18.0548  18.1103  18.1687
    18.2425  18.3046  18.3598  18.3986  18.4447  18.6243  18.7311  18.7856
    18.8290  18.9024  18.9439  19.0087  19.0948  19.1385  19.2488  19.3012
    19.4018  19.4408  19.5188  19.5901  19.6359  19.6671  19.7450  19.8475
    19.8782  20.0028  20.1046  20.1848  20.2402  20.3370  20.3860  20.5129
    20.5890  20.7118  20.7774  20.8296  20.9051  20.9565  21.0443  21.1327
    21.1981  21.2340  21.3371  21.3945  21.4140  21.5254

     the spin up/dw Fermi energies are    -1.5420   -2.6569 ev

!    total energy              =   -2026.55777741 Ry
     Harris-Foulkes estimate   =   -2026.55777741 Ry
     estimated scf accuracy    <          8.2E-09 Ry

     The total energy is the sum of the following terms:

     one-electron contribution =  -24230.78771783 Ry
     hartree contribution      =   12134.87415112 Ry
     xc contribution           =    -322.69426544 Ry
     ewald contribution        =   10391.51591769 Ry
     Hubbard energy            =       0.53373530 Ry
     smearing contrib. (-TS)   =       0.00040175 Ry

     total magnetization       =    15.00 Bohr mag/cell
     absolute magnetization    =    19.05 Bohr mag/cell

     convergence has been achieved in  15 iterations

     Forces acting on atoms (Ry/au):


     negative rho (up, down):  0.488E-02 0.174E-02
     atom    1 type  1   force =    -0.00307917   -0.01171067   -0.00009221
     atom    2 type  1   force =    -0.00022928    0.00740990    0.00018192
     atom    3 type  2   force =     0.03777995   -0.00328259   -0.00067202
     atom    4 type  2   force =    -0.00318061    0.00799707    0.00014772
     atom    5 type  1   force =     0.00073009    0.00735556    0.00001098
     atom    6 type  1   force =    -0.00106044   -0.00529154   -0.00000245
     atom    7 type  1   force =     0.00238234   -0.00152247   -0.00020311
     atom    8 type  1   force =    -0.00922878   -0.00110405    0.00020266
     atom    9 type  2   force =     0.00503371    0.00107895   -0.00030224
     atom   10 type  2   force =    -0.00242879    0.00006405   -0.00009608
     atom   11 type  1   force =    -0.02496479   -0.03215353    0.00040702
     atom   12 type  1   force =    -0.02496343    0.03139971    0.00044492
     atom   13 type  1   force =    -0.04610072    0.00005138    0.00003725
     atom   14 type  1   force =    -0.00530344   -0.01217481   -0.00011532
     atom   15 type  1   force =     0.00053146    0.00773119    0.00007532
     atom   16 type  2   force =    -0.03972729   -0.00261623   -0.00060234
     atom   17 type  2   force =     0.00658395    0.00795591    0.00012295
     atom   18 type  1   force =     0.00362951    0.00769219    0.00000980
     atom   19 type  1   force =     0.00185958   -0.00598100   -0.00003895
     atom   20 type  1   force =     0.00075403   -0.00185207   -0.00052660
     atom   21 type  1   force =     0.00623536   -0.00003420   -0.00010090
     atom   22 type  2   force =    -0.00077669    0.00012609    0.00034239
     atom   23 type  2   force =    -0.00771071    0.00033536    0.00007584
     atom   24 type  1   force =     0.02749298   -0.01535887    0.00007335
     atom   25 type  1   force =     0.02760261    0.01526936    0.00005763
     atom   26 type  1   force =     0.04835602   -0.00007706   -0.00016886
     atom   27 type  3   force =     0.00000983   -0.00034031   -0.00001164
     atom   28 type  3   force =    -0.00003546   -0.00029401   -0.00007350
     atom   29 type  3   force =     0.00010624   -0.00038019   -0.00001719
     atom   30 type  3   force =    -0.00003432   -0.00022214   -0.00016883
     atom   31 type  1   force =     0.00029680    0.00000814    0.00055308
     atom   32 type  3   force =    -0.00056055   -0.00007913    0.00044941

     Total force =     0.001808     Total SCF correction =     0.000378
     SCF correction compared to forces is large: reduce conv_thr to get better values

     bfgs converged in   7 scf cycles and   6 bfgs steps
     (criteria: energy < 0.10E-03, force < 0.10E-02)

     End of BFGS Geometry Optimization

     Final energy   =   -2026.5577774115 Ry
Begin final coordinates

ATOMIC_POSITIONS (crystal)
O0       0.000000000   0.000000000   0.377941672    0   0   1
O0       0.000000000   0.500000000   0.399633170    0   0   1
Cr1      0.250000000   0.500000000   0.451213684    0   0   1
Cr1      0.000000000   0.000000000   0.449054826    0   0   1
O0       0.250000000   0.800000000   0.449862313    0   0   1
O0       0.250000000   0.200000000   0.450011316    0   0   1
O0       0.000000000   0.500000000   0.497573282    0   0   1
O0       0.000000000   0.000000000   0.523048264    0   0   1
Cr1      0.250000000   0.000000000   0.566963041    0   0   1
Cr1      0.000000000   0.500000000   0.565090994    0   0   1
O0       0.250000000   0.700000000   0.573760375    0   0   1
O0       0.250000000   0.300000000   0.573763755    0   0   1
O0       0.000000000   0.000000000   0.617886564    0   0   1
O0       0.500000000   0.000000000   0.377877751    0   0   1
O0       0.500000000   0.500000000   0.400059839    0   0   1
Cr1      0.750000000   0.500000000   0.451274009    0   0   1
Cr1      0.500000000   0.000000000   0.449088607    0   0   1
O0       0.750000000   0.800000000   0.449912622    0   0   1
O0       0.750000000   0.200000000   0.450038243    0   0   1
O0       0.500000000   0.500000000   0.499576871    0   0   1
O0       0.500000000   0.000000000   0.523228975    0   0   1
Cr1      0.750000000   0.000000000   0.583403628    0   0   1
Cr1      0.500000000   0.500000000   0.576131622    0   0   1
O0       0.750000000   0.700000000   0.574530540    0   0   1
O0       0.750000000   0.300000000   0.574473054    0   0   1
O0       0.500000000   0.000000000   0.617341544    0   0   1
H2      -0.000582174   0.638690633   0.380807256
H2       0.499619317   0.638408323   0.381069043
H2       0.156958765   0.031146979   0.364863825
H2       0.656930239   0.031116446   0.364861436
O0       0.514685477   0.499688421   0.645617202
H2       0.364155377   0.498000341   0.662770674
End final coordinates



     init_run     :    114.72s CPU    116.81s WALL (       1 calls)
     electrons    :  39077.62s CPU  40453.07s WALL (       7 calls)
     update_pot   :    106.94s CPU    110.98s WALL (       6 calls)
     forces       :   1394.40s CPU   1459.72s WALL (       7 calls)

     Called by init_run:
     wfcinit      :     47.72s CPU     48.71s WALL (       1 calls)
     potinit      :      7.67s CPU      7.95s WALL (       1 calls)

     Called by electrons:
     c_bands      :  21543.60s CPU  22279.13s WALL (     172 calls)
     sum_band     :   9025.55s CPU   9328.89s WALL (     172 calls)
     v_of_rho     :    373.58s CPU    435.18s WALL (     176 calls)
     newd         :   8225.53s CPU   8265.91s WALL (     176 calls)
     mix_rho      :     66.67s CPU     68.40s WALL (     172 calls)

     Called by c_bands:
     init_us_2    :     56.88s CPU     57.36s WALL (    1830 calls)
     cegterg      :  21055.23s CPU  21503.39s WALL (     860 calls)

     Called by *egterg:
     h_psi        :  12331.37s CPU  12559.07s WALL (    2248 calls)
     s_psi        :   1294.94s CPU   1311.14s WALL (    2318 calls)
     g_psi        :     27.91s CPU     27.94s WALL (    1383 calls)
     cdiaghg      :   1784.54s CPU   1788.87s WALL (    2198 calls)

     Called by h_psi:
     add_vuspsi   :   1264.69s CPU   1282.83s WALL (    2248 calls)
     vhpsi        :   1270.60s CPU   1293.83s WALL (    2248 calls)

     General routines
     calbec       :   2960.09s CPU   2999.05s WALL (   16436 calls)
     fft          :    413.86s CPU    516.68s WALL (    5543 calls)
     ffts         :      4.93s CPU      5.15s WALL (     696 calls)
     fftw         :   6831.84s CPU   7056.61s WALL ( 1493076 calls)
     interpolate  :     48.27s CPU     48.82s WALL (     696 calls)
     davcio       :      0.10s CPU     30.34s WALL (    1865 calls)

     Parallel routines
     fft_scatter  :   2562.28s CPU   2874.02s WALL ( 1499315 calls)
     Hubbard U routines
     new_ns       :    270.21s CPU    286.89s WALL (     172 calls)
     vhpsi        :   1270.60s CPU   1293.83s WALL (    2248 calls)
     force_hub    :    345.34s CPU    359.66s WALL (       7 calls)

     PWSCF        :    11h23m CPU       11h47m WALL


   This run was terminated on:  12:39:10   5May2014            

=------------------------------------------------------------------------------=
   JOB DONE.
=------------------------------------------------------------------------------=
