
     Program PWSCF v.5.0.2 (svn rev. 9656) starts on 20Mar2014 at  9:35: 2 

     This program is part of the open-source Quantum ESPRESSO suite
     for quantum simulation of materials; please cite
         "P. Giannozzi et al., J. Phys.:Condens. Matter 21 395502 (2009);
          URL http://www.quantum-espresso.org", 
     in publications or presentations arising from this work. More details at
     http://www.quantum-espresso.org/quote.php

     Parallel version (MPI), running on    16 processors
     R & G space division:  proc/nbgrp/npool/nimage =      16

     Current dimensions of program PWSCF are:
     Max number of different atomic species (ntypx) = 10
     Max number of k-points (npk) =  40000
     Max angular momentum in pseudopotentials (lmaxx) =  3
     Reading input from pwscf.in
Warning: card &CELL ignored
Warning: card / ignored

     Subspace diagonalization in iterative solution of the eigenvalue problem:
     a serial algorithm will be used


     Parallelization info
     --------------------
     sticks:   dense  smooth     PW     G-vecs:    dense   smooth      PW
     Min         333     107     29                80655    14597    2175
     Max         334     108     30                80662    14631    2190
     Sum        5335    1713    477              1290557   233813   34969



     bravais-lattice index     =            0
     lattice parameter (alat)  =      10.1289  a.u.
     unit-cell volume          =    6836.7721 (a.u.)^3
     number of atoms/cell      =           31
     number of atomic types    =            3
     number of electrons       =       238.00
     number of Kohn-Sham states=          357
     kinetic-energy cutoff     =      40.0000  Ry
     charge density cutoff     =     500.0000  Ry
     convergence threshold     =      1.0E-06
     mixing beta               =       0.7000
     number of iterations used =            8  plain     mixing
     Exchange-correlation      = SLA  PW   PBE  PBE ( 1 4 3 4 0)
     EXX-fraction              =        0.00
     nstep                     =           50


     celldm(1)=  10.128932  celldm(2)=   0.000000  celldm(3)=   0.000000
     celldm(4)=   0.000000  celldm(5)=   0.000000  celldm(6)=   0.000000

     crystal axes: (cart. coord. in units of alat)
               a(1) = (   1.000000   0.000000   0.000000 )  
               a(2) = (   0.000000   1.306037   0.000000 )  
               a(3) = (   0.000000   0.000000   5.037380 )  

     reciprocal axes: (cart. coord. in units 2 pi/alat)
               b(1) = (  1.000000  0.000000  0.000000 )  
               b(2) = (  0.000000  0.765675  0.000000 )  
               b(3) = (  0.000000  0.000000  0.198516 )  


     PseudoPot. # 1 for O  read from file:
     /home/camp/zhonxu/pseudo/o_pbe_v1.01.uspp.F.UPF
     MD5 check sum: 2bcb18d16ea4b960afae9ec6d52f22d2
     Pseudo is Ultrasoft + core correction, Zval =  6.0
     Generated by new atomic code, or converted to UPF format
     Using radial grid of  737 points,  5 beta functions with: 
                l(1) =   0
                l(2) =   0
                l(3) =   1
                l(4) =   1
                l(5) =   2
     Q(r) pseudized with  8 coefficients,  rinner =    0.900   0.900   0.900
                                                       0.900   0.900

     PseudoPot. # 2 for Re read from file:
     /home/camp/zhonxu/pseudo/re_pbe_v1.uspp.F.UPF
     MD5 check sum: 6f5a5dcaf9c96c20d0ffdde0de57afc6
     Pseudo is Ultrasoft + core correction, Zval = 15.0
     Generated by new atomic code, or converted to UPF format
     Using radial grid of  981 points,  8 beta functions with: 
                l(1) =   0
                l(2) =   0
                l(3) =   1
                l(4) =   1
                l(5) =   2
                l(6) =   2
                l(7) =   3
                l(8) =   3
     Q(r) pseudized with  8 coefficients,  rinner =    1.000   1.000   1.000
                                                       1.000   1.000   1.000
                                                       1.000

     PseudoPot. # 3 for H  read from file:
     /home/camp/zhonxu/pseudo/h_pbe_v1.uspp.F.UPF
     MD5 check sum: 3408e3ff4ec8b0a4e358431e7e038a48
     Pseudo is Ultrasoft, Zval =  1.0
     Generated by new atomic code, or converted to UPF format
     Using radial grid of  615 points,  2 beta functions with: 
                l(1) =   0
                l(2) =   0
     Q(r) pseudized with  8 coefficients,  rinner =    0.700

     atomic species   valence    mass     pseudopotential
        O0             6.00    15.99940     O ( 1.00)
        Re1           15.00   186.20700     Re( 1.00)
        H2             1.00     1.00794     H ( 1.00)

     Starting magnetic structure 
     atomic species   magnetization
        O0           0.000
        Re1          0.000
        H2           0.000

     No symmetry found



   Cartesian axes

     site n.     atom                  positions (alat units)
         1           O0  tau(   1) = (   0.0000000   0.0000000   1.8688176  )
         2           O0  tau(   2) = (   0.0000000   0.6530184   1.9243296  )
         3           Re1 tau(   3) = (   0.2500000   0.6530184   2.2228951  )
         4           Re1 tau(   4) = (   0.0000000   0.0000000   2.2352367  )
         5           O0  tau(   5) = (   0.2500000   1.0187087   2.2249100  )
         6           O0  tau(   6) = (   0.2500000   0.2873281   2.2250611  )
         7           O0  tau(   7) = (   0.0000000   0.6530184   2.5071041  )
         8           O0  tau(   8) = (   0.0000000   0.0000000   2.5966183  )
         9           Re1 tau(   9) = (   0.2500000   0.0000000   2.8989619  )
        10           Re1 tau(  10) = (   0.0000000   0.6530184   2.8608793  )
        11           O0  tau(  11) = (   0.2500000   0.9403465   2.8908013  )
        12           O0  tau(  12) = (   0.2500000   0.3656903   2.8907005  )
        13           O0  tau(  13) = (   0.0000000   0.0000000   3.1620138  )
        14           O0  tau(  14) = (   0.5000000   0.0000000   1.8688176  )
        15           O0  tau(  15) = (   0.5000000   0.6530184   1.9243296  )
        16           Re1 tau(  16) = (   0.7500000   0.6530184   2.2228951  )
        17           Re1 tau(  17) = (   0.5000000   0.0000000   2.2352367  )
        18           O0  tau(  18) = (   0.7500000   1.0187087   2.2249604  )
        19           O0  tau(  19) = (   0.7500000   0.2873281   2.2250611  )
        20           O0  tau(  20) = (   0.5000000   0.6530184   2.5071041  )
        21           O0  tau(  21) = (   0.5000000   0.0000000   2.5966183  )
        22           Re1 tau(  22) = (   0.7500000   0.0000000   2.8989619  )
        23           Re1 tau(  23) = (   0.5000000   0.6530184   2.8609296  )
        24           O0  tau(  24) = (   0.7500000   0.9403465   2.8908013  )
        25           O0  tau(  25) = (   0.7500000   0.3656903   2.8907005  )
        26           O0  tau(  26) = (   0.5000000   0.0000000   3.1620138  )
        27           H2  tau(  27) = (  -0.0003800   0.8172395   1.8403061  )
        28           H2  tau(  28) = (   0.4996200   0.8172395   1.8403061  )
        29           H2  tau(  29) = (   0.1698700   0.0284977   1.7974380  )
        30           H2  tau(  30) = (   0.6698800   0.0284977   1.7974380  )
        31           O0  tau(  31) = (   0.5000000   0.6530184   3.1246869  )

     number of k points=    20  Methfessel-Paxton smearing, width (Ry)=  0.0100
                       cart. coord. in units 2pi/alat
        k(    1) = (   0.0000000   0.0000000   0.0000000), wk =   0.0625000
        k(    2) = (   0.0000000   0.1914188   0.0000000), wk =   0.1250000
        k(    3) = (   0.0000000  -0.3828376   0.0000000), wk =   0.0625000
        k(    4) = (   0.2500000   0.0000000   0.0000000), wk =   0.1250000
        k(    5) = (   0.2500000   0.1914188   0.0000000), wk =   0.1250000
        k(    6) = (   0.2500000  -0.3828376   0.0000000), wk =   0.1250000
        k(    7) = (  -0.5000000   0.0000000   0.0000000), wk =   0.0625000
        k(    8) = (  -0.5000000   0.1914188   0.0000000), wk =   0.1250000
        k(    9) = (  -0.5000000  -0.3828376   0.0000000), wk =   0.0625000
        k(   10) = (  -0.2500000   0.1914188   0.0000000), wk =   0.1250000
        k(   11) = (   0.0000000   0.0000000   0.0000000), wk =   0.0625000
        k(   12) = (   0.0000000   0.1914188   0.0000000), wk =   0.1250000
        k(   13) = (   0.0000000  -0.3828376   0.0000000), wk =   0.0625000
        k(   14) = (   0.2500000   0.0000000   0.0000000), wk =   0.1250000
        k(   15) = (   0.2500000   0.1914188   0.0000000), wk =   0.1250000
        k(   16) = (   0.2500000  -0.3828376   0.0000000), wk =   0.1250000
        k(   17) = (  -0.5000000   0.0000000   0.0000000), wk =   0.0625000
        k(   18) = (  -0.5000000   0.1914188   0.0000000), wk =   0.1250000
        k(   19) = (  -0.5000000  -0.3828376   0.0000000), wk =   0.0625000
        k(   20) = (  -0.2500000   0.1914188   0.0000000), wk =   0.1250000

     Dense  grid:  1290557 G-vectors     FFT dimensions: (  75,  96, 375)

     Smooth grid:   233813 G-vectors     FFT dimensions: (  45,  54, 216)

     Largest allocated arrays     est. size (Mb)     dimensions
        Kohn-Sham Wavefunctions        10.09 Mb     (   1853,  357)
        NL pseudopotentials            14.45 Mb     (   1853,  511)
        Each V/rho on FFT grid          5.27 Mb     ( 172800,   2)
        Each G-vector array             0.62 Mb     (  80661)
        G-vector shells                 0.30 Mb     (  39292)
     Largest temporary arrays     est. size (Mb)     dimensions
        Auxiliary wavefunctions        40.38 Mb     (   1853, 1428)
        Each subspace H/S matrix       31.12 Mb     (1428,1428)
        Each <psi_i|beta_j> matrix      2.78 Mb     (    511,  357)
        Arrays for rho mixing          21.09 Mb     ( 172800,   8)

     Check: negative/imaginary core charge=   -0.000003    0.000000

     Initial potential from superposition of free atoms
     Check: negative starting charge=(component1):   -0.118292
     Check: negative starting charge=(component2):   -0.118292

     starting charge  233.99958, renormalised to  238.00000

     negative rho (up, down):  0.120E+00 0.120E+00
     Starting wfc are  184 randomized atomic wfcs

     total cpu time spent up to now is      151.7 secs

     per-process dynamical memory:   349.7 Mb

     Self-consistent Calculation

     iteration #  1     ecut=    40.00 Ry     beta=0.70
     Davidson diagonalization with overlap
     ethr =  1.00E-02,  avg # of iterations =  5.9

     negative rho (up, down):  0.142E+00 0.142E+00

     total cpu time spent up to now is     1269.6 secs

     total energy              =   -2168.04906420 Ry
     Harris-Foulkes estimate   =   -2176.66187264 Ry
     estimated scf accuracy    <      10.42818521 Ry

     total magnetization       =     0.00 Bohr mag/cell
     absolute magnetization    =     0.00 Bohr mag/cell

     iteration #  2     ecut=    40.00 Ry     beta=0.70
     Davidson diagonalization with overlap
     ethr =  4.38E-03,  avg # of iterations =  5.2

     negative rho (up, down):  0.141E+00 0.141E+00

     total cpu time spent up to now is     2184.6 secs

     total energy              =   -2109.02711496 Ry
     Harris-Foulkes estimate   =   -2238.90222821 Ry
     estimated scf accuracy    <    1832.11583114 Ry

     total magnetization       =     0.00 Bohr mag/cell
     absolute magnetization    =     0.00 Bohr mag/cell

     iteration #  3     ecut=    40.00 Ry     beta=0.70
     Davidson diagonalization with overlap
     ethr =  4.38E-03,  avg # of iterations =  5.1

     negative rho (up, down):  0.120E+00 0.120E+00

     total cpu time spent up to now is     3199.8 secs

     total energy              =   -2164.71006426 Ry
     Harris-Foulkes estimate   =   -2183.05322229 Ry
     estimated scf accuracy    <     177.83373394 Ry

     total magnetization       =     0.00 Bohr mag/cell
     absolute magnetization    =     0.00 Bohr mag/cell

     iteration #  4     ecut=    40.00 Ry     beta=0.70
     Davidson diagonalization with overlap
     ethr =  4.38E-03,  avg # of iterations =  3.1

     negative rho (up, down):  0.117E+00 0.117E+00

     total cpu time spent up to now is     3679.0 secs

     total energy              =   -2174.07521295 Ry
     Harris-Foulkes estimate   =   -2175.98178509 Ry
     estimated scf accuracy    <      10.01656572 Ry

     total magnetization       =     0.00 Bohr mag/cell
     absolute magnetization    =     0.00 Bohr mag/cell

     iteration #  5     ecut=    40.00 Ry     beta=0.70
     Davidson diagonalization with overlap
     ethr =  4.21E-03,  avg # of iterations =  1.1

     negative rho (up, down):  0.117E+00 0.117E+00

     total cpu time spent up to now is     4063.1 secs

     total energy              =   -2174.89130128 Ry
     Harris-Foulkes estimate   =   -2175.36581564 Ry
     estimated scf accuracy    <       3.78032714 Ry

     total magnetization       =     0.00 Bohr mag/cell
     absolute magnetization    =     0.00 Bohr mag/cell

     iteration #  6     ecut=    40.00 Ry     beta=0.70
     Davidson diagonalization with overlap
     ethr =  1.59E-03,  avg # of iterations =  1.7

     negative rho (up, down):  0.118E+00 0.118E+00

     total cpu time spent up to now is     4465.9 secs

     total energy              =   -2175.01757600 Ry
     Harris-Foulkes estimate   =   -2175.10259246 Ry
     estimated scf accuracy    <       0.65780486 Ry

     total magnetization       =     0.00 Bohr mag/cell
     absolute magnetization    =     0.00 Bohr mag/cell

     iteration #  7     ecut=    40.00 Ry     beta=0.70
     Davidson diagonalization with overlap
     ethr =  2.76E-04,  avg # of iterations =  4.8

     negative rho (up, down):  0.118E+00 0.118E+00

     total cpu time spent up to now is     4979.9 secs

     total energy              =   -2174.99339502 Ry
     Harris-Foulkes estimate   =   -2175.05575904 Ry
     estimated scf accuracy    <       0.35950546 Ry

     total magnetization       =     0.00 Bohr mag/cell
     absolute magnetization    =     0.00 Bohr mag/cell

     iteration #  8     ecut=    40.00 Ry     beta=0.70
     Davidson diagonalization with overlap
     ethr =  1.51E-04,  avg # of iterations =  1.5

     negative rho (up, down):  0.119E+00 0.119E+00

     total cpu time spent up to now is     5381.9 secs

     total energy              =   -2174.98320655 Ry
     Harris-Foulkes estimate   =   -2175.07021255 Ry
     estimated scf accuracy    <       1.32991289 Ry

     total magnetization       =     0.00 Bohr mag/cell
     absolute magnetization    =     0.00 Bohr mag/cell

     iteration #  9     ecut=    40.00 Ry     beta=0.70
     Davidson diagonalization with overlap
     ethr =  1.51E-04,  avg # of iterations =  3.5

     negative rho (up, down):  0.120E+00 0.120E+00

     total cpu time spent up to now is     5836.7 secs

     total energy              =   -2174.96821727 Ry
     Harris-Foulkes estimate   =   -2175.02627026 Ry
     estimated scf accuracy    <       0.49537223 Ry

     total magnetization       =     0.00 Bohr mag/cell
     absolute magnetization    =     0.00 Bohr mag/cell

     iteration # 10     ecut=    40.00 Ry     beta=0.70
     Davidson diagonalization with overlap
     ethr =  1.51E-04,  avg # of iterations =  1.9

     negative rho (up, down):  0.121E+00 0.121E+00

     total cpu time spent up to now is     6238.3 secs

     total energy              =   -2174.96872091 Ry
     Harris-Foulkes estimate   =   -2175.00405997 Ry
     estimated scf accuracy    <       0.16361584 Ry

     total magnetization       =     0.00 Bohr mag/cell
     absolute magnetization    =     0.00 Bohr mag/cell

     iteration # 11     ecut=    40.00 Ry     beta=0.70
     Davidson diagonalization with overlap
     ethr =  6.87E-05,  avg # of iterations =  5.8

     negative rho (up, down):  0.122E+00 0.122E+00

     total cpu time spent up to now is     6788.9 secs

     total energy              =   -2174.97960315 Ry
     Harris-Foulkes estimate   =   -2174.98636054 Ry
     estimated scf accuracy    <       0.02434526 Ry

     total magnetization       =     0.00 Bohr mag/cell
     absolute magnetization    =     0.00 Bohr mag/cell

     iteration # 12     ecut=    40.00 Ry     beta=0.70
     Davidson diagonalization with overlap
     ethr =  1.02E-05,  avg # of iterations =  4.8

     negative rho (up, down):  0.122E+00 0.122E+00

     total cpu time spent up to now is     7323.2 secs

     total energy              =   -2174.97935754 Ry
     Harris-Foulkes estimate   =   -2174.98711028 Ry
     estimated scf accuracy    <       0.04335373 Ry

     total magnetization       =     0.00 Bohr mag/cell
     absolute magnetization    =     0.00 Bohr mag/cell

     iteration # 13     ecut=    40.00 Ry     beta=0.70
     Davidson diagonalization with overlap
     ethr =  1.02E-05,  avg # of iterations =  3.6

     negative rho (up, down):  0.122E+00 0.122E+00

     total cpu time spent up to now is     7783.2 secs

     total energy              =   -2174.98101736 Ry
     Harris-Foulkes estimate   =   -2174.98514889 Ry
     estimated scf accuracy    <       0.04443328 Ry

     total magnetization       =     0.00 Bohr mag/cell
     absolute magnetization    =     0.00 Bohr mag/cell

     iteration # 14     ecut=    40.00 Ry     beta=0.70
     Davidson diagonalization with overlap
     ethr =  1.02E-05,  avg # of iterations =  4.5

     negative rho (up, down):  0.122E+00 0.122E+00

     total cpu time spent up to now is     8272.7 secs

     total energy              =   -2174.98238455 Ry
     Harris-Foulkes estimate   =   -2174.98457801 Ry
     estimated scf accuracy    <       0.02412206 Ry

     total magnetization       =     0.00 Bohr mag/cell
     absolute magnetization    =     0.00 Bohr mag/cell

     iteration # 15     ecut=    40.00 Ry     beta=0.70
     Davidson diagonalization with overlap
     ethr =  1.01E-05,  avg # of iterations =  2.2

     negative rho (up, down):  0.122E+00 0.122E+00

     total cpu time spent up to now is     8685.2 secs

     total energy              =   -2174.98334707 Ry
     Harris-Foulkes estimate   =   -2174.98386631 Ry
     estimated scf accuracy    <       0.00318743 Ry

     total magnetization       =     0.00 Bohr mag/cell
     absolute magnetization    =     0.00 Bohr mag/cell

     iteration # 16     ecut=    40.00 Ry     beta=0.70
     Davidson diagonalization with overlap
     ethr =  1.34E-06,  avg # of iterations =  5.7

     negative rho (up, down):  0.122E+00 0.122E+00

     total cpu time spent up to now is     9211.4 secs

     total energy              =   -2174.98351798 Ry
     Harris-Foulkes estimate   =   -2174.98369942 Ry
     estimated scf accuracy    <       0.00089234 Ry

     total magnetization       =     0.00 Bohr mag/cell
     absolute magnetization    =     0.00 Bohr mag/cell

     iteration # 17     ecut=    40.00 Ry     beta=0.70
     Davidson diagonalization with overlap
     ethr =  3.75E-07,  avg # of iterations =  1.0

     negative rho (up, down):  0.122E+00 0.122E+00

     total cpu time spent up to now is     9585.9 secs

     total energy              =   -2174.98357649 Ry
     Harris-Foulkes estimate   =   -2174.98368329 Ry
     estimated scf accuracy    <       0.00085521 Ry

     total magnetization       =     0.00 Bohr mag/cell
     absolute magnetization    =     0.00 Bohr mag/cell

     iteration # 18     ecut=    40.00 Ry     beta=0.70
     Davidson diagonalization with overlap
     ethr =  3.59E-07,  avg # of iterations =  1.0

     negative rho (up, down):  0.122E+00 0.122E+00

     total cpu time spent up to now is     9960.5 secs

     total energy              =   -2174.98362115 Ry
     Harris-Foulkes estimate   =   -2174.98364197 Ry
     estimated scf accuracy    <       0.00016628 Ry

     total magnetization       =     0.00 Bohr mag/cell
     absolute magnetization    =     0.00 Bohr mag/cell

     iteration # 19     ecut=    40.00 Ry     beta=0.70
     Davidson diagonalization with overlap
     ethr =  6.99E-08,  avg # of iterations =  1.0

     negative rho (up, down):  0.122E+00 0.122E+00

     total cpu time spent up to now is    10336.6 secs

     total energy              =   -2174.98362382 Ry
     Harris-Foulkes estimate   =   -2174.98364205 Ry
     estimated scf accuracy    <       0.00010053 Ry

     total magnetization       =     0.00 Bohr mag/cell
     absolute magnetization    =     0.00 Bohr mag/cell

     iteration # 20     ecut=    40.00 Ry     beta=0.70
     Davidson diagonalization with overlap
     ethr =  4.22E-08,  avg # of iterations =  1.0

     negative rho (up, down):  0.122E+00 0.122E+00

     total cpu time spent up to now is    10712.0 secs

     total energy              =   -2174.98363061 Ry
     Harris-Foulkes estimate   =   -2174.98363670 Ry
     estimated scf accuracy    <       0.00003640 Ry

     total magnetization       =     0.00 Bohr mag/cell
     absolute magnetization    =     0.00 Bohr mag/cell

     iteration # 21     ecut=    40.00 Ry     beta=0.70
     Davidson diagonalization with overlap
     ethr =  1.53E-08,  avg # of iterations =  1.0

     negative rho (up, down):  0.122E+00 0.122E+00

     total cpu time spent up to now is    11087.6 secs

     total energy              =   -2174.98363349 Ry
     Harris-Foulkes estimate   =   -2174.98363464 Ry
     estimated scf accuracy    <       0.00000491 Ry

     total magnetization       =     0.00 Bohr mag/cell
     absolute magnetization    =     0.00 Bohr mag/cell

     iteration # 22     ecut=    40.00 Ry     beta=0.70
     Davidson diagonalization with overlap
     ethr =  2.06E-09,  avg # of iterations =  1.0

     negative rho (up, down):  0.122E+00 0.122E+00

     total cpu time spent up to now is    11463.1 secs

     total energy              =   -2174.98363375 Ry
     Harris-Foulkes estimate   =   -2174.98363458 Ry
     estimated scf accuracy    <       0.00000496 Ry

     total magnetization       =     0.00 Bohr mag/cell
     absolute magnetization    =     0.00 Bohr mag/cell

     iteration # 23     ecut=    40.00 Ry     beta=0.70
     Davidson diagonalization with overlap
     ethr =  2.06E-09,  avg # of iterations =  1.0

     negative rho (up, down):  0.122E+00 0.122E+00

     total cpu time spent up to now is    11841.0 secs

     total energy              =   -2174.98363414 Ry
     Harris-Foulkes estimate   =   -2174.98363436 Ry
     estimated scf accuracy    <       0.00000182 Ry

     total magnetization       =     0.00 Bohr mag/cell
     absolute magnetization    =     0.00 Bohr mag/cell

     iteration # 24     ecut=    40.00 Ry     beta=0.70
     Davidson diagonalization with overlap
     ethr =  7.63E-10,  avg # of iterations =  1.0

     negative rho (up, down):  0.122E+00 0.122E+00

     total cpu time spent up to now is    12217.4 secs

     End of self-consistent calculation

 ------ SPIN UP ------------


          k = 0.0000 0.0000 0.0000 ( 29221 PWs)   bands (ev):

   -82.5147 -81.5415 -81.4566 -81.2738 -81.2177 -81.0492 -80.9938 -80.9476
   -46.4455 -44.2944 -44.0781 -43.7432 -43.5266 -43.4368 -43.4313 -43.3200
   -43.2829 -43.2756 -43.2652 -43.1773 -43.1137 -43.0559 -42.9668 -42.9420
   -42.9374 -42.9173 -42.8727 -42.8670 -42.8575 -42.6525 -42.6350 -42.3994
   -21.3344 -20.8939 -20.6073 -20.4813 -20.3687 -20.0293 -19.8320 -19.5723
   -19.5498 -19.5020 -19.3927 -19.3422 -19.3051 -19.2724 -19.2263 -18.9363
   -18.7596 -18.2944 -17.9502  -9.7863  -9.5068  -9.4938  -9.2445  -9.0836
    -8.7337  -8.7060  -8.1947  -8.1944  -7.8999  -7.8507  -7.8038  -7.6364
    -7.5981  -7.4051  -7.2046  -7.1024  -7.0107  -6.9671  -6.9318  -6.8468
    -6.7920  -6.4286  -5.8818  -5.8577  -5.6450  -5.6152  -5.5916  -5.4611
    -5.4130  -5.2845  -5.1407  -5.0803  -4.9681  -4.7794  -4.7677  -4.6082
    -4.4548  -4.4241  -4.3586  -4.2202  -4.1247  -4.0517  -3.9102  -3.8421
    -3.6536  -3.5384  -3.4508  -3.3955  -3.3926  -3.2877  -3.2079  -3.1052
    -3.0214  -2.9939  -2.8905  -2.7517  -2.5963  -2.5235  -2.4030  -1.0855
    -0.6187  -0.4836  -0.1519   0.1066   0.1302   0.3350   0.4577   0.5020
     0.6888   0.8917   1.0797   1.2373   1.5113   1.8433   1.9046   2.1536
     2.7916   2.9066   3.0289   3.2277   3.4396   3.4501   3.5093   3.7498
     4.1397   4.1563   4.1655   4.4801   4.5675   4.7056   4.7853   4.8373
     4.9043   4.9358   5.0377   5.0644   5.3753   5.3993   5.6345   6.1673
     6.3024   6.4985   6.7856   7.3716   7.5127   7.6664   7.8433   7.9461
     8.0519   8.0967   8.2362   8.3087   8.3491   8.5838   8.6032   8.6991
     8.8619   8.9063   9.0316   9.0966   9.1688   9.2740   9.3786   9.4691
     9.6657   9.7586   9.8137   9.8606  10.0186  10.1139  10.1458  10.1920
    10.2370  10.3149  10.4571  10.5560  10.6009  10.6896  10.8792  11.0195
    11.0996  11.2271  11.2544  11.4356  11.4734  11.5992  11.6095  11.8570
    11.9605  12.0045  12.1351  12.1404  12.1596  12.2562  12.6171  12.7044
    12.7943  12.9170  12.9314  12.9654  13.0363  13.0516  13.1300  13.1941
    13.2223  13.2472  13.2525  13.3356  13.3642  13.4334  13.4767  13.5039
    13.6520  13.7304  13.8446  13.8875  13.9205  14.0407  14.0551  14.1407
    14.1631  14.2172  14.3260  14.3630  14.4038  14.4565  14.5706  14.6492
    14.8315  14.9286  15.0508  15.0542  15.1147  15.1679  15.2224  15.2502
    15.3955  15.5249  15.5898  15.6604  15.6743  15.8432  15.9259  15.9751
    16.0223  16.0879  16.1561  16.2410  16.4025  16.5276  16.6066  16.6783
    16.6838  16.8358  16.8736  17.0273  17.0336  17.1604  17.2323  17.2628
    17.3447  17.4110  17.4953  17.5837  17.6544  17.6717  17.6895  17.7614
    17.8788  18.0131  18.0581  18.1932  18.2822  18.3989  18.4260  18.5097
    18.5942  18.6604  18.8177  18.9158  18.9286  18.9938  19.0271  19.0351
    19.1639  19.1960  19.2601  19.2652  19.4626  19.5690  19.7183  19.8039
    19.8134  19.9434  20.0011  20.1160  20.1289  20.1458  20.2555  20.2777
    20.4611  20.5249  20.6683  20.7215  20.8027  20.8546  20.9088  20.9909
    21.0853  21.1005  21.1676  21.2248  21.3665  21.4269  21.5348  21.6380
    21.6680  21.7994  21.9112  21.9322  22.0555  22.0748  22.1163  22.1887
    22.2175  22.2843  22.2969  22.4140  22.4643  22.4956  22.5654  22.5792
    22.6161  22.6380  22.6517  22.6700  22.7442  22.8082  22.8534  22.8967
    22.9364  22.9938  23.1479  23.1903  23.2257

          k = 0.0000 0.1914 0.0000 ( 29141 PWs)   bands (ev):

   -82.5147 -81.5415 -81.4566 -81.2738 -81.2177 -81.0492 -80.9938 -80.9476
   -46.4454 -44.2945 -44.0777 -43.7433 -43.5265 -43.4354 -43.4314 -43.3199
   -43.2874 -43.2709 -43.2647 -43.1772 -43.1137 -43.0560 -42.9668 -42.9437
   -42.9385 -42.9173 -42.8727 -42.8670 -42.8571 -42.6522 -42.6352 -42.3993
   -21.3123 -20.8601 -20.5116 -20.4257 -20.3208 -20.0361 -19.8326 -19.8303
   -19.8242 -19.5712 -19.4102 -19.3902 -19.3770 -19.0250 -19.0026 -18.9333
   -18.7578 -18.2904 -17.9501  -9.4889  -9.4849  -9.2601  -9.0539  -8.9712
    -8.7602  -8.6966  -8.4272  -8.3465  -8.2419  -8.1974  -8.1902  -7.8733
    -7.6606  -7.5603  -7.4358  -7.1731  -6.9968  -6.5748  -6.4612  -6.3498
    -6.2621  -6.1525  -5.9777  -5.9483  -5.7143  -5.6667  -5.6127  -5.5229
    -5.5116  -5.4822  -5.2597  -5.2371  -5.0812  -4.9819  -4.5694  -4.5488
    -4.4789  -4.3907  -4.2842  -4.1945  -4.1091  -3.9621  -3.8964  -3.8623
    -3.6243  -3.5603  -3.5300  -3.3931  -3.3372  -3.2102  -3.1197  -3.0956
    -3.0132  -2.8861  -2.8249  -2.7236  -2.6459  -2.5247  -2.4337  -1.0825
    -1.0747  -0.9210  -0.5049  -0.1233   0.1335   0.8638   0.9047   0.9262
     0.9733   1.0315   1.1239   1.2509   1.3580   1.6652   1.9210   2.1215
     2.7445   3.0063   3.1519   3.2044   3.4161   3.4526   3.5167   3.6197
     3.7800   4.0987   4.1394   4.2069   4.2306   4.2463   4.5428   4.7095
     4.8550   5.0648   5.1456   5.5074   5.6987   5.9392   6.2843   6.3908
     6.4574   6.5416   6.6501   6.8605   7.0211   7.2283   7.5543   7.6025
     7.7170   7.8332   8.1136   8.2396   8.3947   8.5835   8.7969   8.8437
     9.0352   9.2638   9.2801   9.4358   9.5106   9.6320   9.6957   9.7036
     9.8659   9.9653  10.0079  10.0530  10.2047  10.2727  10.3507  10.3859
    10.4800  10.5807  10.5961  10.6805  10.7673  10.8548  10.9894  11.1216
    11.2267  11.2857  11.3552  11.4231  11.4987  11.5628  11.6334  11.7712
    11.8120  11.8957  11.9358  11.9527  12.0798  12.2264  12.2384  12.2780
    12.3567  12.4071  12.4532  12.4908  12.5464  12.7517  12.9277  12.9441
    13.0882  13.1397  13.2394  13.3030  13.3935  13.4120  13.5273  13.6156
    13.7123  13.7417  13.8251  13.8683  13.9231  14.0354  14.1842  14.2842
    14.2987  14.3513  14.3890  14.5623  14.5836  14.6545  14.6657  14.7281
    14.8313  14.8643  14.9424  14.9551  14.9888  15.1341  15.2097  15.3227
    15.3704  15.4601  15.5285  15.5910  15.6181  15.7386  15.7819  15.8378
    15.8682  15.9015  15.9708  16.0259  16.2990  16.3385  16.4829  16.5682
    16.5889  16.7598  16.7860  16.9368  16.9534  17.1110  17.1621  17.2698
    17.3199  17.3617  17.3936  17.5376  17.6428  17.7343  17.7592  18.0305
    18.1096  18.1337  18.2331  18.2566  18.3914  18.4759  18.5413  18.6651
    18.7395  18.8207  18.8848  18.9437  19.0154  19.0566  19.1003  19.1339
    19.2609  19.2735  19.4320  19.4946  19.6255  19.6422  19.6938  19.7045
    19.7491  19.8664  19.9006  19.9756  20.0461  20.1207  20.2031  20.2546
    20.2816  20.4369  20.4829  20.5055  20.5724  20.5964  20.6624  20.7744
    20.8741  20.9349  20.9512  21.0475  21.0911  21.1200  21.2527  21.2973
    21.4325  21.4733  21.5423  21.5994  21.6879  21.7394  21.7430  21.8104
    21.9180  22.0388  22.1171  22.1536  22.1978  22.2994  22.3829  22.4107
    22.4435  22.5904  22.6329  22.7101  22.7455  22.7914  22.8436  22.9137
    22.9582  22.9880  23.1307  23.2032  23.2871

          k = 0.0000-0.3828 0.0000 ( 29262 PWs)   bands (ev):

   -82.5148 -81.5415 -81.4566 -81.2738 -81.2177 -81.0492 -80.9938 -80.9476
   -46.4455 -44.2946 -44.0773 -43.7436 -43.5266 -43.4339 -43.4314 -43.3200
   -43.2903 -43.2681 -43.2643 -43.1771 -43.1137 -43.0560 -42.9669 -42.9455
   -42.9396 -42.9174 -42.8728 -42.8670 -42.8568 -42.6518 -42.6355 -42.3994
   -21.2925 -20.8303 -20.4198 -20.3642 -20.1170 -19.9916 -19.9687 -19.9646
   -19.9621 -19.7018 -19.6481 -19.4266 -19.3907 -18.9320 -18.8432 -18.8307
   -18.7473 -18.2874 -17.9500  -9.4640  -9.3742  -9.0361  -8.9757  -8.7984
    -8.7341  -8.7088  -8.6565  -8.4698  -8.2731  -8.2403  -8.1798  -7.7700
    -7.6787  -7.5851  -7.3632  -7.2157  -7.1902  -7.1600  -6.8666  -6.5733
    -6.2512  -5.9113  -5.8654  -5.7981  -5.7445  -5.5968  -5.4475  -5.4308
    -5.4283  -5.3756  -5.0978  -5.0789  -5.0220  -4.9122  -4.6939  -4.6401
    -4.4689  -4.4663  -4.4061  -4.0236  -3.9430  -3.9124  -3.7434  -3.7379
    -3.7343  -3.6601  -3.6447  -3.5877  -3.4868  -3.2872  -3.1774  -3.0581
    -2.9228  -2.7511  -2.7007  -2.6551  -2.5475  -2.4913  -2.4415  -1.4677
    -1.2398  -1.0781  -0.8526  -0.1853   0.5354   0.7938   0.9184   1.0367
     1.2093   1.2247   1.2595   1.4782   1.4804   1.6760   1.9546   2.1446
     2.4590   2.5979   2.8060   3.1697   3.3214   3.4773   3.5360   3.6914
     3.6982   3.7822   4.0328   4.1917   4.3323   4.6151   4.7352   4.8255
     5.0661   5.0989   5.2165   5.6387   5.7513   5.8833   6.0597   6.2491
     6.4485   6.6123   6.7174   6.7879   7.0374   7.0417   7.2131   7.3527
     7.6196   7.6662   7.7679   8.2675   8.5996   8.6774   8.7019   8.8242
     9.1002   9.3375   9.4191   9.4627   9.4986   9.7983   9.8904   9.9083
    10.2415  10.3511  10.3892  10.4926  10.5589  10.5901  10.6275  10.7897
    10.8630  10.8634  10.9497  10.9828  11.0030  11.0451  11.2251  11.2404
    11.3718  11.3892  11.4186  11.4728  11.4874  11.5017  11.5403  11.6038
    11.6839  11.7818  11.8071  11.8453  11.9510  11.9764  12.0620  12.1089
    12.1707  12.2626  12.3085  12.3584  12.4969  12.5234  12.5532  12.5638
    12.6660  12.7722  13.0280  13.0683  13.0696  13.1894  13.4008  13.4533
    13.4863  13.5439  13.5540  13.6132  13.7343  13.8996  13.9079  13.9686
    14.1207  14.1290  14.1781  14.2203  14.2613  14.3307  14.4689  14.5619
    14.7431  14.8326  14.8496  15.0056  15.1695  15.1823  15.4033  15.4202
    15.4697  15.5568  15.6725  15.8626  15.8914  15.9809  16.0608  16.2504
    16.3752  16.4710  16.5678  16.6514  16.6686  16.8112  16.8644  16.8930
    16.9196  16.9652  16.9903  17.0736  17.1496  17.1764  17.2280  17.3438
    17.4165  17.4360  17.5745  17.5940  17.6379  17.6521  17.7096  17.7515
    17.7703  17.8502  17.8567  17.8838  18.0376  18.1331  18.2278  18.2844
    18.3318  18.4416  18.4442  18.5447  18.5624  18.7017  18.8471  18.8607
    18.8863  18.9473  18.9638  19.0862  19.1601  19.2261  19.2960  19.4913
    19.5083  19.7435  19.8554  19.9343  19.9464  20.0247  20.0378  20.0912
    20.1268  20.2286  20.3658  20.3850  20.5377  20.6382  20.6587  20.7459
    20.7704  20.8555  20.8732  21.0019  21.0162  21.2254  21.2845  21.3101
    21.4298  21.5643  21.5806  21.7690  21.8425  21.8453  21.9835  22.0934
    22.1553  22.1579  22.2142  22.2671  22.3020  22.5408  22.6147  22.6746
    22.7899  22.8446  22.9314  22.9532  23.0573  23.0961  23.1324  23.2547
    23.2634  23.3537  23.3841  23.4016  23.5197

          k = 0.2500 0.0000 0.0000 ( 29190 PWs)   bands (ev):

   -82.5145 -81.5368 -81.4614 -81.2656 -81.2259 -81.0411 -81.0019 -80.9479
   -46.4453 -44.2398 -44.0762 -43.6224 -43.4226 -43.4181 -43.4027 -43.3290
   -43.3023 -43.2526 -43.1905 -43.1562 -43.0929 -43.0333 -43.0056 -42.9886
   -42.9399 -42.9392 -42.9293 -42.8699 -42.8666 -42.7719 -42.7188 -42.5330
   -21.2525 -20.8100 -20.4712 -20.3948 -20.3111 -20.1172 -19.7291 -19.5962
   -19.5293 -19.5136 -19.4825 -19.3771 -19.3430 -19.3086 -19.2656 -18.9651
   -18.8574 -18.3032 -18.0694  -9.5254  -9.3607  -9.1405  -9.0469  -8.9440
    -8.6429  -8.3988  -8.2590  -8.0553  -7.9168  -7.7923  -7.6768  -7.6417
    -7.5171  -7.4122  -7.2249  -7.0866  -7.0451  -6.8477  -6.6434  -6.6313
    -6.5364  -6.3850  -6.3607  -6.1894  -5.9098  -5.7813  -5.6919  -5.5746
    -5.3706  -5.2038  -5.0801  -5.0168  -4.8127  -4.7955  -4.6103  -4.5780
    -4.5133  -4.5093  -4.4097  -4.3540  -4.3012  -4.1732  -4.0478  -3.9974
    -3.8559  -3.8391  -3.6694  -3.5263  -3.4935  -3.4057  -3.2338  -3.1218
    -2.9437  -2.8228  -2.7430  -2.6345  -2.5339  -2.4803  -1.8166  -0.7996
    -0.6331  -0.4306  -0.2694  -0.1239   0.0202   0.2583   0.4098   0.5299
     0.6695   0.9047   1.0969   1.1579   1.2300   1.3529   1.4776   1.7623
     1.9348   2.0890   2.1172   2.2512   2.8792   3.5349   3.7967   3.9893
     4.0325   4.2859   4.3610   4.3910   4.4480   4.6833   4.7306   4.7956
     5.0663   5.1247   5.1564   5.2537   5.4048   5.7934   5.9984   6.2372
     6.4801   6.6106   6.8914   7.1058   7.6203   7.6735   7.7597   7.8882
     8.0624   8.1916   8.2221   8.3247   8.3448   8.4242   8.4904   8.6722
     8.6968   8.8396   8.9929   9.0983   9.1383   9.1901   9.2425   9.4155
     9.5163   9.6031   9.6887   9.8048   9.9192   9.9936  10.0247  10.1376
    10.1864  10.2752  10.4761  10.5300  10.6072  10.7680  10.8356  10.9586
    11.0430  11.0970  11.2003  11.2734  11.3026  11.3988  11.5751  11.6594
    11.7569  11.8159  11.9427  12.1403  12.2901  12.3492  12.4470  12.4625
    12.5165  12.6674  12.7295  12.9261  12.9875  13.0377  13.2568  13.2834
    13.3335  13.3485  13.4673  13.5618  13.6382  13.6888  13.7828  13.8057
    13.9337  13.9881  14.0473  14.2266  14.3170  14.3680  14.4673  14.5645
    14.6851  14.7742  14.8284  14.8663  14.9619  15.0243  15.1021  15.1429
    15.2933  15.3675  15.4427  15.6296  15.6535  15.7129  15.8357  15.8620
    15.9351  15.9526  16.1004  16.1982  16.2741  16.3047  16.3611  16.4062
    16.5030  16.6668  16.7173  16.7356  16.7657  16.8060  16.9863  17.0542
    17.0892  17.1994  17.2696  17.3509  17.4091  17.4645  17.5129  17.5475
    17.5565  17.6273  17.7226  17.7770  17.8444  17.8890  17.9877  18.0003
    18.0912  18.1789  18.2146  18.2614  18.3284  18.3822  18.4790  18.5995
    18.6555  18.7124  18.7694  18.9462  18.9955  19.0125  19.1255  19.1328
    19.2643  19.3545  19.4442  19.5196  19.5632  19.6051  19.6287  19.7018
    19.7721  19.8253  19.9426  20.0542  20.0913  20.1617  20.2141  20.2705
    20.3212  20.3639  20.4220  20.4811  20.5106  20.5314  20.5983  20.6846
    20.8224  20.8695  20.9251  20.9567  20.9982  21.0444  21.0841  21.1000
    21.2107  21.2357  21.3565  21.3749  21.3978  21.5228  21.6395  21.7489
    21.7919  21.8527  21.9461  22.0045  22.0426  22.1239  22.1987  22.2342
    22.3200  22.3412  22.4142  22.4427  22.5540  22.6345  22.6678  22.6978
    22.7755  22.8236  22.9189  22.9515  22.9889

          k = 0.2500 0.1914 0.0000 ( 29229 PWs)   bands (ev):

   -82.5145 -81.5368 -81.4614 -81.2656 -81.2259 -81.0411 -81.0019 -80.9479
   -46.4453 -44.2399 -44.0758 -43.6226 -43.4225 -43.4169 -43.4028 -43.3290
   -43.3023 -43.2522 -43.1903 -43.1559 -43.0929 -43.0334 -43.0060 -42.9886
   -42.9411 -42.9392 -42.9305 -42.8699 -42.8666 -42.7718 -42.7187 -42.5330
   -21.2398 -20.7836 -20.4255 -20.3475 -20.2128 -20.1215 -19.8262 -19.7971
   -19.7349 -19.5049 -19.4566 -19.4145 -19.3331 -19.1897 -19.1380 -18.9629
   -18.8535 -18.3004 -18.0707  -9.3966  -9.2452  -9.0370  -8.9085  -8.6933
    -8.6227  -8.4716  -8.4251  -8.3026  -8.1196  -8.0508  -7.8836  -7.7090
    -7.5306  -7.4129  -7.2046  -7.0324  -6.9488  -6.8934  -6.7478  -6.5654
    -6.4426  -6.3921  -6.0324  -5.8696  -5.7741  -5.6751  -5.6107  -5.5154
    -5.3888  -5.2809  -5.2534  -5.0936  -4.9841  -4.8839  -4.7882  -4.7499
    -4.6357  -4.5262  -4.4781  -4.3827  -4.3119  -4.2102  -4.0753  -3.9278
    -3.9046  -3.7962  -3.6706  -3.5339  -3.4871  -3.4047  -3.3092  -3.0736
    -2.9444  -2.8231  -2.6945  -2.5733  -2.1833  -2.0671  -1.8108  -0.9131
    -0.8516  -0.8050  -0.5410  -0.0338   0.0291   0.5671   0.6456   0.7595
     0.8165   0.9495   1.0980   1.2370   1.2942   1.4036   1.5792   1.6592
     1.9187   1.9852   2.1651   2.3843   2.7661   3.2709   3.6062   3.6973
     3.8323   3.8690   4.1154   4.3507   4.4194   4.5416   4.6832   4.8282
     5.1058   5.3253   5.4867   5.7229   5.8643   5.9962   6.1398   6.2891
     6.4012   6.6160   6.7729   6.9914   7.1559   7.3427   7.5780   7.7660
     7.7923   7.8667   8.0482   8.1847   8.3097   8.4012   8.5308   8.6140
     8.6938   8.7696   9.0362   9.1487   9.2936   9.4262   9.5271   9.6007
     9.6822   9.7632   9.9120   9.9502   9.9962  10.0566  10.1763  10.2261
    10.2930  10.3429  10.3580  10.4940  10.6952  10.7994  10.8604  11.0076
    11.0518  11.0895  11.2789  11.3860  11.5299  11.6775  11.8135  11.8524
    11.9423  12.0926  12.2319  12.2670  12.4581  12.5802  12.6136  12.6596
    12.7272  12.7808  12.8040  12.9851  13.0209  13.1192  13.1715  13.3065
    13.4108  13.5599  13.5879  13.6458  13.7353  13.8038  13.8868  13.9102
    13.9671  14.0111  14.0835  14.1789  14.2185  14.3168  14.4394  14.4620
    14.5552  14.5987  14.6596  14.7582  14.8054  14.8600  14.9175  14.9754
    15.0057  15.0486  15.1079  15.1711  15.2323  15.3143  15.4881  15.5170
    15.5782  15.6974  15.7927  15.8798  16.0480  16.1394  16.1694  16.1912
    16.2668  16.3327  16.4383  16.5761  16.6048  16.6545  16.6798  16.7833
    16.8728  16.9319  16.9974  17.1555  17.1853  17.2351  17.2995  17.4212
    17.4715  17.6068  17.6765  17.7475  17.7847  17.8632  17.9299  17.9961
    18.1026  18.1243  18.2001  18.2803  18.3375  18.4042  18.4586  18.5482
    18.5713  18.6473  18.7211  18.7853  18.8613  18.9904  19.0460  19.0680
    19.1387  19.2546  19.3206  19.4503  19.5380  19.5871  19.7016  19.7530
    19.8463  19.9528  20.0619  20.1238  20.1974  20.2717  20.3592  20.4363
    20.5019  20.5702  20.6108  20.6646  20.7847  20.8444  20.8466  20.9022
    21.0210  21.0434  21.1330  21.2039  21.2596  21.2848  21.3280  21.3818
    21.4281  21.5209  21.5401  21.5915  21.6579  21.7778  21.8592  21.9278
    21.9539  22.0456  22.1200  22.1877  22.2125  22.2687  22.3308  22.4326
    22.4547  22.4988  22.5449  22.5765  22.6660  22.6906  22.7115  22.7812
    22.7974  22.8710  22.9667  23.0281  23.0683

          k = 0.2500-0.3828 0.0000 ( 29202 PWs)   bands (ev):

   -82.5145 -81.5368 -81.4614 -81.2656 -81.2259 -81.0411 -81.0019 -80.9479
   -46.4453 -44.2400 -44.0755 -43.6228 -43.4225 -43.4156 -43.4028 -43.3290
   -43.3022 -43.2517 -43.1901 -43.1556 -43.0929 -43.0333 -43.0066 -42.9886
   -42.9423 -42.9392 -42.9314 -42.8699 -42.8665 -42.7717 -42.7185 -42.5330
   -21.2282 -20.7600 -20.4133 -20.2115 -20.1751 -19.9437 -19.9086 -19.8901
   -19.8829 -19.7223 -19.5706 -19.4536 -19.3401 -19.0419 -19.0093 -18.9625
   -18.8429 -18.2982 -18.0723  -9.3611  -9.1260  -8.9955  -8.7905  -8.7485
    -8.6630  -8.4179  -8.3515  -8.0764  -8.0113  -7.9677  -7.8646  -7.7395
    -7.6777  -7.6566  -7.5906  -7.4285  -7.1936  -6.9470  -6.7060  -6.5984
    -6.2165  -5.9358  -5.8167  -5.7433  -5.6621  -5.6473  -5.6027  -5.5112
    -5.4668  -5.3291  -5.2503  -5.1240  -5.1089  -4.9807  -4.9447  -4.8405
    -4.7307  -4.5905  -4.4972  -4.4651  -4.3367  -4.1651  -4.0477  -3.8522
    -3.8261  -3.7948  -3.6484  -3.5752  -3.4934  -3.3659  -3.2665  -3.1139
    -2.9100  -2.8649  -2.6436  -2.5515  -1.9454  -1.9100  -1.7764  -1.2232
    -1.0412  -0.8524  -0.8145  -0.0663   0.3734   0.6022   0.8393   0.9153
     1.1083   1.1713   1.2263   1.2395   1.3780   1.4043   1.6209   1.9109
     1.9448   2.0650   2.1976   2.4301   2.4987   2.6567   2.8052   3.2805
     3.3287   3.8402   4.2292   4.3890   4.4742   4.6226   4.8756   5.1307
     5.3173   5.5435   5.5956   5.9686   6.0603   6.1383   6.1952   6.3401
     6.4035   6.5852   6.7394   6.8038   6.8230   7.0793   7.1642   7.5200
     7.7740   7.8193   7.8912   8.0384   8.1781   8.4513   8.6532   8.7086
     8.7323   8.8284   8.9707   9.0952   9.1256   9.2230   9.3480   9.4392
     9.5895   9.7927   9.8785   9.9287  10.1235  10.2786  10.3571  10.5107
    10.5693  10.6028  10.6752  10.7732  10.8407  11.0026  11.1126  11.2980
    11.3218  11.3844  11.7453  11.7747  11.8008  11.9621  12.0123  12.0909
    12.1713  12.1973  12.2617  12.2944  12.3771  12.3999  12.5302  12.5859
    12.7186  12.7497  12.8609  13.0326  13.0397  13.2113  13.3020  13.3347
    13.5012  13.5892  13.6302  13.6976  13.7610  13.8742  13.9075  13.9335
    13.9934  14.0065  14.1360  14.1500  14.1838  14.2535  14.2898  14.3829
    14.4594  14.4889  14.5478  14.5965  14.6286  14.6620  14.7248  14.7824
    14.7994  14.8476  14.9047  15.0119  15.2242  15.2991  15.3973  15.4482
    15.4824  15.4945  15.5722  15.5870  15.7019  15.7473  15.8425  15.9191
    15.9821  16.0561  16.1063  16.2272  16.2962  16.3054  16.4348  16.5410
    16.6968  16.7240  16.8050  16.8645  16.9151  17.0059  17.1202  17.2926
    17.4112  17.4482  17.4791  17.5565  17.5700  17.7117  17.7518  17.8431
    17.8917  17.9628  18.0352  18.1634  18.2332  18.3118  18.4513  18.5096
    18.5901  18.7398  18.8079  18.8872  18.9807  19.1395  19.2191  19.3187
    19.4744  19.4961  19.5852  19.6963  19.7838  19.8681  19.9173  19.9418
    20.0158  20.0744  20.1389  20.2329  20.3049  20.3276  20.3406  20.3704
    20.3739  20.4178  20.5179  20.5524  20.7820  20.8734  20.9831  21.0270
    21.0623  21.1283  21.2419  21.2601  21.2958  21.3509  21.3578  21.4504
    21.4794  21.5937  21.6061  21.7200  21.7302  21.8043  21.8566  21.8646
    21.9198  21.9694  22.0707  22.0863  22.1732  22.2153  22.2840  22.3643
    22.4588  22.4890  22.5379  22.6178  22.6401  22.6673  22.7159  22.7615
    22.8321  22.8799  22.9979  23.0428  23.0832

          k =-0.5000 0.0000 0.0000 ( 29180 PWs)   bands (ev):

   -82.5143 -81.5314 -81.4668 -81.2466 -81.2450 -81.0221 -81.0209 -80.9482
   -46.4451 -44.1800 -44.0742 -43.4109 -43.3908 -43.3450 -43.3415 -43.3360
   -43.2890 -43.2237 -43.2202 -43.1053 -43.0937 -43.0397 -43.0297 -42.9972
   -42.9889 -42.9418 -42.9004 -42.8991 -42.8681 -42.8455 -42.8416 -42.7908
   -21.1766 -20.5619 -20.5544 -20.3159 -20.0426 -19.9584 -19.9494 -19.9329
   -19.5165 -19.4829 -19.4105 -19.4021 -19.3702 -19.3686 -19.1194 -19.0779
   -18.9887 -18.3008 -18.2120  -9.3173  -9.0554  -8.9887  -8.5298  -8.4914
    -8.3412  -8.3398  -8.2545  -8.2104  -8.0596  -7.9988  -7.9693  -7.5638
    -7.3994  -7.3880  -7.2688  -6.9060  -6.8963  -6.7328  -6.6718  -6.3653
    -6.1669  -6.1131  -5.9611  -5.9433  -5.8557  -5.8390  -5.7452  -5.5154
    -5.4388  -5.2885  -5.2602  -5.1677  -5.1182  -5.0700  -5.0572  -4.9918
    -4.9119  -4.6996  -4.6269  -4.6027  -4.5758  -4.4264  -4.3129  -4.0945
    -3.9816  -3.8546  -3.5063  -3.4633  -3.4527  -3.3631  -3.1261  -3.0486
    -2.9285  -2.8148  -2.8112  -2.6247  -1.4310  -0.9329  -0.9323  -0.8507
    -0.6581  -0.6007  -0.4495  -0.4245  -0.3501  -0.3394  -0.1345  -0.1118
     0.2180   0.3850   0.6454   0.6849   0.6984   0.8228   1.3602   1.3848
     1.5003   1.5691   2.0637   2.2955   2.8128   3.7597   3.8471   3.9824
     4.1306   4.1814   4.4135   4.4353   4.5468   4.7483   4.8167   4.8209
     4.9882   5.1828   5.2266   5.8645   5.8936   6.1826   6.1914   6.3722
     6.3909   6.7292   6.7970   6.8356   6.9773   7.2887   7.4082   7.6747
     7.8009   7.9360   8.0759   8.4064   8.5777   8.5942   8.7218   8.7409
     9.0133   9.0804   9.2359   9.2464   9.3177   9.3573   9.3660   9.4326
     9.4553   9.6287   9.7063   9.7599   9.7803   9.8101   9.8567   9.9595
    10.0076  10.1462  10.3656  10.3862  10.4083  10.5256  10.5421  10.5763
    10.6761  10.7851  10.8440  10.9974  11.1497  11.3452  11.5257  11.5480
    11.5933  11.8833  11.9437  12.0249  12.1715  12.2109  12.3248  12.3707
    12.3878  12.6621  12.7923  12.9841  13.1997  13.2430  13.3950  13.4559
    13.4775  13.5630  13.6873  13.7726  13.8472  13.9002  14.1678  14.2924
    14.3274  14.3403  14.3968  14.4343  14.6448  14.7334  14.8595  15.0294
    15.0721  15.1769  15.2723  15.4370  15.4532  15.5115  15.5616  15.5983
    15.6664  15.7044  15.8323  15.8961  15.9476  16.1544  16.2649  16.3100
    16.3451  16.3986  16.4751  16.5491  16.5812  16.7051  16.7457  16.7473
    16.8797  17.0031  17.0428  17.0544  17.1223  17.1692  17.3667  17.4421
    17.5111  17.5297  17.6410  17.6615  17.7020  17.8739  17.9134  17.9762
    18.0939  18.1825  18.2821  18.3212  18.3336  18.3451  18.3932  18.5650
    18.5843  18.6622  18.7018  18.7616  18.7716  18.7862  18.7940  18.8822
    18.9444  18.9695  19.0392  19.1583  19.1790  19.2230  19.3091  19.3728
    19.3966  19.4617  19.4656  19.5199  19.5698  19.5878  19.6900  19.7307
    19.7507  19.8071  19.8303  19.8396  19.8437  19.9008  19.9367  19.9671
    19.9916  20.0747  20.1307  20.1477  20.2855  20.3157  20.3592  20.3665
    20.4239  20.4988  20.5533  20.7137  20.8184  20.8325  20.8631  20.8980
    20.9557  20.9825  21.0098  21.0456  21.1271  21.1614  21.1992  21.3057
    21.3182  21.3502  21.3785  21.4531  21.5352  21.6048  21.6521  21.7907
    21.7983  21.8062  21.8638  22.0226  22.0812  22.0914  22.2814  22.4077
    22.4141  22.4872  22.5046  22.5314  22.5745

          k =-0.5000 0.1914 0.0000 ( 29244 PWs)   bands (ev):

   -82.5143 -81.5314 -81.4668 -81.2466 -81.2450 -81.0221 -81.0209 -80.9482
   -46.4452 -44.1801 -44.0739 -43.4109 -43.3902 -43.3452 -43.3416 -43.3352
   -43.2893 -43.2222 -43.2209 -43.1053 -43.0939 -43.0397 -43.0298 -42.9972
   -42.9890 -42.9431 -42.9011 -42.8997 -42.8681 -42.8455 -42.8416 -42.7905
   -21.1724 -20.5568 -20.5454 -20.2990 -20.0013 -19.9449 -19.9118 -19.8849
   -19.6124 -19.5848 -19.4446 -19.4338 -19.3432 -19.3327 -19.1137 -19.0761
   -18.9905 -18.3010 -18.2124  -9.2810  -8.9897  -8.9308  -8.5269  -8.5042
    -8.4084  -8.3421  -8.3172  -8.2523  -8.1097  -8.0084  -7.9768  -7.2388
    -7.2195  -7.1531  -7.0866  -6.9071  -6.8630  -6.7737  -6.6129  -6.4002
    -6.3348  -6.2970  -6.2312  -6.1227  -5.9612  -5.8380  -5.7864  -5.5012
    -5.4895  -5.4260  -5.3813  -5.2598  -5.2403  -5.1004  -5.0834  -4.9324
    -4.8988  -4.8217  -4.7340  -4.6223  -4.4755  -4.3014  -4.1429  -4.0824
    -3.9468  -3.9120  -3.5235  -3.4833  -3.4205  -3.3782  -3.1280  -3.0955
    -2.7975  -2.7466  -2.6989  -2.6488  -1.1751  -0.8683  -0.8618  -0.8036
    -0.6834  -0.6154  -0.5127  -0.4953  -0.2297  -0.1157  -0.0148   0.0514
     0.2858   0.4027   0.5497   0.6838   0.8855   0.9890   1.3239   1.4009
     1.4303   1.5671   1.7962   2.4783   2.7402   3.1347   3.6043   3.6068
     3.6713   3.8402   4.0339   4.3902   4.3968   5.0260   5.0753   5.3065
     5.3563   5.5004   5.5134   5.8560   5.8752   6.3594   6.3619   6.4313
     6.5702   6.7700   6.7900   6.9010   7.0674   7.2046   7.2404   7.5411
     7.7648   7.8260   7.9395   8.0109   8.1475   8.2124   8.2655   8.4016
     8.4927   8.6901   8.7070   8.9490   9.0068   9.1727   9.2108   9.4404
     9.5180   9.6037   9.7132   9.7975   9.8979  10.0503  10.1003  10.4206
    10.5514  10.6063  10.6490  10.6922  10.7035  10.8881  10.9494  10.9760
    11.0282  11.1542  11.1964  11.4104  11.4293  11.5633  11.6354  11.8332
    11.8713  12.0714  12.1097  12.2542  12.3894  12.4016  12.4730  12.6659
    12.7623  12.8163  12.8888  13.0047  13.1196  13.1701  13.4028  13.4756
    13.6166  13.6388  13.7691  13.8073  13.9135  14.1396  14.1771  14.2369
    14.2963  14.3552  14.4237  14.4848  14.5991  14.6298  14.8526  14.9325
    14.9462  15.0143  15.1048  15.1712  15.2293  15.4443  15.4666  15.4966
    15.5675  15.5865  15.6927  15.7417  15.8164  15.8638  15.9140  16.0278
    16.0789  16.1584  16.2436  16.2972  16.3585  16.3781  16.4727  16.5011
    16.6120  16.6860  16.6996  16.8597  16.8870  16.9404  17.0074  17.0566
    17.1098  17.1407  17.2425  17.2546  17.3015  17.3685  17.4757  17.5194
    17.5815  17.7381  17.7886  17.8826  17.9636  17.9784  18.0676  18.0984
    18.1133  18.1791  18.3059  18.3700  18.4033  18.4700  18.5374  18.6698
    18.6987  18.7482  18.8041  18.8992  18.9200  19.0137  19.0556  19.1625
    19.1975  19.2946  19.3493  19.4170  19.4670  19.5076  19.6523  19.6727
    19.7282  19.7685  19.8886  19.9532  19.9958  20.1436  20.1649  20.2822
    20.3021  20.4132  20.4214  20.6031  20.6357  20.7261  20.7660  20.8367
    20.8508  20.9334  21.0125  21.0761  21.0990  21.2146  21.2780  21.3484
    21.4001  21.4453  21.4557  21.5976  21.6332  21.7618  21.7939  21.8346
    21.8773  21.9307  21.9482  21.9645  21.9991  22.0043  22.0506  22.1174
    22.1310  22.2579  22.3583  22.4049  22.4554  22.4939  22.5080  22.5424
    22.5836  22.6922  22.7144  22.7360  22.7498

          k =-0.5000-0.3828 0.0000 ( 29192 PWs)   bands (ev):

   -82.5143 -81.5314 -81.4668 -81.2466 -81.2450 -81.0221 -81.0209 -80.9482
   -46.4452 -44.1802 -44.0735 -43.4110 -43.3895 -43.3454 -43.3416 -43.3345
   -43.2895 -43.2217 -43.2207 -43.1053 -43.0941 -43.0398 -43.0297 -42.9972
   -42.9889 -42.9443 -42.9017 -42.9003 -42.8681 -42.8454 -42.8415 -42.7902
   -21.1682 -20.5519 -20.5369 -20.2803 -19.9437 -19.9398 -19.8305 -19.7842
   -19.7324 -19.7166 -19.5060 -19.4655 -19.3246 -19.3117 -19.1086 -19.0745
   -18.9924 -18.3012 -18.2127  -9.2393  -8.9524  -8.8214  -8.5319  -8.4997
    -8.4502  -8.3528  -8.3278  -8.3159  -8.0885  -7.9978  -7.9756  -7.1645
    -7.1012  -7.0254  -6.9013  -6.8599  -6.7616  -6.6926  -6.6370  -6.6146
    -6.6017  -6.4406  -6.1904  -6.0687  -5.9664  -5.8547  -5.6949  -5.5708
    -5.5400  -5.5003  -5.4903  -5.3859  -5.3248  -5.1776  -5.1698  -5.0485
    -5.0328  -4.8199  -4.8018  -4.6626  -4.4342  -4.2344  -4.1263  -4.0213
    -3.9690  -3.7316  -3.6324  -3.4873  -3.3863  -3.3198  -3.1215  -3.0641
    -2.9806  -2.7044  -2.5608  -2.5306  -1.0735  -0.9801  -0.9753  -0.8096
    -0.7207  -0.6730  -0.6360  -0.4916  -0.0416   0.2619   0.2979   0.4195
     0.5337   0.5544   0.7004   0.8990   1.0989   1.1087   1.2834   1.3090
     1.4709   1.5134   1.6670   2.3115   2.5449   2.6535   2.8407   2.8830
     2.9794   3.8398   4.0674   4.4838   4.4941   5.2269   5.2526   5.4596
     5.4682   5.8738   5.9214   6.1347   6.1932   6.4014   6.4245   6.4555
     6.4923   6.9200   6.9228   7.0537   7.0783   7.1214   7.2829   7.3503
     7.3960   7.5417   7.5954   7.7818   7.8315   7.9963   8.0277   8.1717
     8.2380   8.5638   8.6858   8.7641   8.7763   8.9283   8.9597   9.1913
     9.2933   9.6613   9.6896   9.9676  10.0241  10.1049  10.2005  10.4318
    10.4906  10.6155  10.7820  10.8894  11.0159  11.0863  11.2739  11.3018
    11.3820  11.6387  11.6471  11.7604  11.8258  12.1290  12.1651  12.3715
    12.4941  12.5115  12.5926  12.7098  12.8538  12.9057  13.0380  13.1292
    13.1466  13.1746  13.2311  13.2729  13.3164  13.3434  13.4497  13.5141
    13.5282  13.5586  13.6437  13.7863  13.8040  13.8521  13.8617  13.9358
    14.0211  14.0924  14.2012  14.2687  14.2807  14.3155  14.5069  14.5119
    14.5645  14.6360  14.7100  14.7266  14.8640  14.9624  15.0852  15.1876
    15.2674  15.2801  15.2970  15.3772  15.4344  15.6195  15.7138  15.7895
    15.8088  15.8909  16.0834  16.1032  16.2337  16.3010  16.3261  16.4284
    16.4680  16.5635  16.6475  16.7311  16.7424  16.7495  16.7884  16.8573
    17.0476  17.1583  17.2722  17.3144  17.3255  17.4135  17.4533  17.4862
    17.6657  17.7152  17.7550  17.7759  17.8178  17.8965  17.9155  17.9858
    18.0736  18.0856  18.1595  18.1925  18.2647  18.2734  18.3037  18.3277
    18.4241  18.4351  18.5369  18.5525  18.6361  18.6953  18.7220  18.7931
    18.9178  18.9540  19.0334  19.0801  19.1322  19.2328  19.4184  19.5665
    19.6173  19.7206  19.7493  19.8732  19.9525  19.9780  20.1245  20.1836
    20.2358  20.2724  20.4702  20.6313  20.6777  20.7308  20.7821  20.8734
    20.9146  21.0282  21.1071  21.3290  21.3481  21.3551  21.4250  21.5141
    21.6295  21.6949  21.7097  21.7562  21.8055  21.8738  22.0349  22.0837
    22.1168  22.1619  22.2208  22.3238  22.3654  22.4316  22.4731  22.5650
    22.7649  22.7898  22.8375  22.8623  22.8847  22.9380  22.9494  23.1322
    23.1482  23.2266  23.2843  23.3511  23.3740

          k =-0.2500 0.1914 0.0000 ( 29229 PWs)   bands (ev):

   -82.5145 -81.5368 -81.4614 -81.2656 -81.2259 -81.0411 -81.0019 -80.9479
   -46.4453 -44.2399 -44.0758 -43.6226 -43.4225 -43.4168 -43.4028 -43.3290
   -43.3022 -43.2522 -43.1903 -43.1559 -43.0929 -43.0334 -43.0062 -42.9886
   -42.9411 -42.9392 -42.9303 -42.8699 -42.8666 -42.7718 -42.7187 -42.5330
   -21.2398 -20.7837 -20.4255 -20.3475 -20.2127 -20.1215 -19.8262 -19.7969
   -19.7341 -19.5046 -19.4578 -19.4153 -19.3333 -19.1898 -19.1373 -18.9630
   -18.8530 -18.3004 -18.0707  -9.3967  -9.2451  -9.0370  -8.9075  -8.6927
    -8.6236  -8.4729  -8.4138  -8.3226  -8.1103  -8.0533  -7.8806  -7.7147
    -7.5329  -7.3946  -7.2237  -7.0499  -6.9389  -6.8905  -6.7428  -6.5561
    -6.4423  -6.3692  -6.0268  -5.8673  -5.7802  -5.6673  -5.6089  -5.5737
    -5.4008  -5.2865  -5.2323  -5.0867  -4.9857  -4.8831  -4.7840  -4.7462
    -4.6695  -4.5008  -4.4484  -4.3959  -4.3011  -4.2230  -4.0827  -3.9194
    -3.8846  -3.7953  -3.6838  -3.5394  -3.5026  -3.3878  -3.2959  -3.0915
    -2.9690  -2.7769  -2.7221  -2.5785  -2.1838  -2.0669  -1.8104  -0.8803
    -0.8464  -0.8070  -0.5410  -0.0563   0.0190   0.5654   0.6340   0.7392
     0.8084   0.9938   1.1108   1.2355   1.2975   1.4031   1.5714   1.6587
     1.9153   1.9852   2.1651   2.3848   2.7660   3.2712   3.6053   3.6989
     3.8362   3.8685   4.1104   4.3507   4.4203   4.5431   4.6829   4.8271
     5.1083   5.3247   5.4873   5.7262   5.8663   5.9989   6.1431   6.2835
     6.4044   6.6082   6.7693   6.9913   7.1565   7.3359   7.5849   7.7592
     7.7816   7.8747   8.0538   8.1809   8.3011   8.4121   8.5360   8.6138
     8.6945   8.7745   9.0205   9.1463   9.2967   9.4205   9.5074   9.6423
     9.6724   9.7622   9.9233   9.9515   9.9944  10.0698  10.1562  10.2105
    10.3093  10.3366  10.3930  10.4789  10.6918  10.7805  10.8720  11.0147
    11.0495  11.1011  11.2783  11.3980  11.5282  11.6627  11.8087  11.8595
    11.9438  12.0832  12.2254  12.2661  12.4683  12.5833  12.5964  12.6496
    12.7389  12.7714  12.8069  12.9842  13.0211  13.1250  13.1732  13.3040
    13.4156  13.5543  13.5757  13.6507  13.7398  13.7967  13.8775  13.9044
    13.9605  14.0142  14.0830  14.1801  14.2208  14.3340  14.4253  14.4629
    14.5597  14.5922  14.6576  14.7487  14.8158  14.8668  14.9185  14.9587
    15.0181  15.0619  15.1194  15.1738  15.2482  15.3079  15.4977  15.5248
    15.6058  15.6698  15.7921  15.8780  16.0457  16.1312  16.1466  16.1899
    16.2603  16.3514  16.4469  16.5657  16.6010  16.6435  16.6861  16.7812
    16.8628  16.9366  17.0199  17.1438  17.2006  17.2299  17.3089  17.4248
    17.4749  17.6056  17.6608  17.7485  17.7872  17.8551  17.9281  18.0101
    18.0763  18.1196  18.2083  18.2844  18.3473  18.4035  18.4561  18.5258
    18.5846  18.6453  18.7249  18.7962  18.8610  18.9559  19.0274  19.0784
    19.1428  19.2377  19.3308  19.4353  19.5523  19.5831  19.6790  19.7591
    19.8339  19.9563  20.0667  20.1302  20.1959  20.2668  20.3620  20.4208
    20.5017  20.5785  20.6208  20.6805  20.7619  20.8151  20.8571  20.9132
    21.0261  21.0439  21.1450  21.2054  21.2377  21.3065  21.3408  21.3754
    21.4359  21.5413  21.5557  21.6151  21.6528  21.7887  21.8555  21.9386
    21.9533  22.0465  22.1273  22.1856  22.2120  22.2906  22.3519  22.4212
    22.4517  22.4919  22.5446  22.5804  22.6627  22.7037  22.7329  22.7725
    22.8000  22.8497  22.9683  23.0357  23.0782

 ------ SPIN DOWN ----------


          k = 0.0000 0.0000 0.0000 ( 29221 PWs)   bands (ev):

   -82.5147 -81.5415 -81.4566 -81.2738 -81.2177 -81.0492 -80.9938 -80.9476
   -46.4455 -44.2944 -44.0781 -43.7432 -43.5266 -43.4368 -43.4313 -43.3200
   -43.2829 -43.2756 -43.2652 -43.1773 -43.1137 -43.0559 -42.9668 -42.9420
   -42.9374 -42.9173 -42.8727 -42.8670 -42.8575 -42.6525 -42.6350 -42.3994
   -21.3344 -20.8939 -20.6073 -20.4813 -20.3687 -20.0293 -19.8320 -19.5723
   -19.5498 -19.5020 -19.3927 -19.3422 -19.3051 -19.2724 -19.2263 -18.9363
   -18.7596 -18.2944 -17.9502  -9.7863  -9.5068  -9.4938  -9.2445  -9.0836
    -8.7337  -8.7060  -8.1947  -8.1944  -7.8999  -7.8507  -7.8038  -7.6364
    -7.5981  -7.4051  -7.2046  -7.1024  -7.0107  -6.9671  -6.9318  -6.8468
    -6.7920  -6.4286  -5.8818  -5.8577  -5.6450  -5.6152  -5.5916  -5.4611
    -5.4130  -5.2845  -5.1407  -5.0803  -4.9681  -4.7794  -4.7677  -4.6082
    -4.4548  -4.4241  -4.3586  -4.2202  -4.1247  -4.0517  -3.9102  -3.8421
    -3.6536  -3.5384  -3.4508  -3.3955  -3.3926  -3.2877  -3.2079  -3.1052
    -3.0214  -2.9939  -2.8905  -2.7517  -2.5963  -2.5235  -2.4030  -1.0855
    -0.6187  -0.4836  -0.1519   0.1066   0.1302   0.3350   0.4577   0.5020
     0.6888   0.8917   1.0797   1.2373   1.5113   1.8433   1.9046   2.1536
     2.7916   2.9066   3.0289   3.2277   3.4396   3.4501   3.5093   3.7498
     4.1397   4.1563   4.1655   4.4801   4.5675   4.7056   4.7853   4.8373
     4.9043   4.9358   5.0377   5.0644   5.3753   5.3993   5.6345   6.1673
     6.3024   6.4985   6.7856   7.3716   7.5127   7.6664   7.8433   7.9461
     8.0519   8.0967   8.2362   8.3087   8.3491   8.5838   8.6032   8.6991
     8.8619   8.9063   9.0316   9.0966   9.1688   9.2740   9.3786   9.4691
     9.6657   9.7586   9.8137   9.8606  10.0186  10.1139  10.1458  10.1920
    10.2370  10.3149  10.4571  10.5560  10.6009  10.6896  10.8792  11.0195
    11.0996  11.2271  11.2544  11.4356  11.4734  11.5992  11.6095  11.8570
    11.9605  12.0045  12.1351  12.1404  12.1596  12.2562  12.6171  12.7044
    12.7943  12.9170  12.9314  12.9654  13.0363  13.0516  13.1300  13.1941
    13.2223  13.2472  13.2525  13.3356  13.3642  13.4334  13.4767  13.5039
    13.6520  13.7304  13.8446  13.8875  13.9205  14.0407  14.0551  14.1407
    14.1631  14.2172  14.3260  14.3630  14.4038  14.4565  14.5706  14.6492
    14.8315  14.9286  15.0508  15.0542  15.1147  15.1679  15.2224  15.2502
    15.3955  15.5249  15.5898  15.6604  15.6743  15.8432  15.9259  15.9751
    16.0223  16.0879  16.1561  16.2410  16.4025  16.5276  16.6066  16.6783
    16.6838  16.8358  16.8736  17.0273  17.0336  17.1604  17.2323  17.2628
    17.3447  17.4110  17.4953  17.5837  17.6544  17.6717  17.6895  17.7614
    17.8788  18.0131  18.0581  18.1932  18.2822  18.3989  18.4260  18.5097
    18.5942  18.6604  18.8177  18.9158  18.9286  18.9938  19.0271  19.0351
    19.1639  19.1960  19.2601  19.2652  19.4626  19.5690  19.7183  19.8039
    19.8134  19.9434  20.0011  20.1160  20.1289  20.1458  20.2555  20.2777
    20.4611  20.5249  20.6683  20.7215  20.8027  20.8546  20.9088  20.9909
    21.0853  21.1005  21.1676  21.2248  21.3665  21.4269  21.5348  21.6380
    21.6680  21.7994  21.9112  21.9322  22.0555  22.0748  22.1163  22.1887
    22.2175  22.2843  22.2969  22.4140  22.4643  22.4956  22.5654  22.5792
    22.6161  22.6380  22.6517  22.6700  22.7442  22.8082  22.8534  22.8967
    22.9364  22.9938  23.1479  23.1902  23.2256

          k = 0.0000 0.1914 0.0000 ( 29141 PWs)   bands (ev):

   -82.5147 -81.5415 -81.4566 -81.2738 -81.2177 -81.0492 -80.9938 -80.9476
   -46.4454 -44.2945 -44.0777 -43.7433 -43.5265 -43.4354 -43.4314 -43.3199
   -43.2874 -43.2709 -43.2647 -43.1772 -43.1137 -43.0560 -42.9668 -42.9437
   -42.9385 -42.9173 -42.8727 -42.8670 -42.8571 -42.6522 -42.6352 -42.3993
   -21.3123 -20.8601 -20.5116 -20.4257 -20.3208 -20.0361 -19.8326 -19.8303
   -19.8242 -19.5712 -19.4102 -19.3902 -19.3770 -19.0250 -19.0026 -18.9333
   -18.7578 -18.2904 -17.9501  -9.4889  -9.4849  -9.2601  -9.0539  -8.9712
    -8.7602  -8.6966  -8.4272  -8.3465  -8.2419  -8.1974  -8.1902  -7.8733
    -7.6606  -7.5603  -7.4358  -7.1731  -6.9968  -6.5748  -6.4612  -6.3498
    -6.2621  -6.1525  -5.9777  -5.9483  -5.7143  -5.6667  -5.6127  -5.5229
    -5.5116  -5.4822  -5.2597  -5.2371  -5.0812  -4.9819  -4.5694  -4.5488
    -4.4789  -4.3907  -4.2842  -4.1945  -4.1091  -3.9621  -3.8964  -3.8623
    -3.6243  -3.5603  -3.5300  -3.3931  -3.3372  -3.2102  -3.1197  -3.0956
    -3.0132  -2.8861  -2.8249  -2.7236  -2.6459  -2.5247  -2.4337  -1.0825
    -1.0747  -0.9210  -0.5049  -0.1233   0.1335   0.8638   0.9047   0.9262
     0.9733   1.0316   1.1239   1.2509   1.3580   1.6652   1.9210   2.1215
     2.7445   3.0063   3.1519   3.2044   3.4161   3.4526   3.5167   3.6197
     3.7800   4.0987   4.1394   4.2069   4.2306   4.2463   4.5428   4.7095
     4.8550   5.0648   5.1456   5.5074   5.6987   5.9392   6.2843   6.3908
     6.4574   6.5416   6.6501   6.8605   7.0211   7.2283   7.5543   7.6025
     7.7170   7.8332   8.1136   8.2396   8.3947   8.5835   8.7969   8.8437
     9.0352   9.2638   9.2801   9.4358   9.5106   9.6320   9.6957   9.7036
     9.8659   9.9653  10.0079  10.0530  10.2047  10.2727  10.3507  10.3859
    10.4800  10.5807  10.5961  10.6805  10.7673  10.8548  10.9894  11.1216
    11.2267  11.2857  11.3552  11.4231  11.4987  11.5628  11.6334  11.7712
    11.8120  11.8957  11.9358  11.9527  12.0798  12.2264  12.2384  12.2780
    12.3567  12.4071  12.4532  12.4908  12.5464  12.7517  12.9277  12.9441
    13.0882  13.1397  13.2394  13.3030  13.3935  13.4120  13.5273  13.6156
    13.7123  13.7417  13.8251  13.8683  13.9231  14.0354  14.1842  14.2842
    14.2987  14.3513  14.3890  14.5623  14.5836  14.6545  14.6657  14.7281
    14.8313  14.8643  14.9424  14.9551  14.9888  15.1341  15.2097  15.3227
    15.3704  15.4601  15.5285  15.5910  15.6181  15.7386  15.7819  15.8378
    15.8682  15.9015  15.9708  16.0259  16.2990  16.3385  16.4829  16.5682
    16.5889  16.7598  16.7860  16.9368  16.9534  17.1110  17.1621  17.2698
    17.3199  17.3617  17.3936  17.5376  17.6428  17.7343  17.7592  18.0305
    18.1096  18.1337  18.2331  18.2566  18.3914  18.4759  18.5413  18.6651
    18.7395  18.8207  18.8848  18.9437  19.0154  19.0566  19.1003  19.1339
    19.2609  19.2735  19.4320  19.4946  19.6255  19.6422  19.6938  19.7045
    19.7491  19.8664  19.9006  19.9756  20.0461  20.1207  20.2031  20.2546
    20.2816  20.4369  20.4829  20.5055  20.5724  20.5964  20.6624  20.7744
    20.8741  20.9349  20.9512  21.0475  21.0911  21.1200  21.2527  21.2973
    21.4325  21.4733  21.5423  21.5994  21.6879  21.7394  21.7430  21.8104
    21.9180  22.0388  22.1171  22.1536  22.1978  22.2994  22.3829  22.4107
    22.4435  22.5904  22.6329  22.7101  22.7455  22.7914  22.8436  22.9137
    22.9582  22.9880  23.1307  23.2032  23.2871

          k = 0.0000-0.3828 0.0000 ( 29262 PWs)   bands (ev):

   -82.5148 -81.5415 -81.4566 -81.2738 -81.2177 -81.0492 -80.9938 -80.9476
   -46.4455 -44.2946 -44.0773 -43.7436 -43.5266 -43.4339 -43.4314 -43.3200
   -43.2903 -43.2681 -43.2643 -43.1771 -43.1137 -43.0560 -42.9669 -42.9455
   -42.9396 -42.9174 -42.8728 -42.8670 -42.8568 -42.6518 -42.6355 -42.3994
   -21.2925 -20.8303 -20.4198 -20.3642 -20.1170 -19.9916 -19.9687 -19.9646
   -19.9621 -19.7018 -19.6481 -19.4266 -19.3907 -18.9320 -18.8432 -18.8307
   -18.7473 -18.2874 -17.9500  -9.4640  -9.3742  -9.0361  -8.9757  -8.7984
    -8.7341  -8.7088  -8.6565  -8.4698  -8.2731  -8.2403  -8.1798  -7.7700
    -7.6787  -7.5851  -7.3632  -7.2157  -7.1902  -7.1600  -6.8666  -6.5733
    -6.2512  -5.9113  -5.8654  -5.7981  -5.7445  -5.5968  -5.4475  -5.4308
    -5.4283  -5.3756  -5.0978  -5.0789  -5.0220  -4.9122  -4.6939  -4.6401
    -4.4689  -4.4663  -4.4061  -4.0236  -3.9430  -3.9124  -3.7434  -3.7379
    -3.7343  -3.6601  -3.6447  -3.5877  -3.4868  -3.2872  -3.1774  -3.0581
    -2.9228  -2.7511  -2.7007  -2.6551  -2.5475  -2.4913  -2.4415  -1.4677
    -1.2398  -1.0781  -0.8526  -0.1853   0.5355   0.7938   0.9184   1.0367
     1.2093   1.2247   1.2595   1.4782   1.4804   1.6760   1.9546   2.1446
     2.4590   2.5979   2.8060   3.1697   3.3214   3.4773   3.5360   3.6914
     3.6982   3.7822   4.0328   4.1917   4.3323   4.6151   4.7352   4.8255
     5.0661   5.0989   5.2165   5.6387   5.7513   5.8833   6.0597   6.2491
     6.4485   6.6123   6.7174   6.7879   7.0374   7.0417   7.2131   7.3527
     7.6196   7.6662   7.7679   8.2675   8.5996   8.6774   8.7019   8.8242
     9.1002   9.3375   9.4191   9.4627   9.4986   9.7983   9.8904   9.9083
    10.2415  10.3511  10.3892  10.4926  10.5589  10.5901  10.6275  10.7897
    10.8630  10.8634  10.9497  10.9828  11.0030  11.0451  11.2251  11.2404
    11.3718  11.3892  11.4186  11.4728  11.4874  11.5017  11.5403  11.6038
    11.6839  11.7818  11.8071  11.8453  11.9510  11.9764  12.0620  12.1089
    12.1707  12.2626  12.3085  12.3584  12.4969  12.5234  12.5532  12.5638
    12.6660  12.7722  13.0280  13.0683  13.0696  13.1894  13.4008  13.4533
    13.4863  13.5439  13.5540  13.6132  13.7343  13.8996  13.9079  13.9686
    14.1207  14.1290  14.1781  14.2203  14.2613  14.3307  14.4689  14.5619
    14.7431  14.8326  14.8496  15.0056  15.1695  15.1823  15.4033  15.4202
    15.4697  15.5568  15.6725  15.8626  15.8914  15.9809  16.0608  16.2504
    16.3752  16.4710  16.5678  16.6514  16.6686  16.8112  16.8644  16.8930
    16.9196  16.9652  16.9903  17.0736  17.1496  17.1764  17.2280  17.3438
    17.4165  17.4360  17.5745  17.5940  17.6379  17.6521  17.7096  17.7515
    17.7703  17.8502  17.8567  17.8838  18.0376  18.1331  18.2278  18.2844
    18.3318  18.4416  18.4442  18.5447  18.5624  18.7017  18.8471  18.8607
    18.8863  18.9473  18.9638  19.0862  19.1601  19.2261  19.2960  19.4913
    19.5083  19.7435  19.8554  19.9343  19.9464  20.0247  20.0378  20.0912
    20.1268  20.2286  20.3658  20.3850  20.5377  20.6382  20.6587  20.7459
    20.7704  20.8555  20.8732  21.0019  21.0162  21.2254  21.2845  21.3101
    21.4298  21.5643  21.5806  21.7690  21.8426  21.8453  21.9835  22.0934
    22.1553  22.1579  22.2142  22.2671  22.3020  22.5408  22.6147  22.6746
    22.7899  22.8446  22.9314  22.9532  23.0573  23.0961  23.1324  23.2547
    23.2634  23.3537  23.3841  23.4016  23.5197

          k = 0.2500 0.0000 0.0000 ( 29190 PWs)   bands (ev):

   -82.5145 -81.5368 -81.4614 -81.2656 -81.2259 -81.0411 -81.0019 -80.9479
   -46.4453 -44.2398 -44.0762 -43.6224 -43.4226 -43.4181 -43.4027 -43.3290
   -43.3023 -43.2526 -43.1905 -43.1562 -43.0929 -43.0333 -43.0056 -42.9885
   -42.9399 -42.9392 -42.9293 -42.8699 -42.8666 -42.7719 -42.7188 -42.5330
   -21.2525 -20.8100 -20.4712 -20.3948 -20.3111 -20.1172 -19.7291 -19.5962
   -19.5293 -19.5136 -19.4825 -19.3771 -19.3430 -19.3086 -19.2656 -18.9651
   -18.8574 -18.3032 -18.0694  -9.5254  -9.3607  -9.1405  -9.0469  -8.9440
    -8.6429  -8.3988  -8.2590  -8.0553  -7.9168  -7.7923  -7.6768  -7.6417
    -7.5171  -7.4122  -7.2249  -7.0866  -7.0451  -6.8477  -6.6434  -6.6313
    -6.5364  -6.3850  -6.3607  -6.1894  -5.9098  -5.7813  -5.6919  -5.5746
    -5.3706  -5.2038  -5.0801  -5.0168  -4.8127  -4.7955  -4.6103  -4.5780
    -4.5133  -4.5093  -4.4097  -4.3540  -4.3012  -4.1732  -4.0478  -3.9974
    -3.8559  -3.8391  -3.6694  -3.5263  -3.4935  -3.4057  -3.2338  -3.1218
    -2.9437  -2.8228  -2.7430  -2.6345  -2.5339  -2.4803  -1.8166  -0.7996
    -0.6331  -0.4306  -0.2694  -0.1239   0.0202   0.2583   0.4098   0.5299
     0.6695   0.9047   1.0969   1.1579   1.2300   1.3529   1.4776   1.7623
     1.9348   2.0890   2.1172   2.2512   2.8792   3.5349   3.7967   3.9893
     4.0325   4.2859   4.3610   4.3910   4.4480   4.6833   4.7306   4.7956
     5.0663   5.1247   5.1564   5.2537   5.4048   5.7934   5.9984   6.2372
     6.4801   6.6106   6.8914   7.1058   7.6203   7.6735   7.7597   7.8882
     8.0624   8.1916   8.2221   8.3247   8.3448   8.4242   8.4904   8.6722
     8.6968   8.8396   8.9929   9.0983   9.1383   9.1901   9.2425   9.4155
     9.5163   9.6031   9.6887   9.8048   9.9192   9.9936  10.0247  10.1376
    10.1864  10.2752  10.4761  10.5300  10.6072  10.7680  10.8356  10.9586
    11.0430  11.0970  11.2003  11.2734  11.3026  11.3988  11.5751  11.6594
    11.7569  11.8159  11.9427  12.1403  12.2901  12.3492  12.4470  12.4625
    12.5165  12.6674  12.7295  12.9261  12.9875  13.0377  13.2568  13.2834
    13.3335  13.3485  13.4673  13.5618  13.6382  13.6888  13.7828  13.8057
    13.9337  13.9881  14.0473  14.2266  14.3170  14.3680  14.4673  14.5645
    14.6851  14.7742  14.8284  14.8663  14.9619  15.0243  15.1021  15.1429
    15.2933  15.3675  15.4427  15.6296  15.6535  15.7129  15.8357  15.8620
    15.9351  15.9526  16.1004  16.1982  16.2741  16.3047  16.3611  16.4062
    16.5030  16.6668  16.7173  16.7356  16.7657  16.8060  16.9863  17.0542
    17.0892  17.1994  17.2696  17.3509  17.4091  17.4645  17.5129  17.5475
    17.5565  17.6273  17.7226  17.7770  17.8444  17.8890  17.9877  18.0003
    18.0912  18.1789  18.2146  18.2614  18.3284  18.3822  18.4790  18.5995
    18.6555  18.7124  18.7694  18.9462  18.9955  19.0125  19.1255  19.1328
    19.2643  19.3545  19.4442  19.5196  19.5632  19.6051  19.6287  19.7018
    19.7721  19.8253  19.9426  20.0542  20.0913  20.1617  20.2141  20.2705
    20.3212  20.3639  20.4220  20.4811  20.5106  20.5314  20.5983  20.6846
    20.8224  20.8695  20.9251  20.9567  20.9982  21.0444  21.0841  21.1000
    21.2107  21.2357  21.3565  21.3749  21.3978  21.5228  21.6395  21.7489
    21.7919  21.8527  21.9461  22.0045  22.0426  22.1239  22.1987  22.2342
    22.3200  22.3412  22.4142  22.4427  22.5540  22.6345  22.6678  22.6978
    22.7755  22.8236  22.9189  22.9515  22.9889

          k = 0.2500 0.1914 0.0000 ( 29229 PWs)   bands (ev):

   -82.5145 -81.5368 -81.4614 -81.2656 -81.2259 -81.0411 -81.0019 -80.9479
   -46.4453 -44.2399 -44.0758 -43.6226 -43.4226 -43.4169 -43.4028 -43.3290
   -43.3023 -43.2522 -43.1903 -43.1559 -43.0929 -43.0334 -43.0060 -42.9886
   -42.9411 -42.9392 -42.9305 -42.8699 -42.8666 -42.7718 -42.7187 -42.5330
   -21.2398 -20.7836 -20.4255 -20.3475 -20.2128 -20.1215 -19.8262 -19.7971
   -19.7349 -19.5049 -19.4566 -19.4145 -19.3331 -19.1897 -19.1380 -18.9629
   -18.8535 -18.3004 -18.0707  -9.3966  -9.2452  -9.0370  -8.9085  -8.6933
    -8.6227  -8.4716  -8.4251  -8.3026  -8.1196  -8.0508  -7.8836  -7.7090
    -7.5306  -7.4129  -7.2046  -7.0324  -6.9488  -6.8934  -6.7478  -6.5654
    -6.4426  -6.3921  -6.0324  -5.8696  -5.7741  -5.6751  -5.6107  -5.5154
    -5.3888  -5.2809  -5.2534  -5.0936  -4.9841  -4.8839  -4.7882  -4.7499
    -4.6357  -4.5262  -4.4781  -4.3827  -4.3119  -4.2102  -4.0753  -3.9278
    -3.9046  -3.7962  -3.6706  -3.5339  -3.4871  -3.4047  -3.3092  -3.0736
    -2.9444  -2.8231  -2.6945  -2.5733  -2.1833  -2.0671  -1.8108  -0.9131
    -0.8516  -0.8050  -0.5410  -0.0338   0.0291   0.5671   0.6456   0.7595
     0.8165   0.9495   1.0980   1.2370   1.2942   1.4036   1.5792   1.6592
     1.9187   1.9852   2.1651   2.3843   2.7661   3.2709   3.6062   3.6973
     3.8323   3.8690   4.1154   4.3507   4.4194   4.5416   4.6832   4.8283
     5.1058   5.3253   5.4867   5.7229   5.8643   5.9962   6.1398   6.2891
     6.4012   6.6160   6.7729   6.9914   7.1559   7.3427   7.5780   7.7660
     7.7923   7.8667   8.0482   8.1847   8.3097   8.4012   8.5308   8.6140
     8.6938   8.7696   9.0362   9.1487   9.2936   9.4262   9.5271   9.6007
     9.6822   9.7632   9.9120   9.9502   9.9962  10.0566  10.1763  10.2261
    10.2930  10.3429  10.3580  10.4940  10.6952  10.7994  10.8604  11.0076
    11.0518  11.0895  11.2789  11.3860  11.5299  11.6775  11.8135  11.8524
    11.9423  12.0926  12.2319  12.2670  12.4581  12.5802  12.6136  12.6596
    12.7272  12.7808  12.8040  12.9851  13.0209  13.1192  13.1715  13.3065
    13.4108  13.5599  13.5879  13.6458  13.7353  13.8038  13.8868  13.9102
    13.9671  14.0111  14.0835  14.1789  14.2185  14.3168  14.4394  14.4620
    14.5552  14.5987  14.6596  14.7582  14.8054  14.8600  14.9175  14.9754
    15.0057  15.0486  15.1079  15.1711  15.2323  15.3143  15.4881  15.5170
    15.5782  15.6974  15.7927  15.8798  16.0480  16.1394  16.1694  16.1912
    16.2668  16.3327  16.4383  16.5761  16.6048  16.6545  16.6798  16.7833
    16.8728  16.9319  16.9974  17.1555  17.1853  17.2351  17.2995  17.4212
    17.4715  17.6068  17.6765  17.7475  17.7847  17.8632  17.9299  17.9961
    18.1026  18.1243  18.2001  18.2803  18.3375  18.4042  18.4586  18.5482
    18.5713  18.6473  18.7211  18.7853  18.8613  18.9904  19.0460  19.0680
    19.1387  19.2546  19.3206  19.4503  19.5380  19.5871  19.7016  19.7530
    19.8463  19.9528  20.0619  20.1238  20.1974  20.2717  20.3592  20.4363
    20.5019  20.5702  20.6108  20.6646  20.7847  20.8444  20.8466  20.9022
    21.0210  21.0434  21.1330  21.2039  21.2596  21.2848  21.3280  21.3818
    21.4281  21.5209  21.5401  21.5915  21.6579  21.7778  21.8592  21.9278
    21.9539  22.0456  22.1200  22.1877  22.2125  22.2687  22.3308  22.4326
    22.4547  22.4988  22.5449  22.5765  22.6660  22.6906  22.7115  22.7812
    22.7975  22.8710  22.9667  23.0281  23.0683

          k = 0.2500-0.3828 0.0000 ( 29202 PWs)   bands (ev):

   -82.5145 -81.5368 -81.4614 -81.2656 -81.2259 -81.0411 -81.0019 -80.9479
   -46.4453 -44.2400 -44.0755 -43.6228 -43.4225 -43.4156 -43.4028 -43.3290
   -43.3022 -43.2517 -43.1901 -43.1556 -43.0929 -43.0333 -43.0066 -42.9886
   -42.9423 -42.9392 -42.9314 -42.8699 -42.8665 -42.7717 -42.7185 -42.5330
   -21.2282 -20.7600 -20.4133 -20.2115 -20.1751 -19.9437 -19.9086 -19.8901
   -19.8829 -19.7223 -19.5706 -19.4536 -19.3401 -19.0419 -19.0093 -18.9625
   -18.8429 -18.2982 -18.0723  -9.3611  -9.1260  -8.9955  -8.7905  -8.7485
    -8.6630  -8.4179  -8.3515  -8.0764  -8.0113  -7.9677  -7.8646  -7.7395
    -7.6777  -7.6566  -7.5906  -7.4285  -7.1936  -6.9470  -6.7060  -6.5984
    -6.2165  -5.9358  -5.8167  -5.7433  -5.6621  -5.6473  -5.6027  -5.5112
    -5.4668  -5.3291  -5.2503  -5.1240  -5.1089  -4.9807  -4.9447  -4.8405
    -4.7307  -4.5905  -4.4972  -4.4651  -4.3367  -4.1651  -4.0477  -3.8522
    -3.8261  -3.7948  -3.6484  -3.5752  -3.4934  -3.3659  -3.2665  -3.1139
    -2.9100  -2.8649  -2.6436  -2.5515  -1.9454  -1.9100  -1.7764  -1.2232
    -1.0412  -0.8524  -0.8145  -0.0663   0.3734   0.6022   0.8393   0.9153
     1.1083   1.1713   1.2263   1.2395   1.3780   1.4043   1.6209   1.9109
     1.9448   2.0650   2.1976   2.4301   2.4987   2.6567   2.8052   3.2805
     3.3287   3.8402   4.2292   4.3890   4.4742   4.6226   4.8756   5.1307
     5.3173   5.5435   5.5956   5.9686   6.0603   6.1383   6.1952   6.3401
     6.4035   6.5852   6.7394   6.8039   6.8230   7.0793   7.1642   7.5200
     7.7740   7.8193   7.8912   8.0384   8.1781   8.4513   8.6532   8.7086
     8.7323   8.8284   8.9707   9.0952   9.1256   9.2230   9.3480   9.4392
     9.5895   9.7927   9.8785   9.9287  10.1235  10.2786  10.3571  10.5107
    10.5693  10.6028  10.6752  10.7732  10.8407  11.0026  11.1126  11.2980
    11.3218  11.3844  11.7453  11.7747  11.8008  11.9621  12.0123  12.0909
    12.1713  12.1973  12.2617  12.2944  12.3771  12.3999  12.5302  12.5859
    12.7186  12.7497  12.8609  13.0326  13.0397  13.2113  13.3020  13.3347
    13.5012  13.5892  13.6302  13.6976  13.7610  13.8742  13.9075  13.9335
    13.9934  14.0065  14.1360  14.1500  14.1838  14.2535  14.2898  14.3829
    14.4594  14.4889  14.5478  14.5965  14.6286  14.6620  14.7248  14.7824
    14.7994  14.8476  14.9047  15.0119  15.2242  15.2991  15.3973  15.4482
    15.4824  15.4945  15.5722  15.5870  15.7019  15.7473  15.8425  15.9191
    15.9821  16.0561  16.1063  16.2272  16.2962  16.3054  16.4348  16.5410
    16.6968  16.7240  16.8050  16.8645  16.9151  17.0059  17.1202  17.2926
    17.4112  17.4482  17.4791  17.5565  17.5700  17.7117  17.7518  17.8431
    17.8917  17.9628  18.0352  18.1634  18.2332  18.3118  18.4513  18.5096
    18.5901  18.7398  18.8079  18.8872  18.9807  19.1395  19.2191  19.3187
    19.4744  19.4961  19.5852  19.6963  19.7838  19.8681  19.9173  19.9418
    20.0158  20.0744  20.1389  20.2329  20.3049  20.3276  20.3406  20.3704
    20.3739  20.4178  20.5179  20.5524  20.7820  20.8734  20.9831  21.0270
    21.0623  21.1283  21.2419  21.2601  21.2958  21.3509  21.3578  21.4504
    21.4794  21.5937  21.6061  21.7200  21.7302  21.8043  21.8566  21.8646
    21.9198  21.9694  22.0707  22.0863  22.1732  22.2153  22.2840  22.3643
    22.4588  22.4890  22.5379  22.6178  22.6401  22.6673  22.7159  22.7615
    22.8321  22.8799  22.9979  23.0428  23.0832

          k =-0.5000 0.0000 0.0000 ( 29180 PWs)   bands (ev):

   -82.5143 -81.5314 -81.4668 -81.2466 -81.2450 -81.0221 -81.0209 -80.9482
   -46.4451 -44.1800 -44.0742 -43.4109 -43.3908 -43.3450 -43.3415 -43.3360
   -43.2890 -43.2237 -43.2202 -43.1053 -43.0937 -43.0397 -43.0297 -42.9972
   -42.9889 -42.9418 -42.9004 -42.8991 -42.8681 -42.8455 -42.8416 -42.7908
   -21.1766 -20.5619 -20.5544 -20.3159 -20.0426 -19.9584 -19.9494 -19.9329
   -19.5165 -19.4829 -19.4105 -19.4021 -19.3702 -19.3686 -19.1194 -19.0779
   -18.9887 -18.3008 -18.2120  -9.3173  -9.0554  -8.9887  -8.5298  -8.4914
    -8.3412  -8.3398  -8.2545  -8.2104  -8.0596  -7.9988  -7.9693  -7.5638
    -7.3994  -7.3880  -7.2688  -6.9060  -6.8963  -6.7328  -6.6718  -6.3653
    -6.1669  -6.1131  -5.9611  -5.9433  -5.8557  -5.8390  -5.7452  -5.5154
    -5.4388  -5.2885  -5.2602  -5.1677  -5.1182  -5.0700  -5.0572  -4.9918
    -4.9119  -4.6996  -4.6269  -4.6027  -4.5758  -4.4264  -4.3129  -4.0945
    -3.9816  -3.8546  -3.5063  -3.4633  -3.4527  -3.3631  -3.1261  -3.0486
    -2.9285  -2.8148  -2.8112  -2.6247  -1.4310  -0.9329  -0.9323  -0.8507
    -0.6581  -0.6007  -0.4495  -0.4245  -0.3501  -0.3394  -0.1345  -0.1118
     0.2180   0.3850   0.6454   0.6849   0.6984   0.8228   1.3602   1.3848
     1.5003   1.5691   2.0637   2.2955   2.8128   3.7597   3.8471   3.9824
     4.1306   4.1814   4.4135   4.4353   4.5468   4.7483   4.8167   4.8209
     4.9882   5.1828   5.2266   5.8645   5.8936   6.1826   6.1914   6.3722
     6.3909   6.7292   6.7970   6.8356   6.9773   7.2887   7.4082   7.6747
     7.8009   7.9360   8.0759   8.4064   8.5777   8.5942   8.7218   8.7409
     9.0133   9.0804   9.2359   9.2464   9.3177   9.3573   9.3660   9.4326
     9.4553   9.6287   9.7063   9.7599   9.7803   9.8101   9.8567   9.9595
    10.0076  10.1462  10.3656  10.3862  10.4083  10.5256  10.5421  10.5763
    10.6761  10.7851  10.8440  10.9974  11.1497  11.3452  11.5257  11.5480
    11.5933  11.8833  11.9437  12.0249  12.1715  12.2109  12.3248  12.3707
    12.3878  12.6621  12.7923  12.9841  13.1997  13.2430  13.3950  13.4559
    13.4775  13.5630  13.6873  13.7726  13.8472  13.9002  14.1678  14.2924
    14.3274  14.3403  14.3968  14.4343  14.6448  14.7334  14.8595  15.0294
    15.0721  15.1769  15.2723  15.4370  15.4532  15.5115  15.5616  15.5983
[...]
     1.1247   1.1562   1.6782   1.7323   1.8538   3.3329   3.5692   3.6985
     3.7669   3.8809   4.0701   4.0846   4.1996   4.3329   4.4930   4.4976
     4.6591   4.8277   4.9442   5.4594   5.5703   6.0612   6.0706   6.3324
     6.3429   6.6290   6.6816   6.9168   7.0222   7.1715   7.2522   7.3543
     7.7118   7.8729   8.0519   8.1708   8.3316   8.3360   8.6072   8.8243
     9.0041   9.0321   9.1428   9.2087   9.2656   9.2893   9.3429   9.3837
     9.4313   9.5842   9.6543   9.7522   9.7912   9.8818   9.9353   9.9436
    10.0035  10.0684  10.2518  10.2990  10.3455  10.5183  10.5375  10.5816
    10.7027  10.8042  10.8775  10.9571  11.0371  11.1826  11.4429  11.4713
    11.5964  11.8274  11.8702  11.9064  11.9953  12.2026  12.2117  12.3383
    12.3605  12.3953  12.7179  12.7229  12.9934  13.1199  13.3268  13.3610
    13.4598  13.5559  13.5825  13.6009  13.6758  13.7309  14.0653  14.0835
    14.1156  14.1256  14.1595  14.1845  14.6135  14.6797  14.7222  14.8855
    14.9238  15.0112  15.1145  15.1230  15.2480  15.2994  15.3958  15.3976
    15.5300  15.5542  15.6075  15.7256  15.7492  15.8268  15.9349  16.1125
    16.1843  16.2297  16.2872  16.3522  16.4631  16.5799  16.6204  16.6771
    16.8470  16.9419  17.0137  17.0285  17.1346  17.1417  17.3110  17.3603
    17.4050  17.4750  17.4831  17.5105  17.6732  17.8623  17.8995  17.9104
    18.1195  18.1418  18.1775  18.2364  18.2841  18.2968  18.3072  18.4852
    18.5275  18.5464  18.6533  18.7240  18.7475  18.7624  18.8803  18.9194
    18.9756  19.0040  19.0707  19.1236  19.1462  19.2260  19.2892  19.3232
    19.4074  19.5109  19.5490  19.5673  19.5996  19.6576  19.6801  19.7931
    19.8130  19.8279  19.8509  19.8607  19.8793  19.9581  19.9647  20.0547
    20.0798  20.1353  20.1846  20.2021  20.3465  20.3907  20.4064  20.4802
    20.4940  20.5434  20.5694  20.6559  20.6961  20.8338  20.8548  20.9364
    20.9726  20.9989  21.0456  21.0662  21.1360  21.1700  21.1837  21.2997
    21.3600  21.3998  21.4111  21.4934  21.5098  21.6268  21.6415  21.7818
    21.7938  21.8483  21.8949  21.9959  22.0466  22.0720  22.3395  22.3696
    22.4321  22.4957  22.4985  22.5178  22.5333

          k =-0.5000 0.1914 0.0000 ( 29244 PWs)   bands (ev):

   -82.2603 -81.8669 -81.8178 -81.6170 -81.6166 -81.4109 -81.3876 -81.3868
   -44.3646 -44.0838 -44.0199 -43.7464 -43.7251 -43.6936 -43.6829 -43.6818
   -43.6424 -43.5862 -43.5843 -43.4752 -43.4674 -43.3961 -43.3892 -43.3784
   -43.3559 -43.3480 -43.3343 -43.2558 -43.2548 -43.2281 -43.2260 -43.2247
   -20.9428 -20.9359 -20.6806 -20.6083 -20.2631 -20.2538 -20.1776 -20.1727
   -19.9298 -19.9217 -19.6873 -19.6794 -19.6613 -19.6596 -19.4445 -19.4158
   -18.5594 -18.4941 -17.9554  -8.8962  -8.8774  -8.7093  -8.6984  -8.6819
    -8.6450  -8.5176  -8.4360  -8.3460  -8.3216  -7.5761  -7.5642  -7.4340
    -7.4060  -7.3097  -7.2314  -7.1847  -7.0897  -6.8898  -6.8734  -6.6306
    -6.5979  -6.5369  -6.5059  -6.2281  -6.1989  -6.0465  -5.9449  -5.7479
    -5.7104  -5.6389  -5.6049  -5.5219  -5.4580  -5.3381  -5.2811  -5.1956
    -5.1421  -5.0747  -5.0098  -4.8189  -4.6793  -4.4273  -4.4084  -3.8900
    -3.8547  -3.7560  -3.7478  -3.6398  -3.6156  -3.5292  -3.3996  -3.3590
    -3.0432  -2.9940  -2.7281  -2.4977  -1.2737  -1.2213  -1.2175  -1.1339
    -1.0212  -0.9897  -0.8686  -0.8264  -0.5675  -0.5282  -0.3693  -0.3439
    -0.0529   0.0584   0.2168   0.3584   0.5311   0.5843   0.7257   1.0022
     1.0435   1.1192   1.4463   1.7381   1.8859   3.0206   3.2361   3.2536
     3.3253   3.3951   3.6538   4.0367   4.0856   4.6374   4.7471   4.9559
     5.0260   5.0779   5.2397   5.4118   5.5780   6.1690   6.2191   6.3158
     6.3534   6.6835   6.6908   6.9089   7.0284   7.2285   7.2763   7.3912
     7.7258   7.7821   7.8227   8.0193   8.1438   8.2500   8.3118   8.4534
     8.5044   8.6988   8.7234   8.8194   8.8978   9.1006   9.1505   9.3275
     9.4653   9.5450   9.5759   9.6974   9.7434   9.9042   9.9436  10.3010
    10.3555  10.4472  10.4646  10.5470  10.6843  10.8436  10.8906  10.9721
    11.0438  11.0871  11.1050  11.4122  11.4525  11.5582  11.6512  11.7344
    11.8746  11.9476  12.0700  12.1880  12.2443  12.3699  12.3971  12.5355
    12.5697  12.6468  12.7423  12.7855  13.0002  13.0276  13.3408  13.3766
    13.5575  13.6164  13.6886  13.7916  13.8347  13.9504  13.9737  14.0017
    14.0417  14.0953  14.1594  14.2989  14.3493  14.4431  14.7056  14.7933
    14.8908  14.9383  15.0049  15.0399  15.0824  15.2061  15.3032  15.3331
    15.4658  15.5195  15.5620  15.6769  15.7843  15.8557  15.9069  15.9473
    16.0527  16.0872  16.1663  16.2036  16.2370  16.2787  16.3709  16.4388
    16.5047  16.5647  16.6463  16.7727  16.8899  16.9215  16.9527  16.9928
    17.0675  17.1094  17.2440  17.2676  17.2850  17.3299  17.4077  17.5148
    17.5538  17.6361  17.6684  17.7667  17.8197  17.8945  17.9067  18.0315
    18.0558  18.0918  18.2894  18.3126  18.4091  18.4642  18.4781  18.5897
    18.6951  18.7252  18.7369  18.8364  18.9031  19.0631  19.0891  19.1263
    19.2183  19.2649  19.3409  19.4612  19.4888  19.6023  19.6407  19.6614
    19.7352  19.7443  19.8851  19.9003  19.9949  20.1091  20.1644  20.2255
    20.2701  20.3379  20.3515  20.5346  20.5838  20.6530  20.6858  20.7479
    20.7858  20.9357  21.0274  21.0708  21.1015  21.1931  21.2300  21.2626
    21.2924  21.4252  21.4758  21.5874  21.6346  21.7383  21.7664  21.8041
    21.9254  21.9720  21.9974  22.0410  22.0515  22.0777  22.0975  22.1494
    22.1662  22.2420  22.3185  22.4109  22.4459  22.4807  22.4864  22.5391
    22.5840  22.6503  22.6738  22.7371  22.7394

          k =-0.5000-0.3828 0.0000 ( 29192 PWs)   bands (ev):

   -82.2603 -81.8669 -81.8178 -81.6170 -81.6166 -81.4109 -81.3876 -81.3868
   -44.3645 -44.0840 -44.0192 -43.7464 -43.7244 -43.6936 -43.6829 -43.6812
   -43.6426 -43.5855 -43.5843 -43.4751 -43.4676 -43.3961 -43.3892 -43.3784
   -43.3559 -43.3494 -43.3343 -43.2564 -43.2554 -43.2280 -43.2257 -43.2247
   -20.9363 -20.9287 -20.6675 -20.5804 -20.2204 -20.2104 -20.1333 -20.1300
   -20.0326 -20.0260 -19.7088 -19.7014 -19.6669 -19.6563 -19.4421 -19.4139
   -18.5594 -18.4944 -17.9523  -8.8696  -8.8512  -8.7311  -8.7143  -8.7081
    -8.6139  -8.4837  -8.4112  -8.3332  -8.3167  -7.4564  -7.4456  -7.3243
    -7.2715  -7.1683  -7.1208  -7.0841  -7.0732  -6.9758  -6.9691  -6.8199
    -6.7700  -6.5783  -6.5169  -6.1843  -6.1692  -6.0380  -5.9307  -5.8904
    -5.7737  -5.7608  -5.7405  -5.6669  -5.6262  -5.4164  -5.3461  -5.3261
    -5.2566  -5.0939  -5.0844  -4.5883  -4.5541  -4.3562  -4.3067  -4.0994
    -3.9284  -3.7680  -3.7431  -3.6536  -3.6340  -3.4989  -3.4202  -3.2928
    -2.8981  -2.8745  -2.6745  -2.5008  -1.3432  -1.3380  -1.2505  -1.1557
    -1.0510  -0.9826  -0.9809  -0.8428  -0.4676  -0.1576  -0.0442   0.0589
     0.1801   0.1879   0.4027   0.5454   0.6993   0.7820   0.8480   0.8677
     1.0764   1.1420   1.3662   1.5260   1.9611   2.2253   2.4850   2.4956
     2.6071   3.3759   3.6969   4.1630   4.1739   4.7949   4.9340   5.1162
     5.1470   5.4848   5.5688   5.7363   5.8303   5.8799   6.1875   6.1920
     6.3194   6.8227   6.8247   7.0778   7.0789   7.3718   7.3832   7.4955
     7.5236   7.6620   7.7047   7.8059   7.9316   7.9463   7.9726   8.0307
     8.2284   8.4723   8.4754   8.7219   8.7649   8.8629   8.9146   9.1304
     9.2093   9.6897   9.6973   9.8596   9.8829  10.0262  10.0595  10.2187
    10.2567  10.5100  10.5917  10.7135  10.7962  10.9708  11.0466  11.1145
    11.4097  11.5567  11.5576  11.6166  11.7355  11.7447  11.8590  11.9819
    12.1697  12.4329  12.5030  12.6682  12.6787  12.8106  12.9780  13.0988
    13.1210  13.1381  13.1856  13.2209  13.2692  13.3428  13.4665  13.4899
    13.5004  13.5262  13.6434  13.7111  13.7341  13.8630  13.8819  13.9073
    13.9956  14.0769  14.1021  14.1226  14.1397  14.1812  14.3022  14.3123
    14.3609  14.4783  14.6776  14.6883  14.7984  14.9174  15.1135  15.1442
    15.1681  15.2025  15.2057  15.2797  15.4734  15.5079  15.6080  15.6537
    15.7904  15.8480  15.8743  16.0328  16.0744  16.1771  16.2352  16.3264
    16.4269  16.4864  16.5501  16.5513  16.6325  16.7769  16.8039  16.8494
    16.9884  17.0053  17.2162  17.2271  17.2721  17.3339  17.3677  17.4166
    17.6435  17.6798  17.6882  17.7464  17.7914  17.8021  17.8335  17.9294
    17.9962  18.0058  18.0539  18.1416  18.1628  18.2143  18.3053  18.3391
    18.3551  18.3947  18.4108  18.4692  18.5376  18.6453  18.7797  18.8337
    18.8952  18.9760  18.9795  19.0618  19.0871  19.1321  19.3890  19.4308
    19.6838  19.7445  19.7676  19.8397  19.9691  20.1093  20.1248  20.1927
    20.2605  20.3033  20.4532  20.6693  20.7055  20.7550  20.7923  20.8352
    20.8833  21.0076  21.1227  21.2708  21.2917  21.3278  21.3708  21.4243
    21.4499  21.4921  21.5142  21.5932  21.6637  21.8169  21.8283  21.9675
    21.9991  22.0290  22.1302  22.2462  22.2953  22.3948  22.4105  22.6430
    22.6905  22.7073  22.7626  22.7971  22.8704  22.8888  22.8986  23.0105
    23.0677  23.0767  23.1538  23.1877  23.2413

          k =-0.2500 0.1914 0.0000 ( 29229 PWs)   bands (ev):

   -82.2607 -81.8737 -81.8110 -81.6366 -81.5970 -81.4104 -81.4068 -81.3675
   -44.3654 -44.1762 -44.0234 -43.9678 -43.7758 -43.7598 -43.7549 -43.6780
   -43.6455 -43.6155 -43.5540 -43.5370 -43.4492 -43.4049 -43.3528 -43.3473
   -43.3453 -43.3439 -43.3039 -43.2851 -43.2246 -43.1457 -43.1222 -42.9145
   -21.2799 -20.8184 -20.7475 -20.5907 -20.4535 -20.3633 -20.1173 -20.0583
   -20.0490 -19.7948 -19.7842 -19.7472 -19.6281 -19.4853 -19.4122 -19.1883
   -18.5710 -18.3502 -17.9563  -9.3550  -9.0745  -9.0400  -9.0327  -8.7651
    -8.6863  -8.6458  -8.3976  -8.2822  -8.2128  -8.1481  -7.9831  -7.7496
    -7.6804  -7.6454  -7.2976  -7.1494  -7.0563  -6.9264  -6.8157  -6.7589
    -6.5198  -6.3938  -6.3049  -6.1225  -5.9906  -5.9280  -5.8770  -5.8625
    -5.4945  -5.4544  -5.4145  -5.2907  -5.2120  -5.0926  -5.0571  -4.9657
    -4.9502  -4.7988  -4.7093  -4.5864  -4.3754  -4.3590  -4.2619  -4.0721
    -3.9875  -3.9410  -3.7633  -3.6956  -3.6316  -3.5604  -3.4192  -3.2028
    -3.1260  -2.9500  -2.8498  -2.5932  -2.4197  -2.3657  -2.2055  -1.2316
    -1.1995  -1.1105  -0.8752  -0.4198  -0.2963   0.2037   0.2813   0.3571
     0.4602   0.6164   0.6761   0.7929   0.9515   1.1218   1.2056   1.3090
     1.3442   1.6183   1.6466   1.7765   2.0463   3.1316   3.2558   3.3049
     3.4565   3.5376   3.6980   3.9696   4.0476   4.2061   4.3478   4.5055
     4.7336   5.1075   5.3445   5.4278   5.6983   5.8148   6.0292   6.0706
     6.1919   6.3507   6.6752   6.8991   7.1424   7.2764   7.4459   7.5412
     7.6841   7.8259   7.9339   8.1051   8.1514   8.3093   8.5303   8.6120
     8.6528   8.6818   8.9091   9.0370   9.1164   9.3067   9.3902   9.5615
     9.6026   9.7063   9.7887   9.8333   9.9089   9.9984  10.0488  10.1053
    10.2225  10.2840  10.4005  10.4646  10.5793  10.6722  10.8078  10.8869
    10.9542  11.1065  11.1655  11.3019  11.4549  11.5785  11.6187  11.7800
    11.8713  11.9758  12.0617  12.1996  12.2920  12.4570  12.4895  12.5756
    12.6296  12.7495  12.8503  12.8738  12.9306  13.0681  13.1874  13.2668
    13.3625  13.4407  13.5513  13.5767  13.6463  13.7208  13.7772  13.8100
    13.8824  13.9643  14.0167  14.0508  14.1783  14.2233  14.3212  14.3916
    14.4408  14.4944  14.5437  14.6561  14.7075  14.7879  14.8677  14.8827
    14.9818  15.0697  15.1024  15.1807  15.2391  15.2586  15.3570  15.4635
    15.5217  15.6304  15.6850  15.7989  15.9115  16.0731  16.1186  16.1488
    16.2314  16.3435  16.3920  16.4403  16.5032  16.5570  16.5929  16.6465
    16.7598  16.8233  16.9229  17.0712  17.1263  17.1672  17.2318  17.3711
    17.4289  17.5054  17.6151  17.6896  17.7665  17.8497  17.9148  17.9812
    18.0251  18.1264  18.1801  18.1906  18.2804  18.3359  18.3879  18.4350
    18.5190  18.6211  18.7028  18.7550  18.8411  18.9301  18.9922  19.0247
    19.1423  19.1989  19.2408  19.3925  19.5228  19.5492  19.6071  19.7185
    19.7839  19.9176  19.9618  20.0933  20.1211  20.2134  20.2642  20.3568
    20.3750  20.4801  20.5627  20.6114  20.6443  20.7140  20.7902  20.8885
    20.9582  21.0219  21.0959  21.1424  21.1910  21.2790  21.3333  21.3584
    21.4157  21.5086  21.5491  21.6030  21.6269  21.7487  21.8220  21.9383
    21.9535  22.0305  22.0523  22.1151  22.1378  22.2308  22.3145  22.3930
    22.4042  22.4264  22.5163  22.5713  22.5984  22.6575  22.7394  22.7603
    22.8081  22.8623  22.9498  23.0046  23.0331

     the Fermi energy is     0.2159 ev

!    total energy              =   -2175.32857867 Ry
     Harris-Foulkes estimate   =   -2175.32857869 Ry
     estimated scf accuracy    <       0.00000002 Ry

     The total energy is the sum of the following terms:

     one-electron contribution =  -24235.58310116 Ry
     hartree contribution      =   12131.12445160 Ry
     xc contribution           =    -594.21708924 Ry
     ewald contribution        =   10523.34805836 Ry
     smearing contrib. (-TS)   =      -0.00089822 Ry

     total magnetization       =     0.00 Bohr mag/cell
     absolute magnetization    =     0.00 Bohr mag/cell

     convergence has been achieved in  10 iterations

     Forces acting on atoms (Ry/au):


     negative rho (up, down):  0.124E+00 0.124E+00
     atom    1 type  1   force =    -0.00432356   -0.00742691   -0.00041141
     atom    2 type  1   force =     0.00002266    0.00721899    0.00183708
     atom    3 type  2   force =     0.01037398   -0.00415439   -0.01547101
     atom    4 type  2   force =     0.00180917    0.00836575    0.00162780
     atom    5 type  1   force =     0.00352998    0.01528515    0.00163081
     atom    6 type  1   force =     0.00142684   -0.01706418    0.00068465
     atom    7 type  1   force =     0.00008940    0.00014260   -0.00630090
     atom    8 type  1   force =     0.00258748   -0.00161045    0.00464071
     atom    9 type  2   force =    -0.01003186    0.00128070    0.01539519
     atom   10 type  2   force =    -0.00003140   -0.00082046   -0.02872319
     atom   11 type  1   force =    -0.02430795   -0.01408172   -0.02947653
     atom   12 type  1   force =    -0.02491355    0.01369969   -0.02929421
     atom   13 type  1   force =    -0.00046569    0.00003005   -0.00844511
     atom   14 type  1   force =    -0.00424654   -0.00767200    0.00180447
     atom   15 type  1   force =    -0.00001176    0.00926256   -0.00104300
     atom   16 type  2   force =    -0.01092367   -0.00443957   -0.01550099
     atom   17 type  2   force =     0.00166366    0.00889551   -0.00498281
     atom   18 type  1   force =     0.00047839    0.01527599    0.00120274
     atom   19 type  1   force =    -0.00129947   -0.01686533    0.00096975
     atom   20 type  1   force =    -0.00001173   -0.00158447   -0.03012411
     atom   21 type  1   force =     0.00283492   -0.00179943    0.00375648
     atom   22 type  2   force =     0.00683205    0.00157591    0.01558798
     atom   23 type  2   force =     0.00001176    0.00068383    0.19975695
     atom   24 type  1   force =     0.02446261   -0.01419993   -0.02928362
     atom   25 type  1   force =     0.02472395    0.01365924   -0.02937181
     atom   26 type  1   force =    -0.00042565   -0.00044618   -0.01952923
     atom   27 type  3   force =     0.00001125   -0.00142492    0.00101216
     atom   28 type  3   force =    -0.00000147   -0.00220537   -0.00177930
     atom   29 type  3   force =    -0.00044216    0.00039957   -0.00009794
     atom   30 type  3   force =     0.00058081    0.00030752   -0.00020842
     atom   31 type  1   force =    -0.00000246   -0.00028772    0.00013680

     Total force =     0.000319     Total SCF correction =     0.000037
     SCF correction compared to forces is large: reduce conv_thr to get better values

     bfgs converged in   6 scf cycles and   5 bfgs steps
     (criteria: energy < 0.10E-03, force < 0.10E-02)

     End of BFGS Geometry Optimization

     Final energy   =   -2175.3285786718 Ry
Begin final coordinates

ATOMIC_POSITIONS (crystal)
O0       0.000000000   0.000000000   0.370990000    0   0   0
O0       0.000000000   0.500000000   0.382010000    0   0   0
Re1      0.250000000   0.500000000   0.441280000    0   0   0
Re1      0.000000000   0.000000000   0.443730000    0   0   0
O0       0.250000000   0.780000000   0.441680000    0   0   0
O0       0.250000000   0.220000000   0.441710000    0   0   0
O0       0.000000000   0.500000000   0.497700000    0   0   0
O0       0.000000000   0.000000000   0.515470000    0   0   0
Re1      0.250000000   0.000000000   0.575490000    0   0   0
Re1      0.000000000   0.500000000   0.567930000    0   0   0
O0       0.250000000   0.720000000   0.573870000    0   0   0
O0       0.250000000   0.280000000   0.573850000    0   0   0
O0       0.000000000   0.000000000   0.627710000    0   0   0
O0       0.500000000   0.000000000   0.370990000    0   0   0
O0       0.500000000   0.500000000   0.382010000    0   0   0
Re1      0.750000000   0.500000000   0.441280000    0   0   0
Re1      0.500000000   0.000000000   0.443730000    0   0   0
O0       0.750000000   0.780000000   0.441690000    0   0   0
O0       0.750000000   0.220000000   0.441710000    0   0   0
O0       0.500000000   0.500000000   0.497700000    0   0   0
O0       0.500000000   0.000000000   0.515470000    0   0   0
Re1      0.750000000   0.000000000   0.575490000    0   0   0
Re1      0.500000000   0.500000000   0.567940000    0   0   0
O0       0.750000000   0.720000000   0.573870000    0   0   0
O0       0.750000000   0.280000000   0.573850000    0   0   0
O0       0.500000000   0.000000000   0.627710000    0   0   0
H2      -0.000380000   0.625740000   0.365330000    0   0   0
H2       0.499620000   0.625740000   0.365330000    0   0   0
H2       0.169870000   0.021820000   0.356820000    0   0   0
H2       0.669880000   0.021820000   0.356820000    0   0   0
O0       0.499994071   0.499757748   0.632703430
End final coordinates



     init_run     :    116.98s CPU    151.21s WALL (       1 calls)
     electrons    :  32973.05s CPU  41852.25s WALL (       6 calls)
     update_pot   :     34.99s CPU     40.81s WALL (       5 calls)
     forces       :    507.08s CPU    527.01s WALL (       6 calls)

     Called by init_run:
     wfcinit      :     87.35s CPU    119.99s WALL (       1 calls)
     potinit      :      3.07s CPU      3.97s WALL (       1 calls)

     Called by electrons:
     c_bands      :  25944.75s CPU  33042.76s WALL (      91 calls)
     sum_band     :   4842.61s CPU   6437.15s WALL (      91 calls)
     v_of_rho     :    100.90s CPU    163.49s WALL (      96 calls)
     newd         :   2175.68s CPU   2232.93s WALL (      96 calls)
     mix_rho      :     18.20s CPU     31.83s WALL (      91 calls)

     Called by c_bands:
     init_us_2    :     38.02s CPU     38.47s WALL (    3780 calls)
     cegterg      :  25733.07s CPU  32829.57s WALL (    1820 calls)

     Called by *egterg:
     h_psi        :  12202.91s CPU  18466.79s WALL (    5868 calls)
     s_psi        :   1127.73s CPU   1131.13s WALL (    5868 calls)
     g_psi        :     19.61s CPU     19.70s WALL (    4028 calls)
     cdiaghg      :   7519.12s CPU   7742.52s WALL (    5728 calls)

     Called by h_psi:
     add_vuspsi   :   1135.10s CPU   1140.79s WALL (    5868 calls)

     General routines
     calbec       :   1804.41s CPU   1980.68s WALL (    7808 calls)
     fft          :    185.65s CPU    344.53s WALL (    3038 calls)
     ffts         :      3.04s CPU      5.81s WALL (     374 calls)
     fftw         :  10842.27s CPU  18422.99s WALL ( 3459822 calls)
     interpolate  :     21.37s CPU     38.77s WALL (     374 calls)

     Parallel routines
     fft_scatter  :   7668.15s CPU  15346.50s WALL ( 3463234 calls)

     PWSCF        :     9h22m CPU       11h51m WALL


   This run was terminated on:  21:26:34  20Mar2014            

=------------------------------------------------------------------------------=
   JOB DONE.
=------------------------------------------------------------------------------=
