ScientificPython/2.8-dl160g6-numpy-1.7.1-1(15):ERROR:151: Module 'ScientificPython/2.8-dl160g6-numpy-1.7.1-1' depends on one of the module(s) 'numpy/1.7.1-dl160g6-gfortran-internal-1'
ScientificPython/2.8-dl160g6-numpy-1.7.1-1(15):ERROR:102: Tcl command execution failed: prereq numpy/1.7.1-dl160g6-gfortran-internal-1


     Program PWSCF v.5.0.2 (svn rev. 9656) starts on 12Jun2014 at  6:50:36 

     This program is part of the open-source Quantum ESPRESSO suite
     for quantum simulation of materials; please cite
         "P. Giannozzi et al., J. Phys.:Condens. Matter 21 395502 (2009);
          URL http://www.quantum-espresso.org", 
     in publications or presentations arising from this work. More details at
     http://www.quantum-espresso.org/quote.php

     Parallel version (MPI), running on    16 processors
     K-points division:     npool     =       4
     R & G space division:  proc/nbgrp/npool/nimage =       4

     Current dimensions of program PWSCF are:
     Max number of different atomic species (ntypx) = 10
     Max number of k-points (npk) =  40000
     Max angular momentum in pseudopotentials (lmaxx) =  3
     Reading input from pwscf.in
Warning: card &CELL ignored
Warning: card / ignored

     Subspace diagonalization in iterative solution of the eigenvalue problem:
     a serial algorithm will be used


     Parallelization info
     --------------------
     sticks:   dense  smooth     PW     G-vecs:    dense   smooth      PW
     Min        1244     397    112               291872    52833    7934
     Max        1245     398    113               291883    52857    7939
     Sum        4979    1589    451              1167509   211387   31747



     bravais-lattice index     =            0
     lattice parameter (alat)  =      10.7336  a.u.
     unit-cell volume          =    6184.1966 (a.u.)^3
     number of atoms/cell      =           33
     number of atomic types    =            3
     number of electrons       =       245.00 (up: 134.00, down: 111.00)
     number of Kohn-Sham states=          355
     kinetic-energy cutoff     =      40.0000  Ry
     charge density cutoff     =     500.0000  Ry
     convergence threshold     =      1.0E-06
     mixing beta               =       0.7000
     number of iterations used =            8  plain     mixing
     Exchange-correlation      = SLA  PW   PBE  PBE ( 1 4 3 4 0)
     EXX-fraction              =        0.00
     nstep                     =           50


     celldm(1)=  10.733644  celldm(2)=   0.000000  celldm(3)=   0.000000
     celldm(4)=   0.000000  celldm(5)=   0.000000  celldm(6)=   0.000000

     crystal axes: (cart. coord. in units of alat)
               a(1) = (   1.000000   0.000000   0.000000 )  
               a(2) = (   0.000000   1.085558   0.000000 )  
               a(3) = (   0.000000   0.000000   4.606685 )  

     reciprocal axes: (cart. coord. in units 2 pi/alat)
               b(1) = (  1.000000  0.000000  0.000000 )  
               b(2) = (  0.000000  0.921185  0.000000 )  
               b(3) = (  0.000000  0.000000  0.217076 )  


     PseudoPot. # 1 for O  read from file:
     /home/camp/zhonxu/pseudo/o_pbe_v1.01.uspp.F.UPF
     MD5 check sum: 2bcb18d16ea4b960afae9ec6d52f22d2
     Pseudo is Ultrasoft + core correction, Zval =  6.0
     Generated by new atomic code, or converted to UPF format
     Using radial grid of  737 points,  5 beta functions with: 
                l(1) =   0
                l(2) =   0
                l(3) =   1
                l(4) =   1
                l(5) =   2
     Q(r) pseudized with  8 coefficients,  rinner =    0.900   0.900   0.900
                                                       0.900   0.900

     PseudoPot. # 2 for Mn read from file:
     /home/camp/zhonxu/pseudo/mn_pbe_v1.uspp.F.UPF
     MD5 check sum: 5fd7c7b5c956fd19902447332617373a
     Pseudo is Ultrasoft + core correction, Zval = 15.0
     Generated by new atomic code, or converted to UPF format
     Using radial grid of  859 points,  6 beta functions with: 
                l(1) =   0
                l(2) =   0
                l(3) =   1
                l(4) =   1
                l(5) =   2
                l(6) =   2
     Q(r) pseudized with  6 coefficients,  rinner =    1.150   1.150   1.150
                                                       1.150   1.150

     PseudoPot. # 3 for H  read from file:
     /home/camp/zhonxu/pseudo/h_pbe_v1.uspp.F.UPF
     MD5 check sum: 3408e3ff4ec8b0a4e358431e7e038a48
     Pseudo is Ultrasoft, Zval =  1.0
     Generated by new atomic code, or converted to UPF format
     Using radial grid of  615 points,  2 beta functions with: 
                l(1) =   0
                l(2) =   0
     Q(r) pseudized with  8 coefficients,  rinner =    0.700

     atomic species   valence    mass     pseudopotential
        O0             6.00    15.99940     O ( 1.00)
        Mn1           15.00    54.93800     Mn( 1.00)
        H2             1.00     1.00794     H ( 1.00)

     Starting magnetic structure 
     atomic species   magnetization
        O0           0.000
        Mn1          0.600
        H2           0.000


     Simplified LDA+U calculation (l_max = 2) with parameters (eV):
     atomic species    L          U    alpha       J0     beta
        Mn1            2     1.5000   0.0000   0.0000   0.0000



     No symmetry found



   Cartesian axes

     site n.     atom                  positions (alat units)
         1           O0  tau(   1) = (   0.0000000   0.0000000   1.7428932  )
         2           O0  tau(   2) = (   0.0000000   0.5427791   1.8430886  )
         3           Mn1 tau(   3) = (   0.2500000   0.5427791   2.0786745  )
         4           Mn1 tau(   4) = (   0.0000000   0.0000000   2.0724555  )
         5           O0  tau(   5) = (   0.2500000   0.8684466   2.0727779  )
         6           O0  tau(   6) = (   0.2500000   0.2171117   2.0791812  )
         7           O0  tau(   7) = (   0.0000000   0.5427791   2.2909505  )
         8           O0  tau(   8) = (   0.0000000   0.0000000   2.4190164  )
         9           Mn1 tau(   9) = (   0.2500000   0.0000000   2.6442372  )
        10           Mn1 tau(  10) = (   0.0000000   0.5427791   2.6222173  )
        11           O0  tau(  11) = (   0.2500000   0.7598908   2.6493967  )
        12           O0  tau(  12) = (   0.2500000   0.3256675   2.6616044  )
        13           O0  tau(  13) = (   0.0000000   0.0000000   2.8513077  )
        14           O0  tau(  14) = (   0.5000000   0.0000000   1.7437224  )
        15           O0  tau(  15) = (   0.5000000   0.5427791   1.8429504  )
        16           Mn1 tau(  16) = (   0.7500000   0.5427791   2.0787666  )
        17           Mn1 tau(  17) = (   0.5000000   0.0000000   2.0731465  )
        18           O0  tau(  18) = (   0.7500000   0.8684466   2.0725937  )
        19           O0  tau(  19) = (   0.7500000   0.2171117   2.0797801  )
        20           O0  tau(  20) = (   0.5000000   0.5427791   2.2991504  )
        21           O0  tau(  21) = (   0.5000000   0.0000000   2.4192467  )
        22           Mn1 tau(  22) = (   0.7500000   0.0000000   2.6453889  )
        23           Mn1 tau(  23) = (   0.5000000   0.5427791   2.6442833  )
        24           O0  tau(  24) = (   0.7500000   0.7598908   2.6560764  )
        25           O0  tau(  25) = (   0.7500000   0.3256675   2.6726605  )
        26           O0  tau(  26) = (   0.5000000   0.0000000   2.8522751  )
        27           H2  tau(  27) = (   0.0002800   0.7019437   1.7676772  )
        28           H2  tau(  28) = (   0.4999300   0.7015529   1.7671705  )
        29           H2  tau(  29) = (   0.1618700   0.0401114   1.6897781  )
        30           H2  tau(  30) = (   0.6624400   0.0389715   1.6911141  )
        31           O0  tau(  31) = (   0.4542400   0.5829122   2.9830589  )
        32           O0  tau(  32) = (   0.5921300   0.4402699   3.1301504  )
        33           H2  tau(  33) = (   0.4940300   0.4445144   3.2756295  )

     number of k points=    20  Methfessel-Paxton smearing, width (Ry)=  0.0100
                       cart. coord. in units 2pi/alat
        k(    1) = (   0.0000000   0.0000000   0.0000000), wk =   0.0625000
        k(    2) = (   0.0000000   0.2302962   0.0000000), wk =   0.1250000
        k(    3) = (   0.0000000  -0.4605925   0.0000000), wk =   0.0625000
        k(    4) = (   0.2500000   0.0000000   0.0000000), wk =   0.1250000
        k(    5) = (   0.2500000   0.2302962   0.0000000), wk =   0.1250000
        k(    6) = (   0.2500000  -0.4605925   0.0000000), wk =   0.1250000
        k(    7) = (  -0.5000000   0.0000000   0.0000000), wk =   0.0625000
        k(    8) = (  -0.5000000   0.2302962   0.0000000), wk =   0.1250000
        k(    9) = (  -0.5000000  -0.4605925   0.0000000), wk =   0.0625000
        k(   10) = (  -0.2500000   0.2302962   0.0000000), wk =   0.1250000
        k(   11) = (   0.0000000   0.0000000   0.0000000), wk =   0.0625000
        k(   12) = (   0.0000000   0.2302962   0.0000000), wk =   0.1250000
        k(   13) = (   0.0000000  -0.4605925   0.0000000), wk =   0.0625000
        k(   14) = (   0.2500000   0.0000000   0.0000000), wk =   0.1250000
        k(   15) = (   0.2500000   0.2302962   0.0000000), wk =   0.1250000
        k(   16) = (   0.2500000  -0.4605925   0.0000000), wk =   0.1250000
        k(   17) = (  -0.5000000   0.0000000   0.0000000), wk =   0.0625000
        k(   18) = (  -0.5000000   0.2302962   0.0000000), wk =   0.1250000
        k(   19) = (  -0.5000000  -0.4605925   0.0000000), wk =   0.0625000
        k(   20) = (  -0.2500000   0.2302962   0.0000000), wk =   0.1250000

     Dense  grid:  1167509 G-vectors     FFT dimensions: (  80,  90, 360)

     Smooth grid:   211387 G-vectors     FFT dimensions: (  45,  48, 200)

     Largest allocated arrays     est. size (Mb)     dimensions
        Kohn-Sham Wavefunctions        35.97 Mb     (   6641,  355)
        Atomic wavefunctions           19.15 Mb     (   6641,  189)
        NL pseudopotentials            41.95 Mb     (   6641,  414)
        Each V/rho on FFT grid         19.78 Mb     ( 648000,   2)
        Each G-vector array             2.23 Mb     ( 291883)
        G-vector shells                 0.97 Mb     ( 127585)
     Largest temporary arrays     est. size (Mb)     dimensions
        Auxiliary wavefunctions       143.89 Mb     (   6641, 1420)
        Each subspace H/S matrix       30.77 Mb     (1420,1420)
        Each <psi_i|beta_j> matrix      2.24 Mb     (    414,  355)
        Arrays for rho mixing          79.10 Mb     ( 648000,   8)

     Check: negative/imaginary core charge=   -0.000022    0.000000

     Initial potential from superposition of free atoms
     Check: negative starting charge=(component1):   -0.000637
     Check: negative starting charge=(component2):   -0.000356

     starting charge  236.99986, renormalised to  245.00000

     negative rho (up, down):  0.658E-03 0.368E-03
     Number of +U iterations with fixed ns =  0
     Starting occupations:
 --- enter write_ns ---
 LDA+U parameters:
U( 2)     =  1.50000000
alpha( 2) =  0.00000000
atom    3   Tr[ns(na)] (up, down, total) =   5.00000  0.00000  5.00000
   spin  1
    eigenvalues: 
  1.000  1.000  1.000  1.000  1.000
    eigenvectors:
  1.000  0.000  0.000  0.000  0.000
  0.000  1.000  0.000  0.000  0.000
  0.000  0.000  1.000  0.000  0.000
  0.000  0.000  0.000  1.000  0.000
  0.000  0.000  0.000  0.000  1.000
    occupations:
  1.000  0.000  0.000  0.000  0.000
  0.000  1.000  0.000  0.000  0.000
  0.000  0.000  1.000  0.000  0.000
  0.000  0.000  0.000  1.000  0.000
  0.000  0.000  0.000  0.000  1.000
   spin  2
    eigenvalues: 
  0.000  0.000  0.000  0.000  0.000
    eigenvectors:
  1.000  0.000  0.000  0.000  0.000
  0.000  1.000  0.000  0.000  0.000
  0.000  0.000  1.000  0.000  0.000
  0.000  0.000  0.000  1.000  0.000
  0.000  0.000  0.000  0.000  1.000
    occupations:
  0.000  0.000  0.000  0.000  0.000
  0.000  0.000  0.000  0.000  0.000
  0.000  0.000  0.000  0.000  0.000
  0.000  0.000  0.000  0.000  0.000
  0.000  0.000  0.000  0.000  0.000
atomic mag. moment =     5.000000
atom    4   Tr[ns(na)] (up, down, total) =   5.00000  0.00000  5.00000
   spin  1
    eigenvalues: 
  1.000  1.000  1.000  1.000  1.000
    eigenvectors:
  1.000  0.000  0.000  0.000  0.000
  0.000  1.000  0.000  0.000  0.000
  0.000  0.000  1.000  0.000  0.000
  0.000  0.000  0.000  1.000  0.000
  0.000  0.000  0.000  0.000  1.000
    occupations:
  1.000  0.000  0.000  0.000  0.000
  0.000  1.000  0.000  0.000  0.000
  0.000  0.000  1.000  0.000  0.000
  0.000  0.000  0.000  1.000  0.000
  0.000  0.000  0.000  0.000  1.000
   spin  2
    eigenvalues: 
  0.000  0.000  0.000  0.000  0.000
    eigenvectors:
  1.000  0.000  0.000  0.000  0.000
  0.000  1.000  0.000  0.000  0.000
  0.000  0.000  1.000  0.000  0.000
  0.000  0.000  0.000  1.000  0.000
  0.000  0.000  0.000  0.000  1.000
    occupations:
  0.000  0.000  0.000  0.000  0.000
  0.000  0.000  0.000  0.000  0.000
  0.000  0.000  0.000  0.000  0.000
  0.000  0.000  0.000  0.000  0.000
  0.000  0.000  0.000  0.000  0.000
atomic mag. moment =     5.000000
atom    9   Tr[ns(na)] (up, down, total) =   5.00000  0.00000  5.00000
   spin  1
    eigenvalues: 
  1.000  1.000  1.000  1.000  1.000
    eigenvectors:
  1.000  0.000  0.000  0.000  0.000
  0.000  1.000  0.000  0.000  0.000
  0.000  0.000  1.000  0.000  0.000
  0.000  0.000  0.000  1.000  0.000
  0.000  0.000  0.000  0.000  1.000
    occupations:
  1.000  0.000  0.000  0.000  0.000
  0.000  1.000  0.000  0.000  0.000
  0.000  0.000  1.000  0.000  0.000
  0.000  0.000  0.000  1.000  0.000
  0.000  0.000  0.000  0.000  1.000
   spin  2
    eigenvalues: 
  0.000  0.000  0.000  0.000  0.000
    eigenvectors:
  1.000  0.000  0.000  0.000  0.000
  0.000  1.000  0.000  0.000  0.000
  0.000  0.000  1.000  0.000  0.000
  0.000  0.000  0.000  1.000  0.000
  0.000  0.000  0.000  0.000  1.000
    occupations:
  0.000  0.000  0.000  0.000  0.000
  0.000  0.000  0.000  0.000  0.000
  0.000  0.000  0.000  0.000  0.000
  0.000  0.000  0.000  0.000  0.000
  0.000  0.000  0.000  0.000  0.000
atomic mag. moment =     5.000000
atom   10   Tr[ns(na)] (up, down, total) =   5.00000  0.00000  5.00000
   spin  1
    eigenvalues: 
  1.000  1.000  1.000  1.000  1.000
    eigenvectors:
  1.000  0.000  0.000  0.000  0.000
  0.000  1.000  0.000  0.000  0.000
  0.000  0.000  1.000  0.000  0.000
  0.000  0.000  0.000  1.000  0.000
  0.000  0.000  0.000  0.000  1.000
    occupations:
  1.000  0.000  0.000  0.000  0.000
  0.000  1.000  0.000  0.000  0.000
  0.000  0.000  1.000  0.000  0.000
  0.000  0.000  0.000  1.000  0.000
  0.000  0.000  0.000  0.000  1.000
   spin  2
    eigenvalues: 
  0.000  0.000  0.000  0.000  0.000
    eigenvectors:
  1.000  0.000  0.000  0.000  0.000
  0.000  1.000  0.000  0.000  0.000
  0.000  0.000  1.000  0.000  0.000
  0.000  0.000  0.000  1.000  0.000
  0.000  0.000  0.000  0.000  1.000
    occupations:
  0.000  0.000  0.000  0.000  0.000
  0.000  0.000  0.000  0.000  0.000
  0.000  0.000  0.000  0.000  0.000
  0.000  0.000  0.000  0.000  0.000
  0.000  0.000  0.000  0.000  0.000
atomic mag. moment =     5.000000
atom   16   Tr[ns(na)] (up, down, total) =   5.00000  0.00000  5.00000
   spin  1
    eigenvalues: 
  1.000  1.000  1.000  1.000  1.000
    eigenvectors:
  1.000  0.000  0.000  0.000  0.000
  0.000  1.000  0.000  0.000  0.000
  0.000  0.000  1.000  0.000  0.000
  0.000  0.000  0.000  1.000  0.000
  0.000  0.000  0.000  0.000  1.000
    occupations:
  1.000  0.000  0.000  0.000  0.000
  0.000  1.000  0.000  0.000  0.000
  0.000  0.000  1.000  0.000  0.000
  0.000  0.000  0.000  1.000  0.000
  0.000  0.000  0.000  0.000  1.000
   spin  2
    eigenvalues: 
  0.000  0.000  0.000  0.000  0.000
    eigenvectors:
  1.000  0.000  0.000  0.000  0.000
  0.000  1.000  0.000  0.000  0.000
  0.000  0.000  1.000  0.000  0.000
  0.000  0.000  0.000  1.000  0.000
  0.000  0.000  0.000  0.000  1.000
    occupations:
  0.000  0.000  0.000  0.000  0.000
  0.000  0.000  0.000  0.000  0.000
  0.000  0.000  0.000  0.000  0.000
  0.000  0.000  0.000  0.000  0.000
  0.000  0.000  0.000  0.000  0.000
atomic mag. moment =     5.000000
atom   17   Tr[ns(na)] (up, down, total) =   5.00000  0.00000  5.00000
   spin  1
    eigenvalues: 
  1.000  1.000  1.000  1.000  1.000
    eigenvectors:
  1.000  0.000  0.000  0.000  0.000
  0.000  1.000  0.000  0.000  0.000
  0.000  0.000  1.000  0.000  0.000
  0.000  0.000  0.000  1.000  0.000
  0.000  0.000  0.000  0.000  1.000
    occupations:
  1.000  0.000  0.000  0.000  0.000
  0.000  1.000  0.000  0.000  0.000
  0.000  0.000  1.000  0.000  0.000
  0.000  0.000  0.000  1.000  0.000
  0.000  0.000  0.000  0.000  1.000
   spin  2
    eigenvalues: 
  0.000  0.000  0.000  0.000  0.000
    eigenvectors:
  1.000  0.000  0.000  0.000  0.000
  0.000  1.000  0.000  0.000  0.000
  0.000  0.000  1.000  0.000  0.000
  0.000  0.000  0.000  1.000  0.000
  0.000  0.000  0.000  0.000  1.000
    occupations:
  0.000  0.000  0.000  0.000  0.000
  0.000  0.000  0.000  0.000  0.000
  0.000  0.000  0.000  0.000  0.000
  0.000  0.000  0.000  0.000  0.000
  0.000  0.000  0.000  0.000  0.000
atomic mag. moment =     5.000000
atom   22   Tr[ns(na)] (up, down, total) =   5.00000  0.00000  5.00000
   spin  1
    eigenvalues: 
  1.000  1.000  1.000  1.000  1.000
    eigenvectors:
  1.000  0.000  0.000  0.000  0.000
  0.000  1.000  0.000  0.000  0.000
  0.000  0.000  1.000  0.000  0.000
  0.000  0.000  0.000  1.000  0.000
  0.000  0.000  0.000  0.000  1.000
    occupations:
  1.000  0.000  0.000  0.000  0.000
  0.000  1.000  0.000  0.000  0.000
  0.000  0.000  1.000  0.000  0.000
  0.000  0.000  0.000  1.000  0.000
  0.000  0.000  0.000  0.000  1.000
   spin  2
    eigenvalues: 
  0.000  0.000  0.000  0.000  0.000
    eigenvectors:
  1.000  0.000  0.000  0.000  0.000
  0.000  1.000  0.000  0.000  0.000
  0.000  0.000  1.000  0.000  0.000
  0.000  0.000  0.000  1.000  0.000
  0.000  0.000  0.000  0.000  1.000
    occupations:
  0.000  0.000  0.000  0.000  0.000
  0.000  0.000  0.000  0.000  0.000
  0.000  0.000  0.000  0.000  0.000
  0.000  0.000  0.000  0.000  0.000
  0.000  0.000  0.000  0.000  0.000
atomic mag. moment =     5.000000
atom   23   Tr[ns(na)] (up, down, total) =   5.00000  0.00000  5.00000
   spin  1
    eigenvalues: 
  1.000  1.000  1.000  1.000  1.000
    eigenvectors:
  1.000  0.000  0.000  0.000  0.000
  0.000  1.000  0.000  0.000  0.000
  0.000  0.000  1.000  0.000  0.000
  0.000  0.000  0.000  1.000  0.000
  0.000  0.000  0.000  0.000  1.000
    occupations:
  1.000  0.000  0.000  0.000  0.000
  0.000  1.000  0.000  0.000  0.000
  0.000  0.000  1.000  0.000  0.000
  0.000  0.000  0.000  1.000  0.000
  0.000  0.000  0.000  0.000  1.000
   spin  2
    eigenvalues: 
  0.000  0.000  0.000  0.000  0.000
    eigenvectors:
  1.000  0.000  0.000  0.000  0.000
  0.000  1.000  0.000  0.000  0.000
  0.000  0.000  1.000  0.000  0.000
  0.000  0.000  0.000  1.000  0.000
  0.000  0.000  0.000  0.000  1.000
    occupations:
  0.000  0.000  0.000  0.000  0.000
  0.000  0.000  0.000  0.000  0.000
  0.000  0.000  0.000  0.000  0.000
  0.000  0.000  0.000  0.000  0.000
  0.000  0.000  0.000  0.000  0.000
atomic mag. moment =     5.000000
N of occupied +U levels =  40.0000000
 --- exit write_ns ---
 Atomic wfc used for LDA+U Projector are NOT orthogonalized
     Starting wfc are  189 randomized atomic wfcs

     total cpu time spent up to now is      153.7 secs

     per-process dynamical memory:   476.4 Mb

     Self-consistent Calculation

     iteration #  1     ecut=    40.00 Ry     beta=0.70
     Davidson diagonalization with overlap
     ethr =  1.00E-02,  avg # of iterations =  5.5
 --- enter write_ns ---
 LDA+U parameters:
U( 2)     =  1.50000000
alpha( 2) =  0.00000000
atom    3   Tr[ns(na)] (up, down, total) =   4.29310  0.61418  4.90729
   spin  1
    eigenvalues: 
  0.648  0.667  0.984  0.992  1.002
    eigenvectors:
  0.004  0.198  0.000  0.789  0.009
  0.968  0.030  0.002  0.000  0.000
  0.000  0.000  0.000  0.012  0.987
  0.026  0.771  0.000  0.198  0.004
  0.002  0.000  0.998  0.000  0.000
    occupations:
  0.927  0.003 -0.001 -0.131  0.000
  0.003  0.649  0.000 -0.005 -0.014
 -0.001  0.000  1.002 -0.004  0.000
 -0.131 -0.005 -0.004  0.733 -0.000
  0.000 -0.014  0.000 -0.000  0.983
   spin  2
    eigenvalues: 
  0.064  0.069  0.071  0.199  0.210
    eigenvectors:
  0.506  0.005  0.298  0.003  0.188
  0.000  0.001  0.000  0.989  0.010
  0.371  0.001  0.629  0.000  0.000
  0.121  0.001  0.069  0.008  0.802
  0.002  0.992  0.004  0.001  0.000
    occupations:
  0.094 -0.000 -0.003  0.056  0.000
 -0.000  0.199 -0.000  0.001  0.004
 -0.003 -0.000  0.069  0.002  0.000
  0.056  0.001  0.002  0.183 -0.000
  0.000  0.004  0.000 -0.000  0.070
atomic mag. moment =     3.678920
atom    4   Tr[ns(na)] (up, down, total) =   4.32033  0.63346  4.95379
   spin  1
    eigenvalues: 
  0.665  0.728  0.947  0.982  0.998
    eigenvectors:
  0.000  0.995  0.000  0.000  0.004
  0.000  0.003  0.074  0.005  0.917
  0.000  0.001  0.923  0.005  0.071
  0.000  0.001  0.003  0.990  0.007
  1.000  0.000  0.000  0.000  0.000
    occupations:
  0.729 -0.016 -0.007  0.007 -0.000
 -0.016  0.993  0.013 -0.001  0.005
 -0.007  0.013  0.951  0.002 -0.000
  0.007 -0.001  0.002  0.982 -0.000
 -0.000  0.005 -0.000 -0.000  0.665
   spin  2
    eigenvalues: 
  0.062  0.072  0.085  0.199  0.215
    eigenvectors:
  0.008  0.002  0.000  0.000  0.990
  0.009  0.865  0.124  0.000  0.002
  0.002  0.122  0.876  0.000  0.000
  0.981  0.012  0.000  0.000  0.007
  0.000  0.000  0.000  1.000  0.000
    occupations:
  0.214  0.007  0.003 -0.013  0.000
  0.007  0.074 -0.004  0.000 -0.002
  0.003 -0.004  0.083  0.000  0.000
 -0.013  0.000  0.000  0.064  0.000
  0.000 -0.002  0.000  0.000  0.199
atomic mag. moment =     3.686864
atom    9   Tr[ns(na)] (up, down, total) =   4.32718  0.70649  5.03367
   spin  1
    eigenvalues: 
  0.667  0.687  0.984  0.987  1.002
    eigenvectors:
  0.002  0.152  0.721  0.124  0.000
  0.987  0.013  0.000  0.000  0.000
  0.000  0.001  0.013  0.042  0.945
  0.011  0.834  0.129  0.026  0.001
  0.000  0.000  0.137  0.809  0.054
    occupations:
  0.938 -0.002 -0.002 -0.108 -0.001
 -0.002  0.667 -0.001 -0.002  0.002
 -0.002 -0.001  1.001 -0.008  0.003
 -0.108 -0.002 -0.008  0.733  0.001
 -0.001  0.002  0.003  0.001  0.988
   spin  2
    eigenvalues: 
  0.081  0.088  0.091  0.220  0.226
    eigenvectors:
  0.001  0.860  0.000  0.137  0.001
  0.000  0.000  0.000  0.008  0.992
  0.996  0.001  0.003  0.000  0.000
  0.000  0.139  0.000  0.854  0.007
  0.003  0.000  0.997  0.000  0.000
    occupations:
  0.106 -0.000  0.001  0.046  0.000
 -0.000  0.226  0.000 -0.001  0.000
  0.001  0.000  0.081  0.002 -0.001
  0.046 -0.001  0.002  0.202  0.000
  0.000  0.000 -0.001  0.000  0.091
atomic mag. moment =     3.620692
atom   10   Tr[ns(na)] (up, down, total) =   4.81804  0.52761  5.34565
   spin  1
    eigenvalues: 
  0.844  0.978  0.995  0.998  1.003
    eigenvectors:
  0.000  0.826  0.174  0.000  0.000
  0.001  0.001  0.002  0.995  0.001
  0.000  0.000  0.002  0.000  0.997
  0.000  0.173  0.822  0.003  0.002
  0.998  0.000  0.000  0.001  0.000
    occupations:
  0.981  0.000  0.000  0.006 -0.001
  0.000  0.998 -0.000 -0.000 -0.006
  0.000 -0.000  1.003 -0.000 -0.003
  0.006 -0.000 -0.000  0.992  0.000
 -0.001 -0.006 -0.003  0.000  0.844
   spin  2
    eigenvalues: 
  0.059  0.066  0.068  0.133  0.201
    eigenvectors:
  0.006  0.016  0.001  0.977  0.000
  0.015  0.003  0.981  0.000  0.001
  0.870  0.120  0.009  0.001  0.000
  0.110  0.861  0.008  0.022  0.000
  0.000  0.000  0.001  0.000  0.999
    occupations:
  0.132 -0.001 -0.002 -0.010  0.000
 -0.001  0.068  0.001  0.001  0.004
 -0.002  0.001  0.060 -0.002  0.002
 -0.010  0.001 -0.002  0.067  0.000
  0.000  0.004  0.002  0.000  0.201
atomic mag. moment =     4.290424
atom   16   Tr[ns(na)] (up, down, total) =   4.29114  0.61450  4.90564
   spin  1
    eigenvalues: 
  0.647  0.667  0.984  0.992  1.002
    eigenvectors:
  0.001  0.202  0.000  0.788  0.009
  0.988  0.010  0.002  0.000  0.000
  0.000  0.000  0.000  0.013  0.987
  0.009  0.788  0.000  0.199  0.004
  0.002  0.000  0.998  0.000  0.000
    occupations:
  0.926 -0.004 -0.001 -0.131 -0.000
 -0.004  0.648 -0.000  0.004 -0.014
 -0.001 -0.000  1.002 -0.004  0.000
 -0.131  0.004 -0.004  0.732 -0.000
 -0.000 -0.014  0.000 -0.000  0.983
   spin  2
    eigenvalues: 
  0.064  0.069  0.072  0.199  0.210
    eigenvectors:
  0.506  0.010  0.293  0.003  0.188
  0.000  0.001  0.000  0.987  0.012
  0.370  0.003  0.627  0.000  0.000
  0.121  0.002  0.068  0.009  0.800
  0.003  0.984  0.012  0.001  0.000
    occupations:
  0.094  0.000 -0.003  0.056 -0.000
  0.000  0.199  0.000 -0.002  0.004
 -0.003  0.000  0.069  0.002 -0.000
  0.056 -0.002  0.002  0.183 -0.000
 -0.000  0.004 -0.000 -0.000  0.070
atomic mag. moment =     3.676632
atom   17   Tr[ns(na)] (up, down, total) =   4.31895  0.63389  4.95284
   spin  1
    eigenvalues: 
  0.665  0.727  0.947  0.982  0.997
    eigenvectors:
  0.000  0.995  0.000  0.000  0.004
  0.000  0.003  0.070  0.004  0.922
  0.000  0.001  0.927  0.005  0.067
  0.000  0.001  0.002  0.990  0.007
  1.000  0.000  0.000  0.000  0.000
    occupations:
  0.728 -0.016 -0.007  0.007 -0.000
 -0.016  0.993  0.012 -0.001  0.005
 -0.007  0.012  0.950  0.002  0.000
  0.007 -0.001  0.002  0.982 -0.000
 -0.000  0.005  0.000 -0.000  0.665
   spin  2
    eigenvalues: 
  0.062  0.072  0.085  0.199  0.216
    eigenvectors:
  0.008  0.002  0.000  0.000  0.991
  0.009  0.871  0.118  0.000  0.002
  0.002  0.116  0.882  0.000  0.000
  0.982  0.011  0.000  0.000  0.007
  0.000  0.000  0.000  1.000  0.000
    occupations:
  0.214  0.007  0.003 -0.013  0.000
  0.007  0.074 -0.004  0.000 -0.002
  0.003 -0.004  0.083  0.000  0.000
 -0.013  0.000  0.000  0.064  0.000
  0.000 -0.002  0.000  0.000  0.199
atomic mag. moment =     3.685057
atom   22   Tr[ns(na)] (up, down, total) =   4.32338  0.70597  5.02935
   spin  1
    eigenvalues: 
  0.665  0.685  0.984  0.989  1.001
    eigenvectors:
  0.008  0.143  0.775  0.074  0.000
  0.953  0.047  0.000  0.000  0.000
  0.000  0.001  0.008  0.038  0.954
  0.039  0.809  0.135  0.015  0.001
  0.000  0.000  0.083  0.872  0.045
    occupations:
  0.939  0.003 -0.003 -0.107  0.001
  0.003  0.666  0.001  0.003  0.002
 -0.003  0.001  1.000 -0.009 -0.003
 -0.107  0.003 -0.009  0.729 -0.001
  0.001  0.002 -0.003 -0.001  0.989
   spin  2
    eigenvalues: 
  0.080  0.088  0.092  0.220  0.226
    eigenvectors:
  0.000  0.864  0.000  0.135  0.001
  0.000  0.000  0.000  0.006  0.994
  0.972  0.000  0.028  0.001  0.000
  0.001  0.136  0.000  0.858  0.005
  0.027  0.000  0.972  0.000  0.000
    occupations:
  0.106  0.000  0.001  0.045 -0.000
  0.000  0.226 -0.000  0.000 -0.000
  0.001 -0.000  0.080  0.004  0.002
  0.045  0.000  0.004  0.202 -0.000
 -0.000 -0.000  0.002 -0.000  0.092
atomic mag. moment =     3.617408
atom   23   Tr[ns(na)] (up, down, total) =   4.53540  0.67605  5.21145
   spin  1
    eigenvalues: 
  0.728  0.823  0.989  0.993  1.001
    eigenvectors:
  0.000  0.973  0.000  0.024  0.003
  0.001  0.024  0.140  0.727  0.108
  0.000  0.000  0.056  0.067  0.876
  0.000  0.003  0.804  0.181  0.012
  0.998  0.000  0.000  0.001  0.001
    occupations:
  0.828 -0.026  0.003  0.009  0.001
 -0.026  0.989 -0.002  0.000 -0.009
  0.003 -0.002  1.000 -0.002  0.006
  0.009  0.000 -0.002  0.990 -0.000
  0.001 -0.009  0.006 -0.000  0.728
   spin  2
    eigenvalues: 
  0.062  0.063  0.128  0.200  0.223
    eigenvectors:
  0.001  0.014  0.005  0.000  0.980
  0.008  0.421  0.554  0.001  0.017
  0.283  0.365  0.351  0.000  0.000
  0.709  0.198  0.090  0.000  0.003
  0.000  0.001  0.000  0.999  0.000
    occupations:
  0.220  0.017 -0.005 -0.010 -0.000
  0.017  0.102  0.028  0.013  0.003
 -0.005  0.028  0.086  0.012 -0.002
 -0.010  0.013  0.012  0.069 -0.000
 -0.000  0.003 -0.002 -0.000  0.200
atomic mag. moment =     3.859346
N of occupied +U levels =  40.3396749
 --- exit write_ns ---

     negative rho (up, down):  0.107E-02 0.968E-03

     total cpu time spent up to now is      663.6 secs

     total energy              =   -2344.29527428 Ry
     Harris-Foulkes estimate   =   -2351.44922018 Ry
     estimated scf accuracy    <      18.24724315 Ry

     total magnetization       =    23.00 Bohr mag/cell
     absolute magnetization    =    38.60 Bohr mag/cell

     iteration #  2     ecut=    40.00 Ry     beta=0.70
     Davidson diagonalization with overlap
     ethr =  7.45E-03,  avg # of iterations =  5.1

     negative rho (up, down):  0.196E-03 0.406E-03

     total cpu time spent up to now is     1076.2 secs

     total energy              =   -2255.69390140 Ry
     Harris-Foulkes estimate   =   -2415.24311490 Ry
     estimated scf accuracy    <    2488.63784769 Ry

     total magnetization       =    23.00 Bohr mag/cell
     absolute magnetization    =    23.72 Bohr mag/cell

     iteration #  3     ecut=    40.00 Ry     beta=0.70
     Davidson diagonalization with overlap
     ethr =  7.45E-03,  avg # of iterations =  4.0

     negative rho (up, down):  0.233E-06 0.108E-03

     total cpu time spent up to now is     1497.7 secs

     total energy              =   -2327.07585285 Ry
     Harris-Foulkes estimate   =   -2370.06641814 Ry
     estimated scf accuracy    <     371.14260994 Ry

     total magnetization       =    23.00 Bohr mag/cell
     absolute magnetization    =    24.56 Bohr mag/cell

     iteration #  4     ecut=    40.00 Ry     beta=0.70
     Davidson diagonalization with overlap
     ethr =  7.45E-03,  avg # of iterations =  3.8

     negative rho (up, down):  0.702E-07 0.524E-03

     total cpu time spent up to now is     1847.3 secs

     total energy              =   -2341.38258087 Ry
     Harris-Foulkes estimate   =   -2363.56089418 Ry
     estimated scf accuracy    <     336.13652914 Ry

     total magnetization       =    23.00 Bohr mag/cell
     absolute magnetization    =    23.53 Bohr mag/cell

     iteration #  5     ecut=    40.00 Ry     beta=0.70
     Davidson diagonalization with overlap
     ethr =  7.45E-03,  avg # of iterations =  3.0

     negative rho (up, down):  0.635E-06 0.648E-04

     total cpu time spent up to now is     2147.0 secs

     total energy              =   -2352.41625764 Ry
     Harris-Foulkes estimate   =   -2355.74249363 Ry
     estimated scf accuracy    <      13.40329998 Ry

     total magnetization       =    23.00 Bohr mag/cell
     absolute magnetization    =    26.55 Bohr mag/cell

     iteration #  6     ecut=    40.00 Ry     beta=0.70
     Davidson diagonalization with overlap
     ethr =  5.47E-03,  avg # of iterations =  3.0

     negative rho (up, down):  0.000E+00 0.524E-04

     total cpu time spent up to now is     2443.9 secs

     total energy              =   -2352.20719251 Ry
     Harris-Foulkes estimate   =   -2354.71614060 Ry
     estimated scf accuracy    <      13.47665032 Ry

     total magnetization       =    23.00 Bohr mag/cell
     absolute magnetization    =    29.02 Bohr mag/cell

     iteration #  7     ecut=    40.00 Ry     beta=0.70
     Davidson diagonalization with overlap
     ethr =  5.47E-03,  avg # of iterations =  3.0

     negative rho (up, down):  0.170E-09 0.392E-04

     total cpu time spent up to now is     2737.4 secs

     total energy              =   -2352.42130728 Ry
     Harris-Foulkes estimate   =   -2355.25396363 Ry
     estimated scf accuracy    <      18.90090639 Ry

     total magnetization       =    23.00 Bohr mag/cell
     absolute magnetization    =    27.33 Bohr mag/cell

     iteration #  8     ecut=    40.00 Ry     beta=0.70
     Davidson diagonalization with overlap
     ethr =  5.47E-03,  avg # of iterations =  1.0

     negative rho (up, down):  0.000E+00 0.669E-04

     total cpu time spent up to now is     3005.4 secs

     total energy              =   -2353.58151521 Ry
     Harris-Foulkes estimate   =   -2354.23597029 Ry
     estimated scf accuracy    <       4.21519605 Ry

     total magnetization       =    23.00 Bohr mag/cell
     absolute magnetization    =    25.70 Bohr mag/cell

     iteration #  9     ecut=    40.00 Ry     beta=0.70
     Davidson diagonalization with overlap
     ethr =  1.72E-03,  avg # of iterations =  1.0

     negative rho (up, down):  0.138E-07 0.720E-04

     total cpu time spent up to now is     3265.6 secs

     total energy              =   -2353.73124918 Ry
     Harris-Foulkes estimate   =   -2354.07802997 Ry
     estimated scf accuracy    <       2.69694135 Ry

     total magnetization       =    23.00 Bohr mag/cell
     absolute magnetization    =    25.34 Bohr mag/cell

     iteration # 10     ecut=    40.00 Ry     beta=0.70
     Davidson diagonalization with overlap
     ethr =  1.10E-03,  avg # of iterations =  1.0

     negative rho (up, down):  0.856E-07 0.611E-04

     total cpu time spent up to now is     3534.2 secs

     total energy              =   -2353.75243095 Ry
     Harris-Foulkes estimate   =   -2353.86263962 Ry
     estimated scf accuracy    <       0.83775041 Ry

     total magnetization       =    23.00 Bohr mag/cell
     absolute magnetization    =    25.73 Bohr mag/cell

     iteration # 11     ecut=    40.00 Ry     beta=0.70
     Davidson diagonalization with overlap
     ethr =  3.42E-04,  avg # of iterations =  5.5

     negative rho (up, down):  0.175E-03 0.214E-03

     total cpu time spent up to now is     3841.3 secs

     total energy              =   -2353.56963402 Ry
     Harris-Foulkes estimate   =   -2353.81569401 Ry
     estimated scf accuracy    <       0.61134805 Ry

     total magnetization       =    23.00 Bohr mag/cell
     absolute magnetization    =    25.63 Bohr mag/cell

     iteration # 12     ecut=    40.00 Ry     beta=0.70
     Davidson diagonalization with overlap
     ethr =  2.50E-04,  avg # of iterations =  6.8

     negative rho (up, down):  0.633E-04 0.139E-03

     total cpu time spent up to now is     4214.2 secs

     total energy              =   -2353.54413974 Ry
     Harris-Foulkes estimate   =   -2353.73235686 Ry
     estimated scf accuracy    <       0.77365342 Ry

     total magnetization       =    23.00 Bohr mag/cell
     absolute magnetization    =    26.93 Bohr mag/cell

     iteration # 13     ecut=    40.00 Ry     beta=0.70
     Davidson diagonalization with overlap
     ethr =  2.50E-04,  avg # of iterations =  3.0

     negative rho (up, down):  0.144E-03 0.197E-03

     total cpu time spent up to now is     4498.8 secs

     total energy              =   -2353.56690678 Ry
     Harris-Foulkes estimate   =   -2353.73018245 Ry
     estimated scf accuracy    <       0.69035717 Ry

     total magnetization       =    23.00 Bohr mag/cell
     absolute magnetization    =    26.36 Bohr mag/cell

     iteration # 14     ecut=    40.00 Ry     beta=0.70
     Davidson diagonalization with overlap
     ethr =  2.50E-04,  avg # of iterations =  3.3

     negative rho (up, down):  0.268E-03 0.287E-03

     total cpu time spent up to now is     4781.6 secs

     total energy              =   -2353.61123109 Ry
     Harris-Foulkes estimate   =   -2353.70035632 Ry
     estimated scf accuracy    <       0.56085400 Ry

     total magnetization       =    23.00 Bohr mag/cell
     absolute magnetization    =    25.95 Bohr mag/cell

     iteration # 15     ecut=    40.00 Ry     beta=0.70
     Davidson diagonalization with overlap
     ethr =  2.29E-04,  avg # of iterations =  2.5

     negative rho (up, down):  0.284E-03 0.314E-03

     total cpu time spent up to now is     5056.0 secs

     total energy              =   -2353.64406381 Ry
     Harris-Foulkes estimate   =   -2353.68315468 Ry
     estimated scf accuracy    <       0.32915831 Ry

     total magnetization       =    23.00 Bohr mag/cell
     absolute magnetization    =    27.01 Bohr mag/cell

     iteration # 16     ecut=    40.00 Ry     beta=0.70
     Davidson diagonalization with overlap
     ethr =  1.34E-04,  avg # of iterations =  1.9

     negative rho (up, down):  0.652E-03 0.474E-03

     total cpu time spent up to now is     5327.8 secs

     total energy              =   -2353.64898080 Ry
     Harris-Foulkes estimate   =   -2353.66954920 Ry
     estimated scf accuracy    <       0.11291378 Ry

     total magnetization       =    23.00 Bohr mag/cell
     absolute magnetization    =    26.48 Bohr mag/cell

     iteration # 17     ecut=    40.00 Ry     beta=0.70
     Davidson diagonalization with overlap
     ethr =  4.61E-05,  avg # of iterations =  4.5

     negative rho (up, down):  0.158E-02 0.833E-03

     total cpu time spent up to now is     5612.2 secs

     total energy              =   -2353.65825103 Ry
     Harris-Foulkes estimate   =   -2353.67360036 Ry
     estimated scf accuracy    <       0.16384904 Ry

     total magnetization       =    23.00 Bohr mag/cell
     absolute magnetization    =    26.89 Bohr mag/cell

     iteration # 18     ecut=    40.00 Ry     beta=0.70
     Davidson diagonalization with overlap
     ethr =  4.61E-05,  avg # of iterations =  3.1

     negative rho (up, down):  0.190E-02 0.106E-02

     total cpu time spent up to now is     5898.3 secs

     total energy              =   -2353.66229065 Ry
     Harris-Foulkes estimate   =   -2353.66564738 Ry
     estimated scf accuracy    <       0.05551335 Ry

     total magnetization       =    23.00 Bohr mag/cell
     absolute magnetization    =    26.74 Bohr mag/cell

     iteration # 19     ecut=    40.00 Ry     beta=0.70
     Davidson diagonalization with overlap
     ethr =  2.27E-05,  avg # of iterations =  1.2

     negative rho (up, down):  0.121E-02 0.775E-03

     total cpu time spent up to now is     6169.6 secs

     total energy              =   -2353.66200474 Ry
     Harris-Foulkes estimate   =   -2353.66441964 Ry
     estimated scf accuracy    <       0.02257366 Ry

     total magnetization       =    23.00 Bohr mag/cell
     absolute magnetization    =    26.73 Bohr mag/cell

     iteration # 20     ecut=    40.00 Ry     beta=0.70
     Davidson diagonalization with overlap
     ethr =  9.21E-06,  avg # of iterations =  1.6

     negative rho (up, down):  0.163E-02 0.973E-03

     total cpu time spent up to now is     6435.3 secs

     total energy              =   -2353.66146334 Ry
     Harris-Foulkes estimate   =   -2353.66586444 Ry
     estimated scf accuracy    <       0.02911593 Ry

     total magnetization       =    23.00 Bohr mag/cell
     absolute magnetization    =    26.60 Bohr mag/cell

     iteration # 21     ecut=    40.00 Ry     beta=0.70
     Davidson diagonalization with overlap
     ethr =  9.21E-06,  avg # of iterations =  1.0

     negative rho (up, down):  0.183E-02 0.114E-02

     total cpu time spent up to now is     6703.0 secs

     total energy              =   -2353.66337370 Ry
     Harris-Foulkes estimate   =   -2353.66388619 Ry
     estimated scf accuracy    <       0.00620000 Ry

     total magnetization       =    23.00 Bohr mag/cell
     absolute magnetization    =    26.65 Bohr mag/cell

     iteration # 22     ecut=    40.00 Ry     beta=0.70
     Davidson diagonalization with overlap
     ethr =  2.53E-06,  avg # of iterations =  6.3

     negative rho (up, down):  0.234E-02 0.142E-02

     total cpu time spent up to now is     7007.5 secs

     total energy              =   -2353.66341319 Ry
     Harris-Foulkes estimate   =   -2353.66394381 Ry
     estimated scf accuracy    <       0.00270374 Ry

     total magnetization       =    23.00 Bohr mag/cell
     absolute magnetization    =    26.61 Bohr mag/cell

     iteration # 23     ecut=    40.00 Ry     beta=0.70
     Davidson diagonalization with overlap
     ethr =  1.10E-06,  avg # of iterations =  2.9

     negative rho (up, down):  0.213E-02 0.130E-02

     total cpu time spent up to now is     7287.2 secs

     total energy              =   -2353.66360473 Ry
     Harris-Foulkes estimate   =   -2353.66394183 Ry
     estimated scf accuracy    <       0.00156873 Ry

     total magnetization       =    23.00 Bohr mag/cell
     absolute magnetization    =    26.58 Bohr mag/cell

     iteration # 24     ecut=    40.00 Ry     beta=0.70
     Davidson diagonalization with overlap
     ethr =  6.40E-07,  avg # of iterations =  1.0

     negative rho (up, down):  0.219E-02 0.134E-02

     total cpu time spent up to now is     7556.7 secs

     total energy              =   -2353.66372703 Ry
     Harris-Foulkes estimate   =   -2353.66382764 Ry
     estimated scf accuracy    <       0.00064971 Ry

     total magnetization       =    23.00 Bohr mag/cell
     absolute magnetization    =    26.60 Bohr mag/cell

     iteration # 25     ecut=    40.00 Ry     beta=0.70
     Davidson diagonalization with overlap
     ethr =  2.65E-07,  avg # of iterations =  1.0

     negative rho (up, down):  0.210E-02 0.129E-02

     total cpu time spent up to now is     7820.7 secs

     total energy              =   -2353.66371209 Ry
     Harris-Foulkes estimate   =   -2353.66387181 Ry
     estimated scf accuracy    <       0.00142951 Ry

     total magnetization       =    23.00 Bohr mag/cell
     absolute magnetization    =    26.53 Bohr mag/cell

     iteration # 26     ecut=    40.00 Ry     beta=0.70
     Davidson diagonalization with overlap
     ethr =  2.65E-07,  avg # of iterations =  1.0

     negative rho (up, down):  0.211E-02 0.129E-02

     total cpu time spent up to now is     8095.6 secs

     total energy              =   -2353.66378347 Ry
     Harris-Foulkes estimate   =   -2353.66380908 Ry
     estimated scf accuracy    <       0.00011984 Ry

     total magnetization       =    23.00 Bohr mag/cell
     absolute magnetization    =    26.58 Bohr mag/cell

     iteration # 27     ecut=    40.00 Ry     beta=0.70
     Davidson diagonalization with overlap
     ethr =  4.89E-08,  avg # of iterations =  1.0

     negative rho (up, down):  0.211E-02 0.130E-02

     total cpu time spent up to now is     8363.9 secs

     total energy              =   -2353.66379433 Ry
     Harris-Foulkes estimate   =   -2353.66380950 Ry
     estimated scf accuracy    <       0.00011669 Ry

     total magnetization       =    23.00 Bohr mag/cell
     absolute magnetization    =    26.59 Bohr mag/cell

     iteration # 28     ecut=    40.00 Ry     beta=0.70
     Davidson diagonalization with overlap
     ethr =  4.76E-08,  avg # of iterations =  1.0

     negative rho (up, down):  0.212E-02 0.130E-02

     total cpu time spent up to now is     8629.7 secs

     total energy              =   -2353.66380138 Ry
     Harris-Foulkes estimate   =   -2353.66380814 Ry
     estimated scf accuracy    <       0.00003783 Ry

     total magnetization       =    23.00 Bohr mag/cell
     absolute magnetization    =    26.58 Bohr mag/cell

     iteration # 29     ecut=    40.00 Ry     beta=0.70
     Davidson diagonalization with overlap
     ethr =  1.54E-08,  avg # of iterations =  1.0

     negative rho (up, down):  0.212E-02 0.130E-02

     total cpu time spent up to now is     8892.8 secs

     total energy              =   -2353.66380149 Ry
     Harris-Foulkes estimate   =   -2353.66381356 Ry
     estimated scf accuracy    <       0.00008844 Ry

     total magnetization       =    23.00 Bohr mag/cell
     absolute magnetization    =    26.57 Bohr mag/cell

     iteration # 30     ecut=    40.00 Ry     beta=0.70
     Davidson diagonalization with overlap
     ethr =  1.54E-08,  avg # of iterations =  1.0

     negative rho (up, down):  0.211E-02 0.130E-02

     total cpu time spent up to now is     9159.2 secs

     total energy              =   -2353.66380730 Ry
     Harris-Foulkes estimate   =   -2353.66381035 Ry
     estimated scf accuracy    <       0.00002340 Ry

     total magnetization       =    23.00 Bohr mag/cell
     absolute magnetization    =    26.58 Bohr mag/cell

     iteration # 31     ecut=    40.00 Ry     beta=0.70
     Davidson diagonalization with overlap
     ethr =  9.55E-09,  avg # of iterations =  1.0

     negative rho (up, down):  0.211E-02 0.130E-02

     total cpu time spent up to now is     9425.5 secs

     total energy              =   -2353.66380786 Ry
     Harris-Foulkes estimate   =   -2353.66381253 Ry
     estimated scf accuracy    <       0.00003564 Ry

     total magnetization       =    23.00 Bohr mag/cell
     absolute magnetization    =    26.58 Bohr mag/cell

     iteration # 32     ecut=    40.00 Ry     beta=0.70
     Davidson diagonalization with overlap
     ethr =  9.55E-09,  avg # of iterations =  1.0

     negative rho (up, down):  0.211E-02 0.130E-02

     total cpu time spent up to now is     9692.1 secs

     total energy              =   -2353.66380945 Ry
     Harris-Foulkes estimate   =   -2353.66381201 Ry
     estimated scf accuracy    <       0.00001361 Ry

     total magnetization       =    23.00 Bohr mag/cell
     absolute magnetization    =    26.58 Bohr mag/cell

     iteration # 33     ecut=    40.00 Ry     beta=0.70
     Davidson diagonalization with overlap
     ethr =  5.55E-09,  avg # of iterations =  1.0

     negative rho (up, down):  0.211E-02 0.130E-02

     total cpu time spent up to now is     9960.8 secs

     total energy              =   -2353.66380948 Ry
     Harris-Foulkes estimate   =   -2353.66381165 Ry
     estimated scf accuracy    <       0.00000627 Ry

     total magnetization       =    23.00 Bohr mag/cell
     absolute magnetization    =    26.58 Bohr mag/cell

     iteration # 34     ecut=    40.00 Ry     beta=0.70
     Davidson diagonalization with overlap
     ethr =  2.56E-09,  avg # of iterations =  2.0

     negative rho (up, down):  0.211E-02 0.130E-02

     total cpu time spent up to now is    10246.2 secs

     total energy              =   -2353.66380722 Ry
     Harris-Foulkes estimate   =   -2353.66381493 Ry
     estimated scf accuracy    <       0.00004265 Ry

     total magnetization       =    23.00 Bohr mag/cell
     absolute magnetization    =    26.58 Bohr mag/cell

     iteration # 35     ecut=    40.00 Ry     beta=0.70
     Davidson diagonalization with overlap
     ethr =  2.56E-09,  avg # of iterations =  1.9

     negative rho (up, down):  0.211E-02 0.130E-02

     total cpu time spent up to now is    10529.3 secs

     total energy              =   -2353.66381059 Ry
     Harris-Foulkes estimate   =   -2353.66381213 Ry
     estimated scf accuracy    <       0.00001899 Ry

     total magnetization       =    23.00 Bohr mag/cell
     absolute magnetization    =    26.58 Bohr mag/cell

     iteration # 36     ecut=    40.00 Ry     beta=0.70
     Davidson diagonalization with overlap
     ethr =  2.56E-09,  avg # of iterations =  1.0

     negative rho (up, down):  0.212E-02 0.130E-02

     total cpu time spent up to now is    10800.5 secs

     total energy              =   -2353.66381121 Ry
     Harris-Foulkes estimate   =   -2353.66381172 Ry
     estimated scf accuracy    <       0.00000435 Ry

     total magnetization       =    23.00 Bohr mag/cell
     absolute magnetization    =    26.58 Bohr mag/cell

     iteration # 37     ecut=    40.00 Ry     beta=0.70
     Davidson diagonalization with overlap
     ethr =  1.78E-09,  avg # of iterations =  1.0

     negative rho (up, down):  0.212E-02 0.130E-02

     total cpu time spent up to now is    11067.0 secs

     total energy              =   -2353.66381103 Ry
     Harris-Foulkes estimate   =   -2353.66381188 Ry
     estimated scf accuracy    <       0.00000665 Ry

     total magnetization       =    23.00 Bohr mag/cell
     absolute magnetization    =    26.58 Bohr mag/cell

     iteration # 38     ecut=    40.00 Ry     beta=0.70
     Davidson diagonalization with overlap
     ethr =  1.78E-09,  avg # of iterations =  1.0

     negative rho (up, down):  0.212E-02 0.130E-02

     total cpu time spent up to now is    11332.9 secs

     total energy              =   -2353.66381132 Ry
     Harris-Foulkes estimate   =   -2353.66381160 Ry
     estimated scf accuracy    <       0.00000116 Ry

     total magnetization       =    23.00 Bohr mag/cell
     absolute magnetization    =    26.58 Bohr mag/cell

     iteration # 39     ecut=    40.00 Ry     beta=0.70
     Davidson diagonalization with overlap
     ethr =  4.75E-10,  avg # of iterations =  1.0

     negative rho (up, down):  0.212E-02 0.130E-02

     total cpu time spent up to now is    11594.9 secs

     total energy              =   -2353.66381112 Ry
     Harris-Foulkes estimate   =   -2353.66381192 Ry
     estimated scf accuracy    <       0.00000563 Ry

     total magnetization       =    23.00 Bohr mag/cell
     absolute magnetization    =    26.58 Bohr mag/cell

     iteration # 40     ecut=    40.00 Ry     beta=0.70
     Davidson diagonalization with overlap
     ethr =  4.75E-10,  avg # of iterations =  1.0

     negative rho (up, down):  0.212E-02 0.130E-02

     total cpu time spent up to now is    11872.1 secs

     End of self-consistent calculation
 --- enter write_ns ---
 LDA+U parameters:
U( 2)     =  1.50000000
alpha( 2) =  0.00000000
atom    3   Tr[ns(na)] (up, down, total) =   4.19051  1.30346  5.49397
   spin  1
    eigenvalues: 
  0.588  0.610  0.993  0.994  1.005
    eigenvectors:
  0.132  0.119  0.689  0.052  0.007
  0.507  0.492  0.001  0.000  0.000
  0.000  0.000  0.008  0.000  0.991
  0.360  0.389  0.233  0.017  0.001
  0.000  0.000  0.069  0.930  0.000
    occupations:
  0.894  0.012 -0.004 -0.171  0.001
  0.012  0.599  0.001  0.006 -0.011
 -0.004  0.001  1.005 -0.005  0.000
 -0.171  0.006 -0.005  0.698  0.001
  0.001 -0.011  0.000  0.001  0.994
   spin  2
    eigenvalues: 
  0.127  0.172  0.213  0.393  0.398
    eigenvectors:
  0.775  0.000  0.002  0.026  0.197
  0.000  0.003  0.000  0.873  0.124
  0.001  0.001  0.997  0.000  0.000
  0.224  0.000  0.000  0.098  0.678
  0.000  0.996  0.001  0.003  0.000
    occupations:
  0.188 -0.002 -0.001  0.112 -0.000
 -0.002  0.393  0.000 -0.001  0.012
 -0.001  0.000  0.213  0.005 -0.002
  0.112 -0.001  0.005  0.337 -0.000
 -0.000  0.012 -0.002 -0.000  0.172
atomic mag. moment =     2.887048
atom    4   Tr[ns(na)] (up, down, total) =   4.17188  1.32139  5.49328
   spin  1
    eigenvalues: 
  0.565  0.612  0.990  1.002  1.003
    eigenvectors:
  0.000  0.999  0.000  0.000  0.001
  0.000  0.001  0.000  0.057  0.942
  0.000  0.000  0.000  0.942  0.057
  0.000  0.000  0.999  0.000  0.000
  1.000  0.000  0.000  0.000  0.000
    occupations:
  0.613 -0.012 -0.004  0.005 -0.000
 -0.012  1.002  0.000 -0.000  0.000
 -0.004  0.000  1.002  0.000  0.001
  0.005 -0.000  0.000  0.990  0.000
 -0.000  0.000  0.001  0.000  0.565
   spin  2
    eigenvalues: 
  0.124  0.174  0.213  0.402  0.409
    eigenvectors:
  0.002  0.005  0.000  0.001  0.993
  0.001  0.944  0.051  0.000  0.004
  0.000  0.051  0.949  0.000  0.001
  0.998  0.001  0.000  0.000  0.002
  0.000  0.000  0.000  0.999  0.001
    occupations:
  0.408  0.015  0.005 -0.011 -0.000
  0.015  0.177 -0.008  0.000 -0.002
  0.005 -0.008  0.211  0.001 -0.000
 -0.011  0.000  0.001  0.124 -0.000
 -0.000 -0.002 -0.000 -0.000  0.402
atomic mag. moment =     2.850492
atom    9   Tr[ns(na)] (up, down, total) =   4.10457  1.44701  5.55158
   spin  1
    eigenvalues: 
  0.605  0.614  0.927  0.966  0.992
    eigenvectors:
  0.210  0.001  0.000  0.002  0.787
  0.004  0.996  0.000  0.000  0.000
  0.000  0.000  0.004  0.991  0.004
  0.786  0.003  0.000  0.002  0.209
  0.000  0.000  0.995  0.004  0.001
    occupations:
  0.911  0.002 -0.005 -0.158  0.002
  0.002  0.614  0.002 -0.000 -0.002
 -0.005  0.002  0.966 -0.006  0.003
 -0.158 -0.000 -0.006  0.687 -0.000
  0.002 -0.002  0.003 -0.000  0.927
   spin  2
    eigenvalues: 
  0.176  0.202  0.212  0.411  0.445
    eigenvectors:
  0.825  0.000  0.000  0.175  0.000
  0.000  0.000  0.000  0.001  0.999
  0.000  0.933  0.067  0.000  0.000
  0.175  0.000  0.000  0.825  0.001
  0.000  0.067  0.933  0.000  0.000
    occupations:
  0.217 -0.001  0.001  0.089  0.000
 -0.001  0.445 -0.000  0.002  0.001
  0.001 -0.000  0.203  0.003  0.002
  0.089  0.002  0.003  0.370 -0.000
  0.000  0.001  0.002 -0.000  0.211
atomic mag. moment =     2.657566
atom   10   Tr[ns(na)] (up, down, total) =   4.36538  1.06607  5.43144
   spin  1
    eigenvalues: 
  0.582  0.798  0.991  0.992  1.002
    eigenvectors:
  0.000  0.997  0.001  0.002  0.001
  0.000  0.000  0.787  0.212  0.000
  0.000  0.001  0.000  0.001  0.998
  0.000  0.002  0.212  0.785  0.001
  1.000  0.000  0.000  0.000  0.000
    occupations:
  0.798  0.000  0.005  0.010 -0.001
  0.000  0.991 -0.000 -0.001 -0.007
  0.005 -0.000  1.002  0.000 -0.004
  0.010 -0.001  0.000  0.991  0.000
 -0.001 -0.007 -0.004  0.000  0.583
   spin  2
    eigenvalues: 
  0.116  0.156  0.160  0.249  0.386
    eigenvectors:
  0.010  0.000  0.000  0.990  0.000
  0.000  0.226  0.774  0.000  0.000
  0.002  0.772  0.225  0.000  0.000
  0.988  0.002  0.000  0.010  0.000
  0.000  0.000  0.000  0.000  0.999
    occupations:
  0.247 -0.000 -0.002 -0.013  0.001
 -0.000  0.159 -0.002 -0.000  0.005
 -0.002 -0.002  0.157 -0.002  0.003
 -0.013 -0.000 -0.002  0.117  0.000
  0.001  0.005  0.003  0.000  0.386
atomic mag. moment =     3.299310
atom   16   Tr[ns(na)] (up, down, total) =   4.19292  1.30152  5.49444
   spin  1
    eigenvalues: 
  0.591  0.610  0.993  0.994  1.005
    eigenvectors:
  0.146  0.105  0.738  0.004  0.007
  0.448  0.551  0.000  0.001  0.000
  0.000  0.000  0.008  0.000  0.992
  0.405  0.344  0.249  0.001  0.001
  0.000  0.000  0.004  0.995  0.000
    occupations:
  0.894 -0.011 -0.004 -0.171 -0.000
 -0.011  0.602 -0.001 -0.005 -0.010
 -0.004 -0.001  1.005 -0.005 -0.000
 -0.171 -0.005 -0.005  0.698 -0.000
 -0.000 -0.010 -0.000 -0.000  0.994
   spin  2
    eigenvalues: 
  0.127  0.172  0.212  0.393  0.397
    eigenvectors:
  0.775  0.000  0.002  0.016  0.207
  0.000  0.003  0.000  0.922  0.075
  0.001  0.001  0.997  0.000  0.000
  0.223  0.000  0.000  0.060  0.717
  0.000  0.996  0.001  0.003  0.000
    occupations:
  0.187  0.002 -0.001  0.112 -0.000
  0.002  0.393  0.000  0.000  0.012
 -0.001  0.000  0.212  0.005  0.001
  0.112  0.000  0.005  0.337 -0.000
 -0.000  0.012  0.001 -0.000  0.172
atomic mag. moment =     2.891402
atom   17   Tr[ns(na)] (up, down, total) =   4.16875  1.32458  5.49333
   spin  1
    eigenvalues: 
  0.566  0.612  0.990  0.999  1.002
    eigenvectors:
  0.000  0.999  0.000  0.000  0.001
  0.000  0.001  0.000  0.012  0.987
  0.000  0.000  0.001  0.987  0.012
  0.000  0.000  0.999  0.001  0.000
  1.000  0.000  0.000  0.000  0.000
    occupations:
  0.612 -0.012 -0.004  0.004 -0.000
 -0.012  1.002  0.000 -0.000  0.001
 -0.004  0.000  0.999  0.000  0.001
  0.004 -0.000  0.000  0.990  0.000
 -0.000  0.001  0.001  0.000  0.566
   spin  2
    eigenvalues: 
  0.124  0.175  0.213  0.403  0.410
    eigenvectors:
  0.002  0.005  0.000  0.001  0.993
  0.001  0.944  0.051  0.000  0.004
  0.000  0.050  0.949  0.000  0.000
  0.998  0.001  0.000  0.000  0.001
  0.000  0.000  0.000  0.999  0.001
    occupations:
  0.409  0.016  0.005 -0.011 -0.000
  0.016  0.178 -0.008  0.001 -0.002
  0.005 -0.008  0.211  0.001 -0.000
 -0.011  0.001  0.001  0.125 -0.000
 -0.000 -0.002 -0.000 -0.000  0.403
atomic mag. moment =     2.844165
atom   22   Tr[ns(na)] (up, down, total) =   4.10080  1.45217  5.55297
   spin  1
    eigenvalues: 
  0.607  0.615  0.929  0.959  0.992
    eigenvectors:
  0.205  0.001  0.001  0.000  0.793
  0.002  0.998  0.000  0.000  0.000
  0.000  0.000  0.038  0.960  0.001
  0.792  0.002  0.000  0.001  0.205
  0.000  0.000  0.961  0.039  0.001
    occupations:
  0.913 -0.001 -0.004 -0.156 -0.001
 -0.001  0.615 -0.001  0.001 -0.002
 -0.004 -0.001  0.957 -0.005 -0.006
 -0.156  0.001 -0.005  0.686  0.001
 -0.001 -0.002 -0.006  0.001  0.930
   spin  2
    eigenvalues: 
  0.179  0.204  0.212  0.411  0.445
    eigenvectors:
  0.828  0.000  0.000  0.172  0.000
  0.000  0.000  0.000  0.001  0.999
  0.000  0.991  0.009  0.001  0.000
  0.172  0.001  0.000  0.827  0.001
  0.000  0.009  0.991  0.000  0.000
    occupations:
  0.219  0.001  0.002  0.087 -0.000
  0.001  0.445  0.000 -0.002  0.001
  0.002  0.000  0.204  0.005 -0.001
  0.087 -0.002  0.005  0.371  0.001
 -0.000  0.001 -0.001  0.001  0.212
atomic mag. moment =     2.648639
atom   23   Tr[ns(na)] (up, down, total) =   4.19702  1.28101  5.47803
   spin  1
    eigenvalues: 
  0.595  0.626  0.983  0.993  1.000
    eigenvectors:
  0.003  0.991  0.003  0.001  0.003
  0.000  0.004  0.958  0.027  0.010
  0.000  0.003  0.016  0.018  0.962
  0.000  0.000  0.022  0.954  0.024
  0.997  0.002  0.000  0.000  0.000
    occupations:
  0.628 -0.022  0.020  0.002  0.002
 -0.022  0.982 -0.001 -0.001 -0.008
  0.020 -0.001  0.998 -0.001  0.005
  0.002 -0.001 -0.001  0.993  0.000
  0.002 -0.008  0.005  0.000  0.596
   spin  2
    eigenvalues: 
  0.132  0.177  0.190  0.365  0.416
    eigenvectors:
  0.001  0.004  0.001  0.994  0.000
  0.010  0.395  0.591  0.004  0.000
  0.000  0.599  0.400  0.001  0.000
  0.989  0.002  0.008  0.001  0.000
  0.000  0.000  0.000  0.000  0.999
    occupations:
  0.364  0.012 -0.006 -0.007 -0.001
  0.012  0.185  0.006  0.005  0.004
 -0.006  0.006  0.182  0.002 -0.002
 -0.007  0.005  0.002  0.133 -0.000
 -0.001  0.004 -0.002 -0.000  0.416
atomic mag. moment =     2.916004
N of occupied +U levels =  43.9890362
 --- exit write_ns ---

 ------ SPIN UP ------------


          k = 0.0000 0.0000 0.0000 ( 26393 PWs)   bands (ev):

   -83.6584 -83.6455 -83.5427 -83.3195 -83.2959 -83.2941 -83.0824 -83.0678
   -52.4835 -52.3686 -52.2961 -52.2914 -52.2726 -52.2665 -52.2537 -52.1853
   -52.1716 -52.1551 -52.0518 -52.0345 -52.0130 -51.9853 -51.9621 -51.9373
   -51.8211 -51.8191 -51.8170 -51.8048 -51.7933 -51.6977 -51.6661 -51.6424
   -24.4975 -21.3950 -20.7220 -20.6166 -20.3479 -19.8193 -19.6182 -19.5020
   -19.4873 -19.3424 -19.3310 -19.2283 -19.1981 -19.0908 -19.0741 -19.0446
   -18.6119 -18.1962 -18.0859 -17.2266  -9.5221  -9.4052  -9.2968  -9.2144
    -8.9133  -8.5445  -8.1793  -8.0418  -7.9761  -7.9424  -7.8695  -7.7887
    -7.7219  -7.6584  -7.5705  -7.3572  -7.3529  -7.2855  -7.2198  -7.1051
    -6.9631  -6.7712  -6.6901  -6.6079  -6.5521  -6.4096  -6.2855  -6.2084
    -6.1397  -5.9424  -5.9150  -5.7354  -5.7043  -5.4011  -5.3351  -5.2448
    -5.2135  -5.0994  -4.9798  -4.9763  -4.8721  -4.8445  -4.7203  -4.7003
    -4.6491  -4.5573  -4.4675  -4.4071  -4.3917  -4.3492  -4.3382  -4.1493
    -4.1188  -4.1082  -4.0736  -4.0222  -3.9472  -3.7152  -3.6909  -3.6380
    -3.5683  -3.5320  -3.4425  -3.4087  -3.1939  -2.8451  -2.7176  -2.5584
    -2.4930  -2.4454  -2.3168  -2.2607  -2.1415  -2.0960  -1.9766  -1.9360
    -1.8708  -1.7977  -1.6068  -1.5843  -1.4859  -1.3563  -1.2076  -1.0468
    -0.8503  -0.2391   0.0939   0.2229   0.3693   0.4203   0.4771   0.5956
     0.8795   0.9269   1.2820   1.3587   1.6428   1.7106   1.9220   2.8515
     3.5071   3.6994   4.0987   4.3441   4.9400   5.7396   5.9800   6.4641
     6.8123   7.0775   7.2199   7.2336   7.4785   7.5493   7.6126   7.6334
     7.8055   7.9096   7.9217   8.1525   8.2358   8.2769   8.3963   8.5743
     8.7162   8.8922   8.9553   8.9654   9.0977   9.3293   9.4266   9.6705
     9.7243   9.8064   9.8531   9.9973  10.0326  10.1252  10.3115  10.4543
    10.5281  10.6094  10.7944  10.8158  10.9606  11.0176  11.1982  11.2368
    11.3014  11.3638  11.4757  11.5162  11.6382  11.6954  11.7627  11.7895
    11.9415  12.0722  12.1093  12.1452  12.1751  12.2132  12.3048  12.3832
    12.4594  12.5413  12.5566  12.6977  12.7731  12.8413  12.9278  12.9525
    13.0177  13.1326  13.2256  13.2882  13.4005  13.4678  13.5022  13.6242
    13.6500  13.6805  13.7162  13.7699  13.8581  13.9221  14.0792  14.1299
    14.1956  14.3085  14.4460  14.4720  14.5257  14.5335  14.6806  14.7045
    14.8865  14.9901  15.0029  15.1185  15.1588  15.2376  15.3232  15.3748
    15.3904  15.5024  15.6194  15.6590  15.8260  15.9224  15.9413  16.1520
    16.2747  16.3830  16.4205  16.5282  16.5979  16.7322  16.8174  16.9151
    16.9818  17.1232  17.2321  17.2989  17.3959  17.4976  17.5206  17.6625
    17.7831  17.8667  17.9607  18.0313  18.0951  18.2296  18.3554  18.3901
    18.5412  18.5515  18.6182  18.8141  18.9463  18.9904  19.0063  19.1298
    19.2096  19.2790  19.3447  19.3722  19.4236  19.5402  19.6215  19.6706
    19.7202  19.8681  19.9356  19.9972  20.0179  20.0900  20.1387  20.2587
    20.2842  20.4477  20.4964  20.5786  20.6175  20.7820  20.8228  20.8849
    21.0033  21.1310  21.2193  21.2805  21.3663  21.4254  21.5477  21.5700
    21.6010  21.7025  21.7438  21.7844  21.8830  21.9652  22.0303  22.0751
    22.1299  22.2277  22.3232  22.3495  22.4362  22.4839  22.5026  22.5443
    22.6131  22.6742  22.7916  22.8725  22.9071  22.9901  23.0919  23.1401
    23.2121  23.2943  23.3346

          k = 0.0000 0.2303 0.0000 ( 26455 PWs)   bands (ev):

   -83.6584 -83.6455 -83.5427 -83.3195 -83.2959 -83.2941 -83.0824 -83.0678
   -52.4835 -52.3687 -52.2962 -52.2913 -52.2727 -52.2662 -52.2539 -52.1851
   -52.1711 -52.1551 -52.0519 -52.0346 -52.0134 -51.9853 -51.9618 -51.9373
   -51.8211 -51.8195 -51.8170 -51.8047 -51.7933 -51.6978 -51.6661 -51.6425
   -24.4973 -21.3377 -20.7191 -20.5292 -20.3295 -19.8606 -19.6234 -19.5267
   -19.4969 -19.4850 -19.3439 -19.3260 -19.2341 -19.1676 -19.0460 -18.8742
   -18.6158 -18.1957 -18.0745 -17.2243  -9.4613  -9.3787  -9.0802  -9.0216
    -8.9304  -8.5270  -8.3152  -8.0744  -8.0460  -7.9035  -7.8632  -7.8189
    -7.7650  -7.6157  -7.2973  -7.2511  -7.1478  -7.1311  -7.1161  -7.0690
    -6.8684  -6.7585  -6.6368  -6.5637  -6.5345  -6.3874  -6.2713  -6.2130
    -6.1463  -6.0894  -5.9711  -5.8642  -5.7769  -5.6743  -5.5261  -5.3523
    -5.3327  -5.2967  -5.2750  -5.0870  -4.9994  -4.9595  -4.9021  -4.8918
    -4.6698  -4.6282  -4.4687  -4.4185  -4.3274  -4.2365  -4.1725  -4.1007
    -4.0775  -4.0235  -3.9717  -3.9007  -3.7889  -3.7031  -3.6473  -3.6430
    -3.5257  -3.4555  -3.3794  -3.0892  -3.0179  -2.9088  -2.8882  -2.7106
    -2.6963  -2.5435  -2.4555  -2.3838  -2.2371  -2.1831  -2.1339  -1.9238
    -1.8325  -1.7294  -1.6426  -1.5837  -1.3999  -1.3422  -1.2046  -1.0237
    -0.7788  -0.5745  -0.4860   0.1123   0.1713   0.4765   0.5918   0.8874
     1.1461   1.2284   1.4423   1.6441   1.6749   1.8008   1.9272   3.0192
     3.7529   3.9265   4.1584   4.5457   5.1409   5.4036   5.7059   5.9123
     6.0235   6.3881   6.5387   7.1319   7.2877   7.4182   7.7024   7.8206
     7.9641   8.0911   8.2086   8.4168   8.4913   8.6178   8.8033   8.8537
     8.9136   9.0875   9.1523   9.2680   9.3821   9.5333   9.5711   9.6889
     9.7964   9.8700   9.9147  10.0361  10.2432  10.2876  10.3634  10.3764
    10.4131  10.4822  10.5480  10.6109  10.7092  10.7885  10.8812  10.9496
    11.0122  11.1063  11.2407  11.3878  11.4902  11.5422  11.6110  11.7157
    11.7690  11.8373  11.9111  12.0542  12.1298  12.2016  12.3326  12.4523
    12.5428  12.7007  12.7911  12.8636  12.9352  13.0495  13.2130  13.2830
    13.3303  13.4974  13.5147  13.5985  13.6685  13.7708  13.8118  13.9177
    13.9891  14.0781  14.1813  14.2286  14.2908  14.3470  14.4141  14.4673
    14.5161  14.5871  14.6125  14.6647  14.6938  14.8412  14.8760  14.9450
    15.0310  15.1070  15.1579  15.2235  15.2683  15.3309  15.3686  15.4033
    15.4698  15.6059  15.6877  15.7101  15.8207  15.8438  15.8785  15.9524
    16.0314  16.0636  16.1407  16.2907  16.3503  16.4851  16.5363  16.6122
    16.7210  16.7771  16.9401  17.0188  17.0948  17.1948  17.2514  17.3690
    17.4112  17.5385  17.5962  17.6980  17.8387  17.8961  18.0583  18.2077
    18.3297  18.4024  18.4575  18.5201  18.6065  18.6906  18.8554  19.0504
    19.0864  19.1053  19.2050  19.2423  19.3491  19.3981  19.5275  19.6334
    19.6898  19.7455  19.9672  20.0216  20.0935  20.1278  20.2208  20.2571
    20.3396  20.3601  20.3766  20.4373  20.4733  20.5474  20.5823  20.6598
    20.7808  20.8300  20.9408  20.9665  21.0688  21.1306  21.1560  21.2042
    21.3422  21.4286  21.4890  21.5537  21.6319  21.7240  21.7376  21.8282
    21.9181  21.9460  22.0395  22.2057  22.2266  22.2845  22.3362  22.4806
    22.5158  22.5493  22.6439  22.7119  22.8189  22.8668  22.9851  23.0445
    23.0808  23.1189  23.1641

          k = 0.0000-0.4606 0.0000 ( 26364 PWs)   bands (ev):

   -83.6584 -83.6455 -83.5427 -83.3195 -83.2959 -83.2941 -83.0824 -83.0678
   -52.4835 -52.3686 -52.2961 -52.2912 -52.2727 -52.2658 -52.2542 -52.1849
   -52.1704 -52.1550 -52.0518 -52.0345 -52.0137 -51.9852 -51.9614 -51.9373
   -51.8210 -51.8199 -51.8169 -51.8046 -51.7932 -51.6977 -51.6661 -51.6424
   -24.4971 -21.2732 -20.7162 -20.4519 -20.2559 -19.8582 -19.8148 -19.6286
   -19.5059 -19.4685 -19.4301 -19.3217 -19.2414 -19.1582 -19.0466 -18.8086
   -18.6196 -18.1954 -18.0642 -17.2220  -9.4257  -9.3650  -9.2043  -8.6317
    -8.5571  -8.5170  -8.5113  -8.0628  -7.9274  -7.9067  -7.7912  -7.7369
    -7.7208  -7.5389  -7.2956  -7.2093  -7.1301  -7.0938  -7.0296  -6.9734
    -6.8988  -6.6929  -6.6376  -6.5889  -6.5716  -6.4772  -6.3149  -6.2596
    -6.1826  -6.1057  -6.0270  -5.8628  -5.7721  -5.7065  -5.6844  -5.5583
    -5.4736  -5.3736  -5.3425  -5.2822  -5.1650  -4.9598  -4.9454  -4.9221
    -4.8629  -4.7274  -4.6161  -4.3970  -4.3132  -4.2678  -4.1273  -4.0832
    -4.0404  -3.9676  -3.8523  -3.7731  -3.6766  -3.6474  -3.6242  -3.5543
    -3.4764  -3.4533  -3.2143  -3.1729  -3.0450  -2.9537  -2.8406  -2.6627
    -2.5968  -2.5221  -2.4975  -2.4288  -2.3733  -2.2611  -2.1919  -2.1501
    -1.9737  -1.9499  -1.5199  -1.4632  -1.3913  -1.2638  -1.2515  -1.2023
    -1.0023  -0.9723  -0.3779   0.2120   0.4771   0.5402   0.5876   0.9496
     1.0004   1.0909   1.5397   1.7053   1.8954   1.9279   2.2512   3.2623
     4.1058   4.3816   4.4229   4.5809   4.7427   4.9313   5.2644   5.4818
     5.9134   6.1742   6.4017   6.9164   7.0794   7.6397   7.6597   7.7956
     8.1677   8.3256   8.3348   8.4363   8.5861   8.6808   8.8318   8.8676
     9.0408   9.1217   9.2146   9.3026   9.3277   9.3783   9.5198   9.6835
     9.7757   9.8153   9.8390   9.9364  10.0133  10.1345  10.2441  10.3070
    10.3654  10.5201  10.6478  10.7155  10.8850  10.9477  11.0100  11.1701
    11.2951  11.3496  11.3657  11.4990  11.5553  11.5994  11.7651  11.9173
    11.9527  12.1265  12.1800  12.2491  12.3870  12.4508  12.4828  12.5270
    12.6771  12.7684  12.7751  12.8906  13.0224  13.0256  13.1684  13.2538
    13.3472  13.4095  13.5333  13.5782  13.6926  13.7374  13.7605  13.8635
    13.9188  13.9983  14.0744  14.1487  14.3007  14.3764  14.4092  14.5184
    14.5891  14.6606  14.6734  14.6914  14.7778  14.8768  14.9159  15.0234
    15.0931  15.1679  15.1827  15.3000  15.3389  15.4209  15.4534  15.5032
    15.5563  15.5840  15.6730  15.7767  15.8617  16.0456  16.0835  16.1285
    16.3611  16.3889  16.4807  16.5567  16.6824  16.7762  16.8088  16.8759
    16.9442  17.0171  17.0773  17.1075  17.1408  17.2217  17.2810  17.2896
    17.4216  17.5722  17.6892  17.7236  17.7733  17.8955  17.9297  17.9829
    18.0135  18.1022  18.1589  18.1785  18.2304  18.4250  18.4655  18.5505
    18.6157  18.6811  18.7358  18.8496  18.9544  19.0169  19.0559  19.1230
    19.1261  19.2519  19.2930  19.3955  19.4930  19.6299  19.7745  19.9436
    20.0307  20.1138  20.1373  20.1839  20.2677  20.2909  20.3805  20.4630
    20.5638  20.6084  20.6733  20.6957  20.8013  20.8746  20.9308  20.9718
    21.0628  21.1255  21.1493  21.2854  21.4232  21.4686  21.5146  21.6078
    21.6874  21.7451  21.7866  21.9516  22.0955  22.2366  22.2932  22.5322
    22.5846  22.6520  22.6585  22.6776  22.7393  22.8037  22.8434  22.9213
    22.9756  23.0081  23.0625

          k = 0.2500 0.0000 0.0000 ( 26392 PWs)   bands (ev):

   -83.6573 -83.6465 -83.5426 -83.3189 -83.2959 -83.2945 -83.0814 -83.0687
   -52.4670 -52.3856 -52.2898 -52.2888 -52.2748 -52.2653 -52.2550 -52.1850
   -52.1550 -52.1545 -52.0684 -52.0415 -52.0123 -51.9868 -51.9624 -51.9373
   -51.8202 -51.8182 -51.8055 -51.8006 -51.7933 -51.7153 -51.6639 -51.6449
   -24.4973 -21.2853 -20.7973 -20.5069 -20.2517 -19.9203 -19.7168 -19.6619
   -19.4263 -19.3174 -19.2985 -19.2150 -19.2051 -19.1043 -19.0910 -19.0024
   -18.6550 -18.2109 -18.1126 -17.2259  -9.4156  -9.3088  -9.1538  -9.0362
    -8.9246  -8.3505  -8.0943  -8.0817  -8.0144  -7.9247  -7.8777  -7.8361
    -7.7716  -7.6786  -7.6191  -7.4624  -7.3682  -7.3173  -7.2379  -6.9670
    -6.8808  -6.8142  -6.7120  -6.5249  -6.4858  -6.4414  -6.3109  -6.2044
    -5.9785  -5.9313  -5.8942  -5.6813  -5.6136  -5.5761  -5.4547  -5.4216
    -5.3024  -5.2547  -5.1466  -5.1202  -5.0903  -5.0000  -4.9319  -4.8882
    -4.8338  -4.7135  -4.6136  -4.4616  -4.4490  -4.2593  -4.2457  -4.1353
    -4.0822  -4.0376  -3.9546  -3.8894  -3.8010  -3.7206  -3.6934  -3.5211
    -3.5083  -3.4720  -3.3121  -3.2314  -3.0018  -2.7539  -2.6951  -2.6396
    -2.5013  -2.3278  -2.2307  -2.1892  -2.1671  -2.0297  -1.9693  -1.9177
    -1.8833  -1.8365  -1.6800  -1.6151  -1.4409  -1.4087  -1.2960  -1.2069
    -0.7321  -0.1119   0.0421   0.2818   0.3323   0.3865   0.4593   0.4972
     0.9125   1.0269   1.0485   1.0812   1.3804   1.5737   1.7986   3.0816
     3.8002   3.9689   4.1603   4.6009   5.2446   5.5788   5.9933   6.0433
     6.2287   6.5454   6.7925   7.1135   7.1374   7.3456   7.4719   7.6655
     7.7695   7.9124   7.9771   8.0015   8.1917   8.4398   8.4993   8.6483
     8.9254   9.0133   9.2260   9.2873   9.3449   9.5571   9.6418   9.7227
     9.8341  10.0223  10.0455  10.1084  10.1534  10.2598  10.3093  10.3653
    10.4310  10.4793  10.5674  10.6672  10.7780  10.8371  10.9236  10.9651
    11.0605  11.1926  11.3392  11.4729  11.5138  11.5968  11.6764  11.7176
    11.7672  11.8767  11.9058  12.0163  12.1231  12.3272  12.3958  12.4273
    12.5902  12.7136  12.8271  12.9187  12.9871  13.0744  13.2240  13.3054
    13.3513  13.4291  13.5025  13.5405  13.6725  13.7825  13.8251  13.8798
    13.9577  14.0087  14.1653  14.2388  14.2840  14.3529  14.4575  14.5314
    14.6029  14.6408  14.7154  14.7849  14.7927  14.8474  14.9739  15.0044
    15.0899  15.2093  15.2580  15.3581  15.3725  15.4879  15.5985  15.6663
    15.7106  15.8324  15.8941  15.9067  15.9973  16.0167  16.1401  16.2517
    16.4056  16.4626  16.4906  16.6269  16.7396  16.7872  16.8190  16.9508
    17.0557  17.1177  17.2555  17.3339  17.3729  17.4581  17.5291  17.6253
    17.7082  17.7564  17.8181  17.9116  17.9997  18.0514  18.0972  18.1369
    18.2290  18.3661  18.4942  18.5496  18.6343  18.6943  18.7344  18.9351
    19.0078  19.1211  19.1670  19.2805  19.2952  19.3773  19.3991  19.4538
    19.5802  19.6528  19.6994  19.8404  19.9210  19.9456  20.0198  20.1041
    20.1351  20.1935  20.2824  20.3456  20.4169  20.4765  20.5683  20.6517
    20.7266  20.7926  20.8650  21.0028  21.0430  21.1074  21.2023  21.2837
    21.3480  21.4134  21.4688  21.5817  21.6090  21.6462  21.6987  21.7648
    21.8072  21.8351  21.8927  21.9204  21.9688  22.0430  22.0712  22.1046
    22.1417  22.2125  22.2597  22.2913  22.3511  22.4080  22.4550  22.5226
    22.5843  22.6307  22.6756

          k = 0.2500 0.2303 0.0000 ( 26396 PWs)   bands (ev):

   -83.6573 -83.6465 -83.5426 -83.3189 -83.2959 -83.2945 -83.0814 -83.0687
   -52.4670 -52.3856 -52.2898 -52.2888 -52.2749 -52.2651 -52.2551 -52.1848
   -52.1550 -52.1541 -52.0685 -52.0416 -52.0125 -51.9868 -51.9620 -51.9373
   -51.8203 -51.8186 -51.8054 -51.8006 -51.7933 -51.7153 -51.6639 -51.6450
   -24.4971 -21.2379 -20.7917 -20.4246 -20.2139 -19.9027 -19.7344 -19.6114
   -19.4849 -19.4364 -19.3763 -19.3100 -19.2629 -19.1794 -19.0747 -18.8540
   -18.6529 -18.2102 -18.1029 -17.2233  -9.3941  -9.2847  -8.9781  -8.8376
    -8.7451  -8.3117  -8.0988  -8.0208  -7.9991  -7.9480  -7.8815  -7.7772
    -7.7430  -7.6775  -7.5941  -7.3793  -7.2971  -7.2250  -7.0756  -6.8808
    -6.8224  -6.7773  -6.7372  -6.5350  -6.4803  -6.4265  -6.2864  -6.2285
    -6.1336  -5.9989  -5.8935  -5.8492  -5.7314  -5.6920  -5.6466  -5.5785
    -5.5443  -5.4801  -5.3144  -5.2553  -5.2188  -5.1351  -5.0652  -4.8912
    -4.8698  -4.7653  -4.5478  -4.5237  -4.4372  -4.3784  -4.2244  -4.1973
    -4.0029  -3.9615  -3.8399  -3.7920  -3.7570  -3.6596  -3.5672  -3.3897
    -3.3576  -3.3286  -3.2698  -3.0359  -2.8220  -2.7983  -2.7243  -2.6934
    -2.5833  -2.4989  -2.4442  -2.2898  -2.1770  -2.1017  -1.9779  -1.9317
    -1.8335  -1.8228  -1.7642  -1.7220  -1.4651  -1.3218  -1.2683  -1.1374
    -0.6319  -0.5066  -0.3294   0.1290   0.2015   0.3064   0.4430   0.7580
     0.8188   1.1666   1.3209   1.4591   1.5977   1.7585   1.8119   3.2410
     4.0160   4.1336   4.3025   4.8113   5.3774   5.5734   5.9246   5.9977
     6.2017   6.2371   6.3587   6.5584   6.7714   6.8912   7.1663   7.5020
     7.5990   7.7792   7.8258   8.1178   8.2467   8.4024   8.4836   8.6324
     8.7533   8.9235   9.0547   9.2716   9.4006   9.5015   9.6898   9.7922
     9.8317   9.9411   9.9919  10.0333  10.2540  10.3287  10.4761  10.5492
    10.6422  10.6999  10.7698  10.8647  11.0718  11.1933  11.2961  11.3833
    11.4698  11.5460  11.6543  11.7241  11.8020  11.9027  11.9218  12.0107
    12.0441  12.1820  12.2776  12.3594  12.4111  12.5243  12.5932  12.6431
    12.8108  12.8758  12.9735  13.0377  13.1227  13.1672  13.2030  13.3066
    13.3633  13.4167  13.5369  13.5617  13.6766  13.7961  13.8693  13.9189
    13.9987  14.0423  14.1171  14.1763  14.2370  14.3242  14.3729  14.4608
    14.5522  14.6497  14.6688  14.7712  14.8332  14.9139  14.9392  15.0061
    15.0487  15.1743  15.2630  15.3789  15.4232  15.5032  15.5868  15.6622
    15.6940  15.7684  15.8834  15.9447  15.9871  16.1358  16.1595  16.2551
    16.3265  16.3520  16.4661  16.5022  16.6466  16.6925  16.7756  16.8461
    16.9595  17.0067  17.0586  17.1589  17.2041  17.2816  17.3402  17.3781
    17.4388  17.5681  17.6000  17.6463  17.7457  17.8149  17.9232  18.0290
    18.0536  18.1384  18.1777  18.2683  18.3795  18.4090  18.4290  18.5662
    18.6294  18.6736  18.7120  18.8237  18.9150  18.9696  19.0602  19.1620
    19.1873  19.2757  19.3274  19.3822  19.5639  19.6349  19.6780  19.7088
    19.7821  19.8834  19.9604  20.0294  20.0822  20.1606  20.2795  20.3366
    20.3802  20.4821  20.5483  20.6484  20.6865  20.7729  20.8513  20.8934
    20.9749  21.0208  21.1331  21.2273  21.3442  21.4076  21.4929  21.5009
    21.6205  21.6772  21.7021  21.8615  21.8858  21.9556  22.0566  22.1225
    22.2022  22.3601  22.4300  22.4423  22.5480  22.6178  22.7258  22.8249
    22.8610  23.0092  23.0814

          k = 0.2500-0.4606 0.0000 ( 26462 PWs)   bands (ev):

   -83.6573 -83.6465 -83.5426 -83.3189 -83.2959 -83.2946 -83.0813 -83.0687
   -52.4670 -52.3856 -52.2899 -52.2888 -52.2749 -52.2648 -52.2552 -52.1847
   -52.1550 -52.1538 -52.0685 -52.0417 -52.0129 -51.9869 -51.9617 -51.9373
   -51.8203 -51.8189 -51.8055 -51.8005 -51.7933 -51.7153 -51.6639 -51.6450
   -24.4969 -21.1866 -20.7857 -20.3213 -20.1663 -19.8349 -19.7783 -19.6557
   -19.5853 -19.5020 -19.4425 -19.3686 -19.3352 -19.1676 -19.0618 -18.7958
   -18.6513 -18.2103 -18.0942 -17.2204  -9.3778  -9.2605  -9.0311  -8.4357
    -8.3286  -8.2895  -8.2109  -7.9472  -7.9139  -7.8954  -7.8326  -7.7099
    -7.6776  -7.6085  -7.4726  -7.3289  -7.2769  -7.2238  -7.1616  -6.8679
    -6.7831  -6.7141  -6.6584  -6.5705  -6.5391  -6.4591  -6.3315  -6.2837
    -6.1804  -6.1303  -6.0747  -5.9834  -5.9028  -5.8159  -5.7496  -5.6513
    -5.6222  -5.5385  -5.4936  -5.4461  -5.3287  -5.2792  -5.1531  -5.0050
    -4.8967  -4.7486  -4.5869  -4.4928  -4.4474  -4.3080  -4.3049  -4.2018
    -4.1647  -3.9427  -3.8550  -3.7891  -3.6588  -3.5327  -3.3504  -3.3073
    -3.2777  -3.1953  -3.0052  -2.9148  -2.8290  -2.8031  -2.7350  -2.5950
    -2.5708  -2.4306  -2.4046  -2.3899  -2.3109  -2.2407  -2.1885  -2.0593
    -1.9750  -1.8444  -1.6798  -1.5984  -1.5002  -1.3225  -1.2001  -1.1021
    -1.0333  -0.8298  -0.3886   0.2674   0.2826   0.4248   0.4944   0.5199
     0.6358   1.2587   1.5062   1.5701   1.7866   1.7883   2.1685   3.4300
     4.2075   4.6336   4.6938   4.8519   5.0221   5.2015   5.5382   5.7534
     6.0821   6.2565   6.4903   6.5816   6.8567   6.9386   7.1299   7.2160
     7.3179   7.4150   7.5557   7.8286   7.9594   8.1513   8.2805   8.5087
     8.6849   8.7620   8.9936   9.1045   9.2783   9.3521   9.6035   9.7644
     9.8213  10.0637  10.1669  10.2498  10.3092  10.4453  10.5976  10.7478
    10.8260  11.0744  11.2307  11.3878  11.4482  11.5031  11.6394  11.6890
    11.8026  11.8760  11.9438  12.0260  12.0817  12.1825  12.2731  12.3024
    12.3508  12.5003  12.5788  12.6309  12.7028  12.7878  12.8784  12.9260
    12.9906  13.0283  13.1292  13.2042  13.2357  13.2560  13.3139  13.3926
    13.4928  13.5629  13.6248  13.7593  13.8362  13.8893  13.9241  13.9585
    14.0541  14.1054  14.1436  14.2284  14.2683  14.3181  14.4477  14.5248
    14.5687  14.6291  14.6943  14.7363  14.8676  14.9286  14.9559  15.0023
    15.0493  15.1028  15.1342  15.1982  15.2347  15.3111  15.3516  15.4200
    15.4588  15.5118  15.5717  15.6670  15.6885  15.7635  15.8380  15.9459
    16.0006  16.0265  16.0845  16.1830  16.2452  16.3871  16.4214  16.5140
    16.6124  16.7465  16.7797  16.8312  16.9255  17.0244  17.0882  17.1411
    17.3247  17.3795  17.4271  17.5743  17.7445  17.7700  17.8354  18.0060
    18.0850  18.1357  18.2378  18.3433  18.4064  18.4782  18.5079  18.5394
    18.6294  18.7237  18.7661  18.8503  18.8754  18.9218  19.0233  19.0791
    19.1512  19.2112  19.2460  19.2635  19.3042  19.4232  19.5412  19.6326
    19.6698  19.7350  19.7996  19.8551  19.9239  19.9714  20.0122  20.0818
    20.1631  20.2014  20.2759  20.3475  20.4241  20.5321  20.6317  20.7030
    20.8020  20.8723  20.9051  20.9620  21.0211  21.0750  21.1254  21.2178
    21.3001  21.3674  21.4523  21.4793  21.5550  21.6165  21.7813  21.8581
    21.9679  22.0613  22.2268  22.3089  22.3534  22.4217  22.5021  22.6631
    22.7050  22.7998  22.8816

          k =-0.5000 0.0000 0.0000 ( 26466 PWs)   bands (ev):

   -83.6559 -83.6477 -83.5425 -83.3183 -83.2959 -83.2950 -83.0802 -83.0698
   -52.4312 -52.4218 -52.2857 -52.2826 -52.2782 -52.2638 -52.2568 -52.1847
   -52.1550 -52.1211 -52.1019 -52.0490 -52.0112 -51.9884 -51.9626 -51.9374
   -51.8198 -51.8177 -51.8061 -51.7944 -51.7603 -51.7554 -51.6609 -51.6481
   -24.4971 -21.0554 -20.9941 -20.2584 -20.2113 -19.9943 -19.9775 -19.7118
   -19.3984 -19.2733 -19.2693 -19.2200 -19.1893 -19.1649 -19.1412 -18.8270
   -18.7987 -18.2094 -18.1509 -17.2251  -9.3994  -9.0348  -8.9689  -8.7273
    -8.7258  -8.5909  -8.4957  -8.1110  -8.0196  -7.8808  -7.8336  -7.8190
    -7.7300  -7.6568  -7.6505  -7.6349  -7.2667  -7.1596  -7.0763  -7.0444
    -6.8222  -6.6150  -6.5037  -6.4618  -6.4187  -6.3210  -6.2068  -6.1757
    -6.0803  -6.0042  -5.9686  -5.9161  -5.8349  -5.8119  -5.7053  -5.5406
    -5.4420  -5.3762  -5.3018  -5.2041  -5.1770  -5.1062  -5.0455  -5.0037
    -4.9773  -4.9287  -4.8685  -4.4608  -4.4129  -4.2118  -4.1890  -4.1151
    -4.1029  -3.8099  -3.7763  -3.7352  -3.6993  -3.6254  -3.5785  -3.5293
    -3.4012  -3.2571  -3.1899  -3.1061  -3.0155  -2.7867  -2.7779  -2.7548
    -2.4406  -2.2193  -2.1044  -2.0895  -2.0129  -1.9841  -1.9625  -1.9425
    -1.9233  -1.8815  -1.6675  -1.6305  -1.5920  -1.5397  -1.3465  -1.2623
    -0.6146  -0.1090  -0.0662   0.1706   0.3424   0.6143   0.6296   0.6766
     0.6868   0.7056   0.7261   0.9785   1.1765   1.5711   1.6091   3.4767
     4.0088   4.5733   4.6660   4.7338   4.8617   5.0869   5.4282   5.5887
     6.0866   6.1635   6.6503   6.9287   7.2367   7.4322   7.6731   7.9043
     8.0073   8.1519   8.2977   8.3451   8.4929   8.6119   8.6578   8.7054
     8.7485   8.8085   8.8236   8.8702   8.9545   9.1277   9.2423   9.3590
     9.4047   9.4419   9.6475   9.9385   9.9762  10.1252  10.2628  10.3537
    10.4805  10.6985  10.7492  10.8604  10.8938  11.0098  11.0901  11.1395
    11.3452  11.4036  11.4663  11.5956  11.6456  11.6876  11.7582  11.9383
    12.0670  12.1389  12.2408  12.3912  12.4110  12.4588  12.6046  12.7335
    12.7488  12.9682  13.0183  13.0291  13.1541  13.4278  13.4989  13.5381
[...]
     0.2597   0.3703   0.4511   0.4890   0.5015   0.5607   0.6021   0.6440
     0.6871   0.7066   0.8342   0.9236   1.0039   1.0191   1.1487   1.2267
     1.3338   1.4136   1.5310   1.8906   1.9642   1.9964   2.0852   2.1842
     2.2328   2.7230   2.7433   2.9399   3.1211   3.2334   3.5057   3.6268
     4.4700   4.5599   4.8225   4.8729   5.1177   5.2296   5.6555   5.7673
     6.3311   6.4204   6.4331   6.7071   6.9944   7.0185   7.1884   7.3426
     7.3641   7.4791   7.6616   7.9275   7.9840   8.1738   8.3961   8.5737
     8.7323   8.8054   9.0505   9.1657   9.3196   9.3818   9.6542   9.8374
     9.8863  10.0736  10.2504  10.3201  10.4600  10.5553  10.6471  10.8408
    10.9203  11.0724  11.3082  11.3920  11.5977  11.6612  11.8095  11.8891
    11.9233  12.0186  12.0850  12.1453  12.1946  12.2993  12.3466  12.4719
    12.5980  12.6353  12.6825  12.7820  12.8419  12.9180  12.9765  13.0414
    13.0925  13.1154  13.2702  13.2794  13.3923  13.4313  13.4847  13.5423
    13.6073  13.6803  13.7593  13.9081  13.9656  14.0222  14.0812  14.1245
    14.1642  14.2466  14.3184  14.3798  14.4414  14.5171  14.5717  14.6881
    14.7324  14.7868  14.8783  14.9714  15.0552  15.1171  15.1655  15.2162
    15.2564  15.2881  15.3498  15.3921  15.5317  15.5433  15.6201  15.6839
    15.6991  15.7271  15.7895  15.8677  15.9310  16.0043  16.0452  16.0951
    16.2057  16.2764  16.2958  16.4289  16.5011  16.5638  16.6348  16.7275
    16.7686  16.9370  16.9874  17.0158  17.1172  17.1626  17.3025  17.3872
    17.4902  17.5517  17.7153  17.8201  17.9523  17.9860  18.0778  18.1954
    18.2474  18.3134  18.4204  18.5018  18.6001  18.6183  18.6847  18.7714
    18.8181  18.8904  18.9319  19.0062  19.0770  19.1199  19.1525  19.2009
    19.2889  19.3723  19.4544  19.5156  19.6271  19.6961  19.7500  19.7884
    19.8778  19.9256  19.9767  19.9896  20.0073  20.0448  20.1533  20.1916
    20.2964  20.3437  20.4703  20.4974  20.6056  20.7320  20.8055  20.8668
    20.9707  20.9954  21.0478  21.0690  21.1244  21.2026  21.2690  21.3410
    21.4386  21.5322  21.5782  21.6878  21.7892  21.8974  21.9626  22.0309
    22.1221  22.2195  22.3566  22.4251  22.4591  22.5584  22.5835  22.7397
    22.8496  22.9637  23.0409

          k =-0.5000 0.0000 0.0000 ( 26466 PWs)   bands (ev):

   -80.3101 -80.3031 -80.1022 -80.0992 -80.0487 -80.0244 -79.8382 -79.7767
   -49.1737 -49.1655 -49.0877 -49.0819 -49.0259 -49.0192 -48.9834 -48.9795
   -48.9616 -48.9595 -48.9583 -48.9416 -48.8654 -48.8424 -48.8083 -48.7736
   -48.6870 -48.6834 -48.6581 -48.6556 -48.6307 -48.5817 -48.4141 -48.3823
   -24.3168 -21.2148 -21.1559 -20.4220 -20.3396 -20.1117 -20.0891 -19.9125
   -19.4866 -19.4200 -19.3496 -19.3490 -19.2988 -19.2874 -19.2309 -19.1101
   -19.0857 -18.7314 -18.6088 -17.3410  -9.1905  -8.7657  -8.7646  -8.1608
    -8.1579  -8.0456  -7.9571  -7.4947  -7.4561  -7.3398  -7.2790  -7.1790
    -7.1592  -7.0613  -7.0119  -6.9598  -6.6716  -6.6327  -6.5220  -6.2318
    -6.1731  -6.0991  -6.0459  -5.9969  -5.9418  -5.7018  -5.6418  -5.5495
    -5.4917  -5.3300  -5.3284  -5.1017  -5.0858  -4.8625  -4.7812  -4.5965
    -4.5895  -4.5455  -4.5333  -4.5113  -4.4326  -4.3690  -4.1735  -4.1430
    -4.0180  -3.7750  -3.6077  -3.4967  -3.4743  -3.4366  -3.3489  -3.0566
    -3.0437  -2.9869  -2.6643  -2.6539  -2.5479  -2.5008  -2.2310  -0.2818
    -0.1827  -0.1573  -0.1267  -0.0639  -0.0467  -0.0006   0.0861   0.1308
     0.1348   0.2821   0.2881   0.3619   0.3877   0.4294   0.4507   0.5871
     0.6541   0.7260   0.7504   0.9269   0.9375   1.0878   1.1987   1.2496
     1.3685   1.7300   1.7449   1.9817   2.0466   2.2756   2.3105   2.3139
     2.3247   2.3458   2.4641   2.5973   2.7581   2.9826   3.0419   3.6729
     4.2228   4.5730   4.5741   4.8270   4.9437   5.2095   5.4748   5.7092
     6.1390   6.2606   6.8304   6.8794   7.3432   7.5069   7.8259   7.8682
     8.0595   8.3678   8.4911   8.5299   8.5590   8.5719   8.7236   8.7727
     8.8102   8.8487   8.8825   8.9386   9.0392   9.2084   9.3251   9.3932
     9.5033   9.5409   9.7195  10.0328  10.0701  10.2762  10.2954  10.4300
    10.4369  10.6742  10.8282  10.8641  10.9491  11.0588  11.1975  11.3172
    11.4100  11.4859  11.6522  11.7229  11.8454  11.8601  11.9521  12.0377
    12.1382  12.2290  12.3536  12.5067  12.6262  12.6786  12.8220  12.8809
    12.9621  13.0757  13.1234  13.2875  13.3462  13.5865  13.5894  13.7404
    13.8076  13.8351  13.8861  13.9590  13.9747  14.0738  14.1316  14.2088
    14.3332  14.3732  14.4821  14.5097  14.5561  14.6453  14.7266  14.8591
    14.9245  14.9986  15.0374  15.0723  15.0853  15.1947  15.2977  15.4106
    15.5410  15.6264  15.6593  15.7033  15.7876  15.8789  15.9092  16.0385
    16.1217  16.1594  16.1871  16.4155  16.4548  16.5640  16.6119  16.6884
    16.7940  16.8707  16.9578  17.0233  17.1722  17.2232  17.3002  17.4116
    17.4835  17.5301  17.5861  17.7204  17.8131  17.8488  17.8583  17.8803
    17.9196  18.0066  18.0400  18.0588  18.1412  18.1694  18.2272  18.3183
    18.3345  18.4059  18.4712  18.5539  18.6103  18.6163  18.8295  18.8574
    18.9030  18.9941  19.1014  19.1248  19.1713  19.2949  19.3472  19.4341
    19.4782  19.5314  19.6001  19.6808  19.6913  19.7416  19.9010  19.9844
    20.0851  20.1798  20.2371  20.2818  20.3439  20.3914  20.4825  20.5012
    20.5484  20.5600  20.6232  20.7023  20.7088  20.7711  20.8120  20.8934
    20.9065  20.9691  21.0450  21.0974  21.1723  21.2584  21.2839  21.3375
    21.4393  21.4877  21.5466  21.5932  21.6407  21.6862  21.7437  21.7550
    21.8049  21.8812  21.9480  22.0244  22.0317  22.1089  22.1796  22.2632
    22.3879  22.4956  22.5246

          k =-0.5000 0.2303 0.0000 ( 26450 PWs)   bands (ev):

   -80.3101 -80.3031 -80.1022 -80.0992 -80.0487 -80.0244 -79.8382 -79.7767
   -49.1737 -49.1655 -49.0875 -49.0817 -49.0259 -49.0192 -48.9833 -48.9794
   -48.9612 -48.9595 -48.9584 -48.9413 -48.8659 -48.8428 -48.8080 -48.7734
   -48.6871 -48.6834 -48.6583 -48.6556 -48.6308 -48.5819 -48.4142 -48.3823
   -24.3166 -21.1965 -21.1325 -20.3595 -20.2551 -20.0479 -20.0319 -19.9532
   -19.6234 -19.4949 -19.4888 -19.4358 -19.3601 -19.3493 -19.1500 -19.0545
   -19.0224 -18.7259 -18.6018 -17.3394  -9.1846  -8.7460  -8.7370  -7.8764
    -7.8462  -7.7554  -7.6873  -7.4736  -7.4310  -7.3464  -7.2543  -7.1124
    -7.0832  -7.0371  -6.9470  -6.9052  -6.6820  -6.6560  -6.5283  -6.2418
    -6.1816  -6.1222  -6.0802  -6.0687  -5.9449  -5.7682  -5.7382  -5.6763
    -5.6247  -5.4470  -5.3911  -5.2823  -5.2531  -5.0345  -5.0101  -4.8636
    -4.8506  -4.7951  -4.7087  -4.5521  -4.4781  -4.4020  -4.1804  -4.0383
    -3.9934  -3.9119  -3.7501  -3.4252  -3.3677  -3.2739  -3.1857  -3.0726
    -2.9965  -2.9135  -2.7471  -2.6393  -2.4700  -2.4240  -2.2102  -0.2700
    -0.2435  -0.2010  -0.1554  -0.0584   0.0953   0.1217   0.1520   0.2264
     0.2311   0.2653   0.2957   0.4046   0.4583   0.5188   0.5497   0.6494
     0.6824   0.7150   0.7546   0.8948   0.9505   1.0686   1.1278   1.2707
     1.3897   1.7740   1.7807   1.8406   1.9015   1.9817   1.9921   2.0605
     2.1323   2.5323   2.5451   2.8916   2.9147   3.1379   3.1766   3.7131
     4.3624   4.8043   4.8086   5.0538   5.1734   5.4247   5.6806   5.9135
     6.2564   6.3995   6.6033   6.7113   6.8326   6.9036   7.0852   7.1653
     7.2621   7.4791   7.6754   7.7066   7.8810   8.1664   8.4040   8.4812
     8.7075   8.9041   9.0139   9.1659   9.3198   9.4342   9.6079   9.8209
    10.0698  10.1380  10.2043  10.3276  10.5919  10.6592  10.7203  10.7712
    10.8720  10.9910  11.0455  11.0978  11.2543  11.3214  11.4662  11.5571
    11.6729  11.7559  11.8962  11.9469  12.0170  12.1199  12.2608  12.3933
    12.5107  12.6028  12.6830  12.7646  12.8542  12.8912  13.0443  13.1609
    13.1833  13.3158  13.3770  13.4596  13.5705  13.6274  13.7549  13.8196
    13.8876  13.9964  14.0677  14.1239  14.2040  14.2568  14.3060  14.3805
    14.4662  14.5231  14.5675  14.6336  14.8081  14.8770  14.9174  14.9482
    15.0104  15.0494  15.0863  15.1006  15.1567  15.2477  15.3344  15.3664
    15.4826  15.5471  15.6710  15.6972  15.7620  15.9426  15.9952  16.0554
    16.1177  16.1302  16.1662  16.2307  16.2576  16.2923  16.3395  16.3595
    16.4071  16.4585  16.5805  16.6083  16.7036  16.7148  16.8194  16.8550
    16.8968  16.9502  16.9838  17.0341  17.1046  17.1269  17.2299  17.3187
    17.4199  17.4996  17.5394  17.5910  17.6508  17.6946  17.7372  17.7892
    17.9027  17.9749  18.0434  18.0847  18.1642  18.2098  18.2895  18.3527
    18.4957  18.5521  18.6450  18.7298  18.7801  18.8578  18.9308  18.9697
    19.1674  19.2019  19.3214  19.3970  19.4871  19.6104  19.6428  19.7042
    19.7798  19.9319  19.9750  20.0447  20.1689  20.2023  20.2443  20.2611
    20.2845  20.3663  20.4048  20.4575  20.5187  20.5816  20.6442  20.7414
    20.9062  20.9268  20.9605  21.0632  21.2042  21.2966  21.3558  21.4250
    21.5638  21.6177  21.7409  21.7805  21.8546  21.9266  21.9848  22.0177
    22.1165  22.1883  22.3051  22.4440  22.5539  22.6377  22.6782  22.7223
    22.7752  22.8071  22.8881

          k =-0.5000-0.4606 0.0000 ( 26416 PWs)   bands (ev):

   -80.3101 -80.3030 -80.1022 -80.0992 -80.0487 -80.0244 -79.8382 -79.7767
   -49.1737 -49.1655 -49.0873 -49.0816 -49.0258 -49.0192 -48.9832 -48.9792
   -48.9607 -48.9594 -48.9583 -48.9408 -48.8664 -48.8433 -48.8077 -48.7731
   -48.6870 -48.6834 -48.6586 -48.6556 -48.6308 -48.5821 -48.4142 -48.3823
   -24.3164 -21.1779 -21.1087 -20.2485 -20.1136 -20.1069 -19.9400 -19.8206
   -19.8079 -19.7348 -19.6516 -19.4566 -19.3762 -19.3714 -19.1264 -19.0165
   -18.9872 -18.7215 -18.5955 -17.3379  -9.1806  -8.7181  -8.7170  -7.5937
    -7.5191  -7.4486  -7.4130  -7.3197  -7.1903  -7.1403  -7.0915  -7.0573
    -7.0053  -6.9662  -6.9195  -6.8701  -6.6780  -6.6093  -6.5584  -6.4242
    -6.4207  -6.3164  -6.3023  -5.9855  -5.9714  -5.9437  -5.9103  -5.8748
    -5.8052  -5.6672  -5.6000  -5.4160  -5.4027  -5.2968  -5.1227  -5.0426
    -5.0145  -4.8334  -4.7918  -4.5615  -4.5308  -4.4222  -4.2925  -4.1386
    -4.0995  -3.7779  -3.7521  -3.3238  -3.2751  -3.1286  -3.0849  -3.0613
    -2.9450  -2.8799  -2.8278  -2.6971  -2.3563  -2.3433  -2.1884  -0.3299
    -0.3243  -0.1214  -0.1046  -0.0947  -0.0169   0.0589   0.1117   0.2440
     0.2881   0.5313   0.5325   0.5824   0.6626   0.6674   0.6873   0.7158
     0.7655   0.7707   0.7872   0.8132   1.0004   1.0197   1.0318   1.2273
     1.2553   1.4255   1.5375   1.5500   1.5892   1.9636   2.0511   2.0692
     2.1358   2.6476   2.7084   2.9520   2.9808   3.2617   3.3229   3.7406
     4.5666   5.3034   5.3131   5.6451   5.6632   5.7015   5.7501   5.7778
     5.9499   6.0514   6.0767   6.1687   6.5016   6.5128   6.6078   6.7178
     7.0079   7.2413   7.3047   7.3838   7.6900   8.0691   8.1590   8.2189
     8.4756   8.8556   8.9693   9.0399   9.3597   9.4757   9.5483   9.7578
     9.8447   9.9486  10.0982  10.1673  10.3885  10.7651  10.8845  11.1780
    11.2544  11.3666  11.4367  11.5537  11.6051  11.7573  11.9520  12.1421
    12.3588  12.5375  12.6831  12.7521  12.7896  12.8977  12.9313  13.0166
    13.0838  13.1834  13.3123  13.3698  13.5579  13.5872  13.6130  13.6497
    13.6785  13.7202  13.7492  13.7653  13.8191  13.8659  13.9164  13.9709
    14.0286  14.0893  14.1437  14.2130  14.2401  14.2663  14.2788  14.3292
    14.4894  14.5030  14.5714  14.6632  14.6974  14.7138  14.7989  14.8458
    14.8862  14.9164  14.9881  15.0069  15.0422  15.1148  15.1200  15.1464
    15.2066  15.3073  15.3573  15.4055  15.4401  15.4553  15.5321  15.5624
    15.6185  15.6746  15.6912  15.7241  15.7841  15.8318  15.8849  15.8952
    15.9633  15.9951  16.1502  16.1886  16.2598  16.3060  16.3761  16.4131
    16.5191  16.5717  16.7159  16.7297  16.8001  16.8338  16.8960  16.9743
    17.0205  17.1340  17.1867  17.2051  17.2704  17.3170  17.3378  17.3691
    17.4739  17.5090  17.7095  17.7901  17.9045  18.0064  18.0338  18.0861
    18.2653  18.3093  18.3673  18.3982  18.4484  18.4822  18.6184  18.7168
    18.7934  18.8236  18.9249  19.0284  19.0787  19.1638  19.3386  19.3772
    19.4623  19.5479  19.6263  19.7200  19.9230  20.1906  20.2828  20.3006
    20.4395  20.4734  20.5367  20.6192  20.7550  20.7593  20.8424  20.9636
    21.1130  21.2001  21.3050  21.5014  21.6195  21.6733  21.7592  21.8438
    22.0236  22.0490  22.1233  22.1419  22.2960  22.2970  22.4222  22.5242
    22.6493  22.7227  22.7804  22.8547  22.9283  22.9552  23.0284  23.0558
    23.0804  23.1518  23.1927

          k =-0.2500 0.2303 0.0000 ( 26396 PWs)   bands (ev):

   -80.3118 -80.3012 -80.1051 -80.0962 -80.0493 -80.0236 -79.8384 -79.7764
   -49.2179 -49.1218 -49.0907 -49.0785 -49.0308 -49.0161 -49.0149 -49.0018
   -48.9799 -48.9742 -48.9103 -48.8992 -48.8686 -48.8423 -48.8399 -48.7386
   -48.6949 -48.6754 -48.6592 -48.6562 -48.6303 -48.5809 -48.4146 -48.3821
   -24.3169 -21.3887 -20.9602 -20.5769 -20.3235 -20.1111 -19.8413 -19.7321
   -19.6569 -19.5811 -19.4853 -19.4071 -19.3832 -19.2591 -19.1536 -19.0842
   -18.9489 -18.7545 -18.5688 -17.3399  -9.1841  -8.9217  -8.6570  -8.1263
    -8.0065  -7.9682  -7.6377  -7.5765  -7.4033  -7.3340  -7.2563  -7.1869
    -7.0680  -7.0201  -6.8304  -6.7844  -6.6982  -6.6009  -6.5622  -6.5048
    -6.4121  -6.2730  -6.1777  -6.0532  -5.9833  -5.9348  -5.7903  -5.6354
    -5.3910  -5.3288  -5.2593  -5.1378  -5.0444  -5.0017  -4.9684  -4.8282
    -4.7520  -4.6332  -4.5448  -4.4354  -4.2738  -4.2007  -4.0870  -3.9489
    -3.9009  -3.7633  -3.6886  -3.6363  -3.3885  -3.3102  -3.2737  -3.1325
    -2.9530  -2.9153  -2.7764  -2.6874  -2.5394  -2.3105  -2.1410  -0.3921
    -0.2907  -0.2384  -0.2240  -0.0860  -0.0634  -0.0203   0.0519   0.1361
     0.1857   0.2307   0.2756   0.3901   0.4238   0.4652   0.5557   0.6530
     0.6873   0.7428   0.8244   0.9625   1.0533   1.0906   1.2020   1.3298
     1.4006   1.4569   1.6791   1.8345   1.8540   2.0111   2.1443   2.3840
     2.4269   2.6941   2.7359   2.7971   3.0196   3.1810   3.2228   3.4978
     3.9804   4.2019   4.4208   4.8869   5.4743   5.8041   5.9526   6.0656
     6.2058   6.3832   6.5292   6.6679   6.8984   6.9832   7.1963   7.4919
     7.6380   7.7984   8.0326   8.1748   8.3148   8.4730   8.5276   8.6471
     8.8979   9.0019   9.1774   9.3831   9.4678   9.6392   9.7333   9.7477
     9.8824   9.9719  10.0861  10.1465  10.2481  10.3991  10.5374  10.6157
    10.7342  10.8037  10.8961  11.0014  11.2180  11.2662  11.3195  11.4569
    11.5090  11.6202  11.7527  11.8109  11.9326  12.0072  12.0565  12.1375
    12.1975  12.3080  12.3968  12.4830  12.5678  12.7007  12.7888  12.8554
    12.9175  13.0598  13.1548  13.1686  13.2151  13.3465  13.3833  13.4435
    13.5142  13.5374  13.6443  13.7516  13.8260  13.9011  13.9864  14.1046
    14.1698  14.2166  14.3166  14.3248  14.3914  14.5206  14.6329  14.6886
    14.7925  14.8538  14.8799  14.9707  15.0345  15.0946  15.1447  15.2717
    15.3412  15.3851  15.4616  15.5685  15.6187  15.7340  15.7909  15.9056
    15.9497  15.9928  16.0683  16.1188  16.2156  16.2955  16.3785  16.4339
    16.4670  16.5951  16.6432  16.7724  16.8120  16.8965  17.0155  17.0498
    17.1720  17.2029  17.2844  17.3876  17.4378  17.5277  17.5680  17.6102
    17.6339  17.7380  17.7733  17.9398  17.9540  18.0098  18.1053  18.1325
    18.2030  18.2970  18.3643  18.4148  18.4782  18.5608  18.5847  18.6379
    18.8038  18.8639  18.9434  19.0034  19.0815  19.1182  19.2012  19.2515
    19.3068  19.3850  19.5276  19.6059  19.6467  19.7849  19.7957  19.8970
    19.9416  20.0213  20.1185  20.1918  20.2586  20.3426  20.4527  20.5210
    20.5614  20.6260  20.7149  20.7863  20.8755  20.9548  21.0097  21.0658
    21.1061  21.1945  21.3053  21.3699  21.4410  21.5497  21.6346  21.6635
    21.8020  21.8548  21.9749  22.0191  22.0781  22.1831  22.2362  22.2860
    22.3277  22.4696  22.5018  22.5969  22.6627  22.7412  22.8961  22.9855
    23.0140  23.0857  23.1671

     the spin up/dw Fermi energies are    -1.5679   -2.0126 ev

!    total energy              =   -2353.67051656 Ry
     Harris-Foulkes estimate   =   -2353.67051660 Ry
     estimated scf accuracy    <       0.00000005 Ry

     The total energy is the sum of the following terms:

     one-electron contribution =  -27133.53493066 Ry
     hartree contribution      =   13590.82828191 Ry
     xc contribution           =    -356.06971686 Ry
     ewald contribution        =   11544.48162907 Ry
     Hubbard energy            =       0.62416086 Ry
     smearing contrib. (-TS)   =       0.00005913 Ry

     total magnetization       =    23.00 Bohr mag/cell
     absolute magnetization    =    26.33 Bohr mag/cell

     convergence has been achieved in  24 iterations

     Forces acting on atoms (Ry/au):


     negative rho (up, down):  0.210E-02 0.128E-02
     atom    1 type  1   force =    -0.00884969   -0.01663692   -0.00423690
     atom    2 type  1   force =     0.00066115    0.01075752    0.00031120
     atom    3 type  2   force =     0.03009453   -0.00253510   -0.00159336
     atom    4 type  2   force =     0.00674014    0.01226491   -0.00337662
     atom    5 type  1   force =     0.00210065    0.00906291    0.00053925
     atom    6 type  1   force =    -0.00398751   -0.01173964    0.00092495
     atom    7 type  1   force =    -0.00013630   -0.00206207   -0.00426517
     atom    8 type  1   force =    -0.00096919    0.00414057    0.00117303
     atom    9 type  2   force =    -0.00065190   -0.00085446    0.00057048
     atom   10 type  2   force =     0.00021957   -0.00361168    0.00141403
     atom   11 type  1   force =    -0.02045546   -0.04916703    0.00098281
     atom   12 type  1   force =    -0.02027157    0.04903033   -0.00130341
     atom   13 type  1   force =    -0.00008534   -0.00479567    0.00380485
     atom   14 type  1   force =    -0.00835832   -0.01644379   -0.00289183
     atom   15 type  1   force =     0.00014088    0.01145470    0.00107018
     atom   16 type  2   force =    -0.03109211   -0.00163653   -0.00103025
     atom   17 type  2   force =     0.00663622    0.01160446   -0.00299294
     atom   18 type  1   force =     0.00416774    0.00884798    0.00041922
     atom   19 type  1   force =    -0.00142512   -0.01197158    0.00092131
     atom   20 type  1   force =     0.00005983   -0.00245987   -0.00041520
     atom   21 type  1   force =    -0.00085753    0.00239618   -0.00150208
     atom   22 type  2   force =     0.00160206   -0.00439444    0.00132696
     atom   23 type  2   force =     0.00407543    0.00380552   -0.00430187
     atom   24 type  1   force =     0.01940420   -0.04940659    0.00432003
     atom   25 type  1   force =     0.01399266    0.05636842    0.00098660
     atom   26 type  1   force =    -0.00051500   -0.00036699    0.00159680
     atom   27 type  3   force =    -0.00005463    0.00026474    0.00272237
     atom   28 type  3   force =     0.00001307   -0.00008086    0.00273955
     atom   29 type  3   force =     0.00255837    0.00031761    0.00329101
     atom   30 type  3   force =     0.00202399   -0.00023995    0.00307590
     atom   31 type  1   force =     0.00241173   -0.00005670    0.00255621
     atom   32 type  1   force =    -0.01294477   -0.01075477    0.00806475
     atom   33 type  3   force =     0.01375222    0.00889879   -0.01490183

     Total force =     0.032167     Total SCF correction =     0.000573


     entering subroutine stress ...


     negative rho (up, down):  0.210E-02 0.128E-02
=>> PBS: job killed: walltime 172812 exceeded limit 172800
mpirun: killing job...

---------------------------------------
Running PBS batch system epilogue script
Job id: 388553.audhumbla.fysik.dtu.dk
Username: zhonxu
Groupname: campgst
Jobname: MnO2/Eads-2-layers/OOH-U-1.5
Sessionid: 30534
Resources limits: neednodes=2:ppn=8:xeon8,nodes=2:ppn=8:xeon8,walltime=48:00:00
Resources used: cput=767:27:11,mem=17705648kb,vmem=21611548kb,walltime=48:00:13
Queuename: verylong
Accounting:
This job has allocated the following 16 nodes:
c013 c013 c013 c013 c013 c013 c013 c013 c005 c005 c005 c005 c005 c005 c005 c005
Finished epilogue job 388553.audhumbla.fysik.dtu.dk for zhonxu
