--------------------------------------------------------------------------
WARNING: It appears that your OpenFabrics subsystem is configured to only
allow registering part of your physical memory.  This can cause MPI jobs to
run with erratic performance, hang, and/or crash.

This may be caused by your OpenFabrics vendor limiting the amount of
physical memory that can be registered.  You should investigate the
relevant Linux kernel module parameters that control how much physical
memory can be registered, and increase them to allow registering all
physical memory on your machine.

See this Open MPI FAQ item for more information on these Linux kernel module
parameters:

    http://www.open-mpi.org/faq/?category=openfabrics#ib-locked-pages

  Local host:              g098.dcsc.fysik.dtu.dk
  Registerable memory:     4096 MiB
  Total memory:            131037 MiB

Your MPI job will continue, but may be behave poorly and/or hang.
--------------------------------------------------------------------------

     Program PWSCF v.5.0.2 (svn rev. 9656) starts on 28Mar2014 at 23:25:43 

     This program is part of the open-source Quantum ESPRESSO suite
     for quantum simulation of materials; please cite
         "P. Giannozzi et al., J. Phys.:Condens. Matter 21 395502 (2009);
          URL http://www.quantum-espresso.org", 
     in publications or presentations arising from this work. More details at
     http://www.quantum-espresso.org/quote.php

     Parallel version (MPI), running on    32 processors
     R & G space division:  proc/nbgrp/npool/nimage =      32

     Current dimensions of program PWSCF are:
     Max number of different atomic species (ntypx) = 10
     Max number of k-points (npk) =  40000
     Max angular momentum in pseudopotentials (lmaxx) =  3
     Reading input from pwscf.in
Warning: card &CELL ignored
Warning: card / ignored

     Subspace diagonalization in iterative solution of the eigenvalue problem:
     a serial algorithm will be used


     Parallelization info
     --------------------
     sticks:   dense  smooth     PW     G-vecs:    dense   smooth      PW
     Min         155      49     14                49791     8987    1348
     Max         156      50     15                49824     9042    1358
     Sum        4979    1589    451              1593815   288631   43339



     bravais-lattice index     =            0
     lattice parameter (alat)  =      10.7336  a.u.
     unit-cell volume          =    8441.1435 (a.u.)^3
     number of atoms/cell      =           50
     number of atomic types    =            3
     number of electrons       =       439.00
     number of Kohn-Sham states=          634
     kinetic-energy cutoff     =      40.0000  Ry
     charge density cutoff     =     500.0000  Ry
     convergence threshold     =      1.0E-06
     mixing beta               =       0.3000
     number of iterations used =            8  plain     mixing
     Exchange-correlation      = SLA  PW   PBE  PBE ( 1 4 3 4 0)
     EXX-fraction              =        0.00
     nstep                     =           50


     celldm(1)=  10.733644  celldm(2)=   0.000000  celldm(3)=   0.000000
     celldm(4)=   0.000000  celldm(5)=   0.000000  celldm(6)=   0.000000

     crystal axes: (cart. coord. in units of alat)
               a(1) = (   1.000000   0.000000   0.000000 )  
               a(2) = (   0.000000   1.085558   0.000000 )  
               a(3) = (   0.000000   0.000000   6.287913 )  

     reciprocal axes: (cart. coord. in units 2 pi/alat)
               b(1) = (  1.000000  0.000000  0.000000 )  
               b(2) = (  0.000000  0.921185  0.000000 )  
               b(3) = (  0.000000  0.000000  0.159035 )  


     PseudoPot. # 1 for O  read from file:
     /home/camp/zhonxu/pseudo/o_pbe_v1.01.uspp.F.UPF
     MD5 check sum: 2bcb18d16ea4b960afae9ec6d52f22d2
     Pseudo is Ultrasoft + core correction, Zval =  6.0
     Generated by new atomic code, or converted to UPF format
     Using radial grid of  737 points,  5 beta functions with: 
                l(1) =   0
                l(2) =   0
                l(3) =   1
                l(4) =   1
                l(5) =   2
     Q(r) pseudized with  8 coefficients,  rinner =    0.900   0.900   0.900
                                                       0.900   0.900

     PseudoPot. # 2 for Mn read from file:
     /home/camp/zhonxu/pseudo/mn_pbe_v1.uspp.F.UPF
     MD5 check sum: 5fd7c7b5c956fd19902447332617373a
     Pseudo is Ultrasoft + core correction, Zval = 15.0
     Generated by new atomic code, or converted to UPF format
     Using radial grid of  859 points,  6 beta functions with: 
                l(1) =   0
                l(2) =   0
                l(3) =   1
                l(4) =   1
                l(5) =   2
                l(6) =   2
     Q(r) pseudized with  6 coefficients,  rinner =    1.150   1.150   1.150
                                                       1.150   1.150

     PseudoPot. # 3 for H  read from file:
     /home/camp/zhonxu/pseudo/h_pbe_v1.uspp.F.UPF
     MD5 check sum: 3408e3ff4ec8b0a4e358431e7e038a48
     Pseudo is Ultrasoft, Zval =  1.0
     Generated by new atomic code, or converted to UPF format
     Using radial grid of  615 points,  2 beta functions with: 
                l(1) =   0
                l(2) =   0
     Q(r) pseudized with  8 coefficients,  rinner =    0.700

     atomic species   valence    mass     pseudopotential
        O0             6.00    15.99940     O ( 1.00)
        Mn1           15.00    54.93800     Mn( 1.00)
        H2             1.00     1.00794     H ( 1.00)

     Starting magnetic structure 
     atomic species   magnetization
        O0           0.000
        Mn1          0.600
        H2           0.000

      2 Sym. Ops. (no inversion) found



   Cartesian axes

     site n.     atom                  positions (alat units)
         1           O0  tau(   1) = (   0.0000000   0.5427791   2.1126758  )
         2           Mn1 tau(   2) = (   0.2500000   0.5427791   2.3297975  )
         3           Mn1 tau(   3) = (   0.0000000   0.0000000   2.3297975  )
         4           O0  tau(   4) = (   0.2500000   0.8684466   2.3297975  )
         5           O0  tau(   5) = (   0.2500000   0.2171117   2.3297975  )
         6           O0  tau(   6) = (   0.0000000   0.5427791   2.5469191  )
         7           O0  tau(   7) = (   0.0000000   0.0000000   2.6554485  )
         8           Mn1 tau(   8) = (   0.2500000   0.0000000   2.8725701  )
         9           Mn1 tau(   9) = (   0.0000000   0.5427791   2.8725701  )
        10           O0  tau(  10) = (   0.2500000   0.7598908   2.8725701  )
        11           O0  tau(  11) = (   0.2500000   0.3256675   2.8725701  )
        12           O0  tau(  12) = (   0.0000000   0.0000000   3.0896918  )
        13           O0  tau(  13) = (   0.0000000   0.5427791   3.2135008  )
        14           Mn1 tau(  14) = (   0.2500000   0.5427791   3.4260951  )
        15           Mn1 tau(  15) = (   0.0000000   0.0000000   3.4385452  )
        16           O0  tau(  16) = (   0.2500000   0.8725500   3.4318171  )
        17           O0  tau(  17) = (   0.2500000   0.2130082   3.4318171  )
        18           O0  tau(  18) = (   0.0000000   0.5427791   3.6504478  )
        19           O0  tau(  19) = (   0.0000000   0.0000000   3.7729364  )
        20           Mn1 tau(  20) = (   0.2500000   0.0000000   4.0049603  )
        21           Mn1 tau(  21) = (   0.0000000   0.5427791   3.9730178  )
        22           O0  tau(  22) = (   0.2500000   0.7495129   4.0272824  )
        23           O0  tau(  23) = (   0.2500000   0.3360454   4.0272824  )
        24           O0  tau(  24) = (   0.0000000   0.0000000   4.2046645  )
        25           O0  tau(  25) = (   0.5000000   0.5427791   2.1126758  )
        26           Mn1 tau(  26) = (   0.7500000   0.5427791   2.3297975  )
        27           Mn1 tau(  27) = (   0.5000000   0.0000000   2.3297975  )
        28           O0  tau(  28) = (   0.7500000   0.8684466   2.3297975  )
        29           O0  tau(  29) = (   0.7500000   0.2171117   2.3297975  )
        30           O0  tau(  30) = (   0.5000000   0.5427791   2.5469191  )
        31           O0  tau(  31) = (   0.5000000   0.0000000   2.6554485  )
        32           Mn1 tau(  32) = (   0.7500000   0.0000000   2.8725701  )
        33           Mn1 tau(  33) = (   0.5000000   0.5427791   2.8725701  )
        34           O0  tau(  34) = (   0.7500000   0.7598908   2.8725701  )
        35           O0  tau(  35) = (   0.7500000   0.3256675   2.8725701  )
        36           O0  tau(  36) = (   0.5000000   0.0000000   3.0896918  )
        37           O0  tau(  37) = (   0.5000000   0.5427791   3.2135008  )
        38           Mn1 tau(  38) = (   0.7500000   0.5427791   3.4260951  )
        39           Mn1 tau(  39) = (   0.5000000   0.0000000   3.4385452  )
        40           O0  tau(  40) = (   0.7500000   0.8725500   3.4318171  )
        41           O0  tau(  41) = (   0.7500000   0.2130082   3.4318171  )
        42           O0  tau(  42) = (   0.5000000   0.5427791   3.6504478  )
        43           O0  tau(  43) = (   0.5000000   0.0000000   3.7729364  )
        44           Mn1 tau(  44) = (   0.7500000   0.0000000   4.0049603  )
        45           Mn1 tau(  45) = (   0.5000000   0.5427791   3.9730178  )
        46           O0  tau(  46) = (   0.7500000   0.7495129   4.0272824  )
        47           O0  tau(  47) = (   0.7500000   0.3360454   4.0272824  )
        48           O0  tau(  48) = (   0.5000000   0.0000000   4.2046645  )
        49           O0  tau(  49) = (   0.5000000   0.5427791   4.2117069  )
        50           H2  tau(  50) = (   0.3503500   0.5427791   4.2733285  )

     number of k points=    18  Methfessel-Paxton smearing, width (Ry)=  0.0100
                       cart. coord. in units 2pi/alat
        k(    1) = (   0.0000000   0.0000000   0.0000000), wk =   0.0625000
        k(    2) = (   0.0000000   0.2302962   0.0000000), wk =   0.1250000
        k(    3) = (   0.0000000  -0.4605925   0.0000000), wk =   0.0625000
        k(    4) = (   0.2500000   0.0000000   0.0000000), wk =   0.1250000
        k(    5) = (   0.2500000   0.2302962   0.0000000), wk =   0.2500000
        k(    6) = (   0.2500000  -0.4605925   0.0000000), wk =   0.1250000
        k(    7) = (  -0.5000000   0.0000000   0.0000000), wk =   0.0625000
        k(    8) = (  -0.5000000   0.2302962   0.0000000), wk =   0.1250000
        k(    9) = (  -0.5000000  -0.4605925   0.0000000), wk =   0.0625000
        k(   10) = (   0.0000000   0.0000000   0.0000000), wk =   0.0625000
        k(   11) = (   0.0000000   0.2302962   0.0000000), wk =   0.1250000
        k(   12) = (   0.0000000  -0.4605925   0.0000000), wk =   0.0625000
        k(   13) = (   0.2500000   0.0000000   0.0000000), wk =   0.1250000
        k(   14) = (   0.2500000   0.2302962   0.0000000), wk =   0.2500000
        k(   15) = (   0.2500000  -0.4605925   0.0000000), wk =   0.1250000
        k(   16) = (  -0.5000000   0.0000000   0.0000000), wk =   0.0625000
        k(   17) = (  -0.5000000   0.2302962   0.0000000), wk =   0.1250000
        k(   18) = (  -0.5000000  -0.4605925   0.0000000), wk =   0.0625000

     Dense  grid:  1593815 G-vectors     FFT dimensions: (  80,  90, 486)

     Smooth grid:   288631 G-vectors     FFT dimensions: (  45,  48, 288)

     Largest allocated arrays     est. size (Mb)     dimensions
        Kohn-Sham Wavefunctions        11.44 Mb     (   1183,  634)
        NL pseudopotentials            12.98 Mb     (   1183,  719)
        Each V/rho on FFT grid          3.52 Mb     ( 115200,   2)
        Each G-vector array             0.38 Mb     (  49806)
        G-vector shells                 0.19 Mb     (  24981)
     Largest temporary arrays     est. size (Mb)     dimensions
        Auxiliary wavefunctions        45.78 Mb     (   1183, 2536)
        Each subspace H/S matrix       98.13 Mb     (2536,2536)
        Each <psi_i|beta_j> matrix      6.96 Mb     (    719,  634)
        Arrays for rho mixing          14.06 Mb     ( 115200,   8)
[g098.dcsc.fysik.dtu.dk:11676] 31 more processes have sent help message help-mpi-btl-openib.txt / reg mem limit low
[g098.dcsc.fysik.dtu.dk:11676] Set MCA parameter "orte_base_help_aggregate" to 0 to see all help / error messages

     Check: negative/imaginary core charge=   -0.000028    0.000000

     Initial potential from superposition of free atoms
     Check: negative starting charge=(component1):   -0.001021
     Check: negative starting charge=(component2):   -0.000315

     starting charge  422.99981, renormalised to  439.00000

     negative rho (up, down):  0.106E-02 0.327E-03
     Starting wfc are  341 randomized atomic wfcs

     total cpu time spent up to now is      134.0 secs

     Self-consistent Calculation

     iteration #  1     ecut=    40.00 Ry     beta=0.30
     Davidson diagonalization with overlap
     ethr =  1.00E-02,  avg # of iterations =  5.6

     negative rho (up, down):  0.987E-03 0.691E-03

     total cpu time spent up to now is     2798.0 secs

     total energy              =   -4380.86747523 Ry
     Harris-Foulkes estimate   =   -4468.64330551 Ry
     estimated scf accuracy    <     196.43692714 Ry

     total magnetization       =    52.02 Bohr mag/cell
     absolute magnetization    =    60.38 Bohr mag/cell

     iteration #  2     ecut=    40.00 Ry     beta=0.30
     Davidson diagonalization with overlap
     ethr =  1.00E-02,  avg # of iterations =  7.0

     negative rho (up, down):  0.404E-02 0.233E-02

     total cpu time spent up to now is     4974.8 secs

     total energy              =   -3902.52344945 Ry
     Harris-Foulkes estimate   =   -5383.29798384 Ry
     estimated scf accuracy    <   45686.93418185 Ry

     total magnetization       =    18.51 Bohr mag/cell
     absolute magnetization    =    19.34 Bohr mag/cell

     iteration #  3     ecut=    40.00 Ry     beta=0.30
     Davidson diagonalization with overlap
     ethr =  1.00E-02,  avg # of iterations =  6.0

     negative rho (up, down):  0.808E-02 0.460E-02

     total cpu time spent up to now is     7009.9 secs

     total energy              =   -4432.58138044 Ry
     Harris-Foulkes estimate   =   -4497.04231759 Ry
     estimated scf accuracy    <    2497.97552203 Ry

     total magnetization       =    21.33 Bohr mag/cell
     absolute magnetization    =    28.25 Bohr mag/cell

     iteration #  4     ecut=    40.00 Ry     beta=0.30
     Davidson diagonalization with overlap
     ethr =  1.00E-02,  avg # of iterations =  5.0

     negative rho (up, down):  0.993E-02 0.928E-02

     total cpu time spent up to now is     8081.0 secs

     total energy              =   -4451.52675500 Ry
     Harris-Foulkes estimate   =   -4480.91356498 Ry
     estimated scf accuracy    <     569.31016572 Ry

     total magnetization       =    30.73 Bohr mag/cell
     absolute magnetization    =    36.99 Bohr mag/cell

     iteration #  5     ecut=    40.00 Ry     beta=0.30
     Davidson diagonalization with overlap
     ethr =  1.00E-02,  avg # of iterations =  2.6

     negative rho (up, down):  0.654E-02 0.587E-02

     total cpu time spent up to now is     8657.9 secs

     total energy              =   -4469.34110888 Ry
     Harris-Foulkes estimate   =   -4469.85488919 Ry
     estimated scf accuracy    <      28.81973086 Ry

     total magnetization       =    48.53 Bohr mag/cell
     absolute magnetization    =    62.15 Bohr mag/cell

     iteration #  6     ecut=    40.00 Ry     beta=0.30
     Davidson diagonalization with overlap
     ethr =  6.56E-03,  avg # of iterations =  1.0

     negative rho (up, down):  0.476E-02 0.368E-02

     total cpu time spent up to now is     9046.2 secs

     total energy              =   -4470.71228431 Ry
     Harris-Foulkes estimate   =   -4471.29650656 Ry
     estimated scf accuracy    <      12.51045466 Ry

     total magnetization       =    47.32 Bohr mag/cell
     absolute magnetization    =    60.78 Bohr mag/cell

     iteration #  7     ecut=    40.00 Ry     beta=0.30
     Davidson diagonalization with overlap
     ethr =  2.85E-03,  avg # of iterations =  3.6

     negative rho (up, down):  0.378E-02 0.233E-02

     total cpu time spent up to now is     9741.5 secs

     total energy              =   -4471.21765946 Ry
     Harris-Foulkes estimate   =   -4472.55016434 Ry
     estimated scf accuracy    <      38.61541392 Ry

     total magnetization       =    49.70 Bohr mag/cell
     absolute magnetization    =    57.69 Bohr mag/cell

     iteration #  8     ecut=    40.00 Ry     beta=0.30
     Davidson diagonalization with overlap
     ethr =  2.85E-03,  avg # of iterations =  1.9

     negative rho (up, down):  0.367E-02 0.163E-02

     total cpu time spent up to now is    10239.2 secs

     total energy              =   -4471.91008399 Ry
     Harris-Foulkes estimate   =   -4472.20305661 Ry
     estimated scf accuracy    <      13.68861804 Ry

     total magnetization       =    46.99 Bohr mag/cell
     absolute magnetization    =    56.35 Bohr mag/cell

     iteration #  9     ecut=    40.00 Ry     beta=0.30
     Davidson diagonalization with overlap
     ethr =  2.85E-03,  avg # of iterations =  1.0

     negative rho (up, down):  0.318E-02 0.132E-02

     total cpu time spent up to now is    10631.9 secs

     total energy              =   -4472.09843450 Ry
     Harris-Foulkes estimate   =   -4472.08893660 Ry
     estimated scf accuracy    <       5.67081968 Ry

     total magnetization       =    47.00 Bohr mag/cell
     absolute magnetization    =    55.21 Bohr mag/cell

     iteration # 10     ecut=    40.00 Ry     beta=0.30
     Davidson diagonalization with overlap
     ethr =  1.29E-03,  avg # of iterations =  3.4

     negative rho (up, down):  0.424E-02 0.261E-02

     total cpu time spent up to now is    11286.1 secs

     total energy              =   -4471.98180270 Ry
     Harris-Foulkes estimate   =   -4472.33591674 Ry
     estimated scf accuracy    <      16.78363413 Ry

     total magnetization       =    43.02 Bohr mag/cell
     absolute magnetization    =    51.17 Bohr mag/cell

     iteration # 11     ecut=    40.00 Ry     beta=0.30
     Davidson diagonalization with overlap
     ethr =  1.29E-03,  avg # of iterations =  4.1

     negative rho (up, down):  0.377E-02 0.195E-02

     total cpu time spent up to now is    12042.8 secs

     total energy              =   -4472.21903763 Ry
     Harris-Foulkes estimate   =   -4472.28971459 Ry
     estimated scf accuracy    <       1.15694686 Ry

     total magnetization       =    47.01 Bohr mag/cell
     absolute magnetization    =    51.67 Bohr mag/cell

     iteration # 12     ecut=    40.00 Ry     beta=0.30
     Davidson diagonalization with overlap
     ethr =  2.64E-04,  avg # of iterations =  5.2

     negative rho (up, down):  0.323E-02 0.154E-02

     total cpu time spent up to now is    12957.5 secs

     total energy              =   -4472.18731078 Ry
     Harris-Foulkes estimate   =   -4472.26930041 Ry
     estimated scf accuracy    <       1.00257127 Ry

     total magnetization       =    46.79 Bohr mag/cell
     absolute magnetization    =    51.07 Bohr mag/cell

     iteration # 13     ecut=    40.00 Ry     beta=0.30
     Davidson diagonalization with overlap
     ethr =  2.28E-04,  avg # of iterations =  4.2

     negative rho (up, down):  0.250E-02 0.139E-02

     total cpu time spent up to now is    13711.8 secs

     total energy              =   -4472.24069967 Ry
     Harris-Foulkes estimate   =   -4472.31097902 Ry
     estimated scf accuracy    <       1.76543409 Ry

     total magnetization       =    46.84 Bohr mag/cell
     absolute magnetization    =    50.49 Bohr mag/cell

     iteration # 14     ecut=    40.00 Ry     beta=0.30
     Davidson diagonalization with overlap
     ethr =  2.28E-04,  avg # of iterations =  1.0

     negative rho (up, down):  0.264E-02 0.143E-02

     total cpu time spent up to now is    14101.2 secs

     total energy              =   -4472.26605527 Ry
     Harris-Foulkes estimate   =   -4472.27345018 Ry
     estimated scf accuracy    <       0.18875686 Ry

     total magnetization       =    46.89 Bohr mag/cell
     absolute magnetization    =    50.20 Bohr mag/cell

     iteration # 15     ecut=    40.00 Ry     beta=0.30
     Davidson diagonalization with overlap
     ethr =  4.30E-05,  avg # of iterations =  5.4

     negative rho (up, down):  0.246E-02 0.135E-02

     total cpu time spent up to now is    15001.0 secs

     total energy              =   -4472.27995168 Ry
     Harris-Foulkes estimate   =   -4472.27582590 Ry
     estimated scf accuracy    <       0.11124285 Ry

     total magnetization       =    46.82 Bohr mag/cell
     absolute magnetization    =    49.81 Bohr mag/cell

     iteration # 16     ecut=    40.00 Ry     beta=0.30
     Davidson diagonalization with overlap
     ethr =  2.53E-05,  avg # of iterations =  3.8

     negative rho (up, down):  0.237E-02 0.129E-02

     total cpu time spent up to now is    15707.8 secs

     total energy              =   -4472.28377508 Ry
     Harris-Foulkes estimate   =   -4472.28583494 Ry
     estimated scf accuracy    <       0.04791481 Ry

     total magnetization       =    46.61 Bohr mag/cell
     absolute magnetization    =    49.31 Bohr mag/cell

     iteration # 17     ecut=    40.00 Ry     beta=0.30
     Davidson diagonalization with overlap
     ethr =  1.09E-05,  avg # of iterations =  5.4

     negative rho (up, down):  0.267E-02 0.136E-02

     total cpu time spent up to now is    16625.9 secs

     total energy              =   -4472.28976563 Ry
     Harris-Foulkes estimate   =   -4472.29175300 Ry
     estimated scf accuracy    <       0.17685885 Ry

     total magnetization       =    46.67 Bohr mag/cell
     absolute magnetization    =    49.32 Bohr mag/cell

     iteration # 18     ecut=    40.00 Ry     beta=0.30
     Davidson diagonalization with overlap
     ethr =  1.09E-05,  avg # of iterations =  5.5

     negative rho (up, down):  0.445E-02 0.291E-02

     total cpu time spent up to now is    17554.2 secs

     total energy              =   -4472.29475548 Ry
     Harris-Foulkes estimate   =   -4472.29476776 Ry
     estimated scf accuracy    <       0.02272318 Ry

     total magnetization       =    46.71 Bohr mag/cell
     absolute magnetization    =    48.96 Bohr mag/cell

     iteration # 19     ecut=    40.00 Ry     beta=0.30
     Davidson diagonalization with overlap
     ethr =  5.18E-06,  avg # of iterations =  5.7

     negative rho (up, down):  0.425E-02 0.284E-02

     total cpu time spent up to now is    18510.3 secs

     total energy              =   -4472.29645999 Ry
     Harris-Foulkes estimate   =   -4472.29704330 Ry
     estimated scf accuracy    <       0.00712071 Ry

     total magnetization       =    46.64 Bohr mag/cell
     absolute magnetization    =    48.70 Bohr mag/cell

     iteration # 20     ecut=    40.00 Ry     beta=0.30
     Davidson diagonalization with overlap
     ethr =  1.62E-06,  avg # of iterations =  6.7

     negative rho (up, down):  0.490E-02 0.369E-02

     total cpu time spent up to now is    19576.7 secs

     total energy              =   -4472.29677319 Ry
     Harris-Foulkes estimate   =   -4472.29795383 Ry
     estimated scf accuracy    <       0.05421435 Ry

     total magnetization       =    46.77 Bohr mag/cell
     absolute magnetization    =    48.78 Bohr mag/cell

     iteration # 21     ecut=    40.00 Ry     beta=0.30
     Davidson diagonalization with overlap
     ethr =  1.62E-06,  avg # of iterations =  3.7

     negative rho (up, down):  0.509E-02 0.392E-02

     total cpu time spent up to now is    20265.3 secs

     total energy              =   -4472.29802568 Ry
     Harris-Foulkes estimate   =   -4472.29777090 Ry
     estimated scf accuracy    <       0.00307819 Ry

     total magnetization       =    46.63 Bohr mag/cell
     absolute magnetization    =    48.58 Bohr mag/cell

     iteration # 22     ecut=    40.00 Ry     beta=0.30
     Davidson diagonalization with overlap
     ethr =  7.01E-07,  avg # of iterations =  1.0

     negative rho (up, down):  0.493E-02 0.373E-02

     total cpu time spent up to now is    20655.3 secs

     total energy              =   -4472.29833004 Ry
     Harris-Foulkes estimate   =   -4472.29826048 Ry
     estimated scf accuracy    <       0.00136557 Ry

     total magnetization       =    46.65 Bohr mag/cell
     absolute magnetization    =    48.54 Bohr mag/cell

     iteration # 23     ecut=    40.00 Ry     beta=0.30
     Davidson diagonalization with overlap
     ethr =  3.11E-07,  avg # of iterations =  1.0

     negative rho (up, down):  0.425E-02 0.287E-02

     total cpu time spent up to now is    21048.1 secs

     total energy              =   -4472.29857518 Ry
     Harris-Foulkes estimate   =   -4472.29851998 Ry
     estimated scf accuracy    <       0.00282934 Ry

     total magnetization       =    46.65 Bohr mag/cell
     absolute magnetization    =    48.51 Bohr mag/cell

     iteration # 24     ecut=    40.00 Ry     beta=0.30
     Davidson diagonalization with overlap
     ethr =  3.11E-07,  avg # of iterations =  1.2

     negative rho (up, down):  0.441E-02 0.307E-02

     total cpu time spent up to now is    21457.5 secs

     total energy              =   -4472.29876484 Ry
     Harris-Foulkes estimate   =   -4472.29877713 Ry
     estimated scf accuracy    <       0.00052772 Ry

     total magnetization       =    46.61 Bohr mag/cell
     absolute magnetization    =    48.40 Bohr mag/cell

     iteration # 25     ecut=    40.00 Ry     beta=0.30
     Davidson diagonalization with overlap
     ethr =  1.20E-07,  avg # of iterations =  1.1

     negative rho (up, down):  0.405E-02 0.260E-02

     total cpu time spent up to now is    21853.6 secs

     total energy              =   -4472.29882188 Ry
     Harris-Foulkes estimate   =   -4472.29885865 Ry
     estimated scf accuracy    <       0.00123240 Ry

     total magnetization       =    46.64 Bohr mag/cell
     absolute magnetization    =    48.40 Bohr mag/cell

     iteration # 26     ecut=    40.00 Ry     beta=0.30
     Davidson diagonalization with overlap
     ethr =  1.20E-07,  avg # of iterations =  1.5

     negative rho (up, down):  0.376E-02 0.226E-02

     total cpu time spent up to now is    22300.3 secs

     total energy              =   -4472.29889726 Ry
     Harris-Foulkes estimate   =   -4472.29891732 Ry
     estimated scf accuracy    <       0.00062724 Ry

     total magnetization       =    46.59 Bohr mag/cell
     absolute magnetization    =    48.32 Bohr mag/cell

     iteration # 27     ecut=    40.00 Ry     beta=0.30
     Davidson diagonalization with overlap
     ethr =  1.20E-07,  avg # of iterations =  1.0

     negative rho (up, down):  0.373E-02 0.222E-02

     total cpu time spent up to now is    22691.2 secs

     total energy              =   -4472.29891787 Ry
     Harris-Foulkes estimate   =   -4472.29893423 Ry
     estimated scf accuracy    <       0.00068178 Ry

     total magnetization       =    46.60 Bohr mag/cell
     absolute magnetization    =    48.33 Bohr mag/cell

     iteration # 28     ecut=    40.00 Ry     beta=0.30
     Davidson diagonalization with overlap
     ethr =  1.20E-07,  avg # of iterations =  1.0

     negative rho (up, down):  0.350E-02 0.195E-02

     total cpu time spent up to now is    23080.9 secs

     total energy              =   -4472.29895467 Ry
     Harris-Foulkes estimate   =   -4472.29893755 Ry
     estimated scf accuracy    <       0.00009840 Ry

     total magnetization       =    46.60 Bohr mag/cell
     absolute magnetization    =    48.33 Bohr mag/cell

     iteration # 29     ecut=    40.00 Ry     beta=0.30
     Davidson diagonalization with overlap
     ethr =  2.24E-08,  avg # of iterations =  1.2

     negative rho (up, down):  0.340E-02 0.184E-02

     total cpu time spent up to now is    23495.2 secs

     total energy              =   -4472.29896854 Ry
     Harris-Foulkes estimate   =   -4472.29896606 Ry
     estimated scf accuracy    <       0.00008705 Ry

     total magnetization       =    46.59 Bohr mag/cell
     absolute magnetization    =    48.31 Bohr mag/cell

     iteration # 30     ecut=    40.00 Ry     beta=0.30
     Davidson diagonalization with overlap
     ethr =  1.98E-08,  avg # of iterations =  1.5

     negative rho (up, down):  0.342E-02 0.186E-02

     total cpu time spent up to now is    23943.2 secs

     total energy              =   -4472.29895601 Ry
     Harris-Foulkes estimate   =   -4472.29899421 Ry
     estimated scf accuracy    <       0.00081163 Ry

     total magnetization       =    46.60 Bohr mag/cell
     absolute magnetization    =    48.31 Bohr mag/cell

     iteration # 31     ecut=    40.00 Ry     beta=0.30
     Davidson diagonalization with overlap
     ethr =  1.98E-08,  avg # of iterations =  1.6

     negative rho (up, down):  0.329E-02 0.172E-02

     total cpu time spent up to now is    24398.7 secs

     total energy              =   -4472.29898547 Ry
     Harris-Foulkes estimate   =   -4472.29898093 Ry
     estimated scf accuracy    <       0.00032070 Ry

     total magnetization       =    46.57 Bohr mag/cell
     absolute magnetization    =    48.29 Bohr mag/cell

     iteration # 32     ecut=    40.00 Ry     beta=0.30
     Davidson diagonalization with overlap
     ethr =  1.98E-08,  avg # of iterations =  1.3

     negative rho (up, down):  0.327E-02 0.170E-02

     total cpu time spent up to now is    24818.0 secs

     total energy              =   -4472.29899874 Ry
     Harris-Foulkes estimate   =   -4472.29899501 Ry
     estimated scf accuracy    <       0.00003944 Ry

     total magnetization       =    46.57 Bohr mag/cell
     absolute magnetization    =    48.28 Bohr mag/cell

     iteration # 33     ecut=    40.00 Ry     beta=0.30
     Davidson diagonalization with overlap
     ethr =  8.98E-09,  avg # of iterations =  1.0

     negative rho (up, down):  0.321E-02 0.164E-02

     total cpu time spent up to now is    25207.3 secs

     total energy              =   -4472.29900508 Ry
     Harris-Foulkes estimate   =   -4472.29900214 Ry
     estimated scf accuracy    <       0.00008623 Ry

     total magnetization       =    46.57 Bohr mag/cell
     absolute magnetization    =    48.28 Bohr mag/cell

     iteration # 34     ecut=    40.00 Ry     beta=0.30
     Davidson diagonalization with overlap
     ethr =  8.98E-09,  avg # of iterations =  1.7

     negative rho (up, down):  0.322E-02 0.165E-02

     total cpu time spent up to now is    25671.4 secs

     total energy              =   -4472.29901144 Ry
     Harris-Foulkes estimate   =   -4472.29901116 Ry
     estimated scf accuracy    <       0.00003252 Ry

     total magnetization       =    46.55 Bohr mag/cell
     absolute magnetization    =    48.27 Bohr mag/cell

     iteration # 35     ecut=    40.00 Ry     beta=0.30
     Davidson diagonalization with overlap
     ethr =  7.41E-09,  avg # of iterations =  1.0

     negative rho (up, down):  0.321E-02 0.164E-02

     total cpu time spent up to now is    26062.1 secs

     total energy              =   -4472.29901630 Ry
     Harris-Foulkes estimate   =   -4472.29901324 Ry
     estimated scf accuracy    <       0.00002171 Ry

     total magnetization       =    46.56 Bohr mag/cell
     absolute magnetization    =    48.27 Bohr mag/cell

     iteration # 36     ecut=    40.00 Ry     beta=0.30
     Davidson diagonalization with overlap
     ethr =  4.95E-09,  avg # of iterations =  2.0

     negative rho (up, down):  0.322E-02 0.165E-02

     total cpu time spent up to now is    26562.6 secs

     total energy              =   -4472.29902102 Ry
     Harris-Foulkes estimate   =   -4472.29902008 Ry
     estimated scf accuracy    <       0.00004193 Ry

     total magnetization       =    46.54 Bohr mag/cell
     absolute magnetization    =    48.26 Bohr mag/cell

     iteration # 37     ecut=    40.00 Ry     beta=0.30
     Davidson diagonalization with overlap
     ethr =  4.95E-09,  avg # of iterations =  1.0

     negative rho (up, down):  0.321E-02 0.164E-02

     total cpu time spent up to now is    26952.1 secs

     total energy              =   -4472.29902193 Ry
     Harris-Foulkes estimate   =   -4472.29902343 Ry
     estimated scf accuracy    <       0.00006045 Ry

     total magnetization       =    46.54 Bohr mag/cell
     absolute magnetization    =    48.26 Bohr mag/cell

     iteration # 38     ecut=    40.00 Ry     beta=0.30
     Davidson diagonalization with overlap
     ethr =  4.95E-09,  avg # of iterations =  1.0

     negative rho (up, down):  0.322E-02 0.165E-02

     total cpu time spent up to now is    27341.1 secs

     total energy              =   -4472.29902678 Ry
     Harris-Foulkes estimate   =   -4472.29902470 Ry
     estimated scf accuracy    <       0.00001671 Ry

     total magnetization       =    46.54 Bohr mag/cell
     absolute magnetization    =    48.26 Bohr mag/cell

     iteration # 39     ecut=    40.00 Ry     beta=0.30
     Davidson diagonalization with overlap
     ethr =  3.81E-09,  avg # of iterations =  2.0

     negative rho (up, down):  0.324E-02 0.166E-02

     total cpu time spent up to now is    27841.5 secs

     total energy              =   -4472.29902975 Ry
     Harris-Foulkes estimate   =   -4472.29902997 Ry
     estimated scf accuracy    <       0.00001816 Ry

     total magnetization       =    46.52 Bohr mag/cell
     absolute magnetization    =    48.25 Bohr mag/cell

     iteration # 40     ecut=    40.00 Ry     beta=0.30
     Davidson diagonalization with overlap
     ethr =  3.81E-09,  avg # of iterations =  2.0

     negative rho (up, down):  0.324E-02 0.167E-02

     total cpu time spent up to now is    28345.5 secs

     total energy              =   -4472.29903126 Ry
     Harris-Foulkes estimate   =   -4472.29903515 Ry
     estimated scf accuracy    <       0.00005287 Ry

     total magnetization       =    46.51 Bohr mag/cell
     absolute magnetization    =    48.24 Bohr mag/cell

     iteration # 41     ecut=    40.00 Ry     beta=0.30
     Davidson diagonalization with overlap
     ethr =  3.81E-09,  avg # of iterations =  1.0

     negative rho (up, down):  0.325E-02 0.168E-02

     total cpu time spent up to now is    28738.5 secs

     total energy              =   -4472.29903377 Ry
     Harris-Foulkes estimate   =   -4472.29903430 Ry
     estimated scf accuracy    <       0.00007569 Ry

     total magnetization       =    46.51 Bohr mag/cell
     absolute magnetization    =    48.24 Bohr mag/cell

     iteration # 42     ecut=    40.00 Ry     beta=0.30
     Davidson diagonalization with overlap
     ethr =  3.81E-09,  avg # of iterations =  2.0

     negative rho (up, down):  0.326E-02 0.169E-02

     total cpu time spent up to now is    29239.8 secs

     total energy              =   -4472.29903792 Ry
     Harris-Foulkes estimate   =   -4472.29903698 Ry
     estimated scf accuracy    <       0.00001079 Ry

     total magnetization       =    46.51 Bohr mag/cell
     absolute magnetization    =    48.23 Bohr mag/cell

     iteration # 43     ecut=    40.00 Ry     beta=0.30
     Davidson diagonalization with overlap
     ethr =  2.46E-09,  avg # of iterations =  1.0

     negative rho (up, down):  0.328E-02 0.171E-02

     total cpu time spent up to now is    29628.5 secs

     total energy              =   -4472.29903975 Ry
     Harris-Foulkes estimate   =   -4472.29903883 Ry
     estimated scf accuracy    <       0.00001842 Ry

     total magnetization       =    46.50 Bohr mag/cell
     absolute magnetization    =    48.23 Bohr mag/cell

     iteration # 44     ecut=    40.00 Ry     beta=0.30
     Davidson diagonalization with overlap
     ethr =  2.46E-09,  avg # of iterations =  2.0

     negative rho (up, down):  0.328E-02 0.171E-02

     total cpu time spent up to now is    30132.5 secs

     total energy              =   -4472.29904275 Ry
     Harris-Foulkes estimate   =   -4472.29904269 Ry
     estimated scf accuracy    <       0.00001181 Ry

     total magnetization       =    46.49 Bohr mag/cell
     absolute magnetization    =    48.22 Bohr mag/cell

     iteration # 45     ecut=    40.00 Ry     beta=0.30
     Davidson diagonalization with overlap
     ethr =  2.46E-09,  avg # of iterations =  2.0

     negative rho (up, down):  0.330E-02 0.173E-02

     total cpu time spent up to now is    30632.0 secs

     total energy              =   -4472.29904474 Ry
     Harris-Foulkes estimate   =   -4472.29904425 Ry
     estimated scf accuracy    <       0.00000781 Ry

     total magnetization       =    46.49 Bohr mag/cell
     absolute magnetization    =    48.22 Bohr mag/cell

     iteration # 46     ecut=    40.00 Ry     beta=0.30
     Davidson diagonalization with overlap
     ethr =  1.78E-09,  avg # of iterations =  2.0

     negative rho (up, down):  0.332E-02 0.175E-02

     total cpu time spent up to now is    31136.8 secs

     total energy              =   -4472.29904593 Ry
     Harris-Foulkes estimate   =   -4472.29904757 Ry
     estimated scf accuracy    <       0.00001311 Ry

     total magnetization       =    46.47 Bohr mag/cell
     absolute magnetization    =    48.21 Bohr mag/cell

     iteration # 47     ecut=    40.00 Ry     beta=0.30
     Davidson diagonalization with overlap
     ethr =  1.78E-09,  avg # of iterations =  2.0

     negative rho (up, down):  0.331E-02 0.174E-02

     total cpu time spent up to now is    31643.0 secs

     total energy              =   -4472.29904846 Ry
     Harris-Foulkes estimate   =   -4472.29905031 Ry
     estimated scf accuracy    <       0.00002431 Ry

     total magnetization       =    46.46 Bohr mag/cell
     absolute magnetization    =    48.20 Bohr mag/cell

     iteration # 48     ecut=    40.00 Ry     beta=0.30
     Davidson diagonalization with overlap
     ethr =  1.78E-09,  avg # of iterations =  1.0

     negative rho (up, down):  0.332E-02 0.175E-02

     total cpu time spent up to now is    32032.9 secs

     total energy              =   -4472.29904973 Ry
     Harris-Foulkes estimate   =   -4472.29904972 Ry
     estimated scf accuracy    <       0.00000741 Ry

     total magnetization       =    46.46 Bohr mag/cell
     absolute magnetization    =    48.20 Bohr mag/cell

     iteration # 49     ecut=    40.00 Ry     beta=0.30
     Davidson diagonalization with overlap
     ethr =  1.69E-09,  avg # of iterations =  2.0

     negative rho (up, down):  0.332E-02 0.175E-02

     total cpu time spent up to now is    32529.0 secs

     total energy              =   -4472.29905070 Ry
     Harris-Foulkes estimate   =   -4472.29905096 Ry
     estimated scf accuracy    <       0.00000376 Ry

     total magnetization       =    46.45 Bohr mag/cell
     absolute magnetization    =    48.19 Bohr mag/cell

     iteration # 50     ecut=    40.00 Ry     beta=0.30
     Davidson diagonalization with overlap
     ethr =  8.56E-10,  avg # of iterations =  2.0

     negative rho (up, down):  0.331E-02 0.174E-02

     total cpu time spent up to now is    33034.3 secs

     total energy              =   -4472.29905182 Ry
     Harris-Foulkes estimate   =   -4472.29905196 Ry
     estimated scf accuracy    <       0.00000725 Ry

     total magnetization       =    46.45 Bohr mag/cell
     absolute magnetization    =    48.19 Bohr mag/cell

     iteration # 51     ecut=    40.00 Ry     beta=0.30
     Davidson diagonalization with overlap
     ethr =  8.56E-10,  avg # of iterations =  1.5

     negative rho (up, down):  0.332E-02 0.175E-02

     total cpu time spent up to now is    33480.2 secs

     total energy              =   -4472.29905022 Ry
     Harris-Foulkes estimate   =   -4472.29905245 Ry
     estimated scf accuracy    <       0.00001758 Ry

     total magnetization       =    46.45 Bohr mag/cell
     absolute magnetization    =    48.19 Bohr mag/cell

     iteration # 52     ecut=    40.00 Ry     beta=0.30
     Davidson diagonalization with overlap
     ethr =  8.56E-10,  avg # of iterations =  2.0

     negative rho (up, down):  0.331E-02 0.175E-02

     total cpu time spent up to now is    33989.5 secs

     total energy              =   -4472.29905287 Ry
     Harris-Foulkes estimate   =   -4472.29905278 Ry
     estimated scf accuracy    <       0.00000295 Ry

     total magnetization       =    46.44 Bohr mag/cell
     absolute magnetization    =    48.18 Bohr mag/cell

     iteration # 53     ecut=    40.00 Ry     beta=0.30
     Davidson diagonalization with overlap
     ethr =  6.72E-10,  avg # of iterations =  1.0

     negative rho (up, down):  0.331E-02 0.174E-02

     total cpu time spent up to now is    34377.5 secs

     total energy              =   -4472.29905307 Ry
     Harris-Foulkes estimate   =   -4472.29905313 Ry
     estimated scf accuracy    <       0.00000190 Ry

     total magnetization       =    46.44 Bohr mag/cell
     absolute magnetization    =    48.18 Bohr mag/cell

     iteration # 54     ecut=    40.00 Ry     beta=0.30
     Davidson diagonalization with overlap
     ethr =  4.32E-10,  avg # of iterations =  2.0

     negative rho (up, down):  0.330E-02 0.173E-02

     total cpu time spent up to now is    34878.8 secs

     total energy              =   -4472.29905323 Ry
     Harris-Foulkes estimate   =   -4472.29905346 Ry
     estimated scf accuracy    <       0.00000187 Ry

     total magnetization       =    46.44 Bohr mag/cell
     absolute magnetization    =    48.18 Bohr mag/cell

     iteration # 55     ecut=    40.00 Ry     beta=0.30
     Davidson diagonalization with overlap
     ethr =  4.25E-10,  avg # of iterations =  2.0

     negative rho (up, down):  0.330E-02 0.174E-02

     total cpu time spent up to now is    35387.6 secs

     total energy              =   -4472.29905363 Ry
     Harris-Foulkes estimate   =   -4472.29905389 Ry
     estimated scf accuracy    <       0.00000436 Ry

     total magnetization       =    46.43 Bohr mag/cell
     absolute magnetization    =    48.17 Bohr mag/cell

     iteration # 56     ecut=    40.00 Ry     beta=0.30
     Davidson diagonalization with overlap
     ethr =  4.25E-10,  avg # of iterations =  1.0

     negative rho (up, down):  0.330E-02 0.172E-02

     total cpu time spent up to now is    35776.5 secs

     End of self-consistent calculation

 ------ SPIN UP ------------


          k = 0.0000 0.0000 0.0000 ( 36065 PWs)   bands (ev):

   -82.5024 -82.4755 -82.4652 -82.2989 -82.2987 -82.2854 -82.2797 -82.2736
   -82.2616 -82.1944 -82.1842 -82.1360 -81.8738 -81.8637 -81.8341 -81.8160
   -52.3332 -51.3067 -51.1875 -51.1423 -51.1302 -51.1273 -51.1087 -51.1068
   -51.0747 -51.0632 -51.0299 -51.0171 -51.0089 -50.9862 -50.9764 -50.9662
   -50.9587 -50.9523 -50.9435 -50.9232 -50.9215 -50.9106 -50.9079 -50.9004
   -50.8794 -50.8657 -50.8489 -50.8407 -50.8329 -50.8265 -50.8259 -50.8228
   -50.8221 -50.8087 -50.8014 -50.7618 -50.6142 -50.6072 -50.6005 -50.5924
   -50.5263 -50.4996 -50.4935 -50.4831 -50.4821 -50.4639 -50.4435 -50.4195
   -22.6793 -20.2535 -19.9723 -19.5550 -19.4317 -19.1600 -18.8977 -18.7694
   -18.7311 -18.6966 -18.6607 -18.6348 -18.5956 -18.5605 -18.4722 -18.4557
   -18.4412 -18.3625 -18.3516 -18.3460 -18.3347 -18.3106 -18.2858 -18.2747
   -18.1844 -18.1315 -18.1236 -18.0545 -17.8328 -17.4832 -17.3814 -17.0614
   -16.9533 -11.0065  -8.4409  -8.3968  -8.2424  -8.1796  -8.1221  -7.9462
    -7.6138  -7.5348  -7.2746  -7.1576  -7.0218  -6.9761  -6.9668  -6.9169
    -6.8363  -6.8004  -6.7662  -6.7413  -6.7224  -6.6776  -6.5629  -6.5437
    -6.4715  -6.4308  -6.3592  -6.2681  -6.2550  -6.2254  -6.2011  -6.1827
    -6.1379  -6.1169  -6.0201  -5.9759  -5.9645  -5.9083  -5.6828  -5.6296
    -5.5393  -5.5129  -5.4599  -5.3793  -5.2724  -5.1139  -5.1002  -5.0825
    -5.0033  -4.8721  -4.8613  -4.8296  -4.7587  -4.6013  -4.5800  -4.5494
    -4.4982  -4.4723  -4.4174  -4.2831  -4.2197  -4.1958  -4.0809  -4.0304
    -3.9435  -3.9126  -3.8975  -3.8609  -3.8323  -3.7601  -3.6880  -3.6293
    -3.6177  -3.5929  -3.4985  -3.4644  -3.4384  -3.2476  -3.1838  -3.1623
    -3.1208  -3.1131  -3.0835  -2.9870  -2.9792  -2.9772  -2.9752  -2.9555
    -2.9075  -2.8895  -2.8755  -2.8293  -2.8187  -2.8052  -2.7468  -2.6526
    -2.5909  -2.5003  -2.4486  -2.4309  -2.3571  -2.3514  -2.3278  -2.3099
    -2.3055  -2.3030  -2.2698  -2.2539  -2.1313  -2.1299  -2.1009  -2.0242
    -1.8655  -1.8385  -1.8333  -1.7228  -1.6969  -1.6127  -1.5015  -1.4474
    -1.4101  -1.3910  -1.3581  -1.3249  -1.2912  -1.2806  -1.2307  -1.1739
    -1.1358  -1.0268  -1.0159  -0.9723  -0.9165  -0.8955  -0.8790  -0.6884
    -0.6322  -0.5007  -0.4993  -0.4656  -0.3798  -0.3657  -0.3383  -0.3027
    -0.2014  -0.1693  -0.0915  -0.0526   0.0075   0.0579   0.1786   0.3636
     0.4643   0.7786   1.0588   1.2816   1.5261   1.5439   1.5484   1.5949
     1.6904   1.7223   1.7785   1.8315   1.8934   1.9603   2.0811   2.0974
     2.3662   2.3669   2.4450   2.4635   2.5014   2.5395   2.7107   2.8305
     2.9490   3.0354   3.1150   4.4542   4.7433   4.9588   5.3280   5.6114
     6.0110   6.5131   7.0616   7.6974   7.7762   7.8177   8.4805   8.7402
     8.7486   8.9666   9.0325   9.1015   9.2986   9.3163   9.3390   9.3904
     9.5870   9.6380   9.8224   9.8607   9.9466  10.0480  10.1081  10.2086
    10.2298  10.2836  10.4394  10.5079  10.6358  10.6525  10.7091  10.7890
    10.9398  10.9801  10.9871  11.1081  11.1274  11.1755  11.1949  11.2910
    11.2994  11.3342  11.4303  11.5833  11.6252  11.7724  11.8204  11.8798
    11.9274  12.1004  12.1170  12.1241  12.1969  12.2976  12.4841  12.5218
    12.5371  12.7119  12.7349  12.7361  12.7704  12.8912  12.9772  13.0588
    13.1032  13.1930  13.2235  13.3239  13.4124  13.5035  13.5339  13.6582
    13.6769  13.8106  13.8192  13.8566  13.8854  13.9165  13.9342  14.0163
    14.0907  14.1127  14.1672  14.1693  14.1707  14.2511  14.2933  14.3094
    14.3377  14.3566  14.4536  14.5377  14.5781  14.6095  14.6567  14.6659
    14.6998  14.7717  14.8009  14.8051  14.8192  14.8839  14.9007  15.0261
    15.0316  15.1031  15.1539  15.1823  15.1885  15.2099  15.2517  15.3198
    15.3660  15.4005  15.5001  15.5259  15.6133  15.6753  15.6998  15.7363
    15.8931  15.9052  15.9132  15.9550  16.0456  16.0509  16.0702  16.1530
    16.2645  16.3121  16.3991  16.4378  16.5057  16.5591  16.5599  16.6785
    16.7465  16.8059  16.8771  16.9037  16.9280  17.0303  17.0644  17.1477
    17.1972  17.2789  17.3013  17.3852  17.4030  17.4927  17.5293  17.5863
    17.6524  17.7602  17.8385  17.8800  17.9178  17.9441  18.0539  18.0957
    18.1498  18.2726  18.2811  18.3323  18.3718  18.5751  18.6240  18.6902
    18.7520  18.7953  18.8169  18.9545  18.9856  19.0166  19.0655  19.1841
    19.2096  19.2656  19.3796  19.4118  19.4876  19.5121  19.5546  19.6728
    19.7508  19.9132  19.9468  20.0461  20.1667  20.1920  20.2347  20.2767
    20.3105  20.3941  20.4860  20.5507  20.5994  20.6325  20.7065  20.7200
    20.8998  20.9713  21.0385  21.0620  21.0691  21.0931  21.1341  21.1716
    21.1964  21.2652  21.3370  21.3574  21.3890  21.4904  21.5967  21.6246
    21.6472  21.6818  21.7123  21.7231  21.7400  21.7556  21.8772  21.8994
    21.9982  22.0432  22.1058  22.2441  22.2882  22.4361  22.5582  22.5729
    22.6339  22.6853  22.7026  22.7302  22.7808  22.7972  22.8175  22.8748
    22.9336  23.0727  23.0748  23.1167  23.2290  23.2572  23.3442  23.4867
    23.5336  23.5384  23.5866  23.6014  23.6882  23.7306  23.7421  23.8540
    23.8889  23.9232  24.0000  24.0328  24.0390  24.1403  24.1433  24.1772
    24.2152  24.2974  24.3103  24.4348  24.4602  24.4845  24.6031  24.6517
    24.6746  24.6841  24.7279  24.7894  24.8357  24.9350  24.9682  25.0115
    25.0340  25.0396  25.0844  25.1101  25.1911  25.2159  25.2614  25.3869
    25.4674  25.4841  25.4999  25.5453  25.5500  25.5828  25.6270  25.6546
    25.6994  25.7372  25.7806  25.8071  25.8365  25.8417  25.9186  25.9482
    26.0431  26.0570  26.0699  26.0879  26.1126  26.1519  26.1846  26.2522
    26.2979  26.3622  26.3929  26.4225  26.4607  26.5170  26.5772  26.5851
    26.6176  26.7040  26.7538  26.7762  26.7845  26.8257  26.8336  26.8653
    26.9239  26.9754  27.0742  27.1361  27.1463  27.2180  27.2793  27.3125
    27.3336  27.3715  27.4022  27.4671  27.5041  27.5051  27.5411  27.5800
    27.6041  27.6802  27.6967  27.7248  27.7482  27.7528  27.7670  27.7984
    27.8362  27.8925

          k = 0.0000 0.2303 0.0000 ( 36087 PWs)   bands (ev):

   -82.5024 -82.4755 -82.4652 -82.2989 -82.2987 -82.2854 -82.2797 -82.2736
   -82.2616 -82.1944 -82.1842 -82.1360 -81.8738 -81.8636 -81.8341 -81.8160
   -52.3333 -51.3068 -51.1875 -51.1429 -51.1303 -51.1273 -51.1088 -51.1067
   -51.0736 -51.0625 -51.0301 -51.0171 -51.0088 -50.9862 -50.9775 -50.9655
   -50.9588 -50.9523 -50.9432 -50.9232 -50.9211 -50.9106 -50.9080 -50.9004
   -50.8793 -50.8656 -50.8490 -50.8407 -50.8329 -50.8265 -50.8259 -50.8225
   -50.8221 -50.8097 -50.8011 -50.7617 -50.6142 -50.6071 -50.6010 -50.5922
   -50.5266 -50.4996 -50.4935 -50.4831 -50.4821 -50.4639 -50.4435 -50.4195
   -22.6752 -20.1264 -19.8496 -19.4465 -19.3544 -19.3195 -19.0925 -18.7370
   -18.7156 -18.6958 -18.6732 -18.6358 -18.6210 -18.6170 -18.5966 -18.5625
   -18.4721 -18.4325 -18.3849 -18.3607 -18.3530 -18.2838 -18.2805 -18.2287
   -18.2001 -18.1414 -18.0218 -18.0134 -17.8358 -17.4819 -17.3610 -17.0475
   -16.9528 -10.9818  -8.3929  -8.3548  -7.9700  -7.8693  -7.8224  -7.7281
    -7.5974  -7.4998  -7.4182  -7.2714  -7.2322  -7.1337  -7.0977  -6.9099
    -6.8507  -6.8435  -6.7137  -6.7093  -6.6791  -6.5707  -6.5461  -6.5404
    -6.3407  -6.3255  -6.2969  -6.2347  -6.1762  -6.1614  -6.1219  -6.1196
    -6.0956  -6.0190  -6.0161  -5.9533  -5.6819  -5.6312  -5.5787  -5.5378
    -5.5301  -5.5059  -5.4619  -5.3396  -5.2453  -5.1315  -5.1059  -5.0538
    -5.0456  -4.9763  -4.9732  -4.8907  -4.8479  -4.8058  -4.7932  -4.7790
    -4.6323  -4.5535  -4.5234  -4.4200  -4.4150  -4.3374  -4.1462  -4.0499
    -4.0197  -3.9695  -3.9331  -3.9023  -3.7721  -3.7574  -3.7534  -3.7327
    -3.6648  -3.6549  -3.5951  -3.4948  -3.4580  -3.4544  -3.4010  -3.3789
    -3.2492  -3.2161  -3.1935  -3.1619  -3.1037  -3.0469  -2.9928  -2.9503
    -2.9033  -2.8335  -2.7276  -2.7232  -2.6851  -2.6672  -2.6389  -2.5838
    -2.5015  -2.4867  -2.4215  -2.3906  -2.3193  -2.2957  -2.2523  -2.2284
    -2.1657  -2.1361  -2.1279  -2.0641  -2.0255  -2.0078  -1.9791  -1.8817
    -1.8755  -1.7913  -1.7649  -1.7415  -1.7375  -1.7292  -1.7179  -1.7003
    -1.6647  -1.6264  -1.5301  -1.4915  -1.4642  -1.4430  -1.3645  -1.3357
    -1.1715  -1.1455  -1.1316  -1.0374  -0.8666  -0.8315  -0.6270  -0.5715
    -0.5529  -0.4777  -0.4076  -0.4063  -0.3967  -0.3597  -0.3502  -0.2498
    -0.2050  -0.1680  -0.0583   0.0060   0.0375   0.1004   0.1348   0.3819
     0.5038   0.5293   0.6459   0.6757   0.8758   0.9462   1.3780   1.7156
     1.8270   1.9696   2.0701   2.0756   2.3042   2.3103   2.3666   2.3938
     2.4141   2.4174   2.5264   2.7363   2.7506   2.7539   2.8404   2.9374
     2.9509   3.0142   3.0440   4.4682   4.9326   5.1558   5.5672   5.8402
     6.2246   6.6913   7.1632   7.3686   7.5687   7.6776   7.8813   7.9696
     8.0266   8.2325   8.5765   8.7387   9.0134   9.2240   9.2812   9.4455
     9.5322   9.8218   9.9964  10.1053  10.1681  10.2917  10.3698  10.3839
    10.4337  10.5302  10.6070  10.7137  10.7436  10.8776  10.9529  11.0015
    11.0622  11.1663  11.2524  11.3329  11.3809  11.4244  11.4692  11.4990
    11.5511  11.7143  11.7786  11.8222  11.8390  11.8836  11.9115  11.9381
    11.9703  12.0212  12.1343  12.1746  12.1909  12.2325  12.2480  12.3127
    12.3707  12.4684  12.5287  12.5946  12.6063  12.6439  12.7317  12.8626
    12.9140  12.9559  13.0120  13.0529  13.1361  13.1875  13.2218  13.2628
    13.3252  13.4255  13.5346  13.6197  13.7210  13.7823  13.8535  13.8709
    13.9233  14.0322  14.0783  14.1847  14.2566  14.3615  14.3890  14.4611
    14.5609  14.5909  14.6757  14.7182  14.7772  14.8730  14.9134  14.9612
    14.9997  15.0176  15.0273  15.0531  15.1079  15.1365  15.2523  15.2793
    15.2960  15.3371  15.3738  15.4441  15.4900  15.5112  15.5653  15.6787
    15.7250  15.7797  15.8165  15.8775  16.0310  16.0532  16.0766  16.1017
    16.1505  16.1725  16.1971  16.2182  16.2500  16.2808  16.2978  16.3750
    16.4248  16.4916  16.5377  16.6267  16.6470  16.6566  16.6943  16.7345
    16.7551  16.8069  16.9060  17.0039  17.1390  17.1493  17.1712  17.1906
    17.2463  17.2856  17.3209  17.3402  17.3752  17.4057  17.4296  17.4692
    17.5214  17.5843  17.7306  17.7470  17.7744  17.8477  17.9149  17.9924
    18.0042  18.0077  18.0787  18.1030  18.1343  18.2460  18.2857  18.3836
    18.4452  18.5090  18.6681  18.7394  18.8064  18.8459  18.8929  18.9869
    19.0538  19.1283  19.1536  19.2383  19.2923  19.3057  19.3158  19.4002
    19.4938  19.5925  19.7619  19.7921  19.8263  19.8756  20.0414  20.1485
    20.1755  20.2050  20.2316  20.2783  20.3228  20.5773  20.6111  20.6341
    20.6663  20.8049  20.8417  20.8540  20.9376  20.9758  21.0127  21.0901
    21.2745  21.3251  21.3644  21.3855  21.4153  21.4573  21.5282  21.5570
    21.5898  21.6954  21.7160  21.7332  21.7573  21.7623  21.8533  21.9748
    21.9799  22.0246  22.0706  22.1329  22.1634  22.2374  22.2577  22.2814
    22.3377  22.3989  22.4345  22.4456  22.4838  22.6191  22.6586  22.6783
    22.7363  22.8028  22.8456  22.8946  22.9413  22.9615  22.9923  23.0361
    23.0972  23.1537  23.2094  23.3200  23.3761  23.4204  23.4620  23.5771
    23.6145  23.6248  23.7532  23.8190  23.9169  23.9683  23.9839  24.0269
    24.0886  24.1407  24.1891  24.2071  24.2187  24.3327  24.3738  24.3855
    24.4374  24.4743  24.5105  24.5397  24.6244  24.6685  24.7120  24.7453
    24.8068  24.8408  24.9169  24.9305  24.9553  25.0211  25.1429  25.2103
    25.2191  25.2662  25.2908  25.4329  25.4546  25.4712  25.4814  25.5449
    25.5558  25.6023  25.6632  25.7040  25.7806  25.8094  25.8393  25.8490
    25.8930  25.9189  25.9375  25.9821  26.0320  26.0972  26.1143  26.1306
    26.1850  26.2013  26.2365  26.2674  26.3075  26.3457  26.3911  26.4098
    26.4419  26.4680  26.5319  26.5538  26.6435  26.6980  26.7311  26.7509
    26.7676  26.8339  26.8766  26.9200  26.9889  27.0772  27.0985  27.1421
    27.1711  27.2179  27.2621  27.3228  27.3503  27.3991  27.4729  27.4990
    27.5474  27.5817  27.6400  27.7209  27.7457  27.7609  27.8210  27.8398
    27.8848  27.9482

          k = 0.0000-0.4606 0.0000 ( 36028 PWs)   bands (ev):

   -82.5024 -82.4755 -82.4652 -82.2989 -82.2987 -82.2854 -82.2797 -82.2736
   -82.2616 -82.1944 -82.1842 -82.1360 -81.8738 -81.8637 -81.8341 -81.8160
   -52.3332 -51.3067 -51.1875 -51.1433 -51.1304 -51.1273 -51.1088 -51.1067
   -51.0723 -51.0618 -51.0302 -51.0170 -51.0087 -50.9861 -50.9787 -50.9647
   -50.9588 -50.9523 -50.9428 -50.9232 -50.9207 -50.9106 -50.9080 -50.9003
   -50.8793 -50.8656 -50.8490 -50.8406 -50.8328 -50.8265 -50.8259 -50.8223
   -50.8221 -50.8105 -50.8008 -50.7615 -50.6140 -50.6069 -50.6014 -50.5919
   -50.5268 -50.4996 -50.4935 -50.4830 -50.4821 -50.4639 -50.4434 -50.4195
   -22.6710 -19.8148 -19.7765 -19.5252 -19.4761 -19.1396 -19.1072 -18.9726
   -18.9293 -18.7067 -18.6930 -18.6726 -18.6533 -18.5834 -18.5801 -18.5635
   -18.5041 -18.4599 -18.4185 -18.3859 -18.3651 -18.2911 -18.2457 -18.2361
   -18.1617 -18.1516 -17.9956 -17.9714 -17.8386 -17.4813 -17.3413 -17.0350
   -16.9522 -10.9574  -8.3366  -8.3232  -7.6757  -7.6753  -7.5395  -7.4857
    -7.4623  -7.3951  -7.3691  -7.3673  -7.3407  -7.2136  -7.1040  -7.1022
    -6.8558  -6.6586  -6.6365  -6.6268  -6.5557  -6.5448  -6.5133  -6.4970
    -6.2890  -6.2325  -6.2170  -6.1205  -6.0867  -6.0855  -6.0582  -6.0453
    -6.0437  -6.0107  -6.0056  -5.9732  -5.8139  -5.8033  -5.6565  -5.5412
    -5.5357  -5.5019  -5.4246  -5.4193  -5.3725  -5.2812  -5.1796  -5.1623
    -5.0241  -4.9992  -4.9713  -4.9152  -4.9138  -4.7880  -4.7578  -4.7575
    -4.6675  -4.6568  -4.5924  -4.4586  -4.4294  -4.3510  -4.2611  -4.1490
    -4.1403  -4.0945  -4.0539  -4.0346  -4.0143  -4.0103  -3.9046  -3.9009
    -3.7473  -3.6986  -3.5731  -3.5651  -3.5014  -3.4803  -3.4469  -3.2752
    -3.2540  -3.1712  -3.0976  -3.0931  -3.0263  -3.0007  -2.9820  -2.9430
    -2.8951  -2.8690  -2.7917  -2.7312  -2.6812  -2.6785  -2.5780  -2.5209
    -2.4572  -2.4119  -2.3362  -2.3195  -2.3048  -2.2968  -2.2512  -2.1429
    -2.1424  -2.1410  -2.1371  -2.1157  -2.0958  -2.0403  -2.0222  -1.9960
    -1.9650  -1.9266  -1.8201  -1.7543  -1.7500  -1.7337  -1.7093  -1.7020
    -1.6902  -1.6508  -1.5809  -1.4898  -1.4475  -1.3933  -1.3009  -1.2442
    -1.1946  -1.1602  -1.0282  -1.0223  -0.9228  -0.9003  -0.8477  -0.8157
    -0.5767  -0.5697  -0.4526  -0.4240  -0.3083  -0.2236  -0.2053  -0.2029
    -0.1550  -0.1191  -0.0320  -0.0069   0.0270   0.0466   0.0473   0.0918
     0.1482   0.2764   0.4851   0.6327   0.7157   1.3359   1.3660   1.7602
     1.9794   2.0716   2.1483   2.1511   2.1542   2.2705   2.2870   2.3367
     2.3718   2.6004   2.7268   2.8130   2.8326   2.9522   3.0020   3.0502
     3.1316   3.2245   3.3612   4.4607   5.2004   5.5327   6.1284   6.2643
     6.3986   6.4462   6.7074   6.7600   7.1539   7.2018   7.7148   7.7453
     7.9933   8.3539   8.3692   8.8462   8.9601   9.0250   9.2012   9.2475
     9.4895   9.6479   9.8079   9.8437  10.0091  10.3976  10.5430  10.6572
    10.7679  10.7763  10.8406  10.8859  10.9235  10.9544  10.9836  10.9853
    11.0194  11.1412  11.2596  11.2673  11.2712  11.3829  11.4588  11.5382
    11.5396  11.5758  11.6449  11.6586  11.7269  11.8067  11.8433  11.8695
    11.9834  12.0167  12.1029  12.2331  12.2412  12.2516  12.3754  12.4894
    12.5309  12.5603  12.6832  12.6930  12.8324  12.8624  12.9038  12.9157
    13.0752  13.2335  13.2575  13.2755  13.3525  13.4026  13.4124  13.5292
    13.6387  13.6582  13.6777  13.6858  13.7402  13.8416  13.9919  14.0187
    14.1302  14.1641  14.1810  14.1839  14.2338  14.3874  14.4594  14.5332
    14.5962  14.6283  14.6378  14.6819  14.7873  14.8204  14.8424  14.9684
    15.0328  15.0480  15.0869  15.1309  15.1833  15.1972  15.2491  15.2529
    15.3157  15.3308  15.4604  15.4762  15.4966  15.5289  15.6560  15.7366
    15.7631  15.7805  15.9266  15.9299  15.9629  16.0384  16.0418  16.1009
    16.1024  16.1448  16.1640  16.1934  16.2084  16.2388  16.2426  16.2614
    16.3470  16.4348  16.4956  16.5567  16.5570  16.6880  16.7071  16.7336
    16.7545  16.7873  16.8014  16.8996  16.9996  17.0402  17.0537  17.0819
    17.1962  17.2043  17.3106  17.3297  17.4770  17.4888  17.5044  17.5056
    17.5668  17.6323  17.6528  18.0755  18.1700  18.2381  18.2906  18.3842
    18.5082  18.5287  18.5319  18.5699  18.6885  18.6919  18.7065  18.7255
    18.7871  18.8054  18.8304  18.8565  18.8825  18.9592  18.9774  19.0473
    19.0592  19.0656  19.0749  19.1004  19.3090  19.4221  19.4445  19.4511
    19.4610  19.6323  19.6558  19.7521  19.7856  19.8091  19.8548  19.8812
    19.9041  19.9534  19.9604  20.0017  20.0374  20.0787  20.1663  20.2835
    20.3705  20.3888  20.4259  20.4697  20.5602  20.5934  20.6387  20.6982
    20.7719  20.8125  20.8780  20.9522  21.0244  21.1056  21.1757  21.2457
    21.3088  21.3232  21.3346  21.3605  21.4288  21.4797  21.4942  21.5125
    21.5128  21.5192  21.6691  21.8182  21.8741  21.9259  21.9955  22.0179
    22.0871  22.1409  22.2620  22.2716  22.2903  22.2952  22.3109  22.3631
    22.4145  22.4419  22.5238  22.5370  22.6574  22.6723  22.7880  22.9544
    22.9598  22.9719  23.0046  23.0790  23.1061  23.1254  23.1665  23.2335
    23.2607  23.3460  23.3910  23.5629  23.6593  23.7273  23.7543  23.7871
    23.8648  23.9660  24.0387  24.0756  24.1936  24.2324  24.3032  24.3094
    24.3392  24.5925  24.6245  24.6857  24.7347  24.7659  24.7862  24.8412
    24.8707  24.8953  24.9070  24.9203  24.9204  24.9970  25.0306  25.0438
    25.0806  25.0983  25.1304  25.1899  25.2208  25.2548  25.2673  25.3091
    25.3967  25.4195  25.4767  25.4946  25.5978  25.6108  25.6913  25.8173
    25.8321  25.8489  25.8648  25.8843  25.9283  26.0107  26.0716  26.1569
    26.1640  26.1769  26.1917  26.2185  26.2464  26.3243  26.3985  26.4310
    26.4422  26.4662  26.5497  26.5655  26.6187  26.6291  26.6539  26.7527
    26.8531  26.9140  26.9503  27.0249  27.0467  27.1082  27.1117  27.1977
    27.3270  27.4281  27.4435  27.5165  27.5299  27.5709  27.6300  27.6439
    27.6991  27.7710  27.8147  27.8495  27.8525  27.9631  27.9855  28.0365
    28.1478  28.1803

          k = 0.2500 0.0000 0.0000 ( 36052 PWs)   bands (ev):

   -82.5023 -82.4740 -82.4667 -82.2979 -82.2978 -82.2865 -82.2804 -82.2724
   -82.2628 -82.1929 -82.1857 -82.1360 -81.8723 -81.8651 -81.8333 -81.8168
   -52.3332 -51.2893 -51.2050 -51.1244 -51.1241 -51.1136 -51.1088 -51.0909
   -51.0729 -51.0649 -51.0353 -51.0266 -51.0122 -51.0042 -50.9747 -50.9635
   -50.9540 -50.9463 -50.9401 -50.9267 -50.9213 -50.9186 -50.9117 -50.9033
   -50.8785 -50.8664 -50.8499 -50.8469 -50.8396 -50.8294 -50.8277 -50.8222
   -50.8219 -50.8076 -50.8025 -50.7627 -50.5992 -50.5966 -50.5936 -50.5891
   -50.5260 -50.5113 -50.5005 -50.4999 -50.4802 -50.4667 -50.4412 -50.4217
   -22.6721 -20.1019 -19.8361 -19.4458 -19.3484 -19.1520 -19.0581 -19.0167
   -18.8568 -18.8091 -18.7693 -18.6188 -18.5585 -18.4498 -18.4459 -18.4343
   -18.4192 -18.3618 -18.3460 -18.3389 -18.3218 -18.3064 -18.2917 -18.2342
   -18.2072 -18.1286 -18.1191 -18.0686 -17.8824 -17.4967 -17.4023 -17.0597
   -16.9847 -11.0211  -8.4072  -8.3810  -8.0853  -8.0039  -7.9576  -7.7518
    -7.4671  -7.3823  -7.2105  -7.0911  -7.0590  -7.0506  -7.0139  -6.8581
    -6.8375  -6.8151  -6.7668  -6.7419  -6.7008  -6.6299  -6.5827  -6.5689
    -6.4893  -6.4859  -6.4564  -6.4329  -6.3992  -6.3468  -6.3120  -6.2535
    -6.2189  -6.1413  -6.0988  -5.8707  -5.8687  -5.8138  -5.7212  -5.6269
    -5.5303  -5.4537  -5.3768  -5.2609  -5.2401  -5.1838  -4.9471  -4.9030
    -4.8168  -4.7840  -4.7081  -4.6849  -4.6771  -4.6652  -4.5847  -4.4834
    -4.3777  -4.3691  -4.3240  -4.2918  -4.2155  -4.2084  -4.1864  -4.1340
    -4.1010  -4.0967  -4.0000  -3.9322  -3.9076  -3.9051  -3.8491  -3.7321
    -3.7248  -3.6916  -3.6233  -3.5669  -3.5545  -3.4919  -3.4913  -3.3944
    -3.3492  -3.3377  -3.2993  -3.2986  -3.2746  -3.1992  -3.1957  -3.1546
    -2.9389  -2.8934  -2.7747  -2.7743  -2.7553  -2.6889  -2.6417  -2.5977
    -2.5373  -2.4309  -2.4268  -2.4197  -2.4074  -2.3689  -2.3343  -2.2948
    -2.2568  -2.2462  -2.1299  -2.0560  -2.0453  -1.9894  -1.9275  -1.8601
    -1.8373  -1.7910  -1.7694  -1.6919  -1.6438  -1.5735  -1.4150  -1.4099
    -1.3492  -1.3074  -1.2656  -1.2142  -1.1624  -1.1491  -1.0757  -1.0580
    -1.0111  -0.9562  -0.9153  -0.8726  -0.8676  -0.7981  -0.7613  -0.7270
    -0.6682  -0.5986  -0.5962  -0.4736  -0.4544  -0.4181  -0.3045  -0.2729
    -0.2591  -0.1637  -0.1437  -0.1276  -0.0891   0.0486   0.1227   0.5037
     0.6041   0.8835   1.2204   1.3581   1.5460   1.5861   1.6104   1.6234
     1.6586   1.6730   1.8019   1.8147   1.8468   1.9296   1.9445   2.0103
     2.1375   2.1819   2.2052   2.2612   2.3111   2.4297   2.5416   2.6702
     2.7372   2.7770   3.0527   4.5119   5.0466   5.2239   5.6181   5.8988
     6.2928   6.7734   6.9357   7.2815   7.6002   7.9328   8.0333   8.1606
     8.3343   8.6154   8.8587   9.0023   9.0956   9.2222   9.2357   9.4075
     9.5843   9.5944   9.6325   9.7418   9.9203  10.0173  10.1330  10.2556
    10.3862  10.3976  10.5367  10.6946  10.7652  10.8520  10.8894  11.0297
    11.0418  11.2130  11.2154  11.2454  11.3141  11.5384  11.5565  11.5890
    11.6033  11.6172  11.6291  11.6850  11.6900  11.7628  11.9091  11.9164
    11.9601  12.1060  12.1194  12.1782  12.2040  12.2521  12.3636  12.4724
    12.5298  12.5847  12.6269  12.6687  12.7730  12.7850  12.8602  12.8659
    12.9089  12.9905  13.0988  13.1239  13.1997  13.2639  13.2802  13.3430
    13.5262  13.6110  13.6115  13.6536  13.7196  13.7761  13.7762  13.9687
    13.9981  14.0280  14.1529  14.2640  14.2938  14.3869  14.3905  14.4300
    14.4489  14.5270  14.5741  14.6280  14.6675  14.7349  14.7679  14.8824
    14.9131  14.9151  14.9418  14.9858  15.0066  15.0255  15.0914  15.2234
    15.2890  15.3371  15.3919  15.4988  15.5131  15.5736  15.6316  15.6336
    15.7238  15.8324  15.9119  15.9307  15.9437  15.9823  16.0032  16.0972
    16.1666  16.2068  16.3504  16.3564  16.4087  16.4484  16.4857  16.5008
    16.5475  16.5744  16.7057  16.7457  16.8192  16.8497  16.8844  16.9761
    17.0092  17.0097  17.0597  17.0676  17.1524  17.1903  17.2195  17.2255
    17.2887  17.3596  17.3648  17.4340  17.4637  17.6151  17.6708  17.6731
    17.8038  17.8591  17.9064  17.9143  17.9587  18.0461  18.0605  18.1852
    18.2333  18.2526  18.3130  18.3566  18.3866  18.4754  18.5057  18.6015
    18.6296  18.7378  18.7880  18.8996  19.0140  19.0366  19.0963  19.1304
    19.2148  19.2164  19.3891  19.4017  19.4450  19.5176  19.5800  19.6060
    19.6584  19.6635  19.7416  19.8262  19.8581  19.8854  19.9764  20.0182
    20.1066  20.1330  20.2419  20.2549  20.2890  20.4368  20.5157  20.6952
    20.6958  20.8009  20.8620  20.9443  20.9859  21.0183  21.0231  21.0616
    21.1104  21.1543  21.1653  21.2510  21.2722  21.3777  21.4049  21.4743
    21.4949  21.5333  21.6358  21.7170  21.7282  21.8244  21.8519  21.8836
    21.9384  21.9738  22.0985  22.1894  22.2322  22.2594  22.3058  22.3499
    22.4182  22.4723  22.4908  22.4998  22.5282  22.6022  22.6925  22.7390
    22.7473  22.8274  22.9812  23.0280  23.0793  23.1028  23.1320  23.2149
    23.2610  23.2864  23.3656  23.4155  23.4469  23.4847  23.5010  23.5068
    23.5369  23.5427  23.5990  23.6401  23.6579  23.7145  23.7542  23.7550
    23.7882  23.8057  23.8670  23.8713  23.9042  23.9513  23.9561  24.0277
    24.1237  24.1311  24.1664  24.1905  24.2108  24.2974  24.3458  24.3652
    24.4375  24.4419  24.5360  24.5724  24.6500  24.7005  24.7516  24.7662
    24.7876  24.8073  24.8634  24.8741  24.9136  24.9852  25.0101  25.1404
    25.1650  25.2192  25.2554  25.2770  25.3277  25.3278  25.3329  25.4056
    25.4312  25.4524  25.5081  25.5525  25.6465  25.6862  25.7117  25.7166
    25.7837  25.8519  25.8907  25.9350  25.9413  26.0018  26.0199  26.2048
    26.2664  26.3582  26.3977  26.4009  26.4232  26.4768  26.5527  26.5952
    26.6214  26.7465  26.7635  26.8642  26.8686  26.9804  27.0279  27.0565
    27.1253  27.1488  27.1834  27.2747  27.3583  27.3757  27.4591  27.4595
    27.5680  27.6196  27.7054  27.7632  27.7981  27.8552  27.8790  27.9202
    27.9433  28.0000

          k = 0.2500 0.2303 0.0000 ( 36026 PWs)   bands (ev):

   -82.5023 -82.4740 -82.4667 -82.2980 -82.2978 -82.2865 -82.2804 -82.2724
   -82.2628 -82.1929 -82.1857 -82.1360 -81.8723 -81.8651 -81.8333 -81.8168
   -52.3331 -51.2893 -51.2050 -51.1248 -51.1244 -51.1136 -51.1088 -51.0909
   -51.0722 -51.0638 -51.0352 -51.0266 -51.0124 -51.0042 -50.9757 -50.9629
   -50.9542 -50.9457 -50.9401 -50.9266 -50.9213 -50.9183 -50.9116 -50.9031
   -50.8785 -50.8664 -50.8500 -50.8469 -50.8396 -50.8294 -50.8277 -50.8222
   -50.8217 -50.8083 -50.8023 -50.7624 -50.5997 -50.5966 -50.5934 -50.5890
   -50.5262 -50.5113 -50.5005 -50.4999 -50.4803 -50.4666 -50.4412 -50.4217
   -22.6683 -19.9805 -19.7198 -19.3410 -19.2615 -19.2255 -19.0855 -19.0041
   -18.9606 -18.7889 -18.7276 -18.6609 -18.6333 -18.5983 -18.5554 -18.5166
   -18.4473 -18.4169 -18.3974 -18.3685 -18.3548 -18.3028 -18.2632 -18.2518
   -18.2173 -18.1105 -18.0314 -18.0176 -17.8728 -17.4910 -17.3844 -17.0482
   -16.9844 -11.0002  -8.3811  -8.3370  -7.7939  -7.6918  -7.6468  -7.5397
    -7.4404  -7.3469  -7.2051  -7.0930  -7.0356  -6.9432  -6.9149  -6.8874
    -6.8468  -6.7706  -6.7228  -6.7031  -6.6770  -6.6393  -6.5383  -6.5241
    -6.5108  -6.5010  -6.4738  -6.4404  -6.3945  -6.3227  -6.2988  -6.2226
    -6.1114  -6.0510  -5.9876  -5.8732  -5.8078  -5.7667  -5.6164  -5.5462
    -5.5367  -5.4609  -5.4118  -5.3151  -5.1291  -5.0982  -5.0471  -4.9892
    -4.9676  -4.9001  -4.8404  -4.7917  -4.7520  -4.7006  -4.6759  -4.6003
    -4.5354  -4.4916  -4.4370  -4.4157  -4.3645  -4.3413  -4.3022  -4.2755
    -4.2238  -4.1895  -4.1736  -4.1347  -4.0900  -4.0022  -3.9907  -3.9519
    -3.8856  -3.8129  -3.7457  -3.6850  -3.6237  -3.5867  -3.5781  -3.5496
    -3.5025  -3.3444  -3.2681  -3.2359  -3.2067  -3.1292  -3.0958  -3.0141
    -2.9292  -2.8675  -2.8305  -2.7481  -2.7434  -2.6948  -2.6582  -2.6145
    -2.5167  -2.5032  -2.4193  -2.2938  -2.2008  -2.1940  -2.1421  -2.1303
    -2.1018  -2.0333  -1.9701  -1.9173  -1.8938  -1.8687  -1.8404  -1.8096
    -1.7511  -1.7420  -1.7350  -1.6991  -1.6603  -1.5748  -1.5505  -1.5326
    -1.5048  -1.3665  -1.3311  -1.3152  -1.2960  -1.2132  -1.1831  -1.1764
    -1.1062  -1.0570  -0.9533  -0.8633  -0.7864  -0.7664  -0.7022  -0.6458
    -0.5798  -0.5692  -0.5606  -0.5322  -0.4967  -0.4697  -0.4359  -0.2971
    -0.2606  -0.1684  -0.1431  -0.1148   0.0627   0.1061   0.2035   0.5336
     0.6275   0.6726   0.7835   0.8109   0.9831   1.0291   1.4161   1.6499
     1.6951   1.7857   1.8300   1.9274   1.9391   1.9924   2.1570   2.2911
     2.3372   2.3739   2.5274   2.5811   2.5859   2.6332   2.7630   2.7883
     2.8256   2.8830   3.0375   4.5232   5.2103   5.4048   5.8511   6.1186
     6.4912   6.9357   7.0197   7.4019   7.6258   7.7940   7.8904   7.9778
     8.1822   8.3010   8.3487   8.4527   8.6185   8.8228   8.8961   9.0832
     9.3020   9.5371   9.5836   9.6576   9.9076   9.9623  10.1557  10.2087
    10.2488  10.3991  10.4596  10.5712  10.6703  10.7149  10.7390  10.8754
    10.9410  11.0729  11.1646  11.2374  11.3271  11.3552  11.4330  11.4635
    11.5970  11.6663  11.7695  11.8003  11.8276  11.9423  12.0970  12.1489
    12.1646  12.2088  12.2792  12.3077  12.4452  12.5380  12.6230  12.7658
    12.8256  12.8555  12.8929  12.9956  13.0438  13.0849  13.1246  13.1997
    13.2806  13.3518  13.3700  13.4259  13.5372  13.5685  13.6186  13.6506
    13.6921  13.8005  13.9078  13.9660  14.0302  14.0812  14.1295  14.1498
    14.2332  14.2866  14.3536  14.3797  14.4526  14.4821  14.5845  14.5998
    14.6129  14.6562  14.7154  14.7857  14.8406  14.8516  14.8984  14.9369
    14.9927  14.9985  15.0235  15.1171  15.1287  15.1756  15.2040  15.2530
    15.3021  15.3343  15.3492  15.4478  15.4685  15.5330  15.5549  15.5943
    15.6913  15.7573  15.8000  15.8520  15.9352  15.9780  16.0528  16.0956
    16.1506  16.1771  16.2385  16.3034  16.3469  16.3634  16.4106  16.4211
    16.4373  16.4639  16.5082  16.5500  16.6080  16.6619  16.7832  16.8648
    16.9257  16.9420  17.0198  17.0522  17.1068  17.1583  17.1805  17.2380
    17.3903  17.4258  17.4679  17.5435  17.5997  17.6680  17.7004  17.7264
    17.7463  17.7745  17.8692  17.9511  17.9914  18.0860  18.1414  18.2355
    18.2505  18.2644  18.3173  18.3763  18.3968  18.4512  18.4884  18.5327
    18.5709  18.6222  18.7295  18.7659  18.8188  18.8413  18.8979  18.9655
    19.0294  19.0724  19.0975  19.1757  19.2499  19.2668  19.3521  19.4670
    19.4989  19.5955  19.6642  19.7285  19.7686  19.7952  19.8438  19.8562
    19.9059  19.9315  19.9937  20.0399  20.0726  20.1461  20.1758  20.2286
    20.2813  20.3516  20.3973  20.4410  20.5108  20.5475  20.6445  20.6879
    20.7627  20.7980  20.8526  20.9184  20.9461  21.0036  21.0548  21.1131
    21.1606  21.2678  21.3343  21.3929  21.4313  21.4494  21.5151  21.5612
    21.6234  21.6811  21.7454  21.7899  21.8231  21.8642  21.8936  21.9267
    21.9458  21.9726  22.0250  22.0754  22.1653  22.2046  22.2753  22.3703
    22.4141  22.4496  22.4931  22.5857  22.6836  22.7060  22.7700  22.8137
    22.9159  22.9640  23.0204  23.0454  23.1100  23.1761  23.2155  23.3051
    23.3451  23.3870  23.4510  23.5039  23.5223  23.6041  23.6560  23.8197
    23.8689  23.9077  24.0056  24.0807  24.1378  24.2054  24.2578  24.2991
    24.3312  24.3697  24.4554  24.4976  24.5225  24.5536  24.6133  24.6702
    24.7326  24.7815  24.8504  24.8622  24.9013  24.9483  25.0398  25.0757
    25.1542  25.2086  25.2601  25.3172  25.3507  25.3886  25.4041  25.4666
    25.4989  25.5443  25.5869  25.6178  25.6685  25.6977  25.7485  25.7781
    25.8065  25.8417  25.8848  25.9127  25.9485  25.9892  26.0027  26.0410
    26.0765  26.0924  26.1192  26.1577  26.1835  26.2244  26.2607  26.3842
    26.3969  26.4595  26.4826  26.5176  26.5902  26.6436  26.6925  26.7065
    26.7594  26.8326  26.8784  26.9616  27.0034  27.0187  27.0578  27.1170
    27.1720  27.2129  27.2960  27.3247  27.4182  27.4554  27.5283  27.5704
    27.5975  27.6382  27.7030  27.7315  27.7483  27.7808  27.8125  27.8949
    27.9067  27.9647

          k = 0.2500-0.4606 0.0000 ( 36102 PWs)   bands (ev):

   -82.5024 -82.4740 -82.4667 -82.2980 -82.2978 -82.2865 -82.2804 -82.2724
   -82.2628 -82.1929 -82.1857 -82.1360 -81.8723 -81.8651 -81.8333 -81.8168
   -52.3332 -51.2893 -51.2050 -51.1255 -51.1244 -51.1138 -51.1089 -51.0911
   -51.0713 -51.0630 -51.0350 -51.0267 -51.0127 -51.0043 -50.9766 -50.9623
   -50.9545 -50.9454 -50.9403 -50.9266 -50.9213 -50.9180 -50.9117 -50.9031
   -50.8785 -50.8664 -50.8500 -50.8469 -50.8396 -50.8295 -50.8277 -50.8222
   -50.8215 -50.8090 -50.8023 -50.7624 -50.6000 -50.5965 -50.5934 -50.5890
   -50.5264 -50.5113 -50.5005 -50.5000 -50.4802 -50.4667 -50.4412 -50.4217
   -22.6646 -19.6884 -19.6436 -19.4007 -19.3714 -19.1010 -19.0085 -18.9457
   -18.8979 -18.8960 -18.8492 -18.8024 -18.7024 -18.6638 -18.6125 -18.5581
   -18.5254 -18.5064 -18.4099 -18.4072 -18.3856 -18.2728 -18.2610 -18.2492
   -18.1778 -18.1045 -18.0128 -17.9728 -17.8650 -17.4864 -17.3674 -17.0378
   -16.9841 -10.9801  -8.3327  -8.3107  -7.5311  -7.4988  -7.2874  -7.2183
    -7.1944  -7.1581  -7.1555  -7.1408  -7.0396  -6.9685  -6.8182  -6.8038
    -6.8013  -6.7538  -6.7296  -6.6539  -6.6363  -6.5661  -6.5349  -6.5161
    -6.4830  -6.4577  -6.4272  -6.3781  -6.3616  -6.3601  -6.2422  -6.1376
    -6.1185  -6.0369  -5.8148  -5.7941  -5.7789  -5.7300  -5.6249  -5.5778
    -5.5703  -5.4451  -5.4148  -5.3169  -5.2784  -5.2571  -5.1341  -5.1165
    -5.0145  -4.9743  -4.9435  -4.9416  -4.8827  -4.8796  -4.8161  -4.8086
    -4.7580  -4.6314  -4.6051  -4.5772  -4.5324  -4.5282  -4.4539  -4.4385
    -4.3990  -4.2545  -4.2006  -4.1899  -4.1226  -4.0842  -4.0808  -4.0270
    -4.0246  -3.9785  -3.9339  -3.9054  -3.7159  -3.6287  -3.5789  -3.4890
    -3.4341  -3.2688  -3.2618  -3.1902  -3.1761  -3.1087  -3.0537  -2.9464
    -2.8603  -2.7843  -2.7634  -2.7462  -2.6915  -2.6299  -2.6216  -2.5547
    -2.4845  -2.4668  -2.2700  -2.2512  -2.2249  -2.1842  -2.1125  -2.0598
    -2.0284  -1.9858  -1.9728  -1.9303  -1.9242  -1.8850  -1.8462  -1.8112
    -1.7877  -1.7109  -1.6427  -1.5782  -1.5521  -1.5432  -1.4828  -1.4790
    -1.4355  -1.4019  -1.3881  -1.2855  -1.2668  -1.2251  -1.1655  -1.1472
    -1.0856  -1.0215  -0.9696  -0.9556  -0.9308  -0.8708  -0.7487  -0.7280
    -0.6588  -0.5937  -0.5852  -0.5349  -0.4605  -0.3755  -0.3173  -0.3076
    -0.3017  -0.1810  -0.1535  -0.0500   0.0162   0.1523   0.2060   0.2177
     0.3023   0.3409   0.6310   0.7743   0.8076   1.3114   1.3264   1.6218
     1.6266   1.6572   1.7293   1.8190   1.9282   1.9504   2.1796   2.4390
     2.4985   2.6097   2.6434   2.6533   2.6741   2.8591   2.9090   2.9192
     3.0589   3.1282   3.2709   4.5182   5.4324   5.7108   6.4171   6.5472
     6.6877   6.7281   6.9951   7.0302   7.1131   7.4415   7.4470   7.9126
     8.0044   8.3015   8.6508   8.7074   8.7252   8.8960   8.9821   9.0451
     9.2424   9.2459   9.3185   9.3394   9.4999   9.5288   9.6675   9.8223
    10.0926  10.1515  10.1971  10.2069  10.3358  10.3858  10.6922  10.7863
    10.8833  10.9782  11.0463  11.1011  11.2408  11.2716  11.2731  11.5312
    11.6580  11.7169  11.8175  11.9014  11.9883  12.1432  12.1955  12.2899
    12.4850  12.4948  12.7477  12.7888  12.8960  12.9588  13.0366  13.0731
    13.0907  13.1932  13.2848  13.3214  13.4201  13.5361  13.5757  13.6068
    13.6296  13.6828  13.7327  13.7504  13.7692  13.8176  13.9535  13.9742
    14.0179  14.0285  14.1167  14.1397  14.2109  14.2424  14.2506  14.2782
    14.4576  14.4667  14.5005  14.5346  14.6099  14.6937  14.7191  14.7700
    14.7743  14.8064  14.8499  14.8516  14.9120  14.9544  14.9863  15.1230
    15.1659  15.1798  15.1856  15.2769  15.2783  15.3167  15.3235  15.3995
    15.4076  15.4689  15.5235  15.5271  15.5319  15.6413  15.6826  15.7102
    15.7640  15.7696  15.7874  15.7905  15.8484  16.0048  16.0365  16.0618
    16.0986  16.2534  16.3169  16.3246  16.3865  16.4074  16.4366  16.4547
    16.4838  16.5292  16.5798  16.5830  16.6013  16.6287  16.7137  16.7374
    16.7697  16.8114  16.8238  16.8713  16.9262  16.9600  16.9932  17.0616
    17.1013  17.1479  17.2190  17.2255  17.2945  17.3229  17.3659  17.3866
    17.4499  17.5505  17.5583  17.6023  17.6137  17.6972  17.7329  17.7932
    17.8113  17.9347  17.9511  18.0026  18.1297  18.1446  18.1939  18.2329
    18.2649  18.3655  18.5099  18.5876  18.5964  18.7040  18.7991  18.8180
    18.8547  18.8581  18.9968  19.0605  19.0836  19.1512  19.1568  19.3814
    19.4171  19.4367  19.5397  19.5898  19.6515  19.7055  19.8686  19.8753
    19.9092  19.9637  20.0092  20.0405  20.0978  20.1686  20.1914  20.3032
    20.3651  20.4372  20.4943  20.5063  20.5279  20.5637  20.5784  20.6018
    20.6511  20.7654  20.7931  20.8258  20.8791  20.8957  20.9269  20.9856
    21.0662  21.1202  21.1274  21.1930  21.2378  21.3278  21.3647  21.4363
    21.4470  21.5369  21.5449  21.5956  21.6047  21.6108  21.6621  21.7350
    21.8112  21.9144  21.9290  21.9824  22.0248  22.0635  22.1268  22.2192
    22.2614  22.3222  22.3533  22.4241  22.4731  22.4840  22.5463  22.6097
    22.6183  22.6813  22.7384  22.8310  22.8313  22.8857  22.9451  23.0837
    23.1358  23.1837  23.2157  23.2314  23.3963  23.4408  23.6238  23.6365
    23.6603  23.7234  23.7854  23.8089  23.8283  23.9232  24.0035  24.0283
    24.0576  24.1210  24.1795  24.1848  24.2952  24.3436  24.3905  24.4266
    24.5832  24.5875  24.6661  24.6982  24.7458  24.7787  24.8102  24.8861
    24.8948  24.9672  25.0817  25.1123  25.1507  25.1511  25.2027  25.2194
    25.3304  25.3614  25.4403  25.4835  25.5394  25.6270  25.6382  25.7405
    25.7425  25.8671  25.9155  25.9403  26.0394  26.0589  26.0942  26.1395
    26.2642  26.2662  26.3215  26.4181  26.4914  26.5069  26.6410  26.6426
    26.7193  26.8101  26.8345  26.9441  26.9904  27.0063  27.0177  27.1128
    27.1398  27.2301  27.2685  27.3464  27.3762  27.4288  27.4973  27.5508
    27.5670  27.6712  27.7511  27.8023  27.8618  27.8805  27.9693  28.0032
    28.0150  28.0973  28.1141  28.1891  28.2291  28.2833  28.3137  28.3752
    28.4588  28.4954

          k =-0.5000 0.0000 0.0000 ( 36178 PWs)   bands (ev):

   -82.5023 -82.4708 -82.4699 -82.2971 -82.2966 -82.2878 -82.2812 -82.2707
   -82.2645 -82.1894 -82.1893 -82.1361 -81.8688 -81.8687 -81.8324 -81.8177
   -52.3332 -51.2475 -51.2469 -51.1178 -51.1169 -51.0851 -51.0747 -51.0726
   -51.0695 -51.0684 -51.0666 -51.0501 -51.0453 -50.9729 -50.9694 -50.9693
   -50.9595 -50.9561 -50.9505 -50.9204 -50.9138 -50.9131 -50.9083 -50.8972
   -50.8929 -50.8776 -50.8673 -50.8445 -50.8367 -50.8345 -50.8279 -50.8225
   -50.8210 -50.8052 -50.8050 -50.7637 -50.5965 -50.5965 -50.5541 -50.5541
   -50.5496 -50.5403 -50.5257 -50.5002 -50.4735 -50.4734 -50.4383 -50.4245
   -22.6648 -19.6987 -19.6868 -19.4950 -19.4614 -19.2458 -19.1159 -19.0923
   -18.9908 -18.8066 -18.7986 -18.6610 -18.6514 -18.4329 -18.4227 -18.4027
   -18.3983 -18.3705 -18.3637 -18.3349 -18.3023 -18.3021 -18.2641 -18.2635
   -18.1339 -18.1006 -18.0954 -18.0577 -18.0305 -17.4940 -17.4316 -17.0385
   -17.0367 -11.0354  -8.4181  -8.3451  -7.6148  -7.6001  -7.5606  -7.5592
    -7.5298  -7.5296  -7.3587  -7.2200  -7.0892  -7.0311  -6.9908  -6.9655
    -6.9626  -6.9127  -6.8728  -6.8718  -6.7723  -6.7516  -6.6263  -6.6032
    -6.5830  -6.5552  -6.4922  -6.4213  -6.4068  -6.2696  -6.2527  -6.2429
    -6.1425  -5.9366  -5.7580  -5.7510  -5.7109  -5.6009  -5.5794  -5.4271
    -5.4196  -5.3399  -5.3135  -5.1697  -5.1373  -5.0940  -5.0432  -5.0363
[...]
   -18.3295 -18.1909 -18.1872 -18.1200 -18.0842 -17.8115 -17.5454 -17.2190
   -17.2187  -7.0196  -6.9911  -6.9026  -6.9016  -6.6287  -6.5665  -6.5241
    -6.5161  -6.5093  -6.4325  -6.4293  -6.4230  -6.4204  -6.3749  -6.3321
    -6.2963  -6.2408  -6.2363  -6.2062  -6.2049  -6.1732  -6.1547  -6.1479
    -6.1150  -6.1132  -6.1127  -5.9606  -5.7995  -5.7969  -5.6265  -5.6262
    -5.5861  -5.5723  -5.5699  -5.5609  -5.5592  -5.4766  -5.3765  -5.3726
    -5.3265  -5.2135  -5.1034  -5.0489  -4.9208  -4.8889  -4.7500  -4.7369
    -4.7063  -4.6972  -4.6945  -4.6583  -4.6539  -4.5263  -4.5091  -4.4821
    -4.4571  -4.3968  -4.2450  -4.2247  -4.2104  -4.1484  -4.0511  -4.0470
    -4.0416  -3.9450  -3.9329  -3.8930  -3.8879  -3.7912  -3.6555  -3.4785
    -3.4728  -3.4622  -3.2055  -3.1767  -3.1352  -3.0918  -2.7059  -2.6583
    -2.6088  -2.4566  -2.4543  -2.4314  -2.3798  -2.3054  -2.2502  -2.2265
    -2.1782  -2.0395  -2.0309  -1.9059  -1.8951  -1.8696  -1.7966  -1.7217
    -1.6589  -1.6584  -1.6231  -1.3034   0.1590   0.1805   0.1864   0.2001
     0.2799   0.3098   0.3185   0.3283   0.3801   0.5113   0.5140   0.5382
     0.5717   0.5730   0.5770   0.5930   0.8073   0.8215   0.8683   0.8696
     0.9448   0.9490   0.9690   0.9741   1.1167   1.1399   1.1666   1.1679
     1.1766   1.1866   1.2141   1.2387   1.2788   1.2855   1.2952   1.3315
     1.3747   1.3921   1.4000   1.4057   1.4612   1.4927   1.4945   1.5685
     1.5889   1.6096   1.6400   1.6499   2.0674   2.0698   2.1476   2.1919
     2.1944   2.2355   2.2842   2.3293   2.3298   2.4935   2.5194   2.5536
     2.5786   2.6017   2.6019   2.9675   3.1622   3.2612   3.2635   3.3857
     3.4917   3.5091   3.5607   3.6847   3.9014   3.9479   3.9626   4.0099
     4.1267   4.1323   4.1993   4.1996   6.3685   6.3697   6.4359   7.4373
     7.4383   7.5488   7.5573   7.6345   7.6819   7.7189   7.7510   7.8472
     7.9879   8.0430   8.0605   8.2269   8.4368   8.5061   8.5127   8.7241
     9.0070   9.0800   9.0925   9.3013   9.6680   9.6902   9.7783   9.8257
    10.0744  10.2158  10.2374  10.2699  10.4539  10.5148  10.5898  10.6109
    10.9858  11.0511  11.0582  11.0799  11.2266  11.3485  11.4045  11.4767
    11.9473  11.9687  11.9729  11.9742  12.2249  12.2721  12.3943  12.4413
    12.9306  13.0306  13.0478  13.1323  13.3107  13.3243  13.3668  13.4135
    13.6222  13.8748  13.9613  13.9778  14.1831  14.2561  14.2937  14.2982
    14.3335  14.3588  14.4093  14.4187  14.4941  14.5317  14.6171  14.6420
    14.6564  14.6700  14.7830  14.8215  14.9019  14.9270  14.9874  15.0181
    15.0324  15.0551  15.0682  15.1244  15.1336  15.1395  15.1895  15.2247
    15.2480  15.3518  15.4382  15.4522  15.4762  15.4788  15.5017  15.5328
    15.5430  15.5506  15.6987  15.7135  15.7211  15.8186  15.8206  15.9705
    16.0028  16.0185  16.0356  16.0495  16.0807  16.1180  16.1564  16.1842
    16.3060  16.3204  16.3807  16.4125  16.4175  16.4533  16.4767  16.5330
    16.5636  16.5808  16.5864  16.7065  16.7185  16.7728  16.8367  16.8388
    16.8411  16.8568  16.8736  16.9035  16.9215  16.9980  17.0112  17.0567
    17.0657  17.0788  17.0815  17.1815  17.1862  17.2144  17.2691  17.3730
    17.3763  17.4062  17.4138  17.5414  17.5571  17.5587  17.5716  17.5805
    17.6006  17.6355  17.6494  17.6922  17.7273  17.8032  17.8273  17.9523
    17.9629  18.0281  18.1213  18.1238  18.1347  18.1457  18.2238  18.2965
    18.3458  18.3618  18.3628  18.3767  18.4204  18.5104  18.5342  18.5952
    18.6158  18.6298  18.6517  18.7431  18.8871  18.8994  18.9147  18.9156
    19.0288  19.0578  19.0820  19.0960  19.1177  19.1584  19.1960  19.2821
    19.3502  19.4358  19.4931  19.5617  19.6421  19.6690  19.7631  19.8071
    19.8700  19.8797  19.9143  19.9427  20.0022  20.0804  20.1742  20.2123
    20.2420  20.2709  20.3373  20.4314  20.5333  20.5853  20.6536  20.7556
    20.7990  20.8218  20.8536  20.9809  21.0456  21.1440  21.3539  21.4079
    21.4393  21.4724  21.5522  21.6317  21.7423  21.8335  21.8442  21.9853
    22.0198  22.0452  22.0498  22.1896  22.2298  22.2528  22.3713  22.4021
    22.4674  22.5171  22.6257  22.8263  23.1533  23.2016  23.2362  23.2820
    23.3297  23.3388  23.3430  23.4081  23.4570  23.4932  23.5216  23.6155
    23.8412  23.8692  23.9820  23.9889  24.1667  24.2322  24.2820  24.3273
    24.3750  24.4452  24.5465  24.5869  24.5994  24.6096  24.6233  24.7363
    24.8273  24.8417  24.8536  24.8579  24.9130  24.9475  24.9506  24.9948
    25.0260  25.0330  25.0539  25.0665  25.1688  25.1933  25.2056  25.3600
    25.3861  25.4016  25.4778  25.4847  25.5169  25.5538  25.5827  25.6748
    25.6896  25.7064  25.7738  25.7852  25.8453  25.8558  25.8850  25.9601
    26.0084  26.0252  26.0256  26.0802  26.0829  26.0916  26.2011  26.2208
    26.2649  26.2768  26.3311  26.3918  26.3918  26.4271  26.4758  26.5016
    26.5699  26.6061  26.6279  26.6316  26.6429  26.6483  26.6820  26.7194
    26.7462  26.7865  26.7949  26.9226  26.9622  27.0105  27.1365  27.2171
    27.2391  27.2614  27.2925  27.2994  27.3629  27.3760  27.5381  27.5983
    27.7051  27.7486  27.7670  27.7953  27.8511  27.8635  27.8765  27.8966
    27.9001  27.9272

     the Fermi energy is    -0.4569 ev

!    total energy              =   -4472.72636091 Ry
     Harris-Foulkes estimate   =   -4472.72636092 Ry
     estimated scf accuracy    <       0.00000002 Ry

     The total energy is the sum of the following terms:

     one-electron contribution =  -92808.36611287 Ry
     hartree contribution      =   46450.19389129 Ry
     xc contribution           =    -655.88639544 Ry
     ewald contribution        =   42541.33225513 Ry
     smearing contrib. (-TS)   =       0.00000098 Ry

     total magnetization       =    47.01 Bohr mag/cell
     absolute magnetization    =    49.44 Bohr mag/cell

     convergence has been achieved in  16 iterations

     Forces acting on atoms (Ry/au):


     negative rho (up, down):  0.324E-02 0.167E-02
     atom    1 type  1   force =    -0.00000912    0.00000000    0.05044984
     atom    2 type  2   force =     0.00015711    0.00000000   -0.08538836
     atom    3 type  2   force =    -0.00001316    0.00000000    0.04858729
     atom    4 type  1   force =     0.00007072    0.05109977   -0.04331002
     atom    5 type  1   force =     0.00007072   -0.05109977   -0.04331002
     atom    6 type  1   force =    -0.00004952    0.00000000    0.01141804
     atom    7 type  1   force =     0.00000084    0.00000000    0.00773884
     atom    8 type  2   force =    -0.00017642    0.00000000    0.03131040
     atom    9 type  2   force =     0.00013291    0.00000000    0.00063227
     atom   10 type  1   force =     0.00003328   -0.03276122    0.00508410
     atom   11 type  1   force =     0.00003328    0.03276122    0.00508410
     atom   12 type  1   force =     0.00000345    0.00000000    0.00868755
     atom   13 type  1   force =     0.00050888    0.00000000   -0.00023956
     atom   14 type  2   force =     0.01128499    0.00000000    0.00878854
     atom   15 type  2   force =    -0.00009503    0.00000000   -0.00018011
     atom   16 type  1   force =     0.00003380    0.00011281    0.00002958
     atom   17 type  1   force =     0.00003380   -0.00011281    0.00002958
     atom   18 type  1   force =     0.00068553    0.00000000    0.00617145
     atom   19 type  1   force =    -0.00004382    0.00000000    0.00188960
     atom   20 type  2   force =     0.00259777    0.00000000    0.00472018
     atom   21 type  2   force =    -0.00948665    0.00000000   -0.01382006
     atom   22 type  1   force =    -0.03294294    0.01775983   -0.02790969
     atom   23 type  1   force =    -0.03294294   -0.01775983   -0.02790969
     atom   24 type  1   force =     0.00147612    0.00000000   -0.00097082
     atom   25 type  1   force =     0.00000437    0.00000000    0.05050688
     atom   26 type  2   force =    -0.00013426    0.00000000   -0.08534141
     atom   27 type  2   force =     0.00000285    0.00000000    0.04907875
     atom   28 type  1   force =    -0.00007441    0.05109186   -0.04331177
     atom   29 type  1   force =    -0.00007441   -0.05109186   -0.04331177
     atom   30 type  1   force =     0.00001288    0.00000000    0.01098744
     atom   31 type  1   force =     0.00000101    0.00000000    0.00708894
     atom   32 type  2   force =     0.00017788    0.00000000    0.03131246
     atom   33 type  2   force =    -0.00003479    0.00000000    0.00036152
     atom   34 type  1   force =    -0.00004232   -0.03276051    0.00510729
     atom   35 type  1   force =    -0.00004232    0.03276051    0.00510729
     atom   36 type  1   force =    -0.00000206    0.00000000    0.00833872
     atom   37 type  1   force =    -0.00016414    0.00000000   -0.00196987
     atom   38 type  2   force =    -0.01204097    0.00000000    0.00917278
     atom   39 type  2   force =     0.00017089    0.00000000    0.00091338
     atom   40 type  1   force =    -0.00012809    0.00020195    0.00002322
     atom   41 type  1   force =    -0.00012809   -0.00020195    0.00002322
     atom   42 type  1   force =     0.00019447    0.00000000   -0.03375480
     atom   43 type  1   force =    -0.00024022    0.00000000    0.00053924
     atom   44 type  2   force =    -0.00261157    0.00000000    0.00540827
     atom   45 type  2   force =     0.00322963    0.00000000    0.13201760
     atom   46 type  1   force =     0.02973668    0.01611060   -0.02988915
     atom   47 type  1   force =     0.02973668   -0.01611060   -0.02988915
     atom   48 type  1   force =    -0.00117628    0.00000000   -0.00233514
     atom   49 type  1   force =     0.01027739    0.00000000    0.00489964
     atom   50 type  3   force =     0.00198552    0.00000000    0.00133340

     Total force =     0.011634     Total SCF correction =     0.000105

     number of scf cycles    =  13
     number of bfgs steps    =  12

     energy   old            =   -4472.7261811548 Ry
     energy   new            =   -4472.7263609109 Ry

     CASE: energy  _new < energy  _old

     new trust radius        =       0.0346174676 bohr
     new conv_thr            =       0.0000000180 Ry


ATOMIC_POSITIONS (crystal)
O0       0.000000000   0.500000000   0.335990000    0   0   0
Mn1      0.250000000   0.500000000   0.370520000    0   0   0
Mn1      0.000000000   0.000000000   0.370520000    0   0   0
O0       0.250000000   0.800000000   0.370520000    0   0   0
O0       0.250000000   0.200000000   0.370520000    0   0   0
O0       0.000000000   0.500000000   0.405050000    0   0   0
O0       0.000000000   0.000000000   0.422310000    0   0   0
Mn1      0.250000000   0.000000000   0.456840000    0   0   0
Mn1      0.000000000   0.500000000   0.456840000    0   0   0
O0       0.250000000   0.700000000   0.456840000    0   0   0
O0       0.250000000   0.300000000   0.456840000    0   0   0
O0       0.000000000   0.000000000   0.491370000    0   0   0
O0       0.000000000   0.500000000   0.511060000    0   0   0
Mn1      0.250000000   0.500000000   0.544870000    0   0   0
Mn1      0.000000000   0.000000000   0.546850000    0   0   0
O0       0.250000000   0.803780000   0.545780000    0   0   0
O0       0.250000000   0.196220000   0.545780000    0   0   0
O0       0.000000000   0.500000000   0.580550000    0   0   0
O0       0.000000000   0.000000000   0.600030000    0   0   0
Mn1      0.250000000   0.000000000   0.636930000    0   0   0
Mn1      0.000000000   0.500000000   0.631850000    0   0   0
O0       0.250000000   0.690440000   0.640480000    0   0   0
O0       0.250000000   0.309560000   0.640480000    0   0   0
O0       0.000000000   0.000000000   0.668690000    0   0   0
O0       0.500000000   0.500000000   0.335990000    0   0   0
Mn1      0.750000000   0.500000000   0.370520000    0   0   0
Mn1      0.500000000   0.000000000   0.370520000    0   0   0
O0       0.750000000   0.800000000   0.370520000    0   0   0
O0       0.750000000   0.200000000   0.370520000    0   0   0
O0       0.500000000   0.500000000   0.405050000    0   0   0
O0       0.500000000   0.000000000   0.422310000    0   0   0
Mn1      0.750000000   0.000000000   0.456840000    0   0   0
Mn1      0.500000000   0.500000000   0.456840000    0   0   0
O0       0.750000000   0.700000000   0.456840000    0   0   0
O0       0.750000000   0.300000000   0.456840000    0   0   0
O0       0.500000000   0.000000000   0.491370000    0   0   0
O0       0.500000000   0.500000000   0.511060000    0   0   0
Mn1      0.750000000   0.500000000   0.544870000    0   0   0
Mn1      0.500000000   0.000000000   0.546850000    0   0   0
O0       0.750000000   0.803780000   0.545780000    0   0   0
O0       0.750000000   0.196220000   0.545780000    0   0   0
O0       0.500000000   0.500000000   0.580550000    0   0   0
O0       0.500000000   0.000000000   0.600030000    0   0   0
Mn1      0.750000000   0.000000000   0.636930000    0   0   0
Mn1      0.500000000   0.500000000   0.631850000    0   0   0
O0       0.750000000   0.690440000   0.640480000    0   0   0
O0       0.750000000   0.309560000   0.640480000    0   0   0
O0       0.500000000   0.000000000   0.668690000    0   0   0
O0       0.504297103   0.500000000   0.685871041
H2       0.340999235   0.500000000   0.695037503


     Check: negative starting charge=(component1):   -0.001262
     NEW-OLD atomic charge density approx. for the potential

     Check: negative/imaginary core charge=   -0.000028    0.000000
     Check: negative starting charge=(component1):   -0.001259

     negative rho (up, down):  0.259E-02 0.201E-02

     total cpu time spent up to now is   167259.8 secs

     Self-consistent Calculation

     iteration #  1     ecut=    40.00 Ry     beta=0.30
     Davidson diagonalization with overlap
     ethr =  1.00E-06,  avg # of iterations =  2.4

     Threshold (ethr) on eigenvalues was too large:
     Diagonalizing with lowered threshold

     Davidson diagonalization with overlap
     ethr =  7.52E-08,  avg # of iterations =  1.0

     negative rho (up, down):  0.329E-02 0.217E-02

     total cpu time spent up to now is   168328.1 secs

     total energy              =   -4472.72653537 Ry
     Harris-Foulkes estimate   =   -4472.72664913 Ry
     estimated scf accuracy    <       0.00033017 Ry

     total magnetization       =    47.01 Bohr mag/cell
     absolute magnetization    =    49.45 Bohr mag/cell

     iteration #  2     ecut=    40.00 Ry     beta=0.30
     Davidson diagonalization with overlap
     ethr =  7.52E-08,  avg # of iterations =  3.8

     negative rho (up, down):  0.324E-02 0.201E-02

     total cpu time spent up to now is   169048.7 secs

     total energy              =   -4472.72557244 Ry
     Harris-Foulkes estimate   =   -4472.72758319 Ry
     estimated scf accuracy    <       0.09082435 Ry

     total magnetization       =    47.01 Bohr mag/cell
     absolute magnetization    =    49.29 Bohr mag/cell

     iteration #  3     ecut=    40.00 Ry     beta=0.30
     Davidson diagonalization with overlap
     ethr =  7.52E-08,  avg # of iterations =  3.8

     negative rho (up, down):  0.322E-02 0.192E-02

     total cpu time spent up to now is   169777.9 secs

     total energy              =   -4472.72655569 Ry
     Harris-Foulkes estimate   =   -4472.72668948 Ry
     estimated scf accuracy    <       0.00243028 Ry

     total magnetization       =    47.01 Bohr mag/cell
     absolute magnetization    =    49.41 Bohr mag/cell

     iteration #  4     ecut=    40.00 Ry     beta=0.30
     Davidson diagonalization with overlap
     ethr =  7.52E-08,  avg # of iterations =  1.0

     negative rho (up, down):  0.321E-02 0.183E-02

     total cpu time spent up to now is   170169.3 secs

     total energy              =   -4472.72662031 Ry
     Harris-Foulkes estimate   =   -4472.72663892 Ry
     estimated scf accuracy    <       0.00016140 Ry

     total magnetization       =    47.01 Bohr mag/cell
     absolute magnetization    =    49.44 Bohr mag/cell

     iteration #  5     ecut=    40.00 Ry     beta=0.30
     Davidson diagonalization with overlap
     ethr =  3.68E-08,  avg # of iterations =  1.0

     negative rho (up, down):  0.321E-02 0.174E-02

     total cpu time spent up to now is   170557.0 secs

     total energy              =   -4472.72661554 Ry
     Harris-Foulkes estimate   =   -4472.72665429 Ry
     estimated scf accuracy    <       0.00040889 Ry

     total magnetization       =    47.01 Bohr mag/cell
     absolute magnetization    =    49.44 Bohr mag/cell

     iteration #  6     ecut=    40.00 Ry     beta=0.30
     Davidson diagonalization with overlap
     ethr =  3.68E-08,  avg # of iterations =  1.0

     negative rho (up, down):  0.321E-02 0.171E-02

     total cpu time spent up to now is   170947.4 secs

     total energy              =   -4472.72663552 Ry
     Harris-Foulkes estimate   =   -4472.72664415 Ry
     estimated scf accuracy    <       0.00007870 Ry

     total magnetization       =    47.01 Bohr mag/cell
     absolute magnetization    =    49.43 Bohr mag/cell

     iteration #  7     ecut=    40.00 Ry     beta=0.30
     Davidson diagonalization with overlap
     ethr =  1.79E-08,  avg # of iterations =  1.0

     negative rho (up, down):  0.322E-02 0.169E-02

     total cpu time spent up to now is   171333.6 secs

     total energy              =   -4472.72664103 Ry
     Harris-Foulkes estimate   =   -4472.72664124 Ry
     estimated scf accuracy    <       0.00000566 Ry

     total magnetization       =    47.01 Bohr mag/cell
     absolute magnetization    =    49.43 Bohr mag/cell

     iteration #  8     ecut=    40.00 Ry     beta=0.30
     Davidson diagonalization with overlap
     ethr =  1.29E-09,  avg # of iterations =  1.0

     negative rho (up, down):  0.323E-02 0.168E-02

     total cpu time spent up to now is   171724.5 secs

     total energy              =   -4472.72664171 Ry
     Harris-Foulkes estimate   =   -4472.72664216 Ry
     estimated scf accuracy    <       0.00000754 Ry

     total magnetization       =    47.01 Bohr mag/cell
     absolute magnetization    =    49.43 Bohr mag/cell

     iteration #  9     ecut=    40.00 Ry     beta=0.30
     Davidson diagonalization with overlap
     ethr =  1.29E-09,  avg # of iterations =  1.2

     negative rho (up, down):  0.323E-02 0.167E-02

     total cpu time spent up to now is   172131.3 secs

     total energy              =   -4472.72664232 Ry
     Harris-Foulkes estimate   =   -4472.72664237 Ry
     estimated scf accuracy    <       0.00000151 Ry

     total magnetization       =    47.01 Bohr mag/cell
     absolute magnetization    =    49.43 Bohr mag/cell

     iteration # 10     ecut=    40.00 Ry     beta=0.30
     Davidson diagonalization with overlap
     ethr =  3.43E-10,  avg # of iterations =  1.8

     negative rho (up, down):  0.324E-02 0.167E-02

     total cpu time spent up to now is   172601.1 secs

     total energy              =   -4472.72664244 Ry
     Harris-Foulkes estimate   =   -4472.72664255 Ry
     estimated scf accuracy    <       0.00000112 Ry

     total magnetization       =    47.01 Bohr mag/cell
     absolute magnetization    =    49.43 Bohr mag/cell

     iteration # 11     ecut=    40.00 Ry     beta=0.30
     Davidson diagonalization with overlap
=>> PBS: job killed: walltime 172835 exceeded limit 172800
mpirun: killing job...

---------------------------------------
Running PBS batch system epilogue script
Job id: 314597.audhumbla.fysik.dtu.dk
Username: zhonxu
Groupname: campgst
Jobname: MnO2/Eads-4-layers/OH
Sessionid: 11601
Resources limits: neednodes=2:ppn=16:xeon16,nodes=2:ppn=16:xeon16,walltime=48:00:00
Resources used: cput=1530:01:09,mem=26265472kb,vmem=33718620kb,walltime=48:00:36
Queuename: verylong
Accounting:
This job has allocated the following 32 nodes:
g098 g098 g098 g098 g098 g098 g098 g098 g098 g098 g098 g098 g098 g098 g098 g098 g094 g094 g094 g094 g094 g094 g094 g094 g094 g094 g094 g094 g094 g094 g094 g094
Finished epilogue job 314597.audhumbla.fysik.dtu.dk for zhonxu
