
     Program PWSCF v.5.0.2 (svn rev. 9656) starts on 30May2014 at  0:32: 4 

     This program is part of the open-source Quantum ESPRESSO suite
     for quantum simulation of materials; please cite
         "P. Giannozzi et al., J. Phys.:Condens. Matter 21 395502 (2009);
          URL http://www.quantum-espresso.org", 
     in publications or presentations arising from this work. More details at
     http://www.quantum-espresso.org/quote.php

     Parallel version (MPI), running on    16 processors
     K-points division:     npool     =       4
     R & G space division:  proc/nbgrp/npool/nimage =       4

     Current dimensions of program PWSCF are:
     Max number of different atomic species (ntypx) = 10
     Max number of k-points (npk) =  40000
     Max angular momentum in pseudopotentials (lmaxx) =  3
     Reading input from pwscf.in
Warning: card &CELL ignored
Warning: card / ignored

     Subspace diagonalization in iterative solution of the eigenvalue problem:
     a serial algorithm will be used


     Parallelization info
     --------------------
     sticks:   dense  smooth     PW     G-vecs:    dense   smooth      PW
     Min        1450     467    129               343652    62241    9199
     Max        1451     468    130               343665    62278    9208
     Sum        5803    1869    517              1374641   249013   36807



     bravais-lattice index     =            0
     lattice parameter (alat)  =      12.0187  a.u.
     unit-cell volume          =    7280.5819 (a.u.)^3
     number of atoms/cell      =           33
     number of atomic types    =            3
     number of electrons       =       245.00
     number of Kohn-Sham states=          367
     kinetic-energy cutoff     =      40.0000  Ry
     charge density cutoff     =     500.0000  Ry
     convergence threshold     =      1.0E-06
     mixing beta               =       0.7000
     number of iterations used =            8  plain     mixing
     Exchange-correlation      = SLA  PW   PBE  PBE ( 1 4 3 4 0)
     EXX-fraction              =        0.00
     nstep                     =           50


     celldm(1)=  12.018658  celldm(2)=   0.000000  celldm(3)=   0.000000
     celldm(4)=   0.000000  celldm(5)=   0.000000  celldm(6)=   0.000000

     crystal axes: (cart. coord. in units of alat)
               a(1) = (   1.000000   0.000000   0.000000 )  
               a(2) = (   0.000000   1.009517   0.000000 )  
               a(3) = (   0.000000   0.000000   4.154171 )  

     reciprocal axes: (cart. coord. in units 2 pi/alat)
               b(1) = (  1.000000  0.000000  0.000000 )  
               b(2) = (  0.000000  0.990572  0.000000 )  
               b(3) = (  0.000000  0.000000  0.240722 )  


     PseudoPot. # 1 for O  read from file:
     /home/camp/zhonxu/pseudo/o_pbe_v1.01.uspp.F.UPF
     MD5 check sum: 2bcb18d16ea4b960afae9ec6d52f22d2
     Pseudo is Ultrasoft + core correction, Zval =  6.0
     Generated by new atomic code, or converted to UPF format
     Using radial grid of  737 points,  5 beta functions with: 
                l(1) =   0
                l(2) =   0
                l(3) =   1
                l(4) =   1
                l(5) =   2
     Q(r) pseudized with  8 coefficients,  rinner =    0.900   0.900   0.900
                                                       0.900   0.900

     PseudoPot. # 2 for Ir read from file:
     /home/camp/zhonxu/pseudo/ir_pbe_v1.uspp.F.UPF
     MD5 check sum: abf987a9674477536ede83817f8f8b70
     Pseudo is Ultrasoft + core correction, Zval = 15.0
     Generated by new atomic code, or converted to UPF format
     Using radial grid of  983 points,  7 beta functions with: 
                l(1) =   0
                l(2) =   0
                l(3) =   1
                l(4) =   1
                l(5) =   1
                l(6) =   2
                l(7) =   2
     Q(r) pseudized with  8 coefficients,  rinner =    1.350   1.350   1.350
                                                       1.350   1.350

     PseudoPot. # 3 for H  read from file:
     /home/camp/zhonxu/pseudo/h_pbe_v1.uspp.F.UPF
     MD5 check sum: 3408e3ff4ec8b0a4e358431e7e038a48
     Pseudo is Ultrasoft, Zval =  1.0
     Generated by new atomic code, or converted to UPF format
     Using radial grid of  615 points,  2 beta functions with: 
                l(1) =   0
                l(2) =   0
     Q(r) pseudized with  8 coefficients,  rinner =    0.700

     atomic species   valence    mass     pseudopotential
        O0             6.00    15.99940     O ( 1.00)
        Ir1           15.00   192.22000     Ir( 1.00)
        H2             1.00     1.00794     H ( 1.00)


     Simplified LDA+U calculation (l_max = 2) with parameters (eV):
     atomic species    L          U    alpha       J0     beta
        Ir1            2     5.5000   0.0000   0.0000   0.0000



     No symmetry found



   Cartesian axes

     site n.     atom                  positions (alat units)
         1           O0  tau(   1) = (   0.0000000   0.0000000   1.5694875  )
         2           O0  tau(   2) = (   0.0000000   0.5047586   1.6702677  )
         3           Ir1 tau(   3) = (   0.2500000   0.5047586   1.8805934  )
         4           Ir1 tau(   4) = (   0.0000000   0.0000000   1.8807595  )
         5           O0  tau(   5) = (   0.2500000   0.8177090   1.8801779  )
         6           O0  tau(   6) = (   0.2500000   0.1918083   1.8787655  )
         7           O0  tau(   7) = (   0.0000000   0.5047586   2.0695666  )
         8           O0  tau(   8) = (   0.0000000   0.0000000   2.1948564  )
         9           Ir1 tau(   9) = (   0.2500000   0.0000000   2.3901025  )
        10           Ir1 tau(  10) = (   0.0000000   0.5047586   2.3742751  )
        11           O0  tau(  11) = (   0.2500000   0.6965669   2.3856575  )
        12           O0  tau(  12) = (   0.2500000   0.3129503   2.3949628  )
        13           O0  tau(  13) = (   0.0000000   0.0000000   2.5754200  )
        14           O0  tau(  14) = (   0.5000000   0.0000000   1.5694875  )
        15           O0  tau(  15) = (   0.5000000   0.5047586   1.6704338  )
        16           Ir1 tau(  16) = (   0.7500000   0.5047586   1.8805934  )
        17           Ir1 tau(  17) = (   0.5000000   0.0000000   1.8805518  )
        18           O0  tau(  18) = (   0.7500000   0.8177090   1.8801364  )
        19           O0  tau(  19) = (   0.7500000   0.1918083   1.8788486  )
        20           O0  tau(  20) = (   0.5000000   0.5047586   2.0759640  )
        21           O0  tau(  21) = (   0.5000000   0.0000000   2.1945241  )
        22           Ir1 tau(  22) = (   0.7500000   0.0000000   2.3900609  )
        23           Ir1 tau(  23) = (   0.5000000   0.5047586   2.3998648  )
        24           O0  tau(  24) = (   0.7500000   0.6965669   2.3856575  )
        25           O0  tau(  25) = (   0.7500000   0.3129503   2.3949628  )
        26           O0  tau(  26) = (   0.5000000   0.0000000   2.5728445  )
        27           H2  tau(  27) = (   0.0000400   0.6420328   1.5957418  )
        28           H2  tau(  28) = (   0.4999400   0.6424971   1.5965311  )
        29           H2  tau(  29) = (   0.1432100   0.0360095   1.5217560  )
        30           H2  tau(  30) = (   0.6436700   0.0339703   1.5215899  )
        31           O0  tau(  31) = (   0.4997900   0.5432313   2.6993805  )
        32           O0  tau(  32) = (   0.5001800   0.3480815   2.8224271  )
        33           H2  tau(  33) = (   0.4999800   0.4114489   2.9642920  )

     number of k points=    10  Methfessel-Paxton smearing, width (Ry)=  0.0100
                       cart. coord. in units 2pi/alat
        k(    1) = (   0.0000000   0.0000000   0.0000000), wk =   0.1250000
        k(    2) = (   0.0000000   0.2476431   0.0000000), wk =   0.2500000
        k(    3) = (   0.0000000  -0.4952862   0.0000000), wk =   0.1250000
        k(    4) = (   0.2500000   0.0000000   0.0000000), wk =   0.2500000
        k(    5) = (   0.2500000   0.2476431   0.0000000), wk =   0.2500000
        k(    6) = (   0.2500000  -0.4952862   0.0000000), wk =   0.2500000
        k(    7) = (  -0.5000000   0.0000000   0.0000000), wk =   0.1250000
        k(    8) = (  -0.5000000   0.2476431   0.0000000), wk =   0.2500000
        k(    9) = (  -0.5000000  -0.4952862   0.0000000), wk =   0.1250000
        k(   10) = (  -0.2500000   0.2476431   0.0000000), wk =   0.2500000

     Dense  grid:  1374641 G-vectors     FFT dimensions: (  90,  90, 360)

     Smooth grid:   249013 G-vectors     FFT dimensions: (  50,  50, 216)

     Largest allocated arrays     est. size (Mb)     dimensions
        Kohn-Sham Wavefunctions        44.06 Mb     (   7867,  367)
        Atomic wavefunctions           21.73 Mb     (   7867,  181)
        NL pseudopotentials            52.58 Mb     (   7867,  438)
        Each V/rho on FFT grid         11.12 Mb     ( 729000)
        Each G-vector array             2.62 Mb     ( 343661)
        G-vector shells                 1.13 Mb     ( 148760)
     Largest temporary arrays     est. size (Mb)     dimensions
        Auxiliary wavefunctions       176.22 Mb     (   7867, 1468)
        Each subspace H/S matrix       32.88 Mb     (1468,1468)
        Each <psi_i|beta_j> matrix      2.45 Mb     (    438,  367)
        Arrays for rho mixing          88.99 Mb     ( 729000,   8)

     Check: negative/imaginary core charge=   -0.000003    0.000000

     Initial potential from superposition of free atoms
     Check: negative starting charge=   -3.336869

     starting charge  240.99967, renormalised to  245.00000

     negative rho (up, down):  0.339E+01 0.000E+00
     Number of +U iterations with fixed ns =  0
     Starting occupations:
 --- enter write_ns ---
 LDA+U parameters:
U( 2)     =  5.50000000
alpha( 2) =  0.00000000
atom    3   Tr[ns(na)] =   7.00000
    eigenvalues: 
  0.700  0.700  0.700  0.700  0.700
    eigenvectors:
  1.000  0.000  0.000  0.000  0.000
  0.000  1.000  0.000  0.000  0.000
  0.000  0.000  1.000  0.000  0.000
  0.000  0.000  0.000  1.000  0.000
  0.000  0.000  0.000  0.000  1.000
    occupations:
  0.700  0.000  0.000  0.000  0.000
  0.000  0.700  0.000  0.000  0.000
  0.000  0.000  0.700  0.000  0.000
  0.000  0.000  0.000  0.700  0.000
  0.000  0.000  0.000  0.000  0.700
atom    4   Tr[ns(na)] =   7.00000
    eigenvalues: 
  0.700  0.700  0.700  0.700  0.700
    eigenvectors:
  1.000  0.000  0.000  0.000  0.000
  0.000  1.000  0.000  0.000  0.000
  0.000  0.000  1.000  0.000  0.000
  0.000  0.000  0.000  1.000  0.000
  0.000  0.000  0.000  0.000  1.000
    occupations:
  0.700  0.000  0.000  0.000  0.000
  0.000  0.700  0.000  0.000  0.000
  0.000  0.000  0.700  0.000  0.000
  0.000  0.000  0.000  0.700  0.000
  0.000  0.000  0.000  0.000  0.700
atom    9   Tr[ns(na)] =   7.00000
    eigenvalues: 
  0.700  0.700  0.700  0.700  0.700
    eigenvectors:
  1.000  0.000  0.000  0.000  0.000
  0.000  1.000  0.000  0.000  0.000
  0.000  0.000  1.000  0.000  0.000
  0.000  0.000  0.000  1.000  0.000
  0.000  0.000  0.000  0.000  1.000
    occupations:
  0.700  0.000  0.000  0.000  0.000
  0.000  0.700  0.000  0.000  0.000
  0.000  0.000  0.700  0.000  0.000
  0.000  0.000  0.000  0.700  0.000
  0.000  0.000  0.000  0.000  0.700
atom   10   Tr[ns(na)] =   7.00000
    eigenvalues: 
  0.700  0.700  0.700  0.700  0.700
    eigenvectors:
  1.000  0.000  0.000  0.000  0.000
  0.000  1.000  0.000  0.000  0.000
  0.000  0.000  1.000  0.000  0.000
  0.000  0.000  0.000  1.000  0.000
  0.000  0.000  0.000  0.000  1.000
    occupations:
  0.700  0.000  0.000  0.000  0.000
  0.000  0.700  0.000  0.000  0.000
  0.000  0.000  0.700  0.000  0.000
  0.000  0.000  0.000  0.700  0.000
  0.000  0.000  0.000  0.000  0.700
atom   16   Tr[ns(na)] =   7.00000
    eigenvalues: 
  0.700  0.700  0.700  0.700  0.700
    eigenvectors:
  1.000  0.000  0.000  0.000  0.000
  0.000  1.000  0.000  0.000  0.000
  0.000  0.000  1.000  0.000  0.000
  0.000  0.000  0.000  1.000  0.000
  0.000  0.000  0.000  0.000  1.000
    occupations:
  0.700  0.000  0.000  0.000  0.000
  0.000  0.700  0.000  0.000  0.000
  0.000  0.000  0.700  0.000  0.000
  0.000  0.000  0.000  0.700  0.000
  0.000  0.000  0.000  0.000  0.700
atom   17   Tr[ns(na)] =   7.00000
    eigenvalues: 
  0.700  0.700  0.700  0.700  0.700
    eigenvectors:
  1.000  0.000  0.000  0.000  0.000
  0.000  1.000  0.000  0.000  0.000
  0.000  0.000  1.000  0.000  0.000
  0.000  0.000  0.000  1.000  0.000
  0.000  0.000  0.000  0.000  1.000
    occupations:
  0.700  0.000  0.000  0.000  0.000
  0.000  0.700  0.000  0.000  0.000
  0.000  0.000  0.700  0.000  0.000
  0.000  0.000  0.000  0.700  0.000
  0.000  0.000  0.000  0.000  0.700
atom   22   Tr[ns(na)] =   7.00000
    eigenvalues: 
  0.700  0.700  0.700  0.700  0.700
    eigenvectors:
  1.000  0.000  0.000  0.000  0.000
  0.000  1.000  0.000  0.000  0.000
  0.000  0.000  1.000  0.000  0.000
  0.000  0.000  0.000  1.000  0.000
  0.000  0.000  0.000  0.000  1.000
    occupations:
  0.700  0.000  0.000  0.000  0.000
  0.000  0.700  0.000  0.000  0.000
  0.000  0.000  0.700  0.000  0.000
  0.000  0.000  0.000  0.700  0.000
  0.000  0.000  0.000  0.000  0.700
atom   23   Tr[ns(na)] =   7.00000
    eigenvalues: 
  0.700  0.700  0.700  0.700  0.700
    eigenvectors:
  1.000  0.000  0.000  0.000  0.000
  0.000  1.000  0.000  0.000  0.000
  0.000  0.000  1.000  0.000  0.000
  0.000  0.000  0.000  1.000  0.000
  0.000  0.000  0.000  0.000  1.000
    occupations:
  0.700  0.000  0.000  0.000  0.000
  0.000  0.700  0.000  0.000  0.000
  0.000  0.000  0.700  0.000  0.000
  0.000  0.000  0.000  0.700  0.000
  0.000  0.000  0.000  0.000  0.700
N of occupied +U levels =  56.0000000
 --- exit write_ns ---
 Atomic wfc used for LDA+U Projector are NOT orthogonalized
     Starting wfc are  181 randomized atomic wfcs

     total cpu time spent up to now is      129.5 secs

     per-process dynamical memory:   438.7 Mb

     Self-consistent Calculation

     iteration #  1     ecut=    40.00 Ry     beta=0.70
     Davidson diagonalization with overlap
     ethr =  1.00E-02,  avg # of iterations =  9.2
 --- enter write_ns ---
 LDA+U parameters:
U( 2)     =  5.50000000
alpha( 2) =  0.00000000
atom    3   Tr[ns(na)] =   7.13538
    eigenvalues: 
  0.450  0.490  0.741  0.937  0.949
    eigenvectors:
  0.000  0.180  0.003  0.813  0.004
  0.999  0.001  0.000  0.000  0.000
  0.000  0.000  0.995  0.003  0.002
  0.001  0.819  0.000  0.179  0.001
  0.000  0.000  0.002  0.005  0.993
    occupations:
  0.856  0.001  0.010 -0.172 -0.000
  0.001  0.450  0.000  0.001 -0.006
  0.010  0.000  0.742 -0.005 -0.009
 -0.172  0.001 -0.005  0.570  0.000
 -0.000 -0.006 -0.009  0.000  0.949
atom    4   Tr[ns(na)] =   6.82005
    eigenvalues: 
  0.477  0.500  0.687  0.794  0.952
    eigenvectors:
  0.000  0.987  0.000  0.000  0.013
  0.000  0.000  0.037  0.963  0.000
  0.000  0.000  0.963  0.037  0.000
  0.000  0.013  0.000  0.000  0.987
  1.000  0.000  0.000  0.000  0.000
    occupations:
  0.506 -0.002 -0.000  0.052  0.000
 -0.002  0.790  0.020 -0.001 -0.001
 -0.000  0.020  0.691  0.003  0.000
  0.052 -0.001  0.003  0.945  0.000
  0.000 -0.001  0.000  0.000  0.477
atom    9   Tr[ns(na)] =   7.02987
    eigenvalues: 
  0.486  0.508  0.749  0.809  0.964
    eigenvectors:
  0.001  0.144  0.001  0.000  0.854
  0.995  0.005  0.000  0.000  0.000
  0.000  0.000  0.935  0.064  0.000
  0.004  0.850  0.000  0.000  0.145
  0.000  0.000  0.064  0.936  0.000
    occupations:
  0.898 -0.002  0.002 -0.161  0.001
 -0.002  0.486  0.000 -0.001 -0.000
  0.002  0.000  0.752 -0.006 -0.015
 -0.161 -0.001 -0.006  0.574  0.000
  0.001 -0.000 -0.015  0.000  0.805
atom   10   Tr[ns(na)] =   7.35662
    eigenvalues: 
  0.451  0.478  0.892  0.901  0.957
    eigenvectors:
  0.991  0.000  0.000  0.000  0.009
  0.000  0.001  0.999  0.000  0.000
  0.000  0.000  0.000  1.000  0.000
  0.009  0.000  0.000  0.000  0.991
  0.000  0.999  0.001  0.000  0.000
    occupations:
  0.455 -0.000  0.003  0.047  0.000
 -0.000  0.892 -0.000 -0.000 -0.011
  0.003 -0.000  0.901 -0.001  0.000
  0.047 -0.000 -0.001  0.952 -0.000
  0.000 -0.011  0.000 -0.000  0.479
atom   16   Tr[ns(na)] =   7.13538
    eigenvalues: 
  0.450  0.490  0.741  0.937  0.950
    eigenvectors:
  0.000  0.180  0.003  0.809  0.008
  0.999  0.001  0.000  0.000  0.000
  0.000  0.000  0.994  0.003  0.003
  0.001  0.819  0.001  0.178  0.002
  0.000  0.000  0.002  0.010  0.987
    occupations:
  0.856 -0.001  0.010 -0.172  0.001
 -0.001  0.450 -0.000 -0.001 -0.006
  0.010 -0.000  0.742 -0.005  0.010
 -0.172 -0.001 -0.005  0.570 -0.000
  0.001 -0.006  0.010 -0.000  0.949
atom   17   Tr[ns(na)] =   6.82759
    eigenvalues: 
  0.477  0.500  0.688  0.799  0.950
    eigenvectors:
  0.000  0.986  0.000  0.000  0.013
  0.000  0.000  0.030  0.970  0.000
  0.000  0.000  0.970  0.030  0.000
  0.000  0.013  0.000  0.000  0.986
  1.000  0.000  0.000  0.000  0.000
    occupations:
  0.506 -0.002  0.000  0.052  0.000
 -0.002  0.796  0.019 -0.001 -0.001
  0.000  0.019  0.692  0.003  0.000
  0.052 -0.001  0.003  0.944 -0.000
  0.000 -0.001  0.000 -0.000  0.477
atom   22   Tr[ns(na)] =   7.03031
    eigenvalues: 
  0.485  0.508  0.749  0.808  0.964
    eigenvectors:
  0.001  0.144  0.001  0.000  0.854
  0.993  0.007  0.000  0.000  0.000
  0.000  0.000  0.938  0.061  0.000
  0.006  0.849  0.000  0.000  0.145
  0.000  0.000  0.061  0.939  0.000
    occupations:
  0.898  0.002  0.002 -0.161  0.000
  0.002  0.486  0.001  0.001 -0.000
  0.002  0.001  0.753 -0.006  0.014
 -0.161  0.001 -0.006  0.574 -0.000
  0.000 -0.000  0.014 -0.000  0.805
atom   23   Tr[ns(na)] =   6.98208
    eigenvalues: 
  0.471  0.512  0.685  0.878  0.944
    eigenvectors:
  0.000  0.989  0.000  0.003  0.008
  0.001  0.000  0.999  0.000  0.000
  0.000  0.002  0.000  0.983  0.015
  0.000  0.009  0.000  0.014  0.977
  0.999  0.000  0.001  0.000  0.000
    occupations:
  0.517 -0.000  0.014  0.041  0.000
 -0.000  0.685  0.000 -0.000 -0.006
  0.014  0.000  0.879 -0.009  0.000
  0.041 -0.000 -0.009  0.939 -0.000
  0.000 -0.006  0.000 -0.000  0.471
N of occupied +U levels =  56.3172878
 --- exit write_ns ---

     negative rho (up, down):  0.295E+01 0.000E+00

     total cpu time spent up to now is      558.6 secs

     total energy              =   -2127.91126263 Ry
     Harris-Foulkes estimate   =   -2141.00000003 Ry
     estimated scf accuracy    <      16.86445592 Ry

     iteration #  2     ecut=    40.00 Ry     beta=0.70
     Davidson diagonalization with overlap
     ethr =  6.88E-03,  avg # of iterations =  3.2

     negative rho (up, down):  0.271E+01 0.000E+00

     total cpu time spent up to now is      798.3 secs

     total energy              =   -2094.64951951 Ry
     Harris-Foulkes estimate   =   -2158.03513220 Ry
     estimated scf accuracy    <     366.60554683 Ry

     iteration #  3     ecut=    40.00 Ry     beta=0.70
     Davidson diagonalization with overlap
     ethr =  6.88E-03,  avg # of iterations =  4.0

     negative rho (up, down):  0.239E+01 0.000E+00

     total cpu time spent up to now is     1073.7 secs

     total energy              =   -2086.07013403 Ry
     Harris-Foulkes estimate   =   -2181.38535287 Ry
     estimated scf accuracy    <    1689.31039637 Ry

     iteration #  4     ecut=    40.00 Ry     beta=0.70
     Davidson diagonalization with overlap
     ethr =  6.88E-03,  avg # of iterations =  4.0

     negative rho (up, down):  0.253E+01 0.000E+00

     total cpu time spent up to now is     1342.1 secs

     total energy              =   -2136.56132028 Ry
     Harris-Foulkes estimate   =   -2138.54203247 Ry
     estimated scf accuracy    <       7.26932986 Ry

     iteration #  5     ecut=    40.00 Ry     beta=0.70
     Davidson diagonalization with overlap
     ethr =  2.97E-03,  avg # of iterations =  2.3

     negative rho (up, down):  0.265E+01 0.000E+00

     total cpu time spent up to now is     1549.4 secs

     total energy              =   -2136.80480604 Ry
     Harris-Foulkes estimate   =   -2138.07825831 Ry
     estimated scf accuracy    <       6.06099117 Ry

     iteration #  6     ecut=    40.00 Ry     beta=0.70
     Davidson diagonalization with overlap
     ethr =  2.47E-03,  avg # of iterations =  2.2

     negative rho (up, down):  0.271E+01 0.000E+00

     total cpu time spent up to now is     1746.6 secs

     total energy              =   -2137.35165348 Ry
     Harris-Foulkes estimate   =   -2137.67687485 Ry
     estimated scf accuracy    <       1.86802510 Ry

     iteration #  7     ecut=    40.00 Ry     beta=0.70
     Davidson diagonalization with overlap
     ethr =  7.62E-04,  avg # of iterations =  2.3

     negative rho (up, down):  0.278E+01 0.000E+00

     total cpu time spent up to now is     1957.2 secs

     total energy              =   -2137.37735255 Ry
     Harris-Foulkes estimate   =   -2137.53455088 Ry
     estimated scf accuracy    <       0.74934101 Ry

     iteration #  8     ecut=    40.00 Ry     beta=0.70
     Davidson diagonalization with overlap
     ethr =  3.06E-04,  avg # of iterations =  2.6

     negative rho (up, down):  0.283E+01 0.000E+00

     total cpu time spent up to now is     2159.8 secs

     total energy              =   -2137.33781459 Ry
     Harris-Foulkes estimate   =   -2137.50858168 Ry
     estimated scf accuracy    <       1.09595352 Ry

     iteration #  9     ecut=    40.00 Ry     beta=0.70
     Davidson diagonalization with overlap
     ethr =  3.06E-04,  avg # of iterations =  2.4

     negative rho (up, down):  0.291E+01 0.000E+00

     total cpu time spent up to now is     2358.7 secs

     total energy              =   -2137.35268790 Ry
     Harris-Foulkes estimate   =   -2137.43325031 Ry
     estimated scf accuracy    <       0.31913597 Ry

     iteration # 10     ecut=    40.00 Ry     beta=0.70
     Davidson diagonalization with overlap
     ethr =  1.30E-04,  avg # of iterations =  5.8

     negative rho (up, down):  0.303E+01 0.000E+00

     total cpu time spent up to now is     2587.1 secs

     total energy              =   -2137.32747910 Ry
     Harris-Foulkes estimate   =   -2137.40170536 Ry
     estimated scf accuracy    <       0.29074895 Ry

     iteration # 11     ecut=    40.00 Ry     beta=0.70
     Davidson diagonalization with overlap
     ethr =  1.19E-04,  avg # of iterations =  3.9

     negative rho (up, down):  0.310E+01 0.000E+00

     total cpu time spent up to now is     2819.7 secs

     total energy              =   -2137.33040400 Ry
     Harris-Foulkes estimate   =   -2137.36993495 Ry
     estimated scf accuracy    <       0.22814370 Ry

     iteration # 12     ecut=    40.00 Ry     beta=0.70
     Davidson diagonalization with overlap
     ethr =  9.31E-05,  avg # of iterations =  2.1

     negative rho (up, down):  0.312E+01 0.000E+00

     total cpu time spent up to now is     3037.6 secs

     total energy              =   -2137.31120827 Ry
     Harris-Foulkes estimate   =   -2137.35460787 Ry
     estimated scf accuracy    <       0.14147213 Ry

     iteration # 13     ecut=    40.00 Ry     beta=0.70
     Davidson diagonalization with overlap
     ethr =  5.77E-05,  avg # of iterations =  5.4

     negative rho (up, down):  0.312E+01 0.000E+00

     total cpu time spent up to now is     3283.2 secs

     total energy              =   -2137.19296763 Ry
     Harris-Foulkes estimate   =   -2137.48785651 Ry
     estimated scf accuracy    <       5.46058341 Ry

     iteration # 14     ecut=    40.00 Ry     beta=0.70
     Davidson diagonalization with overlap
     ethr =  5.77E-05,  avg # of iterations =  4.9

     negative rho (up, down):  0.313E+01 0.000E+00

     total cpu time spent up to now is     3509.8 secs

     total energy              =   -2137.33104134 Ry
     Harris-Foulkes estimate   =   -2137.35936612 Ry
     estimated scf accuracy    <       0.14067314 Ry

     iteration # 15     ecut=    40.00 Ry     beta=0.70
     Davidson diagonalization with overlap
     ethr =  5.74E-05,  avg # of iterations =  1.0

     negative rho (up, down):  0.313E+01 0.000E+00

     total cpu time spent up to now is     3710.8 secs

     total energy              =   -2137.33807145 Ry
     Harris-Foulkes estimate   =   -2137.35231652 Ry
     estimated scf accuracy    <       0.08061535 Ry

     iteration # 16     ecut=    40.00 Ry     beta=0.70
     Davidson diagonalization with overlap
     ethr =  3.29E-05,  avg # of iterations =  3.2

     negative rho (up, down):  0.314E+01 0.000E+00

     total cpu time spent up to now is     3914.6 secs

     total energy              =   -2137.34279021 Ry
     Harris-Foulkes estimate   =   -2137.34765065 Ry
     estimated scf accuracy    <       0.01562957 Ry

     iteration # 17     ecut=    40.00 Ry     beta=0.70
     Davidson diagonalization with overlap
     ethr =  6.38E-06,  avg # of iterations =  5.5

     negative rho (up, down):  0.314E+01 0.000E+00

     total cpu time spent up to now is     4140.7 secs

     total energy              =   -2137.34468259 Ry
     Harris-Foulkes estimate   =   -2137.34626222 Ry
     estimated scf accuracy    <       0.00843142 Ry

     iteration # 18     ecut=    40.00 Ry     beta=0.70
     Davidson diagonalization with overlap
     ethr =  3.44E-06,  avg # of iterations =  2.0

     negative rho (up, down):  0.314E+01 0.000E+00

     total cpu time spent up to now is     4351.1 secs

     total energy              =   -2137.34473389 Ry
     Harris-Foulkes estimate   =   -2137.34628232 Ry
     estimated scf accuracy    <       0.00856643 Ry

     iteration # 19     ecut=    40.00 Ry     beta=0.70
     Davidson diagonalization with overlap
     ethr =  3.44E-06,  avg # of iterations =  1.0

     negative rho (up, down):  0.314E+01 0.000E+00

     total cpu time spent up to now is     4549.2 secs

     total energy              =   -2137.34520149 Ry
     Harris-Foulkes estimate   =   -2137.34604359 Ry
     estimated scf accuracy    <       0.00722555 Ry

     iteration # 20     ecut=    40.00 Ry     beta=0.70
     Davidson diagonalization with overlap
     ethr =  2.95E-06,  avg # of iterations =  1.0

     negative rho (up, down):  0.314E+01 0.000E+00

     total cpu time spent up to now is     4751.0 secs

     total energy              =   -2137.34551898 Ry
     Harris-Foulkes estimate   =   -2137.34570792 Ry
     estimated scf accuracy    <       0.00076353 Ry

     iteration # 21     ecut=    40.00 Ry     beta=0.70
     Davidson diagonalization with overlap
     ethr =  3.12E-07,  avg # of iterations =  1.0

     negative rho (up, down):  0.314E+01 0.000E+00

     total cpu time spent up to now is     4949.5 secs

     total energy              =   -2137.34550575 Ry
     Harris-Foulkes estimate   =   -2137.34577070 Ry
     estimated scf accuracy    <       0.00178012 Ry

     iteration # 22     ecut=    40.00 Ry     beta=0.70
     Davidson diagonalization with overlap
     ethr =  3.12E-07,  avg # of iterations =  1.0

     negative rho (up, down):  0.314E+01 0.000E+00

     total cpu time spent up to now is     5148.3 secs

     total energy              =   -2137.34559549 Ry
     Harris-Foulkes estimate   =   -2137.34565033 Ry
     estimated scf accuracy    <       0.00013615 Ry

     iteration # 23     ecut=    40.00 Ry     beta=0.70
     Davidson diagonalization with overlap
     ethr =  5.56E-08,  avg # of iterations =  4.2

     negative rho (up, down):  0.314E+01 0.000E+00

     total cpu time spent up to now is     5368.7 secs

     total energy              =   -2137.34521227 Ry
     Harris-Foulkes estimate   =   -2137.34607939 Ry
     estimated scf accuracy    <       0.01279105 Ry

     iteration # 24     ecut=    40.00 Ry     beta=0.70
     Davidson diagonalization with overlap
     ethr =  5.56E-08,  avg # of iterations =  2.7

     negative rho (up, down):  0.314E+01 0.000E+00

     total cpu time spent up to now is     5570.0 secs

     total energy              =   -2137.34563489 Ry
     Harris-Foulkes estimate   =   -2137.34565033 Ry
     estimated scf accuracy    <       0.00008451 Ry

     iteration # 25     ecut=    40.00 Ry     beta=0.70
     Davidson diagonalization with overlap
     ethr =  3.45E-08,  avg # of iterations =  1.0

     negative rho (up, down):  0.314E+01 0.000E+00

     total cpu time spent up to now is     5760.2 secs

     total energy              =   -2137.34563998 Ry
     Harris-Foulkes estimate   =   -2137.34564691 Ry
     estimated scf accuracy    <       0.00003576 Ry

     iteration # 26     ecut=    40.00 Ry     beta=0.70
     Davidson diagonalization with overlap
     ethr =  1.46E-08,  avg # of iterations =  1.0

     negative rho (up, down):  0.314E+01 0.000E+00

     total cpu time spent up to now is     5948.1 secs

     total energy              =   -2137.34564220 Ry
     Harris-Foulkes estimate   =   -2137.34564503 Ry
     estimated scf accuracy    <       0.00001424 Ry

     iteration # 27     ecut=    40.00 Ry     beta=0.70
     Davidson diagonalization with overlap
     ethr =  5.81E-09,  avg # of iterations =  1.0

     negative rho (up, down):  0.314E+01 0.000E+00

     total cpu time spent up to now is     6139.0 secs

     total energy              =   -2137.34564109 Ry
     Harris-Foulkes estimate   =   -2137.34564646 Ry
     estimated scf accuracy    <       0.00002369 Ry

     iteration # 28     ecut=    40.00 Ry     beta=0.70
     Davidson diagonalization with overlap
     ethr =  5.81E-09,  avg # of iterations =  1.0

     negative rho (up, down):  0.314E+01 0.000E+00

     total cpu time spent up to now is     6330.7 secs

     total energy              =   -2137.34564268 Ry
     Harris-Foulkes estimate   =   -2137.34564501 Ry
     estimated scf accuracy    <       0.00001169 Ry

     iteration # 29     ecut=    40.00 Ry     beta=0.70
     Davidson diagonalization with overlap
     ethr =  4.77E-09,  avg # of iterations =  1.0

     negative rho (up, down):  0.314E+01 0.000E+00

     total cpu time spent up to now is     6519.4 secs

     total energy              =   -2137.34564206 Ry
     Harris-Foulkes estimate   =   -2137.34564600 Ry
     estimated scf accuracy    <       0.00003649 Ry

     iteration # 30     ecut=    40.00 Ry     beta=0.70
     Davidson diagonalization with overlap
     ethr =  4.77E-09,  avg # of iterations =  1.0

     negative rho (up, down):  0.314E+01 0.000E+00

     total cpu time spent up to now is     6710.2 secs

     total energy              =   -2137.34564394 Ry
     Harris-Foulkes estimate   =   -2137.34564421 Ry
     estimated scf accuracy    <       0.00000154 Ry

     iteration # 31     ecut=    40.00 Ry     beta=0.70
     Davidson diagonalization with overlap
     ethr =  6.28E-10,  avg # of iterations =  1.0

     negative rho (up, down):  0.314E+01 0.000E+00

     total cpu time spent up to now is     6900.9 secs

     total energy              =   -2137.34564395 Ry
     Harris-Foulkes estimate   =   -2137.34564421 Ry
     estimated scf accuracy    <       0.00000143 Ry

     iteration # 32     ecut=    40.00 Ry     beta=0.70
     Davidson diagonalization with overlap
     ethr =  5.82E-10,  avg # of iterations =  1.0

     negative rho (up, down):  0.314E+01 0.000E+00

     total cpu time spent up to now is     7090.6 secs

     End of self-consistent calculation
 --- enter write_ns ---
 LDA+U parameters:
U( 2)     =  5.50000000
alpha( 2) =  0.00000000
atom    3   Tr[ns(na)] =   8.18723
    eigenvalues: 
  0.607  0.633  0.900  0.971  0.982
    eigenvectors:
  0.005  0.178  0.003  0.001  0.813
  0.976  0.024  0.000  0.000  0.000
  0.000  0.000  0.991  0.006  0.003
  0.019  0.798  0.000  0.000  0.183
  0.000  0.000  0.006  0.993  0.001
    occupations:
  0.918 -0.003  0.004 -0.135 -0.001
 -0.003  0.608 -0.001 -0.003 -0.005
  0.004 -0.001  0.901 -0.004  0.005
 -0.135 -0.003 -0.004  0.697 -0.000
 -0.001 -0.005  0.005 -0.000  0.970
atom    4   Tr[ns(na)] =   8.18737
    eigenvalues: 
  0.619  0.668  0.888  0.933  0.985
    eigenvectors:
  0.000  0.989  0.000  0.000  0.011
  0.000  0.000  0.074  0.926  0.000
  0.000  0.000  0.926  0.074  0.000
  0.000  0.011  0.000  0.000  0.989
  1.000  0.000  0.000  0.000  0.000
    occupations:
  0.672 -0.003 -0.001  0.032  0.001
 -0.003  0.930  0.012  0.000 -0.001
 -0.001  0.012  0.892 -0.000  0.001
  0.032  0.000 -0.000  0.982  0.000
  0.001 -0.001  0.001  0.000  0.619
atom    9   Tr[ns(na)] =   8.17553
    eigenvalues: 
  0.654  0.670  0.869  0.910  0.985
    eigenvectors:
  0.000  0.139  0.001  0.000  0.860
  0.998  0.002  0.000  0.000  0.000
  0.000  0.000  0.990  0.009  0.000
  0.002  0.858  0.000  0.000  0.140
  0.000  0.000  0.009  0.990  0.000
    occupations:
  0.941 -0.001  0.000 -0.109 -0.001
 -0.001  0.654  0.000  0.001 -0.000
  0.000  0.000  0.869 -0.004 -0.004
 -0.109  0.001 -0.004  0.714  0.001
 -0.001 -0.000 -0.004  0.001  0.910
atom   10   Tr[ns(na)] =   8.14266
    eigenvalues: 
  0.577  0.611  0.946  0.953  0.985
    eigenvectors:
  0.991  0.000  0.000  0.000  0.009
  0.000  0.001  0.998  0.001  0.000
  0.000  0.000  0.001  0.998  0.000
  0.009  0.000  0.000  0.000  0.991
  0.000  0.999  0.001  0.000  0.000
    occupations:
  0.581  0.000  0.007  0.039 -0.000
  0.000  0.946 -0.000  0.000 -0.009
  0.007 -0.000  0.952 -0.000 -0.000
  0.039  0.000 -0.000  0.981 -0.000
 -0.000 -0.009 -0.000 -0.000  0.611
atom   16   Tr[ns(na)] =   8.18715
    eigenvalues: 
  0.607  0.633  0.900  0.971  0.982
    eigenvectors:
  0.005  0.178  0.003  0.001  0.813
  0.977  0.023  0.000  0.000  0.000
  0.000  0.000  0.993  0.004  0.003
  0.018  0.799  0.000  0.000  0.183
  0.000  0.000  0.003  0.995  0.001
    occupations:
  0.918  0.003  0.004 -0.135  0.001
  0.003  0.608 -0.000  0.003 -0.005
  0.004 -0.000  0.901 -0.004 -0.004
 -0.135  0.003 -0.004  0.697 -0.000
  0.001 -0.005 -0.004 -0.000  0.970
atom   17   Tr[ns(na)] =   8.18589
    eigenvalues: 
  0.618  0.669  0.888  0.932  0.986
    eigenvectors:
  0.000  0.989  0.000  0.000  0.011
  0.000  0.000  0.060  0.940  0.000
  0.000  0.000  0.940  0.060  0.000
  0.000  0.011  0.000  0.000  0.989
  1.000  0.000  0.000  0.000  0.000
    occupations:
  0.672 -0.003 -0.001  0.032  0.001
 -0.003  0.929  0.010  0.000 -0.001
 -0.001  0.010  0.891 -0.000  0.001
  0.032  0.000 -0.000  0.982  0.000
  0.001 -0.001  0.001  0.000  0.618
atom   22   Tr[ns(na)] =   8.17558
    eigenvalues: 
  0.654  0.670  0.869  0.911  0.985
    eigenvectors:
  0.000  0.139  0.001  0.000  0.860
  1.000  0.000  0.000  0.000  0.000
  0.000  0.000  0.991  0.008  0.000
  0.000  0.860  0.000  0.000  0.140
  0.000  0.000  0.008  0.992  0.000
    occupations:
  0.941  0.002  0.000 -0.109  0.000
  0.002  0.654  0.001 -0.001 -0.000
  0.000  0.001  0.869 -0.004  0.004
 -0.109 -0.001 -0.004  0.714  0.000
  0.000 -0.000  0.004  0.000  0.910
atom   23   Tr[ns(na)] =   8.19320
    eigenvalues: 
  0.619  0.661  0.874  0.958  0.985
    eigenvectors:
  0.000  0.992  0.000  0.003  0.005
  0.002  0.000  0.998  0.000  0.000
  0.000  0.003  0.000  0.994  0.002
  0.000  0.005  0.000  0.002  0.993
  0.998  0.000  0.002  0.000  0.000
    occupations:
  0.664 -0.000  0.016  0.023 -0.000
 -0.000  0.874 -0.000 -0.000 -0.010
  0.016 -0.000  0.957 -0.003  0.000
  0.023 -0.000 -0.003  0.983 -0.000
 -0.000 -0.010  0.000 -0.000  0.620
N of occupied +U levels =  65.4346068
 --- exit write_ns ---

          k = 0.0000 0.0000 0.0000 ( 31045 PWs)   bands (ev):

   -50.1246 -50.0268 -50.0201 -49.9717 -49.9653 -49.9336 -49.8713 -49.8590
   -49.8504 -49.8281 -49.8272 -49.8218 -49.7185 -49.7026 -49.6318 -49.6308
   -49.6248 -49.5974 -49.5722 -49.5573 -49.5272 -49.5080 -49.4910 -49.4554
   -23.2874 -21.1512 -20.9722 -20.7492 -20.4933 -20.2138 -19.9872 -19.9732
   -19.9635 -19.9147 -19.8351 -19.8024 -19.4482 -19.2223 -19.1898 -19.1552
   -19.1112 -18.4554 -18.2444 -17.4085 -10.7849 -10.6721  -9.9581  -9.4177
    -9.3278  -9.2134  -9.1996  -9.0067  -8.8238  -8.6087  -8.5082  -8.4025
    -8.3519  -8.2649  -8.1440  -8.0511  -7.9386  -7.6979  -7.6714  -7.5497
    -7.5298  -7.2274  -6.9621  -6.8935  -6.8764  -6.7128  -6.3800  -6.2730
    -5.9646  -5.8574  -5.8498  -5.8137  -5.6579  -5.6178  -5.5932  -5.2916
    -5.0841  -4.9621  -4.9413  -4.7581  -4.6482  -4.6386  -4.5385  -4.4477
    -4.3373  -4.2837  -4.1445  -4.0735  -3.9933  -3.9722  -3.8918  -3.8556
    -3.8283  -3.8169  -3.7399  -3.6721  -3.6381  -3.5454  -3.5107  -3.4558
    -3.3719  -3.2588  -3.2352  -3.1596  -3.1267  -3.0417  -2.7344  -2.5451
    -2.5000  -2.2090  -1.9001  -1.7795  -1.6619  -1.5354  -1.4954  -1.4659
    -0.9515  -0.9475  -0.7302  -0.5255  -0.3122  -0.0233   0.1833   0.2849
     1.3230   1.8474   1.8709   2.0422   2.0834   2.2413   2.6672   2.8821
     2.8923   3.3512   3.4764   3.5561   3.7260   3.7541   3.9607   3.9799
     4.2852   4.3040   4.5210   4.8784   4.9967   5.7874   6.1329   6.5390
     6.7234   6.8569   7.2165   7.3365   7.4997   7.5186   7.6065   7.6467
     7.7629   7.9702   8.0325   8.0597   8.0872   8.3449   8.3694   8.4368
     8.4680   8.5396   8.5657   8.5961   8.6206   8.8092   8.9922   9.0259
     9.0313   9.1693   9.2534   9.3029   9.3773   9.4958   9.5250   9.8426
     9.9011   9.9748   9.9965  10.0407  10.0461  10.0516  10.0525  10.0974
    10.1167  10.2042  10.2129  10.2531  10.2565  10.3747  10.5029  10.5747
    10.6124  10.6335  10.8095  10.9020  11.0896  11.1361  11.1905  11.2295
    11.2719  11.3408  11.5160  11.5249  11.5898  11.6265  11.6330  11.7166
    11.7568  11.7817  11.8078  11.9101  11.9645  12.0184  12.1899  12.2071
    12.3003  12.3357  12.4592  12.4673  12.5625  12.5873  12.6115  12.6638
    12.8345  12.8845  12.9089  12.9979  13.0121  13.1242  13.2751  13.3511
    13.5895  13.7263  13.7748  13.8027  13.8760  13.9722  14.0274  14.1297
    14.2125  14.4241  14.4425  14.4549  14.6553  14.6775  14.8619  14.9175
    14.9453  15.2044  15.3313  15.4539  15.5168  15.6338  15.6719  15.7116
    15.7414  15.7812  15.8459  15.9190  16.0726  16.1989  16.2925  16.2960
    16.5765  16.5973  16.7718  16.7837  16.9812  17.0238  17.0503  17.1770
    17.3013  17.3203  17.3765  17.4445  17.5251  17.5783  17.6157  17.7272
    17.7892  17.8998  17.9218  18.1691  18.2682  18.3091  18.3738  18.4018
    18.4611  18.5076  18.5539  18.5907  18.7201  18.8412  18.8512  18.9113
    18.9689  19.0604  19.0942  19.0976  19.1581  19.2264  19.2629  19.2689
    19.3516  19.3652  19.4493  19.4925  19.5744  19.6166  19.6933  19.7175
    19.7375  19.8060  19.8111  19.9542  20.0410  20.0782  20.2188  20.2295
    20.4260  20.4510  20.5463  20.5698  20.5983  20.6241  20.6839  20.7054
    20.7726  20.8354  20.8594  21.0594  21.1613  21.2081  21.2551  21.2805
    21.3113  21.3457  21.4747  21.5821  21.6884  21.7456  21.7734  21.8117
    21.8871  21.9413  22.0252  22.0743  22.1681  22.1803  22.2004  22.2520
    22.2968  22.3134  22.3577  22.4101  22.4571  22.4932  22.5226

          k = 0.0000 0.2476 0.0000 ( 31078 PWs)   bands (ev):

   -50.1250 -50.0272 -50.0191 -49.9717 -49.9655 -49.9326 -49.8714 -49.8592
   -49.8505 -49.8273 -49.8271 -49.8226 -49.7164 -49.7011 -49.6350 -49.6304
   -49.6233 -49.5973 -49.5726 -49.5573 -49.5272 -49.5083 -49.4909 -49.4549
   -23.2877 -21.0394 -20.8151 -20.7292 -20.4925 -20.2363 -20.2219 -20.2053
   -19.9661 -19.8111 -19.6423 -19.5939 -19.4714 -19.3980 -19.3266 -19.1998
   -19.1564 -18.4524 -18.2481 -17.4046 -10.3606 -10.2308  -9.8988  -9.8085
    -9.4598  -9.4339  -9.2051  -9.0983  -9.0425  -8.5400  -8.3582  -8.2658
    -8.1976  -8.0592  -7.9343  -7.8977  -7.7063  -7.6851  -7.6146  -7.4938
    -7.0889  -7.0315  -7.0104  -6.9638  -6.8437  -6.6864  -6.5265  -6.2106
    -6.1435  -5.9307  -5.9229  -5.8548  -5.7647  -5.6569  -5.5987  -5.5667
    -5.5040  -5.4222  -5.3874  -5.3026  -5.2017  -5.1049  -4.6296  -4.5145
    -4.4563  -4.2999  -4.2191  -4.1123  -4.0518  -3.9975  -3.7221  -3.6828
    -3.6320  -3.5671  -3.5325  -3.4629  -3.4557  -3.4193  -3.2883  -3.2487
    -3.1473  -3.0925  -3.0654  -2.9145  -2.8844  -2.8433  -2.7896  -2.7451
    -2.6761  -2.5777  -2.3622  -2.1917  -1.7616  -1.5372  -1.4459  -1.2206
    -0.9185  -0.8504  -0.5975  -0.4220  -0.2020  -0.0975   0.0110   0.3580
     1.2635   1.2921   1.6390   1.8819   2.1954   2.6726   2.8638   3.3467
     3.4617   3.5930   3.7189   3.7297   3.7648   3.7864   3.8321   3.9272
     4.3062   4.3797   4.5491   5.0586   5.1753   5.7504   5.8928   6.1378
     6.3171   6.4513   6.8762   6.9670   7.0147   7.3689   7.4720   7.6666
     7.6947   7.7262   7.8959   8.0115   8.2209   8.2976   8.3170   8.4656
     8.5862   8.7471   8.7668   8.8610   9.0113   9.1049   9.1419   9.2740
     9.3436   9.3875   9.4273   9.4915   9.5888   9.6456   9.7142   9.8094
     9.8332   9.9349   9.9753   9.9846  10.0203  10.0408  10.0475  10.0523
    10.0530  10.0969  10.1434  10.1737  10.2527  10.2556  10.2955  10.4091
    10.4576  10.5105  10.5290  10.5813  10.7504  10.8174  10.9215  10.9565
    11.0038  11.1445  11.2449  11.3193  11.4139  11.4938  11.6154  11.7009
    11.7284  11.9990  12.0431  12.2042  12.3225  12.4553  12.4792  12.5053
    12.5154  12.6876  12.7071  12.8211  12.9206  13.0257  13.1237  13.1610
    13.1944  13.2859  13.5380  13.5839  13.6034  13.6562  13.7434  13.7563
    13.8156  13.8684  13.9859  14.0526  14.1751  14.2831  14.3261  14.3388
    14.3745  14.3992  14.5562  14.5775  14.6515  14.6975  14.8442  14.9166
    15.0240  15.0416  15.1876  15.2775  15.4837  15.4984  15.5337  15.7462
    15.7906  15.8048  15.8729  15.9713  16.0466  16.1004  16.1801  16.2997
    16.3403  16.3919  16.4756  16.5393  16.6795  16.7469  16.8283  16.8913
    16.9726  17.0225  17.1504  17.2169  17.3096  17.4211  17.4663  17.4822
    17.5322  17.5739  17.7103  17.7971  17.9443  18.0075  18.0582  18.1045
    18.2004  18.2362  18.3148  18.3717  18.4206  18.5724  18.6257  18.7250
    18.7662  18.8131  18.8934  18.9804  19.0400  19.0711  19.1136  19.1506
    19.2212  19.2307  19.3138  19.3807  19.4037  19.4935  19.5035  19.5387
    19.6153  19.6728  19.6906  19.7250  19.7595  19.8828  19.9464  19.9671
    20.0495  20.1552  20.1909  20.2246  20.2324  20.3198  20.3977  20.4957
    20.5354  20.5927  20.6347  20.7317  20.7851  20.8406  20.9120  20.9261
    21.0002  21.0293  21.0467  21.1138  21.1431  21.1718  21.2253  21.3090
    21.3400  21.4081  21.4871  21.5476  21.5840  21.6575  21.7313  21.7866
    21.8298  21.8698  21.9296  22.0044  22.0830  22.1606  22.1860

          k = 0.0000-0.4953 0.0000 ( 31160 PWs)   bands (ev):

   -50.1255 -50.0275 -50.0180 -49.9716 -49.9656 -49.9317 -49.8715 -49.8593
   -49.8506 -49.8274 -49.8249 -49.8246 -49.7141 -49.6995 -49.6390 -49.6295
   -49.6219 -49.5973 -49.5729 -49.5572 -49.5273 -49.5086 -49.4909 -49.4545
   -23.2881 -20.9158 -20.7016 -20.5542 -20.4925 -20.3529 -20.3216 -20.2729
   -19.9555 -19.8172 -19.6467 -19.6192 -19.5174 -19.4675 -19.4225 -19.2049
   -19.1579 -18.4494 -18.2523 -17.4007 -10.1066 -10.0361  -9.7905  -9.6506
    -9.5745  -9.4747  -9.2123  -9.1854  -8.8904  -8.1647  -8.1171  -8.0926
    -8.0542  -7.9263  -7.9250  -7.8642  -7.8480  -7.6966  -7.6516  -7.5681
    -7.1067  -7.0939  -7.0425  -6.9478  -6.8974  -6.7727  -6.6696  -6.3065
    -6.2274  -6.0676  -6.0466  -6.0352  -5.9751  -5.9289  -5.8256  -5.7377
    -5.6474  -5.4462  -5.2348  -5.1674  -5.1060  -5.0078  -4.8050  -4.7916
    -4.5118  -4.3887  -4.3152  -4.2098  -4.1979  -3.7448  -3.7124  -3.6471
    -3.6122  -3.5858  -3.5721  -3.5119  -3.4684  -3.4473  -3.4053  -3.2471
    -3.1305  -3.0856  -3.0501  -2.9769  -2.8619  -2.8413  -2.7716  -2.6436
    -2.5824  -2.3028  -2.2829  -2.1090  -1.6577  -1.4522  -1.3872  -1.1737
    -1.1360  -0.9427  -0.7876  -0.3030  -0.1471  -0.0803   0.0070   0.4530
     0.8665   0.8777   1.8094   1.9010   2.5877   2.7258   3.2221   3.3308
     3.4726   3.4874   3.7527   3.7637   3.8543   4.1035   4.2492   4.2669
     4.3184   4.5624   4.9757   5.0652   5.2331   5.4285   5.6086   5.8076
     5.9544   6.2677   6.4360   6.8447   6.9503   7.1904   7.2153   7.3342
     7.8114   7.8634   7.9943   8.0825   8.0975   8.2405   8.4713   8.5985
     8.7365   8.8512   8.9000   8.9240   9.0088   9.1178   9.1385   9.1778
     9.2298   9.2903   9.3150   9.3880   9.4931   9.5224   9.5470   9.6050
     9.7079   9.8213   9.9702   9.9988  10.0394  10.0461  10.0497  10.0517
    10.0596  10.0659  10.0979  10.1557  10.1693  10.2463  10.2547  10.2600
    10.4045  10.4217  10.6567  10.6838  10.7372  10.9453  11.1755  11.2753
    11.3108  11.3814  11.5846  11.6095  11.6708  11.7344  11.7375  11.8543
    11.8948  12.0621  12.3517  12.4256  12.4852  12.5231  12.5556  12.6548
    12.7922  12.9200  12.9614  13.0202  13.0663  13.0939  13.1198  13.2165
    13.2550  13.3882  13.4813  13.5156  13.5577  13.6285  13.6789  13.7744
    13.8767  13.9161  14.0768  14.2662  14.2808  14.3604  14.4157  14.5017
    14.6298  14.7431  14.7464  14.8924  14.9081  15.0096  15.1904  15.3334
    15.4481  15.5128  15.5574  15.5835  15.6738  15.6946  15.7636  15.7869
    15.9130  16.0306  16.0799  16.0997  16.1855  16.2077  16.2511  16.3155
    16.3625  16.3702  16.3876  16.4535  16.4716  16.5277  16.5682  16.7129
    16.7676  16.8249  16.8428  16.9090  16.9220  17.0402  17.1056  17.1576
    17.2001  17.2939  17.4725  17.4936  17.6079  17.6409  17.8037  17.8334
    17.8476  17.9241  17.9493  18.0364  18.0716  18.1615  18.2567  18.2858
    18.3329  18.3555  18.4160  18.4498  18.5554  18.5830  18.6266  18.7273
    18.8102  18.8881  18.9410  19.0047  19.0972  19.1588  19.1934  19.2840
    19.3752  19.4454  19.5222  19.6183  19.7150  19.7865  19.8989  19.9584
    19.9671  20.0150  20.0249  20.0368  20.0627  20.0996  20.1533  20.2568
    20.3441  20.4452  20.4564  20.4928  20.5351  20.5924  20.6375  20.6508
    20.7079  20.7243  20.7832  20.8236  20.8684  20.9525  20.9928  21.0516
    21.1080  21.1731  21.2369  21.2879  21.3811  21.4254  21.4706  21.5686
    21.6016  21.6667  21.7238  21.7982  21.8424  21.9358  21.9821

          k = 0.2500 0.0000 0.0000 ( 31106 PWs)   bands (ev):

   -50.1230 -50.0263 -50.0216 -49.9658 -49.9597 -49.9209 -49.8869 -49.8615
   -49.8519 -49.8445 -49.8325 -49.8274 -49.7174 -49.7056 -49.6318 -49.6308
   -49.6133 -49.5974 -49.5702 -49.5597 -49.5437 -49.5061 -49.4946 -49.4556
   -23.2874 -21.0031 -20.8202 -20.6415 -20.4934 -20.1746 -20.0917 -20.0847
   -19.9973 -19.8375 -19.7861 -19.7441 -19.4071 -19.3118 -19.2646 -19.2204
   -19.1760 -18.5356 -18.3463 -17.4092 -10.4790 -10.3810  -9.7160  -9.2530
    -9.1352  -9.1133  -9.0501  -8.7857  -8.7395  -8.6738  -8.6315  -8.6168
    -8.5514  -8.3211  -8.1746  -7.9281  -7.8225  -7.7446  -7.6578  -7.5417
    -7.4412  -7.2590  -7.0345  -6.9434  -6.8335  -6.7614  -6.7060  -6.2774
    -6.0422  -5.9813  -5.8662  -5.8442  -5.8213  -5.7619  -5.7229  -5.6064
    -5.4122  -5.2337  -5.1563  -5.0679  -4.9898  -4.9166  -4.7904  -4.7308
    -4.5638  -4.5079  -4.4303  -4.3595  -4.2276  -4.1304  -4.0936  -3.9517
    -3.9370  -3.6654  -3.4903  -3.4327  -3.3946  -3.3425  -3.2994  -3.2712
    -3.1586  -3.0256  -2.9401  -2.8047  -2.7388  -2.5604  -2.4209  -2.2587
    -2.1557  -2.0577  -1.7587  -1.6893  -1.6594  -1.5607  -1.2628  -1.1881
    -1.1124  -1.0397  -0.7341  -0.6929  -0.4667  -0.2477   0.1175   0.3240
     1.5121   2.0066   2.0447   2.2467   2.2768   2.3264   2.6259   2.8042
     2.9002   3.0419   3.4931   3.5660   3.6096   3.6938   3.7478   3.8515
     4.0334   4.4187   4.5972   5.1002   5.2437   5.6850   5.8642   6.2012
     6.3695   6.4618   6.8564   6.9529   7.2674   7.3458   7.5332   7.7183
     7.8331   7.9206   7.9617   8.0827   8.2048   8.2701   8.3841   8.6052
     8.6904   8.7050   8.7719   8.8740   8.9408   8.9789   9.0948   9.2274
     9.2809   9.4013   9.5031   9.5497   9.5852   9.6268   9.6990   9.8780
     9.9166   9.9736  10.0232  10.0413  10.0486  10.0523  10.0539  10.0911
    10.0967  10.1546  10.1926  10.2511  10.2530  10.2905  10.3150  10.3499
    10.4241  10.5137  10.5561  10.6351  10.7007  10.8358  10.9535  11.0562
    11.1568  11.2172  11.2831  11.3597  11.4083  11.4429  11.5153  11.6010
    11.7513  11.9290  12.0892  12.1245  12.2467  12.2871  12.3148  12.4702
    12.4917  12.5106  12.6014  12.6502  12.7766  12.8567  13.0397  13.0804
    13.2030  13.2980  13.4668  13.5481  13.6808  13.7397  13.7677  13.8135
    13.9044  13.9221  13.9815  14.0236  14.0863  14.1938  14.2315  14.2581
    14.4193  14.5424  14.5996  14.6581  14.6913  14.7434  14.7961  14.9543
    15.0492  15.1508  15.2424  15.3095  15.4643  15.5152  15.5631  15.6350
    15.7319  15.7595  15.8577  15.9023  15.9804  16.0251  16.0650  16.1511
    16.2523  16.2723  16.2997  16.3393  16.5026  16.5694  16.6361  16.7197
    16.8307  16.9015  17.0701  17.1490  17.2572  17.3516  17.4064  17.4900
    17.5864  17.6098  17.6648  17.7637  17.7763  17.8307  18.0124  18.1333
    18.2105  18.3029  18.3904  18.4568  18.5379  18.7082  18.7791  18.8178
    18.8740  18.9416  19.0668  19.0992  19.1111  19.1763  19.2297  19.2562
    19.2835  19.3084  19.3708  19.4135  19.4432  19.5130  19.5405  19.6232
    19.6742  19.7249  19.8131  19.8397  19.9267  19.9936  20.0388  20.0990
    20.1257  20.1668  20.2453  20.3355  20.3877  20.4556  20.4917  20.5732
    20.6041  20.6478  20.7100  20.7914  20.8212  20.8785  20.8944  20.9539
    20.9802  21.0058  21.0970  21.1200  21.1743  21.2121  21.2929  21.3436
    21.4013  21.4222  21.5145  21.5595  21.6026  21.6407  21.7270  21.7824
    21.8118  21.9505  21.9953  22.0241  22.0947  22.1450  22.1885

          k = 0.2500 0.2476 0.0000 ( 31099 PWs)   bands (ev):

   -50.1233 -50.0265 -50.0208 -49.9659 -49.9597 -49.9201 -49.8869 -49.8617
   -49.8519 -49.8439 -49.8327 -49.8275 -49.7151 -49.7038 -49.6348 -49.6311
   -49.6121 -49.5972 -49.5705 -49.5597 -49.5436 -49.5064 -49.4946 -49.4553
   -23.2878 -20.9057 -20.6677 -20.6109 -20.4930 -20.2188 -20.1732 -20.1012
   -20.0133 -19.8343 -19.7142 -19.6741 -19.5109 -19.4705 -19.3708 -19.2415
   -19.1790 -18.5342 -18.3488 -17.4055 -10.0676  -9.9573  -9.6475  -9.5519
    -9.2228  -9.1333  -9.0559  -8.9776  -8.8606  -8.5289  -8.4619  -8.4251
    -8.3734  -8.2120  -8.0501  -7.8984  -7.8010  -7.7196  -7.6401  -7.3041
    -7.2173  -7.1258  -6.9622  -6.9161  -6.7919  -6.7632  -6.6044  -6.5012
    -6.4074  -6.1742  -6.1072  -6.0203  -5.9311  -5.9004  -5.7773  -5.7159
    -5.6712  -5.6353  -5.4974  -5.2848  -5.2084  -5.1376  -5.0609  -4.9028
    -4.7062  -4.5371  -4.3980  -4.2713  -4.1638  -4.1295  -4.0274  -3.9288
    -3.8216  -3.6624  -3.4476  -3.3864  -3.2166  -3.1364  -3.1118  -3.0160
    -2.9535  -2.8083  -2.7555  -2.6111  -2.5430  -2.5231  -2.4527  -2.3720
    -2.2169  -2.1651  -2.1319  -2.0340  -1.7612  -1.4066  -1.2092  -1.1821
    -1.0197  -0.9195  -0.6977  -0.5768  -0.4071  -0.3218  -0.1150   0.4613
     1.4995   1.5194   1.7607   2.0678   2.2625   2.6769   2.7773   3.0001
     3.2083   3.3346   3.4013   3.5261   3.6571   3.8120   3.8491   4.0475
     4.2587   4.3984   4.7868   5.2947   5.4038   5.8066   6.0379   6.0910
     6.2516   6.4342   6.5776   6.6583   6.7649   7.0735   7.1762   7.3471
     7.5545   7.6853   7.8450   7.9128   7.9773   8.1794   8.2548   8.3447
     8.3627   8.4852   8.7681   8.8052   8.8770   9.0804   9.1065   9.1814
     9.2402   9.4412   9.5471   9.6042   9.6641   9.7533   9.8274   9.9611
     9.9773  10.0313  10.0398  10.0474  10.0525  10.0557  10.0969  10.1307
    10.2127  10.2525  10.2543  10.3119  10.3932  10.4389  10.5335  10.5692
    10.6823  10.7262  10.8264  10.9523  11.0207  11.0692  11.1649  11.2126
    11.2980  11.3807  11.4662  11.5717  11.6777  11.7311  11.8256  11.8963
    11.9237  12.0528  12.1273  12.2274  12.3418  12.4852  12.5155  12.5342
    12.6083  12.6925  12.7959  12.8863  12.9574  13.0148  13.0984  13.1840
    13.2268  13.2800  13.4191  13.5458  13.6290  13.6781  13.7352  13.8619
    13.9131  13.9489  14.0521  14.1226  14.1779  14.2827  14.3742  14.4204
    14.4526  14.5265  14.6458  14.7152  14.8555  14.8899  15.0687  15.1286
    15.2089  15.2461  15.3740  15.4131  15.5156  15.6275  15.6676  15.7180
    15.7361  15.8107  15.8324  15.9422  15.9927  16.0589  16.0770  16.1361
    16.2238  16.2640  16.3460  16.3965  16.5095  16.5329  16.5577  16.6462
    16.6995  16.7547  16.7928  16.8481  16.9597  16.9963  17.1640  17.2023
    17.2642  17.3263  17.4063  17.4796  17.5268  17.5881  17.6494  17.7095
    17.7360  17.8121  17.8541  17.8899  17.9460  18.0226  18.0543  18.1138
    18.2231  18.3308  18.3787  18.4850  18.5846  18.7261  18.7529  18.7708
    18.8413  18.8805  18.9810  19.0566  19.1104  19.1782  19.2072  19.3428
    19.4083  19.4455  19.5421  19.6507  19.6936  19.7800  19.8337  19.8690
    19.9507  20.0208  20.0906  20.1452  20.2762  20.3523  20.4702  20.5116
    20.6010  20.6662  20.7405  20.8035  20.8398  20.8762  20.9722  21.0106
    21.1135  21.1525  21.2014  21.2527  21.2941  21.3102  21.3540  21.4690
    21.4938  21.5567  21.6541  21.6821  21.7244  21.8031  21.8594  21.9141
    21.9460  22.0261  22.0942  22.1493  22.2040  22.2977  22.3924

          k = 0.2500-0.4953 0.0000 ( 31088 PWs)   bands (ev):

   -50.1235 -50.0267 -50.0200 -49.9660 -49.9596 -49.9193 -49.8870 -49.8619
   -49.8520 -49.8433 -49.8329 -49.8276 -49.7127 -49.7016 -49.6381 -49.6313
   -49.6110 -49.5971 -49.5708 -49.5597 -49.5434 -49.5066 -49.4946 -49.4549
   -23.2882 -20.8084 -20.5425 -20.4936 -20.4127 -20.2581 -20.2386 -20.1520
   -20.0171 -19.8416 -19.7478 -19.7011 -19.6492 -19.6255 -19.3880 -19.2407
   -19.1819 -18.5329 -18.3518 -17.4017  -9.7808  -9.7671  -9.4276  -9.3662
    -9.3058  -9.2238  -9.0641  -8.9467  -8.8774  -8.2673  -8.1804  -8.1507
    -8.1064  -8.0195  -7.9886  -7.9365  -7.8170  -7.6975  -7.6048  -7.4863
    -7.2408  -7.1600  -7.1061  -6.9821  -6.9098  -6.7519  -6.7285  -6.6645
    -6.5884  -6.5009  -6.3955  -6.3222  -6.1997  -6.0925  -5.9428  -5.7944
    -5.7357  -5.5386  -5.4815  -5.3922  -5.3368  -5.2663  -5.1002  -4.9326
    -4.7844  -4.6156  -4.5298  -4.2431  -4.1819  -3.9527  -3.8821  -3.7947
    -3.7032  -3.5744  -3.5472  -3.3539  -3.2701  -3.1095  -3.0247  -2.9736
    -2.8712  -2.8295  -2.7225  -2.6663  -2.6228  -2.5747  -2.4517  -2.3585
    -2.1906  -2.1041  -1.9380  -1.8258  -1.5999  -1.3434  -1.2237  -1.1705
    -1.0779  -1.0450  -0.8283  -0.4491  -0.3731  -0.2664  -0.2215   0.5627
     1.0866   1.0939   1.8715   2.0829   2.6326   2.6569   2.8138   2.9196
     2.9664   3.3366   3.6790   3.6967   3.8224   3.9663   4.0027   4.1865
     4.4126   4.8416   5.2294   5.2983   5.4661   5.6666   5.7238   6.0005
     6.1981   6.3695   6.4672   6.5746   6.9309   6.9604   7.0906   7.1542
     7.2709   7.3321   7.4377   7.5698   7.7269   7.9484   8.0164   8.2558
     8.3409   8.4220   8.5141   8.6020   8.7368   8.8053   8.9470   9.1689
     9.2440   9.2998   9.5162   9.6508   9.7038   9.8763   9.9721  10.0260
    10.0433  10.0484  10.0514  10.0534  10.0955  10.1458  10.2361  10.2512
    10.2591  10.2879  10.3074  10.4290  10.5662  10.6169  10.6696  10.7603
    10.8021  10.8314  11.0127  11.0762  11.1872  11.2902  11.5015  11.5866
    11.6257  11.7029  11.7336  11.9197  11.9678  12.0145  12.0615  12.1347
    12.2107  12.2884  12.4962  12.5052  12.5893  12.7252  12.7717  12.8085
    12.8625  12.9333  13.0689  13.0777  13.1154  13.2000  13.2458  13.3048
    13.3373  13.4230  13.5284  13.5963  13.6609  13.7742  13.8129  13.8895
    13.9648  14.0120  14.0678  14.2409  14.2852  14.3182  14.3593  14.4282
    14.5428  14.5900  14.6088  14.6707  14.7757  14.8196  14.8804  14.9015
    14.9606  15.0577  15.1166  15.2253  15.2745  15.3223  15.3911  15.4239
    15.5547  15.6605  15.7834  15.8668  15.8813  15.9255  15.9528  16.0765
    16.1744  16.2372  16.3212  16.3441  16.4085  16.4602  16.5133  16.5644
    16.5725  16.6289  16.6718  16.7351  16.7874  16.9084  16.9366  17.0499
    17.0973  17.1511  17.1941  17.2423  17.3733  17.3990  17.4297  17.5297
    17.5366  17.6825  17.8249  17.8728  17.9091  17.9578  17.9966  18.0710
    18.1327  18.1943  18.2220  18.2761  18.3229  18.4663  18.5339  18.6277
    18.6803  18.7304  18.7491  18.7785  18.8492  18.9135  18.9774  19.0460
    19.0898  19.2003  19.2920  19.3171  19.4143  19.4589  19.4920  19.6156
    19.6462  19.7313  19.7748  19.8465  19.8779  19.9078  20.0655  20.1073
    20.1902  20.3773  20.4056  20.4528  20.6399  20.6865  20.7967  20.8296
    20.8563  20.9495  20.9873  21.0004  21.1539  21.2179  21.2651  21.2809
    21.3432  21.4594  21.5466  21.6038  21.7637  21.8276  21.9145  21.9931
    22.0220  22.0769  22.1135  22.1820  22.2051  22.2910  22.3527

          k =-0.5000 0.0000 0.0000 ( 31104 PWs)   bands (ev):

   -50.1212 -50.0247 -50.0240 -49.9661 -49.9281 -49.9244 -49.8871 -49.8852
   -49.8613 -49.8528 -49.8412 -49.8278 -49.7150 -49.7100 -49.6318 -49.6308
   -49.5974 -49.5833 -49.5793 -49.5653 -49.5649 -49.5015 -49.5004 -49.4559
   -23.2875 -20.6879 -20.6538 -20.4854 -20.4555 -20.4024 -20.3960 -20.0876
   -19.8689 -19.8546 -19.5856 -19.5841 -19.5077 -19.4922 -19.3231 -19.2744
   -19.2554 -18.5902 -18.4836 -17.4099  -9.6917  -9.6609  -9.5881  -9.5850
    -9.2477  -9.1583  -9.0408  -8.8116  -8.7748  -8.7307  -8.6259  -8.5307
    -8.4604  -8.2530  -8.1738  -8.0094  -7.9541  -7.8731  -7.7851  -7.4090
    -7.3163  -6.8688  -6.8244  -6.7781  -6.7406  -6.6880  -6.6255  -6.5091
    -6.4296  -6.3767  -6.2444  -6.2318  -6.1157  -5.9784  -5.7841  -5.7378
    -5.5677  -5.4723  -5.4112  -5.4042  -5.3243  -5.2882  -4.9247  -4.8776
    -4.7146  -4.6277  -4.5275  -4.2506  -4.1916  -4.1633  -4.0867  -3.9163
    -3.8934  -3.7788  -3.4399  -3.2516  -3.2193  -3.1971  -3.1165  -3.1052
    -3.0113  -2.9572  -2.7658  -2.7556  -2.5719  -2.2056  -2.1731  -1.9643
    -1.8527  -1.7858  -1.6285  -1.6141  -1.4916  -1.4450  -1.1776  -1.1743
    -1.1152  -0.9983  -0.8696  -0.7382  -0.6717  -0.3354  -0.2855   0.4566
     1.8527   2.2295   2.2345   2.3676   2.5311   2.7606   2.7854   2.7994
     2.8243   2.8288   2.8582   2.8611   3.0984   3.7246   3.8105   3.9617
     4.4608   4.7847   4.8109   4.9333   5.2717   5.3075   5.7273   5.7875
     6.0570   6.2785   6.7243   6.9393   7.0302   7.1419   7.4817   7.6002
     7.6838   7.9534   8.3256   8.3414   8.4219   8.4967   8.5106   8.5499
     8.5926   8.6306   8.8549   8.8977   8.9172   8.9801   9.2437   9.3288
     9.3475   9.4095   9.4242   9.4805   9.5180   9.5990   9.7036   9.8439
     9.8814   9.9030   9.9425   9.9767  10.0378  10.0457  10.0481  10.0528
    10.0532  10.0973  10.1424  10.1849  10.1964  10.2523  10.2534  10.3465
    10.3874  10.4711  10.5229  10.5586  10.8270  10.9768  11.0283  11.0709
    11.2700  11.3035  11.3844  11.6095  11.6789  11.6956  11.8230  11.9157
    12.0984  12.1107  12.2470  12.2889  12.5215  12.5664  12.6189  12.6381
    12.6606  12.7503  12.8301  12.8673  12.9349  13.0093  13.1778  13.2869
    13.2996  13.3676  13.4126  13.4915  13.5940  13.6237  13.7233  13.8179
    13.8680  13.9062  14.0775  14.1849  14.2752  14.3490  14.3703  14.4534
    14.5363  14.6139  14.6353  14.6864  14.7900  14.8946  14.9955  15.0506
    15.0788  15.1583  15.2080  15.2583  15.4371  15.5806  15.5843  15.6762
    15.8224  15.9191  15.9504  16.0482  16.0628  16.1946  16.2626  16.2965
    16.3122  16.3635  16.3745  16.4666  16.5315  16.5637  16.6124  16.6548
    16.6675  16.6947  16.7238  16.7888  16.8090  16.9309  16.9864  17.0709
    17.1622  17.2909  17.3440  17.4015  17.5148  17.5307  17.6249  17.7131
    17.8631  17.9353  18.0110  18.1460  18.1608  18.2053  18.2702  18.4872
    18.5354  18.6261  18.6801  18.7070  18.7425  18.7730  18.9319  18.9763
    19.0620  19.0774  19.1132  19.1490  19.2366  19.3389  19.3834  19.4342
    19.6853  19.7043  19.7518  19.7904  19.8155  19.8257  19.8343  19.8589
    19.9623  20.0309  20.0625  20.1834  20.2117  20.2189  20.2840  20.3367
    20.3489  20.3919  20.4335  20.4572  20.5256  20.5732  20.6384  20.7156
    20.8046  20.9035  21.0238  21.0542  21.0887  21.1437  21.1955  21.2251
    21.2569  21.2942  21.3967  21.4073  21.5233  21.5475  21.5846  21.6292
    21.6488  21.6708  21.7622  21.8332  21.8900  21.9812  22.1017

          k =-0.5000 0.2476 0.0000 ( 31120 PWs)   bands (ev):

   -50.1213 -50.0247 -50.0236 -49.9663 -49.9280 -49.9243 -49.8864 -49.8848
   -49.8614 -49.8529 -49.8411 -49.8279 -49.7126 -49.7075 -49.6338 -49.6327
   -49.5971 -49.5827 -49.5787 -49.5655 -49.5651 -49.5016 -49.5005 -49.4556
   -23.2879 -20.6423 -20.6139 -20.3781 -20.3701 -20.3187 -20.3122 -20.0933
   -19.8800 -19.8758 -19.7112 -19.7015 -19.6545 -19.6502 -19.3070 -19.2732
   -19.2595 -18.5929 -18.4830 -17.4063  -9.3768  -9.3143  -9.2663  -9.2385
    -9.1082  -9.0778  -8.9856  -8.8322  -8.7811  -8.7131  -8.6295  -8.5423
    -8.4970  -8.2927  -8.2241  -8.0950  -8.0405  -7.7415  -7.6358  -7.2965
    -7.2504  -7.1040  -7.0850  -7.0477  -7.0208  -6.7147  -6.6194  -6.5135
    -6.4447  -6.3940  -6.2918  -6.2447  -6.1331  -6.0178  -5.9479  -5.7821
    -5.6813  -5.6253  -5.5002  -5.4652  -5.4295  -5.3904  -5.3441  -5.1113
    -4.8974  -4.6658  -4.5540  -4.4922  -4.4625  -4.1845  -4.1258  -3.9675
    -3.8244  -3.7444  -3.5022  -3.1991  -3.1192  -3.0614  -2.7961  -2.7191
    -2.5964  -2.5789  -2.5252  -2.5061  -2.4525  -2.3756  -2.2732  -2.1111
    -2.0086  -1.9148  -1.6543  -1.4639  -1.4596  -1.3974  -1.2718  -1.1532
    -1.0083  -0.9076  -0.8814  -0.7810  -0.7103  -0.4453  -0.4192   0.5646
     1.9215   2.1080   2.1391   2.1492   2.2402   2.3825   2.5337   2.6117
     2.7680   3.0961   3.1420   3.3816   3.4255   3.6909   3.9141   4.1341
     4.5579   5.0108   5.0221   5.1208   5.4866   5.5040   5.9038   5.9810
     6.2476   6.4573   6.6832   6.7337   6.7895   6.9157   7.0419   7.2520
     7.2680   7.3811   7.3918   7.4818   7.8096   7.8963   8.0789   8.3300
     8.3556   8.5434   8.5812   8.6807   8.8439   8.8906   9.0346   9.1197
     9.3756   9.5060   9.5785   9.8023   9.8976   9.9718  10.0186  10.0403
    10.0475  10.0493  10.0531  10.0727  10.0965  10.1080  10.1576  10.2496
    10.2529  10.2696  10.3387  10.3636  10.4802  10.5005  10.5955  10.7743
    10.8539  10.9462  11.0402  11.0624  11.1280  11.1552  11.3809  11.4625
    11.5027  11.5200  11.7533  11.8257  11.9553  11.9924  12.0330  12.1360
    12.3491  12.3707  12.4654  12.4801  12.5704  12.6101  12.6893  12.7729
    12.8571  12.8929  12.9699  13.0672  13.2020  13.2453  13.3412  13.4071
    13.4498  13.4663  13.5528  13.6587  13.7638  13.7964  13.8927  13.9209
    14.0671  14.0954  14.1951  14.2753  14.3448  14.3564  14.4370  14.4772
    14.5175  14.5503  14.6166  14.6976  14.7239  14.7382  14.8056  14.8258
    14.8968  14.9281  15.0172  15.0503  15.0981  15.1312  15.1874  15.2512
    15.3474  15.4898  15.5748  15.6126  15.6749  15.7325  15.8248  15.8490
    15.9466  16.1042  16.1856  16.2392  16.3350  16.3791  16.4060  16.4359
    16.6445  16.6530  16.6841  16.7305  16.7502  16.8086  16.9056  16.9545
    17.1253  17.1722  17.2663  17.2835  17.3841  17.4418  17.4742  17.5700
    17.6404  17.6861  17.8174  17.8956  17.9600  17.9991  18.1050  18.1327
    18.1478  18.2629  18.2980  18.3852  18.4389  18.5159  18.5791  18.6175
    18.6662  18.7253  18.7875  18.7982  18.8450  18.9521  19.0552  19.1710
    19.2920  19.3558  19.4020  19.4588  19.5907  19.6340  19.6957  19.7371
    19.7988  19.8181  19.9378  19.9697  20.0083  20.0637  20.1490  20.1806
    20.3302  20.3671  20.4628  20.5314  20.5837  20.7292  20.8181  20.8723
    20.9269  21.0305  21.0763  21.0921  21.1717  21.2625  21.2997  21.4507
    21.6067  21.6470  21.7063  21.7279  21.8619  21.8886  21.9635  22.0156
    22.0457  22.0853  22.2278  22.2840  22.3028  22.3437  22.3957

          k =-0.5000-0.4953 0.0000 ( 31140 PWs)   bands (ev):

   -50.1214 -50.0247 -50.0231 -49.9664 -49.9279 -49.9242 -49.8857 -49.8843
   -49.8616 -49.8531 -49.8410 -49.8280 -49.7101 -49.7049 -49.6357 -49.6347
   -49.5969 -49.5821 -49.5781 -49.5656 -49.5652 -49.5017 -49.5006 -49.4553
   -23.2882 -20.6021 -20.5832 -20.2149 -20.1763 -20.1744 -20.0814 -20.0456
   -20.0116 -19.9881 -19.9758 -19.9070 -19.7922 -19.7773 -19.2824 -19.2788
   -19.2737 -18.5956 -18.4825 -17.4027  -9.3327  -9.2539  -8.9672  -8.8809
    -8.8357  -8.8053  -8.7827  -8.7299  -8.6195  -8.4019  -8.3400  -8.2179
    -8.1706  -8.1504  -8.1368  -8.1133  -8.0958  -7.9527  -7.9368  -7.9142
    -7.7897  -7.6166  -7.4933  -6.9447  -6.8434  -6.7865  -6.7382  -6.5997
    -6.5679  -6.3694  -6.3444  -6.2449  -6.1630  -6.0588  -6.0112  -5.9757
    -5.9199  -5.8762  -5.8637  -5.7056  -5.6446  -5.6051  -5.4111  -4.9615
    -4.8650  -4.6600  -4.5192  -4.4171  -4.4092  -4.2365  -4.0630  -3.9082
    -3.8332  -3.6419  -3.3384  -3.1594  -2.9792  -2.9477  -2.8439  -2.8192
    -2.6885  -2.5055  -2.4687  -2.3997  -2.2532  -2.2239  -2.1326  -2.1211
    -2.0423  -1.9858  -1.6185  -1.4016  -1.3860  -1.2527  -1.1807  -1.1713
    -1.0779  -0.8783  -0.8205  -0.6834  -0.6593  -0.6033  -0.5756   0.6525
     1.7412   1.7451   1.7705   1.8197   2.0871   2.4112   2.6244   2.6558
     2.8176   3.2976   3.3288   3.5439   3.6585   3.9373   4.0192   4.0360
     4.6909   5.4748   5.4791   5.4916   5.9060   5.9103   5.9661   5.9889
     6.0811   6.1688   6.3417   6.3654   6.4544   6.6777   6.8001   6.9123
     6.9303   7.1895   7.2692   7.4472   7.5637   7.8009   7.8360   7.9934
     8.0187   8.0322   8.1720   8.3599   8.7497   8.9863   8.9948   9.1135
     9.2203   9.2944   9.4467   9.4749   9.8346   9.8646   9.9733  10.0170
    10.0401  10.0466  10.0518  10.0528  10.0961  10.2520  10.2531  10.3326
    10.3506  10.3815  10.6353  10.6478  10.8312  10.9034  10.9332  10.9994
    11.1449  11.2131  11.3801  11.3931  11.5910  11.6744  11.7813  11.9660
    12.0892  12.3980  12.4330  12.4939  12.5807  12.5933  12.6723  12.7137
    12.8179  12.8644  12.9040  12.9184  13.0440  13.1596  13.2136  13.2534
    13.2821  13.3557  13.3633  13.4124  13.4294  13.4349  13.4629  13.4793
    13.5083  13.5415  13.6112  13.6315  13.6783  13.7563  13.8052  13.8091
    13.8317  13.9123  13.9479  13.9766  13.9978  14.0396  14.0662  14.1707
    14.1953  14.2252  14.2576  14.2845  14.4019  14.5118  14.5256  14.5391
    14.5816  14.6308  14.7272  14.8143  14.8744  15.0733  15.1129  15.1249
    15.1995  15.2753  15.3217  15.3498  15.3972  15.4251  15.4334  15.5274
    15.5685  15.5895  15.8096  15.8330  15.9191  15.9538  16.0008  16.1214
    16.1656  16.2557  16.3500  16.4464  16.5696  16.6102  16.6697  16.6949
    16.7503  16.7865  16.9294  16.9838  17.0287  17.0739  17.1295  17.1669
    17.2363  17.3498  17.5374  17.5493  17.6570  17.7136  17.8262  17.8995
    18.0719  18.1695  18.3269  18.3491  18.4066  18.5796  18.5918  18.6694
    18.7129  18.8590  18.8773  18.9471  19.0198  19.1298  19.2433  19.2877
    19.3804  19.4041  19.4459  19.5394  19.6269  19.8978  19.9255  20.0082
    20.1308  20.2145  20.2391  20.3561  20.3953  20.4726  20.4824  20.5680
    20.7158  20.7448  20.7726  20.7906  20.8866  20.9138  20.9521  21.0221
    21.0364  21.1157  21.1282  21.1572  21.2132  21.2356  21.2621  21.3320
    21.4683  21.5229  21.5375  21.5843  21.6217  21.6501  21.6996  21.7381
    21.8348  21.8655  21.9184  21.9653  21.9980  22.0230  22.1189

          k =-0.2500 0.2476 0.0000 ( 31099 PWs)   bands (ev):

   -50.1233 -50.0265 -50.0207 -49.9659 -49.9597 -49.9201 -49.8870 -49.8617
   -49.8519 -49.8439 -49.8327 -49.8275 -49.7153 -49.7034 -49.6345 -49.6315
   -49.6121 -49.5972 -49.5705 -49.5597 -49.5436 -49.5064 -49.4946 -49.4553
   -23.2878 -20.9058 -20.6678 -20.6105 -20.4926 -20.2188 -20.1739 -20.1006
   -20.0139 -19.8388 -19.7090 -19.6744 -19.5115 -19.4685 -19.3732 -19.2412
   -19.1787 -18.5342 -18.3489 -17.4055 -10.0656  -9.9570  -9.6507  -9.5565
    -9.1945  -9.1550  -9.0583  -8.9810  -8.8473  -8.5412  -8.4683  -8.4237
    -8.3788  -8.2168  -8.0447  -7.8943  -7.8100  -7.7146  -7.6366  -7.3096
    -7.2117  -7.0592  -6.9865  -6.8810  -6.8256  -6.7344  -6.6498  -6.5460
    -6.3853  -6.2185  -6.0907  -6.0009  -5.9358  -5.8723  -5.7530  -5.7168
    -5.6552  -5.6408  -5.5116  -5.2908  -5.2174  -5.1519  -5.0656  -4.8726
    -4.7526  -4.5638  -4.3936  -4.2839  -4.1968  -4.1472  -3.9716  -3.9077
    -3.7805  -3.6765  -3.4254  -3.3700  -3.2094  -3.1339  -3.1112  -3.0041
    -2.9536  -2.7867  -2.7669  -2.6072  -2.5820  -2.5106  -2.5006  -2.4184
    -2.2285  -2.1966  -2.1218  -1.9833  -1.7061  -1.4222  -1.2078  -1.1796
    -0.9998  -0.9588  -0.7144  -0.5639  -0.3903  -0.3237  -0.1199   0.4611
     1.4983   1.5193   1.7607   2.0672   2.2653   2.6791   2.7761   3.0019
     3.1976   3.3399   3.4052   3.5317   3.6563   3.8085   3.8430   4.0486
     4.2550   4.4012   4.7865   5.2962   5.4034   5.8114   6.0583   6.1121
     6.2511   6.4263   6.5811   6.6613   6.7626   7.0573   7.1796   7.3146
     7.5223   7.6873   7.8456   7.9103   7.9696   8.1693   8.2701   8.3566
     8.3719   8.4867   8.7446   8.8044   8.8874   9.0840   9.1269   9.1807
     9.2226   9.4206   9.5570   9.6198   9.6669   9.7706   9.8431   9.9577
     9.9755  10.0283  10.0398  10.0474  10.0522  10.0555  10.0967  10.1338
    10.2178  10.2527  10.2539  10.3255  10.3827  10.4505  10.5222  10.5748
    10.6658  10.7169  10.8305  10.9514  10.9788  11.0497  11.1673  11.2154
    11.3123  11.3796  11.4638  11.5775  11.7038  11.7505  11.7978  11.9097
    11.9294  12.0745  12.1374  12.2254  12.3474  12.4886  12.5235  12.5448
    12.5977  12.6894  12.7991  12.8991  12.9495  13.0192  13.0959  13.1949
    13.2446  13.2970  13.3850  13.5272  13.6247  13.7125  13.7502  13.8658
    13.9194  13.9647  14.0573  14.1341  14.1783  14.2514  14.3320  14.4186
    14.4600  14.5412  14.6470  14.7415  14.8399  14.8915  15.0652  15.1047
    15.1477  15.2349  15.3855  15.4035  15.5348  15.6177  15.6651  15.6919
    15.7289  15.7924  15.8406  15.9345  15.9680  16.0359  16.0722  16.0910
    16.2190  16.2762  16.3504  16.3994  16.4839  16.5319  16.5571  16.6238
    16.7156  16.7558  16.7879  16.8513  16.9425  16.9875  17.1727  17.2409
    17.3012  17.3269  17.4028  17.4563  17.5172  17.5918  17.6405  17.6892
    17.7286  17.8332  17.8570  17.8856  17.9204  18.0152  18.0628  18.1490
    18.2335  18.3227  18.3889  18.5056  18.6059  18.6961  18.7692  18.7902
    18.8262  18.8774  19.0416  19.0513  19.1211  19.2139  19.2567  19.3702
    19.3884  19.4552  19.5583  19.6391  19.6897  19.7646  19.8177  19.8504
    19.9539  20.0010  20.1421  20.2324  20.2932  20.3638  20.4571  20.5294
    20.6113  20.6724  20.7441  20.7897  20.8051  20.8833  20.9240  21.0470
    21.1183  21.1392  21.1939  21.2532  21.2836  21.3225  21.3487  21.4295
    21.5106  21.5645  21.6664  21.6776  21.7308  21.8425  21.8515  21.9157
    21.9836  22.0104  22.0805  22.1376  22.2172  22.3024  22.3979

     the Fermi energy is    -0.7849 ev

!    total energy              =   -2137.34564351 Ry
     Harris-Foulkes estimate   =   -2137.34564417 Ry
     estimated scf accuracy    <       0.00000076 Ry

     The total energy is the sum of the following terms:

     one-electron contribution =  -23091.18273670 Ry
     hartree contribution      =   11597.49403167 Ry
     xc contribution           =    -584.15652786 Ry
     ewald contribution        =    9938.47202558 Ry
     Hubbard energy            =       2.02740656 Ry
     smearing contrib. (-TS)   =       0.00015723 Ry

     convergence has been achieved in  32 iterations

     Forces acting on atoms (Ry/au):


     negative rho (up, down):  0.314E+01 0.000E+00
     atom    1 type  1   force =    -0.00797858   -0.01293118    0.00644657
     atom    2 type  1   force =     0.00021875    0.00798846    0.00339476
     atom    3 type  2   force =     0.03273407    0.00535154   -0.00761791
     atom    4 type  2   force =     0.00858703    0.00736058   -0.00419066
     atom    5 type  1   force =    -0.00441390   -0.02065243    0.00130461
     atom    6 type  1   force =     0.00537415    0.02013638    0.00044341
     atom    7 type  1   force =    -0.00042706   -0.00402556    0.01883513
     atom    8 type  1   force =    -0.00297778    0.00054311    0.00361807
     atom    9 type  2   force =     0.00558729    0.00088223   -0.00873471
     atom   10 type  2   force =    -0.00015241    0.00006511   -0.00508208
     atom   11 type  1   force =    -0.00258259    0.02050639   -0.00255949
     atom   12 type  1   force =     0.00395656   -0.01518696   -0.00207564
     atom   13 type  1   force =    -0.00083169   -0.00290138   -0.00003264
     atom   14 type  1   force =    -0.00776573   -0.01304512    0.00588361
     atom   15 type  1   force =     0.00018169    0.00786180    0.00267031
     atom   16 type  2   force =    -0.03239310    0.00532082   -0.00772018
     atom   17 type  2   force =     0.00861476    0.00787230   -0.00683645
     atom   18 type  1   force =    -0.00352275   -0.02135683    0.00136395
     atom   19 type  1   force =     0.00599846    0.01960192    0.00044618
     atom   20 type  1   force =    -0.00039392   -0.00726078    0.00777285
     atom   21 type  1   force =    -0.00319335    0.00132035    0.00407976
     atom   22 type  2   force =    -0.00330841    0.00024509   -0.00841532
     atom   23 type  2   force =    -0.00018599    0.00567127   -0.00923242
     atom   24 type  1   force =     0.00243806    0.02048689   -0.00258475
     atom   25 type  1   force =    -0.00337905   -0.01521307   -0.00208467
     atom   26 type  1   force =    -0.00087819   -0.01002067    0.00415715
     atom   27 type  3   force =    -0.00012962   -0.00376075    0.00215011
     atom   28 type  3   force =    -0.00011352   -0.00386285    0.00289957
     atom   29 type  3   force =     0.00044483    0.00039484    0.00045523
     atom   30 type  3   force =     0.00052262    0.00057435    0.00052579
     atom   31 type  1   force =    -0.00018691   -0.01529794    0.00918334
     atom   32 type  1   force =     0.00014616    0.01279942   -0.00918590
     atom   33 type  3   force =     0.00001011    0.00053267    0.00072245

     Total force =     0.040422     Total SCF correction =     0.002005


     entering subroutine stress ...


     negative rho (up, down):  0.314E+01 0.000E+00
          total   stress  (Ry/bohr**3)                   (kbar)     P=  -17.71
  -0.00013447   0.00000779   0.00000406        -19.78      1.15      0.60
   0.00000779  -0.00014991   0.00000757          1.15    -22.05      1.11
   0.00000406   0.00000757  -0.00007679          0.60      1.11    -11.30


     BFGS Geometry Optimization

     number of scf cycles    =   1
     number of bfgs steps    =   0

     energy   new            =   -2137.3456435112 Ry

     new trust radius        =       0.0188351260 bohr
     new conv_thr            =       0.0000010000 Ry


ATOMIC_POSITIONS (crystal)
O0       0.000000000   0.000000000   0.377939118    0   0   1
O0       0.000000000   0.500000000   0.402137994    0   0   1
Ir1      0.250000000   0.500000000   0.452547421    0   0   1
Ir1      0.000000000   0.000000000   0.452656065    0   0   1
O0       0.250000000   0.810000000   0.452626130    0   0   1
O0       0.250000000   0.190000000   0.452268881    0   0   1
O0       0.000000000   0.500000000   0.498567249    0   0   1
O0       0.000000000   0.000000000   0.528422466    0   0   1
Ir1      0.250000000   0.000000000   0.575175052    0   0   1
Ir1      0.000000000   0.500000000   0.571438211    0   0   1
O0       0.250000000   0.690000000   0.574228736    0   0   1
O0       0.250000000   0.310000000   0.576478427    0   0   1
O0       0.000000000   0.000000000   0.619959346    0   0   1
O0       0.500000000   0.000000000   0.377927843    0   0   1
O0       0.500000000   0.500000000   0.402163484    0   0   1
Ir1      0.750000000   0.500000000   0.452545372    0   0   1
Ir1      0.500000000   0.000000000   0.452553073    0   0   1
O0       0.750000000   0.810000000   0.452617319    0   0   1
O0       0.750000000   0.190000000   0.452288937    0   0   1
O0       0.500000000   0.500000000   0.499885683    0   0   1
O0       0.500000000   0.000000000   0.528351714    0   0   1
Ir1      0.750000000   0.000000000   0.575171449    0   0   1
Ir1      0.500000000   0.500000000   0.577515084    0   0   1
O0       0.750000000   0.690000000   0.574228230    0   0   1
O0       0.750000000   0.310000000   0.576478246    0   0   1
O0       0.500000000   0.000000000   0.619423264    0   0   1
H2       0.000029215   0.635670040   0.384173064
H2       0.499930555   0.636121626   0.384378076
H2       0.143247012   0.035702542   0.366329118
H2       0.643713484   0.033697337   0.366290531
O0       0.499774448   0.536849151   0.649983933
O0       0.500192161   0.345854922   0.679236015
H2       0.499980841   0.407613902   0.713584470


     Check: negative starting charge=   -3.336869
     NEW-OLD atomic charge density approx. for the potential

     Check: negative/imaginary core charge=   -0.000003    0.000000
     Check: negative starting charge=   -3.336650

     negative rho (up, down):  0.314E+01 0.000E+00
 Atomic wfc used for LDA+U Projector are NOT orthogonalized

     total cpu time spent up to now is     8017.9 secs

     per-process dynamical memory:   463.4 Mb

     Self-consistent Calculation

     iteration #  1     ecut=    40.00 Ry     beta=0.70
     Davidson diagonalization with overlap
     ethr =  1.00E-06,  avg # of iterations =  3.0
 --- enter write_ns ---
 LDA+U parameters:
U( 2)     =  5.50000000
alpha( 2) =  0.00000000
atom    3   Tr[ns(na)] =   8.19368
    eigenvalues: 
  0.606  0.633  0.902  0.973  0.983
    eigenvectors:
  0.005  0.179  0.003  0.001  0.812
  0.975  0.024  0.000  0.000  0.000
  0.000  0.000  0.990  0.007  0.003
  0.019  0.797  0.000  0.000  0.183
  0.000  0.000  0.006  0.992  0.001
    occupations:
  0.918 -0.004  0.003 -0.136 -0.001
 -0.004  0.607 -0.001 -0.003 -0.005
  0.003 -0.001  0.903 -0.004  0.006
 -0.136 -0.003 -0.004  0.697 -0.000
 -0.001 -0.005  0.006 -0.000  0.972
atom    4   Tr[ns(na)] =   8.19415
    eigenvalues: 
  0.619  0.668  0.890  0.934  0.986
    eigenvectors:
  0.000  0.989  0.000  0.000  0.011
  0.000  0.000  0.079  0.920  0.000
  0.000  0.000  0.921  0.079  0.000
  0.000  0.011  0.000  0.000  0.989
  1.000  0.000  0.000  0.000  0.000
    occupations:
  0.672 -0.003 -0.001  0.032  0.001
 -0.003  0.931  0.012  0.000 -0.001
 -0.001  0.012  0.894 -0.000  0.000
  0.032  0.000 -0.000  0.982  0.000
  0.001 -0.001  0.000  0.000  0.619
atom    9   Tr[ns(na)] =   8.17453
    eigenvalues: 
  0.654  0.670  0.869  0.910  0.985
    eigenvectors:
  0.000  0.140  0.001  0.000  0.859
  0.998  0.002  0.000  0.000  0.000
  0.000  0.000  0.991  0.008  0.000
  0.002  0.858  0.000  0.000  0.140
  0.000  0.000  0.008  0.992  0.000
    occupations:
  0.940 -0.001  0.000 -0.109 -0.001
 -0.001  0.654  0.000  0.001 -0.000
  0.000  0.000  0.869 -0.004 -0.004
 -0.109  0.001 -0.004  0.714  0.001
 -0.001 -0.000 -0.004  0.001  0.909
atom   10   Tr[ns(na)] =   8.13753
    eigenvalues: 
  0.576  0.611  0.946  0.952  0.985
    eigenvectors:
  0.991  0.000  0.000  0.000  0.009
  0.000  0.001  0.998  0.001  0.000
  0.000  0.000  0.001  0.998  0.000
  0.009  0.000  0.000  0.000  0.991
  0.000  0.999  0.001  0.000  0.000
    occupations:
  0.579  0.000  0.007  0.038 -0.000
  0.000  0.946 -0.000  0.000 -0.009
  0.007 -0.000  0.951 -0.000 -0.000
  0.038  0.000 -0.000  0.981 -0.000
 -0.000 -0.009 -0.000 -0.000  0.611
atom   16   Tr[ns(na)] =   8.19353
    eigenvalues: 
  0.606  0.633  0.902  0.973  0.983
    eigenvectors:
  0.005  0.179  0.003  0.001  0.812
  0.977  0.023  0.000  0.000  0.000
  0.000  0.000  0.993  0.004  0.003
  0.018  0.798  0.000  0.000  0.183
  0.000  0.000  0.004  0.995  0.001
    occupations:
  0.918  0.004  0.004 -0.136  0.001
  0.004  0.607 -0.000  0.003 -0.005
  0.004 -0.000  0.903 -0.004 -0.004
 -0.136  0.003 -0.004  0.697 -0.000
  0.001 -0.005 -0.004 -0.000  0.972
atom   17   Tr[ns(na)] =   8.19305
    eigenvalues: 
  0.619  0.669  0.890  0.933  0.986
    eigenvectors:
  0.000  0.989  0.000  0.000  0.011
  0.000  0.000  0.064  0.936  0.000
  0.000  0.000  0.936  0.064  0.000
  0.000  0.011  0.000  0.000  0.989
  1.000  0.000  0.000  0.000  0.000
    occupations:
  0.672 -0.003 -0.001  0.032  0.001
 -0.003  0.930  0.010  0.000 -0.001
 -0.001  0.010  0.893 -0.000  0.001
  0.032  0.000 -0.000  0.982  0.000
  0.001 -0.001  0.001  0.000  0.619
[...]
    16.3085  16.3502  16.3735  16.4712  16.5362  16.5575  16.6114  16.6491
    16.6683  16.6945  16.7203  16.7844  16.8104  16.9388  16.9922  17.0814
    17.1475  17.2879  17.3424  17.3980  17.5271  17.5586  17.6274  17.7081
    17.8700  17.9446  18.0038  18.1390  18.1540  18.1993  18.2669  18.4806
    18.5323  18.6117  18.6736  18.7106  18.7456  18.7779  18.9352  18.9836
    19.0484  19.0637  19.1182  19.1542  19.2457  19.3354  19.3774  19.4277
    19.6779  19.6993  19.7432  19.7835  19.8108  19.8313  19.8382  19.8644
    19.9639  20.0258  20.0574  20.1852  20.2068  20.2126  20.2837  20.3370
    20.3504  20.3924  20.4347  20.4629  20.5299  20.5684  20.6431  20.7200
    20.8053  20.8979  21.0429  21.0597  21.0892  21.1452  21.2035  21.2278
    21.2678  21.2970  21.4088  21.4186  21.5346  21.5515  21.5892  21.6488
    21.6581  21.7255  21.7772  21.8534  21.9199  21.9901  22.1119

          k =-0.5000 0.2476 0.0000 ( 31120 PWs)   bands (ev):

   -50.0878 -49.9812 -49.9804 -49.9361 -49.8933 -49.8928 -49.8461 -49.8447
   -49.8314 -49.8295 -49.8167 -49.8117 -49.6798 -49.6793 -49.5926 -49.5917
   -49.5639 -49.5452 -49.5424 -49.5202 -49.5200 -49.4649 -49.4642 -49.4315
   -23.5320 -20.6581 -20.6318 -20.3588 -20.3505 -20.2867 -20.2809 -20.0608
   -19.8915 -19.8782 -19.6810 -19.6697 -19.6176 -19.6155 -19.3326 -19.2795
   -19.2731 -18.5220 -18.4323 -17.3166  -9.3809  -9.3034  -9.2363  -9.2129
    -9.1053  -9.0882  -9.0158  -8.8253  -8.7885  -8.7093  -8.6190  -8.5241
    -8.5038  -8.2839  -8.2132  -8.1057  -8.0444  -7.7649  -7.6435  -7.2956
    -7.2464  -7.0785  -7.0577  -7.0222  -6.9965  -6.7238  -6.6309  -6.5071
    -6.4529  -6.3757  -6.2614  -6.2076  -6.1296  -6.0201  -5.9401  -5.7568
    -5.6626  -5.6033  -5.4775  -5.4354  -5.4053  -5.3678  -5.3167  -5.0814
    -4.8879  -4.6424  -4.5435  -4.4770  -4.4454  -4.1707  -4.1138  -3.9318
    -3.7812  -3.6914  -3.4756  -3.1627  -3.0827  -3.0219  -2.7746  -2.6912
    -2.5547  -2.5391  -2.4904  -2.4698  -2.4224  -2.3494  -2.2489  -2.0929
    -1.9718  -1.8803  -1.6069  -1.4208  -1.4160  -1.3588  -1.2376  -1.1272
    -0.9706  -0.8688  -0.8347  -0.7435  -0.6700  -0.3985  -0.3725   0.6416
     1.9856   2.1477   2.1793   2.1933   2.2712   2.4417   2.5991   2.6812
     2.8479   3.1502   3.2534   3.4622   3.4714   3.8261   3.9664   4.1926
     4.5977   5.0077   5.0268   5.1157   5.4763   5.5001   5.8978   5.9724
     6.2555   6.4592   6.6754   6.7407   6.7949   6.9177   7.0368   7.2629
     7.2897   7.3830   7.3925   7.4849   7.8081   7.8897   8.0873   8.3354
     8.3614   8.5670   8.6003   8.7016   8.8698   8.9106   9.0451   9.1197
     9.3795   9.5158   9.5986   9.8302   9.9138  10.0075  10.0339  10.0774
    10.0812  10.0905  10.0992  10.1061  10.1197  10.1314  10.1788  10.2752
    10.2928  10.2948  10.3570  10.3835  10.4953  10.5183  10.6105  10.7855
    10.8688  10.9643  11.0489  11.0768  11.1576  11.1816  11.3873  11.4670
    11.5127  11.5331  11.7487  11.8475  11.9637  12.0003  12.0350  12.1491
    12.3585  12.3760  12.4722  12.4935  12.5839  12.6181  12.7033  12.7788
    12.8581  12.8963  12.9754  13.0710  13.2129  13.2495  13.3370  13.4092
    13.4486  13.4710  13.5609  13.6621  13.7742  13.8110  13.9212  13.9682
    14.0860  14.1073  14.2116  14.2959  14.3490  14.3755  14.4508  14.4987
    14.5233  14.5651  14.6263  14.7055  14.7307  14.7519  14.8258  14.8446
    14.9235  14.9572  15.0269  15.0584  15.1062  15.1528  15.1977  15.2626
    15.3451  15.4789  15.5837  15.6123  15.6691  15.7259  15.8305  15.8455
    15.9410  16.1056  16.1877  16.2346  16.3409  16.3783  16.4027  16.4304
    16.6380  16.6502  16.6829  16.7288  16.7495  16.8118  16.8997  16.9475
    17.1337  17.1682  17.2676  17.2856  17.3865  17.4433  17.4760  17.5689
    17.6331  17.6922  17.8179  17.8964  17.9609  18.0024  18.0985  18.1239
    18.1438  18.2623  18.3000  18.4002  18.4520  18.5171  18.5822  18.6184
    18.6700  18.7257  18.7811  18.8006  18.8490  18.9507  19.0490  19.1665
    19.2874  19.3531  19.4018  19.4490  19.6042  19.6414  19.6946  19.7410
    19.7930  19.8192  19.9353  19.9668  20.0161  20.0574  20.1492  20.1918
    20.3272  20.3689  20.4610  20.5385  20.5943  20.7531  20.8337  20.8673
    20.9215  21.0335  21.0794  21.0892  21.1735  21.2716  21.3066  21.4487
    21.6120  21.6433  21.7153  21.7424  21.8572  21.9217  21.9792  22.0283
    22.0583  22.1002  22.2291  22.2897  22.3280  22.3601  22.4164

          k =-0.5000-0.4953 0.0000 ( 31140 PWs)   bands (ev):

   -50.0879 -49.9813 -49.9799 -49.9362 -49.8933 -49.8927 -49.8453 -49.8443
   -49.8314 -49.8297 -49.8168 -49.8117 -49.6773 -49.6773 -49.5943 -49.5935
   -49.5636 -49.5446 -49.5418 -49.5203 -49.5202 -49.4650 -49.4643 -49.4312
   -23.5324 -20.6280 -20.6079 -20.1934 -20.1616 -20.1552 -20.0476 -20.0079
   -19.9776 -19.9522 -19.9420 -19.8674 -19.7965 -19.7723 -19.3158 -19.2849
   -19.2801 -18.5242 -18.4317 -17.3132  -9.3512  -9.2663  -9.0346  -8.8627
    -8.8344  -8.7985  -8.7683  -8.7138  -8.6309  -8.3960  -8.3387  -8.1902
    -8.1597  -8.1421  -8.1101  -8.0861  -8.0722  -7.9371  -7.9113  -7.8859
    -7.7736  -7.6379  -7.5026  -6.9448  -6.8489  -6.7767  -6.7545  -6.6011
    -6.5665  -6.3939  -6.3081  -6.2200  -6.1478  -6.0148  -5.9824  -5.9490
    -5.8893  -5.8465  -5.8410  -5.7002  -5.6313  -5.5885  -5.4341  -4.9347
    -4.8461  -4.6152  -4.5105  -4.3976  -4.3810  -4.2138  -4.0754  -3.8523
    -3.7994  -3.5705  -3.3061  -3.1275  -2.9530  -2.9209  -2.8207  -2.7959
    -2.6674  -2.4776  -2.4513  -2.3702  -2.2050  -2.1930  -2.0963  -2.0846
    -2.0041  -1.9530  -1.5631  -1.3556  -1.3465  -1.2235  -1.1475  -1.1340
    -1.0341  -0.8334  -0.7733  -0.6490  -0.6231  -0.5559  -0.5353   0.7262
     1.7804   1.7864   1.8078   1.8649   2.1386   2.4706   2.7024   2.7290
     2.9159   3.3761   3.3976   3.6834   3.6981   4.0337   4.0670   4.1053
     4.6943   5.4697   5.4820   5.4885   5.8978   5.9007   5.9630   5.9804
     6.0752   6.1578   6.3370   6.3629   6.4448   6.6684   6.8011   6.9092
     6.9261   7.2018   7.2824   7.4644   7.5639   7.8286   7.8680   7.9940
     8.0552   8.0678   8.1792   8.3647   8.7692   8.9943   8.9983   9.1152
     9.2329   9.3119   9.4696   9.4907   9.8704   9.8878  10.0053  10.0250
    10.0771  10.0804  10.0987  10.0994  10.1267  10.2919  10.2930  10.3493
    10.3745  10.4035  10.6493  10.6815  10.8593  10.9234  10.9622  11.0172
    11.1711  11.2372  11.3973  11.4218  11.6017  11.6941  11.8024  11.9778
    12.0900  12.4129  12.4365  12.5054  12.5810  12.6093  12.6770  12.7361
    12.8374  12.8680  12.9137  12.9269  13.0596  13.1820  13.2283  13.2624
    13.2808  13.3639  13.3693  13.4086  13.4268  13.4344  13.4598  13.4744
    13.5123  13.5456  13.6084  13.6275  13.6749  13.7560  13.8062  13.8112
    13.8250  13.9134  13.9509  13.9926  14.0102  14.0499  14.1016  14.1677
    14.2099  14.2283  14.2655  14.2928  14.4148  14.5117  14.5245  14.5384
    14.5862  14.6399  14.7418  14.8294  14.8895  15.0915  15.1163  15.1226
    15.1938  15.2729  15.3205  15.3544  15.3904  15.4241  15.4341  15.5286
    15.5750  15.5892  15.8155  15.8398  15.9312  15.9623  16.0124  16.1339
    16.1726  16.2628  16.3642  16.4601  16.5759  16.6218  16.6823  16.7078
    16.7598  16.7874  16.9263  16.9950  17.0403  17.0918  17.1432  17.1780
    17.2369  17.3412  17.5598  17.5643  17.6563  17.7084  17.8201  17.8911
    18.0696  18.1806  18.3131  18.3500  18.4132  18.5811  18.6102  18.6766
    18.7148  18.8740  18.8874  18.9355  19.0255  19.1368  19.2369  19.2785
    19.3707  19.3925  19.4468  19.5401  19.6121  19.8967  19.9163  19.9969
    20.1255  20.2200  20.2346  20.3526  20.3843  20.4806  20.4865  20.5768
    20.7255  20.7520  20.7708  20.7892  20.8882  20.9095  20.9527  21.0177
    21.0351  21.1100  21.1248  21.1521  21.2048  21.2321  21.2574  21.3252
    21.4628  21.5277  21.5367  21.5975  21.6093  21.6505  21.6969  21.7441
    21.8544  21.8847  21.9458  21.9675  22.0173  22.0388  22.1166

          k =-0.2500 0.2476 0.0000 ( 31099 PWs)   bands (ev):

   -50.0899 -49.9831 -49.9774 -49.9357 -49.9264 -49.8795 -49.8545 -49.8330
   -49.8280 -49.8164 -49.8056 -49.8004 -49.6839 -49.6738 -49.5935 -49.5903
   -49.5755 -49.5640 -49.5254 -49.5145 -49.5059 -49.4696 -49.4589 -49.4311
   -23.5319 -20.9038 -20.6356 -20.6003 -20.5280 -20.1875 -20.1377 -20.1083
   -19.9861 -19.8437 -19.6834 -19.6383 -19.4838 -19.4429 -19.3628 -19.2715
   -19.1855 -18.4689 -18.2962 -17.3158 -10.0489  -9.9272  -9.6670  -9.5491
    -9.1964  -9.1492  -9.0655  -9.0209  -8.8597  -8.5511  -8.4373  -8.3976
    -8.3469  -8.1950  -8.0469  -7.8992  -7.8225  -7.7402  -7.6485  -7.3043
    -7.1966  -7.0641  -6.9729  -6.8679  -6.8175  -6.7305  -6.6386  -6.5358
    -6.3588  -6.1831  -6.0763  -5.9786  -5.9191  -5.8516  -5.7377  -5.6884
    -5.6293  -5.6127  -5.4881  -5.2906  -5.2072  -5.1602  -5.0756  -4.8621
    -4.7240  -4.5358  -4.3665  -4.2675  -4.1748  -4.1268  -3.9377  -3.8850
    -3.7372  -3.6309  -3.3806  -3.3377  -3.1621  -3.0994  -3.0706  -2.9752
    -2.9239  -2.7620  -2.7393  -2.5817  -2.5585  -2.4807  -2.4713  -2.3887
    -2.1928  -2.1654  -2.0819  -1.9530  -1.6651  -1.3852  -1.1683  -1.1414
    -0.9494  -0.9186  -0.6790  -0.5281  -0.3463  -0.2735  -0.0705   0.5348
     1.5362   1.5602   1.8175   2.1432   2.3161   2.7336   2.8675   3.0815
     3.2400   3.4100   3.4550   3.6441   3.7072   3.8878   3.9145   4.0697
     4.2643   4.4896   4.7812   5.2887   5.4270   5.8040   6.0568   6.1093
     6.2533   6.4245   6.5872   6.6565   6.7608   7.0545   7.1756   7.3146
     7.5200   7.6913   7.8606   7.9188   7.9845   8.1986   8.2930   8.3656
     8.3771   8.4866   8.7505   8.8090   8.8987   9.0928   9.1314   9.2033
     9.2455   9.4311   9.5607   9.6269   9.6993   9.7844   9.8616   9.9761
    10.0104  10.0477  10.0769  10.0812  10.0990  10.1005  10.1272  10.1479
    10.2174  10.2919  10.2937  10.3329  10.4020  10.4840  10.5356  10.5809
    10.6766  10.7273  10.8407  10.9549  10.9943  11.0655  11.1838  11.2261
    11.3201  11.3894  11.4720  11.5816  11.7239  11.7641  11.8137  11.9109
    11.9287  12.0895  12.1346  12.2246  12.3554  12.4982  12.5341  12.5456
    12.6048  12.6946  12.8157  12.8953  12.9882  13.0271  13.0967  13.2066
    13.2580  13.3071  13.3957  13.5428  13.6409  13.7270  13.7738  13.8813
    13.9241  13.9851  14.0593  14.1601  14.2108  14.2729  14.3449  14.4398
    14.4659  14.5457  14.6536  14.7535  14.8363  14.8889  15.0901  15.1162
    15.1494  15.2395  15.3919  15.4133  15.5455  15.6158  15.6632  15.6918
    15.7305  15.7953  15.8449  15.9427  15.9720  16.0387  16.0786  16.0966
    16.2197  16.2789  16.3496  16.4026  16.4836  16.5361  16.5652  16.6350
    16.7142  16.7571  16.7892  16.8572  16.9521  17.0057  17.1805  17.2440
    17.2999  17.3352  17.4038  17.4506  17.5128  17.5973  17.6409  17.6970
    17.7316  17.8305  17.8563  17.8853  17.9245  18.0118  18.0639  18.1507
    18.2275  18.3176  18.3928  18.5121  18.6059  18.6944  18.7657  18.7868
    18.8210  18.8813  19.0381  19.0524  19.1248  19.2175  19.2687  19.3751
    19.3887  19.4628  19.5631  19.6383  19.6954  19.7642  19.8185  19.8590
    19.9541  20.0069  20.1419  20.2533  20.3037  20.3745  20.4501  20.5348
    20.6415  20.6810  20.7460  20.7964  20.8101  20.8827  20.9315  21.0453
    21.1199  21.1356  21.1933  21.2509  21.2846  21.3208  21.3555  21.4406
    21.5132  21.5748  21.6744  21.6921  21.7283  21.8508  21.8679  21.9288
    21.9887  22.0252  22.0795  22.1486  22.2240  22.3089  22.4014

     the Fermi energy is    -0.7425 ev

!    total energy              =   -2137.34709882 Ry
     Harris-Foulkes estimate   =   -2137.34709883 Ry
     estimated scf accuracy    <          7.2E-09 Ry

     The total energy is the sum of the following terms:

     one-electron contribution =  -23159.31190093 Ry
     hartree contribution      =   11631.79361508 Ry
     xc contribution           =    -584.23860103 Ry
     ewald contribution        =    9972.38447091 Ry
     Hubbard energy            =       2.02528615 Ry
     smearing contrib. (-TS)   =       0.00003100 Ry

     convergence has been achieved in  15 iterations

     Forces acting on atoms (Ry/au):


     negative rho (up, down):  0.314E+01 0.000E+00
     atom    1 type  1   force =    -0.00731128   -0.01254672   -0.00001221
     atom    2 type  1   force =     0.00011826    0.00352719   -0.00050266
     atom    3 type  2   force =     0.03081596    0.00561531    0.00007814
     atom    4 type  2   force =     0.00855881    0.00724127    0.00015182
     atom    5 type  1   force =    -0.00478063   -0.02011739   -0.00024723
     atom    6 type  1   force =     0.00563311    0.01959822   -0.00008696
     atom    7 type  1   force =    -0.00043744   -0.00417309   -0.00010084
     atom    8 type  1   force =    -0.00309777    0.00075057   -0.00002597
     atom    9 type  2   force =     0.00650402    0.00069748    0.00010096
     atom   10 type  2   force =    -0.00013112    0.00036295   -0.00004289
     atom   11 type  1   force =    -0.00210195    0.02084753    0.00012503
     atom   12 type  1   force =     0.00435001   -0.01563096    0.00016407
     atom   13 type  1   force =    -0.00078521   -0.00280785   -0.00017703
     atom   14 type  1   force =    -0.00665227   -0.01263918    0.00015935
     atom   15 type  1   force =     0.00007918    0.00365923   -0.00019051
     atom   16 type  2   force =    -0.03050684    0.00548751    0.00006235
     atom   17 type  2   force =     0.00838119    0.00775766    0.00012148
     atom   18 type  1   force =    -0.00389349   -0.02078740   -0.00023870
     atom   19 type  1   force =     0.00625194    0.01905132   -0.00008829
     atom   20 type  1   force =    -0.00031686   -0.00715298    0.00044307
     atom   21 type  1   force =    -0.00318376    0.00144726   -0.00012777
     atom   22 type  2   force =    -0.00419356    0.00024626    0.00015216
     atom   23 type  2   force =    -0.00044001    0.00354965   -0.00021945
     atom   24 type  1   force =     0.00172843    0.02062309    0.00015076
     atom   25 type  1   force =    -0.00347516   -0.01576799    0.00020825
     atom   26 type  1   force =    -0.00094457   -0.00985658    0.00043252
     atom   27 type  3   force =     0.00001158    0.00037372    0.00023847
     atom   28 type  3   force =     0.00002020    0.00032561    0.00055898
     atom   29 type  3   force =    -0.00007787    0.00014528    0.00021276
     atom   30 type  3   force =    -0.00024864    0.00023160    0.00007108
     atom   31 type  1   force =    -0.00016468   -0.00042840    0.00004366
     atom   32 type  1   force =     0.00028577    0.00081452   -0.00072854
     atom   33 type  3   force =     0.00000466   -0.00044469   -0.00068584

     Total force =     0.002024     Total SCF correction =     0.000171


     entering subroutine stress ...


     negative rho (up, down):  0.314E+01 0.000E+00
          total   stress  (Ry/bohr**3)                   (kbar)     P=  -15.60
  -0.00012809   0.00000796   0.00000376        -18.84      1.17      0.55
   0.00000796  -0.00014043   0.00000453          1.17    -20.66      0.67
   0.00000376   0.00000453  -0.00004965          0.55      0.67     -7.30


     bfgs converged in   9 scf cycles and   8 bfgs steps
     (criteria: energy < 0.10E-03, force < 0.10E-02)

     End of BFGS Geometry Optimization

     Final energy   =   -2137.3470988226 Ry
Begin final coordinates

ATOMIC_POSITIONS (crystal)
O0       0.000000000   0.000000000   0.378237191    0   0   1
O0       0.000000000   0.500000000   0.402898792    0   0   1
Ir1      0.250000000   0.500000000   0.452996158    0   0   1
Ir1      0.000000000   0.000000000   0.452841833    0   0   1
O0       0.250000000   0.810000000   0.452894328    0   0   1
O0       0.250000000   0.190000000   0.452395123    0   0   1
O0       0.000000000   0.500000000   0.499003017    0   0   1
O0       0.000000000   0.000000000   0.528228871    0   0   1
Ir1      0.250000000   0.000000000   0.574811030    0   0   1
Ir1      0.000000000   0.500000000   0.571706731    0   0   1
O0       0.250000000   0.690000000   0.573730016    0   0   1
O0       0.250000000   0.310000000   0.575951089    0   0   1
O0       0.000000000   0.000000000   0.619470724    0   0   1
O0       0.500000000   0.000000000   0.378048865    0   0   1
O0       0.500000000   0.500000000   0.402704515    0   0   1
Ir1      0.750000000   0.500000000   0.452992997    0   0   1
Ir1      0.500000000   0.000000000   0.452624290    0   0   1
O0       0.750000000   0.810000000   0.452888182    0   0   1
O0       0.750000000   0.190000000   0.452412433    0   0   1
O0       0.500000000   0.500000000   0.499971608    0   0   1
O0       0.500000000   0.000000000   0.528135798    0   0   1
Ir1      0.750000000   0.000000000   0.574812128    0   0   1
Ir1      0.500000000   0.500000000   0.577081702    0   0   1
O0       0.750000000   0.690000000   0.573737717    0   0   1
O0       0.750000000   0.310000000   0.575965195    0   0   1
O0       0.500000000   0.000000000   0.619014667    0   0   1
H2      -0.000105898   0.634319963   0.384461329
H2       0.499816748   0.635615060   0.384775810
H2       0.143061142   0.036109272   0.366695853
H2       0.643624206   0.034402451   0.366576447
O0       0.499408863   0.535985508   0.649524739
O0       0.500585889   0.345815128   0.678862726
H2       0.499996414   0.407956025   0.713118097
End final coordinates



     init_run     :    124.89s CPU    128.98s WALL (       1 calls)
     electrons    :  32265.86s CPU  33149.45s WALL (       9 calls)
     update_pot   :    166.19s CPU    170.17s WALL (       8 calls)
     forces       :   1290.12s CPU   1313.80s WALL (       9 calls)
     stress       :   6937.66s CPU   7324.02s WALL (       9 calls)

     Called by init_run:
     wfcinit      :     41.39s CPU     44.18s WALL (       1 calls)
     potinit      :      7.73s CPU      8.13s WALL (       1 calls)

     Called by electrons:
     c_bands      :  16642.63s CPU  17099.35s WALL (     163 calls)
     sum_band     :   6493.05s CPU   6642.78s WALL (     163 calls)
     v_of_rho     :    181.82s CPU    191.18s WALL (     167 calls)
     newd         :   9319.66s CPU   9416.99s WALL (     167 calls)
     mix_rho      :     33.81s CPU     34.90s WALL (     163 calls)

     Called by c_bands:
     init_us_2    :     49.16s CPU     49.50s WALL (    1332 calls)
     cegterg      :  16429.98s CPU  16847.22s WALL (     489 calls)

     Called by *egterg:
     h_psi        :   9620.56s CPU   9868.66s WALL (    1328 calls)
     s_psi        :   1235.40s CPU   1249.77s WALL (    1625 calls)
     g_psi        :     20.02s CPU     20.04s WALL (     836 calls)
     cdiaghg      :   1398.34s CPU   1402.07s WALL (    1286 calls)

     Called by h_psi:
     add_vuspsi   :    971.25s CPU    983.72s WALL (    1328 calls)
     vhpsi        :    965.74s CPU    980.36s WALL (    1328 calls)

     General routines
     calbec       :   2859.78s CPU   2904.80s WALL (   12517 calls)
     fft          :    255.22s CPU    312.69s WALL (    2889 calls)
     ffts         :      3.09s CPU      3.19s WALL (     330 calls)
     fftw         :   5471.27s CPU   5731.52s WALL (  934685 calls)
     interpolate  :     28.79s CPU     29.24s WALL (     330 calls)
     davcio       :      0.13s CPU     24.65s WALL (    1575 calls)

     Parallel routines
     fft_scatter  :   2024.37s CPU   2330.42s WALL (  937904 calls)
     Hubbard U routines
     new_ns       :    213.08s CPU    223.64s WALL (     163 calls)
     vhpsi        :    965.74s CPU    980.36s WALL (    1328 calls)
     force_hub    :    363.19s CPU    374.52s WALL (       9 calls)
     stres_hub    :   3448.81s CPU   3505.64s WALL (       9 calls)

     PWSCF        :    11h28m CPU       11h51m WALL


   This run was terminated on:  12:23: 7  30May2014            

=------------------------------------------------------------------------------=
   JOB DONE.
=------------------------------------------------------------------------------=
