
     Program PWSCF v.5.0.2 (svn rev. 9656) starts on 15May2014 at 14:12:28 

     This program is part of the open-source Quantum ESPRESSO suite
     for quantum simulation of materials; please cite
         "P. Giannozzi et al., J. Phys.:Condens. Matter 21 395502 (2009);
          URL http://www.quantum-espresso.org", 
     in publications or presentations arising from this work. More details at
     http://www.quantum-espresso.org/quote.php

     Parallel version (MPI), running on    16 processors
     K-points division:     npool     =       4
     R & G space division:  proc/nbgrp/npool/nimage =       4

     Current dimensions of program PWSCF are:
     Max number of different atomic species (ntypx) = 10
     Max number of k-points (npk) =  40000
     Max angular momentum in pseudopotentials (lmaxx) =  3
     Reading input from pwscf.in
Warning: card &CELL ignored
Warning: card / ignored

     Subspace diagonalization in iterative solution of the eigenvalue problem:
     a serial algorithm will be used


     Parallelization info
     --------------------
     sticks:   dense  smooth     PW     G-vecs:    dense   smooth      PW
     Min        1333     428    119               322637    58444    8739
     Max        1334     429    120               322642    58462    8748
     Sum        5335    1713    477              1290557   233813   34969



     bravais-lattice index     =            0
     lattice parameter (alat)  =      10.1289  a.u.
     unit-cell volume          =    6836.7721 (a.u.)^3
     number of atoms/cell      =           30
     number of atomic types    =            3
     number of electrons       =       232.00
     number of Kohn-Sham states=          348
     kinetic-energy cutoff     =      40.0000  Ry
     charge density cutoff     =     500.0000  Ry
     convergence threshold     =      1.0E-06
     mixing beta               =       0.7000
     number of iterations used =            8  plain     mixing
     Exchange-correlation      = SLA  PW   PBE  PBE ( 1 4 3 4 0)
     EXX-fraction              =        0.00
     nstep                     =           50


     celldm(1)=  10.128932  celldm(2)=   0.000000  celldm(3)=   0.000000
     celldm(4)=   0.000000  celldm(5)=   0.000000  celldm(6)=   0.000000

     crystal axes: (cart. coord. in units of alat)
               a(1) = (   1.000000   0.000000   0.000000 )  
               a(2) = (   0.000000   1.306037   0.000000 )  
               a(3) = (   0.000000   0.000000   5.037380 )  

     reciprocal axes: (cart. coord. in units 2 pi/alat)
               b(1) = (  1.000000  0.000000  0.000000 )  
               b(2) = (  0.000000  0.765675  0.000000 )  
               b(3) = (  0.000000  0.000000  0.198516 )  


     PseudoPot. # 1 for O  read from file:
     /home/camp/zhonxu/pseudo/o_pbe_v1.01.uspp.F.UPF
     MD5 check sum: 2bcb18d16ea4b960afae9ec6d52f22d2
     Pseudo is Ultrasoft + core correction, Zval =  6.0
     Generated by new atomic code, or converted to UPF format
     Using radial grid of  737 points,  5 beta functions with: 
                l(1) =   0
                l(2) =   0
                l(3) =   1
                l(4) =   1
                l(5) =   2
     Q(r) pseudized with  8 coefficients,  rinner =    0.900   0.900   0.900
                                                       0.900   0.900

     PseudoPot. # 2 for Re read from file:
     /home/camp/zhonxu/pseudo/re_pbe_v1.uspp.F.UPF
     MD5 check sum: 6f5a5dcaf9c96c20d0ffdde0de57afc6
     Pseudo is Ultrasoft + core correction, Zval = 15.0
     Generated by new atomic code, or converted to UPF format
     Using radial grid of  981 points,  8 beta functions with: 
                l(1) =   0
                l(2) =   0
                l(3) =   1
                l(4) =   1
                l(5) =   2
                l(6) =   2
                l(7) =   3
                l(8) =   3
     Q(r) pseudized with  8 coefficients,  rinner =    1.000   1.000   1.000
                                                       1.000   1.000   1.000
                                                       1.000

     PseudoPot. # 3 for H  read from file:
     /home/camp/zhonxu/pseudo/h_pbe_v1.uspp.F.UPF
     MD5 check sum: 3408e3ff4ec8b0a4e358431e7e038a48
     Pseudo is Ultrasoft, Zval =  1.0
     Generated by new atomic code, or converted to UPF format
     Using radial grid of  615 points,  2 beta functions with: 
                l(1) =   0
                l(2) =   0
     Q(r) pseudized with  8 coefficients,  rinner =    0.700

     atomic species   valence    mass     pseudopotential
        O0             6.00    15.99940     O ( 1.00)
        Re1           15.00   186.20700     Re( 1.00)
        H2             1.00     1.00794     H ( 1.00)


     Simplified LDA+U calculation (l_max = 2) with parameters (eV):
     atomic species    L          U    alpha       J0     beta
        Re1            2     0.0000   0.0000   0.0000   0.0000



     No symmetry found



   Cartesian axes

     site n.     atom                  positions (alat units)
         1           O0  tau(   1) = (   0.0000000   0.0000000   1.8688176  )
         2           O0  tau(   2) = (   0.0000000   0.6530184   1.9243296  )
         3           Re1 tau(   3) = (   0.2500000   0.6530184   2.2228951  )
         4           Re1 tau(   4) = (   0.0000000   0.0000000   2.2352367  )
         5           O0  tau(   5) = (   0.2500000   1.0187087   2.2249100  )
         6           O0  tau(   6) = (   0.2500000   0.2873281   2.2250611  )
         7           O0  tau(   7) = (   0.0000000   0.6530184   2.5071041  )
         8           O0  tau(   8) = (   0.0000000   0.0000000   2.5966183  )
         9           Re1 tau(   9) = (   0.2500000   0.0000000   2.8989619  )
        10           Re1 tau(  10) = (   0.0000000   0.6530184   2.8608793  )
        11           O0  tau(  11) = (   0.2500000   0.9403465   2.8908013  )
        12           O0  tau(  12) = (   0.2500000   0.3656903   2.8907005  )
        13           O0  tau(  13) = (   0.0000000   0.0000000   3.1620138  )
        14           O0  tau(  14) = (   0.5000000   0.0000000   1.8688176  )
        15           O0  tau(  15) = (   0.5000000   0.6530184   1.9243296  )
        16           Re1 tau(  16) = (   0.7500000   0.6530184   2.2228951  )
        17           Re1 tau(  17) = (   0.5000000   0.0000000   2.2352367  )
        18           O0  tau(  18) = (   0.7500000   1.0187087   2.2249604  )
        19           O0  tau(  19) = (   0.7500000   0.2873281   2.2250611  )
        20           O0  tau(  20) = (   0.5000000   0.6530184   2.5071041  )
        21           O0  tau(  21) = (   0.5000000   0.0000000   2.5966183  )
        22           Re1 tau(  22) = (   0.7500000   0.0000000   2.8989619  )
        23           Re1 tau(  23) = (   0.5000000   0.6530184   2.8609296  )
        24           O0  tau(  24) = (   0.7500000   0.9403465   2.8908013  )
        25           O0  tau(  25) = (   0.7500000   0.3656903   2.8907005  )
        26           O0  tau(  26) = (   0.5000000   0.0000000   3.1620138  )
        27           H2  tau(  27) = (  -0.0003800   0.8172395   1.8403061  )
        28           H2  tau(  28) = (   0.4996200   0.8172395   1.8403061  )
        29           H2  tau(  29) = (   0.1698700   0.0284977   1.7974380  )
        30           H2  tau(  30) = (   0.6698800   0.0284977   1.7974380  )

     number of k points=    10  Methfessel-Paxton smearing, width (Ry)=  0.0100
                       cart. coord. in units 2pi/alat
        k(    1) = (   0.0000000   0.0000000   0.0000000), wk =   0.1250000
        k(    2) = (   0.0000000   0.1914188   0.0000000), wk =   0.2500000
        k(    3) = (   0.0000000  -0.3828376   0.0000000), wk =   0.1250000
        k(    4) = (   0.2500000   0.0000000   0.0000000), wk =   0.2500000
        k(    5) = (   0.2500000   0.1914188   0.0000000), wk =   0.2500000
        k(    6) = (   0.2500000  -0.3828376   0.0000000), wk =   0.2500000
        k(    7) = (  -0.5000000   0.0000000   0.0000000), wk =   0.1250000
        k(    8) = (  -0.5000000   0.1914188   0.0000000), wk =   0.2500000
        k(    9) = (  -0.5000000  -0.3828376   0.0000000), wk =   0.1250000
        k(   10) = (  -0.2500000   0.1914188   0.0000000), wk =   0.2500000

     Dense  grid:  1290557 G-vectors     FFT dimensions: (  75,  96, 375)

     Smooth grid:   233813 G-vectors     FFT dimensions: (  45,  54, 216)

     Largest allocated arrays     est. size (Mb)     dimensions
        Kohn-Sham Wavefunctions        39.11 Mb     (   7365,  348)
        Atomic wavefunctions           20.23 Mb     (   7365,  180)
        NL pseudopotentials            55.97 Mb     (   7365,  498)
        Each V/rho on FFT grid         10.33 Mb     ( 676800)
        Each G-vector array             2.46 Mb     ( 322642)
        G-vector shells                 1.07 Mb     ( 139625)
     Largest temporary arrays     est. size (Mb)     dimensions
        Auxiliary wavefunctions       156.43 Mb     (   7365, 1392)
        Each subspace H/S matrix       29.57 Mb     (1392,1392)
        Each <psi_i|beta_j> matrix      2.64 Mb     (    498,  348)
        Arrays for rho mixing          82.62 Mb     ( 676800,   8)

     Check: negative/imaginary core charge=   -0.000003    0.000000

     Initial potential from superposition of free atoms
     Check: negative starting charge=   -0.237311

     starting charge  227.99958, renormalised to  232.00000

     negative rho (up, down):  0.241E+00 0.000E+00
     Number of +U iterations with fixed ns =  0
     Starting occupations:
 --- enter write_ns ---
 LDA+U parameters:
U( 2)     =  0.00000000
alpha( 2) =  0.00000000
atom    3   Tr[ns(na)] =   5.00000
    eigenvalues: 
  0.500  0.500  0.500  0.500  0.500
    eigenvectors:
  1.000  0.000  0.000  0.000  0.000
  0.000  1.000  0.000  0.000  0.000
  0.000  0.000  1.000  0.000  0.000
  0.000  0.000  0.000  1.000  0.000
  0.000  0.000  0.000  0.000  1.000
    occupations:
  0.500  0.000  0.000  0.000  0.000
  0.000  0.500  0.000  0.000  0.000
  0.000  0.000  0.500  0.000  0.000
  0.000  0.000  0.000  0.500  0.000
  0.000  0.000  0.000  0.000  0.500
atom    4   Tr[ns(na)] =   5.00000
    eigenvalues: 
  0.500  0.500  0.500  0.500  0.500
    eigenvectors:
  1.000  0.000  0.000  0.000  0.000
  0.000  1.000  0.000  0.000  0.000
  0.000  0.000  1.000  0.000  0.000
  0.000  0.000  0.000  1.000  0.000
  0.000  0.000  0.000  0.000  1.000
    occupations:
  0.500  0.000  0.000  0.000  0.000
  0.000  0.500  0.000  0.000  0.000
  0.000  0.000  0.500  0.000  0.000
  0.000  0.000  0.000  0.500  0.000
  0.000  0.000  0.000  0.000  0.500
atom    9   Tr[ns(na)] =   5.00000
    eigenvalues: 
  0.500  0.500  0.500  0.500  0.500
    eigenvectors:
  1.000  0.000  0.000  0.000  0.000
  0.000  1.000  0.000  0.000  0.000
  0.000  0.000  1.000  0.000  0.000
  0.000  0.000  0.000  1.000  0.000
  0.000  0.000  0.000  0.000  1.000
    occupations:
  0.500  0.000  0.000  0.000  0.000
  0.000  0.500  0.000  0.000  0.000
  0.000  0.000  0.500  0.000  0.000
  0.000  0.000  0.000  0.500  0.000
  0.000  0.000  0.000  0.000  0.500
atom   10   Tr[ns(na)] =   5.00000
    eigenvalues: 
  0.500  0.500  0.500  0.500  0.500
    eigenvectors:
  1.000  0.000  0.000  0.000  0.000
  0.000  1.000  0.000  0.000  0.000
  0.000  0.000  1.000  0.000  0.000
  0.000  0.000  0.000  1.000  0.000
  0.000  0.000  0.000  0.000  1.000
    occupations:
  0.500  0.000  0.000  0.000  0.000
  0.000  0.500  0.000  0.000  0.000
  0.000  0.000  0.500  0.000  0.000
  0.000  0.000  0.000  0.500  0.000
  0.000  0.000  0.000  0.000  0.500
atom   16   Tr[ns(na)] =   5.00000
    eigenvalues: 
  0.500  0.500  0.500  0.500  0.500
    eigenvectors:
  1.000  0.000  0.000  0.000  0.000
  0.000  1.000  0.000  0.000  0.000
  0.000  0.000  1.000  0.000  0.000
  0.000  0.000  0.000  1.000  0.000
  0.000  0.000  0.000  0.000  1.000
    occupations:
  0.500  0.000  0.000  0.000  0.000
  0.000  0.500  0.000  0.000  0.000
  0.000  0.000  0.500  0.000  0.000
  0.000  0.000  0.000  0.500  0.000
  0.000  0.000  0.000  0.000  0.500
atom   17   Tr[ns(na)] =   5.00000
    eigenvalues: 
  0.500  0.500  0.500  0.500  0.500
    eigenvectors:
  1.000  0.000  0.000  0.000  0.000
  0.000  1.000  0.000  0.000  0.000
  0.000  0.000  1.000  0.000  0.000
  0.000  0.000  0.000  1.000  0.000
  0.000  0.000  0.000  0.000  1.000
    occupations:
  0.500  0.000  0.000  0.000  0.000
  0.000  0.500  0.000  0.000  0.000
  0.000  0.000  0.500  0.000  0.000
  0.000  0.000  0.000  0.500  0.000
  0.000  0.000  0.000  0.000  0.500
atom   22   Tr[ns(na)] =   5.00000
    eigenvalues: 
  0.500  0.500  0.500  0.500  0.500
    eigenvectors:
  1.000  0.000  0.000  0.000  0.000
  0.000  1.000  0.000  0.000  0.000
  0.000  0.000  1.000  0.000  0.000
  0.000  0.000  0.000  1.000  0.000
  0.000  0.000  0.000  0.000  1.000
    occupations:
  0.500  0.000  0.000  0.000  0.000
  0.000  0.500  0.000  0.000  0.000
  0.000  0.000  0.500  0.000  0.000
  0.000  0.000  0.000  0.500  0.000
  0.000  0.000  0.000  0.000  0.500
atom   23   Tr[ns(na)] =   5.00000
    eigenvalues: 
  0.500  0.500  0.500  0.500  0.500
    eigenvectors:
  1.000  0.000  0.000  0.000  0.000
  0.000  1.000  0.000  0.000  0.000
  0.000  0.000  1.000  0.000  0.000
  0.000  0.000  0.000  1.000  0.000
  0.000  0.000  0.000  0.000  1.000
    occupations:
  0.500  0.000  0.000  0.000  0.000
  0.000  0.500  0.000  0.000  0.000
  0.000  0.000  0.500  0.000  0.000
  0.000  0.000  0.000  0.500  0.000
  0.000  0.000  0.000  0.000  0.500
N of occupied +U levels =  40.0000000
 --- exit write_ns ---
 Atomic wfc used for LDA+U Projector are NOT orthogonalized
     Starting wfc are  180 randomized atomic wfcs

     total cpu time spent up to now is      140.5 secs

     per-process dynamical memory:   413.0 Mb

     Self-consistent Calculation

     iteration #  1     ecut=    40.00 Ry     beta=0.70
     Davidson diagonalization with overlap
     ethr =  1.00E-02,  avg # of iterations =  5.7
 --- enter write_ns ---
 LDA+U parameters:
U( 2)     =  0.00000000
alpha( 2) =  0.00000000
atom    3   Tr[ns(na)] =   4.93051
    eigenvalues: 
  0.345  0.457  0.493  0.503  0.668
    eigenvectors:
  0.003  0.000  0.502  0.000  0.495
  0.000  0.996  0.000  0.004  0.000
  0.997  0.000  0.001  0.000  0.002
  0.000  0.000  0.497  0.000  0.503
  0.000  0.004  0.000  0.996  0.000
    occupations:
  0.579  0.000  0.013 -0.087  0.000
  0.000  0.457 -0.000 -0.000  0.003
  0.013 -0.000  0.345 -0.006 -0.000
 -0.087 -0.000 -0.006  0.581 -0.000
  0.000  0.003 -0.000 -0.000  0.503
atom    4   Tr[ns(na)] =   5.01473
    eigenvalues: 
  0.334  0.453  0.508  0.521  0.692
    eigenvectors:
  0.000  0.000  0.806  0.150  0.044
  0.000  0.000  0.158  0.842  0.000
  1.000  0.000  0.000  0.000  0.000
  0.000  0.000  0.036  0.008  0.956
  0.000  1.000  0.000  0.000  0.000
    occupations:
  0.518  0.005  0.002 -0.037  0.000
  0.005  0.519  0.000 -0.000 -0.000
  0.002  0.000  0.334 -0.001  0.000
 -0.037 -0.000 -0.001  0.684  0.000
  0.000 -0.000  0.000  0.000  0.453
atom    9   Tr[ns(na)] =   6.36076
    eigenvalues: 
  0.506  0.507  0.632  0.741  0.794
    eigenvectors:
  0.028  0.341  0.000  0.631  0.000
  0.924  0.076  0.000  0.000  0.000
  0.000  0.000  1.000  0.000  0.000
  0.048  0.584  0.000  0.369  0.000
  0.000  0.000  0.000  0.000  1.000
    occupations:
  0.654  0.000 -0.000 -0.113  0.000
  0.000  0.506 -0.000  0.000 -0.000
 -0.000 -0.000  0.632  0.000 -0.000
 -0.113  0.000  0.000  0.593 -0.000
  0.000 -0.000 -0.000 -0.000  0.794
atom   10   Tr[ns(na)] =   6.64020
    eigenvalues: 
  0.476  0.478  0.732  0.806  0.828
    eigenvectors:
  0.000  0.977  0.023  0.000  0.000
  0.000  0.000  0.000  1.000  0.000
  0.000  0.000  0.000  0.000  1.000
  0.000  0.023  0.977  0.000  0.000
  1.000  0.000  0.000  0.000  0.000
    occupations:
  0.484 -0.000  0.000 -0.038  0.000
 -0.000  0.806  0.000  0.000 -0.000
  0.000  0.000  0.828 -0.000  0.000
 -0.038  0.000 -0.000  0.726  0.000
  0.000 -0.000  0.000  0.000  0.476
atom   16   Tr[ns(na)] =   4.93049
    eigenvalues: 
  0.345  0.457  0.493  0.503  0.668
    eigenvectors:
  0.003  0.000  0.502  0.000  0.495
  0.000  0.996  0.000  0.004  0.000
  0.997  0.000  0.001  0.000  0.002
  0.000  0.000  0.497  0.000  0.503
  0.000  0.004  0.000  0.996  0.000
    occupations:
  0.579  0.000  0.013 -0.087  0.000
  0.000  0.457 -0.000  0.000  0.003
  0.013 -0.000  0.345 -0.006 -0.000
 -0.087  0.000 -0.006  0.581 -0.000
  0.000  0.003 -0.000 -0.000  0.503
atom   17   Tr[ns(na)] =   5.01478
    eigenvalues: 
  0.334  0.453  0.508  0.521  0.692
    eigenvectors:
  0.000  0.000  0.806  0.150  0.044
  0.000  0.000  0.158  0.842  0.000
  1.000  0.000  0.000  0.000  0.000
  0.000  0.000  0.036  0.008  0.956
  0.000  1.000  0.000  0.000  0.000
    occupations:
  0.518  0.005  0.002 -0.037  0.000
  0.005  0.519  0.001 -0.000 -0.000
  0.002  0.001  0.334 -0.001  0.000
 -0.037 -0.000 -0.001  0.684  0.000
  0.000 -0.000  0.000  0.000  0.453
atom   22   Tr[ns(na)] =   6.36076
    eigenvalues: 
  0.506  0.507  0.632  0.741  0.794
    eigenvectors:
  0.028  0.340  0.000  0.631  0.000
  0.924  0.076  0.000  0.000  0.000
  0.000  0.000  1.000  0.000  0.000
  0.048  0.583  0.000  0.369  0.000
  0.000  0.000  0.000  0.000  1.000
    occupations:
  0.654  0.000 -0.000 -0.113  0.000
  0.000  0.506 -0.000  0.000 -0.000
 -0.000 -0.000  0.632  0.000  0.000
 -0.113  0.000  0.000  0.593 -0.000
  0.000 -0.000  0.000 -0.000  0.794
atom   23   Tr[ns(na)] =   6.64060
    eigenvalues: 
  0.476  0.478  0.732  0.806  0.828
    eigenvectors:
  0.000  0.977  0.023  0.000  0.000
  0.000  0.000  0.000  1.000  0.000
  0.000  0.000  0.000  0.000  1.000
  0.000  0.023  0.977  0.000  0.000
  1.000  0.000  0.000  0.000  0.000
    occupations:
  0.484 -0.000  0.000 -0.038  0.000
 -0.000  0.806  0.000  0.000 -0.000
  0.000  0.000  0.828 -0.000  0.000
 -0.038  0.000 -0.000  0.726  0.000
  0.000 -0.000  0.000  0.000  0.476
N of occupied +U levels =  45.8928358
 --- exit write_ns ---

     negative rho (up, down):  0.283E+00 0.000E+00

     total cpu time spent up to now is      517.1 secs

     total energy              =   -2131.32476274 Ry
     Harris-Foulkes estimate   =   -2144.81559339 Ry
     estimated scf accuracy    <      15.76369147 Ry

     iteration #  2     ecut=    40.00 Ry     beta=0.70
     Davidson diagonalization with overlap
     ethr =  6.79E-03,  avg # of iterations =  5.1

     negative rho (up, down):  0.280E+00 0.000E+00

     total cpu time spent up to now is      877.4 secs

     total energy              =   -2045.46941542 Ry
     Harris-Foulkes estimate   =   -2272.75106964 Ry
     estimated scf accuracy    <    2835.71090094 Ry

     iteration #  3     ecut=    40.00 Ry     beta=0.70
     Davidson diagonalization with overlap
     ethr =  6.79E-03,  avg # of iterations =  6.1

     negative rho (up, down):  0.246E+00 0.000E+00

     total cpu time spent up to now is     1237.7 secs

     total energy              =   -2132.68616200 Ry
     Harris-Foulkes estimate   =   -2152.42012027 Ry
     estimated scf accuracy    <     116.84318948 Ry

     iteration #  4     ecut=    40.00 Ry     beta=0.70
     Davidson diagonalization with overlap
     ethr =  6.79E-03,  avg # of iterations =  3.4

     negative rho (up, down):  0.233E+00 0.000E+00

     total cpu time spent up to now is     1469.3 secs

     total energy              =   -2141.61045358 Ry
     Harris-Foulkes estimate   =   -2144.37669438 Ry
     estimated scf accuracy    <      16.45709509 Ry

     iteration #  5     ecut=    40.00 Ry     beta=0.70
     Davidson diagonalization with overlap
     ethr =  6.79E-03,  avg # of iterations =  1.0

     negative rho (up, down):  0.235E+00 0.000E+00

     total cpu time spent up to now is     1679.1 secs

     total energy              =   -2143.11240929 Ry
     Harris-Foulkes estimate   =   -2143.39559268 Ry
     estimated scf accuracy    <       4.39394983 Ry

     iteration #  6     ecut=    40.00 Ry     beta=0.70
     Davidson diagonalization with overlap
     ethr =  1.89E-03,  avg # of iterations =  2.4

     negative rho (up, down):  0.236E+00 0.000E+00

     total cpu time spent up to now is     1894.8 secs

     total energy              =   -2143.12981540 Ry
     Harris-Foulkes estimate   =   -2143.19465802 Ry
     estimated scf accuracy    <       1.13629101 Ry

     iteration #  7     ecut=    40.00 Ry     beta=0.70
     Davidson diagonalization with overlap
     ethr =  4.90E-04,  avg # of iterations =  5.1

     negative rho (up, down):  0.237E+00 0.000E+00

     total cpu time spent up to now is     2132.4 secs

     total energy              =   -2143.06793895 Ry
     Harris-Foulkes estimate   =   -2143.17490443 Ry
     estimated scf accuracy    <       0.97657102 Ry

     iteration #  8     ecut=    40.00 Ry     beta=0.70
     Davidson diagonalization with overlap
     ethr =  4.21E-04,  avg # of iterations =  1.9

     negative rho (up, down):  0.238E+00 0.000E+00

     total cpu time spent up to now is     2346.9 secs

     total energy              =   -2143.07964864 Ry
     Harris-Foulkes estimate   =   -2143.17429040 Ry
     estimated scf accuracy    <       2.31113804 Ry

     iteration #  9     ecut=    40.00 Ry     beta=0.70
     Davidson diagonalization with overlap
     ethr =  4.21E-04,  avg # of iterations =  1.0

     negative rho (up, down):  0.241E+00 0.000E+00

     total cpu time spent up to now is     2566.8 secs

     total energy              =   -2143.03716214 Ry
     Harris-Foulkes estimate   =   -2143.13769709 Ry
     estimated scf accuracy    <       1.06582214 Ry

     iteration # 10     ecut=    40.00 Ry     beta=0.70
     Davidson diagonalization with overlap
     ethr =  4.21E-04,  avg # of iterations =  3.2

     negative rho (up, down):  0.242E+00 0.000E+00

     total cpu time spent up to now is     2799.6 secs

     total energy              =   -2143.04090655 Ry
     Harris-Foulkes estimate   =   -2143.07756647 Ry
     estimated scf accuracy    <       0.31876065 Ry

     iteration # 11     ecut=    40.00 Ry     beta=0.70
     Davidson diagonalization with overlap
     ethr =  1.37E-04,  avg # of iterations =  6.2

     negative rho (up, down):  0.244E+00 0.000E+00

     total cpu time spent up to now is     3051.5 secs

     total energy              =   -2143.04577890 Ry
     Harris-Foulkes estimate   =   -2143.05648478 Ry
     estimated scf accuracy    <       0.07252728 Ry

     iteration # 12     ecut=    40.00 Ry     beta=0.70
     Davidson diagonalization with overlap
     ethr =  3.13E-05,  avg # of iterations =  4.9

     negative rho (up, down):  0.242E+00 0.000E+00

     total cpu time spent up to now is     3307.7 secs

     total energy              =   -2143.04688378 Ry
     Harris-Foulkes estimate   =   -2143.05282463 Ry
     estimated scf accuracy    <       0.02655873 Ry

     iteration # 13     ecut=    40.00 Ry     beta=0.70
     Davidson diagonalization with overlap
     ethr =  1.14E-05,  avg # of iterations =  5.1

     negative rho (up, down):  0.243E+00 0.000E+00

     total cpu time spent up to now is     3557.6 secs

     total energy              =   -2143.04789243 Ry
     Harris-Foulkes estimate   =   -2143.05366812 Ry
     estimated scf accuracy    <       0.01806160 Ry

     iteration # 14     ecut=    40.00 Ry     beta=0.70
     Davidson diagonalization with overlap
     ethr =  7.79E-06,  avg # of iterations =  4.6

     negative rho (up, down):  0.243E+00 0.000E+00

     total cpu time spent up to now is     3809.0 secs

     total energy              =   -2143.04994657 Ry
     Harris-Foulkes estimate   =   -2143.05156780 Ry
     estimated scf accuracy    <       0.01188221 Ry

     iteration # 15     ecut=    40.00 Ry     beta=0.70
     Davidson diagonalization with overlap
     ethr =  5.12E-06,  avg # of iterations =  1.0

     negative rho (up, down):  0.243E+00 0.000E+00

     total cpu time spent up to now is     4037.6 secs

     total energy              =   -2143.04999861 Ry
     Harris-Foulkes estimate   =   -2143.05154066 Ry
     estimated scf accuracy    <       0.01502283 Ry

     iteration # 16     ecut=    40.00 Ry     beta=0.70
     Davidson diagonalization with overlap
     ethr =  5.12E-06,  avg # of iterations =  1.0

     negative rho (up, down):  0.243E+00 0.000E+00

     total cpu time spent up to now is     4265.1 secs

     total energy              =   -2143.05077048 Ry
     Harris-Foulkes estimate   =   -2143.05084907 Ry
     estimated scf accuracy    <       0.00050713 Ry

     iteration # 17     ecut=    40.00 Ry     beta=0.70
     Davidson diagonalization with overlap
     ethr =  2.19E-07,  avg # of iterations =  1.3

     negative rho (up, down):  0.243E+00 0.000E+00

     total cpu time spent up to now is     4489.2 secs

     total energy              =   -2143.05076075 Ry
     Harris-Foulkes estimate   =   -2143.05086753 Ry
     estimated scf accuracy    <       0.00121973 Ry

     iteration # 18     ecut=    40.00 Ry     beta=0.70
     Davidson diagonalization with overlap
     ethr =  2.19E-07,  avg # of iterations =  1.0

     negative rho (up, down):  0.243E+00 0.000E+00

     total cpu time spent up to now is     4710.0 secs

     total energy              =   -2143.05080580 Ry
     Harris-Foulkes estimate   =   -2143.05083646 Ry
     estimated scf accuracy    <       0.00022091 Ry

     iteration # 19     ecut=    40.00 Ry     beta=0.70
     Davidson diagonalization with overlap
     ethr =  9.52E-08,  avg # of iterations =  1.0

     negative rho (up, down):  0.243E+00 0.000E+00

     total cpu time spent up to now is     4937.3 secs

     total energy              =   -2143.05081750 Ry
     Harris-Foulkes estimate   =   -2143.05082550 Ry
     estimated scf accuracy    <       0.00004172 Ry

     iteration # 20     ecut=    40.00 Ry     beta=0.70
     Davidson diagonalization with overlap
     ethr =  1.80E-08,  avg # of iterations =  1.0

     negative rho (up, down):  0.243E+00 0.000E+00

     total cpu time spent up to now is     5157.5 secs

     total energy              =   -2143.05082068 Ry
     Harris-Foulkes estimate   =   -2143.05082376 Ry
     estimated scf accuracy    <       0.00001826 Ry

     iteration # 21     ecut=    40.00 Ry     beta=0.70
     Davidson diagonalization with overlap
     ethr =  7.87E-09,  avg # of iterations =  1.0

     negative rho (up, down):  0.243E+00 0.000E+00

     total cpu time spent up to now is     5381.4 secs

     total energy              =   -2143.05082169 Ry
     Harris-Foulkes estimate   =   -2143.05082316 Ry
     estimated scf accuracy    <       0.00000696 Ry

     iteration # 22     ecut=    40.00 Ry     beta=0.70
     Davidson diagonalization with overlap
     ethr =  3.00E-09,  avg # of iterations =  1.0

     negative rho (up, down):  0.243E+00 0.000E+00

     total cpu time spent up to now is     5605.3 secs

     total energy              =   -2143.05082219 Ry
     Harris-Foulkes estimate   =   -2143.05082270 Ry
     estimated scf accuracy    <       0.00000590 Ry

     iteration # 23     ecut=    40.00 Ry     beta=0.70
     Davidson diagonalization with overlap
     ethr =  2.54E-09,  avg # of iterations =  1.0

     negative rho (up, down):  0.243E+00 0.000E+00

     total cpu time spent up to now is     5844.8 secs

     End of self-consistent calculation
 --- enter write_ns ---
 LDA+U parameters:
U( 2)     =  0.00000000
alpha( 2) =  0.00000000
atom    3   Tr[ns(na)] =   6.52760
    eigenvalues: 
  0.535  0.570  0.661  0.743  0.754
    eigenvectors:
  0.000  0.398  0.008  0.594  0.000
  0.999  0.000  0.000  0.000  0.001
  0.000  0.000  0.986  0.014  0.000
  0.000  0.602  0.007  0.391  0.000
  0.001  0.000  0.000  0.000  0.999
    occupations:
  0.673  0.000  0.008 -0.084 -0.000
  0.000  0.535  0.000 -0.000 -0.008
  0.008  0.000  0.663 -0.006  0.000
 -0.084 -0.000 -0.006  0.638  0.000
 -0.000 -0.008  0.000  0.000  0.754
atom    4   Tr[ns(na)] =   6.48032
    eigenvalues: 
  0.564  0.601  0.619  0.689  0.767
    eigenvectors:
  0.000  0.981  0.000  0.001  0.018
  0.000  0.001  0.004  0.995  0.000
  0.000  0.000  0.996  0.004  0.000
  0.000  0.018  0.000  0.000  0.982
  1.000  0.000  0.000  0.000  0.000
    occupations:
  0.604  0.002  0.000 -0.022  0.000
  0.002  0.689  0.004 -0.000 -0.001
  0.000  0.004  0.619  0.001 -0.000
 -0.022 -0.000  0.001  0.764 -0.000
  0.000 -0.001 -0.000 -0.000  0.564
atom    9   Tr[ns(na)] =   6.48855
    eigenvalues: 
  0.590  0.602  0.623  0.697  0.732
    eigenvectors:
  0.273  0.000  0.000  0.001  0.726
  0.000  1.000  0.000  0.000  0.000
  0.000  0.000  1.000  0.000  0.000
  0.727  0.000  0.000  0.000  0.273
  0.000  0.000  0.000  0.999  0.001
    occupations:
  0.693  0.000 -0.001 -0.063  0.001
  0.000  0.602  0.000  0.000 -0.000
 -0.001  0.000  0.623  0.000 -0.000
 -0.063  0.000  0.000  0.628 -0.001
  0.001 -0.000 -0.000 -0.001  0.697
atom   10   Tr[ns(na)] =   6.47929
    eigenvalues: 
  0.498  0.542  0.694  0.749  0.756
    eigenvectors:
  0.994  0.000  0.000  0.006  0.000
  0.000  0.000  0.000  0.000  1.000
  0.000  0.000  1.000  0.000  0.000
  0.006  0.000  0.000  0.994  0.000
  0.000  1.000  0.000  0.000  0.000
    occupations:
  0.500  0.000  0.001 -0.020 -0.000
  0.000  0.756  0.000 -0.000  0.001
  0.001  0.000  0.694  0.000  0.000
 -0.020 -0.000  0.000  0.748 -0.000
 -0.000  0.001  0.000 -0.000  0.542
atom   16   Tr[ns(na)] =   6.52758
    eigenvalues: 
  0.535  0.570  0.661  0.743  0.754
    eigenvectors:
  0.000  0.398  0.008  0.594  0.000
  0.999  0.000  0.000  0.000  0.001
  0.000  0.000  0.986  0.014  0.000
  0.000  0.602  0.007  0.391  0.000
  0.001  0.000  0.000  0.000  0.999
    occupations:
  0.673  0.000  0.008 -0.084 -0.000
  0.000  0.535  0.000 -0.000 -0.008
  0.008  0.000  0.663 -0.006  0.000
 -0.084 -0.000 -0.006  0.638  0.000
 -0.000 -0.008  0.000  0.000  0.754
atom   17   Tr[ns(na)] =   6.48106
    eigenvalues: 
  0.564  0.601  0.619  0.690  0.767
    eigenvectors:
  0.000  0.981  0.000  0.001  0.018
  0.000  0.001  0.004  0.995  0.000
  0.000  0.000  0.996  0.004  0.000
  0.000  0.018  0.000  0.000  0.982
  1.000  0.000  0.000  0.000  0.000
    occupations:
  0.604  0.002  0.000 -0.022  0.000
  0.002  0.689  0.004 -0.000 -0.001
  0.000  0.004  0.619  0.001 -0.000
 -0.022 -0.000  0.001  0.764 -0.000
  0.000 -0.001 -0.000 -0.000  0.564
atom   22   Tr[ns(na)] =   6.48838
    eigenvalues: 
  0.590  0.602  0.623  0.697  0.732
    eigenvectors:
  0.273  0.000  0.000  0.001  0.726
  0.000  1.000  0.000  0.000  0.000
  0.000  0.000  1.000  0.000  0.000
  0.727  0.000  0.000  0.000  0.273
  0.000  0.000  0.000  0.999  0.001
    occupations:
  0.693  0.000 -0.001 -0.063  0.001
  0.000  0.602  0.000  0.000 -0.000
 -0.001  0.000  0.623  0.000  0.000
 -0.063  0.000  0.000  0.628 -0.001
  0.001 -0.000  0.000 -0.001  0.697
atom   23   Tr[ns(na)] =   6.47935
    eigenvalues: 
  0.498  0.542  0.694  0.749  0.756
    eigenvectors:
  0.994  0.000  0.000  0.006  0.000
  0.000  0.000  0.000  0.000  1.000
  0.000  0.000  1.000  0.000  0.000
  0.006  0.000  0.000  0.994  0.000
  0.000  1.000  0.000  0.000  0.000
    occupations:
  0.500  0.000  0.001 -0.020 -0.000
  0.000  0.756  0.000 -0.000  0.001
  0.001  0.000  0.694  0.000  0.000
 -0.020 -0.000  0.000  0.748 -0.000
 -0.000  0.001  0.000 -0.000  0.542
N of occupied +U levels =  51.9521321
 --- exit write_ns ---

          k = 0.0000 0.0000 0.0000 ( 29221 PWs)   bands (ev):

   -81.4967 -81.4415 -81.2401 -81.1839 -81.0793 -81.0237 -80.9914 -80.9356
   -43.7083 -43.5188 -43.4005 -43.3928 -43.3344 -43.3054 -43.2621 -43.2566
   -43.2242 -43.1323 -43.1056 -43.0651 -42.9665 -42.9589 -42.9309 -42.9174
   -42.9054 -42.8836 -42.8464 -42.8400 -42.7682 -42.6284 -42.4602 -42.3835
   -21.1281 -20.5938 -20.5026 -20.4481 -20.1524 -19.7971 -19.7830 -19.5181
   -19.4752 -19.4743 -19.3616 -19.2915 -19.2605 -19.2136 -19.1779 -18.7394
   -18.2297 -17.8933  -9.4961  -9.3709  -9.2231  -8.7052  -8.6681  -8.2011
    -8.1718  -7.9288  -7.8847  -7.7389  -7.5655  -7.5429  -7.3071  -7.3060
    -7.2062  -7.1495  -6.9732  -6.8910  -6.7828  -6.7143  -6.4476  -6.1810
    -6.1238  -5.6242  -5.5597  -5.5208  -5.4132  -5.3406  -5.2701  -5.0788
    -5.0430  -4.9333  -4.7553  -4.7509  -4.7099  -4.6776  -4.4558  -4.4191
    -4.1617  -4.1078  -4.0668  -4.0433  -3.6534  -3.5253  -3.4473  -3.4170
    -3.2592  -3.2589  -3.2038  -3.1340  -3.0858  -3.0482  -2.9538  -2.7607
    -2.7420  -2.5931  -2.4135  -1.0502  -0.8311  -0.6337  -0.2204  -0.2002
    -0.0678   0.3641   0.5287   0.5918   0.6795   0.6932   1.0243   1.1234
     1.1645   1.1833   1.2733   1.7973   1.9133   2.6875   3.0630   3.2072
     3.3037   3.3068   3.4360   3.5294   3.7002   4.0474   4.2025   4.4821
     4.5956   4.6767   4.6888   4.7654   4.7947   4.9198   4.9483   5.0307
     5.0996   5.3046   5.3932   5.6119   6.0770   6.3342   6.5002   6.7424
     7.3495   7.5415   7.5475   7.6617   7.8170   7.9474   8.0430   8.1189
     8.1920   8.3176   8.4035   8.4841   8.4859   8.6860   8.8022   8.8567
     8.9441   9.0120   9.1381   9.2001   9.3336   9.5774   9.6142   9.7232
     9.7244   9.8201  10.0230  10.0231  10.1403  10.1736  10.1877  10.4246
    10.5098  10.6019  10.6629  10.7216  10.9579  10.9962  11.1599  11.2953
    11.3658  11.4039  11.4134  11.6861  11.8679  11.8821  12.0105  12.0453
    12.0634  12.1963  12.2672  12.2861  12.5705  12.7196  12.8199  12.8413
    12.9595  12.9603  12.9883  13.0367  13.0705  13.1777  13.1876  13.2047
    13.2195  13.3255  13.3512  13.4273  13.4536  13.5356  13.6165  13.8001
    13.8569  13.8645  13.9493  13.9841  14.0219  14.0332  14.0369  14.2351
    14.2529  14.2938  14.3134  14.5192  14.5319  14.8279  14.8313  14.9464
    14.9506  14.9966  15.0623  15.1385  15.2029  15.4176  15.4218  15.4878
    15.5507  15.6177  15.7149  15.8723  15.9136  15.9362  16.0252  16.0942
    16.2707  16.3602  16.4994  16.5344  16.6001  16.7580  16.7790  16.8556
    16.8618  16.9901  17.0089  17.1264  17.1726  17.2090  17.2173  17.3876
    17.4381  17.4829  17.5869  17.6374  17.8675  18.0024  18.0391  18.1196
    18.2598  18.3019  18.3180  18.4294  18.5411  18.5646  18.6367  18.8170
    18.8450  18.9554  19.0027  19.0173  19.0235  19.2317  19.2577  19.2730
    19.3724  19.4195  19.5080  19.6538  19.6603  19.8075  19.8499  20.0269
    20.0522  20.0868  20.1160  20.1405  20.3936  20.4587  20.5254  20.5592
    20.6802  20.7260  20.8711  20.8973  20.9567  20.9911  21.0395  21.0675
    21.2269  21.4588  21.5020  21.5298  21.6517  21.7150  21.7625  21.8505
    21.9325  22.0259  22.0420  22.0455  22.1670  22.1820  22.1954  22.2258
    22.2961  22.3584  22.3878  22.4477  22.4772  22.5137  22.5512  22.5827
    22.6426  22.6877  22.7185  22.7702

          k = 0.0000 0.1914 0.0000 ( 29141 PWs)   bands (ev):

   -81.4967 -81.4415 -81.2401 -81.1839 -81.0793 -81.0237 -80.9914 -80.9356
   -43.7085 -43.5188 -43.3989 -43.3928 -43.3351 -43.3053 -43.2637 -43.2558
   -43.2218 -43.1305 -43.1056 -43.0651 -42.9665 -42.9589 -42.9327 -42.9174
   -42.9079 -42.8836 -42.8460 -42.8400 -42.7681 -42.6283 -42.4602 -42.3835
   -21.0904 -20.5024 -20.4974 -20.3442 -20.1466 -19.7882 -19.7821 -19.7814
   -19.7555 -19.5325 -19.3618 -19.3613 -19.3274 -18.9654 -18.9581 -18.7373
   -18.2256 -17.8932  -9.3382  -8.9592  -8.9050  -8.7670  -8.6758  -8.2435
    -8.1836  -8.1776  -8.1696  -8.1607  -8.1521  -7.8429  -7.5337  -7.2865
    -7.2093  -7.1342  -6.4654  -6.4417  -6.2864  -6.2497  -6.2350  -6.0595
    -6.0114  -5.8389  -5.8078  -5.6574  -5.5326  -5.4644  -5.4600  -5.3189
    -5.1300  -5.0391  -4.7976  -4.7910  -4.7452  -4.4630  -4.3722  -4.3207
    -4.2699  -4.1396  -3.9651  -3.9630  -3.6025  -3.5433  -3.5241  -3.4775
    -3.3598  -3.2605  -3.2117  -3.1238  -2.9896  -2.8685  -2.7415  -2.7188
    -2.6268  -2.5475  -2.4352  -1.2460  -1.1454  -1.0465  -0.8847  -0.1228
     0.0113   0.5623   0.8739   0.9025   1.0048   1.0345   1.0347   1.1178
     1.1554   1.2754   1.3297   1.6600   1.8447   2.4686   3.2327   3.2798
     3.4120   3.4317   3.4806   3.4933   3.7850   3.7874   4.0468   4.1248
     4.2577   4.2796   4.3651   4.4446   4.8067   4.8094   5.0431   5.1038
     5.4054   5.6223   5.9081   6.2338   6.3808   6.4764   6.5439   6.6166
     6.6792   6.9267   7.0813   7.4168   7.5825   7.7583   7.8749   8.0437
     8.0781   8.1706   8.4393   8.5462   8.6917   8.8930   8.9307   9.2174
     9.3308   9.3793   9.4184   9.5652   9.5752   9.8059   9.8265   9.9543
     9.9722  10.0541  10.1842  10.3332  10.3406  10.3758  10.3980  10.6146
    10.6815  10.7194  10.7675  10.8785  11.1084  11.1631  11.2084  11.3199
    11.3812  11.4370  11.5551  11.6271  11.7344  11.7396  11.7904  11.8315
    11.9097  12.0835  12.0998  12.1615  12.2149  12.2669  12.3098  12.3890
    12.4620  12.4843  12.6180  12.7861  12.8316  12.9759  13.0371  13.1946
    13.2321  13.2693  13.4357  13.4772  13.6257  13.6603  13.6880  13.6937
    13.7693  13.8724  13.9459  14.0097  14.1817  14.2343  14.3000  14.3214
    14.4519  14.4793  14.5394  14.5883  14.6188  14.7839  14.8082  14.8364
    14.9169  14.9465  15.0639  15.1048  15.2406  15.2947  15.3270  15.4859
    15.5191  15.5442  15.6577  15.6697  15.7429  15.7508  15.8399  15.8556
    15.8872  16.1982  16.2411  16.4223  16.4779  16.6323  16.7123  16.7808
    16.9514  17.0081  17.0831  17.1314  17.2225  17.2552  17.2917  17.3179
    17.3385  17.5739  17.6956  17.7526  17.9537  18.0623  18.1959  18.2649
    18.2790  18.3033  18.4166  18.5102  18.6498  18.7594  18.8213  18.8920
    18.9382  18.9875  19.0319  19.0340  19.1700  19.2528  19.2815  19.4276
    19.4745  19.5036  19.5191  19.6087  19.6186  19.7422  19.7916  19.8021
    19.8616  19.9150  20.1527  20.1848  20.2377  20.2908  20.3751  20.4053
    20.4158  20.4886  20.5669  20.6682  20.7610  20.8130  20.8938  20.8962
    21.0323  21.0584  21.1171  21.1268  21.1549  21.3626  21.5036  21.5424
    21.5709  21.6559  21.6592  21.6797  21.7577  21.9562  21.9790  22.1063
    22.1272  22.2002  22.2846  22.3360  22.4209  22.4878  22.4880  22.6184
    22.6418  22.6658  22.6991  22.7691

          k = 0.0000-0.3828 0.0000 ( 29262 PWs)   bands (ev):

   -81.4967 -81.4415 -81.2401 -81.1839 -81.0793 -81.0237 -80.9914 -80.9356
   -43.7087 -43.5190 -43.3974 -43.3927 -43.3359 -43.3054 -43.2653 -43.2552
   -43.2194 -43.1288 -43.1057 -43.0651 -42.9665 -42.9590 -42.9346 -42.9175
   -42.9106 -42.8836 -42.8457 -42.8400 -42.7680 -42.6283 -42.4602 -42.3836
   -21.0554 -20.5023 -20.3400 -20.2885 -19.9280 -19.9189 -19.9173 -19.8923
   -19.7811 -19.6556 -19.6098 -19.3930 -19.3622 -18.7921 -18.7834 -18.7218
   -18.2224 -17.8931  -9.3064  -8.8451  -8.6824  -8.6611  -8.6193  -8.3823
    -8.2816  -8.2591  -8.1947  -8.1564  -8.0769  -7.7161  -7.5530  -7.2197
    -7.1961  -7.1542  -7.1322  -6.8669  -6.7054  -6.3440  -6.2509  -5.8373
    -5.7430  -5.7184  -5.5505  -5.5302  -5.4621  -5.3715  -5.3580  -5.2055
    -5.0551  -5.0376  -5.0088  -4.7966  -4.6619  -4.5792  -4.4311  -4.3916
    -4.2517  -3.9831  -3.7413  -3.7197  -3.6967  -3.6400  -3.6278  -3.5613
    -3.5470  -3.3257  -3.2755  -3.0744  -2.9998  -2.7123  -2.6781  -2.6779
    -2.4931  -2.4428  -2.2578  -1.5848  -1.4979  -1.4438  -1.0433  -0.1306
     0.4193   0.5736   0.6276   0.9429   0.9499   1.2434   1.2739   1.2848
     1.3174   1.5324   1.5625   1.6644   1.8743   2.2337   2.8069   2.8329
     3.3346   3.3525   3.6201   3.6468   3.6696   3.8179   3.9782   4.0370
     4.0510   4.3622   4.6994   4.7924   4.8235   4.8545   5.1039   5.1360
     5.5214   5.6323   5.8459   5.9329   6.1837   6.3215   6.5759   6.6392
     6.8090   6.9167   7.1006   7.1751   7.2954   7.5051   7.5974   7.8607
     7.9460   8.3113   8.5496   8.5975   8.6879   8.7508   8.9078   9.2492
     9.4171   9.5447   9.6670   9.8944   9.8967  10.0958  10.1804  10.3319
    10.3345  10.4368  10.5412  10.6767  10.7266  10.7910  10.8572  10.8886
    10.9231  10.9538  11.0659  11.1334  11.2813  11.3168  11.3483  11.4027
    11.4084  11.4211  11.4516  11.5463  11.5481  11.6700  11.7030  11.7107
    11.7206  11.8457  11.9018  11.9827  12.0453  12.0754  12.0967  12.2590
    12.2976  12.3710  12.4066  12.4071  12.4963  12.5276  12.7298  12.9113
    12.9774  12.9790  13.0944  13.0947  13.4281  13.4500  13.4852  13.5595
    13.5619  13.6834  13.7475  13.8136  13.8141  14.0829  14.0876  14.1777
    14.1937  14.2397  14.3410  14.4371  14.4650  14.6797  14.7809  14.8019
    14.9292  15.0584  15.0786  15.2126  15.3169  15.3545  15.5025  15.6443
    15.8458  15.9299  16.0152  16.1300  16.1826  16.3818  16.4710  16.4726
    16.5249  16.5817  16.7084  16.7530  16.7716  16.8177  16.8751  16.9595
    17.0267  17.0337  17.0583  17.0950  17.2805  17.3600  17.3828  17.4590
    17.4937  17.5383  17.5924  17.6179  17.6594  17.6901  17.7494  17.7787
    17.8263  18.0390  18.1554  18.1655  18.1770  18.3009  18.3017  18.5030
    18.5359  18.5564  18.5809  18.7580  18.7720  18.8223  18.8309  19.0191
    19.0329  19.0686  19.1263  19.3658  19.4611  19.6032  19.7602  19.7690
    19.8687  19.8940  19.9330  19.9560  20.0177  20.0719  20.1339  20.3524
    20.4672  20.5200  20.6226  20.6510  20.6596  20.8176  20.8339  20.9058
    21.0122  21.1968  21.2166  21.2888  21.2999  21.3498  21.4294  21.4818
    21.7007  21.7071  21.9477  21.9673  22.0271  22.1036  22.1657  22.2068
    22.2156  22.4371  22.5390  22.5471  22.5721  22.7436  22.7685  22.8333
    22.8949  22.9815  23.0439  23.0684

          k = 0.2500 0.0000 0.0000 ( 29190 PWs)   bands (ev):

   -81.4886 -81.4496 -81.2319 -81.1922 -81.0712 -81.0319 -80.9832 -80.9438
   -43.5871 -43.3953 -43.3810 -43.3791 -43.3177 -43.2779 -43.2126 -43.2107
   -43.1457 -43.1396 -43.0848 -43.0444 -42.9809 -42.9732 -42.9543 -42.9391
   -42.9185 -42.8951 -42.8857 -42.8588 -42.7887 -42.7647 -42.5943 -42.5185
   -20.9710 -20.5041 -20.4646 -20.2895 -20.1198 -19.9558 -19.6936 -19.5378
   -19.4761 -19.4443 -19.4237 -19.3506 -19.3061 -19.2485 -19.2157 -18.8384
   -18.2335 -18.0133  -9.1315  -9.0323  -8.9442  -8.6954  -8.3722  -8.0356
    -7.9365  -7.8634  -7.7577  -7.6390  -7.5904  -7.5265  -7.4014  -7.3693
    -7.3266  -6.9887  -6.9006  -6.6218  -6.5502  -6.4470  -6.3770  -6.3180
    -6.1311  -6.1065  -5.8195  -5.7317  -5.6499  -5.5627  -5.1891  -5.1768
    -5.0034  -4.8386  -4.7264  -4.6782  -4.5719  -4.5190  -4.4928  -4.4327
    -4.3589  -4.2374  -4.2330  -4.0314  -4.0172  -3.9752  -3.7040  -3.6383
    -3.4908  -3.3764  -3.2605  -3.1158  -3.0436  -2.8907  -2.7225  -2.5648
    -2.4567  -2.2914  -2.0848  -0.7713  -0.7675  -0.5590  -0.3858  -0.1938
    -0.1094   0.2422   0.2551   0.5537   0.5590   0.5911   0.9280   1.1227
     1.2029   1.3576   1.3770   1.3934   1.5065   1.7412   1.8151   1.9736
     2.2084   2.5547   3.4630   3.7789   4.0581   4.2727   4.2763   4.4741
     4.5621   4.5657   4.7407   4.8353   4.8538   4.8753   5.0922   5.1191
     5.2643   5.3143   5.7231   5.9692   6.2243   6.4381   6.5265   6.8991
     7.0407   7.1929   7.5730   7.6606   7.8514   7.9039   7.9447   8.1623
     8.2223   8.2289   8.2931   8.4882   8.5558   8.6440   8.6555   8.8684
     9.0571   9.1162   9.2377   9.2438   9.3836   9.4462   9.4860   9.6452
     9.7475   9.8062   9.9508   9.9587   9.9867  10.0150  10.2907  10.4275
    10.4729  10.5099  10.7359  10.7422  10.8495  10.9485  10.9910  11.1377
    11.1595  11.1773  11.3052  11.4065  11.5748  11.6255  11.7159  11.7730
    11.8568  12.1410  12.2723  12.3458  12.3819  12.4388  12.6239  12.7090
    12.8652  12.9274  13.1166  13.1835  13.2000  13.2799  13.3141  13.4281
    13.4541  13.5111  13.5833  13.6931  13.8127  13.8995  13.9717  14.0191
    14.0358  14.3232  14.3835  14.3928  14.4409  14.5136  14.7402  14.7997
    14.8501  14.8789  14.9351  15.0442  15.1245  15.1614  15.3500  15.3785
    15.5111  15.5969  15.6549  15.6969  15.7968  15.8558  16.0143  16.0533
    16.1101  16.1714  16.2058  16.2738  16.4159  16.4613  16.5520  16.5931
    16.6562  16.6876  16.7235  16.8643  17.0533  17.0885  17.1663  17.2597
    17.2621  17.3232  17.3868  17.4425  17.4678  17.5324  17.5787  17.5865
    17.6817  17.7255  17.8186  17.8969  18.0430  18.0906  18.0922  18.2244
    18.2882  18.3107  18.3674  18.4304  18.5311  18.6355  18.6494  18.7484
    18.8277  18.9561  18.9695  19.0665  19.1053  19.1986  19.2711  19.4011
    19.4463  19.4841  19.5615  19.6086  19.6229  19.7917  19.8195  19.8685
    19.9346  20.0231  20.0795  20.1467  20.1643  20.2252  20.2879  20.3738
    20.4205  20.4621  20.4853  20.5101  20.6086  20.7297  20.8128  20.8307
    20.8327  20.9201  20.9450  20.9939  21.0567  21.1500  21.1922  21.2719
    21.2942  21.3883  21.5025  21.5364  21.6999  21.8887  21.9067  21.9768
    21.9904  22.0569  22.0729  22.1763  22.2238  22.2475  22.3397  22.3907
    22.4066  22.4597  22.4837  22.6203

          k = 0.2500 0.1914 0.0000 ( 29229 PWs)   bands (ev):

   -81.4886 -81.4496 -81.2319 -81.1922 -81.0712 -81.0319 -80.9832 -80.9438
   -43.5874 -43.3954 -43.3806 -43.3781 -43.3177 -43.2784 -43.2118 -43.2088
   -43.1566 -43.1282 -43.0848 -43.0444 -42.9809 -42.9737 -42.9543 -42.9391
   -42.9196 -42.8951 -42.8880 -42.8587 -42.7889 -42.7647 -42.5943 -42.5185
   -20.9429 -20.5042 -20.3848 -20.1948 -20.0993 -19.9718 -19.7545 -19.7221
   -19.6922 -19.4488 -19.4259 -19.3691 -19.2970 -19.1233 -19.0919 -18.8339
   -18.2305 -18.0146  -9.0280  -8.7225  -8.6641  -8.6260  -8.3975  -8.2922
    -8.2700  -8.0278  -7.9099  -7.8359  -7.7193  -7.6121  -7.3875  -7.2854
    -7.2100  -6.9283  -6.7673  -6.6640  -6.5172  -6.4303  -6.4083  -6.1124
    -5.9480  -5.8788  -5.6938  -5.5924  -5.5319  -5.5264  -5.4601  -5.1558
    -5.0789  -4.9969  -4.8649  -4.8544  -4.6782  -4.6578  -4.6078  -4.5486
    -4.4331  -4.3474  -4.2060  -4.0359  -4.0111  -3.8992  -3.6991  -3.5609
    -3.4989  -3.3913  -3.3116  -3.1000  -3.0523  -2.8538  -2.6935  -2.5786
    -2.1139  -2.0043  -1.8318  -1.1312  -0.9396  -0.7733  -0.7698  -0.1746
    -0.0007   0.4690   0.4829   0.5804   0.8297   0.8333   0.9228   1.1456
     1.2186   1.2809   1.3438   1.5174   1.6925   1.6953   1.9223   2.0207
     2.2302   2.3796   3.5984   3.6368   3.7551   3.8440   3.9872   4.1333
     4.4130   4.5015   4.6158   4.6679   4.8433   4.8826   5.2355   5.4110
     5.7319   5.7826   6.0087   6.1130   6.2372   6.3740   6.5890   6.7296
     6.8925   6.9850   7.2132   7.2488   7.4490   7.7182   7.7488   8.0560
     8.1140   8.2809   8.3309   8.4679   8.5245   8.5927   8.7465   8.9104
     9.0593   9.3416   9.3907   9.4167   9.5920   9.6198   9.7072   9.7416
     9.7925   9.9121   9.9246  10.1354  10.1705  10.2218  10.2889  10.3096
    10.3762  10.6508  10.6928  10.8173  10.9269  10.9847  11.0114  11.1491
    11.3498  11.4430  11.4573  11.6311  11.7666  11.8534  11.9631  12.1356
    12.2872  12.3154  12.4817  12.5227  12.6013  12.6372  12.6854  12.7741
    12.8694  12.9700  12.9797  13.1838  13.2231  13.3394  13.4742  13.5386
    13.6010  13.6679  13.7633  13.7922  13.8871  13.9003  13.9623  14.0162
    14.0483  14.1851  14.2588  14.2910  14.4429  14.4620  14.5532  14.5598
    14.6541  14.7570  14.7845  14.8436  14.8740  14.9416  14.9540  15.0144
    15.1082  15.1742  15.2621  15.3830  15.4823  15.5232  15.6498  15.7106
    15.8559  15.9410  16.0699  16.1189  16.1514  16.2105  16.2752  16.4066
    16.5260  16.5481  16.5918  16.6692  16.7577  16.8007  16.8782  16.9573
    17.1078  17.1279  17.2040  17.2882  17.3539  17.4184  17.5606  17.6815
    17.6852  17.7022  17.7310  17.8599  17.9751  18.0277  18.0383  18.1758
    18.2217  18.2976  18.2999  18.3494  18.4414  18.5003  18.6072  18.6613
    18.7486  18.8855  18.8969  19.0066  19.0103  19.0619  19.1099  19.2939
    19.4093  19.4864  19.5617  19.6229  19.7323  19.8887  19.9180  19.9781
    20.0012  20.0823  20.2123  20.2208  20.4160  20.4586  20.5105  20.5595
    20.5781  20.7096  20.7170  20.7969  20.8556  20.9215  20.9312  21.0540
    21.1558  21.1590  21.2769  21.3028  21.3694  21.4243  21.4678  21.4792
    21.6159  21.6196  21.7481  21.8203  21.9054  21.9198  22.0582  22.0780
    22.1493  22.2223  22.2386  22.3525  22.3676  22.4118  22.4586  22.5120
    22.5410  22.6079  22.6333  22.6939

          k = 0.2500-0.3828 0.0000 ( 29202 PWs)   bands (ev):

   -81.4886 -81.4496 -81.2319 -81.1922 -81.0712 -81.0319 -80.9832 -80.9438
   -43.5876 -43.3955 -43.3805 -43.3768 -43.3177 -43.2788 -43.2111 -43.2069
   -43.1621 -43.1224 -43.0848 -43.0444 -42.9809 -42.9746 -42.9543 -42.9391
   -42.9203 -42.8952 -42.8902 -42.8587 -42.7892 -42.7646 -42.5943 -42.5185
   -20.9172 -20.5043 -20.2668 -20.1731 -19.9988 -19.8712 -19.8388 -19.8027
   -19.7959 -19.6646 -19.5347 -19.4268 -19.3116 -18.9745 -18.9687 -18.8205
   -18.2281 -18.0162  -9.0068  -8.7174  -8.6277  -8.5714  -8.3497  -8.0579
    -7.9915  -7.9739  -7.8844  -7.7473  -7.6972  -7.6504  -7.6102  -7.6030
    -7.4319  -7.3236  -6.9171  -6.7682  -6.6936  -6.2687  -6.0283  -5.8691
    -5.7241  -5.6804  -5.6803  -5.6129  -5.5761  -5.4929  -5.3336  -5.2275
    -5.1452  -5.0007  -4.9560  -4.9459  -4.8626  -4.8340  -4.7740  -4.6533
    -4.5249  -4.4075  -4.2245  -3.9794  -3.8420  -3.7341  -3.7287  -3.5673
    -3.5337  -3.3435  -3.3358  -3.1022  -2.9076  -2.8944  -2.6941  -2.5296
    -2.1063  -1.8153  -1.5849  -1.3578  -1.2777  -1.1476  -0.7827  -0.0268
     0.1263   0.3501   0.5733   0.9553   0.9656   1.0418   1.1351   1.1646
     1.2321   1.2753   1.4073   1.6387   1.6486   1.9758   2.1037   2.1891
     2.2115   2.3625   2.7816   2.8948   3.3578   3.5015   3.7409   4.2408
     4.4543   4.5650   4.6607   4.8868   5.0648   5.2050   5.3537   5.4934
     5.8539   5.9729   6.1642   6.1970   6.2369   6.2991   6.5487   6.6949
     6.7164   6.8985   6.9788   6.9962   7.1868   7.5293   7.7357   7.7841
     7.8974   8.2830   8.3520   8.5238   8.6293   8.6519   8.7513   8.8943
     9.0040   9.0359   9.1533   9.1759   9.4782   9.5956   9.5961   9.7848
    10.0263  10.0832  10.2524  10.3160  10.4146  10.4864  10.5564  10.6333
    10.7054  10.7313  10.7663  11.0255  11.2541  11.3004  11.3188  11.6323
    11.6731  11.7420  11.8729  11.8911  12.0392  12.0711  12.1129  12.2138
    12.2195  12.2755  12.3366  12.3633  12.4863  12.6019  12.6835  12.7369
    12.7637  12.9747  13.1430  13.2438  13.2987  13.3881  13.4262  13.5917
    13.6829  13.7386  13.7804  13.8267  13.8870  13.9351  13.9946  14.0332
    14.0839  14.1479  14.1800  14.3146  14.3309  14.4195  14.4338  14.4389
    14.5204  14.5674  14.6270  14.6375  14.7112  14.7384  14.7499  14.8051
    14.8741  15.1920  15.2634  15.3233  15.3428  15.3778  15.4002  15.4979
    15.5979  15.6313  15.6465  15.7362  15.7967  15.9548  15.9848  16.1422
    16.1550  16.2462  16.2895  16.3958  16.5353  16.6125  16.6604  16.8281
    16.8286  16.8695  16.9770  16.9893  17.2462  17.3938  17.4251  17.4635
    17.4812  17.5714  17.6221  17.6481  17.7501  17.7794  17.8759  18.1012
    18.1205  18.2051  18.2533  18.3012  18.3932  18.5194  18.6754  18.7015
    18.8898  19.0430  19.0636  19.1607  19.3108  19.4322  19.5305  19.5513
    19.5728  19.7401  19.7692  19.8263  19.8429  19.8989  20.0110  20.1091
    20.1145  20.1341  20.1797  20.2322  20.2967  20.3429  20.3711  20.4365
    20.5142  20.6867  20.8506  20.8924  20.9786  20.9803  21.1518  21.1693
    21.2136  21.2454  21.2754  21.3573  21.3641  21.4353  21.5070  21.6224
    21.6479  21.7382  21.7407  21.8145  21.8474  21.8564  21.8959  21.9686
    22.0411  22.1066  22.2171  22.3018  22.4017  22.4340  22.4520  22.4891
    22.5818  22.5872  22.6126  22.6555

          k =-0.5000 0.0000 0.0000 ( 29180 PWs)   bands (ev):

   -81.4697 -81.4686 -81.2122 -81.2120 -81.0516 -81.0515 -80.9637 -80.9634
   -43.3504 -43.3494 -43.3320 -43.3310 -43.2840 -43.2830 -43.1784 -43.1782
   -43.0890 -43.0888 -43.0343 -43.0343 -42.9890 -42.9888 -42.9298 -42.9293
   -42.9041 -42.9040 -42.8887 -42.8886 -42.8379 -42.8375 -42.8347 -42.8345
   -20.6372 -20.6371 -20.2510 -20.2502 -19.9027 -19.9024 -19.8862 -19.8862
   -19.4663 -19.4661 -19.3433 -19.3433 -19.3146 -19.3146 -19.0738 -19.0737
   -18.1907 -18.1906  -8.5700  -8.5699  -8.3070  -8.3070  -8.2647  -8.2647
    -8.0942  -8.0932  -7.9577  -7.9575  -7.3828  -7.3825  -7.2715  -7.2714
    -6.8842  -6.8841  -6.7663  -6.7661  -6.4813  -6.4810  -5.9836  -5.9835
    -5.8929  -5.8928  -5.8156  -5.8156  -5.5725  -5.5724  -5.2550  -5.2549
    -5.1313  -5.1313  -5.0552  -5.0550  -4.9663  -4.9661  -4.6842  -4.6840
    -4.6029  -4.6028  -4.5200  -4.5198  -4.0816  -4.0816  -3.4867  -3.4866
    -3.4164  -3.4163  -3.0957  -3.0957  -2.8928  -2.8926  -2.7989  -2.7988
    -0.9016  -0.9012  -0.7537  -0.7534  -0.6681  -0.6680  -0.6097  -0.6094
    -0.3814  -0.3812  -0.1437  -0.1436   0.1181   0.1181   0.4424   0.4426
     0.7166   0.7169   0.8670   0.8673   1.5087   1.5090   1.6270   1.6279
     2.1059   2.1062   3.8765   3.8767   4.1839   4.1842   4.4534   4.4538
     4.5657   4.5663   4.8217   4.8218   4.8969   4.8970   5.2004   5.2007
     5.6795   5.6798   6.0691   6.0697   6.2657   6.2661   6.6236   6.6242
     6.8569   6.8572   7.3419   7.3423   7.6827   7.6832   7.8698   7.8703
     8.5154   8.5161   8.6361   8.6366   8.6985   8.6986   8.9409   8.9413
     9.1267   9.1274   9.2319   9.2326   9.3910   9.3916   9.5748   9.5757
     9.7019   9.7022   9.7525   9.7526   9.8978   9.8984  10.2794  10.2801
    10.3503  10.3507  10.4564  10.4567  10.5392  10.5394  10.6940  10.6943
    10.9026  10.9031  11.4316  11.4320  11.4979  11.4982  11.8699  11.8702
    12.0324  12.0329  12.1348  12.1352  12.3084  12.3095  12.7381  12.7384
    13.1381  13.1385  13.3415  13.3419  13.3980  13.3986  13.6443  13.6449
    13.7790  13.7792  13.8962  13.8964  14.3182  14.3183  14.3736  14.3737
    14.5106  14.5109  14.7785  14.7790  14.8656  14.8657  15.0839  15.0841
    15.2844  15.2848  15.4931  15.4934  15.5108  15.5111  15.6288  15.6291
    15.8471  15.8474  16.0525  16.0527  16.3230  16.3230  16.3820  16.3822
    16.4656  16.4660  16.6628  16.6632  16.7338  16.7341  16.9708  16.9712
    17.0599  17.0603  17.1438  17.1441  17.3632  17.3636  17.5009  17.5013
    17.7769  17.7772  17.7961  17.7966  17.8292  17.8293  18.0626  18.0633
    18.2304  18.2305  18.2450  18.2455  18.3688  18.3695  18.5721  18.5729
    18.6330  18.6340  18.7239  18.7240  18.8754  18.8762  18.9870  18.9871
    19.1150  19.1154  19.2423  19.2426  19.3571  19.3574  19.4089  19.4093
    19.4568  19.4570  19.5979  19.5985  19.6183  19.6185  19.7028  19.7035
    19.7602  19.7607  19.8491  19.8495  19.9402  19.9407  20.0315  20.0319
    20.1662  20.1665  20.2760  20.2767  20.3277  20.3282  20.4263  20.4265
    20.6833  20.6839  20.8109  20.8115  20.9163  20.9170  20.9389  20.9392
    21.0484  21.0487  21.0753  21.0758  21.2153  21.2155  21.2759  21.2762
    21.4503  21.4507  21.5883  21.5886  21.7347  21.7350  21.8129  21.8133
    22.0266  22.0270  22.2801  22.2803

          k =-0.5000 0.1914 0.0000 ( 29244 PWs)   bands (ev):

   -81.4697 -81.4686 -81.2122 -81.2120 -81.0516 -81.0515 -80.9637 -80.9634
   -43.3505 -43.3494 -43.3313 -43.3303 -43.2843 -43.2832 -43.1776 -43.1774
   -43.0892 -43.0890 -43.0344 -43.0343 -42.9890 -42.9888 -42.9299 -42.9294
   -42.9041 -42.9039 -42.8894 -42.8893 -42.8391 -42.8386 -42.8344 -42.8340
   -20.6320 -20.6319 -20.2270 -20.2261 -19.8929 -19.8925 -19.8423 -19.8421
   -19.5585 -19.5559 -19.3625 -19.3624 -19.2998 -19.2980 -19.0718 -19.0716
   -18.1909 -18.1908  -8.5635  -8.5629  -8.3220  -8.3217  -8.2789  -8.2757
    -8.0898  -8.0888  -7.9675  -7.9657  -7.1782  -7.1723  -7.0107  -7.0082
    -6.9005  -6.8567  -6.7473  -6.6861  -6.4683  -6.4433  -6.2527  -6.2201
    -6.1491  -6.1479  -5.8549  -5.8245  -5.5886  -5.5833  -5.3819  -5.3752
    -5.2627  -5.2505  -5.1324  -5.1045  -4.8922  -4.8802  -4.7992  -4.7763
    -4.6844  -4.6501  -4.3696  -4.3314  -4.0745  -4.0658  -3.5008  -3.4503
    -3.3920  -3.3816  -3.0982  -3.0971  -2.9471  -2.9350  -2.6824  -2.6347
    -0.9000  -0.8959  -0.8144  -0.7789  -0.6774  -0.6647  -0.4363  -0.4301
    -0.3808  -0.3671  -0.0753  -0.0739   0.2644   0.2739   0.5212   0.5225
     0.7489   0.7612   1.0412   1.0645   1.3898   1.4007   1.6380   1.6410
     2.0362   2.0386   3.6240   3.6266   3.7191   3.7199   3.9802   3.9808
     4.4173   4.4197   5.0786   5.0799   5.3244   5.3274   5.4945   5.4986
     5.6762   5.6858   6.2318   6.2343   6.3343   6.3349   6.6764   6.6847
     6.9426   6.9465   7.1537   7.1691   7.6501   7.6548   7.7539   7.7544
     7.8910   7.8960   8.1103   8.1181   8.3896   8.3929   8.5958   8.6213
     8.9512   8.9556   9.1084   9.1360   9.3838   9.3896   9.5167   9.5707
     9.7789   9.8490  10.0797  10.0879  10.3581  10.3596  10.5800  10.5828
    10.6609  10.6665  10.8148  10.8533  10.8693  10.8962  11.0686  11.0926
    11.2804  11.2975  11.5451  11.5511  11.7814  11.7916  12.0066  12.0479
    12.1869  12.2345  12.2852  12.2970  12.6979  12.7221  12.7784  12.8391
    13.0492  13.0840  13.3315  13.3823  13.5052  13.5191  13.6807  13.6995
    13.8104  13.8397  14.0060  14.0063  14.2538  14.2637  14.3820  14.4026
    14.5008  14.5073  14.6454  14.6691  14.8404  14.8431  14.8556  14.8718
    15.0663  15.1091  15.3446  15.3574  15.4580  15.4619  15.5696  15.5741
    15.7101  15.7105  15.8047  15.8173  15.9958  15.9981  16.0864  16.1613
    16.2363  16.2367  16.4005  16.4104  16.5086  16.5108  16.5961  16.6143
    16.7256  16.7314  16.8188  16.8441  17.0159  17.0228  17.1438  17.1533
    17.2183  17.2204  17.2833  17.2870  17.4493  17.4719  17.5622  17.6198
    17.8032  17.8170  17.9084  17.9122  18.0077  18.0255  18.2351  18.2512
    18.2828  18.2895  18.3921  18.4051  18.4959  18.5164  18.6320  18.6343
    18.8351  18.8402  18.9490  18.9717  19.1563  19.1768  19.2778  19.2809
    19.4017  19.4073  19.5854  19.5868  19.6352  19.6385  19.8011  19.8209
    19.9355  19.9481  20.1662  20.1881  20.2711  20.2940  20.3597  20.3664
    20.5870  20.6003  20.7054  20.7183  20.7899  20.7907  20.8821  20.8913
    21.0275  21.0294  21.2050  21.2312  21.3055  21.3061  21.3943  21.3967
    21.5776  21.5805  21.6782  21.6816  21.7817  21.7821  21.8583  21.8630
    21.9162  21.9238  21.9557  21.9587  22.0934  22.0944  22.2779  22.2875
    22.3726  22.3912  22.4286  22.4426

          k =-0.5000-0.3828 0.0000 ( 29192 PWs)   bands (ev):

   -81.4697 -81.4686 -81.2122 -81.2120 -81.0516 -81.0515 -80.9637 -80.9634
   -43.3505 -43.3494 -43.3305 -43.3296 -43.2844 -43.2835 -43.1768 -43.1766
   -43.0892 -43.0891 -43.0344 -43.0343 -42.9890 -42.9888 -42.9298 -42.9293
   -42.9040 -42.9039 -42.8900 -42.8899 -42.8400 -42.8396 -42.8341 -42.8339
   -20.6270 -20.6270 -20.2005 -20.1994 -19.8866 -19.8866 -19.7410 -19.7409
   -19.6841 -19.6841 -19.4036 -19.4036 -19.2808 -19.2807 -19.0699 -19.0698
   -18.1911 -18.1910  -8.5406  -8.5404  -8.3401  -8.3399  -8.2727  -8.2727
    -8.0603  -8.0594  -7.9594  -7.9592  -7.0640  -7.0637  -6.8378  -6.8377
    -6.7409  -6.7406  -6.6794  -6.6794  -6.5848  -6.5846  -6.4449  -6.4446
    -6.1419  -6.1417  -5.8185  -5.8181  -5.5736  -5.5735  -5.4513  -5.4513
    -5.3557  -5.3556  -5.2799  -5.2797  -5.0058  -5.0057  -4.8945  -4.8945
    -4.7255  -4.7254  -4.1996  -4.1996  -3.9806  -3.9805  -3.5158  -3.5156
    -3.3726  -3.3724  -3.0940  -3.0939  -2.9783  -2.9782  -2.5244  -2.5242
    -0.9864  -0.9863  -0.8381  -0.8378  -0.7752  -0.7748  -0.6033  -0.6032
    -0.2378  -0.2372   0.3244   0.3245   0.5402   0.5403   0.8127   0.8130
     0.9433   0.9434   1.1474   1.1477   1.4197   1.4203   1.5327   1.5328
     1.9966   1.9971   2.8595   2.8599   2.9821   2.9825   4.0095   4.0096
     4.5202   4.5205   5.2179   5.2181   5.4630   5.4632   5.7930   5.7932
     6.0558   6.0560   6.2268   6.2270   6.3999   6.4006   6.8040   6.8047
     6.9419   6.9427   7.1464   7.1470   7.2648   7.2653   7.4872   7.4878
     7.6901   7.6907   7.9450   7.9455   8.1651   8.1656   8.5013   8.5017
     8.7048   8.7052   8.8733   8.8736   9.2374   9.2379   9.5765   9.5772
     9.9209   9.9212  10.0574  10.0577  10.4671  10.4674  10.7147  10.7150
    10.9358  10.9361  11.0355  11.0358  11.2714  11.2717  11.5758  11.5764
    11.6886  11.6893  12.0939  12.0943  12.3227  12.3232  12.4831  12.4836
    12.7847  12.7854  12.9507  12.9512  13.0160  13.0168  13.1137  13.1142
    13.2453  13.2458  13.3383  13.3387  13.4192  13.4197  13.4689  13.4695
    13.7198  13.7199  13.7737  13.7746  13.9198  13.9199  14.1216  14.1220
    14.2122  14.2126  14.3233  14.3237  14.5429  14.5430  14.6276  14.6279
    14.6669  14.6673  14.9767  14.9771  15.1352  15.1360  15.2329  15.2330
    15.3431  15.3434  15.5693  15.5699  15.7711  15.7715  15.8381  15.8385
    16.1368  16.1370  16.2753  16.2755  16.2912  16.2915  16.4874  16.4876
    16.6356  16.6363  16.6988  16.6989  16.9810  16.9813  17.1640  17.1643
    17.2263  17.2267  17.3483  17.3488  17.5577  17.5585  17.6389  17.6391
    17.6938  17.6941  17.7348  17.7354  17.8883  17.8886  18.0530  18.0531
    18.1165  18.1169  18.2055  18.2058  18.2665  18.2672  18.3718  18.3722
    18.4901  18.4903  18.6055  18.6062  18.8560  18.8565  18.8919  18.8921
    19.0254  19.0256  19.4109  19.4115  19.5454  19.5458  19.6685  19.6689
    19.8582  19.8586  20.0841  20.0842  20.1646  20.1651  20.4509  20.4512
    20.5524  20.5528  20.7445  20.7450  20.7769  20.7770  21.0120  21.0129
    21.2096  21.2096  21.2736  21.2737  21.4252  21.4260  21.6964  21.6965
    21.7285  21.7285  22.0300  22.0303  22.1433  22.1438  22.2307  22.2309
    22.3257  22.3260  22.4718  22.4722  22.5602  22.5608  22.7730  22.7731
    22.8367  22.8367  22.9181  22.9182

          k =-0.2500 0.1914 0.0000 ( 29229 PWs)   bands (ev):

   -81.4886 -81.4496 -81.2319 -81.1922 -81.0712 -81.0319 -80.9832 -80.9438
   -43.5874 -43.3954 -43.3806 -43.3781 -43.3177 -43.2783 -43.2118 -43.2088
   -43.1567 -43.1282 -43.0848 -43.0444 -42.9809 -42.9740 -42.9543 -42.9391
   -42.9193 -42.8951 -42.8879 -42.8588 -42.7889 -42.7647 -42.5943 -42.5185
   -20.9430 -20.5042 -20.3848 -20.1947 -20.0994 -19.9716 -19.7546 -19.7218
   -19.6914 -19.4486 -19.4272 -19.3699 -19.2971 -19.1235 -19.0913 -18.8334
   -18.2305 -18.0146  -9.0270  -8.7232  -8.6642  -8.6247  -8.3978  -8.3003
    -8.2634  -8.0343  -7.9053  -7.8360  -7.7189  -7.6119  -7.3765  -7.3005
    -7.2161  -6.9253  -6.7600  -6.6647  -6.5223  -6.4086  -6.4063  -6.0929
    -5.9320  -5.8966  -5.7243  -5.5976  -5.5542  -5.5223  -5.4788  -5.1197
    -5.0667  -5.0022  -4.8647  -4.8616  -4.7046  -4.6370  -4.6055  -4.5393
    -4.4206  -4.3403  -4.2508  -4.0343  -3.9665  -3.9022  -3.7003  -3.5724
    -3.5506  -3.3545  -3.2947  -3.1149  -3.0510  -2.8283  -2.7253  -2.5762
    -2.1170  -2.0011  -1.8325  -1.1322  -0.9329  -0.7776  -0.7352  -0.1933
    -0.0094   0.4598   0.4720   0.5793   0.8170   0.8314   0.9405   1.1550
     1.2395   1.2840   1.3354   1.5184   1.6842   1.6942   1.9234   2.0199
     2.2303   2.3784   3.5988   3.6357   3.7556   3.8487   3.9871   4.1287
     4.4125   4.5045   4.6151   4.6688   4.8371   4.8884   5.2356   5.4109
     5.7348   5.7848   6.0150   6.1120   6.2307   6.3796   6.5812   6.7293
     6.8898   6.9875   7.2115   7.2410   7.4510   7.7065   7.7602   8.0479
     8.1148   8.2745   8.3443   8.4565   8.5361   8.6237   8.7270   8.8863
     9.0725   9.3405   9.3899   9.3980   9.5890   9.6487   9.7073   9.7309
     9.7988   9.9193   9.9387  10.1076  10.1491  10.2381  10.3075  10.3508
    10.3638  10.6109  10.7050  10.8127  10.9169  11.0013  11.0316  11.1422
    11.3769  11.4200  11.4446  11.6407  11.7699  11.8480  11.9671  12.1105
    12.2828  12.3296  12.4871  12.5149  12.6047  12.6415  12.6655  12.7777
    12.8661  12.9739  12.9753  13.1834  13.2253  13.3416  13.4690  13.5349
    13.6100  13.6566  13.7760  13.8009  13.8712  13.8717  13.9630  14.0263
    14.0558  14.1906  14.2236  14.3002  14.4503  14.4810  14.5382  14.5536
    14.6503  14.7691  14.7838  14.8518  14.8746  14.9337  14.9861  14.9997
    15.1037  15.1962  15.2604  15.3985  15.4839  15.5514  15.6214  15.7326
    15.8414  15.9406  16.0672  16.0878  16.1577  16.2166  16.2677  16.4026
    16.5327  16.5422  16.5892  16.6664  16.7573  16.8057  16.8550  16.9926
    17.1178  17.1333  17.1889  17.2769  17.3636  17.4333  17.5546  17.6697
    17.6841  17.7088  17.7267  17.8771  17.9536  18.0143  18.0503  18.1915
    18.2166  18.2588  18.2978  18.3562  18.4529  18.5126  18.6142  18.6555
    18.7574  18.8528  18.8795  18.9755  19.0326  19.0589  19.1181  19.2813
    19.4165  19.4872  19.5595  19.6327  19.7365  19.8474  19.9346  19.9844
    20.0124  20.0683  20.1961  20.2057  20.4093  20.4413  20.5553  20.5621
    20.5820  20.6983  20.7317  20.7949  20.8290  20.9171  20.9561  21.0723
    21.1478  21.1789  21.2776  21.3082  21.3494  21.4570  21.4812  21.4975
    21.5907  21.6274  21.7501  21.8220  21.9114  21.9169  22.0748  22.0886
    22.1475  22.2450  22.2592  22.3574  22.3755  22.4020  22.4416  22.5139
    22.5380  22.6342  22.6399  22.6908

     the Fermi energy is     0.5718 ev

!    total energy              =   -2143.05082217 Ry
     Harris-Foulkes estimate   =   -2143.05082252 Ry
     estimated scf accuracy    <       0.00000038 Ry

     The total energy is the sum of the following terms:

     one-electron contribution =  -23474.19454670 Ry
     hartree contribution      =   11751.30117805 Ry
     xc contribution           =    -587.10011865 Ry
     ewald contribution        =   10166.94488344 Ry
     Hubbard energy            =       0.00000000 Ry
     smearing contrib. (-TS)   =      -0.00221831 Ry

     convergence has been achieved in  23 iterations

     Forces acting on atoms (Ry/au):


     negative rho (up, down):  0.243E+00 0.000E+00
     atom    1 type  1   force =    -0.00429698   -0.00751017   -0.00067015
     atom    2 type  1   force =     0.00001619    0.00784549    0.00016525
     atom    3 type  2   force =    -0.00002139   -0.00544875   -0.00025601
     atom    4 type  2   force =     0.00170128    0.00898686   -0.00004600
     atom    5 type  1   force =     0.00186304    0.01676509    0.00002153
     atom    6 type  1   force =     0.00011163   -0.01876331    0.00007170
     atom    7 type  1   force =    -0.00020900   -0.00009511   -0.00067181
     atom    8 type  1   force =     0.00276342   -0.00118585   -0.00004724
     atom    9 type  2   force =    -0.00156672    0.00086883    0.00025963
     atom   10 type  2   force =    -0.00000440   -0.00001352    0.00093747
     atom   11 type  1   force =     0.00004354   -0.02037233    0.00012016
     atom   12 type  1   force =    -0.00010576    0.01890313    0.00012025
     atom   13 type  1   force =    -0.00053594    0.00051559   -0.00042659
     atom   14 type  1   force =    -0.00423890   -0.00750509   -0.00081222
     atom   15 type  1   force =     0.00002710    0.00782667    0.00016048
     atom   16 type  2   force =    -0.00011604   -0.00544757   -0.00023976
     atom   17 type  2   force =     0.00171328    0.00898916   -0.00005455
     atom   18 type  1   force =     0.00201976    0.01675819   -0.00003982
     atom   19 type  1   force =     0.00026415   -0.01875969    0.00007038
     atom   20 type  1   force =    -0.00021224   -0.00009340   -0.00051527
     atom   21 type  1   force =     0.00277803   -0.00118817    0.00005562
     atom   22 type  2   force =    -0.00159442    0.00086689    0.00028211
     atom   23 type  2   force =    -0.00001864   -0.00001413    0.00064423
     atom   24 type  1   force =     0.00006936   -0.02035381    0.00011946
     atom   25 type  1   force =    -0.00007940    0.01888460    0.00011821
     atom   26 type  1   force =    -0.00049850    0.00051713   -0.00038856
     atom   27 type  3   force =     0.00001907   -0.00064689    0.00001524
     atom   28 type  3   force =     0.00001685   -0.00064638    0.00001504
     atom   29 type  3   force =     0.00008046    0.00016399    0.00047814
     atom   30 type  3   force =     0.00001120    0.00015257    0.00051307

     Total force =     0.002289     Total SCF correction =     0.002439
     SCF correction compared to forces is large: reduce conv_thr to get better values

     BFGS Geometry Optimization

     bfgs converged in   1 scf cycles and   0 bfgs steps
     (criteria: energy < 0.10E-03, force < 0.10E-02)

     End of BFGS Geometry Optimization

     Final energy   =   -2143.0508221699 Ry
Begin final coordinates

ATOMIC_POSITIONS (crystal)
O0       0.000000000   0.000000000   0.370990000    0   0   1
O0       0.000000000   0.500000000   0.382010000    0   0   1
Re1      0.250000000   0.500000000   0.441280000    0   0   1
Re1      0.000000000   0.000000000   0.443730000    0   0   1
O0       0.250000000   0.780000000   0.441680000    0   0   1
O0       0.250000000   0.220000000   0.441710000    0   0   1
O0       0.000000000   0.500000000   0.497700000    0   0   1
O0       0.000000000   0.000000000   0.515470000    0   0   1
Re1      0.250000000   0.000000000   0.575490000    0   0   1
Re1      0.000000000   0.500000000   0.567930000    0   0   1
O0       0.250000000   0.720000000   0.573870000    0   0   1
O0       0.250000000   0.280000000   0.573850000    0   0   1
O0       0.000000000   0.000000000   0.627710000    0   0   1
O0       0.500000000   0.000000000   0.370990000    0   0   1
O0       0.500000000   0.500000000   0.382010000    0   0   1
Re1      0.750000000   0.500000000   0.441280000    0   0   1
Re1      0.500000000   0.000000000   0.443730000    0   0   1
O0       0.750000000   0.780000000   0.441690000    0   0   1
O0       0.750000000   0.220000000   0.441710000    0   0   1
O0       0.500000000   0.500000000   0.497700000    0   0   1
O0       0.500000000   0.000000000   0.515470000    0   0   1
Re1      0.750000000   0.000000000   0.575490000    0   0   1
Re1      0.500000000   0.500000000   0.567940000    0   0   1
O0       0.750000000   0.720000000   0.573870000    0   0   1
O0       0.750000000   0.280000000   0.573850000    0   0   1
O0       0.500000000   0.000000000   0.627710000    0   0   1
H2      -0.000380000   0.625740000   0.365330000
H2       0.499620000   0.625740000   0.365330000
H2       0.169870000   0.021820000   0.356820000
H2       0.669880000   0.021820000   0.356820000
End final coordinates



     init_run     :    136.81s CPU    139.95s WALL (       1 calls)
     electrons    :   5562.15s CPU   5706.56s WALL (       1 calls)
     forces       :    175.42s CPU    176.98s WALL (       1 calls)

     Called by init_run:
     wfcinit      :     35.12s CPU     36.08s WALL (       1 calls)
     potinit      :      6.99s CPU      7.21s WALL (       1 calls)

     Called by electrons:
     c_bands      :   2467.44s CPU   2542.00s WALL (      23 calls)
     sum_band     :   1158.15s CPU   1195.95s WALL (      23 calls)
     v_of_rho     :     22.81s CPU     24.10s WALL (      24 calls)
     newd         :   1974.25s CPU   1987.03s WALL (      24 calls)
     mix_rho      :      4.06s CPU      4.17s WALL (      23 calls)

     Called by c_bands:
     init_us_2    :      5.43s CPU      5.49s WALL (     150 calls)
     cegterg      :   2412.21s CPU   2467.85s WALL (      69 calls)

     Called by *egterg:
     h_psi        :   1280.31s CPU   1314.01s WALL (     269 calls)
     s_psi        :    160.00s CPU    162.05s WALL (     275 calls)
     g_psi        :      2.99s CPU      2.99s WALL (     197 calls)
     cdiaghg      :    324.24s CPU    324.87s WALL (     266 calls)

     Called by h_psi:
     add_vuspsi   :    156.44s CPU    158.67s WALL (     269 calls)
     vhpsi        :    120.81s CPU    122.96s WALL (     269 calls)

     General routines
     calbec       :    340.29s CPU    345.90s WALL (    1498 calls)
     fft          :     40.71s CPU     59.57s WALL (     391 calls)
     ffts         :      0.39s CPU      0.39s WALL (      47 calls)
     fftw         :    720.60s CPU    752.59s WALL (  136474 calls)
     interpolate  :      3.36s CPU      3.41s WALL (      47 calls)
     davcio       :      0.01s CPU      2.04s WALL (     153 calls)

     Parallel routines
     fft_scatter  :    261.56s CPU    310.55s WALL (  136912 calls)
     Hubbard U routines
     new_ns       :     26.29s CPU     27.81s WALL (      23 calls)
     vhpsi        :    120.81s CPU    122.96s WALL (     269 calls)
     force_hub    :     36.96s CPU     37.94s WALL (       1 calls)

     PWSCF        :     1h37m CPU        1h40m WALL


   This run was terminated on:  15:52:52  15May2014            

=------------------------------------------------------------------------------=
   JOB DONE.
=------------------------------------------------------------------------------=
