
     Program PWSCF v.5.0.2 (svn rev. 9656) starts on 29Apr2014 at  3:10: 7 

     This program is part of the open-source Quantum ESPRESSO suite
     for quantum simulation of materials; please cite
         "P. Giannozzi et al., J. Phys.:Condens. Matter 21 395502 (2009);
          URL http://www.quantum-espresso.org", 
     in publications or presentations arising from this work. More details at
     http://www.quantum-espresso.org/quote.php

     Parallel version (MPI), running on    16 processors
     K-points division:     npool     =       4
     R & G space division:  proc/nbgrp/npool/nimage =       4

     Current dimensions of program PWSCF are:
     Max number of different atomic species (ntypx) = 10
     Max number of k-points (npk) =  40000
     Max angular momentum in pseudopotentials (lmaxx) =  3
     Reading input from pwscf.in
Warning: card &CELL ignored
Warning: card / ignored

     Subspace diagonalization in iterative solution of the eigenvalue problem:
     a serial algorithm will be used


     Parallelization info
     --------------------
     sticks:   dense  smooth     PW     G-vecs:    dense   smooth      PW
     Min        1450     467    129               343652    62241    9199
     Max        1451     468    130               343665    62278    9208
     Sum        5803    1869    517              1374641   249013   36807



     bravais-lattice index     =            0
     lattice parameter (alat)  =      12.0187  a.u.
     unit-cell volume          =    7280.5819 (a.u.)^3
     number of atoms/cell      =           31
     number of atomic types    =            3
     number of electrons       =       238.00
     number of Kohn-Sham states=          357
     kinetic-energy cutoff     =      40.0000  Ry
     charge density cutoff     =     500.0000  Ry
     convergence threshold     =      1.0E-06
     mixing beta               =       0.7000
     number of iterations used =            8  plain     mixing
     Exchange-correlation      = SLA  PW   PBE  PBE ( 1 4 3 4 0)
     EXX-fraction              =        0.00
     nstep                     =           50


     celldm(1)=  12.018658  celldm(2)=   0.000000  celldm(3)=   0.000000
     celldm(4)=   0.000000  celldm(5)=   0.000000  celldm(6)=   0.000000

     crystal axes: (cart. coord. in units of alat)
               a(1) = (   1.000000   0.000000   0.000000 )  
               a(2) = (   0.000000   1.009517   0.000000 )  
               a(3) = (   0.000000   0.000000   4.154171 )  

     reciprocal axes: (cart. coord. in units 2 pi/alat)
               b(1) = (  1.000000  0.000000  0.000000 )  
               b(2) = (  0.000000  0.990572  0.000000 )  
               b(3) = (  0.000000  0.000000  0.240722 )  


     PseudoPot. # 1 for O  read from file:
     /home/camp/zhonxu/pseudo/o_pbe_v1.01.uspp.F.UPF
     MD5 check sum: 2bcb18d16ea4b960afae9ec6d52f22d2
     Pseudo is Ultrasoft + core correction, Zval =  6.0
     Generated by new atomic code, or converted to UPF format
     Using radial grid of  737 points,  5 beta functions with: 
                l(1) =   0
                l(2) =   0
                l(3) =   1
                l(4) =   1
                l(5) =   2
     Q(r) pseudized with  8 coefficients,  rinner =    0.900   0.900   0.900
                                                       0.900   0.900

     PseudoPot. # 2 for Ir read from file:
     /home/camp/zhonxu/pseudo/ir_pbe_v1.uspp.F.UPF
     MD5 check sum: abf987a9674477536ede83817f8f8b70
     Pseudo is Ultrasoft + core correction, Zval = 15.0
     Generated by new atomic code, or converted to UPF format
     Using radial grid of  983 points,  7 beta functions with: 
                l(1) =   0
                l(2) =   0
                l(3) =   1
                l(4) =   1
                l(5) =   1
                l(6) =   2
                l(7) =   2
     Q(r) pseudized with  8 coefficients,  rinner =    1.350   1.350   1.350
                                                       1.350   1.350

     PseudoPot. # 3 for H  read from file:
     /home/camp/zhonxu/pseudo/h_pbe_v1.uspp.F.UPF
     MD5 check sum: 3408e3ff4ec8b0a4e358431e7e038a48
     Pseudo is Ultrasoft, Zval =  1.0
     Generated by new atomic code, or converted to UPF format
     Using radial grid of  615 points,  2 beta functions with: 
                l(1) =   0
                l(2) =   0
     Q(r) pseudized with  8 coefficients,  rinner =    0.700

     atomic species   valence    mass     pseudopotential
        O0             6.00    15.99940     O ( 1.00)
        Ir1           15.00   192.22000     Ir( 1.00)
        H2             1.00     1.00794     H ( 1.00)


     Simplified LDA+U calculation (l_max = 2) with parameters (eV):
     atomic species    L          U    alpha       J0     beta
        Ir1            2     1.5000   0.0000   0.0000   0.0000



     No symmetry found



   Cartesian axes

     site n.     atom                  positions (alat units)
         1           O0  tau(   1) = (   0.0000000   0.0000000   1.5706091  )
         2           O0  tau(   2) = (   0.0000000   0.5047586   1.6747957  )
         3           Ir1 tau(   3) = (   0.2500000   0.5047586   1.8830443  )
         4           Ir1 tau(   4) = (   0.0000000   0.0000000   1.8812580  )
         5           O0  tau(   5) = (   0.2500000   0.8177090   1.8812996  )
         6           O0  tau(   6) = (   0.2500000   0.1918083   1.8799287  )
         7           O0  tau(   7) = (   0.0000000   0.5047586   2.0722253  )
         8           O0  tau(   8) = (   0.0000000   0.0000000   2.1948149  )
         9           Ir1 tau(   9) = (   0.2500000   0.0000000   2.3898532  )
        10           Ir1 tau(  10) = (   0.0000000   0.5047586   2.3761029  )
        11           O0  tau(  11) = (   0.2500000   0.6965669   2.3876930  )
        12           O0  tau(  12) = (   0.2500000   0.3129503   2.3878177  )
        13           O0  tau(  13) = (   0.0000000   0.0000000   2.5742569  )
        14           O0  tau(  14) = (   0.5000000   0.0000000   1.5702768  )
        15           O0  tau(  15) = (   0.5000000   0.5047586   1.6724694  )
        16           Ir1 tau(  16) = (   0.7500000   0.5047586   1.8830859  )
        17           Ir1 tau(  17) = (   0.5000000   0.0000000   1.8811334  )
        18           O0  tau(  18) = (   0.7500000   0.8177090   1.8813411  )
        19           O0  tau(  19) = (   0.7500000   0.1918083   1.8799702  )
        20           O0  tau(  20) = (   0.5000000   0.5047586   2.0802013  )
        21           O0  tau(  21) = (   0.5000000   0.0000000   2.1944825  )
        22           Ir1 tau(  22) = (   0.7500000   0.0000000   2.3898532  )
        23           Ir1 tau(  23) = (   0.5000000   0.5047586   2.4038943  )
        24           O0  tau(  24) = (   0.7500000   0.6965669   2.3876515  )
        25           O0  tau(  25) = (   0.7500000   0.3129503   2.3878177  )
        26           O0  tau(  26) = (   0.5000000   0.0000000   2.5734260  )
        27           H2  tau(  27) = (  -0.0000700   0.6394282   1.5957418  )
        28           H2  tau(  28) = (   0.4999700   0.6419823   1.5977358  )
        29           H2  tau(  29) = (   0.1436200   0.0342933   1.5227115  )
        30           H2  tau(  30) = (   0.6432900   0.0353230   1.5222545  )
        31           O0  tau(  31) = (   0.5000100   0.5042640   2.6822238  )

     number of k points=    10  Methfessel-Paxton smearing, width (Ry)=  0.0100
                       cart. coord. in units 2pi/alat
        k(    1) = (   0.0000000   0.0000000   0.0000000), wk =   0.1250000
        k(    2) = (   0.0000000   0.2476431   0.0000000), wk =   0.2500000
        k(    3) = (   0.0000000  -0.4952862   0.0000000), wk =   0.1250000
        k(    4) = (   0.2500000   0.0000000   0.0000000), wk =   0.2500000
        k(    5) = (   0.2500000   0.2476431   0.0000000), wk =   0.2500000
        k(    6) = (   0.2500000  -0.4952862   0.0000000), wk =   0.2500000
        k(    7) = (  -0.5000000   0.0000000   0.0000000), wk =   0.1250000
        k(    8) = (  -0.5000000   0.2476431   0.0000000), wk =   0.2500000
        k(    9) = (  -0.5000000  -0.4952862   0.0000000), wk =   0.1250000
        k(   10) = (  -0.2500000   0.2476431   0.0000000), wk =   0.2500000

     Dense  grid:  1374641 G-vectors     FFT dimensions: (  90,  90, 360)

     Smooth grid:   249013 G-vectors     FFT dimensions: (  50,  50, 216)

     Largest allocated arrays     est. size (Mb)     dimensions
        Kohn-Sham Wavefunctions        42.85 Mb     (   7867,  357)
        Atomic wavefunctions           21.13 Mb     (   7867,  176)
        NL pseudopotentials            50.78 Mb     (   7867,  423)
        Each V/rho on FFT grid         11.12 Mb     ( 729000)
        Each G-vector array             2.62 Mb     ( 343661)
        G-vector shells                 1.13 Mb     ( 148760)
     Largest temporary arrays     est. size (Mb)     dimensions
        Auxiliary wavefunctions       171.42 Mb     (   7867, 1428)
        Each subspace H/S matrix       31.12 Mb     (1428,1428)
        Each <psi_i|beta_j> matrix      2.30 Mb     (    423,  357)
        Arrays for rho mixing          88.99 Mb     ( 729000,   8)

     Check: negative/imaginary core charge=   -0.000003    0.000000

     Initial potential from superposition of free atoms
     Check: negative starting charge=   -3.336659

     starting charge  233.99968, renormalised to  238.00000

     negative rho (up, down):  0.339E+01 0.000E+00
     Number of +U iterations with fixed ns =  0
     Starting occupations:
 --- enter write_ns ---
 LDA+U parameters:
U( 2)     =  1.50000000
alpha( 2) =  0.00000000
atom    3   Tr[ns(na)] =   7.00000
    eigenvalues: 
  0.700  0.700  0.700  0.700  0.700
    eigenvectors:
  1.000  0.000  0.000  0.000  0.000
  0.000  1.000  0.000  0.000  0.000
  0.000  0.000  1.000  0.000  0.000
  0.000  0.000  0.000  1.000  0.000
  0.000  0.000  0.000  0.000  1.000
    occupations:
  0.700  0.000  0.000  0.000  0.000
  0.000  0.700  0.000  0.000  0.000
  0.000  0.000  0.700  0.000  0.000
  0.000  0.000  0.000  0.700  0.000
  0.000  0.000  0.000  0.000  0.700
atom    4   Tr[ns(na)] =   7.00000
    eigenvalues: 
  0.700  0.700  0.700  0.700  0.700
    eigenvectors:
  1.000  0.000  0.000  0.000  0.000
  0.000  1.000  0.000  0.000  0.000
  0.000  0.000  1.000  0.000  0.000
  0.000  0.000  0.000  1.000  0.000
  0.000  0.000  0.000  0.000  1.000
    occupations:
  0.700  0.000  0.000  0.000  0.000
  0.000  0.700  0.000  0.000  0.000
  0.000  0.000  0.700  0.000  0.000
  0.000  0.000  0.000  0.700  0.000
  0.000  0.000  0.000  0.000  0.700
atom    9   Tr[ns(na)] =   7.00000
    eigenvalues: 
  0.700  0.700  0.700  0.700  0.700
    eigenvectors:
  1.000  0.000  0.000  0.000  0.000
  0.000  1.000  0.000  0.000  0.000
  0.000  0.000  1.000  0.000  0.000
  0.000  0.000  0.000  1.000  0.000
  0.000  0.000  0.000  0.000  1.000
    occupations:
  0.700  0.000  0.000  0.000  0.000
  0.000  0.700  0.000  0.000  0.000
  0.000  0.000  0.700  0.000  0.000
  0.000  0.000  0.000  0.700  0.000
  0.000  0.000  0.000  0.000  0.700
atom   10   Tr[ns(na)] =   7.00000
    eigenvalues: 
  0.700  0.700  0.700  0.700  0.700
    eigenvectors:
  1.000  0.000  0.000  0.000  0.000
  0.000  1.000  0.000  0.000  0.000
  0.000  0.000  1.000  0.000  0.000
  0.000  0.000  0.000  1.000  0.000
  0.000  0.000  0.000  0.000  1.000
    occupations:
  0.700  0.000  0.000  0.000  0.000
  0.000  0.700  0.000  0.000  0.000
  0.000  0.000  0.700  0.000  0.000
  0.000  0.000  0.000  0.700  0.000
  0.000  0.000  0.000  0.000  0.700
atom   16   Tr[ns(na)] =   7.00000
    eigenvalues: 
  0.700  0.700  0.700  0.700  0.700
    eigenvectors:
  1.000  0.000  0.000  0.000  0.000
  0.000  1.000  0.000  0.000  0.000
  0.000  0.000  1.000  0.000  0.000
  0.000  0.000  0.000  1.000  0.000
  0.000  0.000  0.000  0.000  1.000
    occupations:
  0.700  0.000  0.000  0.000  0.000
  0.000  0.700  0.000  0.000  0.000
  0.000  0.000  0.700  0.000  0.000
  0.000  0.000  0.000  0.700  0.000
  0.000  0.000  0.000  0.000  0.700
atom   17   Tr[ns(na)] =   7.00000
    eigenvalues: 
  0.700  0.700  0.700  0.700  0.700
    eigenvectors:
  1.000  0.000  0.000  0.000  0.000
  0.000  1.000  0.000  0.000  0.000
  0.000  0.000  1.000  0.000  0.000
  0.000  0.000  0.000  1.000  0.000
  0.000  0.000  0.000  0.000  1.000
    occupations:
  0.700  0.000  0.000  0.000  0.000
  0.000  0.700  0.000  0.000  0.000
  0.000  0.000  0.700  0.000  0.000
  0.000  0.000  0.000  0.700  0.000
  0.000  0.000  0.000  0.000  0.700
atom   22   Tr[ns(na)] =   7.00000
    eigenvalues: 
  0.700  0.700  0.700  0.700  0.700
    eigenvectors:
  1.000  0.000  0.000  0.000  0.000
  0.000  1.000  0.000  0.000  0.000
  0.000  0.000  1.000  0.000  0.000
  0.000  0.000  0.000  1.000  0.000
  0.000  0.000  0.000  0.000  1.000
    occupations:
  0.700  0.000  0.000  0.000  0.000
  0.000  0.700  0.000  0.000  0.000
  0.000  0.000  0.700  0.000  0.000
  0.000  0.000  0.000  0.700  0.000
  0.000  0.000  0.000  0.000  0.700
atom   23   Tr[ns(na)] =   7.00000
    eigenvalues: 
  0.700  0.700  0.700  0.700  0.700
    eigenvectors:
  1.000  0.000  0.000  0.000  0.000
  0.000  1.000  0.000  0.000  0.000
  0.000  0.000  1.000  0.000  0.000
  0.000  0.000  0.000  1.000  0.000
  0.000  0.000  0.000  0.000  1.000
    occupations:
  0.700  0.000  0.000  0.000  0.000
  0.000  0.700  0.000  0.000  0.000
  0.000  0.000  0.700  0.000  0.000
  0.000  0.000  0.000  0.700  0.000
  0.000  0.000  0.000  0.000  0.700
N of occupied +U levels =  56.0000000
 --- exit write_ns ---
 Atomic wfc used for LDA+U Projector are NOT orthogonalized
     Starting wfc are  176 randomized atomic wfcs

     total cpu time spent up to now is      120.9 secs

     per-process dynamical memory:   430.1 Mb

     Self-consistent Calculation

     iteration #  1     ecut=    40.00 Ry     beta=0.70
     Davidson diagonalization with overlap
     ethr =  1.00E-02,  avg # of iterations =  8.1
 --- enter write_ns ---
 LDA+U parameters:
U( 2)     =  1.50000000
alpha( 2) =  0.00000000
atom    3   Tr[ns(na)] =   6.37905
    eigenvalues: 
  0.424  0.465  0.656  0.815  0.829
    eigenvectors:
  0.001  0.174  0.006  0.037  0.782
  0.997  0.003  0.000  0.000  0.000
  0.000  0.000  0.988  0.002  0.010
  0.002  0.823  0.002  0.008  0.165
  0.000  0.000  0.004  0.954  0.042
    occupations:
  0.764  0.001  0.014 -0.137 -0.002
  0.001  0.424  0.001  0.002 -0.004
  0.014  0.001  0.658 -0.006 -0.010
 -0.137  0.002 -0.006  0.528  0.001
 -0.002 -0.004 -0.010  0.001  0.815
atom    4   Tr[ns(na)] =   5.88992
    eigenvalues: 
  0.451  0.474  0.490  0.692  0.838
    eigenvectors:
  0.000  0.986  0.002  0.000  0.012
  0.000  0.000  0.014  0.986  0.000
  0.000  0.002  0.983  0.014  0.000
  0.000  0.012  0.001  0.000  0.987
  1.000  0.000  0.000  0.000  0.000
    occupations:
  0.478 -0.002  0.001  0.040  0.000
 -0.002  0.690  0.024 -0.000 -0.001
  0.001  0.024  0.493  0.007  0.000
  0.040 -0.000  0.007  0.833 -0.000
  0.000 -0.001  0.000 -0.000  0.451
atom    9   Tr[ns(na)] =   7.38265
    eigenvalues: 
  0.461  0.483  0.881  0.905  0.961
    eigenvectors:
  0.000  0.148  0.000  0.000  0.852
  0.997  0.003  0.000  0.000  0.000
  0.000  0.000  0.742  0.258  0.000
  0.002  0.849  0.000  0.000  0.148
  0.000  0.000  0.258  0.742  0.000
    occupations:
  0.890 -0.001  0.000 -0.170  0.000
 -0.001  0.461 -0.000 -0.001 -0.000
  0.000 -0.000  0.887 -0.000 -0.010
 -0.170 -0.001 -0.000  0.554  0.000
  0.000 -0.000 -0.010  0.000  0.899
atom   10   Tr[ns(na)] =   7.70279
    eigenvalues: 
  0.456  0.568  0.920  0.947  0.961
    eigenvectors:
  0.000  0.984  0.000  0.000  0.016
  0.000  0.000  0.000  1.000  0.000
  0.000  0.000  1.000  0.000  0.000
  0.000  0.016  0.000  0.000  0.984
  1.000  0.000  0.000  0.000  0.000
    occupations:
  0.575  0.000  0.002  0.049 -0.000
  0.000  0.947 -0.000  0.000 -0.000
  0.002 -0.000  0.920 -0.000  0.000
  0.049  0.000 -0.000  0.955  0.000
 -0.000 -0.000  0.000  0.000  0.456
atom   16   Tr[ns(na)] =   6.37866
    eigenvalues: 
  0.424  0.465  0.656  0.815  0.829
    eigenvectors:
  0.001  0.174  0.007  0.035  0.784
  0.997  0.003  0.000  0.000  0.000
  0.000  0.000  0.988  0.001  0.011
  0.002  0.823  0.002  0.007  0.166
  0.000  0.000  0.003  0.957  0.040
    occupations:
  0.764 -0.001  0.015 -0.137  0.002
 -0.001  0.424 -0.001 -0.002 -0.004
  0.015 -0.001  0.658 -0.006  0.009
 -0.137 -0.002 -0.006  0.528 -0.001
  0.002 -0.004  0.009 -0.001  0.815
atom   17   Tr[ns(na)] =   5.87844
    eigenvalues: 
  0.452  0.473  0.482  0.697  0.835
    eigenvectors:
  0.000  0.986  0.001  0.000  0.012
  0.000  0.000  0.017  0.983  0.000
  0.000  0.001  0.980  0.017  0.001
  0.000  0.012  0.001  0.000  0.987
  1.000  0.000  0.000  0.000  0.000
    occupations:
  0.478 -0.002  0.001  0.040  0.000
 -0.002  0.693  0.028 -0.000 -0.001
  0.001  0.028  0.486  0.010  0.001
  0.040 -0.000  0.010  0.830  0.000
  0.000 -0.001  0.001  0.000  0.452
atom   22   Tr[ns(na)] =   7.38272
    eigenvalues: 
  0.461  0.483  0.881  0.905  0.961
    eigenvectors:
  0.001  0.148  0.000  0.000  0.852
  0.996  0.004  0.000  0.000  0.000
  0.000  0.000  0.750  0.250  0.000
  0.004  0.848  0.000  0.000  0.148
  0.000  0.000  0.250  0.750  0.000
    occupations:
  0.890  0.001  0.000 -0.170  0.001
  0.001  0.461  0.001  0.001 -0.000
  0.000  0.001  0.887 -0.000  0.010
 -0.170  0.001 -0.000  0.554  0.000
  0.001 -0.000  0.010  0.000  0.899
atom   23   Tr[ns(na)] =   7.05223
    eigenvalues: 
  0.449  0.523  0.770  0.826  0.959
    eigenvectors:
  0.000  0.986  0.000  0.000  0.014
  0.000  0.000  0.000  1.000  0.000
  0.000  0.000  1.000  0.000  0.000
  0.000  0.014  0.000  0.000  0.986
  1.000  0.000  0.000  0.000  0.000
    occupations:
  0.529  0.000 -0.001  0.051  0.000
  0.000  0.826  0.001  0.000 -0.000
 -0.001  0.001  0.770 -0.001  0.000
  0.051  0.000 -0.001  0.952  0.000
  0.000 -0.000  0.000  0.000  0.449
N of occupied +U levels =  54.0464631
 --- exit write_ns ---

     negative rho (up, down):  0.291E+01 0.000E+00

     total cpu time spent up to now is      510.2 secs

     total energy              =   -2087.13356831 Ry
     Harris-Foulkes estimate   =   -2110.56095501 Ry
     estimated scf accuracy    <      28.02795611 Ry

     iteration #  2     ecut=    40.00 Ry     beta=0.70
     Davidson diagonalization with overlap
     ethr =  1.00E-02,  avg # of iterations =  4.0

     negative rho (up, down):  0.276E+01 0.000E+00

     total cpu time spent up to now is      820.5 secs

     total energy              =   -2000.66263758 Ry
     Harris-Foulkes estimate   =   -2222.96465847 Ry
     estimated scf accuracy    <    2475.09742220 Ry

     iteration #  3     ecut=    40.00 Ry     beta=0.70
     Davidson diagonalization with overlap
     ethr =  1.00E-02,  avg # of iterations =  5.0

     negative rho (up, down):  0.239E+01 0.000E+00

     total cpu time spent up to now is     1173.3 secs

     total energy              =   -2075.52211297 Ry
     Harris-Foulkes estimate   =   -2131.44132533 Ry
     estimated scf accuracy    <     411.81843936 Ry

     iteration #  4     ecut=    40.00 Ry     beta=0.70
     Davidson diagonalization with overlap
     ethr =  1.00E-02,  avg # of iterations =  3.4

     negative rho (up, down):  0.251E+01 0.000E+00

     total cpu time spent up to now is     1395.7 secs

     total energy              =   -2103.13049455 Ry
     Harris-Foulkes estimate   =   -2108.32239786 Ry
     estimated scf accuracy    <      19.47845702 Ry

     iteration #  5     ecut=    40.00 Ry     beta=0.70
     Davidson diagonalization with overlap
     ethr =  8.18E-03,  avg # of iterations =  1.7

     negative rho (up, down):  0.265E+01 0.000E+00

     total cpu time spent up to now is     1578.0 secs

     total energy              =   -2105.19820739 Ry
     Harris-Foulkes estimate   =   -2106.43303948 Ry
     estimated scf accuracy    <      11.52774693 Ry

     iteration #  6     ecut=    40.00 Ry     beta=0.70
     Davidson diagonalization with overlap
     ethr =  4.84E-03,  avg # of iterations =  1.2

     negative rho (up, down):  0.271E+01 0.000E+00

     total cpu time spent up to now is     1756.3 secs

     total energy              =   -2105.42160851 Ry
     Harris-Foulkes estimate   =   -2106.02131124 Ry
     estimated scf accuracy    <       3.14683716 Ry

     iteration #  7     ecut=    40.00 Ry     beta=0.70
     Davidson diagonalization with overlap
     ethr =  1.32E-03,  avg # of iterations =  4.1

     negative rho (up, down):  0.274E+01 0.000E+00

     total cpu time spent up to now is     1953.2 secs

     total energy              =   -2105.48647494 Ry
     Harris-Foulkes estimate   =   -2105.81429276 Ry
     estimated scf accuracy    <       2.54700728 Ry

     iteration #  8     ecut=    40.00 Ry     beta=0.70
     Davidson diagonalization with overlap
     ethr =  1.07E-03,  avg # of iterations =  1.1

     negative rho (up, down):  0.281E+01 0.000E+00

     total cpu time spent up to now is     2140.3 secs

     total energy              =   -2105.56199093 Ry
     Harris-Foulkes estimate   =   -2105.77478225 Ry
     estimated scf accuracy    <       1.51061323 Ry

     iteration #  9     ecut=    40.00 Ry     beta=0.70
     Davidson diagonalization with overlap
     ethr =  6.35E-04,  avg # of iterations =  1.2

     negative rho (up, down):  0.287E+01 0.000E+00

     total cpu time spent up to now is     2327.2 secs

     total energy              =   -2105.53169004 Ry
     Harris-Foulkes estimate   =   -2105.69098420 Ry
     estimated scf accuracy    <       1.02689892 Ry

     iteration # 10     ecut=    40.00 Ry     beta=0.70
     Davidson diagonalization with overlap
     ethr =  4.31E-04,  avg # of iterations =  1.5

     negative rho (up, down):  0.296E+01 0.000E+00

     total cpu time spent up to now is     2518.5 secs

     total energy              =   -2105.55291844 Ry
     Harris-Foulkes estimate   =   -2105.64274511 Ry
     estimated scf accuracy    <       1.03319956 Ry

     iteration # 11     ecut=    40.00 Ry     beta=0.70
     Davidson diagonalization with overlap
     ethr =  4.31E-04,  avg # of iterations =  1.9

     negative rho (up, down):  0.306E+01 0.000E+00

     total cpu time spent up to now is     2702.3 secs

     total energy              =   -2105.54535731 Ry
     Harris-Foulkes estimate   =   -2105.60434598 Ry
     estimated scf accuracy    <       0.45646191 Ry

     iteration # 12     ecut=    40.00 Ry     beta=0.70
     Davidson diagonalization with overlap
     ethr =  1.92E-04,  avg # of iterations =  5.1

     negative rho (up, down):  0.312E+01 0.000E+00

     total cpu time spent up to now is     2907.8 secs

     total energy              =   -2105.54534104 Ry
     Harris-Foulkes estimate   =   -2105.57751696 Ry
     estimated scf accuracy    <       0.15319437 Ry

     iteration # 13     ecut=    40.00 Ry     beta=0.70
     Davidson diagonalization with overlap
     ethr =  6.44E-05,  avg # of iterations =  4.4

     negative rho (up, down):  0.310E+01 0.000E+00

     total cpu time spent up to now is     3110.3 secs

     total energy              =   -2105.52709136 Ry
     Harris-Foulkes estimate   =   -2105.58048589 Ry
     estimated scf accuracy    <       0.36246594 Ry

     iteration # 14     ecut=    40.00 Ry     beta=0.70
     Davidson diagonalization with overlap
     ethr =  6.44E-05,  avg # of iterations =  2.6

     negative rho (up, down):  0.311E+01 0.000E+00

     total cpu time spent up to now is     3302.2 secs

     total energy              =   -2105.53676666 Ry
     Harris-Foulkes estimate   =   -2105.57501086 Ry
     estimated scf accuracy    <       0.31620884 Ry

     iteration # 15     ecut=    40.00 Ry     beta=0.70
     Davidson diagonalization with overlap
     ethr =  6.44E-05,  avg # of iterations =  1.5

     negative rho (up, down):  0.312E+01 0.000E+00

     total cpu time spent up to now is     3483.3 secs

     total energy              =   -2105.55263284 Ry
     Harris-Foulkes estimate   =   -2105.56566960 Ry
     estimated scf accuracy    <       0.08487901 Ry

     iteration # 16     ecut=    40.00 Ry     beta=0.70
     Davidson diagonalization with overlap
     ethr =  3.57E-05,  avg # of iterations =  1.2

     negative rho (up, down):  0.312E+01 0.000E+00

     total cpu time spent up to now is     3668.3 secs

     total energy              =   -2105.55397085 Ry
     Harris-Foulkes estimate   =   -2105.56265863 Ry
     estimated scf accuracy    <       0.04279411 Ry

     iteration # 17     ecut=    40.00 Ry     beta=0.70
     Davidson diagonalization with overlap
     ethr =  1.80E-05,  avg # of iterations =  1.2

     negative rho (up, down):  0.312E+01 0.000E+00

     total cpu time spent up to now is     3850.3 secs

     total energy              =   -2105.54725593 Ry
     Harris-Foulkes estimate   =   -2105.56979863 Ry
     estimated scf accuracy    <       0.22425718 Ry

     iteration # 18     ecut=    40.00 Ry     beta=0.70
     Davidson diagonalization with overlap
     ethr =  1.80E-05,  avg # of iterations =  1.0

     negative rho (up, down):  0.312E+01 0.000E+00

     total cpu time spent up to now is     4033.4 secs

     total energy              =   -2105.55802849 Ry
     Harris-Foulkes estimate   =   -2105.56028570 Ry
     estimated scf accuracy    <       0.01179121 Ry

     iteration # 19     ecut=    40.00 Ry     beta=0.70
     Davidson diagonalization with overlap
     ethr =  4.95E-06,  avg # of iterations =  1.7

     negative rho (up, down):  0.312E+01 0.000E+00

     total cpu time spent up to now is     4224.0 secs

     total energy              =   -2105.55902015 Ry
     Harris-Foulkes estimate   =   -2105.55944900 Ry
     estimated scf accuracy    <       0.00242433 Ry

     iteration # 20     ecut=    40.00 Ry     beta=0.70
     Davidson diagonalization with overlap
     ethr =  1.02E-06,  avg # of iterations =  5.5

     negative rho (up, down):  0.312E+01 0.000E+00

     total cpu time spent up to now is     4431.2 secs

     total energy              =   -2105.55892778 Ry
     Harris-Foulkes estimate   =   -2105.55947712 Ry
     estimated scf accuracy    <       0.00404661 Ry

     iteration # 21     ecut=    40.00 Ry     beta=0.70
     Davidson diagonalization with overlap
     ethr =  1.02E-06,  avg # of iterations =  1.0

     negative rho (up, down):  0.312E+01 0.000E+00

     total cpu time spent up to now is     4612.4 secs

     total energy              =   -2105.55895511 Ry
     Harris-Foulkes estimate   =   -2105.55947637 Ry
     estimated scf accuracy    <       0.00365643 Ry

     iteration # 22     ecut=    40.00 Ry     beta=0.70
     Davidson diagonalization with overlap
     ethr =  1.02E-06,  avg # of iterations =  1.7

     negative rho (up, down):  0.312E+01 0.000E+00

     total cpu time spent up to now is     4799.7 secs

     total energy              =   -2105.55908678 Ry
     Harris-Foulkes estimate   =   -2105.55933662 Ry
     estimated scf accuracy    <       0.00282554 Ry

     iteration # 23     ecut=    40.00 Ry     beta=0.70
     Davidson diagonalization with overlap
     ethr =  1.02E-06,  avg # of iterations =  1.0

     negative rho (up, down):  0.313E+01 0.000E+00

     total cpu time spent up to now is     4988.7 secs

     total energy              =   -2105.55902310 Ry
     Harris-Foulkes estimate   =   -2105.55943097 Ry
     estimated scf accuracy    <       0.00295718 Ry

     iteration # 24     ecut=    40.00 Ry     beta=0.70
     Davidson diagonalization with overlap
     ethr =  1.02E-06,  avg # of iterations =  1.0

     negative rho (up, down):  0.313E+01 0.000E+00

     total cpu time spent up to now is     5178.1 secs

     total energy              =   -2105.55919032 Ry
     Harris-Foulkes estimate   =   -2105.55928322 Ry
     estimated scf accuracy    <       0.00084906 Ry

     iteration # 25     ecut=    40.00 Ry     beta=0.70
     Davidson diagonalization with overlap
     ethr =  3.57E-07,  avg # of iterations =  1.0

     negative rho (up, down):  0.313E+01 0.000E+00

     total cpu time spent up to now is     5367.6 secs

     total energy              =   -2105.55923211 Ry
     Harris-Foulkes estimate   =   -2105.55924164 Ry
     estimated scf accuracy    <       0.00006352 Ry

     iteration # 26     ecut=    40.00 Ry     beta=0.70
     Davidson diagonalization with overlap
     ethr =  2.67E-08,  avg # of iterations =  1.0

     negative rho (up, down):  0.313E+01 0.000E+00

     total cpu time spent up to now is     5556.8 secs

     total energy              =   -2105.55923130 Ry
     Harris-Foulkes estimate   =   -2105.55924075 Ry
     estimated scf accuracy    <       0.00003401 Ry

     iteration # 27     ecut=    40.00 Ry     beta=0.70
     Davidson diagonalization with overlap
     ethr =  1.43E-08,  avg # of iterations =  1.6

     negative rho (up, down):  0.313E+01 0.000E+00

     total cpu time spent up to now is     5749.7 secs

     total energy              =   -2105.55921956 Ry
     Harris-Foulkes estimate   =   -2105.55925691 Ry
     estimated scf accuracy    <       0.00025724 Ry

     iteration # 28     ecut=    40.00 Ry     beta=0.70
     Davidson diagonalization with overlap
     ethr =  1.43E-08,  avg # of iterations =  1.1

     negative rho (up, down):  0.313E+01 0.000E+00

     total cpu time spent up to now is     5939.1 secs

     total energy              =   -2105.55923651 Ry
     Harris-Foulkes estimate   =   -2105.55923829 Ry
     estimated scf accuracy    <       0.00000922 Ry

     iteration # 29     ecut=    40.00 Ry     beta=0.70
     Davidson diagonalization with overlap
     ethr =  3.87E-09,  avg # of iterations =  1.3

     negative rho (up, down):  0.313E+01 0.000E+00

     total cpu time spent up to now is     6129.4 secs

     total energy              =   -2105.55923546 Ry
     Harris-Foulkes estimate   =   -2105.55924015 Ry
     estimated scf accuracy    <       0.00003249 Ry

     iteration # 30     ecut=    40.00 Ry     beta=0.70
     Davidson diagonalization with overlap
     ethr =  3.87E-09,  avg # of iterations =  1.0

     negative rho (up, down):  0.313E+01 0.000E+00

     total cpu time spent up to now is     6318.5 secs

     total energy              =   -2105.55923766 Ry
     Harris-Foulkes estimate   =   -2105.55923795 Ry
     estimated scf accuracy    <       0.00000117 Ry

     iteration # 31     ecut=    40.00 Ry     beta=0.70
     Davidson diagonalization with overlap
     ethr =  4.90E-10,  avg # of iterations =  1.0

     negative rho (up, down):  0.313E+01 0.000E+00

     total cpu time spent up to now is     6508.1 secs

     total energy              =   -2105.55923765 Ry
     Harris-Foulkes estimate   =   -2105.55923800 Ry
     estimated scf accuracy    <       0.00000218 Ry

     iteration # 32     ecut=    40.00 Ry     beta=0.70
     Davidson diagonalization with overlap
     ethr =  4.90E-10,  avg # of iterations =  1.0

     negative rho (up, down):  0.313E+01 0.000E+00

     total cpu time spent up to now is     6726.4 secs

     End of self-consistent calculation
 --- enter write_ns ---
 LDA+U parameters:
U( 2)     =  1.50000000
alpha( 2) =  0.00000000
atom    3   Tr[ns(na)] =   8.08686
    eigenvalues: 
  0.605  0.631  0.878  0.956  0.974
    eigenvectors:
  0.003  0.184  0.003  0.001  0.810
  0.991  0.009  0.000  0.000  0.000
  0.000  0.000  0.983  0.014  0.003
  0.007  0.807  0.000  0.000  0.186
  0.000  0.000  0.014  0.985  0.001
    occupations:
  0.910 -0.005  0.004 -0.134 -0.001
 -0.005  0.605 -0.001 -0.000 -0.005
  0.004 -0.001  0.879 -0.004  0.009
 -0.134 -0.000 -0.004  0.695 -0.000
 -0.001 -0.005  0.009 -0.000  0.955
atom    4   Tr[ns(na)] =   8.06693
    eigenvalues: 
  0.618  0.664  0.857  0.914  0.980
    eigenvectors:
  0.000  0.989  0.000  0.000  0.010
  0.000  0.000  0.037  0.963  0.000
  0.000  0.000  0.963  0.037  0.000
  0.000  0.010  0.000  0.000  0.990
  1.000  0.000  0.000  0.000  0.000
    occupations:
  0.668 -0.003 -0.001  0.032  0.001
 -0.003  0.912  0.011  0.000 -0.001
 -0.001  0.011  0.859 -0.000  0.000
  0.032  0.000 -0.000  0.977  0.000
  0.001 -0.001  0.000  0.000  0.618
atom    9   Tr[ns(na)] =   8.04796
    eigenvalues: 
  0.650  0.665  0.845  0.887  0.977
    eigenvectors:
  0.000  0.140  0.000  0.000  0.859
  0.999  0.001  0.000  0.000  0.000
  0.000  0.000  0.973  0.027  0.000
  0.001  0.859  0.000  0.000  0.141
  0.000  0.000  0.027  0.973  0.000
    occupations:
  0.933  0.001 -0.000 -0.109 -0.001
  0.001  0.650  0.000  0.000 -0.000
 -0.000  0.000  0.846 -0.000 -0.007
 -0.109  0.000 -0.000  0.709  0.001
 -0.001 -0.000 -0.007  0.001  0.886
atom   10   Tr[ns(na)] =   8.04842
    eigenvalues: 
  0.587  0.606  0.926  0.927  0.978
    eigenvectors:
  0.992  0.000  0.000  0.000  0.008
  0.000  0.000  0.067  0.933  0.000
  0.000  0.000  0.933  0.067  0.000
  0.008  0.000  0.000  0.000  0.992
  0.000  1.000  0.000  0.000  0.000
    occupations:
  0.591  0.000  0.001  0.036 -0.000
  0.000  0.927 -0.000  0.000 -0.000
  0.001 -0.000  0.926  0.000  0.000
  0.036  0.000  0.000  0.975 -0.000
 -0.000 -0.000  0.000 -0.000  0.606
atom   16   Tr[ns(na)] =   8.08675
    eigenvalues: 
  0.605  0.631  0.878  0.956  0.974
    eigenvectors:
  0.003  0.184  0.003  0.001  0.810
  0.991  0.008  0.000  0.000  0.000
  0.000  0.000  0.986  0.011  0.003
  0.006  0.807  0.000  0.000  0.186
  0.000  0.000  0.011  0.988  0.002
    occupations:
  0.910  0.005  0.004 -0.134  0.001
  0.005  0.605  0.000  0.000 -0.005
  0.004  0.000  0.879 -0.004 -0.008
 -0.134  0.000 -0.004  0.695 -0.000
  0.001 -0.005 -0.008 -0.000  0.955
atom   17   Tr[ns(na)] =   8.06458
    eigenvalues: 
  0.618  0.665  0.860  0.909  0.981
    eigenvectors:
  0.000  0.990  0.000  0.000  0.010
  0.000  0.000  0.058  0.942  0.000
  0.000  0.000  0.942  0.058  0.000
  0.000  0.010  0.000  0.000  0.990
  1.000  0.000  0.000  0.000  0.000
    occupations:
  0.668 -0.003 -0.001  0.031  0.001
 -0.003  0.906  0.011  0.000 -0.001
 -0.001  0.011  0.863 -0.000  0.000
  0.031  0.000 -0.000  0.977  0.000
  0.001 -0.001  0.000  0.000  0.618
atom   22   Tr[ns(na)] =   8.04798
    eigenvalues: 
  0.650  0.665  0.845  0.887  0.977
    eigenvectors:
  0.000  0.141  0.000  0.000  0.859
  1.000  0.000  0.000  0.000  0.000
  0.000  0.000  0.975  0.025  0.000
  0.000  0.859  0.000  0.000  0.141
  0.000  0.000  0.025  0.975  0.000
    occupations:
  0.933  0.000 -0.000 -0.109 -0.000
  0.000  0.650  0.000  0.000 -0.000
 -0.000  0.000  0.846 -0.000  0.007
 -0.109  0.000 -0.000  0.709  0.000
 -0.000 -0.000  0.007  0.000  0.886
atom   23   Tr[ns(na)] =   8.02301
    eigenvalues: 
  0.647  0.711  0.809  0.861  0.983
    eigenvectors:
  0.000  0.991  0.000  0.000  0.009
  0.000  0.000  0.000  1.000  0.000
  0.000  0.000  1.000  0.000  0.000
  0.000  0.009  0.000  0.000  0.991
  1.000  0.000  0.000  0.000  0.000
    occupations:
  0.714  0.000 -0.000  0.026 -0.000
  0.000  0.861 -0.000  0.000 -0.000
 -0.000 -0.000  0.809  0.000  0.000
  0.026  0.000  0.000  0.981  0.000
 -0.000 -0.000  0.000  0.000  0.647
N of occupied +U levels =  64.4724833
 --- exit write_ns ---

          k = 0.0000 0.0000 0.0000 ( 31045 PWs)   bands (ev):

   -52.3423 -52.0510 -51.9285 -51.2887 -51.2825 -51.1953 -51.1608 -51.1356
   -51.1252 -51.0917 -51.0556 -50.9822 -50.9727 -50.9692 -50.9497 -50.9018
   -50.8994 -50.8860 -50.7903 -50.7835 -50.7782 -50.7685 -50.7627 -50.6276
   -21.9143 -21.6189 -21.3712 -21.3029 -20.7533 -20.6921 -20.6736 -20.6167
   -20.5458 -20.4740 -20.3619 -20.2821 -20.0235 -19.9664 -19.8900 -19.7628
   -19.0648 -18.9399 -18.8281 -10.8139 -10.6835 -10.1912  -9.3418  -9.2678
    -9.1914  -9.1226  -9.1008  -8.9750  -8.9114  -8.8597  -8.7936  -8.7416
    -8.6755  -8.5311  -8.4162  -8.3473  -8.2303  -8.0506  -7.9646  -7.6831
    -7.4948  -7.3596  -7.3248  -6.9837  -6.6997  -6.5897  -6.3873  -6.2261
    -6.1214  -6.0066  -5.9090  -5.8585  -5.6797  -5.6384  -5.6023  -5.5014
    -5.4492  -5.3757  -5.2880  -5.1838  -5.1495  -4.8702  -4.8076  -4.7568
    -4.7250  -4.5116  -4.3976  -4.2939  -4.2671  -4.2180  -4.1434  -4.1227
    -3.9395  -3.8385  -3.7435  -3.6899  -3.6662  -3.4989  -3.4313  -3.2977
    -3.2523  -3.1809  -3.0447  -3.0170  -2.8679  -2.5852  -2.3967  -2.2372
    -2.1468  -1.9802  -1.9700  -1.8677  -1.7995  -1.3535  -1.1970  -0.9802
    -0.9436  -0.7540  -0.5744  -0.4466  -0.1695   0.6504   0.9299   1.0867
     1.1635   1.2419   1.3881   1.8472   2.0814   2.3980   2.6717   2.8457
     2.9763   2.9813   3.1477   3.5672   3.7392   4.0561   4.4189   4.9365
     5.1006   5.8617   5.9841   6.1079   6.1294   6.7280   6.8575   7.0979
     7.4671   7.5992   7.7031   7.7078   7.7990   7.8027   7.8067   7.9474
     7.9790   8.1175   8.1187   8.1414   8.2479   8.2960   8.3858   8.4335
     8.4705   8.6097   8.6730   8.6904   8.7708   8.7803   8.7840   8.8023
     8.8036   8.9373   8.9726   8.9750   8.9926   9.0409   9.1504   9.2011
     9.2670   9.2920   9.3937   9.4394   9.5649   9.8320   9.8619   9.9126
    10.0565  10.1948  10.2691  10.3210  10.4537  10.5492  10.7154  10.7513
    10.8976  10.9999  11.0733  11.1249  11.1502  11.1653  11.2018  11.2412
    11.3505  11.5237  11.6571  11.6590  11.7274  11.7778  11.8264  11.9430
    12.0110  12.0971  12.1286  12.1562  12.1959  12.3131  12.3678  12.3953
    12.5013  12.5135  12.5402  12.6281  12.7705  12.8242  12.8565  12.8773
    12.9513  13.1104  13.2165  13.3486  13.4272  13.6534  13.6994  13.7400
    13.7455  13.9000  13.9093  14.0576  14.1455  14.1898  14.3615  14.3962
    14.5043  14.5863  14.6178  14.6379  14.7289  14.9347  14.9495  15.0886
    15.2482  15.3507  15.3920  15.4934  15.5378  15.7042  15.7280  15.7831
    15.9066  15.9500  16.0356  16.0832  16.2293  16.2504  16.3527  16.4719
    16.5786  16.7432  16.7709  16.8792  17.0643  17.1451  17.2333  17.2459
    17.2986  17.3625  17.4152  17.5749  17.6329  17.6398  17.6956  17.8586
    17.9484  17.9641  18.1036  18.2581  18.3383  18.4567  18.5340  18.5664
    18.6427  18.6541  18.7514  18.7828  18.9061  18.9559  19.0143  19.0730
    19.1008  19.1746  19.2195  19.2562  19.2829  19.3988  19.4625  19.4681
    19.6114  19.6621  19.6833  19.7557  19.8125  19.8565  19.8622  19.8691
    19.9340  20.0268  20.0648  20.1169  20.2730  20.3870  20.4524  20.4722
    20.4938  20.5317  20.6108  20.6756  20.7264  20.7785  20.8625  20.9588
    21.0527  21.1102  21.1875  21.2320  21.2916  21.3505  21.3982  21.5466
    21.5732  21.6785  21.7027  21.7727  21.7988  21.9022  21.9408  21.9918
    22.0068  22.0965  22.1654  22.1991  22.2429

          k = 0.0000 0.2476 0.0000 ( 31078 PWs)   bands (ev):

   -52.3423 -52.0510 -51.9283 -51.2890 -51.2824 -51.1955 -51.1606 -51.1357
   -51.1252 -51.0916 -51.0556 -50.9821 -50.9702 -50.9692 -50.9492 -50.9042
   -50.9000 -50.8853 -50.7904 -50.7836 -50.7783 -50.7685 -50.7627 -50.6277
   -21.8283 -21.4937 -21.3510 -21.3018 -20.8291 -20.7747 -20.7638 -20.7076
   -20.3830 -20.3618 -20.3290 -20.2986 -20.1199 -20.0741 -19.9889 -19.7637
   -19.0577 -18.9427 -18.8288 -10.3419 -10.2978 -10.0878  -9.6796  -9.4325
    -9.2382  -9.1928  -9.1231  -9.0430  -8.8921  -8.7738  -8.7571  -8.5697
    -8.5183  -8.4130  -8.3595  -8.3052  -8.1542  -7.9150  -7.6357  -7.5151
    -7.4581  -7.3383  -7.0318  -7.0142  -6.8013  -6.7180  -6.6788  -6.4760
    -6.4641  -6.3218  -6.0694  -6.0500  -5.9446  -5.8582  -5.7542  -5.6361
    -5.5795  -5.4256  -5.4132  -5.3057  -5.2563  -4.9718  -4.8509  -4.7559
    -4.7354  -4.6490  -4.4906  -4.3385  -4.3094  -4.2038  -4.1476  -4.1256
    -3.8875  -3.7225  -3.6419  -3.4499  -3.2816  -3.2288  -3.1861  -3.1425
    -3.0670  -3.0377  -3.0295  -2.9911  -2.8840  -2.8657  -2.6827  -2.5904
    -2.4240  -1.9636  -1.8591  -1.8097  -1.8041  -1.2473  -1.0410  -0.9909
    -0.8396  -0.6438  -0.5863  -0.4640  -0.3155   0.2175   0.4632   0.9554
     1.1873   1.4140   1.8898   2.3876   2.5760   2.6249   2.7604   2.8921
     2.9664   3.0515   3.1765   3.5701   3.6554   4.2120   4.6225   5.1105
     5.2733   5.3280   6.0528   6.2008   6.2562   6.4371   6.5203   6.8508
     6.9036   6.9900   7.1939   7.5417   7.6086   7.6159   7.7564   7.8065
     8.0649   8.1085   8.2201   8.2501   8.2851   8.3877   8.4662   8.5245
     8.5918   8.6740   8.7786   8.7828   8.7977   8.8030   8.8063   8.8974
     8.9384   8.9728   8.9749   8.9992   9.0842   9.1880   9.2804   9.3465
     9.3869   9.4586   9.5932   9.6501   9.7577   9.7844   9.8504  10.0332
    10.1658  10.2363  10.3121  10.3526  10.4180  10.4529  10.5156  10.6063
    10.6531  10.7489  10.8563  10.8766  11.0022  11.0287  11.1505  11.2530
    11.3419  11.3552  11.4421  11.5657  11.6877  11.6933  11.7757  11.9379
    12.0886  12.1710  12.2136  12.4017  12.4645  12.5235  12.5636  12.5850
    12.6982  12.8024  12.8890  12.9408  12.9623  13.0105  13.1885  13.2533
    13.2914  13.5812  13.6205  13.7598  13.8158  13.8337  13.8765  14.0177
    14.0301  14.1006  14.1625  14.1825  14.3292  14.4491  14.4756  14.5886
    14.6059  14.7010  14.8006  14.8285  14.8752  14.9551  15.0053  15.2372
    15.3524  15.3940  15.4531  15.6146  15.6485  15.7433  15.7837  15.8946
    15.9353  16.0342  16.1059  16.1801  16.2369  16.2557  16.3002  16.3826
    16.4282  16.4712  16.5541  16.6624  16.7201  16.8015  16.9158  17.0332
    17.0545  17.1083  17.1614  17.2477  17.2849  17.3833  17.4309  17.4887
    17.5459  17.6379  17.7112  17.7508  18.0842  18.1219  18.1524  18.3049
    18.4631  18.5088  18.5282  18.5709  18.6874  18.7576  18.8092  18.8917
    18.9176  18.9771  19.0727  19.0930  19.1621  19.2861  19.3248  19.3869
    19.4191  19.5239  19.5404  19.5539  19.6269  19.6444  19.7108  19.7232
    19.7915  19.8383  19.9275  19.9505  20.0184  20.0686  20.1023  20.1370
    20.1842  20.2050  20.3256  20.3682  20.4079  20.4801  20.7438  20.7802
    20.8106  20.8324  20.9008  20.9316  20.9658  21.0146  21.0335  21.0641
    21.0981  21.1755  21.2184  21.2781  21.3798  21.4320  21.5079  21.5780
    21.6103  21.7399  21.7792  21.8143  21.8521

          k = 0.0000-0.4953 0.0000 ( 31160 PWs)   bands (ev):

   -52.3424 -52.0510 -51.9281 -51.2892 -51.2824 -51.1958 -51.1603 -51.1358
   -51.1252 -51.0916 -51.0556 -50.9819 -50.9694 -50.9675 -50.9484 -50.9079
   -50.8996 -50.8847 -50.7904 -50.7837 -50.7783 -50.7685 -50.7627 -50.6277
   -21.7325 -21.3392 -21.3057 -21.2834 -20.9088 -20.8556 -20.8403 -20.7349
   -20.3670 -20.3476 -20.2971 -20.2525 -20.2458 -20.2030 -20.0050 -19.7645
   -19.0501 -18.9461 -18.8302 -10.2211  -9.8869  -9.7002  -9.5967  -9.4813
    -9.2010  -9.1939  -9.1409  -9.0077  -8.7947  -8.6762  -8.5871  -8.4964
    -8.4056  -8.3786  -8.3513  -8.2793  -8.1842  -7.6669  -7.6232  -7.5897
    -7.5623  -7.4923  -7.4702  -7.2546  -6.9074  -6.7688  -6.6270  -6.5340
    -6.5298  -6.3816  -6.3002  -6.2798  -6.2114  -6.0488  -5.9696  -5.9447
    -5.5277  -5.4004  -5.3456  -5.2834  -5.2296  -5.0730  -4.8767  -4.6862
    -4.6407  -4.5606  -4.4272  -4.3888  -4.3548  -4.2688  -4.2210  -4.1558
    -3.8709  -3.7000  -3.6006  -3.5320  -3.5147  -3.3578  -3.2158  -3.2047
    -3.0678  -3.0375  -2.8704  -2.8596  -2.8210  -2.6222  -2.5919  -2.4449
    -2.3714  -1.8973  -1.8212  -1.7388  -1.6875  -1.5283  -1.2960  -0.8949
    -0.7780  -0.5979  -0.5026  -0.4691  -0.2838  -0.2026   0.0661   1.0688
     1.2070   1.9341   2.1584   2.3826   2.4157   2.6201   3.0069   3.0691
     3.1222   3.2412   3.4376   3.5742   3.8858   4.4031   4.7658   5.2523
     5.3408   5.4421   5.7251   5.9165   5.9386   6.0594   6.4162   6.5917
     6.7063   6.8591   7.0552   7.1621   7.2114   7.6010   7.8065   7.8310
     8.0308   8.2265   8.2838   8.3945   8.5158   8.5712   8.5802   8.5976
     8.7656   8.7795   8.7836   8.8022   8.8033   8.9348   8.9373   8.9697
     8.9730   8.9818   9.0208   9.1144   9.1359   9.1470   9.1976   9.2488
     9.3361   9.3780   9.4674   9.4707   9.5978   9.6555   9.6985   9.9068
     9.9355  10.0667  10.1489  10.1643  10.2625  10.2943  10.3015  10.3130
    10.5154  11.0782  11.1079  11.1297  11.1848  11.2636  11.2900  11.3924
    11.5279  11.6305  11.7383  11.8154  11.9368  12.0429  12.1609  12.1790
    12.3117  12.3966  12.4161  12.4890  12.5321  12.6365  12.7084  12.7825
    12.8355  12.9956  13.0866  13.1403  13.1786  13.2339  13.2650  13.2840
    13.4145  13.4381  13.4958  13.5666  13.6065  13.7141  13.8550  13.8730
    14.0121  14.2006  14.2688  14.4336  14.5260  14.6590  14.7315  14.7390
    14.8395  14.8926  14.9525  15.1709  15.1898  15.2902  15.3897  15.4282
    15.5000  15.5031  15.6532  15.7656  15.7963  15.8243  15.9620  15.9890
    16.0427  16.1252  16.1489  16.2638  16.2961  16.3808  16.4553  16.4655
    16.5044  16.5582  16.6166  16.6607  16.7194  16.7489  16.7594  16.8360
    16.8990  16.9382  17.0409  17.0619  17.1156  17.1808  17.2390  17.2781
    17.4757  17.5350  17.5908  17.6735  17.7203  17.7732  17.8246  17.9311
    17.9445  18.0159  18.0394  18.0613  18.1952  18.2966  18.3026  18.3629
    18.3785  18.4756  18.5153  18.5557  18.6318  18.6979  18.7791  18.9787
    19.0088  19.0694  19.2199  19.2227  19.3145  19.4038  19.4719  19.5780
    19.6400  19.6915  19.7489  19.8348  19.8812  19.9130  20.0661  20.1314
    20.1920  20.2462  20.3104  20.3147  20.4344  20.4622  20.4835  20.4945
    20.5278  20.5550  20.5922  20.6662  20.7336  20.7546  20.8641  20.8732
    20.9274  20.9583  20.9799  21.0231  21.0765  21.1143  21.1228  21.2348
    21.2531  21.2686  21.3002  21.3689  21.4398

          k = 0.2500 0.0000 0.0000 ( 31106 PWs)   bands (ev):

   -52.3424 -52.0507 -51.9285 -51.2880 -51.2835 -51.1819 -51.1471 -51.1353
   -51.1257 -51.1060 -51.0717 -50.9844 -50.9715 -50.9692 -50.9522 -50.9016
   -50.8991 -50.8730 -50.8049 -50.7814 -50.7763 -50.7707 -50.7653 -50.6277
   -21.7907 -21.4987 -21.3267 -21.2695 -20.9255 -20.7675 -20.7208 -20.5821
   -20.4676 -20.3976 -20.3368 -20.3097 -20.0583 -19.9964 -19.9705 -19.7930
   -19.0731 -18.9849 -18.8943 -10.6069 -10.4708 -10.0277  -9.4624  -9.3672
    -9.2472  -9.1534  -9.0778  -9.0299  -8.9473  -8.8136  -8.7275  -8.6528
    -8.5037  -8.4206  -8.3196  -8.1991  -8.0796  -8.0435  -7.9103  -7.7061
    -7.3988  -7.3656  -7.1601  -7.0370  -6.7930  -6.5427  -6.4915  -6.3715
    -6.3108  -6.2353  -6.1194  -6.0853  -6.0187  -5.9281  -5.8359  -5.6739
    -5.4847  -5.4216  -5.3036  -5.2589  -5.1775  -5.1063  -5.0175  -4.8778
    -4.8216  -4.7531  -4.6381  -4.5554  -4.5303  -4.3611  -4.1650  -3.9077
    -3.8333  -3.7998  -3.6946  -3.5663  -3.4872  -3.3375  -3.1695  -3.1495
    -3.1291  -2.8297  -2.7050  -2.5937  -2.5733  -2.4537  -2.2809  -2.1536
    -2.0924  -2.0236  -1.7742  -1.6398  -1.5095  -1.5006  -1.2534  -1.1528
    -0.9946  -0.9024  -0.6633  -0.4047  -0.3181   0.8396   1.1243   1.2145
     1.3429   1.4425   1.4986   1.8309   1.9892   2.0996   2.6068   2.7137
     2.7503   2.9487   3.0093   3.2546   3.6677   4.3288   4.6502   5.1541
     5.2007   5.3512   6.0662   6.1163   6.3873   6.4122   6.6829   6.8659
     7.1135   7.2397   7.3607   7.4550   7.7326   7.8065   7.8668   7.9133
     7.9876   8.0165   8.0870   8.1999   8.2495   8.3362   8.3610   8.6715
     8.7203   8.7681   8.7808   8.7868   8.8028   8.8037   8.8696   8.9009
     8.9382   8.9702   8.9747   8.9989   9.1497   9.2225   9.2400   9.3072
     9.4447   9.4758   9.5958   9.6879   9.8132   9.9920  10.0595  10.1138
    10.1414  10.2394  10.2636  10.3394  10.4243  10.4794  10.5099  10.6007
    10.6529  10.7481  10.7790  10.8487  10.9822  11.1275  11.2162  11.2362
    11.2758  11.2871  11.3392  11.4371  11.5102  11.5970  11.6759  11.8225
    11.9243  11.9942  12.1175  12.1798  12.3470  12.4801  12.5262  12.5808
    12.6173  12.6700  12.8071  12.8795  12.9794  13.1654  13.2834  13.3441
    13.4484  13.5444  13.6744  13.7947  13.9007  13.9524  13.9786  14.0271
    14.0513  14.1157  14.1650  14.2165  14.2528  14.3116  14.3755  14.4794
    14.5608  14.6027  14.6574  14.7215  14.7656  14.9284  14.9910  15.0497
    15.1037  15.2798  15.3582  15.4087  15.4963  15.6262  15.6786  15.7547
    15.8011  15.8905  15.9758  16.0613  16.1136  16.1982  16.2688  16.3128
    16.3263  16.3629  16.4453  16.4986  16.6971  16.7706  16.8059  17.0642
    17.1396  17.2076  17.3001  17.3782  17.4196  17.5300  17.5715  17.7037
    17.7372  17.9360  17.9643  18.0058  18.0839  18.2269  18.2627  18.2921
    18.4778  18.5488  18.6278  18.8204  18.8631  18.9758  19.0719  19.1101
    19.1413  19.1879  19.2591  19.3145  19.3347  19.3869  19.4430  19.4750
    19.4961  19.5621  19.6171  19.6513  19.7034  19.7852  19.7930  19.8222
    19.8328  19.8761  19.9484  20.0046  20.0938  20.1529  20.1806  20.2016
    20.2651  20.3054  20.3609  20.4412  20.4786  20.5076  20.5469  20.5773
    20.6271  20.7516  20.8267  20.8689  20.9215  21.0148  21.0364  21.0614
    21.1816  21.2483  21.3005  21.3428  21.4099  21.4309  21.4881  21.5671
    21.6002  21.6463  21.6841  21.7293  21.8503

          k = 0.2500 0.2476 0.0000 ( 31099 PWs)   bands (ev):

   -52.3424 -52.0507 -51.9283 -51.2881 -51.2835 -51.1820 -51.1469 -51.1353
   -51.1257 -51.1061 -51.0716 -50.9843 -50.9694 -50.9689 -50.9511 -50.9039
   -50.9001 -50.8724 -50.8049 -50.7815 -50.7763 -50.7707 -50.7653 -50.6277
   -21.7176 -21.3829 -21.3184 -21.2350 -20.9061 -20.7968 -20.7289 -20.6285
   -20.4711 -20.4405 -20.3204 -20.2922 -20.1850 -20.1469 -19.9696 -19.7935
   -19.0636 -18.9899 -18.8962 -10.1456 -10.1095  -9.9189  -9.5678  -9.3262
    -9.1576  -9.0915  -9.0201  -8.9768  -8.9047  -8.8834  -8.7663  -8.6468
    -8.5359  -8.3715  -8.2484  -8.1944  -8.0400  -7.8854  -7.6717  -7.6174
    -7.4368  -7.4095  -7.2422  -7.0101  -6.8332  -6.6926  -6.6435  -6.5525
    -6.4917  -6.3506  -6.3149  -6.2608  -6.1952  -6.1893  -5.9813  -5.9075
    -5.7346  -5.6883  -5.5465  -5.3979  -5.2910  -5.1562  -5.0409  -4.9119
    -4.7778  -4.7188  -4.6341  -4.4836  -4.4162  -4.3256  -4.2289  -3.9672
    -3.7069  -3.6019  -3.5170  -3.4848  -3.4144  -3.0111  -2.9814  -2.9427
    -2.8284  -2.7967  -2.7646  -2.6869  -2.6346  -2.5177  -2.4494  -2.3708
    -2.2488  -1.9429  -1.8084  -1.6556  -1.5121  -1.3212  -1.1259  -1.0688
    -0.9912  -0.8509  -0.7651  -0.5382  -0.2488   0.4609   0.6966   1.0500
     1.3693   1.4876   1.8478   1.9929   2.3260   2.4719   2.5066   2.6726
     2.8275   3.0496   3.0830   3.5476   3.6128   4.5169   4.8594   5.3194
     5.3679   5.5273   5.5744   6.1661   6.4494   6.5773   6.6772   6.7755
     6.8994   6.9907   7.1819   7.2888   7.3115   7.3632   7.5381   7.8065
     7.8207   7.8872   7.9533   8.0184   8.1318   8.2562   8.4054   8.4523
     8.5514   8.7150   8.7789   8.7826   8.8019   8.8029   8.8199   8.8891
     8.9375   8.9593   8.9730   8.9773   9.0446   9.1030   9.2512   9.3577
     9.4667   9.5939   9.6452   9.7310   9.8323   9.9289  10.0209  10.1205
    10.2313  10.2948  10.4139  10.4219  10.4957  10.5604  10.6480  10.7811
    10.9232  10.9431  11.0667  11.0856  11.1589  11.2879  11.4093  11.5507
    11.6183  11.6576  11.7499  11.7980  11.8289  12.0300  12.0658  12.1690
    12.2356  12.2455  12.3899  12.5025  12.5337  12.6229  12.6968  12.7452
    12.8131  12.8472  12.8874  12.9422  13.0411  13.0789  13.1592  13.1967
    13.2351  13.4315  13.4642  13.5282  13.6308  13.8096  13.8572  13.9015
    14.0419  14.0708  14.1691  14.2360  14.3031  14.3915  14.4602  14.5816
    14.6542  14.7696  14.8323  14.9416  15.0458  15.1593  15.2007  15.2808
    15.3279  15.4249  15.5643  15.6068  15.6632  15.7553  15.7838  15.8728
    15.9220  16.0024  16.0367  16.1171  16.1433  16.2221  16.2872  16.3529
    16.3948  16.4230  16.5105  16.5605  16.6350  16.7036  16.7363  16.7964
    16.8422  17.0067  17.0801  17.1567  17.2465  17.2997  17.3603  17.4299
    17.4735  17.5488  17.6056  17.6448  17.7056  17.7683  17.8363  17.9036
    17.9574  18.0233  18.0583  18.1879  18.2084  18.2497  18.3929  18.4581
    18.5046  18.5718  18.6494  18.6699  18.7774  18.8649  18.9596  19.0085
    19.0446  19.0869  19.1494  19.2072  19.2740  19.3189  19.4008  19.4973
    19.5807  19.6500  19.6997  19.7477  19.8424  19.9142  19.9584  20.0165
    20.1035  20.2784  20.3361  20.4385  20.4538  20.5082  20.5885  20.6419
    20.7343  20.7646  20.8120  20.8349  20.8884  20.9103  20.9866  21.1089
    21.2084  21.2812  21.3865  21.4352  21.4690  21.5087  21.5761  21.6719
    21.7522  21.7942  21.8451  21.8828  21.9008

          k = 0.2500-0.4953 0.0000 ( 31088 PWs)   bands (ev):

   -52.3425 -52.0507 -51.9281 -51.2883 -51.2835 -51.1823 -51.1467 -51.1354
   -51.1257 -51.1060 -51.0716 -50.9841 -50.9693 -50.9670 -50.9494 -50.9068
   -50.9008 -50.8719 -50.8048 -50.7815 -50.7764 -50.7707 -50.7653 -50.6278
   -21.6422 -21.3157 -21.2072 -21.1700 -20.8545 -20.8501 -20.7608 -20.7215
   -20.4832 -20.4757 -20.3892 -20.3031 -20.2685 -20.2435 -19.9730 -19.7936
   -19.0519 -18.9972 -18.8987 -10.0423  -9.6604  -9.3771  -9.3371  -9.2546
    -9.1712  -9.0426  -9.0268  -8.9585  -8.8352  -8.7466  -8.6910  -8.6519
    -8.5498  -8.4259  -8.2772  -8.1603  -7.8654  -7.7059  -7.6335  -7.6054
    -7.5510  -7.3776  -7.3019  -7.2361  -7.2271  -7.1699  -7.0254  -6.8239
    -6.6669  -6.5861  -6.4731  -6.3448  -6.3116  -6.1476  -6.1188  -6.0296
    -5.8680  -5.7359  -5.6938  -5.3860  -5.2962  -5.1528  -5.0337  -5.0047
    -4.8464  -4.5422  -4.4934  -4.4453  -4.3218  -4.1345  -4.0606  -3.9730
    -3.9010  -3.6354  -3.4771  -3.3599  -3.2864  -3.2502  -3.0501  -2.9516
    -2.8150  -2.8082  -2.7541  -2.6711  -2.5560  -2.4799  -2.2522  -2.2081
    -2.1354  -1.8063  -1.7461  -1.6676  -1.5031  -1.4563  -1.3362  -0.9474
    -0.9103  -0.8189  -0.6967  -0.6756  -0.1473   0.0124   0.2722   1.1182
     1.3879   1.7733   1.8743   2.0205   2.0929   2.3622   2.9260   2.9656
     3.0063   3.1792   3.2017   3.3541   4.1713   4.6814   4.9539   5.5083
     5.6115   5.6572   5.7435   5.9859   6.1872   6.2150   6.3424   6.3991
     6.7438   6.9567   7.1346   7.2385   7.3175   7.3993   7.4737   7.6023
     7.7195   7.8065   7.8906   7.9923   8.0103   8.0592   8.1760   8.2946
     8.3783   8.5356   8.6828   8.7785   8.7827   8.7996   8.8031   8.8038
     8.8486   8.8922   8.9376   8.9734   8.9758   9.0383   9.2822   9.4309
     9.4587   9.5363   9.5621   9.6929   9.7818   9.7984   9.9566  10.0934
    10.2484  10.3040  10.3908  10.4568  10.5076  10.9812  11.0833  11.1336
    11.1972  11.3139  11.3702  11.4719  11.5494  11.6263  11.7096  11.7165
    11.7888  11.8454  11.9500  12.0297  12.1486  12.1900  12.2885  12.3267
    12.4274  12.4767  12.5771  12.6143  12.7089  12.7543  12.7962  12.8647
    12.9699  13.0731  13.1973  13.2663  13.3206  13.3284  13.3812  13.3972
    13.5620  13.6092  13.6346  13.7083  13.7132  13.8992  13.9216  13.9366
    14.0491  14.2934  14.3624  14.4627  14.4799  14.5564  14.5839  14.6091
    14.6400  14.7161  14.7591  14.8633  14.8770  14.9563  15.0081  15.0786
    15.1163  15.1728  15.2451  15.3319  15.4001  15.4420  15.5357  15.5735
    15.6375  15.7596  15.8797  16.0272  16.1093  16.1213  16.1704  16.2440
    16.3274  16.3994  16.4488  16.5253  16.5622  16.6310  16.6653  16.7234
    16.7571  16.8440  16.9384  17.0097  17.0549  17.0851  17.1484  17.2309
    17.2723  17.2991  17.3545  17.3940  17.4994  17.5730  17.5974  17.6974
    17.8782  17.9171  17.9651  17.9727  18.0684  18.1930  18.2837  18.3169
    18.3865  18.4614  18.5349  18.5804  18.6276  18.6757  18.6951  18.7487
    18.8314  18.9346  18.9693  19.0442  19.0796  19.1501  19.1568  19.2434
    19.3418  19.3701  19.4251  19.4570  19.6012  19.6178  19.6793  19.7193
    19.7663  19.8698  19.9212  19.9595  20.0145  20.1538  20.2953  20.4263
    20.5028  20.5299  20.6382  20.6835  20.7386  20.8002  20.8319  20.9612
    21.0468  21.0629  21.1280  21.1581  21.2250  21.2910  21.3786  21.5219
    21.6080  21.6611  21.7212  21.7947  21.8315

          k =-0.5000 0.0000 0.0000 ( 31104 PWs)   bands (ev):

   -52.3425 -52.0504 -51.9286 -51.2865 -51.2852 -51.1560 -51.1403 -51.1324
   -51.1254 -51.1090 -51.1078 -50.9866 -50.9699 -50.9692 -50.9552 -50.9014
   -50.8989 -50.8409 -50.8385 -50.7766 -50.7756 -50.7726 -50.7695 -50.6278
   -21.5474 -21.4564 -21.2252 -21.2157 -21.0395 -21.0341 -20.7983 -20.4128
   -20.4037 -20.3372 -20.2806 -20.2564 -20.1988 -20.1916 -19.8967 -19.8751
   -19.0834 -19.0097 -18.9815 -10.1058 -10.0033  -9.9067  -9.9051  -9.7413
    -9.5614  -9.0242  -8.9846  -8.9720  -8.8984  -8.8461  -8.8000  -8.5558
    -8.5503  -8.1374  -8.0974  -7.9802  -7.9407  -7.6535  -7.6250  -7.4775
    -7.3668  -7.3578  -7.2871  -7.1082  -7.0752  -6.8686  -6.7766  -6.6389
    -6.5101  -6.4547  -6.4407  -6.2257  -5.9329  -5.9185  -5.8219  -5.8036
    -5.7769  -5.7010  -5.6956  -5.5465  -5.3336  -5.2992  -5.0626  -4.9841
    -4.8432  -4.7597  -4.6973  -4.5998  -4.5170  -4.2089  -3.9986  -3.9145
    -3.7735  -3.7384  -3.6566  -3.5841  -3.4171  -3.1760  -3.0963  -3.0899
    -3.0115  -2.6499  -2.5939  -2.4224  -2.2494  -2.1561  -2.1195  -2.0262
    -1.9860  -1.8395  -1.5633  -1.5081  -1.4455  -1.4230  -1.3427  -1.2202
    -1.1767  -1.0918  -0.6929  -0.6880  -0.2539   1.2283   1.3766   1.3989
     1.4788   1.5687   1.7715   2.0066   2.0078   2.0285   2.0497   2.0853
     2.0954   2.9230   3.0610   3.3448   4.1112   4.1336   4.9258   5.2784
     5.3106   5.5385   5.7834   5.9905   6.0170   6.0807   6.6360   6.6725
     6.7204   7.0198   7.0551   7.2474   7.7479   7.8065   7.9268   7.9558
     8.1781   8.2364   8.3463   8.3537   8.4794   8.6320   8.7345   8.7766
     8.7821   8.7828   8.8029   8.8042   8.9072   8.9231   8.9377   8.9731
     8.9751   9.0326   9.0605   9.0921   9.1689   9.2788   9.3283   9.4312
     9.4634   9.4871   9.5254   9.5326   9.6085   9.7031   9.7186   9.7943
     9.8583   9.9967  10.1046  10.1312  10.1862  10.2406  10.3754  10.3985
    10.5842  10.7278  11.0006  11.0446  11.0640  11.1431  11.2584  11.2906
    11.5907  11.6354  11.6880  11.8513  11.8623  11.8985  11.9286  11.9988
    12.0734  12.2391  12.3445  12.4158  12.6133  12.6743  12.8535  12.8844
    12.9020  12.9289  12.9630  13.0320  13.1072  13.2013  13.2196  13.3152
    13.4326  13.4571  13.4803  13.5321  13.5904  13.6795  13.7399  13.7699
    13.8436  14.0762  14.0915  14.1358  14.1634  14.2462  14.4225  14.4942
    14.5245  14.6617  14.6947  14.7764  14.8646  14.9771  15.1063  15.1695
    15.2810  15.2946  15.3814  15.4707  15.8477  15.9688  15.9903  16.0817
    16.1602  16.1671  16.1812  16.2008  16.3534  16.3727  16.3953  16.4304
    16.5534  16.5997  16.6837  16.7129  16.7551  16.7653  16.7764  16.7942
    16.8668  16.8833  16.9280  16.9699  17.1574  17.2142  17.3024  17.5375
    17.6076  17.6872  17.7250  17.7426  17.9088  17.9918  18.0998  18.1365
    18.1604  18.3428  18.3755  18.3880  18.4509  18.5316  18.5648  18.7451
    18.7559  18.8369  18.8739  18.9067  18.9213  19.0019  19.1108  19.1512
    19.1818  19.2950  19.3115  19.4712  19.5287  19.5405  19.6231  19.6592
    19.7129  19.8227  19.8347  19.9973  20.0380  20.0642  20.1049  20.1142
    20.1923  20.2081  20.2640  20.2853  20.3423  20.3926  20.4624  20.4889
    20.5173  20.6575  20.6848  20.7377  20.7477  20.7914  20.9122  20.9301
    21.0257  21.0446  21.1002  21.1190  21.1523  21.2140  21.2201  21.2735
    21.3018  21.3656  21.3968  21.4748  21.4819

          k =-0.5000 0.2476 0.0000 ( 31120 PWs)   bands (ev):

   -52.3425 -52.0504 -51.9283 -51.2864 -51.2854 -51.1561 -51.1404 -51.1324
   -51.1255 -51.1089 -51.1077 -50.9864 -50.9693 -50.9681 -50.9530 -50.9032
   -50.9007 -50.8407 -50.8383 -50.7766 -50.7757 -50.7726 -50.7695 -50.6278
   -21.5169 -21.4208 -21.1340 -21.1270 -20.9562 -20.9548 -20.8068 -20.5229
   -20.4803 -20.3574 -20.3478 -20.3306 -20.3068 -20.2662 -19.8940 -19.8725
   -19.0712 -19.0087 -18.9924  -9.7351  -9.7016  -9.6486  -9.5544  -9.5207
    -9.5157  -8.9850  -8.9808  -8.9355  -8.8343  -8.8208  -8.7453  -8.5046
    -8.4938  -8.2262  -8.2055  -7.9803  -7.8712  -7.7904  -7.7790  -7.6887
    -7.6710  -7.4510  -7.3454  -7.2099  -7.0943  -6.8744  -6.7137  -6.6438
    -6.5760  -6.4953  -6.4402  -6.3221  -6.1577  -6.1028  -6.0380  -6.0079
    -5.9886  -5.9201  -5.8612  -5.6249  -5.5694  -5.3141  -5.1985  -4.9428
    -4.9077  -4.8789  -4.7049  -4.6007  -4.4406  -4.2728  -3.9755  -3.8564
    -3.7306  -3.6665  -3.5025  -3.4004  -3.1628  -3.0424  -2.7958  -2.7730
    -2.6480  -2.6195  -2.5970  -2.5543  -2.3908  -2.3494  -2.2128  -2.1336
    -1.7964  -1.7700  -1.5807  -1.5166  -1.3842  -1.3280  -1.2874  -1.2143
    -1.1984  -1.1513  -0.8571  -0.7746  -0.1379   0.9257   1.2127   1.3253
     1.3609   1.4492   1.4633   1.8213   1.8827   2.1837   2.3144   2.5264
     2.5455   2.8668   3.1286   3.4516   4.3469   4.3650   5.0279   5.5099
     5.5301   5.7759   5.9390   6.0470   6.1781   6.2587   6.3153   6.3463
     6.7485   7.0585   7.1680   7.2827   7.3206   7.4173   7.4526   7.6065
     7.8065   7.8558   7.9472   7.9756   8.0198   8.0723   8.3557   8.3957
     8.5569   8.6189   8.7130   8.7766   8.7797   8.7869   8.8027   8.8039
     8.9368   8.9390   8.9721   8.9745   8.9949   9.0919   9.2767   9.4286
     9.5451   9.6251   9.6853   9.7644   9.7897   9.9137   9.9866  10.1746
    10.1954  10.2707  10.4168  10.4480  10.7686  10.7863  10.8990  10.9675
    11.1006  11.1139  11.2914  11.3213  11.4428  11.5262  11.5647  11.6037
    11.6934  11.7495  11.9320  11.9680  12.1005  12.1713  12.2662  12.3235
    12.4397  12.4944  12.5091  12.5532  12.6558  12.8799  13.0041  13.0191
    13.0948  13.1229  13.1661  13.2255  13.3187  13.3466  13.4188  13.4792
    13.5045  13.6154  13.6731  13.7398  13.7700  13.8288  13.8834  13.9110
    13.9919  14.0383  14.2433  14.2614  14.3342  14.3790  14.4393  14.4731
    14.5258  14.5945  14.6056  14.7433  14.8044  14.8510  14.9313  14.9924
    15.0345  15.0868  15.1900  15.2302  15.2955  15.3345  15.4470  15.5519
    15.6509  15.6704  15.8470  15.9568  16.0596  16.1370  16.2100  16.3319
    16.3542  16.3988  16.4304  16.4968  16.5697  16.5937  16.6928  16.7461
    16.7567  16.8112  16.8939  16.9750  17.0033  17.0564  17.1622  17.2460
    17.3055  17.4452  17.4600  17.5291  17.6424  17.7308  17.7717  17.8251
    17.8760  17.9024  18.0180  18.0490  18.1159  18.2535  18.3702  18.4449
    18.4880  18.5080  18.5955  18.6357  18.6471  18.7709  18.8119  18.8640
    18.9251  18.9994  19.0100  19.1249  19.1520  19.2283  19.2418  19.4212
    19.4384  19.4913  19.5260  19.6285  19.6876  19.7218  19.8157  19.8375
    19.9527  20.0486  20.0741  20.1588  20.2583  20.2780  20.3225  20.4059
    20.4719  20.5488  20.5845  20.7229  20.7585  20.8597  20.8947  20.9503
    20.9821  21.1798  21.2513  21.3228  21.3974  21.4821  21.5280  21.6306
    21.6760  21.6935  21.7305  21.8424  21.8657

          k =-0.5000-0.4953 0.0000 ( 31140 PWs)   bands (ev):

   -52.3426 -52.0504 -51.9281 -51.2866 -51.2854 -51.1563 -51.1405 -51.1325
   -51.1256 -51.1088 -51.1076 -50.9862 -50.9693 -50.9662 -50.9506 -50.9050
   -50.9027 -50.8404 -50.8380 -50.7767 -50.7757 -50.7726 -50.7695 -50.6279
   -21.4887 -21.3898 -20.9819 -20.8920 -20.8888 -20.8825 -20.6966 -20.6871
   -20.6777 -20.5901 -20.5328 -20.3384 -20.3190 -20.2872 -19.8932 -19.8721
   -19.0535 -19.0089 -19.0078  -9.7215  -9.5338  -9.0997  -8.9819  -8.9678
    -8.9494  -8.9239  -8.8124  -8.7952  -8.7690  -8.6977  -8.6588  -8.5082
    -8.4534  -8.4399  -8.3692  -8.3282  -8.3170  -8.2175  -8.2071  -7.8966
    -7.6464  -7.3456  -7.2582  -7.0706  -6.9595  -6.8776  -6.8435  -6.7697
    -6.7354  -6.6982  -6.6309  -6.6107  -6.5649  -6.4841  -6.4138  -6.3301
    -6.2521  -6.0863  -5.9370  -5.5389  -5.4224  -5.2325  -5.1289  -4.9323
    -4.8123  -4.7647  -4.7062  -4.4385  -4.4123  -4.2653  -3.9430  -3.7404
    -3.6324  -3.4966  -3.4425  -3.3134  -3.1321  -3.0179  -2.8924  -2.8506
    -2.7870  -2.5606  -2.5069  -2.4433  -2.3280  -2.2438  -2.1201  -2.0869
    -1.6743  -1.6441  -1.5336  -1.5089  -1.4669  -1.3075  -1.2474  -1.1957
    -1.0691  -1.0513  -1.0002  -0.9464  -0.0471   0.4750   0.9259   0.9372
     1.0505   1.3618   1.4830   1.9273   1.9413   2.4918   2.5756   2.6329
     2.8001   3.1674   3.1786   3.2385   4.7866   4.8155   5.2061   5.3853
     5.3893   6.1954   6.2029   6.3327   6.3345   6.3854   6.4390   6.5772
     6.6829   6.8292   6.8470   6.9151   6.9716   7.0268   7.0619   7.0656
     7.5020   7.5765   7.7062   7.8065   7.8070   7.8691   7.9526   8.0407
     8.1694   8.4720   8.7432   8.7801   8.7825   8.8023   8.8035   8.8692
     8.9371   8.9604   8.9725   8.9770   8.9810   9.1502   9.2054   9.2586
     9.3302   9.3928   9.9416   9.9815  10.0035  10.0403  10.0643  10.1434
    10.1653  10.3221  10.4720  10.6236  10.8811  10.9300  10.9785  11.0004
    11.2924  11.3298  11.6819  11.7512  11.8672  11.9380  12.0273  12.1381
    12.2532  12.2636  12.4300  12.4442  12.5996  12.6569  12.7376  12.8446
    12.9067  12.9211  13.0402  13.0975  13.1242  13.2418  13.3772  13.3880
    13.4381  13.4455  13.4771  13.5524  13.6402  13.6479  13.6966  13.7027
    13.7822  13.7915  13.9028  13.9214  13.9338  13.9504  13.9772  14.0156
    14.0816  14.1049  14.1756  14.1861  14.2260  14.2552  14.3063  14.3290
    14.3485  14.4724  14.4827  14.5407  14.6107  14.6304  14.6759  14.7121
    14.8594  15.0325  15.0742  15.1349  15.2037  15.2380  15.2510  15.2929
    15.3174  15.3469  15.3666  15.3868  15.4072  15.5444  15.5961  15.6236
    15.7910  15.8408  15.8513  15.8655  15.8888  15.9779  16.0154  16.1814
    16.2916  16.3318  16.4720  16.5278  16.7216  16.8052  16.8772  16.8931
    16.9291  16.9587  17.0181  17.0652  17.1681  17.2248  17.2310  17.3648
    17.6228  17.7643  17.8018  17.9466  18.0674  18.1008  18.1415  18.1863
    18.2247  18.3605  18.3739  18.4157  18.5857  18.6365  18.7463  18.9255
    18.9570  19.0976  19.1635  19.3326  19.3680  19.4230  19.4638  19.5153
    19.6261  19.6890  19.7348  19.9502  19.9793  20.0523  20.1132  20.1803
    20.2378  20.2962  20.4393  20.5780  20.6235  20.6307  20.6604  20.7419
    20.7568  20.8852  20.9650  21.1091  21.1229  21.1689  21.1878  21.2510
    21.2790  21.3088  21.3355  21.3598  21.4000  21.4501  21.4939  21.5231
    21.5355  21.5666  21.5935  21.6138  21.6413

          k =-0.2500 0.2476 0.0000 ( 31099 PWs)   bands (ev):

   -52.3424 -52.0507 -51.9283 -51.2881 -51.2835 -51.1821 -51.1469 -51.1353
   -51.1257 -51.1059 -51.0716 -50.9843 -50.9697 -50.9691 -50.9508 -50.9036
   -50.9004 -50.8724 -50.8048 -50.7815 -50.7763 -50.7707 -50.7653 -50.6277
   -21.7177 -21.3829 -21.3182 -21.2348 -20.9059 -20.7968 -20.7288 -20.6281
   -20.4722 -20.4433 -20.3207 -20.2890 -20.1847 -20.1464 -19.9707 -19.7931
   -19.0636 -18.9899 -18.8962 -10.1450 -10.1067  -9.9206  -9.5714  -9.3245
    -9.1583  -9.1044  -9.0073  -8.9657  -8.9205  -8.8816  -8.7614  -8.6473
    -8.5338  -8.3776  -8.2601  -8.2088  -8.0250  -7.8819  -7.6799  -7.6139
    -7.4280  -7.3734  -7.2187  -7.0170  -6.8499  -6.7039  -6.6440  -6.5724
    -6.4653  -6.4076  -6.3299  -6.2590  -6.2027  -6.1469  -5.9773  -5.9111
    -5.7400  -5.6769  -5.5447  -5.3670  -5.3032  -5.1444  -5.0290  -4.9606
    -4.8526  -4.6677  -4.6007  -4.4898  -4.3976  -4.3580  -4.2358  -3.9469
    -3.7131  -3.6073  -3.5201  -3.4580  -3.3508  -3.0095  -3.0005  -2.9630
    -2.9233  -2.7633  -2.7416  -2.6633  -2.6368  -2.5492  -2.4866  -2.3398
    -2.2397  -1.9096  -1.8130  -1.6622  -1.5082  -1.3328  -1.1394  -1.0648
    -0.9904  -0.8416  -0.7628  -0.5408  -0.2491   0.4608   0.6952   1.0499
     1.3691   1.4903   1.8489   1.9928   2.3225   2.4665   2.5132   2.6788
     2.8267   3.0469   3.0806   3.5429   3.6151   4.5170   4.8617   5.3355
     5.3895   5.5290   5.5813   6.1683   6.4438   6.5238   6.6851   6.7743
     6.8853   6.9552   7.1863   7.2843   7.3282   7.3547   7.5368   7.8065
     7.8164   7.8845   7.9616   8.0345   8.1648   8.2466   8.3760   8.4554
     8.5447   8.7205   8.7790   8.7827   8.8018   8.8030   8.8246   8.9183
     8.9381   8.9565   8.9731   8.9770   9.0353   9.1101   9.2526   9.4044
     9.4763   9.5985   9.6532   9.7363   9.8019   9.8927  10.0112  10.1284
    10.1724  10.2721  10.3982  10.4522  10.4994  10.5599  10.6547  10.8592
    10.9064  10.9397  11.0541  11.0848  11.1592  11.3041  11.4216  11.5540
    11.6158  11.6577  11.7452  11.8051  11.8388  12.0315  12.0695  12.1739
    12.2338  12.2574  12.3863  12.5121  12.5303  12.6478  12.6858  12.7289
    12.7927  12.8637  12.9177  12.9631  13.0483  13.0678  13.1670  13.2264
    13.2659  13.4083  13.4366  13.5064  13.6243  13.8066  13.8896  13.9078
    13.9980  14.0634  14.1772  14.2109  14.2742  14.4057  14.4409  14.5902
    14.6640  14.7498  14.7905  14.9302  15.0338  15.0869  15.1991  15.2906
    15.3636  15.4214  15.5431  15.5976  15.6575  15.7408  15.8099  15.8295
    15.9390  15.9892  16.0259  16.1277  16.1349  16.2155  16.3049  16.3350
    16.3991  16.4131  16.5235  16.5617  16.6201  16.6856  16.7317  16.7745
    16.8391  16.9921  17.1456  17.1863  17.2382  17.3042  17.3494  17.4666
    17.4927  17.5404  17.5835  17.6671  17.7203  17.7881  17.8683  17.9123
    17.9677  18.0118  18.0750  18.1857  18.1892  18.2473  18.3681  18.4500
    18.5172  18.5948  18.6238  18.7189  18.7669  18.8984  18.9849  19.0243
    19.0537  19.1067  19.1730  19.2239  19.2628  19.3419  19.3826  19.4875
    19.5932  19.6269  19.6680  19.7255  19.8557  19.9200  19.9737  20.0609
    20.1788  20.2748  20.3026  20.3661  20.4453  20.4927  20.5815  20.6962
    20.7186  20.7711  20.8035  20.8315  20.8485  20.9375  21.0596  21.1369
    21.2188  21.2834  21.3636  21.4071  21.4690  21.5273  21.5632  21.6666
    21.7475  21.8026  21.8483  21.8797  21.9204

     the Fermi energy is    -1.1774 ev

!    total energy              =   -2105.55923746 Ry
     Harris-Foulkes estimate   =   -2105.55923787 Ry
     estimated scf accuracy    <       0.00000043 Ry

     The total energy is the sum of the following terms:

     one-electron contribution =  -22671.29983155 Ry
     hartree contribution      =   11376.53668044 Ry
     xc contribution           =    -576.26421182 Ry
     ewald contribution        =    9764.87006855 Ry
     Hubbard energy            =       0.59808393 Ry
     smearing contrib. (-TS)   =      -0.00002700 Ry

     convergence has been achieved in  32 iterations

     Forces acting on atoms (Ry/au):


     negative rho (up, down):  0.313E+01 0.000E+00
     atom    1 type  1   force =    -0.00729474   -0.01356870    0.00233536
     atom    2 type  1   force =     0.00006164    0.00498093    0.00112175
     atom    3 type  2   force =     0.03866765    0.00732754   -0.00353360
     atom    4 type  2   force =     0.00944140    0.00846604   -0.00145254
     atom    5 type  1   force =    -0.00262362   -0.01729667    0.00032062
     atom    6 type  1   force =     0.00468279    0.01504923    0.00008263
     atom    7 type  1   force =    -0.00027836   -0.00187715    0.00700823
     atom    8 type  1   force =    -0.00338162   -0.00080391    0.00096474
     atom    9 type  2   force =     0.00645232    0.00065841   -0.00262017
     atom   10 type  2   force =     0.00002664   -0.00100213   -0.00368811
     atom   11 type  1   force =     0.00350963    0.00551065   -0.00046325
     atom   12 type  1   force =     0.00307235   -0.00600054   -0.00045767
     atom   13 type  1   force =    -0.00093495    0.00000307   -0.00008991
     atom   14 type  1   force =    -0.00752217   -0.01400645    0.00195137
     atom   15 type  1   force =     0.00015358    0.00587909    0.00098873
     atom   16 type  2   force =    -0.03883383    0.00631636   -0.00373928
     atom   17 type  2   force =     0.00935646    0.00859684   -0.00209109
     atom   18 type  1   force =    -0.00304292   -0.01682494    0.00036382
     atom   19 type  1   force =     0.00336503    0.01554895    0.00009204
     atom   20 type  1   force =    -0.00022531   -0.00503335    0.00556346
     atom   21 type  1   force =    -0.00330306   -0.00053824    0.00154965
     atom   22 type  2   force =    -0.00391490    0.00046824   -0.00257202
     atom   23 type  2   force =    -0.00007714    0.00025639   -0.00320566
     atom   24 type  1   force =    -0.00353580    0.00547579   -0.00041661
     atom   25 type  1   force =    -0.00281683   -0.00602709   -0.00046337
     atom   26 type  1   force =    -0.00089788   -0.00014740    0.00154056
     atom   27 type  3   force =    -0.00003323   -0.00081109    0.00112333
     atom   28 type  3   force =    -0.00001914   -0.00097895    0.00150025
     atom   29 type  3   force =     0.00006821    0.00008776   -0.00046989
     atom   30 type  3   force =    -0.00012151    0.00029631   -0.00041176
     atom   31 type  1   force =    -0.00000069   -0.00000499   -0.00083162

     Total force =     0.013228     Total SCF correction =     0.002635
     SCF correction compared to forces is large: reduce conv_thr to get better values

     BFGS Geometry Optimization

     number of scf cycles    =   1
     number of bfgs steps    =   0

     energy   new            =   -2105.5592374645 Ry

     new trust radius        =       0.0070082320 bohr
     new conv_thr            =       0.0000010000 Ry


ATOMIC_POSITIONS (crystal)
O0       0.000000000   0.000000000   0.378126775    0   0   1
O0       0.000000000   0.500000000   0.403182467    0   0   1
Ir1      0.250000000   0.500000000   0.453219226    0   0   1
Ir1      0.000000000   0.000000000   0.452830907    0   0   1
O0       0.250000000   0.810000000   0.452876422    0   0   1
O0       0.250000000   0.190000000   0.452541655    0   0   1
O0       0.000000000   0.500000000   0.498970368    0   0   1
O0       0.000000000   0.000000000   0.528359323    0   0   1
Ir1      0.250000000   0.000000000   0.575237521    0   0   1
Ir1      0.000000000   0.500000000   0.571906131    0   0   1
O0       0.250000000   0.690000000   0.574760722    0   0   1
O0       0.250000000   0.310000000   0.574790833    0   0   1
O0       0.000000000   0.000000000   0.619678199    0   0   1
O0       0.500000000   0.000000000   0.378039084    0   0   1
O0       0.500000000   0.500000000   0.402619803    0   0   1
Ir1      0.750000000   0.500000000   0.453225106    0   0   1
Ir1      0.500000000   0.000000000   0.452788118    0   0   1
O0       0.750000000   0.810000000   0.452887287    0   0   1
O0       0.750000000   0.190000000   0.452551843    0   0   1
O0       0.500000000   0.500000000   0.500861431    0   0   1
O0       0.500000000   0.000000000   0.528291038    0   0   1
Ir1      0.750000000   0.000000000   0.575238485    0   0   1
Ir1      0.500000000   0.500000000   0.578605794    0   0   1
O0       0.750000000   0.690000000   0.574751656    0   0   1
O0       0.750000000   0.310000000   0.574790719    0   0   1
O0       0.500000000   0.000000000   0.619510856    0   0   1
H2      -0.000072765   0.633333151   0.384152499
H2       0.499968408   0.635849315   0.384640049
H2       0.143625675   0.033977233   0.366540589
H2       0.643279890   0.035014422   0.366431753
O0       0.500009942   0.499509588   0.645653343


     Check: negative starting charge=   -3.336659
     NEW-OLD atomic charge density approx. for the potential

     Check: negative/imaginary core charge=   -0.000003    0.000000
     Check: negative starting charge=   -3.336466

     negative rho (up, down):  0.313E+01 0.000E+00
 Atomic wfc used for LDA+U Projector are NOT orthogonalized

     total cpu time spent up to now is     6963.2 secs

     per-process dynamical memory:   456.0 Mb

     Self-consistent Calculation

     iteration #  1     ecut=    40.00 Ry     beta=0.70
     Davidson diagonalization with overlap
     ethr =  1.00E-06,  avg # of iterations =  3.0
 --- enter write_ns ---
 LDA+U parameters:
U( 2)     =  1.50000000
alpha( 2) =  0.00000000
atom    3   Tr[ns(na)] =   8.09571
    eigenvalues: 
  0.604  0.631  0.880  0.958  0.975
    eigenvectors:
  0.003  0.184  0.003  0.001  0.810
  0.991  0.009  0.000  0.000  0.000
  0.000  0.000  0.983  0.015  0.003
  0.007  0.807  0.000  0.000  0.186
  0.000  0.000  0.014  0.984  0.001
    occupations:
  0.910 -0.005  0.004 -0.134 -0.001
 -0.005  0.605 -0.001 -0.000 -0.005
  0.004 -0.001  0.881 -0.004  0.009
 -0.134 -0.000 -0.004  0.695 -0.000
 -0.001 -0.005  0.009 -0.000  0.957
atom    4   Tr[ns(na)] =   8.07021
    eigenvalues: 
  0.618  0.664  0.858  0.914  0.980
    eigenvectors:
  0.000  0.989  0.000  0.000  0.010
  0.000  0.000  0.038  0.962  0.000
  0.000  0.000  0.962  0.038  0.000
  0.000  0.010  0.000  0.000  0.990
  1.000  0.000  0.000  0.000  0.000
    occupations:
  0.668 -0.003 -0.001  0.032  0.001
 -0.003  0.912  0.011  0.000 -0.001
 -0.001  0.011  0.860 -0.000  0.000
  0.032  0.000 -0.000  0.977  0.000
  0.001 -0.001  0.000  0.000  0.618
atom    9   Tr[ns(na)] =   8.04704
    eigenvalues: 
  0.651  0.665  0.844  0.886  0.977
    eigenvectors:
  0.000  0.141  0.000  0.000  0.859
  0.999  0.001  0.000  0.000  0.000
  0.000  0.000  0.975  0.025  0.000
  0.001  0.858  0.000  0.000  0.141
  0.000  0.000  0.025  0.975  0.000
    occupations:
  0.933  0.001 -0.000 -0.109 -0.001
  0.001  0.651  0.000  0.000 -0.000
 -0.000  0.000  0.845 -0.000 -0.007
 -0.109  0.000 -0.000  0.709  0.001
 -0.001 -0.000 -0.007  0.001  0.885
atom   10   Tr[ns(na)] =   8.04400
    eigenvalues: 
  0.586  0.606  0.926  0.926  0.978
    eigenvectors:
  0.992  0.000  0.000  0.000  0.008
  0.000  0.000  0.371  0.629  0.000
  0.000  0.000  0.629  0.371  0.000
  0.008  0.000  0.000  0.000  0.992
  0.000  1.000  0.000  0.000  0.000
    occupations:
  0.589  0.000  0.001  0.036 -0.000
  0.000  0.926 -0.000  0.000 -0.000
  0.001 -0.000  0.926  0.000  0.000
  0.036  0.000  0.000  0.975 -0.000
 -0.000 -0.000  0.000 -0.000  0.606
atom   16   Tr[ns(na)] =   8.09535
    eigenvalues: 
  0.605  0.631  0.880  0.958  0.975
    eigenvectors:
  0.003  0.184  0.003  0.001  0.809
  0.991  0.008  0.000  0.000  0.000
  0.000  0.000  0.986  0.011  0.003
  0.006  0.807  0.000  0.000  0.186
  0.000  0.000  0.011  0.987  0.002
    occupations:
  0.910  0.005  0.004 -0.134  0.001
  0.005  0.605  0.000  0.000 -0.005
  0.004  0.000  0.881 -0.004 -0.008
 -0.134  0.000 -0.004  0.695 -0.000
  0.001 -0.005 -0.008 -0.000  0.957
atom   17   Tr[ns(na)] =   8.06670
    eigenvalues: 
  0.618  0.664  0.861  0.909  0.981
    eigenvectors:
  0.000  0.990  0.000  0.000  0.010
  0.000  0.000  0.060  0.940  0.000
  0.000  0.000  0.940  0.060  0.000
  0.000  0.010  0.000  0.000  0.990
  1.000  0.000  0.000  0.000  0.000
    occupations:
  0.668 -0.003 -0.001  0.031  0.001
 -0.003  0.906  0.011  0.000 -0.001
 -0.001  0.011  0.864 -0.000  0.000
  0.031  0.000 -0.000  0.977  0.000
  0.001 -0.001  0.000  0.000  0.618
atom   22   Tr[ns(na)] =   8.04597
    eigenvalues: 
  0.651  0.665  0.844  0.886  0.977
    eigenvectors:
  0.000  0.141  0.000  0.000  0.859
  1.000  0.000  0.000  0.000  0.000
  0.000  0.000  0.977  0.023  0.000
  0.000  0.859  0.000  0.000  0.141
  0.000  0.000  0.023  0.977  0.000
    occupations:
  0.933  0.000 -0.000 -0.109 -0.000
  0.000  0.651  0.000  0.000 -0.000
 -0.000  0.000  0.845 -0.000  0.006
 -0.109  0.000 -0.000  0.709  0.000
 -0.000 -0.000  0.006  0.000  0.885
atom   23   Tr[ns(na)] =   8.01624
    eigenvalues: 
  0.647  0.711  0.807  0.860  0.983
    eigenvectors:
  0.000  0.991  0.000  0.000  0.009
  0.000  0.000  0.000  1.000  0.000
  0.000  0.000  1.000  0.000  0.000
  0.000  0.009  0.000  0.000  0.991
  1.000  0.000  0.000  0.000  0.000
    occupations:
  0.714  0.000 -0.000  0.026 -0.000
  0.000  0.860 -0.000  0.000 -0.000
 -0.000 -0.000  0.807  0.000  0.000
  0.026  0.000  0.000  0.981  0.000
 -0.000 -0.000  0.000  0.000  0.647
N of occupied +U levels =  64.4812121
 --- exit write_ns ---

     negative rho (up, down):  0.313E+01 0.000E+00

     total cpu time spent up to now is     7210.7 secs

     total energy              =   -2105.55810117 Ry
     Harris-Foulkes estimate   =   -2105.55937212 Ry
     estimated scf accuracy    <       0.00146068 Ry

     iteration #  2     ecut=    40.00 Ry     beta=0.70
     Davidson diagonalization with overlap
     ethr =  6.14E-07,  avg # of iterations =  4.8

     negative rho (up, down):  0.313E+01 0.000E+00

     total cpu time spent up to now is     7449.3 secs

     total energy              =   -2105.53259999 Ry
     Harris-Foulkes estimate   =   -2105.58655929 Ry
[...]
    12.0788  12.2417  12.3440  12.4164  12.6200  12.6818  12.8537  12.8861
    12.9023  12.9315  12.9636  13.0324  13.1079  13.2045  13.2200  13.3169
    13.4380  13.4611  13.4847  13.5422  13.5983  13.6862  13.7461  13.7724
    13.8508  14.0777  14.0932  14.1398  14.1668  14.2517  14.4284  14.4945
    14.5262  14.6680  14.6986  14.7770  14.8634  14.9746  15.1061  15.1695
    15.2812  15.2929  15.3790  15.4752  15.8441  15.9698  15.9918  16.0814
    16.1592  16.1702  16.1839  16.2023  16.3584  16.3715  16.3990  16.4286
    16.5559  16.6004  16.6838  16.7105  16.7541  16.7657  16.7751  16.7928
    16.8670  16.8792  16.9252  16.9689  17.1579  17.2155  17.2996  17.5404
    17.6112  17.6872  17.7258  17.7433  17.9108  17.9910  18.0967  18.1368
    18.1608  18.3413  18.3781  18.3879  18.4497  18.5279  18.5636  18.7437
    18.7562  18.8388  18.8742  18.9108  18.9246  19.0020  19.1148  19.1488
    19.1819  19.2921  19.3089  19.4724  19.5273  19.5381  19.6241  19.6600
    19.7114  19.8198  19.8324  19.9967  20.0353  20.0616  20.1060  20.1147
    20.1953  20.2076  20.2673  20.2851  20.3420  20.3917  20.4645  20.4878
    20.5197  20.6563  20.6895  20.7397  20.7512  20.7943  20.9287  20.9348
    21.0302  21.0502  21.1017  21.1219  21.1531  21.2146  21.2288  21.2782
    21.3023  21.3704  21.3963  21.4741  21.4845

          k =-0.5000 0.2476 0.0000 ( 31120 PWs)   bands (ev):

   -52.3509 -52.0518 -51.9347 -51.2796 -51.2787 -51.1502 -51.1369 -51.1274
   -51.1229 -51.1016 -51.1004 -50.9854 -50.9757 -50.9649 -50.9465 -50.8928
   -50.8904 -50.8307 -50.8284 -50.7693 -50.7684 -50.7627 -50.7595 -50.6272
   -21.5277 -21.4340 -21.1341 -21.1257 -20.9518 -20.9498 -20.8045 -20.5284
   -20.4806 -20.3565 -20.3523 -20.3315 -20.3047 -20.2733 -19.9020 -19.8790
   -19.0616 -19.0023 -18.9738  -9.7450  -9.6979  -9.6440  -9.5610  -9.5146
    -9.5119  -8.9929  -8.9898  -8.9430  -8.8542  -8.8238  -8.7448  -8.5031
    -8.4921  -8.2326  -8.2130  -7.9906  -7.8777  -7.7909  -7.7766  -7.6868
    -7.6736  -7.4594  -7.3511  -7.2183  -7.1017  -6.8776  -6.7164  -6.6445
    -6.5699  -6.4934  -6.4365  -6.3174  -6.1611  -6.0995  -6.0313  -6.0010
    -5.9827  -5.9147  -5.8563  -5.6201  -5.5645  -5.3081  -5.1991  -4.9410
    -4.9086  -4.8726  -4.6972  -4.5944  -4.4341  -4.2640  -3.9758  -3.8549
    -3.7237  -3.6598  -3.4966  -3.3956  -3.1586  -3.0409  -2.7930  -2.7696
    -2.6447  -2.6151  -2.5919  -2.5489  -2.3907  -2.3474  -2.2121  -2.1267
    -1.7904  -1.7609  -1.5737  -1.5158  -1.3785  -1.3220  -1.2788  -1.2046
    -1.1921  -1.1449  -0.8475  -0.7650  -0.1137   0.9306   1.2213   1.3337
     1.3663   1.4527   1.4667   1.8362   1.8974   2.1975   2.3266   2.5373
     2.5525   2.8839   3.1396   3.4775   4.3427   4.3623   5.0303   5.5071
     5.5264   5.7818   5.9348   6.0447   6.1744   6.2644   6.3185   6.3468
     6.7506   7.0620   7.1699   7.2852   7.3195   7.4162   7.4551   7.6141
     7.8059   7.8549   7.9536   7.9811   8.0219   8.0725   8.3563   8.3970
     8.5648   8.6240   8.7152   8.7813   8.7868   8.7919   8.8106   8.8117
     8.9387   8.9457   8.9818   8.9842   8.9993   9.0963   9.2823   9.4319
     9.5493   9.6320   9.6914   9.7699   9.8023   9.9262   9.9927  10.1788
    10.1979  10.2830  10.4214  10.4514  10.7730  10.7930  10.8992  10.9685
    11.1013  11.1166  11.2961  11.3255  11.4434  11.5256  11.5640  11.6041
    11.6968  11.7526  11.9334  11.9708  12.1034  12.1757  12.2696  12.3280
    12.4457  12.4947  12.5113  12.5539  12.6576  12.8835  13.0082  13.0236
    13.0960  13.1239  13.1715  13.2301  13.3241  13.3524  13.4228  13.4810
    13.5080  13.6162  13.6745  13.7436  13.7735  13.8323  13.8899  13.9188
    13.9967  14.0476  14.2428  14.2615  14.3384  14.3807  14.4401  14.4736
    14.5266  14.5967  14.6081  14.7428  14.8066  14.8548  14.9314  14.9923
    15.0349  15.0888  15.1904  15.2308  15.2952  15.3353  15.4456  15.5523
    15.6494  15.6694  15.8475  15.9565  16.0605  16.1366  16.2124  16.3317
    16.3514  16.3991  16.4296  16.4968  16.5700  16.5950  16.6940  16.7461
    16.7555  16.8131  16.8930  16.9767  17.0038  17.0591  17.1646  17.2496
    17.3086  17.4442  17.4607  17.5260  17.6447  17.7335  17.7712  17.8245
    17.8742  17.9014  18.0177  18.0481  18.1129  18.2520  18.3695  18.4451
    18.4877  18.5072  18.5929  18.6360  18.6476  18.7700  18.8129  18.8640
    18.9252  19.0005  19.0115  19.1246  19.1534  19.2316  19.2455  19.4211
    19.4390  19.4928  19.5268  19.6263  19.6878  19.7221  19.8162  19.8372
    19.9560  20.0477  20.0743  20.1584  20.2575  20.2787  20.3227  20.4080
    20.4729  20.5507  20.5857  20.7213  20.7579  20.8598  20.8949  20.9556
    20.9841  21.1868  21.2530  21.3290  21.3978  21.4815  21.5279  21.6298
    21.6781  21.6965  21.7314  21.8521  21.8718

          k =-0.5000-0.4953 0.0000 ( 31140 PWs)   bands (ev):

   -52.3509 -52.0518 -51.9344 -51.2798 -51.2787 -51.1503 -51.1369 -51.1274
   -51.1230 -51.1015 -51.1003 -50.9852 -50.9758 -50.9633 -50.9443 -50.8945
   -50.8922 -50.8305 -50.8281 -50.7693 -50.7684 -50.7627 -50.7596 -50.6272
   -21.5011 -21.4048 -20.9827 -20.8912 -20.8892 -20.8806 -20.6902 -20.6797
   -20.6712 -20.5857 -20.5271 -20.3435 -20.3231 -20.3088 -19.9012 -19.8785
   -19.0465 -19.0015 -18.9879  -9.7316  -9.5439  -9.0986  -8.9877  -8.9752
    -8.9568  -8.9360  -8.8093  -8.7935  -8.7662  -8.6996  -8.6584  -8.5046
    -8.4514  -8.4358  -8.3677  -8.3290  -8.3135  -8.2223  -8.2136  -7.9047
    -7.6660  -7.3562  -7.2675  -7.0807  -6.9643  -6.8745  -6.8437  -6.7703
    -6.7295  -6.6973  -6.6286  -6.6061  -6.5612  -6.4799  -6.4139  -6.3295
    -6.2469  -6.0804  -5.9356  -5.5315  -5.4162  -5.2270  -5.1225  -4.9328
    -4.8102  -4.7661  -4.7015  -4.4285  -4.4032  -4.2572  -3.9376  -3.7346
    -3.6255  -3.4959  -3.4433  -3.3120  -3.1261  -3.0111  -2.8901  -2.8494
    -2.7783  -2.5663  -2.5000  -2.4397  -2.3256  -2.2381  -2.1192  -2.0775
    -1.6706  -1.6341  -1.5330  -1.5014  -1.4599  -1.2995  -1.2395  -1.1868
    -1.0621  -1.0445  -0.9932  -0.9364  -0.0238   0.4794   0.9321   0.9442
     1.0572   1.3647   1.4874   1.9452   1.9558   2.5064   2.5930   2.6437
     2.8052   3.1865   3.1976   3.2484   4.7827   4.8144   5.2067   5.3755
     5.3801   6.1923   6.1991   6.3307   6.3320   6.3916   6.4489   6.5817
     6.6822   6.8355   6.8489   6.9162   6.9784   7.0293   7.0674   7.0703
     7.5016   7.5829   7.7099   7.8059   7.8092   7.8686   7.9574   8.0439
     8.1755   8.4705   8.7471   8.7869   8.7878   8.8102   8.8114   8.8724
     8.9388   8.9639   8.9822   8.9860   8.9870   9.1686   9.2140   9.2640
     9.3344   9.3957   9.9414   9.9880  10.0115  10.0503  10.0770  10.1534
    10.1689  10.3343  10.4767  10.6257  10.8867  10.9293  10.9799  11.0019
    11.2963  11.3363  11.6855  11.7528  11.8673  11.9355  12.0313  12.1408
    12.2583  12.2702  12.4345  12.4471  12.6077  12.6613  12.7502  12.8471
    12.9108  12.9247  13.0410  13.1011  13.1250  13.2466  13.3771  13.3910
    13.4355  13.4446  13.4822  13.5554  13.6391  13.6469  13.6953  13.7016
    13.7840  13.7909  13.9031  13.9235  13.9345  13.9521  13.9778  14.0162
    14.0804  14.1047  14.1786  14.1882  14.2276  14.2549  14.3112  14.3357
    14.3528  14.4742  14.4842  14.5436  14.6109  14.6317  14.6768  14.7134
    14.8601  15.0334  15.0748  15.1341  15.2042  15.2427  15.2510  15.2929
    15.3163  15.3483  15.3674  15.3874  15.4082  15.5439  15.5974  15.6262
    15.7907  15.8421  15.8554  15.8669  15.8918  15.9823  16.0168  16.1797
    16.2947  16.3339  16.4739  16.5292  16.7219  16.8048  16.8826  16.8964
    16.9298  16.9601  17.0212  17.0672  17.1664  17.2259  17.2284  17.3644
    17.6213  17.7635  17.8034  17.9417  18.0669  18.0981  18.1415  18.1868
    18.2243  18.3614  18.3743  18.4175  18.5906  18.6412  18.7458  18.9251
    18.9560  19.0982  19.1631  19.3281  19.3651  19.4208  19.4638  19.5118
    19.6246  19.6883  19.7329  19.9509  19.9787  20.0510  20.1130  20.1795
    20.2417  20.2951  20.4436  20.5836  20.6261  20.6288  20.6600  20.7408
    20.7579  20.8834  20.9643  21.1087  21.1212  21.1686  21.1868  21.2496
    21.2776  21.3076  21.3353  21.3573  21.4038  21.4533  21.4954  21.5286
    21.5423  21.5714  21.5956  21.6137  21.6391

          k =-0.2500 0.2476 0.0000 ( 31099 PWs)   bands (ev):

   -52.3508 -52.0521 -51.9346 -51.2814 -51.2767 -51.1766 -51.1400 -51.1319
   -51.1223 -51.1009 -51.0642 -50.9832 -50.9757 -50.9660 -50.9446 -50.8933
   -50.8900 -50.8625 -50.7950 -50.7741 -50.7665 -50.7634 -50.7553 -50.6271
   -21.7257 -21.3823 -21.3326 -21.2331 -20.9039 -20.7916 -20.7265 -20.6318
   -20.4696 -20.4423 -20.3402 -20.2927 -20.1802 -20.1435 -19.9769 -19.8007
   -19.0553 -18.9777 -18.8826 -10.1422 -10.1120  -9.9215  -9.5768  -9.3220
    -9.1658  -9.1099  -9.0063  -8.9645  -8.9266  -8.8809  -8.7588  -8.6538
    -8.5483  -8.3839  -8.2667  -8.2221  -8.0318  -7.8813  -7.6871  -7.6101
    -7.4310  -7.3830  -7.2178  -7.0217  -6.8498  -6.7034  -6.6447  -6.5701
    -6.4634  -6.4057  -6.3263  -6.2551  -6.1968  -6.1444  -5.9737  -5.9083
    -5.7417  -5.6787  -5.5433  -5.3607  -5.3001  -5.1408  -5.0255  -4.9577
    -4.8495  -4.6679  -4.5960  -4.4823  -4.3920  -4.3548  -4.2278  -3.9371
    -3.7079  -3.6019  -3.5149  -3.4567  -3.3512  -3.0062  -2.9980  -2.9589
    -2.9177  -2.7591  -2.7372  -2.6578  -2.6333  -2.5440  -2.4803  -2.3347
    -2.2370  -1.9061  -1.8080  -1.6546  -1.5040  -1.3249  -1.1348  -1.0529
    -0.9848  -0.8335  -0.7537  -0.5309  -0.2278   0.4660   0.7016   1.0574
     1.3864   1.5022   1.8569   1.9938   2.3294   2.4734   2.5265   2.6939
     2.8365   3.0616   3.0920   3.5478   3.6351   4.5243   4.8591   5.3332
     5.3857   5.5269   5.5844   6.1698   6.4473   6.5166   6.6841   6.7775
     6.8829   6.9604   7.1865   7.2900   7.3283   7.3604   7.5381   7.8058
     7.8185   7.8895   7.9612   8.0407   8.1653   8.2577   8.3787   8.4574
     8.5465   8.7225   8.7861   8.7879   8.8098   8.8109   8.8273   8.9205
     8.9402   8.9678   8.9829   8.9872   9.0383   9.1141   9.2652   9.4103
     9.4812   9.6015   9.6602   9.7393   9.8091   9.9026  10.0104  10.1338
    10.1719  10.2774  10.4016  10.4527  10.5013  10.5613  10.6571  10.8615
    10.9115  10.9474  11.0591  11.0884  11.1598  11.3068  11.4264  11.5562
    11.6169  11.6587  11.7486  11.8045  11.8425  12.0353  12.0793  12.1754
    12.2369  12.2597  12.3874  12.5170  12.5312  12.6479  12.6879  12.7285
    12.7944  12.8655  12.9191  12.9687  13.0525  13.0725  13.1698  13.2292
    13.2697  13.4132  13.4374  13.5130  13.6284  13.8106  13.8919  13.9080
    14.0002  14.0646  14.1801  14.2170  14.2770  14.4072  14.4407  14.5898
    14.6664  14.7524  14.7946  14.9300  15.0354  15.0885  15.2000  15.2914
    15.3647  15.4217  15.5452  15.5963  15.6583  15.7404  15.8098  15.8306
    15.9410  15.9932  16.0286  16.1288  16.1354  16.2181  16.3062  16.3372
    16.4000  16.4148  16.5259  16.5630  16.6223  16.6899  16.7330  16.7748
    16.8383  16.9907  17.1474  17.1861  17.2378  17.3045  17.3479  17.4665
    17.4940  17.5387  17.5819  17.6681  17.7214  17.7870  17.8682  17.9141
    17.9690  18.0104  18.0734  18.1861  18.1912  18.2481  18.3686  18.4564
    18.5166  18.5930  18.6235  18.7192  18.7698  18.8956  18.9855  19.0252
    19.0555  19.1070  19.1730  19.2289  19.2624  19.3410  19.3834  19.4918
    19.5957  19.6272  19.6669  19.7294  19.8572  19.9206  19.9750  20.0605
    20.1801  20.2749  20.3022  20.3666  20.4443  20.4934  20.5840  20.6955
    20.7197  20.7716  20.8050  20.8367  20.8507  20.9390  21.0574  21.1408
    21.2243  21.2842  21.3634  21.4061  21.4700  21.5294  21.5618  21.6666
    21.7482  21.8038  21.8506  21.8795  21.9218

     the Fermi energy is    -1.1699 ev

!    total energy              =   -2105.55939425 Ry
     Harris-Foulkes estimate   =   -2105.55939426 Ry
     estimated scf accuracy    <          4.9E-09 Ry

     The total energy is the sum of the following terms:

     one-electron contribution =  -22692.41335127 Ry
     hartree contribution      =   11387.13361277 Ry
     xc contribution           =    -576.28631720 Ry
     ewald contribution        =    9775.40896874 Ry
     Hubbard energy            =       0.59777527 Ry
     smearing contrib. (-TS)   =      -0.00008256 Ry

     convergence has been achieved in  15 iterations

     Forces acting on atoms (Ry/au):


     negative rho (up, down):  0.313E+01 0.000E+00
     atom    1 type  1   force =    -0.00770227   -0.01359926   -0.00052286
     atom    2 type  1   force =     0.00004654    0.00429732    0.00008712
     atom    3 type  2   force =     0.03797055    0.00710398   -0.00039787
     atom    4 type  2   force =     0.00980623    0.00860022   -0.00002733
     atom    5 type  1   force =    -0.00265322   -0.01702433    0.00015821
     atom    6 type  1   force =     0.00479941    0.01474154    0.00023419
     atom    7 type  1   force =    -0.00030477   -0.00189135    0.00029856
     atom    8 type  1   force =    -0.00349583   -0.00077297    0.00007601
     atom    9 type  2   force =     0.00685199    0.00066464   -0.00011678
     atom   10 type  2   force =     0.00000583   -0.00098250   -0.00053376
     atom   11 type  1   force =     0.00331043    0.00579064    0.00002021
     atom   12 type  1   force =     0.00287470   -0.00628195    0.00001166
     atom   13 type  1   force =    -0.00095203    0.00000757    0.00025479
     atom   14 type  1   force =    -0.00792729   -0.01403908   -0.00032011
     atom   15 type  1   force =     0.00013053    0.00510983   -0.00008026
     atom   16 type  2   force =    -0.03814004    0.00607951   -0.00043263
     atom   17 type  2   force =     0.00969539    0.00876885   -0.00014246
     atom   18 type  1   force =    -0.00319049   -0.01651286    0.00016045
     atom   19 type  1   force =     0.00338673    0.01527208    0.00023151
     atom   20 type  1   force =    -0.00019963   -0.00504912   -0.00026994
     atom   21 type  1   force =    -0.00334357   -0.00051662   -0.00008495
     atom   22 type  2   force =    -0.00426713    0.00049944   -0.00010442
     atom   23 type  2   force =    -0.00006284    0.00025552    0.00026130
     atom   24 type  1   force =    -0.00330871    0.00577009    0.00001111
     atom   25 type  1   force =    -0.00262079   -0.00631839    0.00001773
     atom   26 type  1   force =    -0.00089236   -0.00013872   -0.00026172
     atom   27 type  3   force =    -0.00000236   -0.00008217    0.00050407
     atom   28 type  3   force =     0.00001203   -0.00001613    0.00054372
     atom   29 type  3   force =     0.00018456    0.00005737    0.00005920
     atom   30 type  3   force =    -0.00000354    0.00021604    0.00006019
     atom   31 type  1   force =    -0.00000807   -0.00000918    0.00030508

     Total force =     0.001531     Total SCF correction =     0.000157
     SCF correction compared to forces is large: reduce conv_thr to get better values

     bfgs converged in   7 scf cycles and   6 bfgs steps
     (criteria: energy < 0.10E-03, force < 0.10E-02)

     End of BFGS Geometry Optimization

     Final energy   =   -2105.5593942523 Ry
Begin final coordinates

ATOMIC_POSITIONS (crystal)
O0       0.000000000   0.000000000   0.378222608    0   0   1
O0       0.000000000   0.500000000   0.403355702    0   0   1
Ir1      0.250000000   0.500000000   0.453372718    0   0   1
Ir1      0.000000000   0.000000000   0.452871778    0   0   1
O0       0.250000000   0.810000000   0.452929755    0   0   1
O0       0.250000000   0.190000000   0.452551808    0   0   1
O0       0.000000000   0.500000000   0.499078357    0   0   1
O0       0.000000000   0.000000000   0.528291533    0   0   1
Ir1      0.250000000   0.000000000   0.575150357    0   0   1
Ir1      0.000000000   0.500000000   0.571970577    0   0   1
O0       0.250000000   0.690000000   0.574596636    0   0   1
O0       0.250000000   0.310000000   0.574626604    0   0   1
O0       0.000000000   0.000000000   0.619524058    0   0   1
O0       0.500000000   0.000000000   0.378095199    0   0   1
O0       0.500000000   0.500000000   0.402798661    0   0   1
Ir1      0.750000000   0.500000000   0.453377615    0   0   1
Ir1      0.500000000   0.000000000   0.452820751    0   0   1
O0       0.750000000   0.810000000   0.452945052    0   0   1
O0       0.750000000   0.190000000   0.452558998    0   0   1
O0       0.500000000   0.500000000   0.500980551    0   0   1
O0       0.500000000   0.000000000   0.528254806    0   0   1
Ir1      0.750000000   0.000000000   0.575152333    0   0   1
Ir1      0.500000000   0.500000000   0.578394020    0   0   1
O0       0.750000000   0.690000000   0.574595111    0   0   1
O0       0.750000000   0.310000000   0.574624626    0   0   1
O0       0.500000000   0.000000000   0.619449284    0   0   1
H2      -0.000104488   0.633333294   0.384336772
H2       0.499947910   0.635972684   0.384883430
H2       0.143350451   0.033990293   0.366504697
H2       0.642973155   0.035352218   0.366378261
O0       0.500015631   0.499509982   0.645367340
End final coordinates



     init_run     :    115.28s CPU    117.79s WALL (       1 calls)
     electrons    :  23272.17s CPU  23949.93s WALL (       7 calls)
     update_pot   :    123.72s CPU    131.33s WALL (       6 calls)
     forces       :    969.57s CPU    987.36s WALL (       7 calls)

     Called by init_run:
     wfcinit      :     39.97s CPU     40.98s WALL (       1 calls)
     potinit      :      7.51s CPU      7.70s WALL (       1 calls)

     Called by electrons:
     c_bands      :  12010.71s CPU  12396.93s WALL (     124 calls)
     sum_band     :   4710.28s CPU   4848.43s WALL (     124 calls)
     v_of_rho     :    141.55s CPU    154.52s WALL (     126 calls)
     newd         :   6704.86s CPU   6743.71s WALL (     126 calls)
     mix_rho      :     24.68s CPU     25.36s WALL (     124 calls)

     Called by c_bands:
     init_us_2    :     28.97s CPU     29.41s WALL (     810 calls)
     cegterg      :  11831.29s CPU  12169.93s WALL (     372 calls)

     Called by *egterg:
     h_psi        :   6995.07s CPU   7212.00s WALL (     972 calls)
     s_psi        :    725.55s CPU    734.46s WALL (    1014 calls)
     g_psi        :     14.78s CPU     14.81s WALL (     597 calls)
     cdiaghg      :    942.59s CPU    945.54s WALL (     936 calls)

     Called by h_psi:
     add_vuspsi   :    700.05s CPU    709.22s WALL (     972 calls)
     vhpsi        :    735.57s CPU    744.48s WALL (     972 calls)

     General routines
     calbec       :   1715.84s CPU   1736.00s WALL (    8631 calls)
     fft          :    183.81s CPU    228.27s WALL (    2091 calls)
     ffts         :      2.32s CPU      2.39s WALL (     250 calls)
     fftw         :   4025.03s CPU   4275.07s WALL (  691566 calls)
     interpolate  :     21.39s CPU     21.71s WALL (     250 calls)
     davcio       :      0.06s CPU     14.02s WALL (     831 calls)

     Parallel routines
     fft_scatter  :   1537.70s CPU   1820.97s WALL (  693907 calls)
     Hubbard U routines
     new_ns       :    153.58s CPU    162.03s WALL (     124 calls)
     vhpsi        :    735.57s CPU    744.48s WALL (     972 calls)
     force_hub    :    260.73s CPU    267.87s WALL (       7 calls)

     PWSCF        :     6h54m CPU        7h 6m WALL


   This run was terminated on:  10:16:20  29Apr2014            

=------------------------------------------------------------------------------=
   JOB DONE.
=------------------------------------------------------------------------------=
---------------------------------------
Running PBS batch system epilogue script
Job id: 340402.audhumbla.fysik.dtu.dk
Username: zhonxu
Groupname: campgst
Jobname: IrO2/Eads-2-layers/O-U-1.5
Sessionid: 6489
Resources limits: neednodes=2:ppn=8:xeon8,nodes=2:ppn=8:xeon8,walltime=48:00:00
Resources used: cput=113:33:30,mem=17810584kb,vmem=21500856kb,walltime=07:06:16
Queuename: verylong
Accounting:
This job has allocated the following 16 nodes:
a112 a112 a112 a112 a112 a112 a112 a112 a058 a058 a058 a058 a058 a058 a058 a058
Finished epilogue job 340402.audhumbla.fysik.dtu.dk for zhonxu
