
     Program PWSCF v.5.0.2 (svn rev. 9656) starts on  1May2014 at  6:30:56 

     This program is part of the open-source Quantum ESPRESSO suite
     for quantum simulation of materials; please cite
         "P. Giannozzi et al., J. Phys.:Condens. Matter 21 395502 (2009);
          URL http://www.quantum-espresso.org", 
     in publications or presentations arising from this work. More details at
     http://www.quantum-espresso.org/quote.php

     Parallel version (MPI), running on    16 processors
     K-points division:     npool     =       4
     R & G space division:  proc/nbgrp/npool/nimage =       4

     Current dimensions of program PWSCF are:
     Max number of different atomic species (ntypx) = 10
     Max number of k-points (npk) =  40000
     Max angular momentum in pseudopotentials (lmaxx) =  3
     Reading input from pwscf.in
Warning: card &CELL ignored
Warning: card / ignored

     Subspace diagonalization in iterative solution of the eigenvalue problem:
     a serial algorithm will be used


     Parallelization info
     --------------------
     sticks:   dense  smooth     PW     G-vecs:    dense   smooth      PW
     Min        1274     408    116               299662    54238    8133
     Max        1275     409    117               299663    54251    8135
     Sum        5097    1635    467              1198649   216969   32535



     bravais-lattice index     =            0
     lattice parameter (alat)  =      10.9604  a.u.
     unit-cell volume          =    6350.6732 (a.u.)^3
     number of atoms/cell      =           33
     number of atomic types    =            3
     number of electrons       =       237.00 (up: 126.00, down: 111.00)
     number of Kohn-Sham states=          343
     kinetic-energy cutoff     =      40.0000  Ry
     charge density cutoff     =     500.0000  Ry
     convergence threshold     =      1.0E-06
     mixing beta               =       0.3000
     number of iterations used =            8  plain     mixing
     Exchange-correlation      = SLA  PW   PBE  PBE ( 1 4 3 4 0)
     EXX-fraction              =        0.00
     nstep                     =           50


     celldm(1)=  10.960412  celldm(2)=   0.000000  celldm(3)=   0.000000
     celldm(4)=   0.000000  celldm(5)=   0.000000  celldm(6)=   0.000000

     crystal axes: (cart. coord. in units of alat)
               a(1) = (   1.000000   0.000000   0.000000 )  
               a(2) = (   0.000000   1.067975   0.000000 )  
               a(3) = (   0.000000   0.000000   4.516251 )  

     reciprocal axes: (cart. coord. in units 2 pi/alat)
               b(1) = (  1.000000  0.000000  0.000000 )  
               b(2) = (  0.000000  0.936351  0.000000 )  
               b(3) = (  0.000000  0.000000  0.221423 )  


     PseudoPot. # 1 for O  read from file:
     /home/camp/zhonxu/pseudo/o_pbe_v1.01.uspp.F.UPF
     MD5 check sum: 2bcb18d16ea4b960afae9ec6d52f22d2
     Pseudo is Ultrasoft + core correction, Zval =  6.0
     Generated by new atomic code, or converted to UPF format
     Using radial grid of  737 points,  5 beta functions with: 
                l(1) =   0
                l(2) =   0
                l(3) =   1
                l(4) =   1
                l(5) =   2
     Q(r) pseudized with  8 coefficients,  rinner =    0.900   0.900   0.900
                                                       0.900   0.900

     PseudoPot. # 2 for Cr read from file:
     /home/camp/zhonxu/pseudo/cr_pbe_v1.uspp.F.UPF
     MD5 check sum: 68b6f918d1762dccfb11451fe85b0e0e
     Pseudo is Ultrasoft + core correction, Zval = 14.0
     Generated by new atomic code, or converted to UPF format
     Using radial grid of  857 points,  6 beta functions with: 
                l(1) =   0
                l(2) =   0
                l(3) =   1
                l(4) =   1
                l(5) =   2
                l(6) =   2
     Q(r) pseudized with  6 coefficients,  rinner =    1.000   1.000   1.000
                                                       1.000   1.000

     PseudoPot. # 3 for H  read from file:
     /home/camp/zhonxu/pseudo/h_pbe_v1.uspp.F.UPF
     MD5 check sum: 3408e3ff4ec8b0a4e358431e7e038a48
     Pseudo is Ultrasoft, Zval =  1.0
     Generated by new atomic code, or converted to UPF format
     Using radial grid of  615 points,  2 beta functions with: 
                l(1) =   0
                l(2) =   0
     Q(r) pseudized with  8 coefficients,  rinner =    0.700

     atomic species   valence    mass     pseudopotential
        O0             6.00    15.99940     O ( 1.00)
        Cr1           14.00    51.99600     Cr( 1.00)
        H2             1.00     1.00794     H ( 1.00)

     Starting magnetic structure 
     atomic species   magnetization
        O0           0.000
        Cr1          0.600
        H2           0.000

     No symmetry found



   Cartesian axes

     site n.     atom                  positions (alat units)
         1           O0  tau(   1) = (   0.0000000   0.0000000   1.7181625  )
         2           O0  tau(   2) = (   0.0000000   0.5339875   1.8008551  )
         3           Cr1 tau(   3) = (   0.2500000   0.5339875   2.0300096  )
         4           Cr1 tau(   4) = (   0.0000000   0.0000000   2.0413454  )
         5           O0  tau(   5) = (   0.2500000   0.8543801   2.0369195  )
         6           O0  tau(   6) = (   0.2500000   0.2135950   2.0378227  )
         7           O0  tau(   7) = (   0.0000000   0.5339875   2.2471058  )
         8           O0  tau(   8) = (   0.0000000   0.0000000   2.3700833  )
         9           Cr1 tau(   9) = (   0.2500000   0.0000000   2.6079543  )
        10           Cr1 tau(  10) = (   0.0000000   0.5339875   2.5535334  )
        11           O0  tau(  11) = (   0.2500000   0.7475825   2.5983798  )
        12           O0  tau(  12) = (   0.2500000   0.3203925   2.5982895  )
        13           O0  tau(  13) = (   0.0000000   0.0000000   2.7910882  )
        14           O0  tau(  14) = (   0.5000000   0.0000000   1.7181625  )
        15           O0  tau(  15) = (   0.5000000   0.5339875   1.8008551  )
        16           Cr1 tau(  16) = (   0.7500000   0.5339875   2.0300096  )
        17           Cr1 tau(  17) = (   0.5000000   0.0000000   2.0413454  )
        18           O0  tau(  18) = (   0.7500000   0.8543801   2.0369195  )
        19           O0  tau(  19) = (   0.7500000   0.2135950   2.0378227  )
        20           O0  tau(  20) = (   0.5000000   0.5339875   2.2471058  )
        21           O0  tau(  21) = (   0.5000000   0.0000000   2.3700833  )
        22           Cr1 tau(  22) = (   0.7500000   0.0000000   2.6079543  )
        23           Cr1 tau(  23) = (   0.5000000   0.5339875   2.5535334  )
        24           O0  tau(  24) = (   0.7500000   0.7475825   2.5983798  )
        25           O0  tau(  25) = (   0.7500000   0.3203925   2.5982895  )
        26           O0  tau(  26) = (   0.5000000   0.0000000   2.7910882  )
        27           H2  tau(  27) = (  -0.0006900   0.6851274   1.7196980  )
        28           H2  tau(  28) = (   0.4993100   0.6851274   1.7196980  )
        29           H2  tau(  29) = (   0.1573400   0.0316548   1.6594512  )
        30           H2  tau(  30) = (   0.6573500   0.0316548   1.6594512  )
        31           O0  tau(  31) = (   0.5000000   0.5339875   2.8983492  )
        32           O0  tau(  32) = (   0.5000000   0.3331228   3.0166298  )
        33           H2  tau(  33) = (   0.5000000   0.3841720   3.1798923  )

     number of k points=    20  Methfessel-Paxton smearing, width (Ry)=  0.0100
                       cart. coord. in units 2pi/alat
        k(    1) = (   0.0000000   0.0000000   0.0000000), wk =   0.0625000
        k(    2) = (   0.0000000   0.2340879   0.0000000), wk =   0.1250000
        k(    3) = (   0.0000000  -0.4681757   0.0000000), wk =   0.0625000
        k(    4) = (   0.2500000   0.0000000   0.0000000), wk =   0.1250000
        k(    5) = (   0.2500000   0.2340879   0.0000000), wk =   0.1250000
        k(    6) = (   0.2500000  -0.4681757   0.0000000), wk =   0.1250000
        k(    7) = (  -0.5000000   0.0000000   0.0000000), wk =   0.0625000
        k(    8) = (  -0.5000000   0.2340879   0.0000000), wk =   0.1250000
        k(    9) = (  -0.5000000  -0.4681757   0.0000000), wk =   0.0625000
        k(   10) = (  -0.2500000   0.2340879   0.0000000), wk =   0.1250000
        k(   11) = (   0.0000000   0.0000000   0.0000000), wk =   0.0625000
        k(   12) = (   0.0000000   0.2340879   0.0000000), wk =   0.1250000
        k(   13) = (   0.0000000  -0.4681757   0.0000000), wk =   0.0625000
        k(   14) = (   0.2500000   0.0000000   0.0000000), wk =   0.1250000
        k(   15) = (   0.2500000   0.2340879   0.0000000), wk =   0.1250000
        k(   16) = (   0.2500000  -0.4681757   0.0000000), wk =   0.1250000
        k(   17) = (  -0.5000000   0.0000000   0.0000000), wk =   0.0625000
        k(   18) = (  -0.5000000   0.2340879   0.0000000), wk =   0.1250000
        k(   19) = (  -0.5000000  -0.4681757   0.0000000), wk =   0.0625000
        k(   20) = (  -0.2500000   0.2340879   0.0000000), wk =   0.1250000

     Dense  grid:  1198649 G-vectors     FFT dimensions: (  80,  90, 360)

     Smooth grid:   216969 G-vectors     FFT dimensions: (  45,  48, 200)

     Largest allocated arrays     est. size (Mb)     dimensions
        Kohn-Sham Wavefunctions        36.03 Mb     (   6884,  343)
        NL pseudopotentials            43.49 Mb     (   6884,  414)
        Each V/rho on FFT grid         19.78 Mb     ( 648000,   2)
        Each G-vector array             2.29 Mb     ( 299662)
        G-vector shells                 0.99 Mb     ( 129803)
     Largest temporary arrays     est. size (Mb)     dimensions
        Auxiliary wavefunctions       144.12 Mb     (   6884, 1372)
        Each subspace H/S matrix       28.72 Mb     (1372,1372)
        Each <psi_i|beta_j> matrix      2.17 Mb     (    414,  343)
        Arrays for rho mixing          79.10 Mb     ( 648000,   8)

     Check: negative/imaginary core charge=   -0.000012    0.000000

     Initial potential from superposition of free atoms
     Check: negative starting charge=(component1):   -0.001323
     Check: negative starting charge=(component2):   -0.000458

     starting charge  228.99983, renormalised to  237.00000

     negative rho (up, down):  0.137E-02 0.474E-03
     Starting wfc are  165 randomized atomic wfcs

     total cpu time spent up to now is      145.5 secs

     per-process dynamical memory:   460.4 Mb

     Self-consistent Calculation

     iteration #  1     ecut=    40.00 Ry     beta=0.30
     Davidson diagonalization with overlap
     ethr =  1.00E-02,  avg # of iterations =  5.4

     negative rho (up, down):  0.167E-02 0.626E-03

     total cpu time spent up to now is      646.7 secs

     total energy              =   -2053.25223486 Ry
     Harris-Foulkes estimate   =   -2055.96347620 Ry
     estimated scf accuracy    <      16.28828247 Ry

     total magnetization       =    15.00 Bohr mag/cell
     absolute magnetization    =    30.43 Bohr mag/cell

     iteration #  2     ecut=    40.00 Ry     beta=0.30
     Davidson diagonalization with overlap
     ethr =  6.87E-03,  avg # of iterations =  3.9

     negative rho (up, down):  0.567E-02 0.277E-02

     total cpu time spent up to now is      942.6 secs

     total energy              =   -2054.36926374 Ry
     Harris-Foulkes estimate   =   -2058.84299067 Ry
     estimated scf accuracy    <      25.82295249 Ry

     total magnetization       =    15.00 Bohr mag/cell
     absolute magnetization    =    27.54 Bohr mag/cell

     iteration #  3     ecut=    40.00 Ry     beta=0.30
     Davidson diagonalization with overlap
     ethr =  6.87E-03,  avg # of iterations =  2.9

     negative rho (up, down):  0.812E-02 0.509E-02

     total cpu time spent up to now is     1212.0 secs

     total energy              =   -2055.34641336 Ry
     Harris-Foulkes estimate   =   -2058.66794092 Ry
     estimated scf accuracy    <      41.19114151 Ry

     total magnetization       =    15.00 Bohr mag/cell
     absolute magnetization    =    23.08 Bohr mag/cell

     iteration #  4     ecut=    40.00 Ry     beta=0.30
     Davidson diagonalization with overlap
     ethr =  6.87E-03,  avg # of iterations =  2.1

     negative rho (up, down):  0.803E-02 0.556E-02

     total cpu time spent up to now is     1464.3 secs

     total energy              =   -2057.04171804 Ry
     Harris-Foulkes estimate   =   -2058.21337870 Ry
     estimated scf accuracy    <      17.09543744 Ry

     total magnetization       =    15.00 Bohr mag/cell
     absolute magnetization    =    28.02 Bohr mag/cell

     iteration #  5     ecut=    40.00 Ry     beta=0.30
     Davidson diagonalization with overlap
     ethr =  6.87E-03,  avg # of iterations =  1.0

     negative rho (up, down):  0.429E-02 0.263E-02

     total cpu time spent up to now is     1711.2 secs

     total energy              =   -2058.25412705 Ry
     Harris-Foulkes estimate   =   -2057.94324530 Ry
     estimated scf accuracy    <       3.68723337 Ry

     total magnetization       =    15.00 Bohr mag/cell
     absolute magnetization    =    26.46 Bohr mag/cell

     iteration #  6     ecut=    40.00 Ry     beta=0.30
     Davidson diagonalization with overlap
     ethr =  1.56E-03,  avg # of iterations =  1.3

     negative rho (up, down):  0.420E-02 0.169E-02

     total cpu time spent up to now is     1957.6 secs

     total energy              =   -2058.77474060 Ry
     Harris-Foulkes estimate   =   -2058.68897205 Ry
     estimated scf accuracy    <       2.33519629 Ry

     total magnetization       =    15.00 Bohr mag/cell
     absolute magnetization    =    24.66 Bohr mag/cell

     iteration #  7     ecut=    40.00 Ry     beta=0.30
     Davidson diagonalization with overlap
     ethr =  9.85E-04,  avg # of iterations =  1.1

     negative rho (up, down):  0.452E-02 0.195E-02

     total cpu time spent up to now is     2206.7 secs

     total energy              =   -2058.90413589 Ry
     Harris-Foulkes estimate   =   -2059.01188152 Ry
     estimated scf accuracy    <       1.17027510 Ry

     total magnetization       =    15.00 Bohr mag/cell
     absolute magnetization    =    21.91 Bohr mag/cell

     iteration #  8     ecut=    40.00 Ry     beta=0.30
     Davidson diagonalization with overlap
     ethr =  4.94E-04,  avg # of iterations =  1.9

     negative rho (up, down):  0.477E-02 0.241E-02

     total cpu time spent up to now is     2462.4 secs

     total energy              =   -2059.00114753 Ry
     Harris-Foulkes estimate   =   -2059.03755426 Ry
     estimated scf accuracy    <       0.56250417 Ry

     total magnetization       =    15.00 Bohr mag/cell
     absolute magnetization    =    21.40 Bohr mag/cell

     iteration #  9     ecut=    40.00 Ry     beta=0.30
     Davidson diagonalization with overlap
     ethr =  2.37E-04,  avg # of iterations =  4.5

     negative rho (up, down):  0.461E-02 0.225E-02

     total cpu time spent up to now is     2745.3 secs

     total energy              =   -2059.04113657 Ry
     Harris-Foulkes estimate   =   -2059.05049316 Ry
     estimated scf accuracy    <       0.10648048 Ry

     total magnetization       =    15.00 Bohr mag/cell
     absolute magnetization    =    20.53 Bohr mag/cell

     iteration # 10     ecut=    40.00 Ry     beta=0.30
     Davidson diagonalization with overlap
     ethr =  4.49E-05,  avg # of iterations =  6.3

     negative rho (up, down):  0.441E-02 0.206E-02

     total cpu time spent up to now is     3050.8 secs

     total energy              =   -2059.04718112 Ry
     Harris-Foulkes estimate   =   -2059.05616696 Ry
     estimated scf accuracy    <       0.10681184 Ry

     total magnetization       =    15.00 Bohr mag/cell
     absolute magnetization    =    20.58 Bohr mag/cell

     iteration # 11     ecut=    40.00 Ry     beta=0.30
     Davidson diagonalization with overlap
     ethr =  4.49E-05,  avg # of iterations =  1.0

     negative rho (up, down):  0.436E-02 0.192E-02

     total cpu time spent up to now is     3300.8 secs

     total energy              =   -2059.05397831 Ry
     Harris-Foulkes estimate   =   -2059.05678490 Ry
     estimated scf accuracy    <       0.10813879 Ry

     total magnetization       =    15.00 Bohr mag/cell
     absolute magnetization    =    19.55 Bohr mag/cell

     iteration # 12     ecut=    40.00 Ry     beta=0.30
     Davidson diagonalization with overlap
     ethr =  4.49E-05,  avg # of iterations =  1.0

     negative rho (up, down):  0.426E-02 0.180E-02

     total cpu time spent up to now is     3552.1 secs

     total energy              =   -2059.06109909 Ry
     Harris-Foulkes estimate   =   -2059.05815863 Ry
     estimated scf accuracy    <       0.01218623 Ry

     total magnetization       =    15.00 Bohr mag/cell
     absolute magnetization    =    19.79 Bohr mag/cell

     iteration # 13     ecut=    40.00 Ry     beta=0.30
     Davidson diagonalization with overlap
     c_bands:  1 eigenvalues not converged
     ethr =  5.14E-06,  avg # of iterations =  4.7

     negative rho (up, down):  0.429E-02 0.176E-02

     total cpu time spent up to now is     3832.5 secs

     total energy              =   -2059.06307230 Ry
     Harris-Foulkes estimate   =   -2059.06302647 Ry
     estimated scf accuracy    <       0.01876963 Ry

     total magnetization       =    15.00 Bohr mag/cell
     absolute magnetization    =    19.37 Bohr mag/cell

     iteration # 14     ecut=    40.00 Ry     beta=0.30
     Davidson diagonalization with overlap
     ethr =  5.14E-06,  avg # of iterations =  1.0

     negative rho (up, down):  0.430E-02 0.174E-02

     total cpu time spent up to now is     4087.8 secs

     total energy              =   -2059.06476277 Ry
     Harris-Foulkes estimate   =   -2059.06475059 Ry
     estimated scf accuracy    <       0.00883282 Ry

     total magnetization       =    15.00 Bohr mag/cell
     absolute magnetization    =    18.95 Bohr mag/cell

     iteration # 15     ecut=    40.00 Ry     beta=0.30
     Davidson diagonalization with overlap
     ethr =  3.73E-06,  avg # of iterations =  1.4

     negative rho (up, down):  0.429E-02 0.172E-02

     total cpu time spent up to now is     4335.7 secs

     total energy              =   -2059.06524369 Ry
     Harris-Foulkes estimate   =   -2059.06555770 Ry
     estimated scf accuracy    <       0.00691703 Ry

     total magnetization       =    15.00 Bohr mag/cell
     absolute magnetization    =    18.84 Bohr mag/cell

     iteration # 16     ecut=    40.00 Ry     beta=0.30
     Davidson diagonalization with overlap
     ethr =  2.92E-06,  avg # of iterations =  1.0

     negative rho (up, down):  0.429E-02 0.171E-02

     total cpu time spent up to now is     4583.6 secs

     total energy              =   -2059.06554626 Ry
     Harris-Foulkes estimate   =   -2059.06575729 Ry
     estimated scf accuracy    <       0.00410788 Ry

     total magnetization       =    15.00 Bohr mag/cell
     absolute magnetization    =    18.80 Bohr mag/cell

     iteration # 17     ecut=    40.00 Ry     beta=0.30
     Davidson diagonalization with overlap
     ethr =  1.73E-06,  avg # of iterations =  2.2

     negative rho (up, down):  0.430E-02 0.171E-02

     total cpu time spent up to now is     4841.4 secs

     total energy              =   -2059.06581207 Ry
     Harris-Foulkes estimate   =   -2059.06586205 Ry
     estimated scf accuracy    <       0.00239593 Ry

     total magnetization       =    15.00 Bohr mag/cell
     absolute magnetization    =    18.69 Bohr mag/cell

     iteration # 18     ecut=    40.00 Ry     beta=0.30
     Davidson diagonalization with overlap
     ethr =  1.01E-06,  avg # of iterations =  1.0

     negative rho (up, down):  0.430E-02 0.171E-02

     total cpu time spent up to now is     5089.8 secs

     total energy              =   -2059.06593761 Ry
     Harris-Foulkes estimate   =   -2059.06598944 Ry
     estimated scf accuracy    <       0.00103748 Ry

     total magnetization       =    15.00 Bohr mag/cell
     absolute magnetization    =    18.66 Bohr mag/cell

     iteration # 19     ecut=    40.00 Ry     beta=0.30
     Davidson diagonalization with overlap
     ethr =  4.38E-07,  avg # of iterations =  1.0

     negative rho (up, down):  0.430E-02 0.170E-02

     total cpu time spent up to now is     5337.8 secs

     total energy              =   -2059.06597442 Ry
     Harris-Foulkes estimate   =   -2059.06604284 Ry
     estimated scf accuracy    <       0.00065939 Ry

     total magnetization       =    15.00 Bohr mag/cell
     absolute magnetization    =    18.62 Bohr mag/cell

     iteration # 20     ecut=    40.00 Ry     beta=0.30
     Davidson diagonalization with overlap
     ethr =  2.78E-07,  avg # of iterations =  1.0

     negative rho (up, down):  0.431E-02 0.170E-02

     total cpu time spent up to now is     5588.8 secs

     total energy              =   -2059.06599877 Ry
     Harris-Foulkes estimate   =   -2059.06606291 Ry
     estimated scf accuracy    <       0.00101916 Ry

     total magnetization       =    15.00 Bohr mag/cell
     absolute magnetization    =    18.61 Bohr mag/cell

     iteration # 21     ecut=    40.00 Ry     beta=0.30
     Davidson diagonalization with overlap
     ethr =  2.78E-07,  avg # of iterations =  1.0

     negative rho (up, down):  0.431E-02 0.170E-02

     total cpu time spent up to now is     5840.3 secs

     total energy              =   -2059.06605934 Ry
     Harris-Foulkes estimate   =   -2059.06605062 Ry
     estimated scf accuracy    <       0.00021424 Ry

     total magnetization       =    15.00 Bohr mag/cell
     absolute magnetization    =    18.55 Bohr mag/cell

     iteration # 22     ecut=    40.00 Ry     beta=0.30
     Davidson diagonalization with overlap
     ethr =  9.04E-08,  avg # of iterations =  1.0

     negative rho (up, down):  0.431E-02 0.170E-02

     total cpu time spent up to now is     6097.0 secs

     total energy              =   -2059.06608012 Ry
     Harris-Foulkes estimate   =   -2059.06607936 Ry
     estimated scf accuracy    <       0.00008420 Ry

     total magnetization       =    15.00 Bohr mag/cell
     absolute magnetization    =    18.54 Bohr mag/cell

     iteration # 23     ecut=    40.00 Ry     beta=0.30
     Davidson diagonalization with overlap
     ethr =  3.55E-08,  avg # of iterations =  1.0

     negative rho (up, down):  0.431E-02 0.170E-02

     total cpu time spent up to now is     6346.1 secs

     total energy              =   -2059.06608869 Ry
     Harris-Foulkes estimate   =   -2059.06608696 Ry
     estimated scf accuracy    <       0.00004281 Ry

     total magnetization       =    15.00 Bohr mag/cell
     absolute magnetization    =    18.51 Bohr mag/cell

     iteration # 24     ecut=    40.00 Ry     beta=0.30
     Davidson diagonalization with overlap
     ethr =  1.81E-08,  avg # of iterations =  1.0

     negative rho (up, down):  0.431E-02 0.170E-02

     total cpu time spent up to now is     6596.7 secs

     total energy              =   -2059.06609244 Ry
     Harris-Foulkes estimate   =   -2059.06609415 Ry
     estimated scf accuracy    <       0.00005933 Ry

     total magnetization       =    15.00 Bohr mag/cell
     absolute magnetization    =    18.50 Bohr mag/cell

     iteration # 25     ecut=    40.00 Ry     beta=0.30
     Davidson diagonalization with overlap
     ethr =  1.81E-08,  avg # of iterations =  1.0

     negative rho (up, down):  0.431E-02 0.170E-02

     total cpu time spent up to now is     6848.1 secs

     total energy              =   -2059.06609582 Ry
     Harris-Foulkes estimate   =   -2059.06609779 Ry
     estimated scf accuracy    <       0.00003989 Ry

     total magnetization       =    15.00 Bohr mag/cell
     absolute magnetization    =    18.50 Bohr mag/cell

     iteration # 26     ecut=    40.00 Ry     beta=0.30
     Davidson diagonalization with overlap
     ethr =  1.68E-08,  avg # of iterations =  1.0

     negative rho (up, down):  0.431E-02 0.170E-02

     total cpu time spent up to now is     7093.4 secs

     total energy              =   -2059.06609810 Ry
     Harris-Foulkes estimate   =   -2059.06609887 Ry
     estimated scf accuracy    <       0.00002401 Ry

     total magnetization       =    15.00 Bohr mag/cell
     absolute magnetization    =    18.50 Bohr mag/cell

     iteration # 27     ecut=    40.00 Ry     beta=0.30
     Davidson diagonalization with overlap
     ethr =  1.01E-08,  avg # of iterations =  1.0

     negative rho (up, down):  0.431E-02 0.170E-02

     total cpu time spent up to now is     7335.2 secs

     total energy              =   -2059.06610097 Ry
     Harris-Foulkes estimate   =   -2059.06610061 Ry
     estimated scf accuracy    <       0.00003516 Ry

     total magnetization       =    15.00 Bohr mag/cell
     absolute magnetization    =    18.48 Bohr mag/cell

     iteration # 28     ecut=    40.00 Ry     beta=0.30
     Davidson diagonalization with overlap
     ethr =  1.01E-08,  avg # of iterations =  1.0

     negative rho (up, down):  0.431E-02 0.170E-02

     total cpu time spent up to now is     7583.7 secs

     total energy              =   -2059.06610238 Ry
     Harris-Foulkes estimate   =   -2059.06610280 Ry
     estimated scf accuracy    <       0.00000996 Ry

     total magnetization       =    15.00 Bohr mag/cell
     absolute magnetization    =    18.49 Bohr mag/cell

     iteration # 29     ecut=    40.00 Ry     beta=0.30
     Davidson diagonalization with overlap
     ethr =  4.20E-09,  avg # of iterations =  1.0

     negative rho (up, down):  0.431E-02 0.170E-02

     total cpu time spent up to now is     7837.2 secs

     total energy              =   -2059.06610344 Ry
     Harris-Foulkes estimate   =   -2059.06610370 Ry
     estimated scf accuracy    <       0.00001078 Ry

     total magnetization       =    15.00 Bohr mag/cell
     absolute magnetization    =    18.48 Bohr mag/cell

     iteration # 30     ecut=    40.00 Ry     beta=0.30
     Davidson diagonalization with overlap
     ethr =  4.20E-09,  avg # of iterations =  1.0

     negative rho (up, down):  0.431E-02 0.170E-02

     total cpu time spent up to now is     8078.9 secs

     total energy              =   -2059.06610313 Ry
     Harris-Foulkes estimate   =   -2059.06610467 Ry
     estimated scf accuracy    <       0.00001449 Ry

     total magnetization       =    15.00 Bohr mag/cell
     absolute magnetization    =    18.49 Bohr mag/cell

     iteration # 31     ecut=    40.00 Ry     beta=0.30
     Davidson diagonalization with overlap
     ethr =  4.20E-09,  avg # of iterations =  1.0

     negative rho (up, down):  0.431E-02 0.170E-02

     total cpu time spent up to now is     8324.3 secs

     total energy              =   -2059.06610424 Ry
     Harris-Foulkes estimate   =   -2059.06610414 Ry
     estimated scf accuracy    <       0.00000656 Ry

     total magnetization       =    15.00 Bohr mag/cell
     absolute magnetization    =    18.48 Bohr mag/cell

     iteration # 32     ecut=    40.00 Ry     beta=0.30
     Davidson diagonalization with overlap
     ethr =  2.77E-09,  avg # of iterations =  1.0

     negative rho (up, down):  0.431E-02 0.170E-02

     total cpu time spent up to now is     8567.8 secs

     total energy              =   -2059.06610470 Ry
     Harris-Foulkes estimate   =   -2059.06610458 Ry
     estimated scf accuracy    <       0.00000263 Ry

     total magnetization       =    15.00 Bohr mag/cell
     absolute magnetization    =    18.49 Bohr mag/cell

     iteration # 33     ecut=    40.00 Ry     beta=0.30
     Davidson diagonalization with overlap
     ethr =  1.11E-09,  avg # of iterations =  1.0

     negative rho (up, down):  0.431E-02 0.170E-02

     total cpu time spent up to now is     8809.6 secs

     End of self-consistent calculation

 ------ SPIN UP ------------


          k = 0.0000 0.0000 0.0000 ( 27003 PWs)   bands (ev):

   -74.5436 -74.5369 -74.5280 -74.4816 -74.3700 -74.3558 -74.3280 -74.3134
   -45.9541 -45.9402 -45.9248 -45.8993 -45.8847 -45.8650 -45.8233 -45.7938
   -45.7682 -45.7545 -45.7481 -45.7270 -45.7217 -45.7086 -45.7052 -45.7047
   -45.6779 -45.6501 -45.6277 -45.6136 -45.6120 -45.5907 -45.5854 -45.5481
   -25.0306 -20.8637 -20.2867 -20.2067 -19.9153 -19.6740 -19.5769 -19.2656
   -19.1835 -19.1511 -19.0677 -18.9622 -18.9075 -18.8797 -18.8199 -18.6881
   -18.6551 -18.3688 -18.2481 -16.8904  -9.4747  -8.7124  -8.3771  -8.2845
    -8.1426  -8.0098  -7.9723  -7.5364  -7.2841  -7.2750  -7.2202  -7.0969
    -7.0771  -6.9937  -6.8579  -6.6453  -6.5369  -6.4289  -6.3635  -6.3428
    -6.2703  -6.2451  -6.1974  -6.1832  -6.1773  -5.8157  -5.5977  -5.4185
    -5.3250  -5.1700  -5.1222  -4.8765  -4.7497  -4.5925  -4.5790  -4.5349
    -4.4474  -4.4312  -4.2450  -4.1725  -4.1346  -4.0858  -3.9123  -3.8108
    -3.7134  -3.6136  -3.4508  -3.3962  -3.3435  -3.2691  -3.1059  -3.0891
    -2.9584  -2.7607  -2.6218  -2.5453  -2.5065  -2.3944  -2.3298  -2.0673
    -2.0166  -2.0004  -1.9363  -1.6027  -1.5568  -1.5247  -1.4525  -1.4493
    -1.3879  -1.3493  -1.0852  -1.0161  -0.9679  -0.8910  -0.8649  -0.7808
    -0.7027  -0.4102  -0.3921  -0.3470   0.0362   0.0714   0.2150   0.2377
     0.9103   1.2236   1.5515   1.8254   1.9523   2.0295   2.1083   2.1521
     2.3268   2.4376   2.4818   2.8202   2.8965   2.8991   2.9823   3.3465
     3.5772   3.7486   4.3094   4.9319   5.0997   5.7104   5.9411   6.4878
     6.8844   7.0246   7.1541   7.3128   7.3336   7.4807   7.5237   7.6045
     7.7235   7.7350   7.8609   8.0627   8.1086   8.2106   8.2352   8.5012
     8.6927   8.7057   8.9037   8.9543   9.0933   9.2354   9.4456   9.4702
     9.6770   9.7282   9.9367   9.9812  10.0505  10.0935  10.2463  10.4507
    10.4991  10.5965  10.7717  10.8215  10.9027  10.9765  11.0106  11.1376
    11.1944  11.3497  11.4469  11.5146  11.6010  11.6791  11.7567  11.8025
    11.8785  11.9373  11.9608  12.0497  12.0800  12.2413  12.2465  12.3434
    12.3769  12.4514  12.4640  12.6448  12.7564  12.8083  12.9172  12.9769
    13.0435  13.1189  13.1901  13.2340  13.2711  13.2894  13.5160  13.5513
    13.5829  13.6245  13.6795  13.7443  13.7869  13.9537  14.0131  14.1824
    14.3051  14.3398  14.4055  14.4092  14.5320  14.6067  14.8679  14.9642
    15.0531  15.1120  15.1765  15.2275  15.2484  15.2798  15.3867  15.4300
    15.4891  15.5608  15.6876  15.7253  15.8718  15.9515  15.9996  16.0077
    16.3935  16.4805  16.5242  16.6308  16.7021  16.8428  16.8688  17.0555
    17.0914  17.1561  17.2747  17.3891  17.5386  17.5670  17.5773  17.6933
    17.7281  17.7582  17.9204  18.1433  18.1543  18.3488  18.3852  18.4716
    18.5126  18.5656  18.6338  18.6967  18.8410  18.9199  19.0382  19.0536
    19.1856  19.2855  19.3008  19.3197  19.4060  19.4651  19.5049  19.5497
    19.6686  19.7156  19.7370  19.8877  19.9186  20.0103  20.0159  20.1502
    20.3447  20.4017  20.4188  20.5829  20.6316  20.6858  20.7120  20.7519
    20.9586  21.0308  21.0895  21.1483  21.1649  21.2003  21.2972  21.3367
    21.3639  21.4125  21.5067  21.6180  21.6650  21.6741  21.7291  21.8142
    21.8611  21.9191  22.0098  22.0419  22.0880  22.1614  22.2297

          k = 0.0000 0.2341 0.0000 ( 27088 PWs)   bands (ev):

   -74.5435 -74.5370 -74.5280 -74.4816 -74.3699 -74.3558 -74.3280 -74.3134
   -45.9541 -45.9404 -45.9249 -45.9036 -45.8815 -45.8607 -45.8234 -45.7938
   -45.7706 -45.7543 -45.7485 -45.7299 -45.7229 -45.7091 -45.7048 -45.6969
   -45.6778 -45.6501 -45.6281 -45.6161 -45.6134 -45.5903 -45.5851 -45.5484
   -25.0302 -20.8019 -20.2038 -20.1920 -19.9078 -19.7056 -19.5778 -19.2997
   -19.2633 -19.1855 -19.1374 -18.9618 -18.9372 -18.8295 -18.7833 -18.7415
   -18.6561 -18.3712 -18.2446 -16.8857  -9.4496  -8.6773  -8.2471  -8.1031
    -8.0103  -7.9651  -7.9377  -7.5476  -7.4507  -7.1992  -7.1736  -7.1013
    -6.9987  -6.9749  -6.7320  -6.5231  -6.4638  -6.3983  -6.3273  -6.3197
    -6.2556  -6.1939  -6.1749  -6.1615  -5.7946  -5.7548  -5.5611  -5.5096
    -5.4293  -5.3828  -5.3395  -5.1288  -5.0886  -4.7743  -4.6017  -4.5451
    -4.5122  -4.3173  -4.2882  -4.2334  -4.0983  -3.9712  -3.9291  -3.8678
    -3.8379  -3.7343  -3.6389  -3.5903  -3.5558  -3.4362  -3.2479  -3.0885
    -2.9577  -2.8849  -2.6672  -2.6139  -2.3749  -2.1228  -2.0303  -2.0063
    -1.9422  -1.8273  -1.8096  -1.6318  -1.6033  -1.6010  -1.4750  -1.4408
    -1.4323  -1.3881  -1.3047  -1.2201  -1.0668  -0.9291  -0.7708  -0.7129
    -0.4666  -0.4281  -0.2843  -0.1932  -0.0079   0.0066   0.0503   0.3753
     1.0318   1.1604   1.1949   1.2563   1.8162   2.1478   2.1507   2.3042
     2.4112   2.7276   2.9480   2.9694   2.9764   2.9967   3.1117   3.2352
     3.8132   4.0053   4.5255   4.7950   5.1919   5.5186   5.7831   5.8681
     6.0452   6.3792   6.5913   7.0979   7.2927   7.5142   7.5316   7.6888
     7.8904   7.9641   8.1309   8.2703   8.3413   8.4921   8.7016   8.8709
     8.9039   8.9333   9.0196   9.1671   9.4022   9.4278   9.4967   9.5779
     9.6658   9.7049   9.8279  10.0510  10.1384  10.2311  10.2723  10.2850
    10.3903  10.4043  10.4769  10.6272  10.6604  10.7364  10.7628  10.9040
    10.9178  11.0516  11.2258  11.4123  11.4708  11.5326  11.6309  11.6779
    11.7747  11.8652  11.9669  11.9934  12.1913  12.2698  12.3585  12.5354
    12.5555  12.6068  12.7449  12.7707  12.9399  13.1282  13.2223  13.2944
    13.3252  13.3827  13.4536  13.5727  13.6309  13.7148  13.7777  13.9062
    14.0301  14.0671  14.1051  14.1811  14.2289  14.3348  14.4155  14.4207
    14.4866  14.6238  14.6602  14.6947  14.8547  14.8773  14.9954  15.0575
    15.1029  15.2134  15.2524  15.2695  15.3817  15.3922  15.5016  15.5330
    15.6092  15.6217  15.6892  15.7999  15.8288  15.8655  16.0300  16.0439
    16.1052  16.1555  16.2053  16.2507  16.4557  16.4868  16.5384  16.6045
    16.7655  16.8638  16.9894  17.0485  17.1919  17.2409  17.2570  17.3611
    17.4135  17.5407  17.5673  17.6283  17.8202  17.8912  18.0761  18.1286
    18.1921  18.2967  18.4640  18.5299  18.6178  18.7208  18.7787  18.8084
    18.9414  19.0110  19.1709  19.2124  19.2439  19.3305  19.4429  19.4960
    19.5523  19.6532  19.6839  19.8070  19.9171  20.0184  20.0830  20.1570
    20.2247  20.3159  20.3607  20.4386  20.4842  20.5493  20.5731  20.6257
    20.6727  20.7597  20.7703  20.8792  20.9693  20.9947  21.0296  21.1356
    21.2378  21.2653  21.3526  21.3906  21.4376  21.4583  21.5958  21.6295
    21.6826  21.7248  21.7460  21.7948  21.8767  21.9009  21.9861

          k = 0.0000-0.4682 0.0000 ( 27136 PWs)   bands (ev):

   -74.5434 -74.5371 -74.5280 -74.4817 -74.3699 -74.3558 -74.3281 -74.3134
   -45.9542 -45.9406 -45.9249 -45.9071 -45.8781 -45.8572 -45.8234 -45.7938
   -45.7731 -45.7542 -45.7488 -45.7352 -45.7184 -45.7096 -45.7049 -45.6916
   -45.6777 -45.6501 -45.6288 -45.6200 -45.6134 -45.5899 -45.5849 -45.5487
   -25.0299 -20.7315 -20.2009 -20.0381 -19.9556 -19.6835 -19.5870 -19.5095
   -19.2582 -19.2181 -19.1367 -18.9578 -18.9561 -18.8572 -18.7984 -18.7176
   -18.6562 -18.3737 -18.2426 -16.8808  -9.4217  -8.6506  -8.3228  -8.1898
    -7.9001  -7.5922  -7.5680  -7.5549  -7.4968  -7.1386  -7.1162  -6.9900
    -6.8263  -6.7813  -6.7171  -6.6865  -6.4927  -6.3426  -6.3010  -6.2075
    -6.1537  -6.1208  -6.0762  -6.0241  -5.8353  -5.8158  -5.8020  -5.6931
    -5.6458  -5.5007  -5.3258  -5.2070  -5.1527  -5.0150  -4.8422  -4.6165
    -4.5614  -4.4631  -4.4181  -4.2549  -4.1587  -4.0936  -4.0210  -3.8722
    -3.8503  -3.8050  -3.7548  -3.5879  -3.4542  -3.3831  -3.1552  -3.0907
    -3.0502  -2.8945  -2.5613  -2.3980  -2.3915  -2.2166  -2.1014  -2.0785
    -2.0223  -1.9901  -1.9606  -1.7663  -1.6562  -1.6012  -1.4930  -1.4416
    -1.4354  -1.1563  -1.0607  -0.9750  -0.9047  -0.8573  -0.7207  -0.7067
    -0.5920  -0.5554  -0.4502  -0.1358  -0.0688  -0.0216   0.1916   0.4680
     0.6810   0.8050   1.2728   1.4153   2.0676   2.1072   2.1456   2.1543
     2.5383   2.6310   2.9049   3.0055   3.0131   3.3121   3.4438   3.4713
     4.1278   4.4870   4.5435   4.6818   4.8752   5.1798   5.3223   5.6512
     5.9140   6.1439   6.3592   6.8820   7.1475   7.5915   7.7316   7.8240
     7.9863   8.2049   8.2661   8.4249   8.4992   8.5259   8.5755   8.7321
     8.9219   8.9847   9.0312   9.1028   9.1806   9.2964   9.4071   9.5839
     9.6227   9.6640   9.8769   9.9388   9.9799  10.1063  10.1586  10.2673
    10.3134  10.5105  10.5700  10.6433  10.7568  10.9606  11.2041  11.2345
    11.2422  11.2737  11.3595  11.4124  11.5009  11.6332  11.7010  11.9677
    12.0350  12.0519  12.1786  12.1956  12.2487  12.3418  12.3814  12.5741
    12.6386  12.6679  12.7924  12.8602  13.0186  13.0598  13.1714  13.2144
    13.3157  13.4250  13.5022  13.6429  13.6626  13.7747  13.7976  13.8276
    13.9585  14.0425  14.1654  14.3306  14.3448  14.4353  14.4781  14.6116
    14.7139  14.7185  14.7689  14.8108  14.8639  14.8935  15.0682  15.1019
    15.2880  15.2995  15.3098  15.4798  15.5892  15.7115  15.7237  15.7857
    15.8233  15.9305  15.9687  15.9755  16.0260  16.0573  16.0819  16.2090
    16.2368  16.3284  16.3490  16.4868  16.5553  16.6392  16.7372  16.7980
    16.8108  16.8248  16.8284  16.8813  16.9884  17.0621  17.1968  17.2061
    17.3058  17.4072  17.4115  17.5189  17.6216  17.7112  17.8148  17.9018
    17.9227  18.0883  18.1013  18.1674  18.2351  18.2970  18.4036  18.4162
    18.5803  18.6203  18.6645  18.6960  18.9367  18.9724  19.0107  19.0457
    19.0641  19.0883  19.2455  19.3635  19.4746  19.4915  19.5420  19.8108
    19.8968  19.9259  20.0219  20.0369  20.1736  20.2466  20.3238  20.3677
    20.4003  20.4896  20.6160  20.7539  20.7905  20.8462  20.9209  20.9374
    21.0302  21.0406  21.0966  21.1429  21.2544  21.2968  21.4026  21.4449
    21.4998  21.5129  21.6444  21.7424  21.7739  22.0695  22.0889

          k = 0.2500 0.0000 0.0000 ( 27178 PWs)   bands (ev):

   -74.5414 -74.5364 -74.5302 -74.4821 -74.3679 -74.3579 -74.3259 -74.3155
   -45.9532 -45.9258 -45.9138 -45.8817 -45.8794 -45.8678 -45.8200 -45.7981
   -45.7805 -45.7672 -45.7254 -45.7245 -45.7238 -45.7098 -45.7082 -45.6969
   -45.6737 -45.6542 -45.6262 -45.6152 -45.6097 -45.6090 -45.5938 -45.5730
   -25.0305 -20.7509 -20.2665 -20.1878 -19.8347 -19.7281 -19.6237 -19.3779
   -19.2730 -19.1226 -18.9983 -18.9416 -18.9106 -18.8545 -18.8395 -18.7168
   -18.6764 -18.3882 -18.2801 -16.8884  -9.4724  -8.5779  -8.2297  -8.1822
    -8.1393  -7.9703  -7.7731  -7.4351  -7.3870  -7.2319  -7.2203  -7.1402
    -7.0358  -6.9946  -6.9293  -6.7209  -6.6530  -6.5704  -6.4605  -6.3939
    -6.3282  -6.2141  -6.1229  -6.0699  -5.9637  -5.8937  -5.4405  -5.3605
    -5.2185  -5.0850  -4.9623  -4.9331  -4.8414  -4.7326  -4.6612  -4.5743
    -4.5146  -4.4230  -4.4016  -4.3035  -4.1750  -4.0444  -3.9821  -3.9233
    -3.8074  -3.7240  -3.5504  -3.5116  -3.4615  -3.4399  -3.3785  -3.1958
    -3.0566  -2.8898  -2.7176  -2.5787  -2.4822  -2.3240  -2.2236  -1.9659
    -1.9155  -1.8423  -1.6979  -1.5816  -1.5265  -1.4865  -1.4104  -1.3711
    -1.2412  -1.1627  -1.1370  -1.0564  -0.9404  -0.8295  -0.7648  -0.7091
    -0.5185  -0.5093  -0.4760  -0.3650  -0.0543  -0.0232   0.1319   0.3549
     1.0304   1.3538   1.6227   1.8316   1.8589   1.8877   2.0847   2.1116
     2.2856   2.3877   2.5201   2.5676   2.6534   2.9012   3.0633   3.3245
     3.8542   4.0465   4.5844   4.9685   5.2688   5.4357   5.9772   6.0655
     6.1584   6.5159   6.7629   6.9320   7.1797   7.2909   7.4428   7.6814
     7.7450   7.8822   7.9755   8.0502   8.1650   8.4252   8.4702   8.6606
     8.7472   8.9037   9.1720   9.1923   9.3540   9.3842   9.5383   9.6802
     9.7289   9.8333   9.9698   9.9927  10.0419  10.1505  10.1983  10.3519
    10.4170  10.4646  10.4788  10.5766  10.6430  10.7162  10.8269  10.8796
    10.9881  11.1579  11.3003  11.3801  11.5265  11.5611  11.5878  11.6859
    11.7654  11.8768  11.9694  12.1191  12.2031  12.3401  12.4324  12.5520
    12.6011  12.6291  12.7580  12.8149  12.9407  13.0998  13.1490  13.2455
    13.3948  13.4144  13.4673  13.5135  13.6677  13.7349  13.8053  13.8586
    13.8845  14.0746  14.1315  14.2388  14.2671  14.3277  14.4206  14.5504
    14.5878  14.6843  14.7585  14.8067  14.9668  14.9825  15.0538  15.1541
    15.2066  15.2666  15.3285  15.4134  15.4861  15.5122  15.6356  15.6692
    15.7553  15.8345  15.9020  15.9781  15.9848  16.1483  16.2027  16.3087
    16.3506  16.4685  16.5524  16.6196  16.7194  16.7569  16.9086  16.9773
    17.0667  17.2065  17.2961  17.3168  17.3972  17.4167  17.4705  17.5228
    17.6121  17.6920  17.7206  17.7661  17.8264  17.9261  17.9906  18.0880
    18.1532  18.3152  18.3950  18.4902  18.6203  18.6845  18.7507  18.8074
    18.8859  18.9376  18.9608  19.0657  19.2494  19.3173  19.4071  19.4255
    19.5005  19.5193  19.6471  19.6576  19.7065  19.8233  19.8808  19.9389
    20.0120  20.1162  20.1601  20.2127  20.2771  20.3183  20.4058  20.4379
    20.5103  20.5654  20.6766  20.8250  20.8540  20.9215  21.0383  21.0889
    21.1183  21.2205  21.2942  21.3487  21.3695  21.3981  21.4763  21.5156
    21.5789  21.6342  21.6822  21.7111  21.7385  21.7730  21.8788

          k = 0.2500 0.2341 0.0000 ( 27132 PWs)   bands (ev):

   -74.5412 -74.5365 -74.5302 -74.4821 -74.3679 -74.3579 -74.3259 -74.3155
   -45.9532 -45.9258 -45.9140 -45.8866 -45.8789 -45.8604 -45.8200 -45.7982
   -45.7808 -45.7688 -45.7254 -45.7246 -45.7205 -45.7164 -45.7104 -45.6882
   -45.6737 -45.6541 -45.6265 -45.6154 -45.6141 -45.6075 -45.5940 -45.5731
   -25.0301 -20.6988 -20.2608 -20.1017 -19.8038 -19.7136 -19.6569 -19.3498
   -19.2433 -19.2254 -19.0890 -19.0188 -18.9778 -18.8222 -18.8087 -18.7515
   -18.6721 -18.3863 -18.2759 -16.8834  -9.4472  -8.5532  -8.1935  -8.0458
    -7.8649  -7.8078  -7.7420  -7.4043  -7.2925  -7.1892  -7.1740  -7.1334
    -7.0654  -6.9836  -6.7885  -6.7055  -6.5691  -6.5102  -6.4366  -6.3269
    -6.2674  -6.2044  -6.1439  -6.0028  -5.9151  -5.8895  -5.5463  -5.4085
    -5.3647  -5.1210  -5.0684  -4.9804  -4.9598  -4.8973  -4.8397  -4.7742
    -4.6509  -4.5879  -4.5108  -4.4080  -4.3042  -4.1610  -4.1013  -4.0093
    -3.8823  -3.7810  -3.7068  -3.6061  -3.4924  -3.4329  -3.2536  -3.2130
    -2.9432  -2.9090  -2.6351  -2.4929  -2.4664  -2.2486  -2.0886  -1.9061
    -1.8099  -1.7545  -1.6353  -1.5838  -1.5621  -1.4764  -1.3798  -1.3615
    -1.3187  -1.2977  -1.1496  -1.0818  -1.0160  -0.8465  -0.7194  -0.5353
    -0.5265  -0.4732  -0.4114  -0.2328  -0.1292  -0.0910  -0.0150   0.4924
     1.1175   1.2143   1.3298   1.3972   1.7904   1.9059   1.9813   2.1674
     2.3686   2.5729   2.6473   2.7137   3.0303   3.0968   3.2072   3.2890
     4.0859   4.2902   4.7718   4.9389   5.3757   5.4814   5.8440   6.0482
     6.1934   6.2476   6.3147   6.5100   6.7550   6.8821   7.0965   7.4376
     7.5452   7.6870   7.8732   8.0702   8.2605   8.3090   8.4034   8.6087
     8.7527   8.8522   9.0877   9.1765   9.3148   9.4323   9.5915   9.7152
     9.7990   9.8802   9.9723   9.9965  10.1233  10.3322  10.3782  10.5072
    10.5837  10.6456  10.7144  10.7838  10.8827  11.0558  11.2217  11.2794
    11.3531  11.5251  11.5518  11.6903  11.7567  11.8410  11.9397  11.9832
    12.0641  12.1460  12.2376  12.2778  12.3526  12.4280  12.5978  12.6515
    12.7264  12.7724  12.9288  12.9582  13.0846  13.1122  13.2130  13.2858
    13.3781  13.4368  13.5116  13.5395  13.6872  13.7727  13.8422  13.8880
    13.9975  14.0590  14.1088  14.1684  14.2004  14.3658  14.4651  14.5232
    14.6199  14.6849  14.7728  14.8721  14.9217  15.0104  15.1124  15.2310
    15.3013  15.3449  15.4163  15.5229  15.5439  15.6470  15.7417  15.7698
    15.8413  15.8637  15.9352  15.9947  16.0610  16.1163  16.1259  16.2756
    16.3280  16.3813  16.4001  16.4830  16.5735  16.7146  16.7468  16.8206
    16.8855  16.8967  17.0045  17.0667  17.1989  17.2662  17.2863  17.3567
    17.4130  17.4575  17.5269  17.6015  17.6702  17.7371  17.7672  17.8644
    17.9370  17.9988  18.0735  18.1016  18.2064  18.3387  18.3776  18.4325
    18.4886  18.5328  18.5651  18.7390  18.7923  18.8005  18.8583  18.9049
    19.0375  19.1516  19.2074  19.2515  19.3326  19.3868  19.4774  19.5551
    19.6044  19.6495  19.7646  19.8002  19.8794  19.9790  20.1447  20.1826
    20.2634  20.3170  20.4577  20.4789  20.5624  20.6246  20.6951  20.7552
    20.8204  20.9135  20.9936  21.1169  21.1820  21.2599  21.2975  21.3592
    21.4663  21.5345  21.6639  21.7413  21.7813  21.8501  21.9006

          k = 0.2500-0.4682 0.0000 ( 27150 PWs)   bands (ev):

   -74.5411 -74.5366 -74.5302 -74.4821 -74.3678 -74.3579 -74.3260 -74.3155
   -45.9533 -45.9258 -45.9142 -45.8909 -45.8763 -45.8557 -45.8200 -45.7982
   -45.7814 -45.7704 -45.7255 -45.7246 -45.7214 -45.7169 -45.7111 -45.6827
   -45.6736 -45.6541 -45.6270 -45.6179 -45.6151 -45.6072 -45.5942 -45.5731
   -25.0298 -20.6420 -20.2548 -19.9394 -19.8811 -19.6812 -19.5924 -19.4660
   -19.3136 -19.1552 -19.1286 -19.0767 -19.0630 -18.8939 -18.8039 -18.7231
   -18.6681 -18.3847 -18.2732 -16.8784  -9.4204  -8.5291  -8.2219  -8.0938
    -7.6929  -7.4328  -7.4088  -7.3424  -7.3170  -7.1572  -7.1228  -7.0158
    -6.8806  -6.8322  -6.6944  -6.5585  -6.5093  -6.5023  -6.4861  -6.3983
    -6.3095  -6.2257  -6.0826  -5.8709  -5.8064  -5.7646  -5.7274  -5.6641
    -5.5607  -5.4082  -5.3259  -5.2499  -5.0661  -5.0410  -5.0179  -4.9419
    -4.7764  -4.7209  -4.5799  -4.5189  -4.4615  -4.2778  -4.2619  -3.9988
    -3.8905  -3.8665  -3.7379  -3.5492  -3.3824  -3.3231  -3.1682  -2.9850
    -2.9272  -2.7328  -2.6036  -2.5788  -2.4468  -2.1754  -2.1215  -2.0465
    -1.9744  -1.8613  -1.7149  -1.6609  -1.6063  -1.4752  -1.4064  -1.3535
    -1.2564  -1.0764  -0.9459  -0.8894  -0.7955  -0.7535  -0.6963  -0.6241
    -0.6012  -0.4724  -0.4366  -0.2863  -0.2271  -0.1038   0.0653   0.5908
     0.7640   0.9084   1.3950   1.4193   1.7329   1.9352   2.0007   2.1413
     2.1834   2.6132   2.8245   2.8772   3.0815   3.3328   3.4063   3.5162
     4.3798   4.7549   4.8031   4.9326   5.1304   5.3891   5.5609   5.6852
     5.9065   6.2312   6.5185   6.6050   6.7053   6.8772   7.0752   7.1825
     7.2593   7.3793   7.5216   7.7774   7.8655   8.1101   8.2779   8.5078
     8.6404   8.8065   8.9885   9.0947   9.1907   9.3028   9.4534   9.5633
     9.7645  10.0848  10.1463  10.2979  10.3820  10.4600  10.5182  10.7143
    10.8211  11.0241  11.1157  11.2019  11.2992  11.4285  11.5840  11.6147
    11.7178  11.7842  11.8432  11.9472  12.0231  12.0574  12.1306  12.3192
    12.3474  12.4257  12.4607  12.6085  12.6434  12.7106  12.7791  12.8155
    12.9018  12.9863  13.0616  13.2096  13.2323  13.3076  13.3334  13.3972
    13.4900  13.5555  13.6725  13.7187  13.7870  13.8637  13.9648  14.0155
    14.0915  14.1081  14.2307  14.2509  14.3082  14.4465  14.5053  14.5298
    14.6222  14.6441  14.7247  14.7677  14.8149  14.9059  14.9574  14.9614
    15.0422  15.1388  15.2571  15.3267  15.3922  15.4053  15.4694  15.5455
    15.6081  15.6774  15.7136  15.7515  15.8475  15.8613  15.9199  15.9858
    16.0126  16.1065  16.2301  16.2477  16.3201  16.3998  16.5017  16.5651
    16.6188  16.6464  16.7314  16.8228  16.8793  16.9618  17.0201  17.1988
    17.2218  17.2554  17.4935  17.5834  17.6695  17.7631  17.7780  17.8281
    17.8888  17.9556  18.0465  18.1136  18.2324  18.2774  18.3371  18.4097
    18.4757  18.5614  18.6335  18.6576  18.7065  18.7493  18.8379  18.8827
    18.9174  18.9784  19.0553  19.1815  19.2538  19.3548  19.4039  19.4231
    19.5003  19.5180  19.5875  19.6501  19.6817  19.7572  19.7919  19.8431
    19.8893  19.9594  20.1602  20.2288  20.3447  20.3776  20.4565  20.5383
    20.5503  20.6949  20.7155  20.7532  20.9006  20.9274  20.9752  20.9937
    21.0575  21.1413  21.2306  21.4313  21.5039  21.5714  21.6717

          k =-0.5000 0.0000 0.0000 ( 27158 PWs)   bands (ev):

   -74.5370 -74.5357 -74.5348 -74.4826 -74.3629 -74.3628 -74.3216 -74.3197
   -45.9522 -45.9266 -45.8757 -45.8745 -45.8547 -45.8488 -45.8481 -45.8077
   -45.8050 -45.7661 -45.7531 -45.7163 -45.7159 -45.7107 -45.6694 -45.6672
   -45.6638 -45.6623 -45.6395 -45.6382 -45.6178 -45.6170 -45.6025 -45.6000
   -25.0303 -20.4867 -20.4812 -19.9711 -19.9575 -19.6345 -19.6263 -19.5013
   -19.4729 -18.9983 -18.9956 -18.8902 -18.8871 -18.8411 -18.7984 -18.7870
   -18.7858 -18.3653 -18.3412 -16.8863  -9.4702  -8.3315  -8.3116  -7.9981
    -7.8441  -7.7913  -7.7684  -7.7408  -7.3622  -7.2741  -7.1592  -7.1469
    -7.0522  -7.0194  -6.9344  -6.8141  -6.7844  -6.5826  -6.5760  -6.3886
    -6.2325  -6.0235  -5.9611  -5.8936  -5.7758  -5.5668  -5.5477  -5.4105
    -5.3908  -5.2131  -5.1992  -5.0771  -5.0655  -4.8531  -4.7917  -4.4661
    -4.4044  -4.3247  -4.3117  -4.2138  -4.2091  -4.1568  -4.1219  -4.0314
    -4.0303  -3.8560  -3.8388  -3.7597  -3.7183  -3.4911  -3.4649  -2.9579
    -2.9298  -2.8210  -2.7481  -2.7157  -2.3848  -2.3064  -2.0661  -1.9635
    -1.9011  -1.8594  -1.6809  -1.6285  -1.6197  -1.5203  -1.1936  -1.1348
    -1.0829  -1.0719  -1.0368  -0.9792  -0.8695  -0.8308  -0.7205  -0.6233
    -0.6199  -0.5227  -0.4874  -0.2179  -0.2097  -0.0949  -0.0675   0.4743
     1.1567   1.5672   1.5787   1.7611   1.8333   1.9369   1.9941   2.0234
     2.1360   2.2650   2.2660   2.4509   2.6112   3.0560   3.1232   3.4873
     4.2316   4.6616   4.7172   4.8555   4.9135   5.3095   5.4163   5.4757
     6.0353   6.1471   6.7016   6.9305   7.2407   7.2939   7.6733   7.8869
     8.0112   8.0558   8.1248   8.2049   8.5112   8.5384   8.6197   8.6594
     8.7093   8.7689   8.8372   8.8459   8.8630   9.0538   9.1925   9.3043
     9.3413   9.4141   9.6125   9.8592   9.9054  10.0129  10.1414  10.2732
    10.3308  10.6269  10.6786  10.8213  10.8521  10.8878  10.9925  11.0144
    11.1995  11.3472  11.4841  11.5153  11.7205  11.7652  11.7911  11.9093
    12.1174  12.1648  12.2022  12.2441  12.4407  12.5173  12.6222  12.7370
    12.7525  12.8453  13.0696  13.1558  13.1780  13.3140  13.3958  13.4617
    13.6199  13.6367  13.6644  13.7351  13.7471  13.8377  13.8559  13.9328
    14.1718  14.2014  14.2635  14.3382  14.4643  14.5221  14.6231  14.7038
    14.7727  14.7943  14.8539  14.9187  15.1159  15.1739  15.2948  15.3398
    15.4294  15.4952  15.5078  15.5767  15.6594  15.6883  15.8446  15.8688
    15.8832  15.9229  16.1536  16.1957  16.2616  16.3794  16.4985  16.6041
    16.7220  16.7498  16.7853  16.8849  16.9431  16.9794  17.0707  17.0893
    17.1304  17.1928  17.3172  17.3580  17.4072  17.5112  17.5361  17.5578
    17.6170  17.6253  17.6780  17.7511  17.8229  17.8402  17.8846  17.9228
    18.0345  18.0643  18.1631  18.1927  18.2892  18.3034  18.4388  18.5487
    18.6096  18.6191  18.6354  18.6822  18.7232  18.9764  19.0304  19.0570
    19.1568  19.2547  19.2653  19.3120  19.3979  19.4720  19.4871  19.5421
    19.6902  19.7957  19.8604  19.8758  19.9588  20.0284  20.1636  20.2002
    20.2274  20.2890  20.3339  20.3447  20.3845  20.4037  20.4925  20.5841
    20.6507  20.7109  20.7580  20.7907  20.8618  20.9162  21.0489  21.0863
    21.1134  21.1817  21.2528  21.2888  21.3642  21.3850  21.4108

          k =-0.5000 0.2341 0.0000 ( 27132 PWs)   bands (ev):

   -74.5367 -74.5357 -74.5351 -74.4826 -74.3629 -74.3628 -74.3216 -74.3198
   -45.9522 -45.9266 -45.8768 -45.8745 -45.8523 -45.8488 -45.8472 -45.8078
   -45.8050 -45.7678 -45.7523 -45.7155 -45.7152 -45.7116 -45.6696 -45.6675
   -45.6638 -45.6623 -45.6386 -45.6374 -45.6180 -45.6168 -45.6039 -45.6014
   -25.0300 -20.4608 -20.4556 -19.9146 -19.8943 -19.5663 -19.5562 -19.5244
   -19.5119 -19.0790 -19.0661 -19.0034 -18.9967 -18.8588 -18.8541 -18.7526
   -18.7218 -18.3605 -18.3353 -16.8812  -9.4452  -8.3128  -8.2875  -7.9891
    -7.5274  -7.5020  -7.4899  -7.4662  -7.3391  -7.2705  -7.1718  -7.1487
    -7.0062  -6.9389  -6.8813  -6.7778  -6.7527  -6.6149  -6.5351  -6.3012
    -6.1472  -6.0200  -5.9560  -5.8899  -5.8589  -5.7440  -5.6763  -5.5092
    -5.4333  -5.3887  -5.3469  -5.2266  -5.1947  -4.8543  -4.8307  -4.6674
    -4.6476  -4.5638  -4.5276  -4.4731  -4.4589  -4.3479  -4.3339  -4.1915
    -4.1000  -3.8522  -3.7634  -3.5799  -3.4997  -3.4051  -3.3299  -2.9506
    -2.9010  -2.7979  -2.6839  -2.5346  -2.4412  -2.3999  -2.0185  -1.9524
    -1.8607  -1.6932  -1.5938  -1.5548  -1.4000  -1.3399  -1.3059  -1.2929
    -1.2584  -1.1980  -0.9134  -0.8361  -0.8281  -0.7705  -0.7098  -0.6150
    -0.5643  -0.5047  -0.4574  -0.2962  -0.2389  -0.1898  -0.1464   0.6083
     1.2358   1.4280   1.4590   1.6398   1.6486   1.7107   1.7807   1.8603
     2.0672   2.4186   2.4879   2.8270   2.8399   3.1681   3.2274   3.6280
     4.4592   4.8856   4.9511   5.0642   5.1354   5.2247   5.6197   5.6304
     6.1936   6.2189   6.4681   6.5285   6.7397   6.8372   7.0012   7.0405
     7.1290   7.3777   7.5682   7.6851   7.7488   8.0959   8.2777   8.3935
     8.6003   8.8543   9.0235   9.1010   9.2048   9.2433   9.5626   9.7276
     9.8842   9.9476  10.1458  10.2050  10.3235  10.4572  10.6582  10.6855
    10.7190  10.7485  10.8163  10.9506  11.0970  11.2338  11.3344  11.3591
    11.5169  11.5572  11.6949  11.7516  11.9282  11.9563  12.0947  12.2167
    12.3247  12.4399  12.5630  12.6482  12.8063  12.8720  12.9748  13.0014
    13.0509  13.0557  13.2075  13.2892  13.3783  13.5007  13.5286  13.5645
    13.6543  13.7321  13.8752  13.8934  13.9812  14.0621  14.1174  14.1992
    14.3240  14.3780  14.4300  14.4999  14.5548  14.5948  14.6613  14.6999
    14.7886  14.8765  14.9485  15.0131  15.0606  15.0872  15.2027  15.2235
    15.2365  15.4804  15.5390  15.5724  15.6148  15.6822  15.7589  15.7742
    15.8325  15.8687  15.8846  15.9239  16.0481  16.0696  16.1236  16.1544
    16.2024  16.2784  16.2990  16.3149  16.3999  16.4574  16.4889  16.5702
    16.6402  16.6714  16.7750  16.7960  16.8876  16.9503  17.0017  17.0939
    17.1558  17.1814  17.2580  17.2712  17.3507  17.3908  17.5238  17.5532
    17.6262  17.7477  17.8128  17.8401  17.9179  17.9569  18.0633  18.1861
    18.2564  18.3134  18.3993  18.4409  18.5277  18.5744  18.6515  18.6967
    18.7963  18.9296  18.9722  19.0283  19.1607  19.2428  19.3668  19.4610
    19.5110  19.6098  19.6748  19.7218  19.7318  19.7770  19.8585  19.8847
    19.9330  20.0102  20.0915  20.1033  20.1962  20.2103  20.3379  20.4678
    20.4868  20.6212  20.6576  20.8013  20.8393  21.0502  21.1187  21.1790
    21.2036  21.2435  21.3398  21.4471  21.5094  21.5853  21.6565

          k =-0.5000-0.4682 0.0000 ( 27168 PWs)   bands (ev):

   -74.5361 -74.5359 -74.5354 -74.4826 -74.3629 -74.3628 -74.3217 -74.3198
   -45.9523 -45.9267 -45.8785 -45.8733 -45.8516 -45.8491 -45.8450 -45.8079
   -45.8051 -45.7692 -45.7517 -45.7149 -45.7144 -45.7125 -45.6700 -45.6678
   -45.6637 -45.6623 -45.6374 -45.6362 -45.6179 -45.6169 -45.6055 -45.6031
   -25.0297 -20.4346 -20.4298 -19.8360 -19.7957 -19.5952 -19.5881 -19.3920
   -19.3819 -19.2949 -19.2925 -19.0087 -19.0012 -18.9222 -18.9214 -18.7268
   -18.6944 -18.3569 -18.3307 -16.8761  -9.4192  -8.2951  -8.2643  -8.0056
    -7.3956  -7.3309  -7.2721  -7.2686  -7.0653  -6.9403  -6.9269  -6.9078
    -6.8506  -6.8088  -6.7188  -6.7122  -6.6741  -6.5929  -6.4814  -6.3959
    -6.2506  -6.2105  -6.2045  -6.0300  -5.9873  -5.8523  -5.8158  -5.6895
    -5.6667  -5.4336  -5.4006  -5.2811  -5.2210  -5.1072  -5.0945  -4.9916
    -4.9875  -4.7637  -4.7469  -4.6420  -4.6209  -4.4677  -4.4573  -4.1514
    -4.0926  -3.7356  -3.7114  -3.4705  -3.2800  -3.1279  -3.0689  -2.9996
    -2.9670  -2.8643  -2.8322  -2.6624  -2.1982  -2.1909  -1.9359  -1.8527
    -1.8040  -1.7652  -1.7505  -1.7359  -1.5758  -1.4078  -1.3907  -1.3350
    -0.9696  -0.9654  -0.7822  -0.7528  -0.7365  -0.6344  -0.6179  -0.5341
    -0.5168  -0.4806  -0.4489  -0.4410  -0.2752  -0.2325  -0.2234   0.7088
     1.1049   1.1532   1.2221   1.3296   1.4064   1.7799   1.8192   1.8202
     2.1280   2.5840   2.5908   3.0631   3.0959   3.2480   3.2582   3.8266
     4.9002   4.9723   5.3522   5.4908   5.5003   5.5463   5.6717   5.6768
     5.8266   5.8980   6.0269   6.1117   6.2676   6.3655   6.5541   6.6683
     6.8498   7.0875   7.2431   7.4182   7.5672   7.9404   8.0293   8.3352
     8.3578   8.7206   8.8447   9.0727   9.2567   9.3074   9.5679   9.7809
     9.8301   9.8788   9.9964  10.0151  10.2178  10.3107  10.9865  11.0669
    11.1550  11.1987  11.3281  11.4121  11.5340  11.5727  11.9231  12.0121
    12.3489  12.3560  12.4123  12.4987  12.7233  12.7295  12.8248  12.9482
    13.0024  13.0593  13.1096  13.1810  13.2356  13.2980  13.4026  13.4375
    13.4559  13.5051  13.5307  13.5480  13.6616  13.7142  13.7827  13.8069
    13.8532  13.8831  13.9033  14.0033  14.0132  14.0578  14.0845  14.1500
    14.1726  14.2762  14.4021  14.4398  14.4710  14.5184  14.5377  14.5626
    14.6080  14.6809  14.7346  14.7635  14.7802  14.8243  14.8853  14.9690
    14.9986  15.0342  15.0545  15.1945  15.2032  15.2763  15.3078  15.3321
    15.3915  15.4356  15.4601  15.5043  15.5755  15.6610  15.6951  15.7201
    15.7639  15.8734  15.8977  15.9796  16.0111  16.0453  16.0802  16.1332
    16.1882  16.2277  16.4145  16.4589  16.6411  16.6661  16.7533  16.7692
    16.7901  16.8643  16.9492  16.9977  17.0262  17.0936  17.1375  17.2158
    17.2531  17.3115  17.4493  17.5959  17.6164  17.6267  17.8038  17.8211
    17.9391  17.9886  18.0459  18.0950  18.2383  18.2612  18.3179  18.4178
    18.6249  18.6890  18.7708  18.8027  18.9847  19.0189  19.0684  19.0984
    19.1411  19.2385  19.3912  19.5299  19.6555  19.7584  19.9523  19.9566
    20.1237  20.2363  20.2757  20.3339  20.3610  20.5681  20.7393  20.7832
    20.8960  20.9434  21.0115  21.1643  21.3369  21.4100  21.5021  21.5560
    21.5837  21.6898  21.7070  21.8205  21.9202  21.9748  21.9841

          k =-0.2500 0.2341 0.0000 ( 27132 PWs)   bands (ev):

   -74.5412 -74.5365 -74.5302 -74.4821 -74.3679 -74.3579 -74.3259 -74.3155
   -45.9532 -45.9258 -45.9140 -45.8866 -45.8789 -45.8604 -45.8200 -45.7982
   -45.7808 -45.7689 -45.7254 -45.7246 -45.7205 -45.7165 -45.7104 -45.6881
   -45.6737 -45.6541 -45.6264 -45.6153 -45.6139 -45.6080 -45.5941 -45.5730
   -25.0301 -20.6992 -20.2604 -20.1014 -19.8025 -19.7139 -19.6577 -19.3498
   -19.2418 -19.2255 -19.0880 -19.0253 -18.9795 -18.8157 -18.8095 -18.7517
   -18.6721 -18.3864 -18.2759 -16.8834  -9.4472  -8.5506  -8.2143  -8.0436
    -7.8645  -7.8110  -7.7052  -7.4073  -7.2896  -7.2168  -7.1814  -7.1450
    -7.0480  -6.9712  -6.7897  -6.7088  -6.5653  -6.5109  -6.4609  -6.3269
    -6.2449  -6.2008  -6.1318  -6.0202  -5.8957  -5.8809  -5.5333  -5.4306
    -5.3444  -5.1290  -5.0786  -5.0076  -4.9722  -4.8821  -4.8430  -4.7912
    -4.6609  -4.5584  -4.5134  -4.3919  -4.3268  -4.2055  -4.0819  -4.0060
    -3.8522  -3.7945  -3.6906  -3.5913  -3.4562  -3.3989  -3.3148  -3.2185
    -2.9570  -2.9198  -2.7044  -2.5090  -2.3723  -2.1847  -2.1035  -1.9066
    -1.8191  -1.7634  -1.6468  -1.5948  -1.5572  -1.4470  -1.3940  -1.3898
    -1.3575  -1.3045  -1.1277  -1.0634  -0.9932  -0.8573  -0.7194  -0.5426
    -0.5050  -0.4855  -0.4188  -0.2379  -0.1107  -0.0981  -0.0188   0.4920
     1.1178   1.2125   1.3297   1.3971   1.7918   1.9075   1.9814   2.1699
     2.3583   2.5739   2.6489   2.7217   3.0300   3.0908   3.2080   3.2909
     4.0858   4.2891   4.7712   4.9388   5.3757   5.4820   5.8453   6.0558
     6.1963   6.2546   6.3186   6.5054   6.7572   6.8836   7.0905   7.4356
     7.5485   7.6611   7.8607   8.0556   8.2524   8.3121   8.4205   8.6227
     8.7442   8.8691   9.0748   9.1903   9.3191   9.4314   9.5894   9.7168
     9.8044   9.8927   9.9715   9.9972  10.1158  10.3072  10.3817  10.4949
    10.5826  10.6688  10.7192  10.7834  10.8797  11.0636  11.2229  11.2807
    11.3679  11.4999  11.5571  11.6588  11.7509  11.8252  11.9403  11.9996
    12.0659  12.1495  12.2294  12.3014  12.3512  12.4404  12.5894  12.6522
    12.7244  12.7849  12.9211  12.9591  13.0822  13.1179  13.2335  13.2763
    13.3814  13.4318  13.5118  13.5614  13.6867  13.7876  13.8416  13.8883
    14.0155  14.0819  14.1192  14.1570  14.2110  14.3478  14.4569  14.5128
    14.6182  14.7002  14.7550  14.8701  14.9353  15.0017  15.1127  15.2370
    15.2767  15.3667  15.4045  15.4868  15.5275  15.6431  15.7409  15.7656
    15.8114  15.8495  15.9492  16.0007  16.0680  16.1199  16.1530  16.2538
    16.3352  16.3712  16.4146  16.5144  16.5615  16.6997  16.7348  16.7979
    16.8980  16.9156  16.9896  17.0656  17.1945  17.2666  17.3157  17.3506
    17.3844  17.4516  17.5299  17.6010  17.6501  17.6881  17.7473  17.8473
    17.9549  17.9792  18.0749  18.1085  18.2317  18.3318  18.3633  18.4364
    18.4779  18.5393  18.5804  18.7168  18.7784  18.8038  18.8416  18.9308
    19.0272  19.1465  19.2332  19.2815  19.3455  19.3882  19.4933  19.5341
    19.6016  19.6550  19.7832  19.8278  19.8779  19.9741  20.1624  20.2116
    20.2614  20.3453  20.4338  20.4788  20.5330  20.6332  20.7300  20.7787
    20.8208  20.9207  20.9912  21.1400  21.1816  21.2563  21.3065  21.3443
    21.4702  21.5350  21.6549  21.7309  21.8051  21.8414  21.8948

 ------ SPIN DOWN ----------


          k = 0.0000 0.0000 0.0000 ( 27003 PWs)   bands (ev):

   -72.6499 -72.6331 -72.2318 -72.1378 -72.1189 -71.9741 -71.8620 -71.8466
   -44.0854 -44.0564 -44.0400 -43.9800 -43.9446 -43.8963 -43.8745 -43.7587
   -43.7413 -43.6249 -43.5284 -43.4774 -43.4248 -43.4125 -43.3996 -43.3978
   -43.3396 -43.2602 -43.2334 -43.2253 -43.1776 -43.1554 -43.1205 -42.9306
   -25.3379 -20.8492 -20.2991 -20.1758 -19.9130 -19.7400 -19.6517 -19.2690
   -19.2244 -19.1669 -19.1427 -18.9862 -18.9308 -18.9054 -18.8390 -18.8046
   -18.7257 -18.5236 -18.4131 -17.3133  -9.6316  -8.4497  -8.1143  -7.9482
    -7.8987  -7.8367  -7.8149  -7.3274  -7.1573  -6.9640  -6.9331  -6.8431
    -6.7596  -6.7159  -6.6134  -6.5666  -6.4246  -6.1986  -6.0540  -6.0519
    -6.0155  -5.9026  -5.9007  -5.8271  -5.8015  -5.6613  -5.3712  -5.1696
    -5.0196  -4.9853  -4.8794  -4.6989  -4.6657  -4.4692  -4.3867  -4.3061
    -4.2541  -4.1848  -4.1230  -3.9705  -3.8679  -3.8327  -3.7786  -3.5799
    -3.5271  -3.4847  -3.3073  -3.2704  -3.2323  -3.1669  -2.9795  -2.9409
    -2.8242  -2.5902  -2.5419  -2.5022  -2.3839  -2.0142  -1.8082  -0.0840
    -0.0762   0.1068   0.2391   0.2917   0.3814   0.3904   0.4469   0.5772
     0.6456   0.6675   0.7456   0.8481   0.8875   1.0245   1.0676   1.1957
     1.2808   1.3019   1.3192   1.4782   1.5764   1.6260   1.6661   1.9102
     2.1492   2.2457   2.7499   2.8062   3.0029   3.0967   3.1818   3.1856
     3.3022   3.4600   3.5526   3.5893   3.6638   3.7452   3.8043   3.8272
     4.0007   4.3378   4.4213   4.9981   5.0631   5.7572   5.9525   6.5617
     6.9449   7.0227   7.1935   7.2949   7.4051   7.5174   7.6002   7.6355
     7.7635   7.7737   7.9423   8.0829   8.1167   8.2370   8.2602   8.5349
     8.7148   8.7592   8.9586   8.9946   9.1485   9.3095   9.4550   9.5204
     9.7664   9.7816  10.0398  10.1667  10.2534  10.2604  10.3216  10.6115
    10.7117  10.7470  10.7915  10.8386  11.0020  11.0370  11.0752  11.2114
    11.2587  11.4386  11.5487  11.5752  11.6779  11.7945  11.8586  11.8856
    11.9386  12.0067  12.0228  12.1373  12.1784  12.3065  12.4078  12.4173
    12.4262  12.4903  12.5906  12.7455  12.8678  13.0204  13.0973  13.1359
    13.2093  13.2558  13.3229  13.3445  13.3561  13.4548  13.6363  13.6771
    13.7196  13.7967  13.8347  13.9900  14.0313  14.0705  14.1249  14.3253
    14.4258  14.4459  14.5514  14.6428  14.6811  14.7784  14.9656  15.1303
    15.1967  15.2914  15.3148  15.3875  15.5995  15.6337  15.6585  15.6946
    15.7154  15.7360  15.7959  16.0187  16.1463  16.1824  16.2377  16.5688
    16.5878  16.6275  16.7233  16.8344  16.9014  17.0534  17.1168  17.2614
    17.3078  17.3277  17.5084  17.6514  17.6893  17.7712  17.7801  17.9032
    17.9421  18.1060  18.1676  18.2038  18.4869  18.5007  18.5240  18.6289
    18.7349  18.7876  18.9525  18.9788  19.0530  19.1572  19.2085  19.3013
    19.3621  19.3958  19.4334  19.5043  19.5667  19.5833  19.6308  19.6656
    19.7831  19.8240  19.9670  20.0314  20.0925  20.1267  20.3281  20.4559
    20.4909  20.6046  20.6321  20.7465  20.7795  20.8435  20.8536  20.9391
    21.1677  21.1867  21.2767  21.2823  21.2942  21.3552  21.4063  21.4326
    21.5094  21.5458  21.6684  21.7178  21.7905  21.8357  21.8979  21.9521
    21.9821  22.0754  22.1025  22.1586  22.1996  22.2494  22.4222

          k = 0.0000 0.2341 0.0000 ( 27088 PWs)   bands (ev):

   -72.6499 -72.6331 -72.2318 -72.1378 -72.1189 -71.9741 -71.8620 -71.8466
   -44.0855 -44.0557 -44.0405 -43.9800 -43.9446 -43.8963 -43.8745 -43.7587
   -43.7413 -43.6249 -43.5280 -43.4676 -43.4295 -43.4128 -43.4077 -43.3991
   -43.3360 -43.2602 -43.2337 -43.2253 -43.1776 -43.1554 -43.1202 -42.9306
   -25.3376 -20.7847 -20.2092 -20.1729 -19.9128 -19.7668 -19.6538 -19.3531
   -19.2733 -19.2107 -19.1530 -18.9760 -18.9524 -18.8573 -18.8374 -18.8097
   -18.7763 -18.5258 -18.4088 -17.3082  -9.6105  -8.4214  -8.1394  -8.0178
    -7.7541  -7.6003  -7.5327  -7.3171  -7.1122  -7.0297  -6.9034  -6.8964
    -6.7193  -6.7115  -6.5319  -6.4605  -6.2538  -6.2108  -6.0602  -6.0315
    -6.0145  -5.9068  -5.7704  -5.7333  -5.6275  -5.4919  -5.3344  -5.2906
    -5.2325  -5.1808  -5.1621  -4.9366  -4.7866  -4.5688  -4.4201  -4.3070
    -4.2421  -4.1135  -4.0301  -3.9847  -3.8973  -3.8087  -3.6987  -3.6697
    -3.6571  -3.5690  -3.4455  -3.3891  -3.3303  -3.2686  -3.0656  -3.0226
    -2.9217  -2.8642  -2.5595  -2.4795  -2.3644  -2.0567  -1.8728  -0.0183
     0.1387   0.2497   0.2630   0.3105   0.3156   0.4172   0.4853   0.4990
     0.5559   0.7366   0.7487   0.8482   0.9210   1.1196   1.2007   1.2756
     1.2920   1.3470   1.3877   1.4710   1.4936   1.6827   1.7037   1.7952
     2.2654   2.3063   2.3628   2.5197   2.9193   2.9862   3.2722   3.2955
     3.3764   3.5310   3.7545   3.7773   3.8412   3.9092   3.9518   4.0610
     4.1563   4.2595   4.5538   4.8039   5.2304   5.5026   5.8155   5.9323
     6.0762   6.4219   6.6144   7.1351   7.3295   7.5110   7.5861   7.7972
     7.9305   8.0504   8.1830   8.2970   8.3487   8.5622   8.7286   8.9135
     8.9417   8.9563   9.0944   9.2440   9.4164   9.5257   9.5949   9.6717
     9.6856   9.7408   9.9039  10.1595  10.2167  10.2451  10.3250  10.3746
    10.4422  10.5173  10.6211  10.7179  10.7306  10.7873  10.9236  10.9945
    11.0468  11.1565  11.3092  11.4887  11.5710  11.6630  11.7239  11.7692
    11.8716  12.0329  12.0647  12.1430  12.3612  12.3984  12.4596  12.5894
    12.6391  12.7558  12.8726  12.9765  13.2009  13.2901  13.3287  13.4293
    13.4672  13.5107  13.5686  13.6853  13.7374  13.8676  13.9461  14.0682
    14.0928  14.1796  14.2360  14.2858  14.3628  14.4439  14.5559  14.5784
    14.6212  14.7552  14.7877  14.8120  15.0057  15.0941  15.1667  15.3241
    15.3759  15.4156  15.4350  15.4734  15.5874  15.6182  15.7148  15.7638
    15.7987  15.8473  15.9206  15.9359  16.1210  16.1798  16.2249  16.2579
    16.3081  16.3350  16.3716  16.4871  16.6379  16.6496  16.8216  16.8560
    16.9743  17.0120  17.2213  17.3271  17.3695  17.4347  17.4534  17.4914
    17.6175  17.6715  17.8023  17.9283  18.0468  18.1137  18.1609  18.2289
    18.3703  18.5273  18.6005  18.7645  18.8285  18.8724  18.8793  19.0161
    19.1187  19.2813  19.3554  19.4288  19.5525  19.5815  19.6136  19.6940
    19.7492  19.8082  19.8500  19.9629  20.0251  20.1178  20.2432  20.2592
    20.3705  20.4763  20.5306  20.5817  20.6283  20.7299  20.7919  20.8015
    20.9000  20.9317  21.0397  21.0606  21.0978  21.1541  21.2272  21.3155
    21.3952  21.4659  21.4891  21.5494  21.5785  21.6111  21.6987  21.7600
    21.7928  21.8531  21.8983  21.9166  21.9537  22.0842  22.1085

          k = 0.0000-0.4682 0.0000 ( 27136 PWs)   bands (ev):

   -72.6499 -72.6331 -72.2318 -72.1378 -72.1189 -71.9741 -71.8620 -71.8466
   -44.0856 -44.0550 -44.0409 -43.9800 -43.9445 -43.8963 -43.8745 -43.7587
   -43.7413 -43.6249 -43.5275 -43.4517 -43.4320 -43.4271 -43.4102 -43.3997
   -43.3326 -43.2603 -43.2339 -43.2253 -43.1775 -43.1553 -43.1199 -42.9307
   -25.3373 -20.7100 -20.1699 -20.0681 -19.9765 -19.7368 -19.6602 -19.5348
   -19.2742 -19.2497 -19.1430 -18.9694 -18.9632 -18.8983 -18.8327 -18.8236
   -18.7626 -18.5280 -18.4066 -17.3030  -9.5877  -8.3987  -8.1922  -8.0720
    -7.7081  -7.3205  -7.2481  -7.1672  -7.1039  -6.8974  -6.8838  -6.8359
    -6.7230  -6.5716  -6.5237  -6.3408  -6.2561  -6.0370  -6.0293  -5.9829
    -5.9107  -5.7881  -5.7034  -5.6656  -5.6282  -5.5789  -5.5206  -5.5076
    -5.4527  -5.3568  -5.1723  -5.0862  -4.8718  -4.8526  -4.5478  -4.3070
    -4.2539  -4.1443  -4.0642  -4.0602  -3.8838  -3.8370  -3.8030  -3.7821
    -3.7055  -3.6025  -3.5227  -3.4238  -3.2803  -3.2732  -3.1382  -3.1233
    -3.0228  -2.9418  -2.5094  -2.4262  -2.3889  -2.0777  -1.9475  -0.2492
    -0.0244   0.2095   0.2858   0.2910   0.4668   0.5069   0.6023   0.6290
     0.6542   0.8341   0.8391   0.9294   0.9388   1.2043   1.2776   1.2880
     1.2884   1.3182   1.3380   1.4564   1.4606   1.5782   1.8454   1.8529
     2.0569   2.2338   2.2963   2.6333   3.0384   3.1368   3.1892   3.3057
     3.3874   3.4820   3.7041   3.7718   3.8361   3.9887   4.1786   4.3641
     4.5026   4.5432   4.5923   4.7190   4.9073   5.1763   5.3438   5.6399
     5.9888   6.2014   6.3797   6.9056   7.1633   7.6619   7.8066   7.8982
     7.9517   8.3096   8.3423   8.4583   8.5254   8.6087   8.6846   8.8039
     8.9672   9.0309   9.0400   9.1100   9.2047   9.3695   9.4730   9.5950
     9.6679   9.6780   9.9232  10.0346  10.1454  10.2308  10.2726  10.3259
    10.3513  10.6280  10.6606  10.7675  10.8651  11.0286  11.2494  11.2878
    11.3052  11.3200  11.5027  11.6414  11.7077  11.8245  11.8829  12.0872
    12.1312  12.1972  12.2386  12.2854  12.3506  12.3958  12.4205  12.6960
    12.7306  12.8179  12.9311  12.9427  13.0876  13.2284  13.2737  13.3341
    13.3772  13.5789  13.5881  13.7257  13.7946  13.8975  13.9991  14.0292
    14.1435  14.1820  14.4326  14.4378  14.4623  14.6016  14.7028  14.7168
    14.8223  14.8294  14.8793  14.9492  15.0157  15.0603  15.2633  15.4848
    15.5126  15.6489  15.6696  15.7287  15.8155  15.9017  16.0019  16.0292
    16.1114  16.1456  16.1917  16.2329  16.3416  16.3561  16.5135  16.5211
    16.5442  16.5578  16.5859  16.7191  16.7408  16.7975  16.8300  16.8527
    16.8986  16.9229  17.0072  17.0360  17.0801  17.1797  17.2593  17.2964
    17.4826  17.5135  17.5620  17.5681  17.6781  17.8830  17.9616  17.9988
    18.0335  18.2115  18.2320  18.3056  18.3296  18.4000  18.4838  18.5773
    18.7032  18.7976  18.8350  18.8568  19.0461  19.1331  19.1464  19.1682
    19.2075  19.4165  19.5039  19.5638  19.5851  19.6599  19.8778  19.9499
    20.0561  20.1474  20.2007  20.4231  20.4470  20.4990  20.5528  20.6048
    20.6480  20.6570  20.8018  20.8978  20.9770  21.0122  21.1034  21.1550
    21.1766  21.2087  21.2469  21.3893  21.4660  21.4786  21.5306  21.5474
    21.5895  21.6386  21.8276  21.9253  21.9676  22.1765  22.2014

          k = 0.2500 0.0000 0.0000 ( 27178 PWs)   bands (ev):

   -72.6475 -72.6356 -72.2317 -72.1360 -72.1207 -71.9742 -71.8597 -71.8489
   -44.0573 -44.0526 -44.0423 -43.9755 -43.9495 -43.9046 -43.8962 -43.7572
   -43.7428 -43.6250 -43.5150 -43.4710 -43.4342 -43.4063 -43.3986 -43.3970
   -43.3159 -43.2552 -43.2343 -43.2306 -43.1914 -43.1840 -43.0930 -42.9587
   -25.3378 -20.7340 -20.2328 -20.2008 -19.8370 -19.7902 -19.6852 -19.3979
   -19.2934 -19.1507 -19.0917 -18.9643 -18.9214 -18.8896 -18.8592 -18.8141
   -18.7544 -18.5466 -18.4432 -17.3109  -9.6306  -8.3462  -8.0879  -7.9788
    -7.7862  -7.7071  -7.5995  -7.2981  -7.1572  -6.9370  -6.9184  -6.8610
    -6.7671  -6.7278  -6.6435  -6.5690  -6.4109  -6.3056  -6.1935  -6.1715
    -6.0564  -6.0071  -5.8960  -5.7924  -5.6639  -5.6355  -5.1892  -5.0872
    -4.9441  -4.8690  -4.7025  -4.6162  -4.5562  -4.5394  -4.4933  -4.4002
    -4.3003  -4.2646  -4.1869  -4.1065  -4.0296  -3.8545  -3.7434  -3.6659
    -3.5862  -3.5464  -3.4157  -3.3753  -3.3186  -3.2739  -3.0500  -2.9251
    -2.9070  -2.7983  -2.5747  -2.4545  -2.3910  -2.1375  -1.8424   0.0430
     0.0856   0.2085   0.3435   0.3625   0.4048   0.4214   0.5688   0.6095
     0.7005   0.7019   0.7736   0.9206   1.0000   1.0304   1.0402   1.0688
     1.1354   1.2090   1.2661   1.4280   1.4798   1.5883   1.8055   1.8233
     2.2747   2.3892   2.8272   2.9428   3.0112   3.0465   3.0722   3.2218
     3.2703   3.4292   3.4384   3.5220   3.6626   3.7847   3.8441   3.8861
     4.1060   4.3781   4.6137   4.9879   5.3131   5.3497   6.0168   6.1303
     6.1857   6.5748   6.8235   6.9433   7.2448   7.2899   7.4801   7.7369
     7.7900   7.9012   8.0096   8.1260   8.2428   8.4412   8.5038   8.6917
     8.7682   8.9582   9.2051   9.2302   9.3714   9.4267   9.5782   9.7489
     9.8516   9.8821  10.0053  10.0297  10.1078  10.1803  10.2372  10.4094
    10.4955  10.6014  10.6485  10.6663  10.7486  10.8054  10.9070  11.0038
    11.1018  11.2989  11.3739  11.4215  11.5905  11.6192  11.6629  11.7842
    11.8325  12.0412  12.1446  12.2448  12.3447  12.4246  12.5977  12.7186
    12.7503  12.8419  12.8966  12.9490  13.0827  13.3069  13.3844  13.3963
    13.5733  13.6111  13.6759  13.7133  13.8526  13.9112  13.9553  14.0089
    14.1310  14.1914  14.2326  14.3752  14.4232  14.4864  14.5827  14.6558
    14.6862  14.7576  14.9112  14.9619  15.0606  15.1484  15.2854  15.3142
    15.3783  15.4596  15.6164  15.6304  15.7086  15.7927  15.8632  15.9064
    15.9393  16.0623  16.1347  16.1501  16.2937  16.4019  16.4579  16.5901
    16.6469  16.7161  16.7260  16.7745  16.8895  17.0676  17.1130  17.2095
    17.2806  17.4151  17.4531  17.5099  17.5643  17.6146  17.6961  17.7412
    17.7507  17.8320  17.8737  17.9639  18.0603  18.1635  18.2189  18.3318
    18.4778  18.4900  18.6227  18.6854  18.7361  18.8155  18.9288  18.9560
    19.0490  19.1052  19.1584  19.1959  19.3911  19.4191  19.4994  19.5352
    19.5979  19.6337  19.7357  19.7634  19.9076  19.9430  20.0056  20.0212
    20.1958  20.2494  20.3079  20.3574  20.3805  20.4915  20.5361  20.5663
    20.6541  20.7300  20.7699  20.9289  21.0412  21.0730  21.1009  21.1691
    21.2105  21.3590  21.3811  21.4528  21.4784  21.5575  21.6102  21.6303
    21.6853  21.7180  21.7921  21.8171  21.8468  21.9133  21.9829

          k = 0.2500 0.2341 0.0000 ( 27132 PWs)   bands (ev):

   -72.6475 -72.6356 -72.2317 -72.1360 -72.1207 -71.9742 -71.8597 -71.8489
   -44.0571 -44.0522 -44.0426 -43.9755 -43.9495 -43.9046 -43.8962 -43.7572
   -43.7428 -43.6250 -43.5146 -43.4627 -43.4270 -43.4167 -43.4068 -43.3982
   -43.3124 -43.2552 -43.2346 -43.2306 -43.1913 -43.1840 -43.0928 -42.9587
   -25.3375 -20.6792 -20.2271 -20.1199 -19.8119 -19.7780 -19.7172 -19.3747
   -19.2788 -19.2616 -19.1040 -19.0451 -18.9943 -18.8569 -18.8422 -18.8275
   -18.7852 -18.5440 -18.4381 -17.3056  -9.6094  -8.3252  -8.1067  -7.9766
    -7.5725  -7.4763  -7.3946  -7.2475  -7.0267  -6.9298  -6.8724  -6.8375
    -6.7563  -6.7337  -6.5598  -6.4540  -6.3548  -6.2910  -6.1865  -6.1018
    -6.0044  -5.9741  -5.9035  -5.7604  -5.6589  -5.6017  -5.3426  -5.2231
    -5.1176  -4.8679  -4.7888  -4.7121  -4.6969  -4.6208  -4.6114  -4.5176
    -4.4125  -4.3498  -4.3048  -4.1647  -4.0252  -3.9332  -3.8361  -3.7842
    -3.6828  -3.5820  -3.5541  -3.4081  -3.3311  -3.2635  -3.0955  -3.0385
    -2.8514  -2.8104  -2.5209  -2.4224  -2.3874  -2.1201  -1.8646  -0.0003
     0.1096   0.2802   0.2828   0.3563   0.4690   0.5069   0.5971   0.6275
     0.7040   0.7542   0.8758   0.9182   0.9855   1.0637   1.1078   1.1481
     1.2272   1.2359   1.3502   1.4235   1.5104   1.6351   1.6741   1.9217
     2.3121   2.4501   2.4889   2.6381   2.9425   3.0466   3.0851   3.1528
     3.3211   3.4264   3.5263   3.6569   3.7085   3.9895   4.1064   4.1399
     4.2663   4.3623   4.7846   4.9413   5.3703   5.5265   5.8212   6.0858
     6.2312   6.2763   6.3647   6.5359   6.8181   6.9039   7.1515   7.4637
     7.5769   7.7115   7.9319   8.1126   8.3072   8.3632   8.4808   8.6368
     8.7690   8.9215   9.0992   9.2159   9.3699   9.5190   9.6476   9.7489
     9.9132   9.9896  10.0501  10.1308  10.1717  10.3892  10.4725  10.5636
    10.6250  10.6910  10.8444  10.9357  11.0486  11.0966  11.3145  11.3280
    11.4199  11.6181  11.6285  11.8097  11.8688  11.9506  12.0417  12.1131
    12.1444  12.2794  12.3624  12.4303  12.4589  12.6010  12.6752  12.7091
    12.8331  12.9151  13.0235  13.0993  13.1781  13.3354  13.4262  13.4774
    13.5291  13.5962  13.6765  13.6977  13.8200  13.9042  13.9783  14.0250
    14.1699  14.2106  14.3091  14.3361  14.4220  14.4895  14.5887  14.6909
    14.7828  14.8921  14.9201  15.0156  15.1224  15.2325  15.3062  15.4482
    15.5400  15.6206  15.6950  15.7420  15.8241  15.9068  15.9560  16.0004
    16.0512  16.1265  16.1714  16.2074  16.2335  16.3122  16.4170  16.4497
    16.4818  16.5418  16.6108  16.6673  16.7441  16.8117  16.9320  17.0039
    17.0886  17.1331  17.1606  17.2529  17.3276  17.4071  17.4727  17.4959
    17.5474  17.6530  17.7037  17.7919  17.8469  17.9168  17.9618  18.0258
    18.0791  18.1848  18.2587  18.3289  18.4194  18.4607  18.5360  18.5652
    18.6473  18.7268  18.8124  18.8789  18.9249  18.9857  19.0107  19.1456
    19.2088  19.2777  19.3401  19.4093  19.4712  19.4914  19.5873  19.6461
    19.7409  19.7888  19.8652  19.9051  20.0299  20.1030  20.2528  20.3458
    20.3812  20.4933  20.5733  20.6442  20.6628  20.7938  20.8488  20.9199
    21.0292  21.0925  21.1749  21.2383  21.3030  21.4153  21.4635  21.5102
    21.6381  21.7024  21.8373  21.9184  21.9863  22.0133  22.1400

          k = 0.2500-0.4682 0.0000 ( 27150 PWs)   bands (ev):

   -72.6474 -72.6356 -72.2317 -72.1360 -72.1207 -71.9742 -71.8597 -71.8489
   -44.0570 -44.0518 -44.0429 -43.9755 -43.9495 -43.9046 -43.8962 -43.7572
   -43.7428 -43.6250 -43.5143 -43.4475 -43.4288 -43.4252 -43.4136 -43.3987
   -43.3110 -43.2553 -43.2349 -43.2306 -43.1912 -43.1836 -43.0926 -42.9588
   -25.3372 -20.6185 -20.2210 -19.9688 -19.9131 -19.7506 -19.6424 -19.4834
   -19.3425 -19.1743 -19.1593 -19.0837 -19.0693 -18.9350 -18.8383 -18.8182
   -18.7690 -18.5419 -18.4350 -17.3003  -9.5871  -8.3074  -8.1375  -7.9946
    -7.5145  -7.2592  -7.0551  -6.9774  -6.9429  -6.8753  -6.8421  -6.8121
    -6.7274  -6.5605  -6.4907  -6.2443  -6.2282  -6.1988  -6.1281  -6.0998
    -6.0940  -5.9407  -5.8575  -5.7288  -5.5749  -5.5635  -5.4834  -5.4738
    -5.4310  -5.1351  -5.0421  -4.9442  -4.8852  -4.7869  -4.7232  -4.6491
    -4.5364  -4.3978  -4.3594  -4.2052  -4.1357  -3.9890  -3.9450  -3.8336
    -3.7506  -3.6374  -3.5566  -3.3806  -3.2001  -3.1893  -3.1215  -2.9570
    -2.9257  -2.7868  -2.5043  -2.4120  -2.3896  -2.1067  -1.8865  -0.2025
     0.0288   0.1983   0.3141   0.3398   0.5295   0.6295   0.6626   0.6938
     0.7151   0.8334   0.8653   1.0398   1.1209   1.1542   1.2197   1.2497
     1.2688   1.2853   1.3704   1.3955   1.5123   1.5635   1.7900   2.0187
     2.0552   2.2567   2.4457   2.6401   2.8148   3.0789   3.1130   3.1315
     3.2056   3.4289   3.5585   3.8397   3.8661   3.9601   4.2884   4.3832
     4.4163   4.8056   4.8289   4.9612   5.1497   5.3764   5.5860   5.7534
     5.8793   6.2695   6.5330   6.6641   6.7167   6.9389   7.0981   7.2019
     7.2922   7.4102   7.5655   7.8278   7.8875   8.1488   8.3188   8.5652
     8.6818   8.9767   9.0552   9.1392   9.2481   9.3624   9.5195   9.6016
     9.8407  10.1548  10.2600  10.3869  10.5438  10.5919  10.6541  10.8206
    11.0046  11.0813  11.1863  11.2492  11.3502  11.5033  11.6395  11.6967
    11.7695  11.8908  11.9623  12.0576  12.1039  12.1966  12.2837  12.4264
    12.4651  12.5556  12.5968  12.6924  12.7390  12.7601  12.8211  12.9411
    13.0537  13.1128  13.2532  13.2801  13.3537  13.4320  13.5095  13.5703
    13.5910  13.6536  13.8045  13.9049  13.9427  13.9773  14.0714  14.1877
    14.2129  14.2795  14.3182  14.3951  14.5222  14.6446  14.6919  14.7473
    14.8022  14.8315  14.8589  14.8930  14.9451  15.0011  15.1037  15.1274
    15.2176  15.2581  15.3798  15.4879  15.5488  15.6159  15.6677  15.7910
    15.8281  15.8687  15.9407  15.9775  16.0801  16.1055  16.1599  16.1731
    16.2401  16.4100  16.4518  16.5239  16.6567  16.7070  16.7466  16.8211
    16.8366  16.9202  16.9897  17.0556  17.0868  17.1714  17.2670  17.3444
    17.4217  17.4988  17.6112  17.7705  17.8233  17.8957  17.9469  17.9943
[...]
     6.1054   6.1973   6.7866   6.9924   7.2323   7.3793   7.7048   7.9416
     8.0187   8.0919   8.1506   8.2514   8.5638   8.5826   8.6464   8.6805
     8.7404   8.7936   8.8745   8.9190   8.9613   9.0936   9.2092   9.3345
     9.3712   9.4493   9.6695   9.9019   9.9363  10.0621  10.1778  10.2759
    10.3774  10.6830  10.7351  10.8708  10.9153  10.9362  11.0604  11.0832
    11.2616  11.4033  11.5937  11.7134  11.8873  12.0046  12.0339  12.1024
    12.2419  12.3052  12.3529  12.3859  12.6106  12.6574  12.7857  12.8263
    12.9125  12.9498  13.1857  13.3087  13.4472  13.4911  13.5573  13.6208
    13.6724  13.7362  13.7751  13.7930  13.8728  13.9782  13.9997  14.0306
    14.2949  14.3103  14.3884  14.4378  14.6406  14.6916  14.7579  14.8388
    14.9379  14.9833  15.0970  15.1448  15.2749  15.3216  15.4038  15.5246
    15.6908  15.6967  15.7435  15.7511  15.8247  15.9439  15.9708  16.0295
    16.2656  16.3099  16.4536  16.5167  16.5652  16.5916  16.7486  16.7888
    16.8837  16.9302  16.9334  17.0179  17.0825  17.1307  17.1924  17.2433
    17.3247  17.3937  17.4966  17.5130  17.5502  17.5905  17.6073  17.6578
    17.6932  17.7642  17.8911  17.9092  17.9700  17.9909  18.0737  18.0969
    18.1286  18.1631  18.2507  18.3193  18.3914  18.4272  18.5640  18.6089
    18.6809  18.6943  18.7145  18.7619  18.7715  19.0953  19.1563  19.2135
    19.2711  19.3235  19.4143  19.4245  19.5498  19.5710  19.6258  19.6585
    19.8650  19.9096  20.0340  20.0381  20.1146  20.1584  20.2366  20.2587
    20.2971  20.3624  20.3843  20.4138  20.4656  20.5178  20.5604  20.6613
    20.6923  20.7546  20.7869  20.8626  20.9606  21.0081  21.1302  21.1396
    21.2888  21.3723  21.3797  21.3900  21.4401  21.4906  21.5416

          k =-0.5000 0.2341 0.0000 ( 27132 PWs)   bands (ev):

   -72.6790 -72.6782 -72.1591 -72.1587 -72.1520 -72.0049 -71.8845 -71.8844
   -44.0807 -44.0802 -44.0327 -44.0221 -43.9984 -43.9880 -43.7932 -43.7798
   -43.7735 -43.6529 -43.4799 -43.4727 -43.4417 -43.4352 -43.3967 -43.3862
   -43.2793 -43.2756 -43.2727 -43.2719 -43.2713 -43.2332 -43.0552 -43.0549
   -24.8420 -20.4590 -20.4583 -19.9821 -19.9627 -19.6395 -19.6319 -19.5695
   -19.5681 -19.1473 -19.1269 -19.0535 -19.0486 -18.9249 -18.9192 -18.8731
   -18.8357 -18.5558 -18.5251 -17.3025  -9.3862  -8.1269  -8.1158  -7.7292
    -7.2378  -7.2123  -7.1874  -7.1612  -7.0779  -7.0094  -6.9339  -6.8650
    -6.7787  -6.6523  -6.6345  -6.5187  -6.4770  -6.3873  -6.3706  -6.0695
    -6.0376  -5.8044  -5.7777  -5.7015  -5.6250  -5.5087  -5.4376  -5.2550
    -5.1811  -5.1573  -5.1112  -4.9827  -4.9347  -4.6315  -4.6098  -4.4562
    -4.4348  -4.3581  -4.3138  -4.2630  -4.2501  -4.1199  -4.1088  -3.9569
    -3.9097  -3.6233  -3.5728  -3.3639  -3.3125  -3.2311  -3.1917  -2.8212
    -2.8127  -2.7431  -2.6090  -2.4562  -2.3860  -2.2974  -1.9281  -0.0107
     0.0006   0.3749   0.3863   0.4542   0.4916   0.5332   0.5837   0.7758
     0.7948   0.8646   0.8737   0.9361   0.9813   1.0077   1.0161   1.0492
     1.0706   1.2089   1.2141   1.4077   1.4312   1.5605   1.5697   2.0240
     2.3957   2.6216   2.6621   2.7377   2.7456   2.9100   2.9251   2.9447
     3.0481   3.3414   3.3594   3.6388   3.8050   3.8467   4.1472   4.1810
     4.5175   4.7125   4.9476   4.9810   5.1429   5.1907   5.6533   5.6861
     6.2130   6.2724   6.4930   6.5231   6.7853   6.8594   7.0374   7.0581
     7.1725   7.4103   7.6129   7.7108   7.8073   8.1288   8.3153   8.4324
     8.6710   8.8988   9.1203   9.1731   9.2645   9.2940   9.6199   9.7587
     9.9103  10.0145  10.2001  10.2490  10.3736  10.5077  10.7375  10.7554
    10.7893  10.7967  10.8593  10.9947  11.1742  11.3037  11.4130  11.4311
    11.6070  11.6368  11.8277  11.9578  12.0691  12.1118  12.2461  12.3252
    12.4325  12.5412  12.7077  12.7824  12.9974  13.0102  13.1159  13.1313
    13.1769  13.2102  13.3882  13.5066  13.5736  13.6362  13.7026  13.7556
    13.7980  13.8407  13.9451  13.9680  14.1074  14.2130  14.2384  14.3414
    14.4377  14.4923  14.5603  14.6340  14.6746  14.7131  14.7593  14.8141
    14.9618  15.0424  15.0896  15.1328  15.1776  15.2523  15.3578  15.4079
    15.4855  15.6202  15.6908  15.7259  15.7721  15.8119  15.8795  15.8948
    15.9784  16.0177  16.1499  16.1812  16.1989  16.2414  16.2972  16.3339
    16.3904  16.4402  16.4830  16.5020  16.6073  16.6241  16.7103  16.7403
    16.7983  16.8299  16.9174  16.9292  17.0597  17.1073  17.1953  17.2247
    17.2947  17.3142  17.4426  17.4688  17.5406  17.5681  17.6563  17.6854
    17.8316  17.9607  17.9747  17.9905  18.0658  18.1006  18.1980  18.2952
    18.4079  18.4554  18.5406  18.5618  18.6723  18.7024  18.7816  18.8343
    18.9271  19.0784  19.1234  19.2657  19.3261  19.4477  19.4871  19.6192
    19.6996  19.7375  19.8018  19.8257  19.8552  19.9022  19.9309  20.0055
    20.0800  20.1447  20.1849  20.2278  20.3156  20.3283  20.4598  20.5678
    20.6182  20.7126  20.7815  20.9066  20.9439  21.1560  21.2123  21.2710
    21.3194  21.3807  21.4830  21.5463  21.6719  21.7270  21.8283

          k =-0.5000-0.4682 0.0000 ( 27168 PWs)   bands (ev):

   -72.6790 -72.6782 -72.1591 -72.1587 -72.1520 -72.0049 -71.8845 -71.8844
   -44.0805 -44.0800 -44.0327 -44.0221 -43.9984 -43.9880 -43.7932 -43.7798
   -43.7735 -43.6529 -43.4673 -43.4595 -43.4531 -43.4517 -43.3965 -43.3866
   -43.2783 -43.2748 -43.2727 -43.2722 -43.2713 -43.2330 -43.0551 -43.0548
   -24.8418 -20.4304 -20.4295 -19.9212 -19.8834 -19.6647 -19.6512 -19.4553
   -19.4392 -19.3310 -19.3298 -19.0783 -19.0725 -18.9691 -18.9659 -18.8591
   -18.8129 -18.5504 -18.5200 -17.2989  -9.3680  -8.1023  -8.0920  -7.7446
    -7.1359  -7.1072  -7.0506  -7.0067  -6.9082  -6.6657  -6.6642  -6.5952
    -6.5888  -6.4939  -6.4145  -6.3763  -6.3599  -6.2766  -6.2632  -6.0983
    -6.0626  -5.9388  -5.9127  -5.8917  -5.8028  -5.6794  -5.6442  -5.5154
    -5.4821  -5.2473  -5.2104  -5.1138  -5.0198  -4.8613  -4.8591  -4.7478
    -4.7461  -4.5044  -4.4823  -4.3565  -4.3116  -4.2386  -4.2306  -3.9613
    -3.9025  -3.5238  -3.5104  -3.3494  -3.0735  -3.0285  -3.0201  -2.8978
    -2.8586  -2.7739  -2.7644  -2.4351  -2.2312  -2.2289  -1.9194  -0.0605
    -0.0464   0.2123   0.2179   0.4704   0.5224   0.5572   0.5986   0.8350
     0.8720   0.9017   0.9561   0.9864   1.0488   1.0733   1.0859   1.1602
     1.1669   1.3584   1.3612   1.5188   1.5578   1.6080   1.6102   2.1012
     2.2809   2.3443   2.3814   2.5075   2.5855   2.7654   2.7710   2.9457
     3.0650   3.4885   3.4896   3.7779   4.0727   4.0876   4.1029   4.1144
     4.6395   5.0503   5.3855   5.4475   5.5445   5.5467   5.6912   5.7173
     5.8554   5.8871   6.0510   6.0880   6.3234   6.3967   6.5767   6.6639
     6.9219   7.1253   7.2729   7.4420   7.6400   7.9815   8.0656   8.3736
     8.4241   8.7503   8.8838   9.0797   9.3344   9.3593   9.7180   9.8630
     9.9013   9.9528  10.0367  10.0636  10.2832  10.4141  11.0758  11.1758
    11.2283  11.2418  11.4839  11.5782  11.7256  11.7707  11.9975  12.1408
    12.4221  12.4267  12.4814  12.6681  12.7626  12.8535  12.9194  13.0438
    13.1378  13.1512  13.2762  13.3254  13.3817  13.4262  13.4837  13.5139
    13.5444  13.5635  13.6485  13.6813  13.8198  13.8973  13.9121  13.9174
    13.9799  13.9982  14.0856  14.1196  14.1780  14.2099  14.2129  14.3204
    14.3415  14.3932  14.4715  14.5081  14.5375  14.6043  14.6299  14.6607
    14.7166  14.7276  14.7968  14.8810  14.9484  14.9668  15.0127  15.0878
    15.1284  15.1618  15.1935  15.3217  15.3574  15.3627  15.3790  15.4358
    15.5270  15.5483  15.5834  15.6703  15.6781  15.7897  15.8151  15.8313
    15.9281  15.9904  16.0416  16.0768  16.1358  16.1606  16.1872  16.2579
    16.3804  16.4831  16.6158  16.6433  16.7562  16.7970  16.8825  16.9549
    17.0231  17.1020  17.1640  17.2249  17.2688  17.3537  17.4293  17.5047
    17.6194  17.6698  17.7141  17.7735  17.8026  17.8731  18.0401  18.0954
    18.1440  18.1655  18.2332  18.2564  18.3758  18.3786  18.4349  18.5941
    18.8769  18.9299  18.9954  19.0478  19.1515  19.1805  19.2593  19.3384
    19.3463  19.4057  19.5070  19.6832  19.7725  19.8762  20.0161  20.0707
    20.2784  20.2992  20.3496  20.5128  20.5885  20.6829  20.8558  20.8743
    21.0426  21.0979  21.2298  21.2783  21.4407  21.5698  21.6204  21.6791
    21.7049  21.7939  21.8137  21.9627  21.9931  22.0778  22.0985

          k =-0.2500 0.2341 0.0000 ( 27132 PWs)   bands (ev):

   -72.6845 -72.6727 -72.1619 -72.1593 -72.1489 -72.0047 -71.8899 -71.8790
   -44.0979 -44.0851 -44.0748 -44.0117 -43.9871 -43.9448 -43.7934 -43.7825
   -43.7709 -43.6526 -43.4900 -43.4661 -43.4412 -43.4352 -43.4210 -43.3877
   -43.3412 -43.2842 -43.2704 -43.2593 -43.2101 -43.2087 -43.1217 -42.9876
   -24.8421 -20.7095 -20.2527 -20.1481 -19.8416 -19.8129 -19.7554 -19.4041
   -19.3034 -19.2931 -19.1353 -19.0837 -19.0255 -18.8854 -18.8692 -18.8482
   -18.8156 -18.5783 -18.4690 -17.3044  -9.3875  -8.3281  -8.0336  -7.7721
    -7.5606  -7.4884  -7.4305  -7.1191  -6.9940  -6.9453  -6.9410  -6.8829
    -6.7603  -6.7320  -6.5518  -6.4868  -6.3878  -6.3137  -6.2048  -6.1452
    -6.0116  -5.9948  -5.9341  -5.8282  -5.6696  -5.6308  -5.3497  -5.2622
    -5.1511  -4.9184  -4.8211  -4.7618  -4.7353  -4.6840  -4.6261  -4.5380
    -4.4687  -4.3419  -4.3272  -4.2140  -4.0585  -3.9644  -3.9116  -3.8111
    -3.6705  -3.5970  -3.5093  -3.4370  -3.3501  -3.2627  -3.0881  -3.0464
    -2.8941  -2.8572  -2.5946  -2.4712  -2.3781  -2.1478  -1.9346  -0.0268
     0.0781   0.2649   0.2748   0.3421   0.4390   0.4725   0.5671   0.6081
     0.6694   0.7236   0.8565   0.9020   0.9819   1.0329   1.0826   1.1151
     1.2030   1.2106   1.3274   1.3940   1.4956   1.6020   1.6553   1.8987
     2.2784   2.3484   2.4711   2.6043   2.9063   3.0165   3.0515   3.1339
     3.2778   3.3959   3.4934   3.6286   3.6745   3.9626   4.0945   4.1056
     4.2127   4.3409   4.5940   4.8813   5.3582   5.5270   5.7974   6.0776
     6.2297   6.2763   6.3600   6.5349   6.8237   6.9144   7.1412   7.4808
     7.5839   7.6853   7.9228   8.0933   8.3125   8.3627   8.4719   8.6499
     8.7724   8.9304   9.1073   9.2393   9.4033   9.4929   9.6264   9.7503
     9.9142   9.9863  10.0370  10.1038  10.1755  10.3595  10.4901  10.5352
    10.6106  10.7029  10.8371  10.9151  11.0360  11.1037  11.3030  11.3320
    11.4244  11.5651  11.6324  11.7706  11.8228  11.9336  12.0459  12.1074
    12.1500  12.2764  12.3761  12.4221  12.4415  12.5930  12.6921  12.7051
    12.8337  12.8891  13.0044  13.0958  13.1850  13.3158  13.4054  13.4556
    13.4894  13.5795  13.6361  13.6679  13.7937  13.9031  13.9489  14.0172
    14.1745  14.2118  14.3006  14.3407  14.3895  14.4627  14.5568  14.6457
    14.7875  14.8463  14.8927  15.0051  15.1039  15.2078  15.2760  15.3833
    15.4698  15.5545  15.6080  15.6887  15.7889  15.8659  15.9286  15.9828
    16.0566  16.0907  16.1563  16.1888  16.2043  16.2584  16.3502  16.4356
    16.4850  16.5350  16.6298  16.6671  16.7252  16.7794  16.9028  16.9364
    17.0786  17.1242  17.1750  17.2444  17.2997  17.3583  17.4625  17.4751
    17.5265  17.5974  17.7136  17.7814  17.8090  17.8314  17.9449  18.0204
    18.0760  18.1547  18.2309  18.2975  18.4144  18.4834  18.5282  18.5512
    18.6198  18.6896  18.7958  18.8661  18.9076  18.9935  19.0294  19.1386
    19.1731  19.2677  19.3672  19.4212  19.4460  19.4927  19.5953  19.6251
    19.7491  19.7976  19.8653  19.9223  20.0196  20.0853  20.2585  20.3580
    20.4175  20.4757  20.5507  20.6054  20.6776  20.8113  20.8556  20.9634
    21.0166  21.0764  21.1672  21.2880  21.3023  21.4050  21.4682  21.5064
    21.6094  21.7075  21.8442  21.8951  21.9602  22.0013  22.1085

     the spin up/dw Fermi energies are    -0.8014   -1.8175 ev

!    total energy              =   -2059.07009512 Ry
     Harris-Foulkes estimate   =   -2059.07009456 Ry
     estimated scf accuracy    <       0.00000002 Ry

     The total energy is the sum of the following terms:

     one-electron contribution =  -24780.90540578 Ry
     hartree contribution      =   12416.71032677 Ry
     xc contribution           =    -329.70397804 Ry
     ewald contribution        =   10634.82960165 Ry
     smearing contrib. (-TS)   =      -0.00063973 Ry

     total magnetization       =    15.00 Bohr mag/cell
     absolute magnetization    =    18.68 Bohr mag/cell

     convergence has been achieved in  18 iterations

     Forces acting on atoms (Ry/au):


     negative rho (up, down):  0.427E-02 0.167E-02
     atom    1 type  1   force =    -0.00354031   -0.01479431   -0.00181330
     atom    2 type  1   force =    -0.00008093    0.01425660    0.00107450
     atom    3 type  2   force =     0.00582119   -0.00660194   -0.00102495
     atom    4 type  2   force =     0.00070852    0.00776236    0.00130447
     atom    5 type  1   force =     0.00326352    0.00654748   -0.00001078
     atom    6 type  1   force =    -0.00118089   -0.00551125   -0.00009549
     atom    7 type  1   force =    -0.00006262   -0.00062936   -0.00177862
     atom    8 type  1   force =     0.00055338   -0.00176084   -0.00141264
     atom    9 type  2   force =     0.00408499    0.00162973    0.00421242
     atom   10 type  2   force =     0.00000780   -0.00085347   -0.00140279
     atom   11 type  1   force =    -0.01313970   -0.04730906   -0.01361969
     atom   12 type  1   force =    -0.01731655    0.04573796   -0.01913079
     atom   13 type  1   force =    -0.00070338    0.00018620   -0.00022638
     atom   14 type  1   force =    -0.00350100   -0.01475817   -0.00169179
     atom   15 type  1   force =    -0.00008349    0.01400007   -0.00128108
     atom   16 type  2   force =    -0.00630056   -0.00657445   -0.00098265
     atom   17 type  2   force =     0.00079654    0.00762741    0.00177715
     atom   18 type  1   force =     0.00365709    0.00650358    0.00000099
     atom   19 type  1   force =    -0.00027862   -0.00552510   -0.00010459
     atom   20 type  1   force =     0.00000499    0.00053900   -0.01278054
     atom   21 type  1   force =     0.00063690   -0.00051237   -0.00107342
     atom   22 type  2   force =    -0.00320280    0.00156543    0.00437639
     atom   23 type  2   force =     0.00002194   -0.01563457    0.09920495
     atom   24 type  1   force =     0.01305328   -0.04729707   -0.01371663
     atom   25 type  1   force =     0.01769717    0.04583472   -0.01913879
     atom   26 type  1   force =    -0.00050212   -0.01943148   -0.02222674
     atom   27 type  3   force =     0.00009522   -0.00070760    0.00057137
     atom   28 type  3   force =     0.00009903   -0.00081752    0.00028363
     atom   29 type  3   force =    -0.00030991    0.00033630    0.00041498
     atom   30 type  3   force =    -0.00030178    0.00030740    0.00041954
     atom   31 type  1   force =    -0.00012956    0.03654711    0.00058756
     atom   32 type  1   force =     0.00021467   -0.01603496    0.00011512
     atom   33 type  3   force =    -0.00008201    0.01537215   -0.00083140

     Total force =     0.001058     Total SCF correction =     0.000086

     bfgs converged in   9 scf cycles and   8 bfgs steps
     (criteria: energy < 0.10E-03, force < 0.10E-02)

     End of BFGS Geometry Optimization

     Final energy   =   -2059.0700951237 Ry
Begin final coordinates

ATOMIC_POSITIONS (crystal)
O0       0.000000000   0.000000000   0.380440000    0   0   0
O0       0.000000000   0.500000000   0.398750000    0   0   0
Cr1      0.250000000   0.500000000   0.449490000    0   0   0
Cr1      0.000000000   0.000000000   0.452000000    0   0   0
O0       0.250000000   0.800000000   0.451020000    0   0   0
O0       0.250000000   0.200000000   0.451220000    0   0   0
O0       0.000000000   0.500000000   0.497560000    0   0   0
O0       0.000000000   0.000000000   0.524790000    0   0   0
Cr1      0.250000000   0.000000000   0.577460000    0   0   0
Cr1      0.000000000   0.500000000   0.565410000    0   0   0
O0       0.250000000   0.700000000   0.575340000    0   0   0
O0       0.250000000   0.300000000   0.575320000    0   0   0
O0       0.000000000   0.000000000   0.618010000    0   0   0
O0       0.500000000   0.000000000   0.380440000    0   0   0
O0       0.500000000   0.500000000   0.398750000    0   0   0
Cr1      0.750000000   0.500000000   0.449490000    0   0   0
Cr1      0.500000000   0.000000000   0.452000000    0   0   0
O0       0.750000000   0.800000000   0.451020000    0   0   0
O0       0.750000000   0.200000000   0.451220000    0   0   0
O0       0.500000000   0.500000000   0.497560000    0   0   0
O0       0.500000000   0.000000000   0.524790000    0   0   0
Cr1      0.750000000   0.000000000   0.577460000    0   0   0
Cr1      0.500000000   0.500000000   0.565410000    0   0   0
O0       0.750000000   0.700000000   0.575340000    0   0   0
O0       0.750000000   0.300000000   0.575320000    0   0   0
O0       0.500000000   0.000000000   0.618010000    0   0   0
H2      -0.000690000   0.641520000   0.380780000    0   0   0
H2       0.499310000   0.641520000   0.380780000    0   0   0
H2       0.157340000   0.029640000   0.367440000    0   0   0
H2       0.657350000   0.029640000   0.367440000    0   0   0
O0       0.499855000   0.500000000   0.646224989    1   0   1
O0       0.500215915   0.311920000   0.674245623    1   0   1
H2       0.499892418   0.359720000   0.710262418    1   0   1
End final coordinates



     init_run     :    110.52s CPU    112.15s WALL (       1 calls)
     electrons    :  45576.49s CPU  49619.71s WALL (       9 calls)
     update_pot   :    142.63s CPU    148.28s WALL (       8 calls)
     forces       :   1448.57s CPU   1553.77s WALL (       9 calls)

     Called by init_run:
     wfcinit      :     44.96s CPU     45.75s WALL (       1 calls)
     potinit      :      7.73s CPU      8.08s WALL (       1 calls)

     Called by electrons:
     c_bands      :  23491.74s CPU  24733.24s WALL (     187 calls)
     sum_band     :  10847.51s CPU  11996.04s WALL (     187 calls)
     v_of_rho     :    411.79s CPU    479.81s WALL (     195 calls)
     newd         :   9305.25s CPU   9341.72s WALL (     195 calls)
     mix_rho      :     72.25s CPU     74.21s WALL (     187 calls)

     Called by c_bands:
     init_us_2    :     48.86s CPU     49.87s WALL (    1920 calls)
     cegterg      :  22402.53s CPU  22921.82s WALL (     935 calls)

     Called by *egterg:
     h_psi        :  12515.66s CPU  12782.13s WALL (    2447 calls)
     s_psi        :   1426.79s CPU   1448.48s WALL (    2447 calls)
     g_psi        :     30.29s CPU     30.28s WALL (    1507 calls)
     cdiaghg      :   2136.09s CPU   2141.60s WALL (    2397 calls)

     Called by h_psi:
     add_vuspsi   :   1437.80s CPU   1463.07s WALL (    2447 calls)

     General routines
     calbec       :   2171.64s CPU   2187.24s WALL (    3427 calls)
     fft          :    450.70s CPU    556.67s WALL (    6134 calls)
     ffts         :      5.44s CPU      5.78s WALL (     764 calls)
     fftw         :   7724.18s CPU   8013.46s WALL ( 1646257 calls)
     interpolate  :     51.70s CPU     52.59s WALL (     764 calls)

     Parallel routines
     fft_scatter  :   2982.43s CPU   3370.77s WALL ( 1653155 calls)

     PWSCF        :    13h14m CPU       14h24m WALL


   This run was terminated on:  20:55:20   1May2014            

=------------------------------------------------------------------------------=
   JOB DONE.
=------------------------------------------------------------------------------=
---------------------------------------
Running PBS batch system epilogue script
Job id: 344759.audhumbla.fysik.dtu.dk
Username: zhonxu
Groupname: campgst
Jobname: CrO2/Eads-2-layers/OOH
Sessionid: 15685
Resources limits: neednodes=2:ppn=8:xeon8,nodes=2:ppn=8:xeon8,walltime=48:00:00
Resources used: cput=230:20:20,mem=17400484kb,vmem=21325228kb,walltime=14:24:25
Queuename: verylong
Accounting:
This job has allocated the following 16 nodes:
a129 a129 a129 a129 a129 a129 a129 a129 a117 a117 a117 a117 a117 a117 a117 a117
Finished epilogue job 344759.audhumbla.fysik.dtu.dk for zhonxu
