
     Program PWSCF v.5.0.2 (svn rev. 9656) starts on 24Jan2014 at 14:39: 4 

     This program is part of the open-source Quantum ESPRESSO suite
     for quantum simulation of materials; please cite
         "P. Giannozzi et al., J. Phys.:Condens. Matter 21 395502 (2009);
          URL http://www.quantum-espresso.org", 
     in publications or presentations arising from this work. More details at
     http://www.quantum-espresso.org/quote.php

     Parallel version (MPI), running on     4 processors
     R & G space division:  proc/nbgrp/npool/nimage =       4

     Current dimensions of program PWSCF are:
     Max number of different atomic species (ntypx) = 10
     Max number of k-points (npk) =  40000
     Max angular momentum in pseudopotentials (lmaxx) =  3
     Reading input from RuO2-v-0.95.in

     Subspace diagonalization in iterative solution of the eigenvalue problem:
     a serial algorithm will be used


     Parallelization info
     --------------------
     sticks:   dense  smooth     PW     G-vecs:    dense   smooth      PW
     Min         739     237     72                19410     3519     580
     Max         740     238     74                19411     3526     581
     Sum        2957     949    293                77643    14091    2321



     bravais-lattice index     =            0
     lattice parameter (alat)  =       8.6082  a.u.
     unit-cell volume          =     411.0809 (a.u.)^3
     number of atoms/cell      =            6
     number of atomic types    =            2
     number of electrons       =        56.00
     number of Kohn-Sham states=           81
     kinetic-energy cutoff     =      40.0000  Ry
     charge density cutoff     =     500.0000  Ry
     convergence threshold     =      1.0E-06
     mixing beta               =       0.3000
     number of iterations used =            8  plain     mixing
     Exchange-correlation      = SLA  PW   PBE  PBE ( 1 4 3 4 0)
     EXX-fraction              =        0.00
     nstep                     =           50


     celldm(1)=   8.608231  celldm(2)=   0.000000  celldm(3)=   0.000000
     celldm(4)=   0.000000  celldm(5)=   0.000000  celldm(6)=   0.000000

     crystal axes: (cart. coord. in units of alat)
               a(1) = (   1.000000   0.000000   0.000000 )  
               a(2) = (   0.000000   1.000000   0.000000 )  
               a(3) = (   0.000000   0.000000   0.644444 )  

     reciprocal axes: (cart. coord. in units 2 pi/alat)
               b(1) = (  1.000000  0.000000  0.000000 )  
               b(2) = (  0.000000  1.000000  0.000000 )  
               b(3) = (  0.000000  0.000000  1.551724 )  


     PseudoPot. # 1 for Ru read from file:
     /home/camp/zhonxu/pseudo/ru_pbe_v1.uspp.F.UPF
     MD5 check sum: df00be1c11b23341d9806d8f1dfa10cf
     Pseudo is Ultrasoft + core correction, Zval = 16.0
     Generated by new atomic code, or converted to UPF format
     Using radial grid of  967 points,  6 beta functions with: 
                l(1) =   0
                l(2) =   0
                l(3) =   1
                l(4) =   1
                l(5) =   2
                l(6) =   2
     Q(r) pseudized with  8 coefficients,  rinner =    1.300   1.300   1.300
                                                       1.300   1.300

     PseudoPot. # 2 for O  read from file:
     /home/camp/zhonxu/pseudo/o_pbe_v1.01.uspp.F.UPF
     MD5 check sum: 2bcb18d16ea4b960afae9ec6d52f22d2
     Pseudo is Ultrasoft + core correction, Zval =  6.0
     Generated by new atomic code, or converted to UPF format
     Using radial grid of  737 points,  5 beta functions with: 
                l(1) =   0
                l(2) =   0
                l(3) =   1
                l(4) =   1
                l(5) =   2
     Q(r) pseudized with  8 coefficients,  rinner =    0.900   0.900   0.900
                                                       0.900   0.900

     atomic species   valence    mass     pseudopotential
        Ru0           16.00   101.07000     Ru( 1.00)
        O1             6.00    15.99940     O ( 1.00)

     Starting magnetic structure 
     atomic species   magnetization
        Ru0          0.000
        O1           0.000

     16 Sym. Ops., with inversion, found ( 8 have fractional translation)



   Cartesian axes

     site n.     atom                  positions (alat units)
         1           Ru0 tau(   1) = (   0.0000000   0.0000000   0.0000000  )
         2           Ru0 tau(   2) = (   0.5000000   0.5000000   0.3222222  )
         3           O1  tau(   3) = (   0.3050000   0.3050000   0.0000000  )
         4           O1  tau(   4) = (  -0.3050000  -0.3050000   0.0000000  )
         5           O1  tau(   5) = (   0.8050000   0.1950000   0.3222222  )
         6           O1  tau(   6) = (   0.1950000   0.8050000   0.3222222  )

     number of k points=    36  Methfessel-Paxton smearing, width (Ry)=  0.0100
                       cart. coord. in units 2pi/alat
        k(    1) = (   0.0000000   0.0000000   0.0000000), wk =   0.0080000
        k(    2) = (   0.0000000   0.0000000   0.3103448), wk =   0.0160000
        k(    3) = (   0.0000000   0.0000000   0.6206897), wk =   0.0160000
        k(    4) = (   0.0000000   0.2000000   0.0000000), wk =   0.0320000
        k(    5) = (   0.0000000   0.2000000   0.3103448), wk =   0.0640000
        k(    6) = (   0.0000000   0.2000000   0.6206897), wk =   0.0640000
        k(    7) = (   0.0000000   0.4000000   0.0000000), wk =   0.0320000
        k(    8) = (   0.0000000   0.4000000   0.3103448), wk =   0.0640000
        k(    9) = (   0.0000000   0.4000000   0.6206897), wk =   0.0640000
        k(   10) = (   0.2000000   0.2000000   0.0000000), wk =   0.0320000
        k(   11) = (   0.2000000   0.2000000   0.3103448), wk =   0.0640000
        k(   12) = (   0.2000000   0.2000000   0.6206897), wk =   0.0640000
        k(   13) = (   0.2000000   0.4000000   0.0000000), wk =   0.0640000
        k(   14) = (   0.2000000   0.4000000   0.3103448), wk =   0.1280000
        k(   15) = (   0.2000000   0.4000000   0.6206897), wk =   0.1280000
        k(   16) = (   0.4000000   0.4000000   0.0000000), wk =   0.0320000
        k(   17) = (   0.4000000   0.4000000   0.3103448), wk =   0.0640000
        k(   18) = (   0.4000000   0.4000000   0.6206897), wk =   0.0640000
        k(   19) = (   0.0000000   0.0000000   0.0000000), wk =   0.0080000
        k(   20) = (   0.0000000   0.0000000   0.3103448), wk =   0.0160000
        k(   21) = (   0.0000000   0.0000000   0.6206897), wk =   0.0160000
        k(   22) = (   0.0000000   0.2000000   0.0000000), wk =   0.0320000
        k(   23) = (   0.0000000   0.2000000   0.3103448), wk =   0.0640000
        k(   24) = (   0.0000000   0.2000000   0.6206897), wk =   0.0640000
        k(   25) = (   0.0000000   0.4000000   0.0000000), wk =   0.0320000
        k(   26) = (   0.0000000   0.4000000   0.3103448), wk =   0.0640000
        k(   27) = (   0.0000000   0.4000000   0.6206897), wk =   0.0640000
        k(   28) = (   0.2000000   0.2000000   0.0000000), wk =   0.0320000
        k(   29) = (   0.2000000   0.2000000   0.3103448), wk =   0.0640000
        k(   30) = (   0.2000000   0.2000000   0.6206897), wk =   0.0640000
        k(   31) = (   0.2000000   0.4000000   0.0000000), wk =   0.0640000
        k(   32) = (   0.2000000   0.4000000   0.3103448), wk =   0.1280000
        k(   33) = (   0.2000000   0.4000000   0.6206897), wk =   0.1280000
        k(   34) = (   0.4000000   0.4000000   0.0000000), wk =   0.0320000
        k(   35) = (   0.4000000   0.4000000   0.3103448), wk =   0.0640000
        k(   36) = (   0.4000000   0.4000000   0.6206897), wk =   0.0640000

     Dense  grid:    77643 G-vectors     FFT dimensions: (  64,  64,  40)

     Smooth grid:    14091 G-vectors     FFT dimensions: (  36,  36,  24)

     Largest allocated arrays     est. size (Mb)     dimensions
        Kohn-Sham Wavefunctions         0.55 Mb     (    448,   81)
        NL pseudopotentials             0.60 Mb     (    448,   88)
        Each V/rho on FFT grid          1.25 Mb     (  40960,   2)
        Each G-vector array             0.15 Mb     (  19411)
        G-vector shells                 0.15 Mb     (  19411)
     Largest temporary arrays     est. size (Mb)     dimensions
        Auxiliary wavefunctions         2.21 Mb     (    448,  324)
        Each subspace H/S matrix        1.60 Mb     ( 324, 324)
        Each <psi_i|beta_j> matrix      0.11 Mb     (     88,   81)
        Arrays for rho mixing           5.00 Mb     (  40960,   8)

     Check: negative/imaginary core charge=   -0.000008    0.000000

     Initial potential from superposition of free atoms
     Check: negative starting charge=(component1):   -0.064051
     Check: negative starting charge=(component2):   -0.064051

     starting charge   53.99996, renormalised to   56.00000

     negative rho (up, down):  0.664E-01 0.664E-01
     Starting wfc are   42 randomized atomic wfcs

     total cpu time spent up to now is       10.6 secs

     per-process dynamical memory:    47.3 Mb

     Self-consistent Calculation

     iteration #  1     ecut=    40.00 Ry     beta=0.30
     Davidson diagonalization with overlap
     ethr =  1.00E-02,  avg # of iterations =  5.3

     negative rho (up, down):  0.713E-01 0.713E-01

     total cpu time spent up to now is       59.2 secs

     total energy              =    -514.87017997 Ry
     Harris-Foulkes estimate   =    -516.40470983 Ry
     estimated scf accuracy    <       3.29102336 Ry

     total magnetization       =     0.00 Bohr mag/cell
     absolute magnetization    =     0.00 Bohr mag/cell

     iteration #  2     ecut=    40.00 Ry     beta=0.30
     Davidson diagonalization with overlap
     ethr =  5.88E-03,  avg # of iterations =  1.0

     negative rho (up, down):  0.710E-01 0.710E-01

     total cpu time spent up to now is       76.0 secs

     total energy              =    -515.52855078 Ry
     Harris-Foulkes estimate   =    -515.62661693 Ry
     estimated scf accuracy    <       0.30116933 Ry

     total magnetization       =    -0.00 Bohr mag/cell
     absolute magnetization    =     0.00 Bohr mag/cell

     iteration #  3     ecut=    40.00 Ry     beta=0.30
     Davidson diagonalization with overlap
     ethr =  5.38E-04,  avg # of iterations =  1.3

     negative rho (up, down):  0.722E-01 0.722E-01

     total cpu time spent up to now is       93.4 secs

     total energy              =    -515.55439902 Ry
     Harris-Foulkes estimate   =    -515.57186849 Ry
     estimated scf accuracy    <       0.04471620 Ry

     total magnetization       =    -0.00 Bohr mag/cell
     absolute magnetization    =     0.00 Bohr mag/cell

     iteration #  4     ecut=    40.00 Ry     beta=0.30
     Davidson diagonalization with overlap
     ethr =  7.99E-05,  avg # of iterations =  3.1

     negative rho (up, down):  0.721E-01 0.721E-01

     total cpu time spent up to now is      114.0 secs

     total energy              =    -515.56095398 Ry
     Harris-Foulkes estimate   =    -515.56417322 Ry
     estimated scf accuracy    <       0.00958059 Ry

     total magnetization       =    -0.00 Bohr mag/cell
     absolute magnetization    =     0.00 Bohr mag/cell

     iteration #  5     ecut=    40.00 Ry     beta=0.30
     Davidson diagonalization with overlap
     ethr =  1.71E-05,  avg # of iterations =  1.3

     negative rho (up, down):  0.724E-01 0.724E-01

     total cpu time spent up to now is      131.0 secs

     total energy              =    -515.56253470 Ry
     Harris-Foulkes estimate   =    -515.56305841 Ry
     estimated scf accuracy    <       0.00218824 Ry

     total magnetization       =    -0.00 Bohr mag/cell
     absolute magnetization    =     0.00 Bohr mag/cell

     iteration #  6     ecut=    40.00 Ry     beta=0.30
     Davidson diagonalization with overlap
     ethr =  3.91E-06,  avg # of iterations =  2.4

     negative rho (up, down):  0.723E-01 0.723E-01

     total cpu time spent up to now is      149.9 secs

     total energy              =    -515.56268417 Ry
     Harris-Foulkes estimate   =    -515.56350059 Ry
     estimated scf accuracy    <       0.00241643 Ry

     total magnetization       =    -0.00 Bohr mag/cell
     absolute magnetization    =     0.00 Bohr mag/cell

     iteration #  7     ecut=    40.00 Ry     beta=0.30
     Davidson diagonalization with overlap
     ethr =  3.91E-06,  avg # of iterations =  1.0

     negative rho (up, down):  0.723E-01 0.723E-01

     total cpu time spent up to now is      166.3 secs

     total energy              =    -515.56307351 Ry
     Harris-Foulkes estimate   =    -515.56306837 Ry
     estimated scf accuracy    <       0.00000544 Ry

     total magnetization       =    -0.00 Bohr mag/cell
     absolute magnetization    =     0.00 Bohr mag/cell

     iteration #  8     ecut=    40.00 Ry     beta=0.30
     Davidson diagonalization with overlap
     ethr =  9.71E-09,  avg # of iterations =  2.1

     negative rho (up, down):  0.722E-01 0.722E-01

     total cpu time spent up to now is      185.4 secs

     End of self-consistent calculation

 ------ SPIN UP ------------


          k = 0.0000 0.0000 0.0000 (  1787 PWs)   bands (ev):

   -59.8225 -59.8158 -30.0093 -30.0093 -29.7677 -29.7677 -29.6197 -29.5955
    -6.7606  -5.7008  -4.7147  -4.7147   4.9407   5.0718   6.1524   6.6906
     6.6906   9.1133   9.1133   9.6904  10.9236  11.1677  11.1677  11.4787
    11.8943  12.5215  12.5215  12.5353  12.6305  15.2588  15.6304  18.6468
    18.6468  19.7213  20.0593  23.7073  23.7073  27.0754  28.5982  28.7140
    30.0332  31.2073  31.5016  31.5016  33.4260  34.9119  35.6207  35.6207
    36.7950  36.7950  38.0603  40.1783  40.4586  40.4586  41.5815  42.9801
    43.6392  44.2013  44.8090  45.3450  45.3504  45.3504  46.1630  46.1630
    46.6624  47.1840  47.1840  49.0670  50.6991  52.5902  52.5902  52.6308
    52.7579  53.5765  53.5765  54.2579  54.5547  54.5547  54.5880  54.6624
    55.9585

          k = 0.0000 0.0000 0.3103 (  1759 PWs)   bands (ev):

   -59.8139 -59.8085 -29.9986 -29.9986 -29.7500 -29.7500 -29.7302 -29.7110
    -6.3505  -5.4496  -4.9633  -4.9633   5.4333   5.7065   6.6284   6.6917
     6.6917   8.4198   9.2655   9.5764   9.5764  10.0524  10.0524  11.5142
    12.1451  12.8110  13.0323  13.5505  13.5505  15.2014  16.0576  18.0447
    18.0447  19.0406  21.1915  25.2295  25.2295  27.2437  27.9409  29.0907
    29.4884  30.1172  30.9532  30.9532  31.5988  35.8413  36.0572  36.0572
    36.5804  36.5804  38.0603  39.7519  40.2843  41.0771  41.0771  41.1827
    42.0998  42.6083  42.6083  42.9423  46.7648  47.0519  47.0519  48.8169
    48.8310  49.5337  49.5337  49.7201  50.3126  50.7976  51.6800  51.6800
    52.2479  53.2937  53.2937  54.9540  55.5670  55.8189  56.5066  56.5066
    58.4092

          k = 0.0000 0.0000 0.6207 (  1755 PWs)   bands (ev):

   -59.7994 -59.7973 -29.9816 -29.9816 -29.9031 -29.8961 -29.7206 -29.7206
    -5.5306  -5.3476  -5.3476  -5.1541   6.1888   6.4461   7.1100   7.1100
     7.4724   7.8736   7.9719   8.5535   8.5535   9.8765  10.1580  10.1580
    12.8820  13.2372  13.8092  14.1184  14.4993  14.4993  16.8271  17.3754
    17.7755  17.7755  23.6175  25.8782  27.5221  27.5221  27.8235  28.7934
    29.2517  29.5362  29.6956  29.6956  30.2420  32.2896  35.5050  35.5050
    37.5312  37.5312  39.1587  39.4491  39.4975  40.3708  41.2264  41.2264
    41.2419  43.2577  43.2577  44.6645  46.8862  46.8862  47.5551  49.2098
    49.2098  49.4171  50.0235  50.2355  50.2355  50.4660  51.2198  53.3108
    53.3108  53.5415  54.0726  54.5508  55.6513  55.6513  57.1780  57.8314
    57.8314

          k = 0.0000 0.2000 0.0000 (  1771 PWs)   bands (ev):

   -59.8219 -59.8164 -30.0072 -30.0070 -29.7704 -29.7704 -29.6174 -29.5976
    -6.6183  -5.6883  -4.8735  -4.7940   5.2032   5.3681   6.4310   6.7176
     6.7270   8.6527   8.7730   9.5918  10.1731  10.4831  10.7906  11.4979
    12.3213  12.8057  12.9471  12.9602  13.0523  15.3547  15.7568  18.4679
    18.5007  19.5146  20.4130  23.6131  23.9816  27.0394  28.1485  28.3809
    29.7235  31.6343  31.6452  32.1404  33.8474  34.6694  34.7444  34.8322
    36.2587  37.4888  38.6896  39.7377  40.5194  40.5753  42.0942  42.3084
    43.0912  43.9907  44.9152  45.1355  45.5984  46.0915  46.5234  47.2186
    47.6991  47.9125  48.1634  49.1705  50.4651  51.3541  51.8364  52.4570
    52.5056  52.6340  52.8860  53.0056  54.0182  54.2945  54.6171  56.5458
    57.1609

          k = 0.0000 0.2000 0.3103 (  1766 PWs)   bands (ev):

   -59.8134 -59.8090 -29.9977 -29.9975 -29.7527 -29.7523 -29.7273 -29.7115
    -6.2326  -5.4203  -5.1008  -5.0155   5.6646   5.8761   6.5474   6.6803
     7.1431   8.2159   8.5849   9.3707   9.4875   9.9591  10.0612  11.3189
    12.3028  13.2551  13.3177  13.4449  13.7447  14.9970  16.3598  17.5668
    17.9287  19.1517  21.5743  24.8314  25.4218  27.4856  27.9139  28.6611
    29.4611  29.8992  30.3680  31.6266  32.3756  34.6894  35.2655  36.0668
    36.5346  36.8097  39.0958  39.5350  40.1082  40.1723  40.8844  41.9070
    42.0509  42.9501  43.3386  44.7442  46.9479  47.2859  47.6570  47.7104
    48.5156  49.0138  49.5593  49.8296  51.0244  51.0650  51.3578  51.5516
    51.7091  53.1044  53.5832  54.6881  54.8499  55.4630  56.7185  57.1226
    58.1065

          k = 0.0000 0.2000 0.6207 (  1754 PWs)   bands (ev):

   -59.7992 -59.7975 -29.9850 -29.9846 -29.8991 -29.8940 -29.7206 -29.7205
    -5.6452  -5.5074  -5.1861  -5.0171   6.1575   6.3546   6.5931   7.0282
     7.5600   7.9221   8.3777   8.8037   8.9840   9.8818   9.9290  10.2420
    12.5185  13.3831  13.5605  13.8268  14.6232  14.6847  16.6138  16.6497
    18.1517  18.5904  23.6455  25.4986  26.9134  27.6357  28.0722  28.4355
    29.3226  29.4397  29.6140  29.7317  31.3710  32.0465  34.9892  35.3598
    37.1650  37.6568  38.7998  39.1259  40.3487  40.6360  41.2996  41.6209
    42.5103  43.0103  43.2435  45.4374  46.7274  47.3203  47.7643  48.0163
    48.9077  48.9404  49.5067  50.3764  50.6429  50.9450  51.5087  52.7546
    52.9313  53.5464  54.2758  55.0040  56.1042  56.2397  56.3066  57.0654
    57.6855

          k = 0.0000 0.4000 0.0000 (  1754 PWs)   bands (ev):

   -59.8202 -59.8181 -30.0034 -30.0033 -29.7749 -29.7748 -29.6113 -29.6037
    -6.2401  -5.8175  -5.0744  -4.9726   5.8120   5.9300   6.7716   6.7818
     7.2982   7.8995   7.9600   8.6769   9.5531   9.8655  10.7832  11.1480
    12.8611  13.1337  13.3043  13.4130  13.8572  14.6896  17.0335  18.1844
    18.2215  18.4645  21.6360  22.9116  24.8669  26.2168  28.0491  28.2349
    29.6255  30.9483  31.9626  32.8099  32.8979  34.2051  34.9191  36.1820
    36.4288  37.4751  38.7500  39.4062  40.3895  40.5753  40.6092  40.9834
    44.0906  44.0916  45.1167  45.6234  46.7140  46.8264  47.3742  47.3792
    48.8972  49.0573  49.7760  50.4282  50.4934  50.8273  50.9897  51.0088
    51.6679  52.0496  52.1947  52.8206  53.1096  53.5352  56.3285  56.3535
    56.4159

          k = 0.0000 0.4000 0.3103 (  1762 PWs)   bands (ev):

   -59.8120 -59.8103 -29.9961 -29.9959 -29.7566 -29.7562 -29.7207 -29.7145
    -5.9152  -5.5159  -5.2642  -5.1416   6.2167   6.2471   6.6265   6.6649
     7.5689   7.8206   8.2993   8.7677   8.8300   9.3650  10.5674  10.9502
    12.8263  13.2048  13.7391  13.8462  14.1559  14.5136  16.7689  16.9717
    18.0402  18.7432  22.6232  23.8357  26.1092  27.1791  28.1197  28.3997
    29.3876  29.4168  30.1806  31.6186  33.0569  33.9596  34.9136  36.4157
    36.6952  36.9113  38.9476  39.0043  39.9337  40.2030  41.0182  41.1865
    42.5641  44.1992  44.8529  45.6736  46.5908  47.0370  47.9134  48.3013
    48.8844  49.2225  49.6741  49.8092  50.7123  51.1825  51.3491  51.3570
    52.3025  52.9319  53.3261  54.4723  54.6127  55.3959  56.0637  56.3583
    57.3499

          k = 0.0000 0.4000 0.6207 (  1750 PWs)   bands (ev):

   -59.7986 -59.7980 -29.9898 -29.9894 -29.8929 -29.8912 -29.7205 -29.7204
    -5.7197  -5.6699  -4.9978  -4.9290   6.0914   6.1143   6.4360   6.5974
     7.8724   8.3340   8.5046   9.2268   9.3174   9.4409  10.0220  10.7774
    11.9543  12.6107  13.6649  13.8263  14.7752  14.7849  16.1420  16.2800
    18.8381  19.1060  23.9433  24.6652  26.7718  27.1855  28.0301  28.2276
    28.8477  29.2827  30.4212  30.5687  31.2694  31.8777  34.6472  35.2065
    37.4082  37.8063  38.7364  38.9352  40.9001  40.9333  41.3746  41.4482
    42.7812  43.3244  45.4615  45.6465  46.1333  46.5141  47.7104  47.7956
    48.8954  48.9970  49.5122  50.1895  50.5178  50.6448  52.3621  53.2047
    53.9284  54.1512  54.1952  54.6551  55.4287  55.8740  56.2781  57.4910
    57.5289

          k = 0.2000 0.2000 0.0000 (  1758 PWs)   bands (ev):

   -59.8213 -59.8169 -30.0104 -30.0030 -29.7749 -29.7673 -29.6155 -29.5995
    -6.5137  -5.7043  -5.0285  -4.7629   5.0045   5.9209   6.6689   6.6803
     6.7848   7.9612   9.0084   9.5367  10.1291  10.3736  10.4755  11.4444
    12.0565  12.5297  13.1295  13.3704  13.4568  15.2151  16.0623  18.2025
    18.6422  19.1472  20.9356  23.8424  23.9271  26.9907  27.3748  28.3287
    29.5704  31.2254  32.0573  33.5582  34.1005  34.5817  34.8468  34.9413
    35.3375  37.0102  38.3602  39.1065  40.3909  41.0191  41.6068  42.2980
    43.7116  43.7848  44.7876  45.5812  46.1957  46.5459  47.2586  47.3760
    47.7729  48.3253  49.0017  49.4520  50.4891  50.5282  50.7202  52.0388
    52.1500  52.2359  53.2473  53.4871  54.8136  54.9234  55.5784  55.5997
    55.7394

          k = 0.2000 0.2000 0.3103 (  1759 PWs)   bands (ev):

   -59.8130 -59.8094 -29.9993 -29.9958 -29.7565 -29.7497 -29.7253 -29.7127
    -6.1417  -5.4056  -5.2346  -5.0051   5.5595   6.2241   6.4228   6.8056
     7.3579   7.8974   8.7572   8.9181   9.4008   9.9960  10.2702  11.0715
    12.4669  12.8406  13.3819  13.8718  13.9105  14.8457  16.4770  17.3353
    18.0458  19.0078  21.9630  24.8335  25.2181  27.5976  27.8416  27.9249
    29.4236  29.7632  31.4200  31.5132  32.4739  33.9482  34.9352  36.2724
    36.6901  37.0435  38.7181  39.4207  40.1517  40.4717  41.2840  41.5763
    42.1812  43.0888  44.7353  45.0484  46.6757  46.8489  47.7268  47.7429
    48.3862  49.4527  49.5544  50.5484  50.5627  50.8358  51.0574  51.4834
    52.0546  52.5118  53.2016  53.8257  55.5929  55.7362  56.8869  57.1295
    58.2629

          k = 0.2000 0.2000 0.6207 (  1744 PWs)   bands (ev):

   -59.7990 -59.7976 -29.9895 -29.9819 -29.9009 -29.8907 -29.7207 -29.7205
    -5.7128  -5.3810  -5.3109  -4.9395   6.1424   6.3470   6.6850   6.7119
     7.2685   8.3756   8.4689   8.8086   9.1887   9.5705  10.0652  10.5214
    12.3068  13.4441  13.6243  13.7893  14.1652  14.9337  16.0830  17.3734
    17.7683  18.9153  23.6678  25.4751  25.9761  27.5554  27.8220  28.4410
    28.8763  29.5193  30.1166  30.8881  30.9693  32.5608  34.3896  35.4350
    36.9201  37.4252  38.0846  40.0878  40.7379  41.3453  41.5488  42.2573
    42.7335  42.7375  43.8439  45.7519  46.3262  46.9496  47.5728  48.3998
    48.4071  48.6419  49.3958  50.2302  50.4435  50.8568  51.7034  52.2446
    52.6867  53.7947  54.3646  55.1855  55.2396  55.8823  57.2830  57.3308
    57.6834

          k = 0.2000 0.4000 0.0000 (  1766 PWs)   bands (ev):

   -59.8200 -59.8183 -30.0085 -30.0039 -29.7746 -29.7698 -29.6106 -29.6045
    -6.2353  -5.8950  -5.0525  -4.8849   5.2799   5.8862   6.6919   6.7639
     7.4145   8.0229   8.4763   9.2778   9.6754  10.1075  10.3243  10.8973
    12.5150  12.8751  13.0098  13.3654  14.1384  14.7718  17.0029  18.1838
    18.1990  18.4785  22.0785  23.2189  24.8009  26.1007  27.2942  27.7436
    29.7624  30.6336  33.2132  33.4931  33.8033  34.4331  34.8829  35.8405
    36.2583  36.2674  37.8192  39.2230  39.7318  40.2424  40.8800  41.8248
    43.9790  44.1076  45.2294  45.6320  46.2584  46.8589  48.0746  48.3487
    48.9195  48.9686  49.2424  50.4174  50.7097  50.8441  51.2782  51.7161
    51.8983  52.1671  52.7046  53.1824  53.5206  54.3660  54.6110  55.4284
    56.5026

          k = 0.2000 0.4000 0.3103 (  1754 PWs)   bands (ev):

   -59.8119 -59.8105 -29.9986 -29.9964 -29.7564 -29.7522 -29.7207 -29.7160
    -5.9007  -5.5941  -5.2274  -5.0941   5.7815   6.2579   6.4647   6.6058
     7.8046   8.0341   8.5498   8.9027   9.1664   9.6100  10.2843  10.6430
    12.8994  13.0810  13.3926  13.8631  14.1057  14.4647  16.8555  17.3059
    18.0378  18.5499  22.8993  23.9759  25.8169  26.8807  27.7699  27.8020
    29.4965  29.6159  31.0508  31.6479  32.8642  33.5378  35.0865  36.7665
    36.8376  37.1210  38.7951  38.9227  40.1012  40.5477  41.0510  41.6682
    42.6453  43.7236  44.8683  45.4285  46.5537  47.5593  47.6209  48.3260
    48.4450  49.4356  49.5155  50.0592  50.3077  51.0136  51.2384  51.6455
    52.4537  52.6592  53.7312  53.7618  54.2581  55.0629  55.8425  56.5620
    58.0429

          k = 0.2000 0.4000 0.6207 (  1752 PWs)   bands (ev):

   -59.7986 -59.7981 -29.9898 -29.9853 -29.8972 -29.8914 -29.7208 -29.7206
    -5.7002  -5.5665  -5.1072  -4.9517   6.0799   6.2258   6.5148   6.7323
     7.3997   8.0715   8.6396   8.9315   9.3278   9.7564  10.2514  10.8603
    12.1436  12.8703  13.5978  13.7598  14.3801  14.7636  16.1928  16.8126
    18.4584  18.9782  23.9156  24.6441  25.8966  26.6663  27.8248  28.3222
    28.8985  29.4401  30.4076  30.9672  31.6579  32.7846  34.3528  35.4485
    37.1461  37.6554  38.0236  39.2262  41.2580  41.4868  41.9346  42.3807
    43.4207  44.1269  45.0611  45.6503  46.0837  46.4886  47.3390  47.8184
    48.1716  48.5602  48.8558  49.6642  50.6501  51.6465  51.9249  51.9774
    52.5366  53.3724  53.7391  54.4677  55.4958  56.0362  56.4026  57.6220
    58.2109

          k = 0.4000 0.4000 0.0000 (  1766 PWs)   bands (ev):

   -59.8194 -59.8188 -30.0121 -30.0094 -29.7694 -29.7666 -29.6087 -29.6064
    -6.1852  -6.0576  -4.9269  -4.8382   5.0184   5.2889   6.6334   6.6735
     8.0293   8.7154   8.8109   9.4905   9.9908  10.0677  10.3511  10.6922
    12.0192  12.5095  12.5447  12.8843  14.5677  14.7929  17.1617  17.6168
    18.4740  18.6341  22.9614  23.5828  24.8301  25.5901  26.7313  26.9632
    30.0832  30.5012  34.3201  34.5120  34.7551  34.9177  34.9731  35.0402
    35.2732  35.7892  37.7204  38.5557  38.7412  40.4599  41.4940  42.3125
    42.9194  44.2443  44.4917  44.6991  46.0095  46.8406  48.1894  48.8409
    49.2673  49.4357  50.5467  50.8220  51.0388  51.2497  51.4167  51.9181
    52.6228  52.6470  53.3737  53.4871  53.6225  54.3000  54.6935  55.7111
    57.4214

          k = 0.4000 0.4000 0.3103 (  1753 PWs)   bands (ev):

   -59.8114 -59.8109 -30.0007 -29.9993 -29.7521 -29.7494 -29.7206 -29.7190
    -5.8446  -5.7347  -5.1332  -5.0707   5.5792   5.7935   6.3672   6.4441
     8.4467   8.5650   8.8348   9.1438   9.5786   9.7771   9.7907  10.1755
    12.8152  13.1022  13.1969  13.3251  14.1892  14.3187  17.3073  17.5882
    18.0395  18.1750  23.5129  24.0537  25.5062  26.0718  27.6421  27.6507
    29.3816  29.5836  31.0097  31.3912  33.1609  34.0192  35.4836  36.8218
    36.9929  37.1012  39.0249  39.6454  39.9713  41.0351  41.3227  41.8004
    43.2772  43.2868  44.5834  44.5907  46.1832  46.7957  47.9379  48.0534
    48.5492  48.6732  49.1497  49.7096  50.3442  51.4109  51.8022  52.1487
    52.6226  53.1212  53.7165  54.3323  54.3708  55.1533  56.3489  56.4542
    56.8087

          k = 0.4000 0.4000 0.6207 (  1748 PWs)   bands (ev):

   -59.7984 -59.7982 -29.9855 -29.9825 -29.8998 -29.8960 -29.7210 -29.7209
    -5.5775  -5.4337  -5.2422  -5.0868   6.1803   6.4364   6.6203   6.7324
     7.1876   7.5585   8.4432   8.6584   9.6462   9.8594  10.6399  10.9016
    12.7034  13.2908  13.5490  13.6158  13.8753  14.3410  16.7925  17.5652
    17.7538  18.4596  23.8835  24.2099  25.7358  26.3855  27.0949  27.7000
    28.8287  29.0384  31.3148  31.4595  32.5576  33.0726  34.9056  35.6213
    37.4386  37.5845  37.8095  38.8431  41.3890  41.4857  43.4154  43.6737
    44.1764  44.5903  45.1209  45.8100  46.2514  46.7776  47.1743  47.4862
    47.8465  48.0887  48.4782  48.8654  49.8375  50.1352  50.1377  52.4324
    52.5417  53.1750  53.6974  54.1311  54.5232  54.7742  56.2091  56.9064
    57.5558

 ------ SPIN DOWN ----------


          k = 0.0000 0.0000 0.0000 (  1787 PWs)   bands (ev):

   -59.8225 -59.8158 -30.0094 -30.0094 -29.7677 -29.7677 -29.6197 -29.5955
    -6.7606  -5.7008  -4.7147  -4.7147   4.9407   5.0718   6.1524   6.6906
     6.6906   9.1133   9.1133   9.6904  10.9236  11.1677  11.1677  11.4787
    11.8943  12.5215  12.5215  12.5353  12.6305  15.2588  15.6304  18.6468
    18.6468  19.7213  20.0593  23.7073  23.7073  27.0754  28.5982  28.7140
    30.0332  31.2073  31.5016  31.5016  33.4260  34.9119  35.6207  35.6207
    36.7950  36.7950  38.0603  40.1783  40.4586  40.4586  41.5815  42.9801
    43.6392  44.2013  44.8090  45.3450  45.3504  45.3504  46.1630  46.1630
    46.6624  47.1840  47.1840  49.0670  50.6991  52.5902  52.5902  52.6308
    52.7579  53.5765  53.5765  54.2579  54.5547  54.5547  54.5880  54.6624
    55.9585

          k = 0.0000 0.0000 0.3103 (  1759 PWs)   bands (ev):

   -59.8139 -59.8085 -29.9986 -29.9986 -29.7500 -29.7500 -29.7302 -29.7110
    -6.3505  -5.4496  -4.9633  -4.9633   5.4332   5.7065   6.6284   6.6917
     6.6917   8.4198   9.2655   9.5764   9.5764  10.0524  10.0524  11.5142
    12.1451  12.8110  13.0323  13.5505  13.5505  15.2014  16.0576  18.0447
    18.0447  19.0406  21.1915  25.2295  25.2295  27.2437  27.9409  29.0907
    29.4884  30.1172  30.9532  30.9532  31.5988  35.8413  36.0572  36.0572
    36.5804  36.5804  38.0603  39.7519  40.2843  41.0771  41.0771  41.1827
    42.0998  42.6083  42.6083  42.9423  46.7648  47.0519  47.0519  48.8168
    48.8310  49.5337  49.5337  49.7201  50.3126  50.7976  51.6800  51.6800
    52.2479  53.2937  53.2937  54.9540  55.5670  55.8189  56.5066  56.5066
    58.4092

          k = 0.0000 0.0000 0.6207 (  1755 PWs)   bands (ev):

   -59.7994 -59.7973 -29.9816 -29.9816 -29.9031 -29.8961 -29.7206 -29.7206
    -5.5306  -5.3477  -5.3477  -5.1541   6.1888   6.4461   7.1100   7.1100
     7.4724   7.8736   7.9719   8.5535   8.5535   9.8765  10.1579  10.1579
    12.8820  13.2372  13.8092  14.1184  14.4993  14.4993  16.8270  17.3754
    17.7755  17.7755  23.6175  25.8781  27.5221  27.5221  27.8235  28.7934
    29.2517  29.5362  29.6956  29.6956  30.2420  32.2896  35.5050  35.5050
    37.5312  37.5312  39.1587  39.4491  39.4975  40.3708  41.2264  41.2264
    41.2419  43.2577  43.2577  44.6645  46.8862  46.8862  47.5551  49.2098
    49.2098  49.4171  50.0235  50.2355  50.2355  50.4660  51.2198  53.3108
    53.3108  53.5415  54.0726  54.5508  55.6513  55.6513  57.1780  57.8314
    58.0433

          k = 0.0000 0.2000 0.0000 (  1771 PWs)   bands (ev):

   -59.8219 -59.8164 -30.0072 -30.0071 -29.7705 -29.7704 -29.6174 -29.5977
    -6.6183  -5.6883  -4.8735  -4.7940   5.2031   5.3681   6.4310   6.7176
     6.7270   8.6527   8.7730   9.5918  10.1731  10.4831  10.7906  11.4979
    12.3212  12.8057  12.9471  12.9601  13.0523  15.3547  15.7567  18.4679
    18.5007  19.5146  20.4130  23.6131  23.9816  27.0394  28.1485  28.3809
    29.7235  31.6343  31.6452  32.1404  33.8474  34.6694  34.7444  34.8322
    36.2587  37.4888  38.6896  39.7377  40.5194  40.5753  42.0941  42.3083
    43.0912  43.9907  44.9152  45.1355  45.5984  46.0915  46.5234  47.2186
    47.6991  47.9125  48.1634  49.1705  50.4651  51.3541  51.8364  52.4570
    52.5056  52.6340  52.8859  53.0056  54.0182  54.2945  54.6170  56.5458
    57.1609

          k = 0.0000 0.2000 0.3103 (  1766 PWs)   bands (ev):

   -59.8134 -59.8090 -29.9977 -29.9975 -29.7527 -29.7523 -29.7273 -29.7115
    -6.2326  -5.4203  -5.1008  -5.0155   5.6646   5.8761   6.5474   6.6803
     7.1431   8.2159   8.5849   9.3707   9.4875   9.9591  10.0612  11.3189
    12.3028  13.2551  13.3176  13.4449  13.7446  14.9970  16.3598  17.5667
    17.9287  19.1517  21.5743  24.8314  25.4218  27.4856  27.9139  28.6611
    29.4611  29.8992  30.3680  31.6266  32.3756  34.6894  35.2655  36.0668
    36.5346  36.8097  39.0958  39.5350  40.1082  40.1723  40.8844  41.9070
    42.0509  42.9501  43.3386  44.7442  46.9479  47.2859  47.6570  47.7104
    48.5156  49.0138  49.5593  49.8296  51.0244  51.0650  51.3577  51.5516
    51.7091  53.1044  53.5832  54.6881  54.8499  55.4630  56.7185  57.1226
    58.1065

          k = 0.0000 0.2000 0.6207 (  1754 PWs)   bands (ev):

   -59.7992 -59.7975 -29.9850 -29.9846 -29.8992 -29.8940 -29.7206 -29.7205
    -5.6452  -5.5074  -5.1861  -5.0171   6.1575   6.3546   6.5931   7.0282
     7.5600   7.9221   8.3777   8.8037   8.9840   9.8818   9.9290  10.2420
    12.5185  13.3831  13.5605  13.8268  14.6232  14.6847  16.6138  16.6496
    18.1517  18.5904  23.6455  25.4986  26.9134  27.6357  28.0722  28.4355
    29.3226  29.4397  29.6140  29.7317  31.3710  32.0465  34.9892  35.3598
    37.1650  37.6568  38.7998  39.1259  40.3487  40.6360  41.2995  41.6209
    42.5103  43.0103  43.2435  45.4374  46.7274  47.3203  47.7643  48.0163
    48.9077  48.9404  49.5067  50.3764  50.6429  50.9450  51.5087  52.7546
    52.9313  53.5464  54.2758  55.0040  56.1042  56.2397  56.3066  57.0654
    57.6855

          k = 0.0000 0.4000 0.0000 (  1754 PWs)   bands (ev):

   -59.8202 -59.8181 -30.0034 -30.0033 -29.7749 -29.7748 -29.6113 -29.6038
    -6.2401  -5.8175  -5.0744  -4.9726   5.8120   5.9300   6.7716   6.7818
     7.2982   7.8995   7.9600   8.6769   9.5531   9.8655  10.7832  11.1480
    12.8611  13.1336  13.3043  13.4130  13.8572  14.6896  17.0335  18.1844
    18.2215  18.4645  21.6360  22.9116  24.8669  26.2168  28.0491  28.2349
    29.6255  30.9483  31.9626  32.8099  32.8979  34.2051  34.9190  36.1820
    36.4288  37.4751  38.7500  39.4062  40.3895  40.5752  40.6092  40.9834
    44.0906  44.0916  45.1167  45.6234  46.7140  46.8264  47.3742  47.3792
    48.8972  49.0573  49.7759  50.4282  50.4934  50.8273  50.9897  51.0088
    51.6678  52.0496  52.1947  52.8206  53.1096  53.5352  56.3285  56.3535
    56.4160

          k = 0.0000 0.4000 0.3103 (  1762 PWs)   bands (ev):

   -59.8120 -59.8104 -29.9961 -29.9959 -29.7566 -29.7562 -29.7207 -29.7145
    -5.9152  -5.5159  -5.2642  -5.1416   6.2166   6.2471   6.6265   6.6649
     7.5689   7.8206   8.2993   8.7677   8.8300   9.3650  10.5673  10.9501
    12.8263  13.2048  13.7390  13.8461  14.1559  14.5136  16.7689  16.9717
    18.0402  18.7432  22.6232  23.8357  26.1092  27.1791  28.1196  28.3997
    29.3876  29.4168  30.1806  31.6186  33.0569  33.9596  34.9136  36.4157
    36.6951  36.9113  38.9476  39.0043  39.9337  40.2030  41.0182  41.1865
    42.5641  44.1992  44.8529  45.6736  46.5908  47.0370  47.9134  48.3013
    48.8844  49.2225  49.6741  49.8092  50.7122  51.1825  51.3491  51.3570
    52.3025  52.9319  53.3261  54.4723  54.6127  55.3959  56.0637  56.3583
    57.3499

          k = 0.0000 0.4000 0.6207 (  1750 PWs)   bands (ev):

   -59.7987 -59.7980 -29.9898 -29.9894 -29.8930 -29.8913 -29.7205 -29.7204
    -5.7197  -5.6700  -4.9978  -4.9290   6.0914   6.1143   6.4359   6.5974
     7.8723   8.3340   8.5046   9.2268   9.3174   9.4409  10.0220  10.7774
    11.9543  12.6107  13.6649  13.8263  14.7752  14.7848  16.1420  16.2800
    18.8381  19.1060  23.9433  24.6652  26.7718  27.1855  28.0301  28.2276
    28.8477  29.2827  30.4212  30.5686  31.2694  31.8777  34.6472  35.2065
    37.4082  37.8063  38.7364  38.9352  40.9001  40.9333  41.3746  41.4482
    42.7812  43.3244  45.4615  45.6465  46.1333  46.5141  47.7104  47.7956
    48.8954  48.9970  49.5122  50.1895  50.5178  50.6448  52.3621  53.2047
    53.9284  54.1512  54.1952  54.6551  55.4287  55.8740  56.2781  57.4910
    57.5288

          k = 0.2000 0.2000 0.0000 (  1758 PWs)   bands (ev):

   -59.8213 -59.8169 -30.0104 -30.0030 -29.7750 -29.7673 -29.6155 -29.5995
    -6.5137  -5.7043  -5.0285  -4.7629   5.0045   5.9209   6.6689   6.6803
     6.7848   7.9612   9.0084   9.5367  10.1291  10.3736  10.4755  11.4444
    12.0565  12.5297  13.1295  13.3703  13.4568  15.2151  16.0622  18.2025
    18.6422  19.1472  20.9356  23.8424  23.9271  26.9907  27.3748  28.3287
    29.5704  31.2254  32.0573  33.5581  34.1005  34.5817  34.8468  34.9413
    35.3375  37.0102  38.3602  39.1065  40.3909  41.0191  41.6068  42.2980
    43.7116  43.7848  44.7876  45.5812  46.1957  46.5459  47.2586  47.3760
    47.7729  48.3253  49.0017  49.4520  50.4891  50.5281  50.7202  52.0388
    52.1500  52.2359  53.2473  53.4871  54.8136  54.9234  55.5784  55.5997
    55.7394

          k = 0.2000 0.2000 0.3103 (  1759 PWs)   bands (ev):

   -59.8130 -59.8094 -29.9993 -29.9958 -29.7566 -29.7498 -29.7253 -29.7128
    -6.1417  -5.4057  -5.2346  -5.0051   5.5595   6.2241   6.4228   6.8056
     7.3579   7.8974   8.7572   8.9181   9.4008   9.9959  10.2702  11.0714
    12.4669  12.8406  13.3818  13.8718  13.9105  14.8456  16.4770  17.3353
    18.0457  19.0078  21.9630  24.8335  25.2181  27.5976  27.8416  27.9249
    29.4236  29.7632  31.4200  31.5132  32.4739  33.9482  34.9352  36.2724
    36.6901  37.0435  38.7181  39.4207  40.1517  40.4716  41.2840  41.5763
    42.1812  43.0888  44.7353  45.0484  46.6757  46.8489  47.7268  47.7429
    48.3862  49.4527  49.5544  50.5484  50.5627  50.8358  51.0574  51.4834
    52.0546  52.5118  53.2016  53.8257  55.5929  55.7362  56.8869  57.1295
    58.2629

          k = 0.2000 0.2000 0.6207 (  1744 PWs)   bands (ev):

   -59.7990 -59.7977 -29.9895 -29.9819 -29.9010 -29.8907 -29.7207 -29.7205
    -5.7128  -5.3810  -5.3109  -4.9395   6.1424   6.3470   6.6850   6.7119
     7.2685   8.3756   8.4689   8.8086   9.1887   9.5705  10.0652  10.5214
    12.3068  13.4441  13.6243  13.7893  14.1652  14.9337  16.0830  17.3734
    17.7683  18.9153  23.6678  25.4751  25.9761  27.5554  27.8220  28.4410
    28.8763  29.5193  30.1166  30.8881  30.9693  32.5608  34.3896  35.4350
    36.9201  37.4252  38.0846  40.0878  40.7379  41.3453  41.5488  42.2573
    42.7334  42.7375  43.8439  45.7519  46.3262  46.9496  47.5728  48.3998
    48.4071  48.6419  49.3958  50.2302  50.4435  50.8568  51.7034  52.2446
    52.6866  53.7947  54.3646  55.1855  55.2396  55.8823  57.2830  57.3308
    57.6834

          k = 0.2000 0.4000 0.0000 (  1766 PWs)   bands (ev):

   -59.8200 -59.8183 -30.0085 -30.0039 -29.7746 -29.7698 -29.6106 -29.6045
    -6.2353  -5.8950  -5.0525  -4.8849   5.2798   5.8862   6.6919   6.7639
     7.4145   8.0229   8.4763   9.2778   9.6754  10.1074  10.3243  10.8973
    12.5150  12.8751  13.0098  13.3654  14.1384  14.7718  17.0029  18.1838
    18.1990  18.4785  22.0785  23.2189  24.8009  26.1007  27.2942  27.7436
    29.7624  30.6336  33.2132  33.4931  33.8033  34.4331  34.8829  35.8405
    36.2583  36.2674  37.8192  39.2230  39.7318  40.2424  40.8800  41.8248
    43.9790  44.1076  45.2294  45.6320  46.2584  46.8589  48.0746  48.3487
    48.9195  48.9686  49.2424  50.4174  50.7097  50.8441  51.2781  51.7161
    51.8983  52.1671  52.7046  53.1824  53.5206  54.3660  54.6110  55.4284
    56.5026

          k = 0.2000 0.4000 0.3103 (  1754 PWs)   bands (ev):

   -59.8119 -59.8105 -29.9986 -29.9964 -29.7564 -29.7522 -29.7207 -29.7161
    -5.9007  -5.5941  -5.2275  -5.0941   5.7815   6.2579   6.4647   6.6058
     7.8046   8.0341   8.5498   8.9027   9.1664   9.6100  10.2843  10.6430
    12.8994  13.0810  13.3926  13.8631  14.1057  14.4647  16.8555  17.3059
    18.0378  18.5499  22.8993  23.9759  25.8169  26.8807  27.7699  27.8020
    29.4965  29.6159  31.0508  31.6479  32.8642  33.5378  35.0865  36.7665
    36.8376  37.1210  38.7951  38.9227  40.1012  40.5477  41.0510  41.6682
    42.6453  43.7235  44.8683  45.4285  46.5537  47.5593  47.6209  48.3260
    48.4450  49.4356  49.5155  50.0592  50.3077  51.0136  51.2384  51.6455
    52.4537  52.6592  53.7312  53.7618  54.2581  55.0629  55.8425  56.5620
    58.0428

          k = 0.2000 0.4000 0.6207 (  1752 PWs)   bands (ev):

   -59.7986 -59.7981 -29.9898 -29.9853 -29.8972 -29.8914 -29.7208 -29.7206
    -5.7002  -5.5665  -5.1072  -4.9517   6.0799   6.2258   6.5148   6.7323
     7.3997   8.0715   8.6396   8.9315   9.3278   9.7564  10.2514  10.8603
    12.1436  12.8703  13.5978  13.7597  14.3801  14.7636  16.1928  16.8126
    18.4584  18.9782  23.9156  24.6441  25.8966  26.6663  27.8248  28.3222
    28.8985  29.4401  30.4076  30.9672  31.6579  32.7846  34.3528  35.4485
    37.1461  37.6554  38.0236  39.2262  41.2580  41.4868  41.9346  42.3807
    43.4207  44.1269  45.0611  45.6503  46.0837  46.4886  47.3390  47.8184
    48.1716  48.5602  48.8558  49.6642  50.6501  51.6464  51.9249  51.9774
    52.5366  53.3724  53.7391  54.4677  55.4958  56.0362  56.4026  57.6220
    58.2109

          k = 0.4000 0.4000 0.0000 (  1766 PWs)   bands (ev):

   -59.8194 -59.8188 -30.0121 -30.0094 -29.7694 -29.7666 -29.6087 -29.6064
    -6.1853  -6.0576  -4.9270  -4.8382   5.0184   5.2889   6.6334   6.6735
     8.0293   8.7154   8.8109   9.4905   9.9908  10.0677  10.3511  10.6922
    12.0191  12.5094  12.5447  12.8843  14.5677  14.7929  17.1617  17.6168
    18.4740  18.6341  22.9614  23.5828  24.8300  25.5901  26.7313  26.9632
    30.0832  30.5012  34.3201  34.5119  34.7551  34.9177  34.9731  35.0402
    35.2731  35.7892  37.7204  38.5557  38.7412  40.4599  41.4940  42.3125
    42.9194  44.2443  44.4917  44.6991  46.0095  46.8406  48.1894  48.8409
    49.2673  49.4357  50.5467  50.8220  51.0388  51.2497  51.4166  51.9181
    52.6228  52.6470  53.3737  53.4871  53.6225  54.3000  54.6935  55.7111
    57.4213

          k = 0.4000 0.4000 0.3103 (  1753 PWs)   bands (ev):

   -59.8114 -59.8109 -30.0007 -29.9993 -29.7521 -29.7494 -29.7206 -29.7191
    -5.8446  -5.7347  -5.1332  -5.0707   5.5792   5.7935   6.3672   6.4441
     8.4467   8.5650   8.8348   9.1438   9.5786   9.7771   9.7907  10.1755
    12.8152  13.1022  13.1969  13.3250  14.1892  14.3187  17.3073  17.5882
    18.0395  18.1750  23.5129  24.0537  25.5062  26.0718  27.6421  27.6507
    29.3816  29.5836  31.0097  31.3912  33.1609  34.0192  35.4836  36.8218
    36.9929  37.1012  39.0249  39.6454  39.9712  41.0351  41.3227  41.8004
    43.2772  43.2868  44.5834  44.5907  46.1832  46.7956  47.9379  48.0534
    48.5492  48.6732  49.1497  49.7096  50.3442  51.4109  51.8022  52.1487
    52.6226  53.1212  53.7165  54.3323  54.3707  55.1533  56.3489  56.4542
    56.8087

          k = 0.4000 0.4000 0.6207 (  1748 PWs)   bands (ev):

   -59.7984 -59.7982 -29.9855 -29.9825 -29.8998 -29.8960 -29.7210 -29.7209
    -5.5775  -5.4337  -5.2422  -5.0868   6.1803   6.4364   6.6203   6.7323
     7.1876   7.5585   8.4432   8.6584   9.6462   9.8594  10.6399  10.9016
    12.7034  13.2908  13.5490  13.6158  13.8753  14.3409  16.7925  17.5652
    17.7538  18.4596  23.8835  24.2099  25.7358  26.3855  27.0949  27.7000
    28.8287  29.0384  31.3148  31.4595  32.5576  33.0726  34.9056  35.6213
    37.4386  37.5845  37.8095  38.8431  41.3889  41.4857  43.4154  43.6737
    44.1764  44.5903  45.1209  45.8100  46.2514  46.7776  47.1743  47.4862
    47.8465  48.0887  48.4782  48.8654  49.8374  50.1352  50.1377  52.4324
    52.5417  53.1750  53.6973  54.1311  54.5232  54.7742  56.2091  56.9064
    57.5558

     the Fermi energy is    13.8567 ev

!    total energy              =    -515.56308096 Ry
     Harris-Foulkes estimate   =    -515.56307530 Ry
     estimated scf accuracy    <       0.00000090 Ry

     The total energy is the sum of the following terms:

     one-electron contribution =    -165.24608308 Ry
     hartree contribution      =     115.92003102 Ry
     xc contribution           =     -78.73997304 Ry
     ewald contribution        =    -387.49602269 Ry
     smearing contrib. (-TS)   =      -0.00103316 Ry

     total magnetization       =    -0.00 Bohr mag/cell
     absolute magnetization    =     0.00 Bohr mag/cell

     convergence has been achieved in   8 iterations

     Forces acting on atoms (Ry/au):


     negative rho (up, down):  0.722E-01 0.722E-01
     atom    1 type  1   force =     0.00000000    0.00000000    0.00000000
     atom    2 type  1   force =     0.00000000    0.00000000    0.00000000
     atom    3 type  2   force =    -0.02564431   -0.02564431   -0.00000000
     atom    4 type  2   force =     0.02564431    0.02564431    0.00000000
     atom    5 type  2   force =    -0.02564431    0.02564431   -0.00000000
     atom    6 type  2   force =     0.02564431   -0.02564431   -0.00000000

     Total force =     0.072533     Total SCF correction =     0.001059


     entering subroutine stress ...


     negative rho (up, down):  0.722E-01 0.722E-01
          total   stress  (Ry/bohr**3)                   (kbar)     P=  172.41
   0.00059370   0.00000000   0.00000000         87.34      0.00      0.00
   0.00000000   0.00059370   0.00000000          0.00     87.34      0.00
   0.00000000   0.00000000   0.00232858          0.00      0.00    342.55

     Volume is kept fixed: isostatic pressure set to zero

     BFGS Geometry Optimization

     number of scf cycles    =   1
     number of bfgs steps    =   0

     enthalpy new            =    -515.5630809580 Ry

     new trust radius        =       0.1172499277 bohr
     new conv_thr            =       0.0000010000 Ry

     new unit-cell volume =    411.08087 a.u.^3 (    60.91590 Ang^3 )

CELL_PARAMETERS (alat=  8.60823133)
   0.985746734   0.000000000   0.000000000
   0.000000000   0.985746734   0.000000000
   0.000000000   0.000000000   0.663215688

ATOMIC_POSITIONS (crystal)
Ru0      0.000000000   0.000000000   0.000000000    0   0   0
Ru0      0.500000000   0.500000000   0.500000000    0   0   0
O1       0.302020955   0.302020955   0.000000000    1   1   0
O1      -0.302020955  -0.302020955   0.000000000    1   1   0
O1       0.802020955   0.197979045   0.500000000    1   1   0
O1       0.197979045   0.802020955   0.500000000    1   1   0


     Check: negative starting charge=(component1):   -0.128101
     NEW-OLD atomic charge density approx. for the potential
     NEW k-points:
        k(    1) = (   0.0000000   0.0000000   0.0000000), wk =   0.0080000
        k(    2) = (   0.0000000   0.0000000   0.3015610), wk =   0.0160000
        k(    3) = (   0.0000000   0.0000000   0.6031220), wk =   0.0160000
        k(    4) = (   0.0000000   0.2028919   0.0000000), wk =   0.0320000
        k(    5) = (   0.0000000   0.2028919   0.3015610), wk =   0.0640000
        k(    6) = (   0.0000000   0.2028919   0.6031220), wk =   0.0640000
        k(    7) = (   0.0000000   0.4057837   0.0000000), wk =   0.0320000
        k(    8) = (   0.0000000   0.4057837   0.3015610), wk =   0.0640000
        k(    9) = (   0.0000000   0.4057837   0.6031220), wk =   0.0640000
        k(   10) = (   0.2028919   0.2028919   0.0000000), wk =   0.0320000
        k(   11) = (   0.2028919   0.2028919   0.3015610), wk =   0.0640000
        k(   12) = (   0.2028919   0.2028919   0.6031220), wk =   0.0640000
        k(   13) = (   0.2028919   0.4057837   0.0000000), wk =   0.0640000
        k(   14) = (   0.2028919   0.4057837   0.3015610), wk =   0.1280000
        k(   15) = (   0.2028919   0.4057837   0.6031220), wk =   0.1280000
        k(   16) = (   0.4057837   0.4057837   0.0000000), wk =   0.0320000
        k(   17) = (   0.4057837   0.4057837   0.3015610), wk =   0.0640000
        k(   18) = (   0.4057837   0.4057837   0.6031220), wk =   0.0640000
        k(   19) = (   0.0000000   0.0000000   0.0000000), wk =   0.0080000
        k(   20) = (   0.0000000   0.0000000   0.3015610), wk =   0.0160000
        k(   21) = (   0.0000000   0.0000000   0.6031220), wk =   0.0160000
        k(   22) = (   0.0000000   0.2028919   0.0000000), wk =   0.0320000
        k(   23) = (   0.0000000   0.2028919   0.3015610), wk =   0.0640000
        k(   24) = (   0.0000000   0.2028919   0.6031220), wk =   0.0640000
        k(   25) = (   0.0000000   0.4057837   0.0000000), wk =   0.0320000
        k(   26) = (   0.0000000   0.4057837   0.3015610), wk =   0.0640000
        k(   27) = (   0.0000000   0.4057837   0.6031220), wk =   0.0640000
        k(   28) = (   0.2028919   0.2028919   0.0000000), wk =   0.0320000
        k(   29) = (   0.2028919   0.2028919   0.3015610), wk =   0.0640000
        k(   30) = (   0.2028919   0.2028919   0.6031220), wk =   0.0640000
        k(   31) = (   0.2028919   0.4057837   0.0000000), wk =   0.0640000
        k(   32) = (   0.2028919   0.4057837   0.3015610), wk =   0.1280000
        k(   33) = (   0.2028919   0.4057837   0.6031220), wk =   0.1280000
        k(   34) = (   0.4057837   0.4057837   0.0000000), wk =   0.0320000
        k(   35) = (   0.4057837   0.4057837   0.3015610), wk =   0.0640000
        k(   36) = (   0.4057837   0.4057837   0.6031220), wk =   0.0640000

     Check: negative/imaginary core charge=   -0.000008    0.000000
     Check: negative starting charge=(component1):   -0.128785

     negative rho (up, down):  0.723E-01 0.723E-01

     total cpu time spent up to now is      216.3 secs

     per-process dynamical memory:    49.3 Mb

     Self-consistent Calculation

     iteration #  1     ecut=    40.00 Ry     beta=0.30
     Davidson diagonalization with overlap
     ethr =  1.00E-06,  avg # of iterations =  7.1

     negative rho (up, down):  0.723E-01 0.723E-01

     total cpu time spent up to now is      266.7 secs

     total energy              =    -515.57902646 Ry
     Harris-Foulkes estimate   =    -515.57944310 Ry
     estimated scf accuracy    <       0.00194057 Ry

     total magnetization       =    -0.00 Bohr mag/cell
     absolute magnetization    =     0.00 Bohr mag/cell

     iteration #  2     ecut=    40.00 Ry     beta=0.30
     Davidson diagonalization with overlap
     ethr =  3.47E-06,  avg # of iterations =  1.0

     negative rho (up, down):  0.723E-01 0.723E-01

     total cpu time spent up to now is      283.0 secs

     total energy              =    -515.57889629 Ry
     Harris-Foulkes estimate   =    -515.57908079 Ry
     estimated scf accuracy    <       0.00067623 Ry

     total magnetization       =    -0.00 Bohr mag/cell
     absolute magnetization    =     0.00 Bohr mag/cell

     iteration #  3     ecut=    40.00 Ry     beta=0.30
     Davidson diagonalization with overlap
     ethr =  1.21E-06,  avg # of iterations =  1.2

     negative rho (up, down):  0.723E-01 0.723E-01

     total cpu time spent up to now is      317.7 secs

     total energy              =    -515.57898190 Ry
     Harris-Foulkes estimate   =    -515.57896902 Ry
     estimated scf accuracy    <       0.00003645 Ry

     total magnetization       =    -0.00 Bohr mag/cell
     absolute magnetization    =     0.00 Bohr mag/cell

     iteration #  4     ecut=    40.00 Ry     beta=0.30
     Davidson diagonalization with overlap
     ethr =  6.51E-08,  avg # of iterations =  1.0

     negative rho (up, down):  0.723E-01 0.723E-01

     total cpu time spent up to now is      334.0 secs

     total energy              =    -515.57899159 Ry
     Harris-Foulkes estimate   =    -515.57898505 Ry
     estimated scf accuracy    <       0.00000785 Ry

     total magnetization       =    -0.00 Bohr mag/cell
     absolute magnetization    =     0.00 Bohr mag/cell

     iteration #  5     ecut=    40.00 Ry     beta=0.30
     Davidson diagonalization with overlap
     ethr =  1.40E-08,  avg # of iterations =  1.0

     negative rho (up, down):  0.723E-01 0.723E-01

     total cpu time spent up to now is      350.3 secs

     End of self-consistent calculation

 ------ SPIN UP ------------


          k = 0.0000 0.0000 0.0000 (  1787 PWs)   bands (ev):

   -59.8189 -59.8114 -30.0973 -30.0973 -29.6966 -29.6966 -29.6019 -29.5736
    -6.7247  -5.6400  -4.6623  -4.6623   4.9672   5.1382   6.1382   6.7884
     6.7884   9.2687   9.2687   9.4761  10.8923  11.2306  11.2306  11.8526
    12.0167  12.2434  12.4242  12.4242  12.5974  15.4468  15.6171  18.3913
    18.3913  19.8532  20.1819  23.4723  23.4723  27.4192  28.3946  28.7512
    30.2716  30.4243  31.8795  31.8795  32.6969  34.4417  36.1898  36.1898
    37.2731  37.2731  37.7977  40.0255  40.0255  40.6937  41.7274  43.0464
    43.0488  43.6247  43.9159  44.9346  44.9346  45.3579  46.1665  46.4587
    46.4587  47.8229  47.8229  49.1280  49.3390  51.5946  52.5516  52.5516
    52.8798  53.3908  54.0370  54.0370  54.2920  54.2920  55.2951  55.2999
    55.7973

          k = 0.0000 0.0000 0.3016 (  1759 PWs)   bands (ev):

   -59.8128 -59.8067 -30.0898 -30.0898 -29.6835 -29.6835 -29.6831 -29.6606
    -6.3651  -5.4502  -4.8681  -4.8681   5.3776   5.6925   6.5812   6.8303
     6.8303   8.3850   9.4008   9.7263   9.7263  10.0817  10.0817  11.3017
    12.3583  12.8049  13.0122  13.4786  13.4786  15.2360  16.1800  17.7729
    17.7729  19.3321  21.0503  24.9044  24.9044  27.5507  27.7024  29.1749
    29.6805  29.7661  31.2521  31.2521  31.2892  35.1376  36.3538  36.3538
    37.1475  37.1475  37.5905  40.0201  40.3451  40.7594  41.0411  41.0411
    42.2330  42.4510  42.4510  42.9562  46.1003  47.6408  47.6408  48.2239
    48.5353  49.1066  49.3767  49.3767  49.7751  50.9539  51.4731  51.4731
    52.7850  53.5581  53.5581  55.1162  55.4291  55.7814  56.3014  56.3014
    58.2365

          k = 0.0000 0.0000 0.6031 (  1755 PWs)   bands (ev):

   -59.8022 -59.7999 -30.0778 -30.0778 -29.8098 -29.8013 -29.6619 -29.6619
    -5.6351  -5.2585  -5.1871  -5.1871   6.0546   6.3633   7.2103   7.2103
     7.5411   7.8319   8.0539   8.7465   8.7465   9.6121  10.2815  10.2815
    13.0913  13.1695  13.5649  14.2753  14.4661  14.4661  17.0001  17.2831
    17.2831  17.6855  23.4723  25.8012  27.1529  27.1529  27.9916  28.7135
    29.4459  29.6449  29.9467  29.9467  30.2668  32.1490  35.8492  35.8492
    37.8313  37.8313  38.9766  39.4018  39.8969  40.6824  40.9462  41.3675
    41.3675  43.0131  43.0131  43.3330  46.5541  47.4668  47.4668  48.7574
    48.7574  49.9161  49.9321  50.1368  50.1368  50.2233  51.8358  53.0563
    53.0563  53.7049  53.7265  53.7928  55.6915  55.6915  57.1595  57.9451
    57.9451

          k = 0.0000 0.2029 0.0000 (  1771 PWs)   bands (ev):

   -59.8182 -59.8121 -30.0960 -30.0958 -29.6986 -29.6985 -29.5993 -29.5762
    -6.5706  -5.5995  -4.8582  -4.7567   5.2642   5.4715   6.4278   6.8251
     6.8419   8.7467   8.8752   9.3466  10.2918  10.3566  10.8622  11.6848
    12.4104  12.7603  12.8259  12.9490  13.0002  15.3190  15.9800  18.1745
    18.2203  19.6939  20.5146  23.4718  23.8116  27.3251  27.9470  28.5107
    29.9833  30.8691  31.8363  32.5329  33.1413  34.3169  34.8866  35.0627
    36.7883  37.8801  38.2006  39.6646  40.1106  40.9772  41.8564  42.5480
    43.0321  43.8992  44.7083  44.7307  45.0277  45.6015  46.9320  47.4750
    47.6761  48.1109  48.5321  49.3216  49.4071  50.6936  51.8359  52.3722
    52.4211  52.6541  52.8811  53.2494  53.9070  54.6148  54.8745  56.2659
    57.8616

          k = 0.0000 0.2029 0.3016 (  1766 PWs)   bands (ev):

   -59.8122 -59.8073 -30.0893 -30.0892 -29.6879 -29.6866 -29.6775 -29.6607
    -6.2371  -5.4049  -5.0281  -4.9339   5.6390   5.8977   6.5937   6.8239
     7.2220   8.1637   8.6520   9.3630   9.4792  10.1076  10.2242  11.3765
    12.2526  13.2173  13.2628  13.3564  13.7457  15.0163  16.5470  17.3613
    17.6408  19.3280  21.5066  24.6616  25.1581  27.6426  27.7037  28.7252
    29.5836  29.7364  30.5446  31.3628  32.6571  34.8806  35.1301  35.5433
    36.7357  37.2865  38.9859  39.7209  39.8422  40.2114  40.8540  41.6591
    42.1570  42.9259  43.4027  44.8085  46.9760  47.0600  47.9608  48.1990
    48.3186  48.4963  48.9056  49.5330  50.8978  50.8982  51.2311  51.5632
    51.8959  53.3025  53.8996  54.9950  55.0158  55.2642  56.1271  56.7197
    57.7513

          k = 0.0000 0.2029 0.6031 (  1754 PWs)   bands (ev):

   -59.8020 -59.8001 -30.0791 -30.0790 -29.8081 -29.8015 -29.6618 -29.6616
    -5.6685  -5.4481  -5.1097  -5.0233   6.0941   6.3395   6.6209   7.0321
     7.7585   7.9197   8.4424   8.8567   9.1215   9.9004  10.0749  10.1468
    12.7578  13.2320  13.5819  13.6150  14.6162  14.7083  16.4897  16.5982
    17.9289  18.5359  23.5472  25.4414  26.8241  27.3050  28.0435  28.3421
    29.3867  29.6276  29.7375  29.7966  31.6291  32.0976  35.2584  35.5444
    37.2479  37.7628  38.7240  39.3946  40.7697  40.8865  40.9817  41.2899
    42.4590  42.6478  43.4945  44.2495  47.0528  47.3491  47.7450  48.2672
    48.5641  48.6370  49.5058  50.1051  50.3444  50.7694  51.5077  52.7964
    52.9111  53.6223  54.2782  54.6724  56.1161  56.1667  56.4226  56.9345
    57.6864

          k = 0.0000 0.4058 0.0000 (  1754 PWs)   bands (ev):

   -59.8163 -59.8139 -30.0937 -30.0936 -29.7017 -29.7016 -29.5922 -29.5833
    -6.1552  -5.6769  -5.1262  -4.9755   5.9858   6.1372   6.9030   6.9222
     7.3346   7.8736   7.9189   8.7615   9.2791   9.6364  10.8727  11.2634
    12.9223  13.1750  13.3595  13.5034  13.7189  14.6019  17.2818  17.8272
    17.8811  18.6874  21.7229  22.9303  24.8348  26.2894  28.0897  28.3360
    29.8464  31.1875  32.0046  32.0942  32.9615  33.5756  34.2752  35.8715
    36.5413  37.8277  38.9565  39.6365  40.2620  40.4137  40.6740  41.0068
    44.1563  44.5092  44.6308  45.0573  46.7289  46.9309  47.0005  47.8748
    48.2834  49.5191  49.6310  50.0043  50.3368  50.7930  50.9977  51.6139
    51.7029  51.9685  52.2412  52.2626  53.5816  54.0662  56.0883  57.1678
    57.3710

          k = 0.0000 0.4058 0.3016 (  1762 PWs)   bands (ev):

   -59.8107 -59.8088 -30.0885 -30.0884 -29.6912 -29.6909 -29.6700 -29.6634
    -5.8903  -5.4378  -5.2656  -5.0937   6.2828   6.3498   6.7828   6.7953
     7.5603   7.7948   8.2780   8.6852   8.7448   9.4647  10.7539  11.1078
    12.7406  13.1167  13.6345  13.7575  14.1930  14.5210  16.8131  16.8196
    17.9420  18.8302  22.6257  23.8192  25.9803  27.1011  28.1764  28.4572
    29.2082  29.3842  30.3400  31.6793  32.8266  33.6651  35.1001  35.9999
    36.6410  37.3154  38.9363  38.9872  39.6878  40.1232  41.0688  41.3762
    42.5663  44.3792  45.0756  45.6967  46.4329  46.7976  47.9199  48.1821
    48.3479  49.0738  49.6997  49.7930  50.9043  51.1318  51.3368  51.4373
    52.5963  53.0964  53.3696  54.5996  54.6228  55.3113  56.0211  56.2502
    57.2198

          k = 0.0000 0.4058 0.6031 (  1750 PWs)   bands (ev):

   -59.8014 -59.8007 -30.0812 -30.0811 -29.8048 -29.8024 -29.6613 -29.6612
    -5.6871  -5.6156  -4.9822  -4.9352   6.1086   6.1480   6.4762   6.6486
     7.9106   8.3628   8.5101   9.2707   9.4220   9.4726  10.1954  10.7798
    12.0739  12.6276  13.4711  13.5890  14.7864  14.8008  16.0077  16.1557
    18.7532  19.0608  23.9285  24.6712  26.6616  27.0349  27.9767  28.2568
    28.8770  29.3085  30.4462  30.5643  31.3978  32.0512  34.9790  35.4813
    37.3236  37.7336  38.6338  38.9463  40.8435  40.9554  41.7359  41.8247
    42.2141  42.9342  45.4718  45.5411  45.9978  46.0276  47.5887  47.6015
    48.8038  48.8881  49.4784  50.1223  50.4274  50.9557  51.6556  53.1664
    53.8971  54.2623  54.4728  54.5655  55.7083  56.2300  56.3825  57.5065
    57.6402

          k = 0.2029 0.2029 0.0000 (  1758 PWs)   bands (ev):

   -59.8175 -59.8126 -30.0982 -30.0933 -29.7017 -29.6965 -29.5971 -29.5783
    -6.4596  -5.5841  -5.0631  -4.7167   5.0454   6.1272   6.6862   6.7590
     6.9248   7.9283   9.1413   9.2670  10.1789  10.3656  10.5527  11.4999
    12.1711  12.4369  13.1669  13.2985  13.4481  15.1667  16.2687  17.8526
    18.3863  19.3500  21.0339  23.7168  23.8695  27.2295  27.3577  28.2651
    29.7802  31.3083  31.5624  33.4205  33.7433  34.2963  34.7912  35.1237
    35.7457  37.3838  37.7970  38.7484  40.4977  41.1956  41.3294  42.8071
    43.5043  43.8029  44.3373  45.5048  46.0206  46.5970  46.9860  47.6830
    48.0346  48.1451  49.2340  49.3936  49.8184  50.7027  50.9357  50.9509
    52.0769  52.5708  53.4296  53.8428  54.3128  54.7981  55.1510  56.4003
    56.4628

          k = 0.2029 0.2029 0.3016 (  1759 PWs)   bands (ev):

   -59.8117 -59.8077 -30.0905 -30.0882 -29.6916 -29.6835 -29.6760 -29.6620
    -6.1405  -5.3571  -5.2110  -4.9164   5.5202   6.3150   6.4957   6.9943
     7.3865   7.8158   8.7057   8.9431   9.5040  10.0110  10.4627  11.2377
    12.2995  12.7977  13.3179  13.8680  13.8726  14.8582  16.6117  17.1721
    17.7736  19.1554  21.9376  24.7260  25.0706  27.5826  27.6174  27.9970
    29.6148  29.6302  31.2570  31.7085  32.5467  33.7991  35.1703  35.8979
    36.8501  37.1387  38.5681  39.3157  40.3185  40.5072  41.0981  41.3076
    42.2295  43.3642  44.8608  44.9164  46.7306  47.0924  47.4237  48.0530
    48.1895  49.1518  49.3020  50.1861  50.5960  50.7939  51.3725  51.6022
    51.8475  52.3751  53.5063  53.9093  55.0969  56.0616  56.6650  57.2884
    57.9169

          k = 0.2029 0.2029 0.6031 (  1744 PWs)   bands (ev):

   -59.8018 -59.8002 -30.0810 -30.0782 -29.8081 -29.8009 -29.6622 -29.6612
    -5.6922  -5.3802  -5.2270  -4.9407   6.1326   6.3607   6.6030   6.7323
     7.4246   8.4864   8.5519   8.8002   9.1923   9.8569  10.0734  10.4246
    12.5256  13.2790  13.5579  13.7679  14.0512  14.9654  15.9755  17.2738
    17.6107  18.8345  23.6117  25.4203  25.9854  27.3748  27.5813  28.4967
    28.7990  29.5000  30.2671  31.0191  31.2225  32.8026  34.6269  35.3861
    36.9490  37.5994  38.1838  40.2103  40.4008  41.5310  41.7034  42.0894
    42.3988  42.7786  44.0288  44.7495  46.6164  46.9544  47.6887  48.0957
    48.4652  48.5903  49.2316  50.1330  50.1920  50.5106  51.5457  52.3416
    52.8787  53.9322  54.5022  54.8137  55.2923  55.8415  56.8702  57.3861
    57.8140

          k = 0.2029 0.4058 0.0000 (  1766 PWs)   bands (ev):

   -59.8160 -59.8142 -30.0971 -30.0941 -29.7016 -29.6984 -29.5913 -29.5842
    -6.1606  -5.7798  -5.0840  -4.8632   5.3546   6.0742   6.7912   6.8942
     7.4394   8.0225   8.5362   9.4075   9.4248   9.9342  10.3871  10.9560
    12.6021  12.8531  13.0637  13.4413  14.0214  14.6921  17.2124  17.8496
    18.1918  18.4008  22.1615  23.2422  24.8253  26.1654  27.3814  27.7647
    29.8763  30.8258  32.5077  33.6056  33.8089  33.9384  34.2478  35.6874
    36.0171  36.4398  38.1934  38.8511  39.9002  40.1516  41.0436  41.9961
    44.1973  44.5545  44.7806  45.6777  45.8802  47.1135  47.2574  48.1048
    49.1065  49.3310  49.8130  49.9264  50.3976  50.8173  51.1217  51.6252
    51.8189  52.4262  52.8134  53.2706  53.5516  54.9490  55.3980  56.1657
    56.2145

          k = 0.2029 0.4058 0.3016 (  1754 PWs)   bands (ev):

   -59.8105 -59.8090 -30.0902 -30.0888 -29.6912 -29.6868 -29.6705 -29.6654
    -5.8831  -5.5464  -5.2032  -5.0265   5.7746   6.3402   6.5658   6.7536
     7.7715   8.0433   8.5623   8.8557   9.2065   9.6596  10.4325  10.8047
    12.7849  12.9979  13.3461  13.7995  14.1165  14.4663  16.8183  17.2871
    17.8788  18.6117  22.9123  23.9741  25.7878  26.9169  27.5455  27.6544
    29.6204  29.7001  30.9690  31.6275  32.7015  33.5553  35.0556  36.4838
    36.8311  37.1886  38.7397  38.7727  39.9812  40.7120  40.9669  41.7157
    42.7854  43.9428  44.7167  45.4090  46.7124  47.1967  47.5779  47.7615
    48.9549  49.4073  49.6811  50.1808  50.4779  50.8812  51.4049  51.7037
    52.4518  52.7352  53.5532  53.7323  54.2212  55.0570  56.3063  56.6136
    57.8746

          k = 0.2029 0.4058 0.6031 (  1752 PWs)   bands (ev):

   -59.8013 -59.8007 -30.0813 -30.0797 -29.8059 -29.8023 -29.6620 -29.6614
    -5.6546  -5.5182  -5.0956  -4.9561   6.1110   6.2332   6.5433   6.6639
     7.5048   8.1464   8.7690   9.0201   9.3016   9.7537  10.4359  10.8914
    12.2577  12.9038  13.4108  13.5450  14.3722  14.7823  16.0582  16.6548
    18.3900  18.9079  23.9196  24.6600  25.8460  26.6051  27.7179  28.2111
    28.8208  29.5057  30.4100  31.0816  31.7964  32.9486  34.6517  35.6459
    37.0264  37.6852  38.0696  39.1747  41.2455  41.3775  41.9811  42.1929
    43.3681  44.0702  44.9073  45.0894  46.2815  46.2897  47.2707  47.5694
    48.0943  48.5300  49.1482  50.1672  50.5781  51.5207  51.7048  51.9332
    52.4221  53.3580  53.9501  54.2890  55.3149  56.1196  56.3456  57.7055
    57.9095

          k = 0.4058 0.4058 0.0000 (  1766 PWs)   bands (ev):

   -59.8154 -59.8147 -30.0997 -30.0979 -29.6983 -29.6963 -29.5891 -29.5864
    -6.1196  -5.9795  -4.9119  -4.8012   5.0547   5.3598   6.7111   6.7659
     8.0897   8.8223   8.9275   9.6635   9.8949   9.9793  10.2352  10.6947
    12.1304  12.4595  12.5947  12.8667  14.4764  14.7134  17.3355  17.8063
    18.1867  18.3773  23.0253  23.6027  24.9471  25.6652  26.7735  26.9682
    30.1731  30.6793  33.6316  34.1399  34.3044  34.3725  34.9202  35.1549
    35.2835  35.6247  37.3561  38.1740  39.1162  40.8579  41.6401  42.4025
    43.4751  44.7698  45.1032  45.1366  45.5706  46.4874  47.1079  47.8289
    49.8393  49.9831  49.9884  50.2114  50.8137  51.2414  51.7995  52.4063
    52.4905  52.6696  53.5462  53.8616  53.9399  54.4233  55.0780  56.2838
    57.3742

          k = 0.4058 0.4058 0.3016 (  1753 PWs)   bands (ev):

   -59.8100 -59.8094 -30.0918 -30.0909 -29.6870 -29.6835 -29.6715 -29.6693
    -5.8341  -5.7157  -5.0719  -4.9917   5.5380   5.7834   6.4562   6.5493
     8.4656   8.6164   8.8917   9.2126   9.6254   9.8451   9.8828  10.2674
    12.7716  13.0012  13.1542  13.2853  14.1811  14.3087  17.3139  17.6990
    17.7660  18.1333  23.5312  24.0659  25.5551  26.1299  27.3634  27.3805
    29.5226  29.7750  30.8286  31.2155  33.2552  34.2146  35.2134  36.6665
    36.7639  36.8551  38.9270  39.5336  40.0457  41.1187  41.5044  41.7317
    43.3151  43.4449  44.4591  44.8148  46.3618  46.8357  47.6220  47.7086
    48.1609  48.7560  49.6129  50.3069  50.7387  51.5176  51.7874  52.3345
    52.5348  53.3719  53.4525  53.9202  54.6230  54.7074  56.3126  56.5151
    56.9692

          k = 0.4058 0.4058 0.6031 (  1748 PWs)   bands (ev):

   -59.8011 -59.8009 -30.0800 -30.0790 -29.8060 -29.8039 -29.6626 -29.6622
    -5.5190  -5.3288  -5.2899  -5.0942   6.1939   6.4447   6.4690   6.6265
     7.3557   7.7155   8.6581   8.8230   9.5686   9.8052  10.8089  11.0141
    12.7957  13.3599  13.4239  13.4451  13.7765  14.3485  16.6300  17.2568
    17.8166  18.3796  23.8710  24.1862  25.7635  26.5289  26.9619  27.6696
    28.5877  28.8694  31.3781  31.5253  32.7467  33.2344  35.1335  35.7547
    37.2757  37.7882  37.9647  38.7825  41.4941  41.6124  42.5936  43.0453
    43.9365  44.2590  45.1299  45.7909  46.3374  46.9502  46.9796  47.8258
    47.8264  48.2124  48.7188  49.2952  49.8706  50.6585  50.8573  52.3243
    52.5628  53.0759  53.1181  53.6278  54.1263  54.9195  55.5925  56.2090
    57.6879

 ------ SPIN DOWN ----------


          k = 0.0000 0.0000 0.0000 (  1787 PWs)   bands (ev):

   -59.8189 -59.8114 -30.0973 -30.0973 -29.6966 -29.6966 -29.6019 -29.5736
    -6.7247  -5.6400  -4.6623  -4.6623   4.9672   5.1382   6.1382   6.7884
     6.7884   9.2687   9.2687   9.4761  10.8923  11.2306  11.2306  11.8526
    12.0167  12.2434  12.4242  12.4242  12.5974  15.4468  15.6171  18.3912
    18.3912  19.8532  20.1819  23.4723  23.4723  27.4192  28.3946  28.7512
    30.2716  30.4243  31.8795  31.8795  32.6969  34.4417  36.1898  36.1898
    37.2731  37.2731  37.7977  40.0255  40.0255  40.6937  41.7274  43.0464
    43.0488  43.6247  43.9159  44.9346  44.9346  45.3579  46.1665  46.4587
    46.4587  47.8229  47.8229  49.1280  49.3390  51.5946  52.5516  52.5516
    52.8797  53.3908  54.0370  54.0370  54.2919  54.2919  55.2951  55.2999
    55.7973

          k = 0.0000 0.0000 0.3016 (  1759 PWs)   bands (ev):

   -59.8128 -59.8067 -30.0898 -30.0898 -29.6835 -29.6835 -29.6831 -29.6606
    -6.3651  -5.4502  -4.8681  -4.8681   5.3776   5.6925   6.5812   6.8303
     6.8303   8.3850   9.4008   9.7263   9.7263  10.0817  10.0817  11.3017
    12.3583  12.8049  13.0122  13.4786  13.4786  15.2360  16.1800  17.7729
    17.7729  19.3321  21.0503  24.9044  24.9044  27.5507  27.7024  29.1749
    29.6805  29.7661  31.2521  31.2521  31.2892  35.1376  36.3538  36.3538
    37.1475  37.1475  37.5905  40.0201  40.3451  40.7594  41.0411  41.0411
    42.2330  42.4510  42.4510  42.9562  46.1003  47.6408  47.6408  48.2239
    48.5353  49.1066  49.3767  49.3767  49.7751  50.9539  51.4731  51.4731
    52.7850  53.5581  53.5581  55.1162  55.4291  55.7813  56.3014  56.3014
    58.2365

          k = 0.0000 0.0000 0.6031 (  1755 PWs)   bands (ev):

   -59.8022 -59.7999 -30.0779 -30.0779 -29.8098 -29.8013 -29.6620 -29.6620
    -5.6351  -5.2585  -5.1871  -5.1871   6.0546   6.3633   7.2103   7.2103
     7.5411   7.8319   8.0539   8.7465   8.7465   9.6121  10.2815  10.2815
    13.0913  13.1694  13.5649  14.2752  14.4661  14.4661  17.0001  17.2831
    17.2831  17.6855  23.4723  25.8012  27.1529  27.1529  27.9916  28.7135
    29.4459  29.6449  29.9467  29.9467  30.2668  32.1490  35.8492  35.8492
    37.8313  37.8313  38.9765  39.4018  39.8969  40.6824  40.9462  41.3675
    41.3675  43.0130  43.0130  43.3330  46.5541  47.4668  47.4668  48.7574
    48.7574  49.9161  49.9321  50.1368  50.1368  50.2233  51.8358  53.0563
    53.0563  53.7049  53.7265  53.7928  55.6915  55.6915  57.1595  57.9180
    57.9451

          k = 0.0000 0.2029 0.0000 (  1771 PWs)   bands (ev):

   -59.8182 -59.8121 -30.0960 -30.0959 -29.6986 -29.6986 -29.5993 -29.5762
    -6.5706  -5.5995  -4.8582  -4.7567   5.2642   5.4715   6.4278   6.8251
     6.8419   8.7467   8.8752   9.3466  10.2918  10.3566  10.8622  11.6848
    12.4104  12.7603  12.8259  12.9490  13.0001  15.3190  15.9800  18.1745
    18.2203  19.6939  20.5146  23.4718  23.8116  27.3251  27.9470  28.5107
    29.9833  30.8691  31.8363  32.5329  33.1412  34.3169  34.8866  35.0627
    36.7882  37.8801  38.2006  39.6646  40.1106  40.9772  41.8564  42.5480
    43.0321  43.8992  44.7083  44.7307  45.0277  45.6015  46.9320  47.4750
    47.6761  48.1109  48.5321  49.3216  49.4071  50.6936  51.8359  52.3722
    52.4211  52.6541  52.8811  53.2494  53.9070  54.6148  54.8745  56.2659
    57.8616

          k = 0.0000 0.2029 0.3016 (  1766 PWs)   bands (ev):

   -59.8122 -59.8073 -30.0893 -30.0892 -29.6879 -29.6866 -29.6775 -29.6607
    -6.2371  -5.4049  -5.0281  -4.9339   5.6390   5.8977   6.5937   6.8239
     7.2220   8.1637   8.6519   9.3630   9.4792  10.1076  10.2242  11.3765
    12.2526  13.2173  13.2628  13.3564  13.7457  15.0163  16.5470  17.3613
    17.6408  19.3280  21.5066  24.6616  25.1581  27.6426  27.7037  28.7252
    29.5836  29.7364  30.5446  31.3628  32.6571  34.8806  35.1301  35.5433
    36.7357  37.2865  38.9859  39.7209  39.8422  40.2114  40.8540  41.6591
    42.1570  42.9259  43.4027  44.8085  46.9760  47.0600  47.9608  48.1990
    48.3186  48.4963  48.9056  49.5330  50.8978  50.8982  51.2311  51.5632
    51.8959  53.3025  53.8996  54.9950  55.0158  55.2642  56.1270  56.7196
    57.7513

          k = 0.0000 0.2029 0.6031 (  1754 PWs)   bands (ev):

   -59.8020 -59.8001 -30.0791 -30.0790 -29.8081 -29.8015 -29.6618 -29.6617
    -5.6685  -5.4481  -5.1097  -5.0233   6.0941   6.3395   6.6209   7.0321
     7.7585   7.9197   8.4424   8.8567   9.1215   9.9004  10.0749  10.1468
    12.7578  13.2320  13.5818  13.6150  14.6162  14.7083  16.4897  16.5982
    17.9289  18.5358  23.5472  25.4414  26.8241  27.3050  28.0435  28.3421
    29.3867  29.6276  29.7375  29.7966  31.6291  32.0976  35.2584  35.5444
    37.2479  37.7628  38.7240  39.3946  40.7697  40.8865  40.9817  41.2898
    42.4589  42.6478  43.4945  44.2495  47.0528  47.3491  47.7450  48.2672
    48.5641  48.6370  49.5058  50.1051  50.3444  50.7694  51.5077  52.7963
    52.9111  53.6223  54.2781  54.6724  56.1161  56.1667  56.4226  56.9345
    57.6864

          k = 0.0000 0.4058 0.0000 (  1754 PWs)   bands (ev):

   -59.8163 -59.8139 -30.0937 -30.0936 -29.7017 -29.7016 -29.5922 -29.5833
    -6.1552  -5.6769  -5.1262  -4.9755   5.9858   6.1372   6.9029   6.9222
     7.3346   7.8736   7.9189   8.7615   9.2791   9.6364  10.8727  11.2634
    12.9223  13.1750  13.3595  13.5033  13.7189  14.6019  17.2818  17.8272
    17.8811  18.6874  21.7229  22.9303  24.8348  26.2894  28.0897  28.3360
    29.8464  31.1875  32.0046  32.0942  32.9615  33.5756  34.2752  35.8715
    36.5412  37.8277  38.9565  39.6365  40.2620  40.4137  40.6740  41.0068
    44.1563  44.5092  44.6308  45.0573  46.7289  46.9309  47.0005  47.8748
    48.2834  49.5191  49.6310  50.0043  50.3368  50.7930  50.9977  51.6139
    51.7029  51.9685  52.2412  52.2626  53.5816  54.0662  56.0883  57.1678
    57.3710

          k = 0.0000 0.4058 0.3016 (  1762 PWs)   bands (ev):

   -59.8107 -59.8088 -30.0885 -30.0884 -29.6912 -29.6909 -29.6700 -29.6635
    -5.8903  -5.4378  -5.2656  -5.0937   6.2828   6.3498   6.7828   6.7953
     7.5603   7.7948   8.2780   8.6852   8.7448   9.4647  10.7539  11.1078
    12.7406  13.1167  13.6345  13.7575  14.1930  14.5210  16.8131  16.8196
    17.9420  18.8302  22.6257  23.8192  25.9803  27.1011  28.1764  28.4572
    29.2082  29.3842  30.3400  31.6793  32.8266  33.6651  35.1001  35.9999
    36.6410  37.3154  38.9363  38.9872  39.6878  40.1232  41.0688  41.3762
    42.5663  44.3792  45.0756  45.6967  46.4329  46.7976  47.9199  48.1821
    48.3479  49.0738  49.6997  49.7930  50.9043  51.1317  51.3368  51.4373
    52.5963  53.0964  53.3696  54.5995  54.6227  55.3113  56.0211  56.2502
    57.2198

          k = 0.0000 0.4058 0.6031 (  1750 PWs)   bands (ev):

   -59.8014 -59.8007 -30.0812 -30.0811 -29.8048 -29.8024 -29.6613 -29.6612
    -5.6871  -5.6156  -4.9822  -4.9352   6.1086   6.1480   6.4762   6.6486
     7.9106   8.3628   8.5101   9.2707   9.4219   9.4726  10.1954  10.7798
    12.0739  12.6276  13.4711  13.5890  14.7864  14.8007  16.0077  16.1557
    18.7532  19.0608  23.9285  24.6712  26.6616  27.0349  27.9767  28.2568
    28.8770  29.3085  30.4462  30.5643  31.3978  32.0512  34.9790  35.4813
    37.3236  37.7336  38.6338  38.9463  40.8435  40.9554  41.7359  41.8247
    42.2141  42.9342  45.4718  45.5411  45.9978  46.0276  47.5887  47.6015
    48.8038  48.8881  49.4784  50.1223  50.4274  50.9557  51.6556  53.1664
    53.8971  54.2623  54.4728  54.5655  55.7083  56.2300  56.3825  57.5065
    57.6402

          k = 0.2029 0.2029 0.0000 (  1758 PWs)   bands (ev):

   -59.8176 -59.8126 -30.0982 -30.0933 -29.7017 -29.6965 -29.5971 -29.5783
    -6.4596  -5.5841  -5.0631  -4.7167   5.0454   6.1272   6.6862   6.7590
     6.9248   7.9283   9.1413   9.2670  10.1789  10.3656  10.5527  11.4999
    12.1711  12.4369  13.1668  13.2985  13.4481  15.1667  16.2687  17.8526
    18.3863  19.3500  21.0338  23.7168  23.8695  27.2295  27.3577  28.2651
    29.7802  31.3083  31.5624  33.4205  33.7433  34.2963  34.7912  35.1237
    35.7457  37.3838  37.7970  38.7484  40.4977  41.1956  41.3294  42.8071
    43.5043  43.8029  44.3373  45.5048  46.0206  46.5970  46.9859  47.6830
    48.0346  48.1451  49.2340  49.3936  49.8184  50.7027  50.9357  50.9509
    52.0769  52.5708  53.4296  53.8428  54.3127  54.7981  55.1510  56.4003
    56.4628

          k = 0.2029 0.2029 0.3016 (  1759 PWs)   bands (ev):

   -59.8117 -59.8077 -30.0905 -30.0882 -29.6916 -29.6835 -29.6760 -29.6620
    -6.1405  -5.3571  -5.2110  -4.9164   5.5202   6.3150   6.4957   6.9943
     7.3865   7.8158   8.7057   8.9431   9.5040  10.0110  10.4627  11.2377
    12.2995  12.7976  13.3179  13.8680  13.8725  14.8582  16.6117  17.1721
    17.7736  19.1554  21.9376  24.7260  25.0706  27.5826  27.6174  27.9970
    29.6147  29.6302  31.2570  31.7085  32.5467  33.7991  35.1703  35.8979
    36.8501  37.1387  38.5681  39.3157  40.3185  40.5072  41.0981  41.3076
    42.2295  43.3642  44.8608  44.9164  46.7306  47.0924  47.4237  48.0530
    48.1895  49.1518  49.3020  50.1861  50.5960  50.7939  51.3725  51.6022
    51.8475  52.3751  53.5063  53.9093  55.0969  56.0616  56.6650  57.2884
    57.9169

          k = 0.2029 0.2029 0.6031 (  1744 PWs)   bands (ev):

   -59.8018 -59.8003 -30.0810 -30.0782 -29.8081 -29.8009 -29.6622 -29.6612
    -5.6922  -5.3802  -5.2270  -4.9407   6.1325   6.3607   6.6030   6.7323
     7.4246   8.4864   8.5519   8.8002   9.1923   9.8569  10.0734  10.4246
    12.5256  13.2790  13.5578  13.7679  14.0512  14.9654  15.9755  17.2738
    17.6107  18.8345  23.6117  25.4203  25.9854  27.3748  27.5813  28.4967
    28.7990  29.5000  30.2671  31.0191  31.2225  32.8026  34.6269  35.3861
    36.9490  37.5994  38.1838  40.2103  40.4008  41.5310  41.7034  42.0894
    42.3988  42.7786  44.0288  44.7495  46.6164  46.9544  47.6887  48.0957
    48.4652  48.5903  49.2316  50.1330  50.1920  50.5106  51.5457  52.3416
    52.8787  53.9322  54.5022  54.8137  55.2923  55.8415  56.8702  57.3861
    57.8140

          k = 0.2029 0.4058 0.0000 (  1766 PWs)   bands (ev):

   -59.8161 -59.8142 -30.0971 -30.0941 -29.7016 -29.6984 -29.5914 -29.5842
    -6.1606  -5.7798  -5.0840  -4.8632   5.3546   6.0742   6.7912   6.8942
     7.4394   8.0225   8.5362   9.4075   9.4248   9.9342  10.3871  10.9560
    12.6021  12.8531  13.0636  13.4413  14.0214  14.6921  17.2123  17.8496
    18.1918  18.4008  22.1615  23.2422  24.8253  26.1654  27.3814  27.7647
    29.8763  30.8258  32.5077  33.6056  33.8089  33.9384  34.2478  35.6874
    36.0171  36.4398  38.1934  38.8511  39.9002  40.1516  41.0436  41.9961
    44.1973  44.5545  44.7806  45.6777  45.8802  47.1135  47.2574  48.1048
    49.1065  49.3310  49.8130  49.9264  50.3976  50.8173  51.1216  51.6252
    51.8189  52.4262  52.8134  53.2706  53.5516  54.9490  55.3980  56.1657
    56.2144

          k = 0.2029 0.4058 0.3016 (  1754 PWs)   bands (ev):

   -59.8105 -59.8090 -30.0903 -30.0888 -29.6913 -29.6868 -29.6705 -29.6654
    -5.8831  -5.5464  -5.2032  -5.0265   5.7746   6.3402   6.5658   6.7536
     7.7715   8.0433   8.5623   8.8557   9.2065   9.6596  10.4325  10.8047
    12.7849  12.9979  13.3461  13.7995  14.1165  14.4662  16.8183  17.2870
    17.8788  18.6117  22.9123  23.9741  25.7878  26.9169  27.5455  27.6544
    29.6204  29.7001  30.9690  31.6275  32.7015  33.5553  35.0556  36.4838
    36.8311  37.1886  38.7397  38.7727  39.9812  40.7120  40.9669  41.7157
    42.7854  43.9428  44.7167  45.4090  46.7124  47.1967  47.5779  47.7615
    48.9549  49.4073  49.6811  50.1808  50.4779  50.8812  51.4049  51.7037
    52.4517  52.7352  53.5532  53.7323  54.2212  55.0570  56.3063  56.6136
    57.8746

          k = 0.2029 0.4058 0.6031 (  1752 PWs)   bands (ev):

   -59.8013 -59.8007 -30.0814 -30.0797 -29.8059 -29.8023 -29.6620 -29.6614
    -5.6546  -5.5182  -5.0957  -4.9561   6.1110   6.2332   6.5433   6.6639
     7.5048   8.1464   8.7690   9.0201   9.3016   9.7537  10.4359  10.8914
    12.2577  12.9038  13.4108  13.5450  14.3722  14.7823  16.0582  16.6548
    18.3899  18.9079  23.9196  24.6600  25.8460  26.6051  27.7179  28.2111
    28.8208  29.5056  30.4100  31.0816  31.7964  32.9486  34.6517  35.6459
    37.0264  37.6852  38.0696  39.1747  41.2455  41.3775  41.9811  42.1929
    43.3681  44.0702  44.9073  45.0894  46.2815  46.2897  47.2707  47.5694
    48.0943  48.5300  49.1482  50.1672  50.5781  51.5207  51.7047  51.9332
    52.4221  53.3580  53.9501  54.2890  55.3149  56.1196  56.3456  57.7055
    57.9095

          k = 0.4058 0.4058 0.0000 (  1766 PWs)   bands (ev):

   -59.8154 -59.8147 -30.0997 -30.0979 -29.6983 -29.6963 -29.5891 -29.5864
    -6.1196  -5.9795  -4.9119  -4.8012   5.0547   5.3598   6.7111   6.7659
     8.0897   8.8223   8.9275   9.6635   9.8949   9.9793  10.2352  10.6947
    12.1304  12.4595  12.5947  12.8667  14.4764  14.7134  17.3355  17.8063
    18.1867  18.3773  23.0253  23.6027  24.9471  25.6652  26.7735  26.9682
    30.1731  30.6793  33.6316  34.1399  34.3044  34.3725  34.9202  35.1549
    35.2835  35.6246  37.3561  38.1740  39.1162  40.8579  41.6401  42.4025
    43.4751  44.7698  45.1032  45.1366  45.5706  46.4874  47.1079  47.8289
    49.8393  49.9831  49.9884  50.2114  50.8137  51.2414  51.7995  52.4063
    52.4905  52.6695  53.5462  53.8616  53.9399  54.4233  55.0780  56.2838
    57.3742

          k = 0.4058 0.4058 0.3016 (  1753 PWs)   bands (ev):

   -59.8100 -59.8094 -30.0918 -30.0909 -29.6870 -29.6835 -29.6715 -29.6693
    -5.8341  -5.7157  -5.0719  -4.9917   5.5380   5.7834   6.4562   6.5493
     8.4656   8.6164   8.8917   9.2126   9.6254   9.8451   9.8828  10.2674
    12.7716  13.0012  13.1542  13.2853  14.1811  14.3087  17.3139  17.6990
    17.7660  18.1332  23.5312  24.0659  25.5551  26.1299  27.3633  27.3805
    29.5226  29.7750  30.8286  31.2155  33.2552  34.2146  35.2134  36.6665
    36.7639  36.8551  38.9270  39.5336  40.0457  41.1187  41.5044  41.7317
[...]
    29.5846  29.7505  30.6961  31.1571  33.4390  34.4850  35.0917  36.5931
    36.7852  36.8690  38.7870  39.3780  40.1670  41.1272  41.3437  41.4753
    43.1161  43.4457  44.4944  45.3738  46.3092  46.7637  47.3795  47.5128
    48.1926  48.7834  49.8229  50.2673  50.8179  51.7833  51.8836  52.5874
    52.8101  53.2607  53.6941  53.7519  54.6898  54.7005  56.3314  56.5038
    56.7874

          k = 0.4105 0.4105 0.5895 (  1749 PWs)   bands (ev):

   -59.8115 -59.8113 -30.0826 -30.0812 -29.8319 -29.8297 -29.6317 -29.6314
    -5.4768  -5.3590  -5.2234  -5.1088   6.2211   6.4197   6.4553   6.6390
     7.4331   7.7671   8.9190   8.9842   9.6405   9.8858  10.7988  11.0205
    12.8065  13.1197  13.1940  13.4384  13.8293  14.3829  16.4803  17.0131
    17.7592  18.2579  23.8310  24.1491  25.7444  26.7092  26.8368  27.6382
    28.4304  28.8503  31.3043  31.4772  33.0811  33.5648  35.4761  36.0303
    37.2051  37.6157  37.8632  38.9584  41.4465  41.5732  42.1464  42.6021
    43.5507  43.9053  45.2924  46.0837  46.3665  46.8739  47.1931  48.0197
    48.0819  48.1223  49.1567  49.4539  49.9791  50.9576  51.2414  51.9655
    52.2922  52.6481  52.7971  53.9312  54.1354  55.1942  55.3918  55.7247
    57.7480

 ------ SPIN DOWN ----------


          k = 0.0000 0.0000 0.0000 (  1751 PWs)   bands (ev):

   -59.8262 -59.8182 -30.0957 -30.0957 -29.6652 -29.6585 -29.6585 -29.6339
    -6.7399  -5.6628  -4.5883  -4.5883   4.9780   5.1338   6.2225   6.6657
     6.6657   9.3171   9.3950   9.3950  10.8417  11.3138  11.3138  11.8453
    12.1480  12.2780  12.3444  12.3444  12.8668  15.4548  15.5861  18.4920
    18.4920  19.9455  20.0489  23.4250  23.4250  27.5207  28.0903  29.2213
    29.8844  30.6741  31.9877  31.9877  32.2075  33.7981  36.5343  36.5343
    37.6895  37.7390  37.7390  39.5610  39.5610  41.2666  42.2329  42.6118
    42.7210  42.9668  43.5674  44.4357  44.4357  45.3521  46.3712  46.4600
    46.4600  48.3345  48.3345  48.3835  49.6592  50.8770  52.4381  52.4381
    52.7077  52.9782  54.4091  54.4091  54.5616  54.5616  55.5875  55.9172
    56.0745

          k = 0.0000 0.0000 0.2947 (  1756 PWs)   bands (ev):

   -59.8214 -59.8148 -30.0896 -30.0896 -29.7321 -29.7072 -29.6480 -29.6480
    -6.3898  -5.4802  -4.7947  -4.7947   5.3607   5.6551   6.6467   6.8362
     6.8362   8.3168   9.4443   9.7195   9.7195  10.2295  10.2295  11.2164
    12.4627  12.9214  13.0036  13.4635  13.4635  15.2157  16.1740  17.7722
    17.7722  19.1753  21.0508  24.7601  24.7601  27.4201  27.6517  29.4215
    29.6122  30.0839  31.1368  31.2915  31.2915  34.5364  36.6385  36.6385
    37.4393  37.4393  37.4665  39.6578  40.6434  40.8710  40.8710  41.2627
    42.2345  42.2345  42.4985  43.0070  45.6436  47.7110  48.0034  48.0064
    48.0064  49.1042  49.1042  49.3484  49.3683  50.8517  51.4054  51.4054
    53.1630  53.8185  53.8185  54.2281  55.7820  55.7998  56.3963  56.3963
    58.6215

          k = 0.0000 0.0000 0.5895 (  1756 PWs)   bands (ev):

   -59.8127 -59.8102 -30.0799 -30.0799 -29.8363 -29.8271 -29.6309 -29.6309
    -5.6756  -5.3008  -5.1112  -5.1112   6.0287   6.3542   7.2797   7.2797
     7.5066   7.8481   8.1069   8.9837   8.9837   9.5656  10.3228  10.3228
    12.8817  13.2357  13.2664  14.2914  14.5090  14.5090  17.0193  17.0436
    17.0436  17.6499  23.3903  25.6577  26.8190  26.8190  28.0717  28.7047
    29.6282  29.6898  29.9396  29.9396  30.8797  32.4598  36.1142  36.1142
    37.8835  37.8835  38.4325  39.5276  40.4203  41.0080  41.2412  41.4242
    41.4242  42.5771  42.9280  42.9280  45.8244  47.5583  47.5583  48.7655
    48.7655  49.7155  50.0893  50.0893  50.1042  50.3449  52.2381  52.4386
    52.4386  53.0351  53.1596  53.4038  55.7425  55.7425  57.0684  57.3845
    57.8834

          k = 0.0000 0.2052 0.0000 (  1761 PWs)   bands (ev):

   -59.8255 -59.8189 -30.0945 -30.0944 -29.6621 -29.6604 -29.6603 -29.6369
    -6.5834  -5.6232  -4.7864  -4.6891   5.2819   5.4759   6.5124   6.6997
     6.7181   8.8674   9.0372   9.1996  10.2897  10.4032  10.8958  11.6776
    12.5512  12.6736  12.8177  12.8712  13.2299  15.2858  16.0236  18.2788
    18.3253  19.6883  20.5053  23.4289  23.7772  27.3882  27.7694  28.8596
    30.3351  30.3790  31.8625  32.6465  32.7448  33.6876  35.1408  35.3136
    37.1510  37.7771  38.2946  39.5697  39.6085  41.4025  41.4819  42.7215
    43.0042  43.9096  44.0048  44.2757  45.0749  45.5359  46.9423  47.6126
    47.6552  48.3596  48.5513  49.0779  49.7198  50.1037  51.8086  52.1205
    52.3603  52.7428  53.2861  53.4301  53.7807  54.9038  55.3649  56.3707
    58.2857

          k = 0.0000 0.2052 0.2947 (  1752 PWs)   bands (ev):

   -59.8207 -59.8154 -30.0894 -30.0892 -29.7295 -29.7100 -29.6489 -29.6485
    -6.2563  -5.4310  -4.9627  -4.8705   5.6401   5.8953   6.6242   6.8321
     7.2585   8.0907   8.6465   9.4591   9.5738  10.1782  10.2509  11.3428
    12.2856  13.2567  13.2574  13.3873  13.7308  14.9895  16.5723  17.3660
    17.6376  19.2218  21.4938  24.5477  25.0288  27.3849  27.7623  28.9616
    29.4590  30.0900  30.5522  31.1914  32.7973  34.8857  35.1937  35.2529
    36.8503  37.5411  39.0516  39.2967  40.0183  40.3007  40.9231  41.2447
    42.3760  42.7908  43.7149  44.8921  46.5550  47.2737  47.6520  47.9450
    48.5339  48.5460  48.6055  49.3772  50.7278  50.7388  51.1753  51.6353
    52.1318  53.5447  54.0333  54.9785  55.0692  55.3106  55.6805  56.3753
    57.7116

          k = 0.0000 0.2052 0.5895 (  1768 PWs)   bands (ev):

   -59.8125 -59.8104 -30.0815 -30.0814 -29.8341 -29.8269 -29.6308 -29.6307
    -5.6692  -5.4102  -5.0791  -5.0330   6.1237   6.3792   6.6755   7.0387
     7.9106   7.9309   8.4977   8.9971   9.1986   9.9292  10.0910  10.1487
    12.8132  13.0309  13.2953  13.6433  14.6503  14.7359  16.3609  16.4963
    17.8201  18.4117  23.4617  25.2654  26.6768  26.9810  28.0278  28.2797
    29.6320  29.6967  29.9188  29.9785  31.8699  32.3994  35.5560  35.6670
    37.2246  37.6347  38.7283  39.7095  40.6108  40.7954  41.2286  41.3031
    42.4781  42.5892  43.5595  43.6671  46.9073  47.2510  47.7666  48.2637
    48.4756  48.7511  49.4650  49.8854  50.4541  50.6212  51.2119  52.3207
    52.9516  53.6346  53.9755  54.1400  55.7707  56.1897  56.5258  56.7876
    57.5246

          k = 0.0000 0.4105 0.0000 (  1757 PWs)   bands (ev):

   -59.8234 -59.8209 -30.0926 -30.0924 -29.6634 -29.6633 -29.6544 -29.6447
    -6.1640  -5.6966  -5.0619  -4.9192   6.0073   6.1470   6.7737   6.7947
     7.4224   8.0137   8.0988   8.8686   9.1598   9.5453  10.8601  11.2492
    13.0722  13.2639  13.3605  13.4125  13.6973  14.5682  17.3526  17.9429
    17.9958  18.7249  21.7099  22.8982  24.8336  26.2885  28.1243  28.5470
    30.1891  31.3971  31.5704  32.0045  33.0073  33.0758  33.7753  35.4124
    36.9078  38.1486  39.2127  39.6929  39.7030  40.1079  40.6167  41.3680
    44.0115  44.3055  44.6233  44.8547  46.5329  46.9732  47.0003  48.0204
    48.2833  49.0698  49.1738  49.8033  50.7864  50.9414  51.0596  51.5217
    51.8535  51.9231  52.3534  52.7546  53.9855  54.6234  55.9365  57.7947
    58.0031

          k = 0.0000 0.4105 0.2947 (  1749 PWs)   bands (ev):

   -59.8191 -59.8170 -30.0888 -30.0887 -29.7234 -29.7163 -29.6501 -29.6497
    -5.8946  -5.4407  -5.2286  -5.0531   6.3415   6.4242   6.7896   6.8042
     7.5276   7.7780   8.3370   8.6907   8.7775   9.5358  10.7730  11.1075
    12.7568  13.1311  13.5942  13.7424  14.1606  14.4879  16.8709  16.8881
    17.9260  18.7914  22.5856  23.7507  25.8776  26.9482  28.2366  28.6539
    29.0738  29.3464  30.6522  31.6878  32.9343  33.5716  35.0802  35.5195
    36.7627  37.5882  38.7041  38.8557  39.6568  40.0340  41.1061  41.5729
    42.5802  44.3633  45.1864  45.7608  46.2337  46.5872  47.7186  48.1957
    48.2300  48.9106  49.6090  49.6978  50.9507  51.3016  51.5409  51.7582
    52.5347  53.0986  53.4052  54.4228  54.5104  55.3625  55.9144  56.2935
    57.1219

          k = 0.0000 0.4105 0.5895 (  1774 PWs)   bands (ev):

   -59.8118 -59.8111 -30.0840 -30.0840 -29.8299 -29.8273 -29.6306 -29.6305
    -5.6358  -5.5499  -5.0126  -4.9809   6.1607   6.1715   6.6782   6.8178
     7.9195   8.3041   8.5819   9.3036   9.4406   9.4949  10.2191  10.7921
    12.1142  12.6541  13.2503  13.3235  14.8087  14.8229  15.9251  16.0676
    18.6450  18.9348  23.8260  24.5265  26.5387  26.8550  27.9172  28.3158
    29.1266  29.2689  30.5699  30.8603  31.5819  32.2930  35.2520  35.6485
    37.1451  37.5620  38.5950  39.0886  40.6959  40.9410  41.8270  41.9604
    42.1561  42.8253  44.7125  45.5506  45.7677  46.2504  47.4530  47.6106
    48.9644  49.0011  49.4170  49.9178  50.3946  50.6368  51.4182  52.7398
    53.7611  54.4861  54.6331  54.6408  55.9204  55.9488  56.3440  56.6285
    58.2492

          k = 0.2052 0.2052 0.0000 (  1758 PWs)   bands (ev):

   -59.8248 -59.8195 -30.0967 -30.0922 -29.6633 -29.6597 -29.6584 -29.6393
    -6.4713  -5.6093  -4.9960  -4.6461   5.0522   6.1399   6.6314   6.7692
     6.7980   8.0967   9.1360   9.2566  10.1731  10.2855  10.7199  11.4948
    12.3433  12.3585  13.2687  13.3570  13.3663  15.1295  16.3073  17.9678
    18.4864  19.3514  21.0398  23.6851  23.8433  27.2875  27.3057  28.3990
    30.1363  30.7810  31.7080  32.9222  33.6765  33.8936  35.0300  35.4215
    35.9922  37.2812  37.7186  38.4495  40.5452  40.8402  41.4312  43.2069
    43.4613  43.7895  43.7897  44.6355  46.5590  46.9064  46.9587  47.5783
    48.1546  48.2017  48.7896  49.4370  50.1172  50.1736  50.4183  51.4335
    52.1678  52.8135  53.8466  53.8691  54.1026  54.9005  55.0789  56.8508
    57.0191

          k = 0.2052 0.2052 0.2947 (  1762 PWs)   bands (ev):

   -59.8202 -59.8159 -30.0904 -30.0885 -29.7279 -29.7118 -29.6499 -29.6481
    -6.1574  -5.3844  -5.1556  -4.8465   5.4969   6.3797   6.5035   7.0087
     7.4425   7.7452   8.7170   8.9543   9.5242  10.1734  10.5040  11.2484
    12.2811  12.8201  13.3689  13.8276  13.8542  14.8286  16.6767  17.1482
    17.7749  19.0741  21.9207  24.6484  24.9578  27.3251  27.6073  28.1767
    29.4801  29.9341  31.1361  31.8148  32.6147  33.8753  35.4376  35.4748
    36.9057  37.2214  38.6909  39.0859  40.4224  40.5031  40.8782  40.9877
    42.2492  43.7263  44.7579  45.1082  46.6070  47.0217  47.5295  47.6937
    48.2243  48.9089  49.4174  50.1292  50.4416  50.9559  51.1977  51.7557
    51.8483  52.4569  53.6326  54.1253  54.5178  56.1855  56.3986  57.5167
    57.8820

          k = 0.2052 0.2052 0.5895 (  1759 PWs)   bands (ev):

   -59.8122 -59.8106 -30.0838 -30.0804 -29.8340 -29.8262 -29.6312 -29.6305
    -5.6586  -5.3933  -5.1549  -4.9784   6.1398   6.4840   6.6153   6.7578
     7.5490   8.4695   8.6081   8.9617   9.2432   9.8791  10.1283  10.4270
    12.5606  13.0597  13.3133  13.7810  14.0705  14.9912  15.9125  17.0324
    17.5790  18.7123  23.5399  25.2544  25.9240  27.1712  27.3476  28.5837
    28.9545  29.4961  30.6738  31.1730  31.3288  33.0983  34.9193  35.3712
    36.9155  37.6477  38.2539  39.9824  40.5321  41.4459  41.5320  42.0178
    42.5460  42.8755  44.0661  44.3464  46.7161  47.1540  47.2589  48.2345
    48.2518  48.7404  49.1723  49.9516  50.2414  50.3231  51.3658  51.8356
    53.0285  53.8366  54.3502  54.5351  55.3119  55.8479  56.3018  57.2234
    57.6657

          k = 0.2052 0.4105 0.0000 (  1746 PWs)   bands (ev):

   -59.8232 -59.8211 -30.0958 -30.0930 -29.6632 -29.6602 -29.6533 -29.6455
    -6.1704  -5.7935  -5.0262  -4.8002   5.3704   6.0946   6.6607   6.7638
     7.5231   8.1660   8.6516   9.3153   9.5626   9.8399  10.4035  10.9642
    12.7704  12.7798  13.2436  13.3490  13.9748  14.6482  17.2606  17.9660
    18.2970  18.4368  22.1481  23.2139  24.8405  26.1893  27.4315  27.8281
    30.1262  30.9915  31.9873  33.2368  33.7020  33.7506  34.1197  35.2178
    36.3383  36.6400  38.4654  38.5361  39.4366  40.5782  41.1425  42.0983
    44.1312  44.2431  44.9170  45.0605  46.2005  46.9214  47.2931  47.7043
    49.3877  49.4282  49.6082  49.6819  50.2478  51.0516  51.4673  51.4704
    51.9094  52.5826  53.0840  53.1306  53.9463  55.5100  56.0169  56.0479
    56.7568

          k = 0.2052 0.4105 0.2947 (  1760 PWs)   bands (ev):

   -59.8189 -59.8172 -30.0904 -30.0892 -29.7229 -29.7167 -29.6500 -29.6489
    -5.8938  -5.5499  -5.1687  -4.9703   5.7754   6.4159   6.5573   6.7347
     7.7526   8.0765   8.5862   8.8649   9.2987   9.7739  10.4313  10.8119
    12.7757  13.0132  13.3860  13.7537  14.0841  14.4298  16.8808  17.3014
    17.8583  18.5729  22.8749  23.9195  25.7399  26.8828  27.4410  27.6004
    29.6093  29.8497  30.9384  31.7228  32.7151  33.6175  35.0865  36.1922
    36.9296  37.2708  38.5493  38.7862  39.9051  40.5964  40.9958  41.6020
    42.8771  43.9600  44.6585  45.4712  46.5913  46.9470  47.4121  47.8547
    48.8961  49.5443  49.7061  50.4111  50.5030  50.9705  51.4058  51.8614
    52.3335  52.9255  53.3468  53.7867  54.0427  55.2461  56.4319  56.8079
    57.7604

          k = 0.2052 0.4105 0.5895 (  1755 PWs)   bands (ev):

   -59.8117 -59.8111 -30.0842 -30.0821 -29.8314 -29.8275 -29.6312 -29.6307
    -5.5974  -5.4794  -5.0986  -4.9996   6.1407   6.2701   6.6591   6.7548
     7.5533   8.1592   8.8787   9.0851   9.3495   9.8084  10.4439  10.9049
    12.2734  12.9288  13.1909  13.2953  14.3952  14.8072  15.9732  16.5055
    18.2793  18.7841  23.8580  24.5792  25.7633  26.5046  27.6058  28.1105
    28.9589  29.8136  30.3943  31.1235  32.0229  33.2020  34.9598  35.8123
    36.9386  37.6048  37.9927  39.3014  40.9359  41.1705  41.9331  42.2576
    43.4291  44.0694  44.5212  44.8800  46.1975  46.5113  47.1297  47.7026
    48.1171  48.7858  49.2751  50.0544  50.4355  51.2611  51.4975  51.8052
    52.4642  53.4842  53.7191  54.4667  55.2005  55.9916  56.5567  57.1250
    57.4725

          k = 0.4105 0.4105 0.0000 (  1750 PWs)   bands (ev):

   -59.8225 -59.8218 -30.0984 -30.0967 -29.6601 -29.6583 -29.6509 -29.6480
    -6.1301  -5.9900  -4.8512  -4.7355   5.0648   5.3782   6.5768   6.6314
     8.1592   8.8675   9.0589   9.7548   9.7938  10.0860  10.1376  10.8328
    12.3166  12.3825  12.7795  12.7849  14.4166  14.6556  17.3570  17.8307
    18.2914  18.4772  22.9983  23.5727  24.9881  25.7125  26.8049  26.9905
    30.3054  30.7888  33.1011  33.5820  33.8011  34.5047  34.6325  35.0362
    35.5776  35.9108  37.0922  37.8303  39.5397  41.2486  41.7184  42.4506
    44.1783  44.8595  44.9543  45.2742  45.6418  46.1191  46.1686  47.1840
    49.4355  49.6316  50.1772  50.2592  50.9869  51.4440  52.0372  52.6075
    53.0117  53.0218  53.2143  54.0257  54.2408  54.3394  55.7969  56.3675
    57.4069

          k = 0.4105 0.4105 0.2947 (  1755 PWs)   bands (ev):

   -59.8184 -59.8177 -30.0918 -30.0911 -29.7210 -29.7183 -29.6489 -29.6482
    -5.8513  -5.7295  -5.0185  -4.9270   5.5155   5.7852   6.4366   6.5265
     8.4565   8.6813   8.9019   9.3160   9.7486   9.8424   9.9451  10.3334
    12.7957  12.9885  13.2104  13.2597  14.1383  14.2648  17.3282  17.6620
    17.7687  18.0965  23.4889  24.0219  25.5746  26.1833  27.1913  27.2462
    29.5846  29.7505  30.6961  31.1571  33.4390  34.4850  35.0917  36.5931
    36.7852  36.8690  38.7870  39.3780  40.1670  41.1272  41.3437  41.4753
    43.1161  43.4457  44.4944  45.3738  46.3092  46.7637  47.3795  47.5128
    48.1926  48.7834  49.8229  50.2673  50.8179  51.7833  51.8836  52.5874
    52.8101  53.2607  53.6941  53.7519  54.6898  54.7005  56.3314  56.5038
    56.7874

          k = 0.4105 0.4105 0.5895 (  1749 PWs)   bands (ev):

   -59.8115 -59.8113 -30.0826 -30.0812 -29.8319 -29.8297 -29.6317 -29.6314
    -5.4768  -5.3590  -5.2234  -5.1088   6.2211   6.4197   6.4553   6.6390
     7.4331   7.7671   8.9190   8.9842   9.6405   9.8858  10.7988  11.0205
    12.8065  13.1197  13.1940  13.4384  13.8293  14.3829  16.4803  17.0131
    17.7592  18.2579  23.8310  24.1491  25.7444  26.7092  26.8368  27.6382
    28.4304  28.8503  31.3043  31.4772  33.0811  33.5648  35.4761  36.0303
    37.2051  37.6157  37.8632  38.9584  41.4465  41.5732  42.1464  42.6021
    43.5507  43.9053  45.2924  46.0837  46.3665  46.8739  47.1931  48.0197
    48.0819  48.1223  49.1567  49.4539  49.9791  50.9576  51.2414  51.9655
    52.2922  52.6481  52.7971  53.9312  54.1354  55.1942  55.3918  55.7247
    57.7480

     the Fermi energy is    13.7692 ev

!    total energy              =    -515.58297865 Ry
     Harris-Foulkes estimate   =    -515.58297797 Ry
     estimated scf accuracy    <          8.2E-10 Ry

     The total energy is the sum of the following terms:

     one-electron contribution =    -159.43393916 Ry
     hartree contribution      =     113.02707367 Ry
     xc contribution           =     -78.66222377 Ry
     ewald contribution        =    -390.51306967 Ry
     smearing contrib. (-TS)   =      -0.00081972 Ry

     total magnetization       =     0.00 Bohr mag/cell
     absolute magnetization    =     0.00 Bohr mag/cell

     convergence has been achieved in  11 iterations

     Forces acting on atoms (Ry/au):


     negative rho (up, down):  0.718E-01 0.718E-01
     atom    1 type  1   force =     0.00000000    0.00000000   -0.00000000
     atom    2 type  1   force =     0.00000000    0.00000000    0.00000000
     atom    3 type  2   force =     0.00018238    0.00018238   -0.00000000
     atom    4 type  2   force =    -0.00018238   -0.00018238    0.00000000
     atom    5 type  2   force =     0.00018238   -0.00018238    0.00000000
     atom    6 type  2   force =    -0.00018238    0.00018238   -0.00000000

     Total force =     0.000516     Total SCF correction =     0.000002


     entering subroutine stress ...


     negative rho (up, down):  0.718E-01 0.718E-01
          total   stress  (Ry/bohr**3)                   (kbar)     P=  121.56
   0.00081925   0.00000000   0.00000000        120.52      0.00      0.00
   0.00000000   0.00081925   0.00000000          0.00    120.52      0.00
   0.00000000   0.00000000   0.00084055          0.00      0.00    123.65


     init_run     :     17.99s CPU     18.28s WALL (       2 calls)
     electrons    :   1061.57s CPU   1107.73s WALL (       8 calls)
     update_pot   :     24.78s CPU     25.35s WALL (       6 calls)
     forces       :     59.75s CPU     59.81s WALL (       8 calls)
     stress       :    145.06s CPU    145.28s WALL (       8 calls)

     Called by init_run:
     wfcinit      :      9.62s CPU      9.81s WALL (       2 calls)
     potinit      :      1.56s CPU      1.58s WALL (       2 calls)

     Called by electrons:
     c_bands      :    869.11s CPU    893.87s WALL (      49 calls)
     sum_band     :    125.24s CPU    126.89s WALL (      49 calls)
     v_of_rho     :     11.34s CPU     11.41s WALL (      55 calls)
     newd         :     63.70s CPU     63.77s WALL (      55 calls)
     mix_rho      :      1.08s CPU      1.14s WALL (      49 calls)

     Called by c_bands:
     init_us_2    :      4.31s CPU      4.34s WALL (    4176 calls)
     cegterg      :    855.54s CPU    880.22s WALL (    1764 calls)

     Called by *egterg:
     h_psi        :    374.59s CPU    385.64s WALL (    5403 calls)
     s_psi        :     28.01s CPU     28.03s WALL (    5403 calls)
     g_psi        :      2.32s CPU      2.35s WALL (    3567 calls)
     cdiaghg      :    255.23s CPU    255.72s WALL (    5043 calls)

     Called by h_psi:
     add_vuspsi   :     28.13s CPU     28.38s WALL (    5403 calls)

     General routines
     calbec       :     49.79s CPU     52.67s WALL (    7743 calls)
     fft          :      9.87s CPU      9.98s WALL (    1993 calls)
     ffts         :      0.16s CPU      0.16s WALL (     208 calls)
     fftw         :    313.29s CPU    317.56s WALL (  833958 calls)
     interpolate  :      1.19s CPU      1.20s WALL (     208 calls)

     Parallel routines
     fft_scatter  :     95.60s CPU     99.25s WALL (  836159 calls)

     PWSCF        : 21m56.47s CPU    22m44.51s WALL


   This run was terminated on:  15: 1:49  24Jan2014            

=------------------------------------------------------------------------------=
   JOB DONE.
=------------------------------------------------------------------------------=
