
     Program PWSCF v.5.0.2 (svn rev. 9656) starts on 12Feb2014 at  1:34:34 

     This program is part of the open-source Quantum ESPRESSO suite
     for quantum simulation of materials; please cite
         "P. Giannozzi et al., J. Phys.:Condens. Matter 21 395502 (2009);
          URL http://www.quantum-espresso.org", 
     in publications or presentations arising from this work. More details at
     http://www.quantum-espresso.org/quote.php

     Parallel version (MPI), running on    16 processors
     R & G space division:  proc/nbgrp/npool/nimage =      16

     Current dimensions of program PWSCF are:
     Max number of different atomic species (ntypx) = 10
     Max number of k-points (npk) =  40000
     Max angular momentum in pseudopotentials (lmaxx) =  3
     Reading input from alpha_0.15/alpha_0.15.in
Warning: card &IONS ignored
Warning: card / ignored
Warning: card &CELL ignored
Warning: card / ignored

     Subspace diagonalization in iterative solution of the eigenvalue problem:
     a serial algorithm will be used


     Parallelization info
     --------------------
     sticks:   dense  smooth     PW     G-vecs:    dense   smooth      PW
     Min         768     246     68                40906     7394    1102
     Max         769     247     70                40909     7410    1103
     Sum       12289    3937   1101               654519   118453   17643



     bravais-lattice index     =            0
     lattice parameter (alat)  =      17.5745  a.u.
     unit-cell volume          =    3466.9609 (a.u.)^3
     number of atoms/cell      =           48
     number of atomic types    =            3
     number of electrons       =       384.00
     number of Kohn-Sham states=          552
     kinetic-energy cutoff     =      40.0000  Ry
     charge density cutoff     =     500.0000  Ry
     convergence threshold     =      1.0E-06
     mixing beta               =       0.7000
     number of iterations used =            8  plain     mixing
     Exchange-correlation      = SLA  PW   PBE  PBE ( 1 4 3 4 0)
     EXX-fraction              =        0.00

     celldm(1)=  17.574453  celldm(2)=   0.000000  celldm(3)=   0.000000
     celldm(4)=   0.000000  celldm(5)=   0.000000  celldm(6)=   0.000000

     crystal axes: (cart. coord. in units of alat)
               a(1) = (   1.000000   0.000000   0.000000 )  
               a(2) = (   0.000000   1.000000   0.000000 )  
               a(3) = (   0.000000   0.000000   0.638710 )  

     reciprocal axes: (cart. coord. in units 2 pi/alat)
               b(1) = (  1.000000  0.000000  0.000000 )  
               b(2) = (  0.000000  1.000000  0.000000 )  
               b(3) = (  0.000000  0.000000  1.565657 )  


     PseudoPot. # 1 for Ti read from file:
     /home/camp/zhonxu/pseudo/ti_pbe_v1.uspp.F.UPF
     MD5 check sum: bcc8f6961b3b91f0cac3ca967d22d0fb
     Pseudo is Ultrasoft + core correction, Zval = 12.0
     Generated by new atomic code, or converted to UPF format
     Using radial grid of  851 points,  6 beta functions with: 
                l(1) =   0
                l(2) =   0
                l(3) =   1
                l(4) =   1
                l(5) =   2
                l(6) =   2
     Q(r) pseudized with  6 coefficients,  rinner =    1.000   1.000   1.000
                                                       1.000   1.000

     PseudoPot. # 2 for Ti read from file:
     /home/camp/zhonxu/pseudo/ti_pbe_v1.uspp.F.UPF
     MD5 check sum: bcc8f6961b3b91f0cac3ca967d22d0fb
     Pseudo is Ultrasoft + core correction, Zval = 12.0
     Generated by new atomic code, or converted to UPF format
     Using radial grid of  851 points,  6 beta functions with: 
                l(1) =   0
                l(2) =   0
                l(3) =   1
                l(4) =   1
                l(5) =   2
                l(6) =   2
     Q(r) pseudized with  6 coefficients,  rinner =    1.000   1.000   1.000
                                                       1.000   1.000

     PseudoPot. # 3 for O  read from file:
     /home/camp/zhonxu/pseudo/o_pbe_v1.01.uspp.F.UPF
     MD5 check sum: 2bcb18d16ea4b960afae9ec6d52f22d2
     Pseudo is Ultrasoft + core correction, Zval =  6.0
     Generated by new atomic code, or converted to UPF format
     Using radial grid of  737 points,  5 beta functions with: 
                l(1) =   0
                l(2) =   0
                l(3) =   1
                l(4) =   1
                l(5) =   2
     Q(r) pseudized with  8 coefficients,  rinner =    0.900   0.900   0.900
                                                       0.900   0.900

     atomic species   valence    mass     pseudopotential
        Ti0           12.00    47.88000     Ti( 1.00)
        Ti1           12.00    47.88000     Ti( 1.00)
        O2             6.00    15.99940     O ( 1.00)

     Starting magnetic structure 
     atomic species   magnetization
        Ti0          0.000
        Ti1          0.000
        O2           0.000


     Simplified LDA+U calculation (l_max = 2) with parameters (eV):
     atomic species    L          U    alpha       J0     beta
        Ti0            2     0.0000   0.1500   0.0000   0.0000
        Ti1            2     0.0000   0.0000   0.0000   0.0000
        O2             1     0.0000   0.0000   0.0000   0.0000



      8 Sym. Ops., with inversion, found



   Cartesian axes

     site n.     atom                  positions (alat units)
         1           Ti0 tau(   1) = (   0.0000000   0.0000000   0.0000000  )
         2           Ti1 tau(   2) = (   0.2500000   0.2500000   0.1596774  )
         3           Ti1 tau(   3) = (   0.0000000   0.0000000   0.3193548  )
         4           Ti1 tau(   4) = (   0.2500000   0.2500000   0.4790323  )
         5           Ti1 tau(   5) = (   0.0000000   0.5000000   0.0000000  )
         6           Ti1 tau(   6) = (   0.2500000   0.7500000   0.1596774  )
         7           Ti1 tau(   7) = (   0.0000000   0.5000000   0.3193548  )
         8           Ti1 tau(   8) = (   0.2500000   0.7500000   0.4790323  )
         9           Ti1 tau(   9) = (   0.5000000   0.0000000   0.0000000  )
        10           Ti1 tau(  10) = (   0.7500000   0.2500000   0.1596774  )
        11           Ti1 tau(  11) = (   0.5000000   0.0000000   0.3193548  )
        12           Ti1 tau(  12) = (   0.7500000   0.2500000   0.4790323  )
        13           Ti1 tau(  13) = (   0.5000000   0.5000000   0.0000000  )
        14           Ti1 tau(  14) = (   0.7500000   0.7500000   0.1596774  )
        15           Ti1 tau(  15) = (   0.5000000   0.5000000   0.3193548  )
        16           Ti1 tau(  16) = (   0.7500000   0.7500000   0.4790323  )
        17           O2  tau(  17) = (   0.1550000   0.1550000   0.0000000  )
        18           O2  tau(  18) = (  -0.1550000  -0.1550000   0.0000000  )
        19           O2  tau(  19) = (   0.4050000   0.0950000   0.1596774  )
        20           O2  tau(  20) = (   0.0950000   0.4050000   0.1596774  )
        21           O2  tau(  21) = (   0.1550000   0.1550000   0.3193548  )
        22           O2  tau(  22) = (  -0.1550000  -0.1550000   0.3193548  )
        23           O2  tau(  23) = (   0.4050000   0.0950000   0.4790323  )
        24           O2  tau(  24) = (   0.0950000   0.4050000   0.4790323  )
        25           O2  tau(  25) = (   0.1550000   0.6550000   0.0000000  )
        26           O2  tau(  26) = (  -0.1550000   0.3450000   0.0000000  )
        27           O2  tau(  27) = (   0.4050000   0.5950000   0.1596774  )
        28           O2  tau(  28) = (   0.0950000   0.9050000   0.1596774  )
        29           O2  tau(  29) = (   0.1550000   0.6550000   0.3193548  )
        30           O2  tau(  30) = (  -0.1550000   0.3450000   0.3193548  )
        31           O2  tau(  31) = (   0.4050000   0.5950000   0.4790323  )
        32           O2  tau(  32) = (   0.0950000   0.9050000   0.4790323  )
        33           O2  tau(  33) = (   0.6550000   0.1550000   0.0000000  )
        34           O2  tau(  34) = (   0.3450000  -0.1550000   0.0000000  )
        35           O2  tau(  35) = (   0.9050000   0.0950000   0.1596774  )
        36           O2  tau(  36) = (   0.5950000   0.4050000   0.1596774  )
        37           O2  tau(  37) = (   0.6550000   0.1550000   0.3193548  )
        38           O2  tau(  38) = (   0.3450000  -0.1550000   0.3193548  )
        39           O2  tau(  39) = (   0.9050000   0.0950000   0.4790323  )
        40           O2  tau(  40) = (   0.5950000   0.4050000   0.4790323  )
        41           O2  tau(  41) = (   0.6550000   0.6550000   0.0000000  )
        42           O2  tau(  42) = (   0.3450000   0.3450000   0.0000000  )
        43           O2  tau(  43) = (   0.9050000   0.5950000   0.1596774  )
        44           O2  tau(  44) = (   0.5950000   0.9050000   0.1596774  )
        45           O2  tau(  45) = (   0.6550000   0.6550000   0.3193548  )
        46           O2  tau(  46) = (   0.3450000   0.3450000   0.3193548  )
        47           O2  tau(  47) = (   0.9050000   0.5950000   0.4790323  )
        48           O2  tau(  48) = (   0.5950000   0.9050000   0.4790323  )

     number of k points=    42  Methfessel-Paxton smearing, width (Ry)=  0.0100
                       cart. coord. in units 2pi/alat
        k(    1) = (   0.0000000   0.0000000   0.0000000), wk =   0.0156250
        k(    2) = (   0.0000000   0.0000000   0.3914141), wk =   0.0312500
        k(    3) = (   0.0000000   0.0000000  -0.7828283), wk =   0.0156250
        k(    4) = (   0.0000000   0.2500000   0.0000000), wk =   0.0625000
        k(    5) = (   0.0000000   0.2500000   0.3914141), wk =   0.1250000
        k(    6) = (   0.0000000   0.2500000  -0.7828283), wk =   0.0625000
        k(    7) = (   0.0000000  -0.5000000   0.0000000), wk =   0.0312500
        k(    8) = (   0.0000000  -0.5000000   0.3914141), wk =   0.0625000
        k(    9) = (   0.0000000  -0.5000000  -0.7828283), wk =   0.0312500
        k(   10) = (   0.2500000   0.2500000   0.0000000), wk =   0.0312500
        k(   11) = (   0.2500000   0.2500000   0.3914141), wk =   0.0625000
        k(   12) = (   0.2500000   0.2500000  -0.7828283), wk =   0.0312500
        k(   13) = (   0.2500000  -0.5000000   0.0000000), wk =   0.0625000
        k(   14) = (   0.2500000  -0.5000000   0.3914141), wk =   0.1250000
        k(   15) = (   0.2500000  -0.5000000  -0.7828283), wk =   0.0625000
        k(   16) = (  -0.5000000  -0.5000000   0.0000000), wk =   0.0156250
        k(   17) = (  -0.5000000  -0.5000000   0.3914141), wk =   0.0312500
        k(   18) = (  -0.5000000  -0.5000000  -0.7828283), wk =   0.0156250
        k(   19) = (  -0.2500000   0.2500000   0.0000000), wk =   0.0312500
        k(   20) = (  -0.2500000   0.2500000  -0.3914141), wk =   0.0625000
        k(   21) = (  -0.2500000   0.2500000   0.7828283), wk =   0.0312500
        k(   22) = (   0.0000000   0.0000000   0.0000000), wk =   0.0156250
        k(   23) = (   0.0000000   0.0000000   0.3914141), wk =   0.0312500
        k(   24) = (   0.0000000   0.0000000  -0.7828283), wk =   0.0156250
        k(   25) = (   0.0000000   0.2500000   0.0000000), wk =   0.0625000
        k(   26) = (   0.0000000   0.2500000   0.3914141), wk =   0.1250000
        k(   27) = (   0.0000000   0.2500000  -0.7828283), wk =   0.0625000
        k(   28) = (   0.0000000  -0.5000000   0.0000000), wk =   0.0312500
        k(   29) = (   0.0000000  -0.5000000   0.3914141), wk =   0.0625000
        k(   30) = (   0.0000000  -0.5000000  -0.7828283), wk =   0.0312500
        k(   31) = (   0.2500000   0.2500000   0.0000000), wk =   0.0312500
        k(   32) = (   0.2500000   0.2500000   0.3914141), wk =   0.0625000
        k(   33) = (   0.2500000   0.2500000  -0.7828283), wk =   0.0312500
        k(   34) = (   0.2500000  -0.5000000   0.0000000), wk =   0.0625000
        k(   35) = (   0.2500000  -0.5000000   0.3914141), wk =   0.1250000
        k(   36) = (   0.2500000  -0.5000000  -0.7828283), wk =   0.0625000
        k(   37) = (  -0.5000000  -0.5000000   0.0000000), wk =   0.0156250
        k(   38) = (  -0.5000000  -0.5000000   0.3914141), wk =   0.0312500
        k(   39) = (  -0.5000000  -0.5000000  -0.7828283), wk =   0.0156250
        k(   40) = (  -0.2500000   0.2500000   0.0000000), wk =   0.0312500
        k(   41) = (  -0.2500000   0.2500000  -0.3914141), wk =   0.0625000
        k(   42) = (  -0.2500000   0.2500000   0.7828283), wk =   0.0312500

     Dense  grid:   654519 G-vectors     FFT dimensions: ( 125, 125,  80)

     Smooth grid:   118453 G-vectors     FFT dimensions: (  72,  72,  45)

     Largest allocated arrays     est. size (Mb)     dimensions
        Kohn-Sham Wavefunctions         7.91 Mb     (    939,  552)
        Atomic wavefunctions            4.13 Mb     (    939,  288)
        NL pseudopotentials            10.09 Mb     (    939,  704)
        Each V/rho on FFT grid          2.38 Mb     (  78125,   2)
        Each G-vector array             0.31 Mb     (  40908)
        G-vector shells                 0.11 Mb     (  14623)
     Largest temporary arrays     est. size (Mb)     dimensions
        Auxiliary wavefunctions        31.64 Mb     (    939, 2208)
        Each subspace H/S matrix       74.39 Mb     (2208,2208)
        Each <psi_i|beta_j> matrix      5.93 Mb     (    704,  552)
        Arrays for rho mixing           9.54 Mb     (  78125,   8)

     Check: negative/imaginary core charge=   -0.000014    0.000000

     The initial density is read from file :
     alpha_0.15/pwscf.save/charge-density.dat


     negative rho (up, down):  0.994E-01 0.994E-01
     Number of +U iterations with fixed ns =  0
     Starting occupations:
 --- enter write_ns ---
 LDA+U parameters:
U( 1)     =  0.00000000
alpha( 1) =  0.15000000
U( 2)     =  0.00000000
alpha( 2) =  0.00000000
U( 3)     =  0.00000000
alpha( 3) =  0.00000000
atom    1   Tr[ns(na)] (up, down, total) =   1.45792  1.45792  2.91583
   spin  1
    eigenvalues: 
  0.202  0.214  0.227  0.385  0.430
    eigenvectors:
  0.673  0.000  0.000  0.327  0.000
  0.000  0.000  0.500  0.000  0.500
  0.000  0.000  0.500  0.000  0.500
  0.000  1.000  0.000  0.000  0.000
  0.327  0.000  0.000  0.673  0.000
    occupations:
  0.262 -0.000 -0.000  0.000 -0.086
 -0.000  0.329 -0.101  0.000  0.000
 -0.000 -0.101  0.329  0.000  0.000
  0.000  0.000  0.000  0.214 -0.000
 -0.086  0.000  0.000 -0.000  0.325
   spin  2
    eigenvalues: 
  0.202  0.214  0.227  0.385  0.430
    eigenvectors:
  0.673  0.000  0.000  0.327  0.000
  0.000  0.000  0.500  0.000  0.500
  0.000  0.000  0.500  0.000  0.500
  0.000  1.000  0.000  0.000  0.000
  0.327  0.000  0.000  0.673  0.000
    occupations:
  0.262 -0.000 -0.000  0.000 -0.086
 -0.000  0.329 -0.101  0.000  0.000
 -0.000 -0.101  0.329  0.000  0.000
  0.000  0.000  0.000  0.214 -0.000
 -0.086  0.000  0.000 -0.000  0.325
atomic mag. moment =    -0.000000
atom    2   Tr[ns(na)] (up, down, total) =   1.45798  1.45798  2.91596
   spin  1
    eigenvalues: 
  0.202  0.214  0.227  0.385  0.430
    eigenvectors:
  0.673  0.000  0.000  0.327  0.000
  0.000  0.000  0.500  0.000  0.500
  0.000  0.000  0.500  0.000  0.500
  0.000  1.000  0.000  0.000  0.000
  0.327  0.000  0.000  0.673  0.000
    occupations:
  0.262 -0.000 -0.000 -0.000  0.086
 -0.000  0.329  0.101 -0.000 -0.000
 -0.000  0.101  0.329  0.000 -0.000
 -0.000 -0.000  0.000  0.214 -0.000
  0.086 -0.000 -0.000 -0.000  0.325
   spin  2
    eigenvalues: 
  0.202  0.214  0.227  0.385  0.430
    eigenvectors:
  0.673  0.000  0.000  0.327  0.000
  0.000  0.000  0.500  0.000  0.500
  0.000  0.000  0.500  0.000  0.500
  0.000  1.000  0.000  0.000  0.000
  0.327  0.000  0.000  0.673  0.000
    occupations:
  0.262 -0.000 -0.000 -0.000  0.086
 -0.000  0.329  0.101 -0.000 -0.000
 -0.000  0.101  0.329  0.000 -0.000
 -0.000 -0.000  0.000  0.214 -0.000
  0.086 -0.000 -0.000 -0.000  0.325
atomic mag. moment =     0.000000
atom    3   Tr[ns(na)] (up, down, total) =   1.45793  1.45793  2.91586
   spin  1
    eigenvalues: 
  0.202  0.214  0.227  0.385  0.430
    eigenvectors:
  0.673  0.000  0.000  0.327  0.000
  0.000  0.000  0.500  0.000  0.500
  0.000  0.000  0.500  0.000  0.500
  0.000  1.000  0.000  0.000  0.000
  0.327  0.000  0.000  0.673  0.000
    occupations:
  0.262 -0.000 -0.000  0.000 -0.086
 -0.000  0.329 -0.101  0.000  0.000
 -0.000 -0.101  0.329  0.000  0.000
  0.000  0.000  0.000  0.214 -0.000
 -0.086  0.000  0.000 -0.000  0.325
   spin  2
    eigenvalues: 
  0.202  0.214  0.227  0.385  0.430
    eigenvectors:
  0.673  0.000  0.000  0.327  0.000
  0.000  0.000  0.500  0.000  0.500
  0.000  0.000  0.500  0.000  0.500
  0.000  1.000  0.000  0.000  0.000
  0.327  0.000  0.000  0.673  0.000
    occupations:
  0.262 -0.000 -0.000  0.000 -0.086
 -0.000  0.329 -0.101  0.000  0.000
 -0.000 -0.101  0.329  0.000  0.000
  0.000  0.000  0.000  0.214 -0.000
 -0.086  0.000  0.000 -0.000  0.325
atomic mag. moment =    -0.000000
atom    4   Tr[ns(na)] (up, down, total) =   1.45798  1.45798  2.91596
   spin  1
    eigenvalues: 
  0.202  0.214  0.227  0.385  0.430
    eigenvectors:
  0.673  0.000  0.000  0.327  0.000
  0.000  0.000  0.500  0.000  0.500
  0.000  0.000  0.500  0.000  0.500
  0.000  1.000  0.000  0.000  0.000
  0.327  0.000  0.000  0.673  0.000
    occupations:
  0.262  0.000  0.000 -0.000  0.086
  0.000  0.329  0.101  0.000  0.000
  0.000  0.101  0.329 -0.000  0.000
 -0.000  0.000 -0.000  0.214 -0.000
  0.086  0.000  0.000 -0.000  0.325
   spin  2
    eigenvalues: 
  0.202  0.214  0.227  0.385  0.430
    eigenvectors:
  0.673  0.000  0.000  0.327  0.000
  0.000  0.000  0.500  0.000  0.500
  0.000  0.000  0.500  0.000  0.500
  0.000  1.000  0.000  0.000  0.000
  0.327  0.000  0.000  0.673  0.000
    occupations:
  0.262  0.000  0.000 -0.000  0.086
  0.000  0.329  0.101  0.000  0.000
  0.000  0.101  0.329 -0.000  0.000
 -0.000  0.000 -0.000  0.214 -0.000
  0.086  0.000  0.000 -0.000  0.325
atomic mag. moment =     0.000000
atom    5   Tr[ns(na)] (up, down, total) =   1.45800  1.45800  2.91600
   spin  1
    eigenvalues: 
  0.202  0.214  0.227  0.385  0.430
    eigenvectors:
  0.673  0.000  0.000  0.327  0.000
  0.000  0.000  0.500  0.000  0.500
  0.000  0.000  0.500  0.000  0.500
  0.000  1.000  0.000  0.000  0.000
  0.327  0.000  0.000  0.673  0.000
    occupations:
  0.262 -0.000 -0.000 -0.000 -0.086
 -0.000  0.329 -0.101  0.000  0.000
 -0.000 -0.101  0.329  0.000  0.000
 -0.000  0.000  0.000  0.214 -0.000
 -0.086  0.000  0.000 -0.000  0.325
   spin  2
    eigenvalues: 
  0.202  0.214  0.227  0.385  0.430
    eigenvectors:
  0.673  0.000  0.000  0.327  0.000
  0.000  0.000  0.500  0.000  0.500
  0.000  0.000  0.500  0.000  0.500
  0.000  1.000  0.000  0.000  0.000
  0.327  0.000  0.000  0.673  0.000
    occupations:
  0.262 -0.000 -0.000 -0.000 -0.086
 -0.000  0.329 -0.101  0.000  0.000
 -0.000 -0.101  0.329  0.000  0.000
 -0.000  0.000  0.000  0.214 -0.000
 -0.086  0.000  0.000 -0.000  0.325
atomic mag. moment =     0.000000
atom    6   Tr[ns(na)] (up, down, total) =   1.45798  1.45798  2.91596
   spin  1
    eigenvalues: 
  0.202  0.214  0.227  0.385  0.430
    eigenvectors:
  0.673  0.000  0.000  0.327  0.000
  0.000  0.000  0.500  0.000  0.500
  0.000  0.000  0.500  0.000  0.500
  0.000  1.000  0.000  0.000  0.000
  0.327  0.000  0.000  0.673  0.000
    occupations:
  0.262 -0.000  0.000 -0.000  0.086
 -0.000  0.329  0.101  0.000 -0.000
  0.000  0.101  0.329  0.000  0.000
 -0.000  0.000  0.000  0.214 -0.000
  0.086 -0.000  0.000 -0.000  0.325
   spin  2
    eigenvalues: 
  0.202  0.214  0.227  0.385  0.430
    eigenvectors:
  0.673  0.000  0.000  0.327  0.000
  0.000  0.000  0.500  0.000  0.500
  0.000  0.000  0.500  0.000  0.500
  0.000  1.000  0.000  0.000  0.000
  0.327  0.000  0.000  0.673  0.000
    occupations:
  0.262 -0.000  0.000 -0.000  0.086
 -0.000  0.329  0.101  0.000 -0.000
  0.000  0.101  0.329  0.000  0.000
 -0.000  0.000  0.000  0.214 -0.000
  0.086 -0.000  0.000 -0.000  0.325
atomic mag. moment =    -0.000000
atom    7   Tr[ns(na)] (up, down, total) =   1.45801  1.45801  2.91602
   spin  1
    eigenvalues: 
  0.202  0.214  0.227  0.385  0.430
    eigenvectors:
  0.673  0.000  0.000  0.327  0.000
  0.000  0.000  0.500  0.000  0.500
  0.000  0.000  0.500  0.000  0.500
  0.000  1.000  0.000  0.000  0.000
  0.327  0.000  0.000  0.673  0.000
    occupations:
  0.262 -0.000 -0.000 -0.000 -0.086
 -0.000  0.329 -0.101  0.000  0.000
 -0.000 -0.101  0.329  0.000  0.000
 -0.000  0.000  0.000  0.214 -0.000
 -0.086  0.000  0.000 -0.000  0.325
   spin  2
    eigenvalues: 
  0.202  0.214  0.227  0.385  0.430
    eigenvectors:
  0.673  0.000  0.000  0.327  0.000
  0.000  0.000  0.500  0.000  0.500
  0.000  0.000  0.500  0.000  0.500
  0.000  1.000  0.000  0.000  0.000
  0.327  0.000  0.000  0.673  0.000
    occupations:
  0.262 -0.000 -0.000 -0.000 -0.086
 -0.000  0.329 -0.101  0.000  0.000
 -0.000 -0.101  0.329  0.000  0.000
 -0.000  0.000  0.000  0.214 -0.000
 -0.086  0.000  0.000 -0.000  0.325
atomic mag. moment =     0.000000
atom    8   Tr[ns(na)] (up, down, total) =   1.45798  1.45798  2.91596
   spin  1
    eigenvalues: 
  0.202  0.214  0.227  0.385  0.430
    eigenvectors:
  0.673  0.000  0.000  0.327  0.000
  0.000  0.000  0.500  0.000  0.500
  0.000  0.000  0.500  0.000  0.500
  0.000  1.000  0.000  0.000  0.000
  0.327  0.000  0.000  0.673  0.000
    occupations:
  0.262  0.000 -0.000 -0.000  0.086
  0.000  0.329  0.101 -0.000  0.000
 -0.000  0.101  0.329 -0.000 -0.000
 -0.000 -0.000 -0.000  0.214 -0.000
  0.086  0.000 -0.000 -0.000  0.325
   spin  2
    eigenvalues: 
  0.202  0.214  0.227  0.385  0.430
    eigenvectors:
  0.673  0.000  0.000  0.327  0.000
  0.000  0.000  0.500  0.000  0.500
  0.000  0.000  0.500  0.000  0.500
  0.000  1.000  0.000  0.000  0.000
  0.327  0.000  0.000  0.673  0.000
    occupations:
  0.262  0.000 -0.000 -0.000  0.086
  0.000  0.329  0.101 -0.000  0.000
 -0.000  0.101  0.329 -0.000 -0.000
 -0.000 -0.000 -0.000  0.214 -0.000
  0.086  0.000 -0.000 -0.000  0.325
atomic mag. moment =    -0.000000
atom    9   Tr[ns(na)] (up, down, total) =   1.45800  1.45800  2.91600
   spin  1
    eigenvalues: 
  0.202  0.214  0.227  0.385  0.430
    eigenvectors:
  0.673  0.000  0.000  0.327  0.000
  0.000  0.000  0.500  0.000  0.500
  0.000  0.000  0.500  0.000  0.500
  0.000  1.000  0.000  0.000  0.000
  0.327  0.000  0.000  0.673  0.000
    occupations:
  0.262 -0.000 -0.000  0.000 -0.086
 -0.000  0.329 -0.101  0.000  0.000
 -0.000 -0.101  0.329  0.000  0.000
  0.000  0.000  0.000  0.214  0.000
 -0.086  0.000  0.000  0.000  0.325
   spin  2
    eigenvalues: 
  0.202  0.214  0.227  0.385  0.430
    eigenvectors:
  0.673  0.000  0.000  0.327  0.000
  0.000  0.000  0.500  0.000  0.500
  0.000  0.000  0.500  0.000  0.500
  0.000  1.000  0.000  0.000  0.000
  0.327  0.000  0.000  0.673  0.000
    occupations:
  0.262 -0.000 -0.000  0.000 -0.086
 -0.000  0.329 -0.101  0.000  0.000
 -0.000 -0.101  0.329  0.000  0.000
  0.000  0.000  0.000  0.214  0.000
 -0.086  0.000  0.000  0.000  0.325
atomic mag. moment =     0.000000
atom   10   Tr[ns(na)] (up, down, total) =   1.45798  1.45798  2.91596
   spin  1
    eigenvalues: 
  0.202  0.214  0.227  0.385  0.430
    eigenvectors:
  0.673  0.000  0.000  0.327  0.000
  0.000  0.000  0.500  0.000  0.500
  0.000  0.000  0.500  0.000  0.500
  0.000  1.000  0.000  0.000  0.000
  0.327  0.000  0.000  0.673  0.000
    occupations:
  0.262  0.000 -0.000 -0.000  0.086
  0.000  0.329  0.101 -0.000  0.000
 -0.000  0.101  0.329 -0.000 -0.000
 -0.000 -0.000 -0.000  0.214 -0.000
  0.086  0.000 -0.000 -0.000  0.325
   spin  2
    eigenvalues: 
  0.202  0.214  0.227  0.385  0.430
    eigenvectors:
  0.673  0.000  0.000  0.327  0.000
  0.000  0.000  0.500  0.000  0.500
  0.000  0.000  0.500  0.000  0.500
  0.000  1.000  0.000  0.000  0.000
  0.327  0.000  0.000  0.673  0.000
    occupations:
  0.262  0.000 -0.000 -0.000  0.086
  0.000  0.329  0.101 -0.000  0.000
 -0.000  0.101  0.329 -0.000 -0.000
 -0.000 -0.000 -0.000  0.214 -0.000
  0.086  0.000 -0.000 -0.000  0.325
atomic mag. moment =    -0.000000
atom   11   Tr[ns(na)] (up, down, total) =   1.45801  1.45801  2.91602
   spin  1
    eigenvalues: 
  0.202  0.214  0.227  0.385  0.430
    eigenvectors:
  0.673  0.000  0.000  0.327  0.000
  0.000  0.000  0.500  0.000  0.500
  0.000  0.000  0.500  0.000  0.500
  0.000  1.000  0.000  0.000  0.000
  0.327  0.000  0.000  0.673  0.000
    occupations:
  0.262 -0.000 -0.000  0.000 -0.086
 -0.000  0.329 -0.101  0.000  0.000
 -0.000 -0.101  0.329  0.000  0.000
  0.000  0.000  0.000  0.214  0.000
 -0.086  0.000  0.000  0.000  0.325
   spin  2
    eigenvalues: 
  0.202  0.214  0.227  0.385  0.430
    eigenvectors:
  0.673  0.000  0.000  0.327  0.000
  0.000  0.000  0.500  0.000  0.500
  0.000  0.000  0.500  0.000  0.500
  0.000  1.000  0.000  0.000  0.000
  0.327  0.000  0.000  0.673  0.000
    occupations:
  0.262 -0.000 -0.000  0.000 -0.086
 -0.000  0.329 -0.101  0.000  0.000
 -0.000 -0.101  0.329  0.000  0.000
  0.000  0.000  0.000  0.214  0.000
 -0.086  0.000  0.000  0.000  0.325
atomic mag. moment =     0.000000
atom   12   Tr[ns(na)] (up, down, total) =   1.45798  1.45798  2.91596
   spin  1
    eigenvalues: 
  0.202  0.214  0.227  0.385  0.430
    eigenvectors:
  0.673  0.000  0.000  0.327  0.000
  0.000  0.000  0.500  0.000  0.500
  0.000  0.000  0.500  0.000  0.500
  0.000  1.000  0.000  0.000  0.000
  0.327  0.000  0.000  0.673  0.000
    occupations:
  0.262 -0.000  0.000 -0.000  0.086
 -0.000  0.329  0.101  0.000 -0.000
  0.000  0.101  0.329  0.000  0.000
 -0.000  0.000  0.000  0.214 -0.000
  0.086 -0.000  0.000 -0.000  0.325
   spin  2
    eigenvalues: 
  0.202  0.214  0.227  0.385  0.430
    eigenvectors:
  0.673  0.000  0.000  0.327  0.000
  0.000  0.000  0.500  0.000  0.500
  0.000  0.000  0.500  0.000  0.500
  0.000  1.000  0.000  0.000  0.000
  0.327  0.000  0.000  0.673  0.000
    occupations:
  0.262 -0.000  0.000 -0.000  0.086
 -0.000  0.329  0.101  0.000 -0.000
  0.000  0.101  0.329  0.000  0.000
 -0.000  0.000  0.000  0.214 -0.000
  0.086 -0.000  0.000 -0.000  0.325
atomic mag. moment =    -0.000000
atom   13   Tr[ns(na)] (up, down, total) =   1.45799  1.45799  2.91599
   spin  1
    eigenvalues: 
  0.202  0.214  0.227  0.385  0.430
    eigenvectors:
  0.673  0.000  0.000  0.327  0.000
  0.000  0.000  0.500  0.000  0.500
  0.000  0.000  0.500  0.000  0.500
  0.000  1.000  0.000  0.000  0.000
  0.327  0.000  0.000  0.673  0.000
    occupations:
  0.262 -0.000 -0.000  0.000 -0.086
 -0.000  0.329 -0.101  0.000  0.000
 -0.000 -0.101  0.329  0.000  0.000
  0.000  0.000  0.000  0.214 -0.000
 -0.086  0.000  0.000 -0.000  0.325
   spin  2
    eigenvalues: 
  0.202  0.214  0.227  0.385  0.430
    eigenvectors:
  0.673  0.000  0.000  0.327  0.000
  0.000  0.000  0.500  0.000  0.500
  0.000  0.000  0.500  0.000  0.500
  0.000  1.000  0.000  0.000  0.000
  0.327  0.000  0.000  0.673  0.000
    occupations:
  0.262 -0.000 -0.000  0.000 -0.086
 -0.000  0.329 -0.101  0.000  0.000
 -0.000 -0.101  0.329  0.000  0.000
  0.000  0.000  0.000  0.214 -0.000
 -0.086  0.000  0.000 -0.000  0.325
atomic mag. moment =     0.000000
atom   14   Tr[ns(na)] (up, down, total) =   1.45798  1.45798  2.91596
   spin  1
    eigenvalues: 
  0.202  0.214  0.227  0.385  0.430
    eigenvectors:
  0.673  0.000  0.000  0.327  0.000
  0.000  0.000  0.500  0.000  0.500
  0.000  0.000  0.500  0.000  0.500
  0.000  1.000  0.000  0.000  0.000
  0.327  0.000  0.000  0.673  0.000
    occupations:
  0.262  0.000  0.000 -0.000  0.086
  0.000  0.329  0.101  0.000  0.000
  0.000  0.101  0.329 -0.000  0.000
 -0.000  0.000 -0.000  0.214 -0.000
  0.086  0.000  0.000 -0.000  0.325
   spin  2
    eigenvalues: 
  0.202  0.214  0.227  0.385  0.430
    eigenvectors:
  0.673  0.000  0.000  0.327  0.000
  0.000  0.000  0.500  0.000  0.500
  0.000  0.000  0.500  0.000  0.500
  0.000  1.000  0.000  0.000  0.000
  0.327  0.000  0.000  0.673  0.000
    occupations:
  0.262  0.000  0.000 -0.000  0.086
  0.000  0.329  0.101  0.000  0.000
  0.000  0.101  0.329 -0.000  0.000
 -0.000  0.000 -0.000  0.214 -0.000
  0.086  0.000  0.000 -0.000  0.325
atomic mag. moment =     0.000000
atom   15   Tr[ns(na)] (up, down, total) =   1.45799  1.45799  2.91599
   spin  1
    eigenvalues: 
  0.202  0.214  0.227  0.385  0.430
    eigenvectors:
  0.673  0.000  0.000  0.327  0.000
  0.000  0.000  0.500  0.000  0.500
  0.000  0.000  0.500  0.000  0.500
  0.000  1.000  0.000  0.000  0.000
  0.327  0.000  0.000  0.673  0.000
    occupations:
  0.262 -0.000 -0.000  0.000 -0.086
 -0.000  0.329 -0.101  0.000  0.000
 -0.000 -0.101  0.329  0.000  0.000
  0.000  0.000  0.000  0.214 -0.000
 -0.086  0.000  0.000 -0.000  0.325
   spin  2
    eigenvalues: 
  0.202  0.214  0.227  0.385  0.430
    eigenvectors:
  0.673  0.000  0.000  0.327  0.000
  0.000  0.000  0.500  0.000  0.500
  0.000  0.000  0.500  0.000  0.500
  0.000  1.000  0.000  0.000  0.000
  0.327  0.000  0.000  0.673  0.000
    occupations:
  0.262 -0.000 -0.000  0.000 -0.086
 -0.000  0.329 -0.101  0.000  0.000
 -0.000 -0.101  0.329  0.000  0.000
  0.000  0.000  0.000  0.214 -0.000
 -0.086  0.000  0.000 -0.000  0.325
atomic mag. moment =     0.000000
atom   16   Tr[ns(na)] (up, down, total) =   1.45798  1.45798  2.91596
   spin  1
    eigenvalues: 
  0.202  0.214  0.227  0.385  0.430
    eigenvectors:
  0.673  0.000  0.000  0.327  0.000
  0.000  0.000  0.500  0.000  0.500
  0.000  0.000  0.500  0.000  0.500
  0.000  1.000  0.000  0.000  0.000
  0.327  0.000  0.000  0.673  0.000
    occupations:
  0.262 -0.000 -0.000 -0.000  0.086
 -0.000  0.329  0.101 -0.000 -0.000
 -0.000  0.101  0.329  0.000 -0.000
 -0.000 -0.000  0.000  0.214 -0.000
  0.086 -0.000 -0.000 -0.000  0.325
   spin  2
    eigenvalues: 
  0.202  0.214  0.227  0.385  0.430
    eigenvectors:
  0.673  0.000  0.000  0.327  0.000
  0.000  0.000  0.500  0.000  0.500
  0.000  0.000  0.500  0.000  0.500
  0.000  1.000  0.000  0.000  0.000
  0.327  0.000  0.000  0.673  0.000
    occupations:
  0.262 -0.000 -0.000 -0.000  0.086
 -0.000  0.329  0.101 -0.000 -0.000
 -0.000  0.101  0.329  0.000 -0.000
 -0.000 -0.000  0.000  0.214 -0.000
  0.086 -0.000 -0.000 -0.000  0.325
atomic mag. moment =     0.000000
atom   17   Tr[ns(na)] (up, down, total) =   2.70575  2.70575  5.41150
   spin  1
    eigenvalues: 
  0.895  0.903  0.908
    eigenvectors:
  0.000  0.000  1.000
  0.500  0.500  0.000
  0.500  0.500  0.000
    occupations:
  0.908 -0.000 -0.000
 -0.000  0.899 -0.004
 -0.000 -0.004  0.899
   spin  2
    eigenvalues: 
  0.895  0.903  0.908
    eigenvectors:
  0.000  0.000  1.000
  0.500  0.500  0.000
  0.500  0.500  0.000
    occupations:
  0.908 -0.000 -0.000
 -0.000  0.899 -0.004
 -0.000 -0.004  0.899
atomic mag. moment =    -0.000000
atom   18   Tr[ns(na)] (up, down, total) =   2.70575  2.70575  5.41150
   spin  1
    eigenvalues: 
  0.895  0.903  0.908
    eigenvectors:
  0.000  0.000  1.000
  0.500  0.500  0.000
  0.500  0.500  0.000
    occupations:
  0.908 -0.000 -0.000
 -0.000  0.899 -0.004
 -0.000 -0.004  0.899
   spin  2
    eigenvalues: 
  0.895  0.903  0.908
    eigenvectors:
  0.000  0.000  1.000
  0.500  0.500  0.000
  0.500  0.500  0.000
    occupations:
  0.908 -0.000 -0.000
 -0.000  0.899 -0.004
 -0.000 -0.004  0.899
atomic mag. moment =    -0.000000
atom   19   Tr[ns(na)] (up, down, total) =   2.70574  2.70574  5.41149
   spin  1
    eigenvalues: 
  0.895  0.903  0.908
    eigenvectors:
  0.000  0.000  1.000
  0.500  0.500  0.000
  0.500  0.500  0.000
    occupations:
  0.908  0.000 -0.000
  0.000  0.899  0.004
 -0.000  0.004  0.899
   spin  2
    eigenvalues: 
  0.895  0.903  0.908
    eigenvectors:
  0.000  0.000  1.000
  0.500  0.500  0.000
  0.500  0.500  0.000
    occupations:
  0.908  0.000 -0.000
  0.000  0.899  0.004
 -0.000  0.004  0.899
atomic mag. moment =    -0.000000
atom   20   Tr[ns(na)] (up, down, total) =   2.70574  2.70574  5.41149
   spin  1
    eigenvalues: 
  0.895  0.903  0.908
    eigenvectors:
  0.000  0.000  1.000
  0.500  0.500  0.000
  0.500  0.500  0.000
    occupations:
  0.908 -0.000  0.000
 -0.000  0.899  0.004
  0.000  0.004  0.899
   spin  2
    eigenvalues: 
  0.895  0.903  0.908
    eigenvectors:
  0.000  0.000  1.000
  0.500  0.500  0.000
  0.500  0.500  0.000
    occupations:
  0.908 -0.000  0.000
 -0.000  0.899  0.004
  0.000  0.004  0.899
atomic mag. moment =    -0.000000
atom   21   Tr[ns(na)] (up, down, total) =   2.70575  2.70575  5.41151
   spin  1
    eigenvalues: 
  0.895  0.903  0.908
    eigenvectors:
  0.000  0.000  1.000
  0.500  0.500  0.000
  0.500  0.500  0.000
    occupations:
  0.908 -0.000 -0.000
 -0.000  0.899 -0.004
 -0.000 -0.004  0.899
   spin  2
    eigenvalues: 
  0.895  0.903  0.908
    eigenvectors:
  0.000  0.000  1.000
  0.500  0.500  0.000
  0.500  0.500  0.000
    occupations:
  0.908 -0.000 -0.000
 -0.000  0.899 -0.004
 -0.000 -0.004  0.899
atomic mag. moment =    -0.000000
atom   22   Tr[ns(na)] (up, down, total) =   2.70575  2.70575  5.41151
   spin  1
    eigenvalues: 
  0.895  0.903  0.908
    eigenvectors:
  0.000  0.000  1.000
  0.500  0.500  0.000
  0.500  0.500  0.000
    occupations:
  0.908 -0.000 -0.000
 -0.000  0.899 -0.004
 -0.000 -0.004  0.899
   spin  2
    eigenvalues: 
  0.895  0.903  0.908
    eigenvectors:
  0.000  0.000  1.000
  0.500  0.500  0.000
  0.500  0.500  0.000
    occupations:
  0.908 -0.000 -0.000
 -0.000  0.899 -0.004
 -0.000 -0.004  0.899
atomic mag. moment =    -0.000000
atom   23   Tr[ns(na)] (up, down, total) =   2.70574  2.70574  5.41149
   spin  1
    eigenvalues: 
  0.895  0.903  0.908
    eigenvectors:
  0.000  0.000  1.000
  0.500  0.500  0.000
  0.500  0.500  0.000
    occupations:
  0.908 -0.000  0.000
 -0.000  0.899  0.004
  0.000  0.004  0.899
   spin  2
    eigenvalues: 
  0.895  0.903  0.908
    eigenvectors:
  0.000  0.000  1.000
  0.500  0.500  0.000
  0.500  0.500  0.000
    occupations:
  0.908 -0.000  0.000
 -0.000  0.899  0.004
  0.000  0.004  0.899
atomic mag. moment =    -0.000000
atom   24   Tr[ns(na)] (up, down, total) =   2.70574  2.70574  5.41149
   spin  1
    eigenvalues: 
  0.895  0.903  0.908
    eigenvectors:
  0.000  0.000  1.000
  0.500  0.500  0.000
  0.500  0.500  0.000
    occupations:
  0.908  0.000 -0.000
  0.000  0.899  0.004
 -0.000  0.004  0.899
   spin  2
    eigenvalues: 
  0.895  0.903  0.908
    eigenvectors:
  0.000  0.000  1.000
  0.500  0.500  0.000
  0.500  0.500  0.000
    occupations:
  0.908  0.000 -0.000
  0.000  0.899  0.004
 -0.000  0.004  0.899
atomic mag. moment =    -0.000000
atom   25   Tr[ns(na)] (up, down, total) =   2.70576  2.70576  5.41151
   spin  1
    eigenvalues: 
  0.895  0.903  0.908
    eigenvectors:
  0.000  0.000  1.000
  0.500  0.500  0.000
  0.500  0.500  0.000
    occupations:
  0.908 -0.000 -0.000
 -0.000  0.899 -0.004
 -0.000 -0.004  0.899
   spin  2
    eigenvalues: 
  0.895  0.903  0.908
    eigenvectors:
  0.000  0.000  1.000
  0.500  0.500  0.000
  0.500  0.500  0.000
    occupations:
  0.908 -0.000 -0.000
 -0.000  0.899 -0.004
 -0.000 -0.004  0.899
atomic mag. moment =     0.000000
atom   26   Tr[ns(na)] (up, down, total) =   2.70576  2.70576  5.41151
   spin  1
    eigenvalues: 
  0.895  0.903  0.908
    eigenvectors:
  0.000  0.000  1.000
  0.500  0.500  0.000
  0.500  0.500  0.000
    occupations:
  0.908 -0.000 -0.000
 -0.000  0.899 -0.004
 -0.000 -0.004  0.899
   spin  2
    eigenvalues: 
  0.895  0.903  0.908
    eigenvectors:
  0.000  0.000  1.000
  0.500  0.500  0.000
  0.500  0.500  0.000
    occupations:
  0.908 -0.000 -0.000
 -0.000  0.899 -0.004
 -0.000 -0.004  0.899
atomic mag. moment =     0.000000
atom   27   Tr[ns(na)] (up, down, total) =   2.70575  2.70575  5.41149
   spin  1
    eigenvalues: 
  0.895  0.903  0.908
    eigenvectors:
  0.000  0.000  1.000
  0.500  0.500  0.000
  0.500  0.500  0.000
    occupations:
  0.908  0.000 -0.000
  0.000  0.899  0.004
 -0.000  0.004  0.899
   spin  2
    eigenvalues: 
  0.895  0.903  0.908
    eigenvectors:
  0.000  0.000  1.000
  0.500  0.500  0.000
  0.500  0.500  0.000
    occupations:
  0.908  0.000 -0.000
  0.000  0.899  0.004
 -0.000  0.004  0.899
atomic mag. moment =    -0.000000
atom   28   Tr[ns(na)] (up, down, total) =   2.70575  2.70575  5.41150
   spin  1
    eigenvalues: 
  0.895  0.903  0.908
    eigenvectors:
  0.000  0.000  1.000
  0.500  0.500  0.000
  0.500  0.500  0.000
    occupations:
  0.908 -0.000  0.000
 -0.000  0.899  0.004
  0.000  0.004  0.899
   spin  2
    eigenvalues: 
  0.895  0.903  0.908
    eigenvectors:
  0.000  0.000  1.000
  0.500  0.500  0.000
  0.500  0.500  0.000
    occupations:
  0.908 -0.000  0.000
 -0.000  0.899  0.004
  0.000  0.004  0.899
atomic mag. moment =     0.000000
atom   29   Tr[ns(na)] (up, down, total) =   2.70577  2.70577  5.41153
   spin  1
    eigenvalues: 
  0.895  0.903  0.908
    eigenvectors:
  0.000  0.000  1.000
  0.500  0.500  0.000
  0.500  0.500  0.000
    occupations:
  0.908 -0.000 -0.000
 -0.000  0.899 -0.004
 -0.000 -0.004  0.899
   spin  2
    eigenvalues: 
  0.895  0.903  0.908
    eigenvectors:
  0.000  0.000  1.000
  0.500  0.500  0.000
  0.500  0.500  0.000
    occupations:
  0.908 -0.000 -0.000
 -0.000  0.899 -0.004
 -0.000 -0.004  0.899
atomic mag. moment =     0.000000
atom   30   Tr[ns(na)] (up, down, total) =   2.70577  2.70577  5.41153
   spin  1
    eigenvalues: 
  0.895  0.903  0.908
    eigenvectors:
  0.000  0.000  1.000
  0.500  0.500  0.000
  0.500  0.500  0.000
    occupations:
  0.908 -0.000 -0.000
 -0.000  0.899 -0.004
 -0.000 -0.004  0.899
   spin  2
    eigenvalues: 
  0.895  0.903  0.908
    eigenvectors:
  0.000  0.000  1.000
  0.500  0.500  0.000
  0.500  0.500  0.000
    occupations:
  0.908 -0.000 -0.000
 -0.000  0.899 -0.004
 -0.000 -0.004  0.899
atomic mag. moment =     0.000000
atom   31   Tr[ns(na)] (up, down, total) =   2.70575  2.70575  5.41149
   spin  1
    eigenvalues: 
  0.895  0.903  0.908
    eigenvectors:
  0.000  0.000  1.000
  0.500  0.500  0.000
  0.500  0.500  0.000
    occupations:
  0.908 -0.000  0.000
 -0.000  0.899  0.004
  0.000  0.004  0.899
   spin  2
    eigenvalues: 
  0.895  0.903  0.908
    eigenvectors:
  0.000  0.000  1.000
  0.500  0.500  0.000
  0.500  0.500  0.000
    occupations:
  0.908 -0.000  0.000
 -0.000  0.899  0.004
  0.000  0.004  0.899
atomic mag. moment =    -0.000000
atom   32   Tr[ns(na)] (up, down, total) =   2.70575  2.70575  5.41150
   spin  1
    eigenvalues: 
  0.895  0.903  0.908
    eigenvectors:
  0.000  0.000  1.000
  0.500  0.500  0.000
  0.500  0.500  0.000
    occupations:
  0.908  0.000 -0.000
  0.000  0.899  0.004
 -0.000  0.004  0.899
   spin  2
    eigenvalues: 
  0.895  0.903  0.908
    eigenvectors:
  0.000  0.000  1.000
  0.500  0.500  0.000
  0.500  0.500  0.000
    occupations:
  0.908  0.000 -0.000
  0.000  0.899  0.004
 -0.000  0.004  0.899
atomic mag. moment =     0.000000
atom   33   Tr[ns(na)] (up, down, total) =   2.70576  2.70576  5.41151
   spin  1
    eigenvalues: 
  0.895  0.903  0.908
    eigenvectors:
  0.000  0.000  1.000
  0.500  0.500  0.000
  0.500  0.500  0.000
    occupations:
  0.908 -0.000 -0.000
 -0.000  0.899 -0.004
 -0.000 -0.004  0.899
   spin  2
    eigenvalues: 
  0.895  0.903  0.908
    eigenvectors:
  0.000  0.000  1.000
  0.500  0.500  0.000
  0.500  0.500  0.000
    occupations:
  0.908 -0.000 -0.000
 -0.000  0.899 -0.004
 -0.000 -0.004  0.899
atomic mag. moment =     0.000000
atom   34   Tr[ns(na)] (up, down, total) =   2.70576  2.70576  5.41151
   spin  1
    eigenvalues: 
  0.895  0.903  0.908
    eigenvectors:
  0.000  0.000  1.000
  0.500  0.500  0.000
  0.500  0.500  0.000
    occupations:
  0.908 -0.000 -0.000
 -0.000  0.899 -0.004
 -0.000 -0.004  0.899
   spin  2
    eigenvalues: 
  0.895  0.903  0.908
    eigenvectors:
  0.000  0.000  1.000
  0.500  0.500  0.000
  0.500  0.500  0.000
    occupations:
  0.908 -0.000 -0.000
 -0.000  0.899 -0.004
 -0.000 -0.004  0.899
atomic mag. moment =     0.000000
atom   35   Tr[ns(na)] (up, down, total) =   2.70575  2.70575  5.41150
   spin  1
    eigenvalues: 
  0.895  0.903  0.908
    eigenvectors:
  0.000  0.000  1.000
  0.500  0.500  0.000
  0.500  0.500  0.000
    occupations:
  0.908  0.000 -0.000
  0.000  0.899  0.004
 -0.000  0.004  0.899
   spin  2
    eigenvalues: 
  0.895  0.903  0.908
    eigenvectors:
  0.000  0.000  1.000
  0.500  0.500  0.000
  0.500  0.500  0.000
    occupations:
  0.908  0.000 -0.000
  0.000  0.899  0.004
 -0.000  0.004  0.899
atomic mag. moment =     0.000000
atom   36   Tr[ns(na)] (up, down, total) =   2.70575  2.70575  5.41149
   spin  1
    eigenvalues: 
  0.895  0.903  0.908
    eigenvectors:
  0.000  0.000  1.000
  0.500  0.500  0.000
  0.500  0.500  0.000
    occupations:
  0.908 -0.000  0.000
 -0.000  0.899  0.004
  0.000  0.004  0.899
   spin  2
    eigenvalues: 
  0.895  0.903  0.908
    eigenvectors:
  0.000  0.000  1.000
  0.500  0.500  0.000
  0.500  0.500  0.000
    occupations:
  0.908 -0.000  0.000
 -0.000  0.899  0.004
  0.000  0.004  0.899
atomic mag. moment =    -0.000000
atom   37   Tr[ns(na)] (up, down, total) =   2.70577  2.70577  5.41153
   spin  1
    eigenvalues: 
  0.895  0.903  0.908
    eigenvectors:
  0.000  0.000  1.000
  0.500  0.500  0.000
  0.500  0.500  0.000
    occupations:
  0.908 -0.000 -0.000
 -0.000  0.899 -0.004
 -0.000 -0.004  0.899
   spin  2
    eigenvalues: 
  0.895  0.903  0.908
    eigenvectors:
  0.000  0.000  1.000
  0.500  0.500  0.000
  0.500  0.500  0.000
    occupations:
  0.908 -0.000 -0.000
 -0.000  0.899 -0.004
 -0.000 -0.004  0.899
atomic mag. moment =     0.000000
atom   38   Tr[ns(na)] (up, down, total) =   2.70577  2.70577  5.41153
   spin  1
    eigenvalues: 
  0.895  0.903  0.908
    eigenvectors:
  0.000  0.000  1.000
  0.500  0.500  0.000
  0.500  0.500  0.000
    occupations:
  0.908 -0.000 -0.000
 -0.000  0.899 -0.004
 -0.000 -0.004  0.899
   spin  2
    eigenvalues: 
  0.895  0.903  0.908
    eigenvectors:
  0.000  0.000  1.000
  0.500  0.500  0.000
  0.500  0.500  0.000
    occupations:
  0.908 -0.000 -0.000
 -0.000  0.899 -0.004
 -0.000 -0.004  0.899
atomic mag. moment =     0.000000
atom   39   Tr[ns(na)] (up, down, total) =   2.70575  2.70575  5.41150
   spin  1
    eigenvalues: 
  0.895  0.903  0.908
    eigenvectors:
  0.000  0.000  1.000
  0.500  0.500  0.000
  0.500  0.500  0.000
    occupations:
  0.908 -0.000  0.000
 -0.000  0.899  0.004
  0.000  0.004  0.899
   spin  2
    eigenvalues: 
  0.895  0.903  0.908
    eigenvectors:
  0.000  0.000  1.000
  0.500  0.500  0.000
  0.500  0.500  0.000
    occupations:
  0.908 -0.000  0.000
 -0.000  0.899  0.004
  0.000  0.004  0.899
atomic mag. moment =     0.000000
atom   40   Tr[ns(na)] (up, down, total) =   2.70575  2.70575  5.41149
   spin  1
    eigenvalues: 
  0.895  0.903  0.908
    eigenvectors:
  0.000  0.000  1.000
  0.500  0.500  0.000
  0.500  0.500  0.000
    occupations:
  0.908  0.000 -0.000
  0.000  0.899  0.004
 -0.000  0.004  0.899
   spin  2
    eigenvalues: 
  0.895  0.903  0.908
    eigenvectors:
  0.000  0.000  1.000
  0.500  0.500  0.000
  0.500  0.500  0.000
    occupations:
  0.908  0.000 -0.000
  0.000  0.899  0.004
 -0.000  0.004  0.899
atomic mag. moment =    -0.000000
atom   41   Tr[ns(na)] (up, down, total) =   2.70577  2.70577  5.41155
   spin  1
    eigenvalues: 
  0.895  0.903  0.908
    eigenvectors:
  0.000  0.000  1.000
  0.500  0.500  0.000
  0.500  0.500  0.000
    occupations:
  0.908 -0.000 -0.000
 -0.000  0.899 -0.004
 -0.000 -0.004  0.899
   spin  2
    eigenvalues: 
  0.895  0.903  0.908
    eigenvectors:
  0.000  0.000  1.000
  0.500  0.500  0.000
  0.500  0.500  0.000
    occupations:
  0.908 -0.000 -0.000
 -0.000  0.899 -0.004
 -0.000 -0.004  0.899
atomic mag. moment =    -0.000000
atom   42   Tr[ns(na)] (up, down, total) =   2.70577  2.70577  5.41155
   spin  1
    eigenvalues: 
  0.895  0.903  0.908
    eigenvectors:
  0.000  0.000  1.000
  0.500  0.500  0.000
  0.500  0.500  0.000
    occupations:
  0.908 -0.000 -0.000
 -0.000  0.899 -0.004
 -0.000 -0.004  0.899
   spin  2
    eigenvalues: 
  0.895  0.903  0.908
    eigenvectors:
  0.000  0.000  1.000
  0.500  0.500  0.000
  0.500  0.500  0.000
    occupations:
  0.908 -0.000 -0.000
 -0.000  0.899 -0.004
 -0.000 -0.004  0.899
atomic mag. moment =    -0.000000
atom   43   Tr[ns(na)] (up, down, total) =   2.70574  2.70574  5.41149
   spin  1
    eigenvalues: 
  0.895  0.903  0.908
    eigenvectors:
  0.000  0.000  1.000
  0.500  0.500  0.000
  0.500  0.500  0.000
    occupations:
  0.908  0.000 -0.000
  0.000  0.899  0.004
 -0.000  0.004  0.899
   spin  2
    eigenvalues: 
  0.895  0.903  0.908
    eigenvectors:
  0.000  0.000  1.000
  0.500  0.500  0.000
  0.500  0.500  0.000
    occupations:
  0.908  0.000 -0.000
  0.000  0.899  0.004
 -0.000  0.004  0.899
atomic mag. moment =    -0.000000
atom   44   Tr[ns(na)] (up, down, total) =   2.70574  2.70574  5.41149
   spin  1
    eigenvalues: 
  0.895  0.903  0.908
    eigenvectors:
  0.000  0.000  1.000
  0.500  0.500  0.000
  0.500  0.500  0.000
    occupations:
  0.908 -0.000  0.000
 -0.000  0.899  0.004
  0.000  0.004  0.899
   spin  2
    eigenvalues: 
  0.895  0.903  0.908
    eigenvectors:
  0.000  0.000  1.000
  0.500  0.500  0.000
  0.500  0.500  0.000
    occupations:
  0.908 -0.000  0.000
 -0.000  0.899  0.004
  0.000  0.004  0.899
atomic mag. moment =    -0.000000
atom   45   Tr[ns(na)] (up, down, total) =   2.70578  2.70578  5.41155
   spin  1
    eigenvalues: 
  0.895  0.903  0.908
    eigenvectors:
  0.000  0.000  1.000
  0.500  0.500  0.000
  0.500  0.500  0.000
    occupations:
  0.908 -0.000 -0.000
 -0.000  0.899 -0.004
 -0.000 -0.004  0.899
   spin  2
    eigenvalues: 
  0.895  0.903  0.908
    eigenvectors:
  0.000  0.000  1.000
  0.500  0.500  0.000
  0.500  0.500  0.000
    occupations:
  0.908 -0.000 -0.000
 -0.000  0.899 -0.004
 -0.000 -0.004  0.899
atomic mag. moment =    -0.000000
atom   46   Tr[ns(na)] (up, down, total) =   2.70578  2.70578  5.41155
   spin  1
    eigenvalues: 
  0.895  0.903  0.908
    eigenvectors:
  0.000  0.000  1.000
  0.500  0.500  0.000
  0.500  0.500  0.000
    occupations:
  0.908 -0.000 -0.000
 -0.000  0.899 -0.004
 -0.000 -0.004  0.899
   spin  2
    eigenvalues: 
  0.895  0.903  0.908
    eigenvectors:
  0.000  0.000  1.000
  0.500  0.500  0.000
  0.500  0.500  0.000
    occupations:
  0.908 -0.000 -0.000
 -0.000  0.899 -0.004
 -0.000 -0.004  0.899
atomic mag. moment =    -0.000000
atom   47   Tr[ns(na)] (up, down, total) =   2.70574  2.70574  5.41149
   spin  1
    eigenvalues: 
  0.895  0.903  0.908
    eigenvectors:
  0.000  0.000  1.000
  0.500  0.500  0.000
  0.500  0.500  0.000
    occupations:
  0.908 -0.000  0.000
 -0.000  0.899  0.004
  0.000  0.004  0.899
   spin  2
    eigenvalues: 
  0.895  0.903  0.908
    eigenvectors:
  0.000  0.000  1.000
  0.500  0.500  0.000
  0.500  0.500  0.000
    occupations:
  0.908 -0.000  0.000
 -0.000  0.899  0.004
  0.000  0.004  0.899
atomic mag. moment =    -0.000000
atom   48   Tr[ns(na)] (up, down, total) =   2.70574  2.70574  5.41149
   spin  1
    eigenvalues: 
  0.895  0.903  0.908
    eigenvectors:
  0.000  0.000  1.000
  0.500  0.500  0.000
  0.500  0.500  0.000
    occupations:
  0.908  0.000 -0.000
  0.000  0.899  0.004
 -0.000  0.004  0.899
   spin  2
    eigenvalues: 
  0.895  0.903  0.908
    eigenvectors:
  0.000  0.000  1.000
  0.500  0.500  0.000
  0.500  0.500  0.000
    occupations:
  0.908  0.000 -0.000
  0.000  0.899  0.004
 -0.000  0.004  0.899
atomic mag. moment =    -0.000000
N of occupied +U levels = 219.8236183
 --- exit write_ns ---
 Atomic wfc used for LDA+U Projector are NOT orthogonalized
     Starting wfc from file

     total cpu time spent up to now is       40.8 secs

     per-process dynamical memory:    91.4 Mb

     Self-consistent Calculation

     iteration #  1     ecut=    40.00 Ry     beta=0.70
     Davidson diagonalization with overlap
     ethr =  3.81E-10,  avg # of iterations =  7.1
 --- enter write_ns ---
 LDA+U parameters:
U( 1)     =  0.00000000
alpha( 1) =  0.15000000
U( 2)     =  0.00000000
alpha( 2) =  0.00000000
U( 3)     =  0.00000000
alpha( 3) =  0.00000000
atom    1   Tr[ns(na)] (up, down, total) =   1.41990  1.41990  2.83980
   spin  1
    eigenvalues: 
  0.195  0.205  0.219  0.378  0.424
    eigenvectors:
  0.670  0.000  0.000  0.330  0.000
  0.000  0.000  0.500  0.000  0.500
  0.000  0.000  0.500  0.000  0.500
  0.000  1.000  0.000  0.000  0.000
  0.330  0.000  0.000  0.670  0.000
    occupations:
  0.255 -0.000 -0.000  0.000 -0.086
 -0.000  0.321 -0.102  0.000  0.000
 -0.000 -0.102  0.321  0.000  0.000
  0.000  0.000  0.000  0.205 -0.000
 -0.086  0.000  0.000 -0.000  0.317
   spin  2
    eigenvalues: 
  0.195  0.205  0.219  0.378  0.424
    eigenvectors:
  0.670  0.000  0.000  0.330  0.000
  0.000  0.000  0.500  0.000  0.500
  0.000  0.000  0.500  0.000  0.500
  0.000  1.000  0.000  0.000  0.000
  0.330  0.000  0.000  0.670  0.000
    occupations:
  0.255 -0.000 -0.000  0.000 -0.086
 -0.000  0.321 -0.102  0.000  0.000
 -0.000 -0.102  0.321  0.000  0.000
  0.000  0.000  0.000  0.205 -0.000
 -0.086  0.000  0.000 -0.000  0.317
atomic mag. moment =    -0.000000
atom    2   Tr[ns(na)] (up, down, total) =   1.45802  1.45802  2.91603
   spin  1
    eigenvalues: 
  0.202  0.214  0.227  0.385  0.430
    eigenvectors:
  0.673  0.000  0.000  0.327  0.000
  0.000  0.000  0.500  0.000  0.500
  0.000  0.000  0.500  0.000  0.500
  0.000  1.000  0.000  0.000  0.000
  0.327  0.000  0.000  0.673  0.000
    occupations:
  0.262 -0.000 -0.000 -0.000  0.086
 -0.000  0.329  0.101 -0.000  0.000
 -0.000  0.101  0.329  0.000  0.000
 -0.000 -0.000  0.000  0.214 -0.000
  0.086  0.000  0.000 -0.000  0.325
   spin  2
    eigenvalues: 
  0.202  0.214  0.227  0.385  0.430
    eigenvectors:
  0.673  0.000  0.000  0.327  0.000
  0.000  0.000  0.500  0.000  0.500
  0.000  0.000  0.500  0.000  0.500
  0.000  1.000  0.000  0.000  0.000
  0.327  0.000  0.000  0.673  0.000
    occupations:
  0.262 -0.000 -0.000 -0.000  0.086
 -0.000  0.329  0.101 -0.000  0.000
 -0.000  0.101  0.329  0.000  0.000
 -0.000 -0.000  0.000  0.214 -0.000
  0.086  0.000  0.000 -0.000  0.325
atomic mag. moment =     0.000000
atom    3   Tr[ns(na)] (up, down, total) =   1.45919  1.45919  2.91838
   spin  1
    eigenvalues: 
  0.202  0.214  0.228  0.385  0.430
    eigenvectors:
  0.672  0.000  0.000  0.328  0.000
  0.000  0.000  0.500  0.000  0.500
  0.000  0.000  0.500  0.000  0.500
  0.000  1.000  0.000  0.000  0.000
  0.328  0.000  0.000  0.672  0.000
    occupations:
  0.262 -0.000 -0.000  0.000 -0.086
 -0.000  0.329 -0.101  0.000  0.000
 -0.000 -0.101  0.329  0.000  0.000
  0.000  0.000  0.000  0.214 -0.000
 -0.086  0.000  0.000 -0.000  0.325
   spin  2
    eigenvalues: 
  0.202  0.214  0.228  0.385  0.430
    eigenvectors:
  0.672  0.000  0.000  0.328  0.000
  0.000  0.000  0.500  0.000  0.500
  0.000  0.000  0.500  0.000  0.500
  0.000  1.000  0.000  0.000  0.000
  0.328  0.000  0.000  0.672  0.000
    occupations:
  0.262 -0.000 -0.000  0.000 -0.086
 -0.000  0.329 -0.101  0.000  0.000
 -0.000 -0.101  0.329  0.000  0.000
  0.000  0.000  0.000  0.214 -0.000
 -0.086  0.000  0.000 -0.000  0.325
atomic mag. moment =    -0.000000
atom    4   Tr[ns(na)] (up, down, total) =   1.45802  1.45802  2.91603
   spin  1
    eigenvalues: 
  0.202  0.214  0.227  0.385  0.430
    eigenvectors:
  0.673  0.000  0.000  0.327  0.000
  0.000  0.000  0.500  0.000  0.500
  0.000  0.000  0.500  0.000  0.500
  0.000  1.000  0.000  0.000  0.000
  0.327  0.000  0.000  0.673  0.000
    occupations:
  0.262  0.000  0.000 -0.000  0.086
  0.000  0.329  0.101  0.000 -0.000
  0.000  0.101  0.329 -0.000 -0.000
 -0.000  0.000 -0.000  0.214 -0.000
  0.086 -0.000 -0.000 -0.000  0.325
   spin  2
    eigenvalues: 
  0.202  0.214  0.227  0.385  0.430
    eigenvectors:
  0.673  0.000  0.000  0.327  0.000
  0.000  0.000  0.500  0.000  0.500
  0.000  0.000  0.500  0.000  0.500
  0.000  1.000  0.000  0.000  0.000
  0.327  0.000  0.000  0.673  0.000
    occupations:
  0.262  0.000  0.000 -0.000  0.086
  0.000  0.329  0.101  0.000 -0.000
  0.000  0.101  0.329 -0.000 -0.000
 -0.000  0.000 -0.000  0.214 -0.000
  0.086 -0.000 -0.000 -0.000  0.325
atomic mag. moment =     0.000000
atom    5   Tr[ns(na)] (up, down, total) =   1.45774  1.45774  2.91547
   spin  1
    eigenvalues: 
  0.202  0.214  0.227  0.385  0.430
    eigenvectors:
  0.673  0.000  0.000  0.327  0.000
  0.000  0.000  0.500  0.000  0.500
  0.000  0.000  0.500  0.000  0.500
  0.000  1.000  0.000  0.000  0.000
  0.327  0.000  0.000  0.673  0.000
    occupations:
  0.261 -0.000 -0.000  0.000 -0.086
 -0.000  0.329 -0.101  0.000  0.000
 -0.000 -0.101  0.329  0.000  0.000
  0.000  0.000  0.000  0.214  0.000
 -0.086  0.000  0.000  0.000  0.325
   spin  2
    eigenvalues: 
  0.202  0.214  0.227  0.385  0.430
    eigenvectors:
  0.673  0.000  0.000  0.327  0.000
  0.000  0.000  0.500  0.000  0.500
  0.000  0.000  0.500  0.000  0.500
  0.000  1.000  0.000  0.000  0.000
  0.327  0.000  0.000  0.673  0.000
    occupations:
  0.261 -0.000 -0.000  0.000 -0.086
 -0.000  0.329 -0.101  0.000  0.000
 -0.000 -0.101  0.329  0.000  0.000
  0.000  0.000  0.000  0.214  0.000
 -0.086  0.000  0.000  0.000  0.325
atomic mag. moment =     0.000000
atom    6   Tr[ns(na)] (up, down, total) =   1.45803  1.45803  2.91606
   spin  1
    eigenvalues: 
  0.202  0.214  0.227  0.385  0.430
    eigenvectors:
  0.673  0.000  0.000  0.327  0.000
  0.000  0.000  0.500  0.000  0.500
  0.000  0.000  0.500  0.000  0.500
  0.000  1.000  0.000  0.000  0.000
  0.327  0.000  0.000  0.673  0.000
    occupations:
  0.262 -0.000  0.000 -0.000  0.086
 -0.000  0.329  0.101 -0.000 -0.000
  0.000  0.101  0.329 -0.000  0.000
 -0.000 -0.000 -0.000  0.214 -0.000
  0.086 -0.000  0.000 -0.000  0.325
   spin  2
    eigenvalues: 
  0.202  0.214  0.227  0.385  0.430
    eigenvectors:
  0.673  0.000  0.000  0.327  0.000
  0.000  0.000  0.500  0.000  0.500
  0.000  0.000  0.500  0.000  0.500
  0.000  1.000  0.000  0.000  0.000
  0.327  0.000  0.000  0.673  0.000
    occupations:
  0.262 -0.000  0.000 -0.000  0.086
 -0.000  0.329  0.101 -0.000 -0.000
  0.000  0.101  0.329 -0.000  0.000
 -0.000 -0.000 -0.000  0.214 -0.000
  0.086 -0.000  0.000 -0.000  0.325
atomic mag. moment =    -0.000000
atom    7   Tr[ns(na)] (up, down, total) =   1.45771  1.45771  2.91541
   spin  1
    eigenvalues: 
  0.202  0.214  0.227  0.385  0.430
    eigenvectors:
  0.673  0.000  0.000  0.327  0.000
  0.000  0.000  0.500  0.000  0.500
  0.000  0.000  0.500  0.000  0.500
  0.000  1.000  0.000  0.000  0.000
  0.327  0.000  0.000  0.673  0.000
    occupations:
  0.261 -0.000 -0.000 -0.000 -0.086
 -0.000  0.329 -0.101  0.000  0.000
 -0.000 -0.101  0.329  0.000  0.000
 -0.000  0.000  0.000  0.214 -0.000
 -0.086  0.000  0.000 -0.000  0.325
   spin  2
    eigenvalues: 
  0.202  0.214  0.227  0.385  0.430
    eigenvectors:
  0.673  0.000  0.000  0.327  0.000
  0.000  0.000  0.500  0.000  0.500
  0.000  0.000  0.500  0.000  0.500
  0.000  1.000  0.000  0.000  0.000
  0.327  0.000  0.000  0.673  0.000
    occupations:
  0.261 -0.000 -0.000 -0.000 -0.086
 -0.000  0.329 -0.101  0.000  0.000
 -0.000 -0.101  0.329  0.000  0.000
 -0.000  0.000  0.000  0.214 -0.000
 -0.086  0.000  0.000 -0.000  0.325
atomic mag. moment =     0.000000
atom    8   Tr[ns(na)] (up, down, total) =   1.45803  1.45803  2.91606
   spin  1
    eigenvalues: 
  0.202  0.214  0.227  0.385  0.430
    eigenvectors:
  0.673  0.000  0.000  0.327  0.000
  0.000  0.000  0.500  0.000  0.500
  0.000  0.000  0.500  0.000  0.500
  0.000  1.000  0.000  0.000  0.000
  0.327  0.000  0.000  0.673  0.000
    occupations:
  0.262  0.000 -0.000 -0.000  0.086
  0.000  0.329  0.101  0.000  0.000
 -0.000  0.101  0.329  0.000 -0.000
 -0.000  0.000  0.000  0.214 -0.000
  0.086  0.000 -0.000 -0.000  0.325
   spin  2
    eigenvalues: 
  0.202  0.214  0.227  0.385  0.430
    eigenvectors:
  0.673  0.000  0.000  0.327  0.000
  0.000  0.000  0.500  0.000  0.500
  0.000  0.000  0.500  0.000  0.500
  0.000  1.000  0.000  0.000  0.000
  0.327  0.000  0.000  0.673  0.000
    occupations:
  0.262  0.000 -0.000 -0.000  0.086
  0.000  0.329  0.101  0.000  0.000
 -0.000  0.101  0.329  0.000 -0.000
 -0.000  0.000  0.000  0.214 -0.000
  0.086  0.000 -0.000 -0.000  0.325
atomic mag. moment =    -0.000000
atom    9   Tr[ns(na)] (up, down, total) =   1.45774  1.45774  2.91547
   spin  1
    eigenvalues: 
  0.202  0.214  0.227  0.385  0.430
    eigenvectors:
  0.673  0.000  0.000  0.327  0.000
  0.000  0.000  0.500  0.000  0.500
  0.000  0.000  0.500  0.000  0.500
  0.000  1.000  0.000  0.000  0.000
  0.327  0.000  0.000  0.673  0.000
    occupations:
  0.261 -0.000 -0.000 -0.000 -0.086
 -0.000  0.329 -0.101  0.000  0.000
 -0.000 -0.101  0.329  0.000  0.000
 -0.000  0.000  0.000  0.214 -0.000
 -0.086  0.000  0.000 -0.000  0.325
   spin  2
    eigenvalues: 
  0.202  0.214  0.227  0.385  0.430
    eigenvectors:
  0.673  0.000  0.000  0.327  0.000
  0.000  0.000  0.500  0.000  0.500
  0.000  0.000  0.500  0.000  0.500
  0.000  1.000  0.000  0.000  0.000
  0.327  0.000  0.000  0.673  0.000
    occupations:
  0.261 -0.000 -0.000 -0.000 -0.086
 -0.000  0.329 -0.101  0.000  0.000
 -0.000 -0.101  0.329  0.000  0.000
 -0.000  0.000  0.000  0.214 -0.000
 -0.086  0.000  0.000 -0.000  0.325
atomic mag. moment =     0.000000
atom   10   Tr[ns(na)] (up, down, total) =   1.45803  1.45803  2.91606
   spin  1
    eigenvalues: 
  0.202  0.214  0.227  0.385  0.430
    eigenvectors:
  0.673  0.000  0.000  0.327  0.000
  0.000  0.000  0.500  0.000  0.500
  0.000  0.000  0.500  0.000  0.500
  0.000  1.000  0.000  0.000  0.000
  0.327  0.000  0.000  0.673  0.000
    occupations:
  0.262  0.000 -0.000 -0.000  0.086
  0.000  0.329  0.101  0.000  0.000
 -0.000  0.101  0.329  0.000 -0.000
 -0.000  0.000  0.000  0.214 -0.000
  0.086  0.000 -0.000 -0.000  0.325
   spin  2
    eigenvalues: 
  0.202  0.214  0.227  0.385  0.430
    eigenvectors:
  0.673  0.000  0.000  0.327  0.000
  0.000  0.000  0.500  0.000  0.500
  0.000  0.000  0.500  0.000  0.500
  0.000  1.000  0.000  0.000  0.000
  0.327  0.000  0.000  0.673  0.000
    occupations:
  0.262  0.000 -0.000 -0.000  0.086
  0.000  0.329  0.101  0.000  0.000
 -0.000  0.101  0.329  0.000 -0.000
 -0.000  0.000  0.000  0.214 -0.000
  0.086  0.000 -0.000 -0.000  0.325
atomic mag. moment =    -0.000000
atom   11   Tr[ns(na)] (up, down, total) =   1.45771  1.45771  2.91541
   spin  1
    eigenvalues: 
  0.202  0.214  0.227  0.385  0.430
    eigenvectors:
  0.673  0.000  0.000  0.327  0.000
  0.000  0.000  0.500  0.000  0.500
  0.000  0.000  0.500  0.000  0.500
  0.000  1.000  0.000  0.000  0.000
  0.327  0.000  0.000  0.673  0.000
    occupations:
  0.261 -0.000 -0.000  0.000 -0.086
 -0.000  0.329 -0.101  0.000  0.000
 -0.000 -0.101  0.329  0.000  0.000
  0.000  0.000  0.000  0.214  0.000
 -0.086  0.000  0.000  0.000  0.325
   spin  2
    eigenvalues: 
  0.202  0.214  0.227  0.385  0.430
    eigenvectors:
  0.673  0.000  0.000  0.327  0.000
  0.000  0.000  0.500  0.000  0.500
  0.000  0.000  0.500  0.000  0.500
  0.000  1.000  0.000  0.000  0.000
  0.327  0.000  0.000  0.673  0.000
    occupations:
  0.261 -0.000 -0.000  0.000 -0.086
 -0.000  0.329 -0.101  0.000  0.000
 -0.000 -0.101  0.329  0.000  0.000
  0.000  0.000  0.000  0.214  0.000
 -0.086  0.000  0.000  0.000  0.325
atomic mag. moment =     0.000000
atom   12   Tr[ns(na)] (up, down, total) =   1.45803  1.45803  2.91606
   spin  1
    eigenvalues: 
  0.202  0.214  0.227  0.385  0.430
    eigenvectors:
  0.673  0.000  0.000  0.327  0.000
  0.000  0.000  0.500  0.000  0.500
  0.000  0.000  0.500  0.000  0.500
  0.000  1.000  0.000  0.000  0.000
  0.327  0.000  0.000  0.673  0.000
    occupations:
  0.262 -0.000  0.000 -0.000  0.086
 -0.000  0.329  0.101 -0.000 -0.000
  0.000  0.101  0.329 -0.000  0.000
 -0.000 -0.000 -0.000  0.214 -0.000
  0.086 -0.000  0.000 -0.000  0.325
   spin  2
    eigenvalues: 
  0.202  0.214  0.227  0.385  0.430
    eigenvectors:
  0.673  0.000  0.000  0.327  0.000
  0.000  0.000  0.500  0.000  0.500
  0.000  0.000  0.500  0.000  0.500
  0.000  1.000  0.000  0.000  0.000
  0.327  0.000  0.000  0.673  0.000
    occupations:
  0.262 -0.000  0.000 -0.000  0.086
 -0.000  0.329  0.101 -0.000 -0.000
  0.000  0.101  0.329 -0.000  0.000
 -0.000 -0.000 -0.000  0.214 -0.000
  0.086 -0.000  0.000 -0.000  0.325
atomic mag. moment =    -0.000000
atom   13   Tr[ns(na)] (up, down, total) =   1.45777  1.45777  2.91555
   spin  1
    eigenvalues: 
  0.202  0.214  0.227  0.385  0.430
    eigenvectors:
  0.673  0.000  0.000  0.327  0.000
  0.000  0.000  0.500  0.000  0.500
  0.000  0.000  0.500  0.000  0.500
  0.000  1.000  0.000  0.000  0.000
  0.327  0.000  0.000  0.673  0.000
    occupations:
  0.261 -0.000 -0.000  0.000 -0.086
 -0.000  0.329 -0.101  0.000  0.000
 -0.000 -0.101  0.329  0.000  0.000
  0.000  0.000  0.000  0.214 -0.000
 -0.086  0.000  0.000 -0.000  0.325
   spin  2
    eigenvalues: 
  0.202  0.214  0.227  0.385  0.430
    eigenvectors:
  0.673  0.000  0.000  0.327  0.000
  0.000  0.000  0.500  0.000  0.500
  0.000  0.000  0.500  0.000  0.500
  0.000  1.000  0.000  0.000  0.000
  0.327  0.000  0.000  0.673  0.000
    occupations:
  0.261 -0.000 -0.000  0.000 -0.086
 -0.000  0.329 -0.101  0.000  0.000
 -0.000 -0.101  0.329  0.000  0.000
  0.000  0.000  0.000  0.214 -0.000
 -0.086  0.000  0.000 -0.000  0.325
atomic mag. moment =     0.000000
atom   14   Tr[ns(na)] (up, down, total) =   1.45802  1.45802  2.91603
   spin  1
    eigenvalues: 
  0.202  0.214  0.227  0.385  0.430
    eigenvectors:
  0.673  0.000  0.000  0.327  0.000
  0.000  0.000  0.500  0.000  0.500
  0.000  0.000  0.500  0.000  0.500
  0.000  1.000  0.000  0.000  0.000
  0.327  0.000  0.000  0.673  0.000
    occupations:
  0.262  0.000  0.000 -0.000  0.086
  0.000  0.329  0.101  0.000 -0.000
  0.000  0.101  0.329 -0.000 -0.000
 -0.000  0.000 -0.000  0.214 -0.000
  0.086 -0.000 -0.000 -0.000  0.325
   spin  2
    eigenvalues: 
  0.202  0.214  0.227  0.385  0.430
    eigenvectors:
  0.673  0.000  0.000  0.327  0.000
  0.000  0.000  0.500  0.000  0.500
  0.000  0.000  0.500  0.000  0.500
  0.000  1.000  0.000  0.000  0.000
  0.327  0.000  0.000  0.673  0.000
    occupations:
  0.262  0.000  0.000 -0.000  0.086
  0.000  0.329  0.101  0.000 -0.000
  0.000  0.101  0.329 -0.000 -0.000
 -0.000  0.000 -0.000  0.214 -0.000
  0.086 -0.000 -0.000 -0.000  0.325
atomic mag. moment =     0.000000
atom   15   Tr[ns(na)] (up, down, total) =   1.45773  1.45773  2.91547
   spin  1
    eigenvalues: 
  0.202  0.214  0.227  0.385  0.430
    eigenvectors:
  0.673  0.000  0.000  0.327  0.000
  0.000  0.000  0.500  0.000  0.500
  0.000  0.000  0.500  0.000  0.500
  0.000  1.000  0.000  0.000  0.000
  0.327  0.000  0.000  0.673  0.000
    occupations:
  0.261 -0.000 -0.000  0.000 -0.086
 -0.000  0.329 -0.101  0.000  0.000
 -0.000 -0.101  0.329  0.000  0.000
  0.000  0.000  0.000  0.214 -0.000
 -0.086  0.000  0.000 -0.000  0.325
   spin  2
    eigenvalues: 
  0.202  0.214  0.227  0.385  0.430
    eigenvectors:
  0.673  0.000  0.000  0.327  0.000
  0.000  0.000  0.500  0.000  0.500
  0.000  0.000  0.500  0.000  0.500
  0.000  1.000  0.000  0.000  0.000
  0.327  0.000  0.000  0.673  0.000
    occupations:
  0.261 -0.000 -0.000  0.000 -0.086
 -0.000  0.329 -0.101  0.000  0.000
 -0.000 -0.101  0.329  0.000  0.000
  0.000  0.000  0.000  0.214 -0.000
 -0.086  0.000  0.000 -0.000  0.325
atomic mag. moment =     0.000000
atom   16   Tr[ns(na)] (up, down, total) =   1.45802  1.45802  2.91603
   spin  1
    eigenvalues: 
  0.202  0.214  0.227  0.385  0.430
    eigenvectors:
  0.673  0.000  0.000  0.327  0.000
  0.000  0.000  0.500  0.000  0.500
  0.000  0.000  0.500  0.000  0.500
  0.000  1.000  0.000  0.000  0.000
  0.327  0.000  0.000  0.673  0.000
    occupations:
  0.262 -0.000 -0.000 -0.000  0.086
 -0.000  0.329  0.101 -0.000  0.000
 -0.000  0.101  0.329  0.000  0.000
 -0.000 -0.000  0.000  0.214 -0.000
  0.086  0.000  0.000 -0.000  0.325
   spin  2
    eigenvalues: 
  0.202  0.214  0.227  0.385  0.430
    eigenvectors:
  0.673  0.000  0.000  0.327  0.000
  0.000  0.000  0.500  0.000  0.500
  0.000  0.000  0.500  0.000  0.500
  0.000  1.000  0.000  0.000  0.000
  0.327  0.000  0.000  0.673  0.000
    occupations:
  0.262 -0.000 -0.000 -0.000  0.086
 -0.000  0.329  0.101 -0.000  0.000
 -0.000  0.101  0.329  0.000  0.000
 -0.000 -0.000  0.000  0.214 -0.000
  0.086  0.000  0.000 -0.000  0.325
atomic mag. moment =     0.000000
atom   17   Tr[ns(na)] (up, down, total) =   2.70839  2.70839  5.41677
   spin  1
    eigenvalues: 
  0.896  0.904  0.908
    eigenvectors:
  0.000  0.000  1.000
  0.500  0.500  0.000
  0.500  0.500  0.000
    occupations:
  0.908 -0.000 -0.000
 -0.000  0.900 -0.004
 -0.000 -0.004  0.900
   spin  2
    eigenvalues: 
  0.896  0.904  0.908
    eigenvectors:
  0.000  0.000  1.000
  0.500  0.500  0.000
  0.500  0.500  0.000
    occupations:
  0.908 -0.000 -0.000
 -0.000  0.900 -0.004
 -0.000 -0.004  0.900
atomic mag. moment =    -0.000000
atom   18   Tr[ns(na)] (up, down, total) =   2.70839  2.70839  5.41677
   spin  1
    eigenvalues: 
  0.896  0.904  0.908
    eigenvectors:
  0.000  0.000  1.000
  0.500  0.500  0.000
  0.500  0.500  0.000
    occupations:
  0.908 -0.000 -0.000
 -0.000  0.900 -0.004
 -0.000 -0.004  0.900
   spin  2
    eigenvalues: 
  0.896  0.904  0.908
    eigenvectors:
  0.000  0.000  1.000
  0.500  0.500  0.000
  0.500  0.500  0.000
    occupations:
  0.908 -0.000 -0.000
 -0.000  0.900 -0.004
 -0.000 -0.004  0.900
atomic mag. moment =    -0.000000
atom   19   Tr[ns(na)] (up, down, total) =   2.70591  2.70591  5.41183
   spin  1
    eigenvalues: 
  0.895  0.904  0.908
    eigenvectors:
  0.000  0.000  1.000
  0.500  0.500  0.000
  0.500  0.500  0.000
    occupations:
  0.908 -0.000 -0.000
 -0.000  0.899  0.004
 -0.000  0.004  0.899
   spin  2
    eigenvalues: 
  0.895  0.904  0.908
    eigenvectors:
  0.000  0.000  1.000
  0.500  0.500  0.000
  0.500  0.500  0.000
    occupations:
  0.908 -0.000 -0.000
 -0.000  0.899  0.004
 -0.000  0.004  0.899
atomic mag. moment =    -0.000000
atom   20   Tr[ns(na)] (up, down, total) =   2.70591  2.70591  5.41183
   spin  1
    eigenvalues: 
  0.895  0.904  0.908
    eigenvectors:
  0.000  0.000  1.000
  0.500  0.500  0.000
  0.500  0.500  0.000
    occupations:
  0.908 -0.000 -0.000
 -0.000  0.899  0.004
 -0.000  0.004  0.899
   spin  2
    eigenvalues: 
  0.895  0.904  0.908
    eigenvectors:
  0.000  0.000  1.000
  0.500  0.500  0.000
  0.500  0.500  0.000
    occupations:
  0.908 -0.000 -0.000
 -0.000  0.899  0.004
 -0.000  0.004  0.899
atomic mag. moment =    -0.000000
atom   21   Tr[ns(na)] (up, down, total) =   2.70602  2.70602  5.41205
   spin  1
    eigenvalues: 
  0.895  0.904  0.908
    eigenvectors:
  0.000  0.000  1.000
  0.500  0.500  0.000
  0.500  0.500  0.000
    occupations:
  0.908 -0.000 -0.000
 -0.000  0.899 -0.004
 -0.000 -0.004  0.899
   spin  2
    eigenvalues: 
  0.895  0.904  0.908
    eigenvectors:
  0.000  0.000  1.000
  0.500  0.500  0.000
  0.500  0.500  0.000
    occupations:
  0.908 -0.000 -0.000
 -0.000  0.899 -0.004
 -0.000 -0.004  0.899
atomic mag. moment =    -0.000000
atom   22   Tr[ns(na)] (up, down, total) =   2.70602  2.70602  5.41205
   spin  1
    eigenvalues: 
  0.895  0.904  0.908
    eigenvectors:
  0.000  0.000  1.000
  0.500  0.500  0.000
  0.500  0.500  0.000
    occupations:
  0.908 -0.000 -0.000
 -0.000  0.899 -0.004
 -0.000 -0.004  0.899
   spin  2
    eigenvalues: 
  0.895  0.904  0.908
    eigenvectors:
  0.000  0.000  1.000
  0.500  0.500  0.000
  0.500  0.500  0.000
    occupations:
  0.908 -0.000 -0.000
 -0.000  0.899 -0.004
 -0.000 -0.004  0.899
atomic mag. moment =    -0.000000
atom   23   Tr[ns(na)] (up, down, total) =   2.70591  2.70591  5.41183
   spin  1
    eigenvalues: 
  0.895  0.904  0.908
    eigenvectors:
  0.000  0.000  1.000
  0.500  0.500  0.000
  0.500  0.500  0.000
    occupations:
  0.908  0.000  0.000
  0.000  0.899  0.004
  0.000  0.004  0.899
   spin  2
    eigenvalues: 
  0.895  0.904  0.908
    eigenvectors:
  0.000  0.000  1.000
  0.500  0.500  0.000
  0.500  0.500  0.000
    occupations:
  0.908  0.000  0.000
  0.000  0.899  0.004
  0.000  0.004  0.899
atomic mag. moment =    -0.000000
atom   24   Tr[ns(na)] (up, down, total) =   2.70591  2.70591  5.41183
   spin  1
    eigenvalues: 
  0.895  0.904  0.908
    eigenvectors:
  0.000  0.000  1.000
  0.500  0.500  0.000
  0.500  0.500  0.000
    occupations:
  0.908  0.000  0.000
  0.000  0.899  0.004
  0.000  0.004  0.899
   spin  2
    eigenvalues: 
  0.895  0.904  0.908
    eigenvectors:
  0.000  0.000  1.000
  0.500  0.500  0.000
  0.500  0.500  0.000
    occupations:
  0.908  0.000  0.000
  0.000  0.899  0.004
  0.000  0.004  0.899
atomic mag. moment =    -0.000000
atom   25   Tr[ns(na)] (up, down, total) =   2.70586  2.70586  5.41173
   spin  1
    eigenvalues: 
  0.895  0.904  0.908
    eigenvectors:
  0.000  0.000  1.000
  0.499  0.501  0.000
  0.501  0.499  0.000
    occupations:
  0.908 -0.000 -0.000
 -0.000  0.899 -0.004
 -0.000 -0.004  0.899
   spin  2
    eigenvalues: 
  0.895  0.904  0.908
    eigenvectors:
  0.000  0.000  1.000
  0.499  0.501  0.000
  0.501  0.499  0.000
    occupations:
  0.908 -0.000 -0.000
 -0.000  0.899 -0.004
 -0.000 -0.004  0.899
atomic mag. moment =     0.000000
atom   26   Tr[ns(na)] (up, down, total) =   2.70586  2.70586  5.41173
   spin  1
    eigenvalues: 
  0.895  0.904  0.908
    eigenvectors:
  0.000  0.000  1.000
  0.499  0.501  0.000
  0.501  0.499  0.000
    occupations:
  0.908 -0.000 -0.000
 -0.000  0.899 -0.004
 -0.000 -0.004  0.899
   spin  2
    eigenvalues: 
  0.895  0.904  0.908
    eigenvectors:
  0.000  0.000  1.000
  0.499  0.501  0.000
  0.501  0.499  0.000
    occupations:
  0.908 -0.000 -0.000
 -0.000  0.899 -0.004
 -0.000 -0.004  0.899
atomic mag. moment =     0.000000
atom   27   Tr[ns(na)] (up, down, total) =   2.70593  2.70593  5.41187
   spin  1
    eigenvalues: 
  0.895  0.904  0.908
    eigenvectors:
  0.000  0.000  1.000
  0.500  0.500  0.000
  0.500  0.500  0.000
    occupations:
  0.908  0.000 -0.000
  0.000  0.899  0.004
 -0.000  0.004  0.899
   spin  2
    eigenvalues: 
  0.895  0.904  0.908
    eigenvectors:
  0.000  0.000  1.000
  0.500  0.500  0.000
  0.500  0.500  0.000
    occupations:
  0.908  0.000 -0.000
  0.000  0.899  0.004
 -0.000  0.004  0.899
atomic mag. moment =    -0.000000
atom   28   Tr[ns(na)] (up, down, total) =   2.71019  2.71019  5.42038
   spin  1
    eigenvalues: 
  0.896  0.905  0.909
    eigenvectors:
  0.000  0.000  1.000
  0.500  0.500  0.000
  0.500  0.500  0.000
    occupations:
  0.909 -0.000  0.000
 -0.000  0.901  0.005
  0.000  0.005  0.901
   spin  2
    eigenvalues: 
  0.896  0.905  0.909
    eigenvectors:
  0.000  0.000  1.000
  0.500  0.500  0.000
  0.500  0.500  0.000
    occupations:
  0.909 -0.000  0.000
 -0.000  0.901  0.005
  0.000  0.005  0.901
atomic mag. moment =     0.000000
atom   29   Tr[ns(na)] (up, down, total) =   2.70591  2.70591  5.41182
   spin  1
    eigenvalues: 
  0.895  0.904  0.908
    eigenvectors:
  0.000  0.000  1.000
  0.501  0.499  0.000
  0.499  0.501  0.000
    occupations:
  0.908 -0.000 -0.000
 -0.000  0.899 -0.004
 -0.000 -0.004  0.899
   spin  2
    eigenvalues: 
  0.895  0.904  0.908
    eigenvectors:
  0.000  0.000  1.000
  0.501  0.499  0.000
  0.499  0.501  0.000
    occupations:
  0.908 -0.000 -0.000
 -0.000  0.899 -0.004
 -0.000 -0.004  0.899
atomic mag. moment =     0.000000
atom   30   Tr[ns(na)] (up, down, total) =   2.70591  2.70591  5.41182
   spin  1
    eigenvalues: 
  0.895  0.904  0.908
    eigenvectors:
  0.000  0.000  1.000
  0.501  0.499  0.000
  0.499  0.501  0.000
    occupations:
  0.908 -0.000 -0.000
 -0.000  0.899 -0.004
 -0.000 -0.004  0.899
   spin  2
    eigenvalues: 
  0.895  0.904  0.908
    eigenvectors:
  0.000  0.000  1.000
  0.501  0.499  0.000
  0.499  0.501  0.000
    occupations:
  0.908 -0.000 -0.000
 -0.000  0.899 -0.004
 -0.000 -0.004  0.899
atomic mag. moment =     0.000000
atom   31   Tr[ns(na)] (up, down, total) =   2.70593  2.70593  5.41187
   spin  1
    eigenvalues: 
  0.895  0.904  0.908
    eigenvectors:
  0.000  0.000  1.000
  0.500  0.500  0.000
  0.500  0.500  0.000
    occupations:
  0.908 -0.000  0.000
 -0.000  0.899  0.004
  0.000  0.004  0.899
   spin  2
    eigenvalues: 
  0.895  0.904  0.908
    eigenvectors:
  0.000  0.000  1.000
  0.500  0.500  0.000
  0.500  0.500  0.000
    occupations:
  0.908 -0.000  0.000
 -0.000  0.899  0.004
  0.000  0.004  0.899
atomic mag. moment =    -0.000000
atom   32   Tr[ns(na)] (up, down, total) =   2.71019  2.71019  5.42038
   spin  1
    eigenvalues: 
  0.896  0.905  0.909
    eigenvectors:
  0.000  0.000  1.000
  0.500  0.500  0.000
  0.500  0.500  0.000
    occupations:
  0.909  0.000 -0.000
  0.000  0.901  0.005
 -0.000  0.005  0.901
   spin  2
    eigenvalues: 
  0.896  0.905  0.909
    eigenvectors:
  0.000  0.000  1.000
  0.500  0.500  0.000
  0.500  0.500  0.000
    occupations:
  0.909  0.000 -0.000
  0.000  0.901  0.005
 -0.000  0.005  0.901
atomic mag. moment =     0.000000
atom   33   Tr[ns(na)] (up, down, total) =   2.70586  2.70586  5.41173
   spin  1
    eigenvalues: 
  0.895  0.904  0.908
    eigenvectors:
  0.000  0.000  1.000
  0.501  0.499  0.000
  0.499  0.501  0.000
    occupations:
  0.908 -0.000 -0.000
 -0.000  0.899 -0.004
 -0.000 -0.004  0.899
   spin  2
    eigenvalues: 
  0.895  0.904  0.908
    eigenvectors:
  0.000  0.000  1.000
  0.501  0.499  0.000
  0.499  0.501  0.000
    occupations:
  0.908 -0.000 -0.000
 -0.000  0.899 -0.004
 -0.000 -0.004  0.899
atomic mag. moment =     0.000000
atom   34   Tr[ns(na)] (up, down, total) =   2.70586  2.70586  5.41173
   spin  1
    eigenvalues: 
  0.895  0.904  0.908
    eigenvectors:
  0.000  0.000  1.000
  0.501  0.499  0.000
  0.499  0.501  0.000
    occupations:
  0.908 -0.000 -0.000
 -0.000  0.899 -0.004
 -0.000 -0.004  0.899
   spin  2
    eigenvalues: 
  0.895  0.904  0.908
    eigenvectors:
  0.000  0.000  1.000
  0.501  0.499  0.000
  0.499  0.501  0.000
    occupations:
  0.908 -0.000 -0.000
 -0.000  0.899 -0.004
 -0.000 -0.004  0.899
atomic mag. moment =     0.000000
atom   35   Tr[ns(na)] (up, down, total) =   2.71019  2.71019  5.42038
   spin  1
    eigenvalues: 
  0.896  0.905  0.909
    eigenvectors:
  0.000  0.000  1.000
  0.500  0.500  0.000
  0.500  0.500  0.000
    occupations:
  0.909  0.000 -0.000
  0.000  0.901  0.005
 -0.000  0.005  0.901
   spin  2
    eigenvalues: 
  0.896  0.905  0.909
    eigenvectors:
  0.000  0.000  1.000
  0.500  0.500  0.000
  0.500  0.500  0.000
    occupations:
  0.909  0.000 -0.000
  0.000  0.901  0.005
 -0.000  0.005  0.901
atomic mag. moment =     0.000000
atom   36   Tr[ns(na)] (up, down, total) =   2.70593  2.70593  5.41187
   spin  1
    eigenvalues: 
  0.895  0.904  0.908
    eigenvectors:
  0.000  0.000  1.000
  0.500  0.500  0.000
  0.500  0.500  0.000
    occupations:
  0.908 -0.000  0.000
 -0.000  0.899  0.004
  0.000  0.004  0.899
   spin  2
    eigenvalues: 
  0.895  0.904  0.908
    eigenvectors:
  0.000  0.000  1.000
  0.500  0.500  0.000
  0.500  0.500  0.000
    occupations:
  0.908 -0.000  0.000
 -0.000  0.899  0.004
  0.000  0.004  0.899
atomic mag. moment =    -0.000000
atom   37   Tr[ns(na)] (up, down, total) =   2.70591  2.70591  5.41182
   spin  1
    eigenvalues: 
  0.895  0.904  0.908
    eigenvectors:
  0.000  0.000  1.000
  0.499  0.501  0.000
  0.501  0.499  0.000
    occupations:
  0.908 -0.000 -0.000
 -0.000  0.899 -0.004
 -0.000 -0.004  0.899
   spin  2
    eigenvalues: 
  0.895  0.904  0.908
    eigenvectors:
  0.000  0.000  1.000
  0.499  0.501  0.000
  0.501  0.499  0.000
    occupations:
  0.908 -0.000 -0.000
 -0.000  0.899 -0.004
 -0.000 -0.004  0.899
atomic mag. moment =     0.000000
atom   38   Tr[ns(na)] (up, down, total) =   2.70591  2.70591  5.41182
   spin  1
    eigenvalues: 
  0.895  0.904  0.908
    eigenvectors:
  0.000  0.000  1.000
  0.499  0.501  0.000
  0.501  0.499  0.000
    occupations:
  0.908 -0.000 -0.000
 -0.000  0.899 -0.004
 -0.000 -0.004  0.899
   spin  2
    eigenvalues: 
  0.895  0.904  0.908
    eigenvectors:
  0.000  0.000  1.000
  0.499  0.501  0.000
  0.501  0.499  0.000
    occupations:
  0.908 -0.000 -0.000
 -0.000  0.899 -0.004
 -0.000 -0.004  0.899
atomic mag. moment =     0.000000
atom   39   Tr[ns(na)] (up, down, total) =   2.71019  2.71019  5.42038
   spin  1
    eigenvalues: 
  0.896  0.905  0.909
    eigenvectors:
  0.000  0.000  1.000
  0.500  0.500  0.000
  0.500  0.500  0.000
    occupations:
  0.909 -0.000  0.000
 -0.000  0.901  0.005
  0.000  0.005  0.901
   spin  2
    eigenvalues: 
  0.896  0.905  0.909
    eigenvectors:
  0.000  0.000  1.000
  0.500  0.500  0.000
  0.500  0.500  0.000
    occupations:
  0.909 -0.000  0.000
 -0.000  0.901  0.005
  0.000  0.005  0.901
atomic mag. moment =     0.000000
atom   40   Tr[ns(na)] (up, down, total) =   2.70593  2.70593  5.41187
   spin  1
    eigenvalues: 
  0.895  0.904  0.908
    eigenvectors:
  0.000  0.000  1.000
  0.500  0.500  0.000
  0.500  0.500  0.000
    occupations:
  0.908  0.000 -0.000
  0.000  0.899  0.004
 -0.000  0.004  0.899
   spin  2
    eigenvalues: 
  0.895  0.904  0.908
    eigenvectors:
  0.000  0.000  1.000
  0.500  0.500  0.000
  0.500  0.500  0.000
    occupations:
  0.908  0.000 -0.000
  0.000  0.899  0.004
 -0.000  0.004  0.899
atomic mag. moment =    -0.000000
atom   41   Tr[ns(na)] (up, down, total) =   2.70585  2.70585  5.41170
   spin  1
    eigenvalues: 
  0.895  0.903  0.908
    eigenvectors:
  0.000  0.000  1.000
  0.500  0.500  0.000
  0.500  0.500  0.000
    occupations:
  0.908 -0.000 -0.000
 -0.000  0.899 -0.004
 -0.000 -0.004  0.899
   spin  2
    eigenvalues: 
  0.895  0.903  0.908
    eigenvectors:
  0.000  0.000  1.000
  0.500  0.500  0.000
  0.500  0.500  0.000
    occupations:
  0.908 -0.000 -0.000
 -0.000  0.899 -0.004
 -0.000 -0.004  0.899
atomic mag. moment =    -0.000000
atom   42   Tr[ns(na)] (up, down, total) =   2.70585  2.70585  5.41170
   spin  1
    eigenvalues: 
  0.895  0.903  0.908
    eigenvectors:
  0.000  0.000  1.000
  0.500  0.500  0.000
  0.500  0.500  0.000
    occupations:
  0.908 -0.000 -0.000
 -0.000  0.899 -0.004
 -0.000 -0.004  0.899
   spin  2
    eigenvalues: 
  0.895  0.903  0.908
    eigenvectors:
  0.000  0.000  1.000
  0.500  0.500  0.000
  0.500  0.500  0.000
    occupations:
  0.908 -0.000 -0.000
 -0.000  0.899 -0.004
 -0.000 -0.004  0.899
atomic mag. moment =    -0.000000
atom   43   Tr[ns(na)] (up, down, total) =   2.70591  2.70591  5.41183
   spin  1
    eigenvalues: 
  0.895  0.904  0.908
    eigenvectors:
  0.000  0.000  1.000
  0.500  0.500  0.000
  0.500  0.500  0.000
    occupations:
  0.908  0.000  0.000
  0.000  0.899  0.004
  0.000  0.004  0.899
   spin  2
    eigenvalues: 
  0.895  0.904  0.908
    eigenvectors:
  0.000  0.000  1.000
  0.500  0.500  0.000
  0.500  0.500  0.000
    occupations:
  0.908  0.000  0.000
  0.000  0.899  0.004
  0.000  0.004  0.899
atomic mag. moment =    -0.000000
atom   44   Tr[ns(na)] (up, down, total) =   2.70591  2.70591  5.41183
   spin  1
    eigenvalues: 
  0.895  0.904  0.908
    eigenvectors:
  0.000  0.000  1.000
  0.500  0.500  0.000
  0.500  0.500  0.000
    occupations:
  0.908  0.000  0.000
  0.000  0.899  0.004
  0.000  0.004  0.899
   spin  2
    eigenvalues: 
  0.895  0.904  0.908
    eigenvectors:
  0.000  0.000  1.000
  0.500  0.500  0.000
  0.500  0.500  0.000
    occupations:
  0.908  0.000  0.000
  0.000  0.899  0.004
  0.000  0.004  0.899
atomic mag. moment =    -0.000000
atom   45   Tr[ns(na)] (up, down, total) =   2.70589  2.70589  5.41178
   spin  1
    eigenvalues: 
  0.895  0.903  0.908
    eigenvectors:
  0.000  0.000  1.000
  0.500  0.500  0.000
[...]
    36.5818  36.5857  36.5878  36.5898  36.5901  36.5903  36.5903  36.5904
    37.0054  37.0079  37.0090  37.0114  37.0124  37.0128  37.0129  37.0142
    38.0916  38.0939  38.0956  38.0958  38.0961  38.0979  38.0979  38.0981
    39.0053  39.0064  39.0082  39.0082  39.0097  39.0109  39.0113  39.0118
    39.1136  39.1191  39.1193  39.1194  39.1199  39.1200  39.1211  39.1213
    40.8479  40.8488  40.8507  40.8514  40.8515  40.8526  40.8526  40.8535
    41.1429  41.1452  41.1469  41.1470  41.1474  41.1474  41.1483  41.1483
    42.5251  42.5273  42.5309  42.5309  42.5310  42.5315  42.5327  42.5331
    43.4246  43.4298  43.4305  43.4307  43.4316  43.4326  43.4328  43.4331
    43.7072  43.7103  43.7112  43.7115  43.7132  43.7134  43.7140  43.7144
    44.5784  44.5818  44.5835  44.5866  44.5869  44.5871  44.5872  44.5877
    44.7161  44.7188  44.7190  44.7197  44.7201  44.7217  44.7218  44.7223
    45.8641  45.8643  45.8677  45.8681  45.8693  45.8699  45.8700  45.8705
    46.0931  46.0982  46.0988  46.0997  46.1007  46.1008  46.1011  46.1015
    46.1995  46.2000  46.2028  46.2072  46.2072  46.2075  46.2078  46.2079
    46.6738  46.6748  46.6775  46.6779  46.6780  46.6790  46.6795  46.6795

          k =-0.2500 0.2500 0.0000 ( 14835 PWs)   bands (ev):

   -48.3132 -48.1812 -48.1778 -48.1774 -48.1758 -48.1742 -48.1725 -48.1701
   -48.1529 -48.1372 -48.1361 -48.1360 -48.1355 -48.1355 -48.1343 -48.1343
   -24.8074 -24.7307 -24.7290 -24.7268 -24.7248 -24.7237 -24.7224 -24.7217
   -24.5744 -24.5310 -24.4939 -24.4810 -24.4766 -24.4745 -24.4583 -24.4543
   -24.4530 -24.3975 -24.3696 -24.3593 -24.3494 -24.3490 -24.3484 -24.3477
   -24.3474 -24.3467 -24.3467 -24.3467 -24.3460 -24.3459 -24.3438 -24.3406
   -24.3369 -24.3357 -24.3344 -24.3340 -24.3333 -24.3309 -24.3285 -24.3283
   -24.3269 -24.2829 -24.2767 -24.2751 -24.2715 -24.2681 -24.2657 -24.2597
    -9.2754  -8.9453  -8.9450  -8.8320  -8.6459  -8.4992  -8.4987  -8.2944
    -8.2929  -8.2909  -8.2279  -8.2141  -8.2106  -8.1991  -8.1219  -8.0646
    -7.8835  -7.8115  -7.7379  -7.7228  -7.7202  -7.7060  -7.7046  -7.6985
    -7.6701  -7.6377  -7.6360  -7.6215  -7.6198  -7.6076  -7.5996  -7.5257
     3.1853   3.2901   3.5018   3.5050   3.5355   3.6167   3.8121   3.8158
     3.8238   3.8269   3.8594   3.9916   3.9924   4.1190   4.2185   4.2624
     4.3624   4.4606   4.6298   4.7925   4.8203   4.8463   4.8482   4.8551
     4.8617   4.8748   4.8788   4.8796   4.9015   4.9098   4.9107   4.9538
     4.9571   4.9999   5.0008   5.0679   5.1740   5.1926   5.1940   5.3857
     5.5210   5.7949   5.7951   5.8979   5.8985   5.9663   5.9694   6.0144
     6.0151   6.0364   6.0649   6.0672   6.0805   6.0844   6.1114   6.1133
     6.2391   6.3061   6.3072   6.5041   6.6814   6.6825   6.6889   6.7422
     6.7434   6.8605   6.9389   7.0033   7.0344   7.0400   7.0413   7.1031
     7.1054   7.2272   7.2801   7.2832   7.3880   7.4583   7.4597   7.4607
     7.4768   7.4770   7.4940   7.6507   7.6521   7.6905   7.6907   7.7156
     7.7343   7.8643   7.9442   7.9730   8.0696   8.1199   8.1200   8.5582
    10.7007  10.7037  10.7354  10.7360  10.8540  10.9354  10.9364  11.0643
    11.0655  11.0762  11.1865  11.2200  11.2303  11.2449  11.2769  11.3918
    11.3930  11.4225  11.4226  11.4230  11.4249  11.4295  11.4821  11.6317
    11.6320  11.8222  11.8303  11.8458  11.8470  11.8506  11.8512  11.8589
    11.8641  11.9733  11.9734  11.9837  12.2666  12.3119  12.3645  12.3852
    12.3862  12.5620  12.5941  12.6088  12.6102  12.6194  12.6206  13.0391
    13.0740  13.5151  13.5186  13.6282  13.7823  13.7926  13.7945  13.9077
    13.9105  14.0671  14.0937  14.3121  14.5749  14.7512  14.7669  15.0640
    15.0681  15.1585  15.1596  15.2211  15.2874  15.3002  15.3041  15.3047
    15.3115  15.3138  15.3167  15.4311  15.4382  15.6216  15.6262  15.7714
    16.8577  18.0449  18.0474  19.0208  19.5233  19.5257  19.9024  20.2949
    20.3497  20.4058  20.6019  20.6030  20.7249  20.7998  20.9461  20.9491
    21.0086  21.1997  21.2701  21.2704  21.8988  22.2413  22.3113  22.3122
    22.6929  22.6950  22.9209  22.9216  22.9287  23.1495  23.1900  23.2591
    23.3596  23.5158  23.7226  23.7785  23.7804  24.0117  24.2586  24.2767
    24.4526  24.4554  24.6619  24.6641  24.6724  24.6739  24.7077  25.0057
    25.3760  25.4939  25.4947  25.5165  25.5752  25.9866  26.0077  26.0126
    26.1086  26.1178  26.1182  26.4744  26.4745  26.4893  26.4898  26.5032
    26.5444  26.5551  26.7649  26.9201  27.1236  27.1246  27.2529  27.2571
    27.2987  27.4969  27.5040  27.7256  28.1016  28.1065  28.1596  28.3534
    28.3881  28.3902  28.4369  28.6847  29.4105  29.4123  29.4816  29.4825
    29.6134  30.0393  30.1224  30.1619  30.1772  30.2199  30.5779  30.6675
    30.6683  30.7842  30.8650  30.8892  30.8907  31.0268  31.0328  31.1952
    31.2114  31.2130  31.2438  31.2903  31.3425  31.6767  31.9040  31.9120
    31.9157  31.9336  31.9381  32.0136  32.4375  32.4395  32.6369  32.7875
    33.1512  33.2200  33.2238  33.4037  33.5865  33.5893  33.7467  33.7502
    33.9474  33.9681  33.9887  33.9892  34.0661  34.3565  34.3582  34.5493
    34.8411  34.8905  34.9466  34.9622  34.9638  35.1328  35.1346  35.4835
    35.6635  35.8548  35.9156  36.0366  36.0387  36.2420  36.2431  36.2743
    36.3405  36.3442  36.3666  36.4438  36.4869  36.4879  36.6248  36.6291
    36.7777  36.8962  37.0129  37.2701  37.2724  37.3985  37.6740  37.6746
    37.7125  38.0496  38.3561  38.4879  38.6140  38.6153  38.9392  38.9419
    39.4263  39.4487  39.4971  39.5019  39.5434  39.8247  39.8249  39.8650
    39.9417  40.1101  40.1127  40.1178  40.1980  40.1997  40.2226  40.2549
    40.3592  40.3600  40.3771  40.5217  40.5219  40.5634  40.5995  40.6018
    40.6060  40.6872  40.8405  40.8463  40.9435  40.9466  40.9520  40.9718
    41.2937  41.4942  41.5212  41.6160  41.6194  41.7423  41.7713  42.0386
    42.2366  42.2383  42.3247  42.5830  42.6282  42.8795  42.8818  42.9989
    43.0026  43.0175  43.2600  43.4300  43.4560  43.4581  43.4753  43.4789
    43.5978  43.7079  43.7107  43.7428  43.8227  44.0438  44.0575  44.0626
    44.1336  44.4392  44.4423  44.4434  44.5923  44.7163  44.7171  44.7582
    44.9613  44.9624  45.1197  45.1752  45.1754  45.1807  45.1882  45.2747
    45.3173  45.3473  45.4019  45.5445  45.5865  45.5880  45.6916  45.6952
    45.8831  45.8848  45.9980  46.2507  46.3724  46.3728  46.3856  46.6380
    46.8432  46.9211  46.9890  47.0176  47.0212  47.1075  47.3354  47.5105

          k =-0.2500 0.2500-0.3914 ( 14814 PWs)   bands (ev):

   -48.3119 -48.1750 -48.1718 -48.1714 -48.1699 -48.1685 -48.1669 -48.1647
   -48.1543 -48.1441 -48.1424 -48.1421 -48.1416 -48.1410 -48.1397 -48.1389
   -24.7484 -24.6684 -24.6665 -24.6640 -24.6616 -24.6610 -24.6582 -24.6559
   -24.5651 -24.5223 -24.4769 -24.4654 -24.4611 -24.4592 -24.4515 -24.4401
   -24.4389 -24.4085 -24.4009 -24.3835 -24.3806 -24.3773 -24.3754 -24.3728
   -24.3720 -24.3628 -24.3625 -24.3608 -24.3588 -24.3551 -24.3541 -24.3448
   -24.3402 -24.3376 -24.3338 -24.3330 -24.3324 -24.3306 -24.3290 -24.3280
   -24.3276 -24.3271 -24.3263 -24.3242 -24.3240 -24.3226 -24.3223 -24.3220
    -9.1163  -8.8045  -8.8039  -8.6934  -8.5165  -8.3770  -8.3767  -8.2860
    -8.2722  -8.2719  -8.1860  -8.1819  -8.1586  -8.1546  -8.0471  -7.9931
    -7.9867  -7.9561  -7.8437  -7.8437  -7.8162  -7.7753  -7.7739  -7.7503
    -7.7398  -7.7353  -7.7346  -7.6916  -7.6911  -7.6835  -7.6760  -7.6056
     3.3953   3.4772   3.6959   3.6983   3.7267   3.8038   4.0281   4.0310
     4.0357   4.0843   4.0870   4.1949   4.2234   4.2251   4.3051   4.3583
     4.3647   4.4674   4.4944   4.5205   4.5461   4.5474   4.5689   4.5728
     4.5994   4.6001   4.6639   4.7329   4.7331   4.7788   4.8294   4.8616
     4.8617   5.0537   5.0542   5.1918   5.1922   5.3149   5.3156   5.4331
     5.4695   5.6151   5.6172   5.8213   5.8550   5.9999   6.0006   6.0966
     6.0976   6.1165   6.1633   6.1645   6.3052   6.3361   6.3363   6.4252
     6.4257   6.4421   6.4430   6.5039   6.5060   6.5344   6.6197   6.6559
     6.7475   6.7496   6.7551   6.7919   6.7930   6.9280   7.0071   7.0086
     7.0241   7.1018   7.1184   7.1501   7.1511   7.2050   7.2176   7.3108
     7.3191   7.3619   7.3631   7.6163   7.7169   7.7178   7.7476   7.7480
     7.7941   7.8940   7.8946   7.9095   7.9297   8.0794   8.0797   8.4261
    10.7513  10.7536  10.9118  10.9830  11.0264  11.0286  11.1473  11.2330
    11.2338  11.2641  11.2648  11.3132  11.3352  11.4205  11.4207  11.4269
    11.4855  11.5138  11.5337  11.5340  11.5364  11.5482  11.6051  11.7287
    11.7649  11.7656  11.8086  11.8092  11.8358  11.8707  11.9114  11.9393
    11.9543  11.9548  11.9563  11.9567  12.1467  12.1871  12.2690  12.3126
    12.3135  12.4134  12.4976  12.5053  12.5066  12.5141  12.5154  12.9153
    13.2765  13.5201  13.5235  13.7032  13.8441  13.8462  13.8469  13.9365
    13.9395  14.1246  14.1745  14.3653  14.5148  14.5733  14.5758  14.7243
    14.7391  14.9051  15.0362  15.0424  15.1125  15.1688  15.1734  15.1860
    15.1877  15.1959  15.2134  15.2835  15.2874  15.5141  15.5188  15.6766
    17.3277  18.4529  18.4551  19.3018  19.6515  19.8933  19.8957  20.0432
    20.0440  20.1360  20.1751  20.7054  20.8532  20.9692  21.0650  21.0667
    21.5208  21.7146  21.7147  22.0734  22.2309  22.4875  22.5967  22.5980
    22.6145  23.0266  23.0284  23.0570  23.1899  23.4337  23.4441  23.4453
    23.6955  23.7534  23.9154  23.9187  23.9197  23.9760  23.9975  24.1075
    24.2023  24.2051  24.4782  24.4807  24.5844  24.6412  24.6415  25.0926
    25.2074  25.2105  25.4548  25.6244  25.7668  25.7678  25.8973  26.1914
    26.2020  26.2082  26.2298  26.3693  26.3775  26.4078  26.4083  26.4567
    26.4869  26.6104  26.6329  26.6335  26.9005  27.0149  27.0244  27.0281
    27.3098  27.3116  27.3432  27.4374  27.4390  27.6619  27.7998  27.9465
    28.2816  28.2824  28.2850  28.5442  28.5487  28.7597  28.7622  28.9606
    29.2374  29.2385  29.7444  29.7476  29.8189  30.2172  30.2183  30.6172
    30.7243  30.7256  30.8897  31.0077  31.0125  31.2712  31.3243  31.4007
    31.4593  31.6150  31.6703  31.7667  31.7670  31.9770  31.9798  32.2082
    32.2086  32.3316  32.4027  32.6819  32.7531  32.7549  32.7677  32.7903
    33.2701  33.3192  33.3327  33.4280  33.7958  33.7961  33.8312  34.0511
    34.0518  34.2452  34.2481  34.4417  34.4425  34.5261  34.5748  34.6898
    34.7409  34.7490  34.9234  34.9239  34.9482  35.2227  35.2245  35.4925
    35.4974  35.5819  35.6147  35.6351  35.7925  35.8262  36.0542  36.1884
    36.1904  36.3119  36.3152  36.6980  36.6999  36.7062  36.7186  36.8847
    37.0967  37.0988  37.1494  37.1531  37.3046  37.3970  37.6632  37.6715
    37.7275  37.7280  37.9263  37.9350  37.9363  38.0997  38.1723  38.3608
    38.3656  38.3673  38.4151  38.4169  38.4848  38.6679  39.1431  39.2298
    39.2739  39.4536  39.8327  39.8328  39.8425  39.8443  40.0566  40.2233
    40.3549  40.3561  40.3696  40.5491  40.7495  40.9494  41.0336  41.1624
    41.1652  41.3809  41.3830  41.4954  41.5896  41.5903  41.6737  41.7160
    41.7589  41.7611  41.9144  42.2514  42.3401  42.4598  42.5254  42.6049
    42.6166  42.7575  42.7577  42.8356  42.8836  42.8881  42.9409  43.1378
    43.2288  43.2801  43.2807  43.3673  43.3698  43.4513  43.4989  43.5389
    43.5764  43.5777  43.9854  44.3759  44.5555  44.5584  44.5860  44.6417
    44.6418  44.6796  44.6826  44.7739  44.8318  44.8596  44.9770  44.9780
    45.1365  45.3271  45.3926  45.4209  45.4536  45.4563  45.4986  45.6292
    45.6300  45.7574  45.7995  45.8008  45.9771  45.9987  46.0013  46.0208
    46.2891  46.2897  46.3984  46.4036  46.5593  46.5620  46.5654  46.5739
    46.6366  46.7675  46.7688  46.9022  46.9537  46.9572  47.0632  47.1373

          k =-0.2500 0.2500 0.7828 ( 14778 PWs)   bands (ev):

   -48.3107 -48.1602 -48.1598 -48.1579 -48.1572 -48.1572 -48.1569 -48.1563
   -48.1558 -48.1550 -48.1547 -48.1541 -48.1533 -48.1532 -48.1515 -48.1512
   -24.6487 -24.5572 -24.5365 -24.5141 -24.5140 -24.5133 -24.5113 -24.5106
   -24.5075 -24.5065 -24.5065 -24.5057 -24.5050 -24.5021 -24.5009 -24.4962
   -24.4950 -24.4889 -24.4364 -24.4331 -24.4309 -24.4215 -24.4203 -24.4189
   -24.4171 -24.4171 -24.4156 -24.4147 -24.4054 -24.4002 -24.3996 -24.3990
   -24.3987 -24.3449 -24.3431 -24.3430 -24.3425 -24.3336 -24.3322 -24.3317
   -24.3315 -24.3308 -24.3305 -24.3294 -24.3291 -24.3230 -24.3203 -24.3197
    -8.7133  -8.7123  -8.4735  -8.4724  -8.4718  -8.4713  -8.3591  -8.3588
    -8.2151  -8.2138  -8.1243  -8.1243  -8.1233  -8.1226  -7.9467  -7.9440
    -7.9002  -7.9001  -7.8995  -7.8967  -7.8891  -7.8868  -7.8665  -7.8652
    -7.8557  -7.8530  -7.8442  -7.8441  -7.8439  -7.8382  -7.7978  -7.7966
     3.9226   3.9230   3.9377   3.9379   4.1542   4.1564   4.1565   4.1584
     4.1879   4.1907   4.1955   4.1989   4.2542   4.2581   4.2817   4.2844
     4.3704   4.3711   4.3724   4.3743   4.4311   4.4328   4.4675   4.4713
     4.4715   4.4739   4.6757   4.6763   4.6766   4.6787   4.7283   4.7301
     5.1381   5.1400   5.1788   5.1810   5.1812   5.1839   5.3771   5.3780
     5.5614   5.5624   5.5625   5.5625   5.6694   5.6702   5.9078   5.9082
     5.9082   5.9111   5.9624   5.9630   5.9901   5.9905   6.3559   6.3565
     6.4867   6.4867   6.4874   6.4875   6.7302   6.7325   6.7328   6.7338
     6.7860   6.7883   6.8346   6.8347   6.9180   6.9191   6.9872   6.9891
     7.1335   7.1343   7.1345   7.1347   7.1524   7.1547   7.2530   7.2548
     7.2879   7.2911   7.3668   7.3673   7.5404   7.5407   7.5411   7.5417
     7.6439   7.6448   7.9630   7.9639   7.9640   7.9641   8.2530   8.2532
    10.8879  10.8891  11.1024  11.1025  11.1027  11.1052  11.3534  11.3548
    11.4046  11.4047  11.4198  11.4199  11.5190  11.5195  11.5198  11.5207
    11.6535  11.6546  11.7087  11.7108  11.7108  11.7111  11.7141  11.7174
    11.7250  11.7259  11.8215  11.8217  11.9204  11.9212  11.9357  11.9365
    11.9435  11.9442  11.9447  11.9447  12.1393  12.1398  12.1403  12.1403
    12.1404  12.1406  12.3641  12.3649  12.3659  12.3660  12.5970  12.5976
    13.6521  13.6533  13.7432  13.7473  13.7487  13.7488  14.0529  14.0555
    14.0567  14.0568  14.0777  14.0787  14.3767  14.3773  14.4089  14.4126
    14.8255  14.8263  14.8323  14.8328  14.9238  14.9274  14.9307  14.9308
    15.0596  15.0618  15.3522  15.3560  15.3593  15.3594  15.3600  15.3600
    18.3928  18.3953  19.2499  19.2521  19.2528  19.2538  19.8124  19.8135
    20.5157  20.5187  20.5809  20.5833  20.5838  20.5847  21.8153  21.8170
    22.1462  22.1502  22.2346  22.2376  22.7275  22.7280  22.7293  22.7302
    22.9669  22.9691  23.4931  23.4952  23.5086  23.5118  23.7634  23.7658
    23.7663  23.7676  23.9069  23.9088  23.9119  23.9126  23.9179  23.9208
    24.0068  24.0068  24.2861  24.2877  24.2884  24.2897  25.3250  25.3294
    25.3301  25.3310  25.3367  25.3387  25.5922  25.5936  25.7783  25.7818
    25.9328  25.9348  25.9886  25.9888  25.9920  25.9922  26.4068  26.4101
    26.5771  26.5851  26.5853  26.5861  26.8013  26.8032  27.0545  27.0583
    27.0960  27.1020  27.2107  27.2111  27.7226  27.7247  27.7262  27.7276
    27.9152  27.9179  28.3887  28.3897  28.4411  28.4436  28.4439  28.4476
    29.1404  29.1473  29.3300  29.3364  29.3367  29.3370  30.3254  30.3291
    30.3962  30.3962  30.3967  30.4001  30.9174  30.9193  31.3161  31.3220
    31.8973  31.8991  32.3246  32.3252  32.3265  32.3289  32.7943  32.7966
    33.0428  33.0435  33.0662  33.0692  33.1051  33.1080  33.1096  33.1130
    33.2880  33.2882  33.2883  33.2886  33.8541  33.8597  33.8598  33.8601
    34.0033  34.0046  34.4493  34.4506  34.4512  34.4515  34.4971  34.4994
    35.0109  35.0136  35.0140  35.0144  35.0381  35.0398  35.1804  35.1805
    35.7072  35.7086  35.7103  35.7125  35.7350  35.7370  36.3058  36.3128
    36.3130  36.3137  36.3565  36.3572  36.5302  36.5309  36.8670  36.8679
    36.9244  36.9286  36.9289  36.9302  36.9332  36.9333  37.2836  37.2859
    37.3014  37.3032  37.6722  37.6747  37.8531  37.8533  37.8533  37.8542
    38.0887  38.0890  38.0901  38.0909  38.3816  38.3834  39.2132  39.2145
    39.7438  39.7456  39.7465  39.7474  39.8827  39.8832  40.2581  40.2600
    40.4606  40.4616  40.5375  40.5382  40.5419  40.5428  40.5436  40.5447
    40.8502  40.8532  40.8696  40.8711  41.5245  41.5250  41.5251  41.5257
    42.4367  42.4374  42.4394  42.4404  42.4845  42.4856  42.7247  42.7288
    43.0279  43.0336  43.6643  43.6646  43.7375  43.7377  43.7460  43.7464
    43.7478  43.7479  43.9765  43.9768  43.9771  43.9800  43.9989  44.0016
    44.1268  44.1268  44.1496  44.1518  44.4732  44.4743  44.8301  44.8323
    44.8343  44.8343  45.0048  45.0053  45.0063  45.0070  45.3311  45.3325
    45.4677  45.4712  45.6171  45.6175  45.6193  45.6195  45.7231  45.7235
    45.8163  45.8200  45.9662  45.9688  45.9718  45.9726  46.0234  46.0236
    46.3046  46.3065  46.4756  46.4807  46.4809  46.4811  46.5707  46.5718
    46.5950  46.5987  46.6305  46.6307  46.6313  46.6330  46.8376  46.8403

     the Fermi energy is    10.6153 ev

!    total energy              =   -2931.94516774 Ry
     Harris-Foulkes estimate   =   -2931.94516811 Ry
     estimated scf accuracy    <       0.00000041 Ry

     The total energy is the sum of the following terms:

     one-electron contribution =   -1044.07216636 Ry
     hartree contribution      =     704.60106689 Ry
     xc contribution           =    -505.96467284 Ry
     ewald contribution        =   -2086.54328247 Ry
     Hubbard energy            =       0.03187994 Ry
     smearing contrib. (-TS)   =       0.00200709 Ry

     total magnetization       =    -0.00 Bohr mag/cell
     absolute magnetization    =     0.00 Bohr mag/cell

     convergence has been achieved in   6 iterations

     Writing output data file pwscf.save

     init_run     :     32.97s CPU     40.25s WALL (       1 calls)
     electrons    :   9264.98s CPU  10847.33s WALL (       1 calls)

     Called by init_run:
     wfcinit      :     16.23s CPU     18.95s WALL (       1 calls)
     potinit      :      1.24s CPU      2.08s WALL (       1 calls)

     Called by electrons:
     c_bands      :   8721.82s CPU   9996.13s WALL (       6 calls)
     sum_band     :    442.97s CPU    742.56s WALL (       6 calls)
     v_of_rho     :      3.80s CPU      5.71s WALL (       7 calls)
     newd         :    108.25s CPU    115.26s WALL (       7 calls)
     mix_rho      :      0.49s CPU      0.85s WALL (       6 calls)

     Called by c_bands:
     init_us_2    :      2.90s CPU      3.12s WALL (     546 calls)
     cegterg      :   8708.19s CPU   9906.41s WALL (     252 calls)

     Called by *egterg:
     h_psi        :   1853.80s CPU   2727.03s WALL (     933 calls)
     s_psi        :    182.60s CPU    182.90s WALL (     975 calls)
     g_psi        :      2.26s CPU      2.27s WALL (     681 calls)
     cdiaghg      :   5674.57s CPU   5751.73s WALL (     891 calls)

     Called by h_psi:
     add_vuspsi   :    176.92s CPU    177.48s WALL (     933 calls)
     vhpsi        :    435.42s CPU    531.63s WALL (     933 calls)

     General routines
     calbec       :    534.04s CPU    709.71s WALL (    2412 calls)
     fft          :      6.36s CPU     11.56s WALL (     205 calls)
     ffts         :      0.14s CPU      0.24s WALL (      26 calls)
     fftw         :   1184.28s CPU   2088.29s WALL (  759152 calls)
     interpolate  :      0.73s CPU      1.27s WALL (      26 calls)
     davcio       :      1.74s CPU    164.26s WALL (    1596 calls)

     Parallel routines
     fft_scatter  :    853.84s CPU   1754.37s WALL (  759383 calls)
     Hubbard U routines
     new_ns       :     64.53s CPU    181.60s WALL (       6 calls)
     vhpsi        :    435.42s CPU    531.63s WALL (     933 calls)

     PWSCF        :     2h34m CPU        3h 1m WALL


   This run was terminated on:   4:36: 6  12Feb2014            

=------------------------------------------------------------------------------=
   JOB DONE.
=------------------------------------------------------------------------------=
