ScientificPython/2.8-dl160g6-numpy-1.7.1-1(15):ERROR:151: Module 'ScientificPython/2.8-dl160g6-numpy-1.7.1-1' depends on one of the module(s) 'numpy/1.7.1-dl160g6-gfortran-internal-1'
ScientificPython/2.8-dl160g6-numpy-1.7.1-1(15):ERROR:102: Tcl command execution failed: prereq numpy/1.7.1-dl160g6-gfortran-internal-1


     Program PWSCF v.5.0.2 (svn rev. 9656) starts on  1Jun2014 at 19:58: 1 

     This program is part of the open-source Quantum ESPRESSO suite
     for quantum simulation of materials; please cite
         "P. Giannozzi et al., J. Phys.:Condens. Matter 21 395502 (2009);
          URL http://www.quantum-espresso.org", 
     in publications or presentations arising from this work. More details at
     http://www.quantum-espresso.org/quote.php

     Parallel version (MPI), running on    16 processors
     K-points division:     npool     =       4
     R & G space division:  proc/nbgrp/npool/nimage =       4

     Current dimensions of program PWSCF are:
     Max number of different atomic species (ntypx) = 10
     Max number of k-points (npk) =  40000
     Max angular momentum in pseudopotentials (lmaxx) =  3
     Reading input from pwscf.in
Warning: card &CELL ignored
Warning: card / ignored

     Subspace diagonalization in iterative solution of the eigenvalue problem:
     a serial algorithm will be used


     Parallelization info
     --------------------
     sticks:   dense  smooth     PW     G-vecs:    dense   smooth      PW
     Min        1244     397    112               291872    52833    7934
     Max        1245     398    113               291883    52857    7939
     Sum        4979    1589    451              1167509   211387   31747



     bravais-lattice index     =            0
     lattice parameter (alat)  =      10.7336  a.u.
     unit-cell volume          =    6184.1966 (a.u.)^3
     number of atoms/cell      =           33
     number of atomic types    =            3
     number of electrons       =       245.00 (up: 134.00, down: 111.00)
     number of Kohn-Sham states=          355
     kinetic-energy cutoff     =      40.0000  Ry
     charge density cutoff     =     500.0000  Ry
     convergence threshold     =      1.0E-06
     mixing beta               =       0.7000
     number of iterations used =            8  plain     mixing
     Exchange-correlation      = SLA  PW   PBE  PBE ( 1 4 3 4 0)
     EXX-fraction              =        0.00
     nstep                     =           50


     celldm(1)=  10.733644  celldm(2)=   0.000000  celldm(3)=   0.000000
     celldm(4)=   0.000000  celldm(5)=   0.000000  celldm(6)=   0.000000

     crystal axes: (cart. coord. in units of alat)
               a(1) = (   1.000000   0.000000   0.000000 )  
               a(2) = (   0.000000   1.085558   0.000000 )  
               a(3) = (   0.000000   0.000000   4.606685 )  

     reciprocal axes: (cart. coord. in units 2 pi/alat)
               b(1) = (  1.000000  0.000000  0.000000 )  
               b(2) = (  0.000000  0.921185  0.000000 )  
               b(3) = (  0.000000  0.000000  0.217076 )  


     PseudoPot. # 1 for O  read from file:
     /home/camp/zhonxu/pseudo/o_pbe_v1.01.uspp.F.UPF
     MD5 check sum: 2bcb18d16ea4b960afae9ec6d52f22d2
     Pseudo is Ultrasoft + core correction, Zval =  6.0
     Generated by new atomic code, or converted to UPF format
     Using radial grid of  737 points,  5 beta functions with: 
                l(1) =   0
                l(2) =   0
                l(3) =   1
                l(4) =   1
                l(5) =   2
     Q(r) pseudized with  8 coefficients,  rinner =    0.900   0.900   0.900
                                                       0.900   0.900

     PseudoPot. # 2 for Mn read from file:
     /home/camp/zhonxu/pseudo/mn_pbe_v1.uspp.F.UPF
     MD5 check sum: 5fd7c7b5c956fd19902447332617373a
     Pseudo is Ultrasoft + core correction, Zval = 15.0
     Generated by new atomic code, or converted to UPF format
     Using radial grid of  859 points,  6 beta functions with: 
                l(1) =   0
                l(2) =   0
                l(3) =   1
                l(4) =   1
                l(5) =   2
                l(6) =   2
     Q(r) pseudized with  6 coefficients,  rinner =    1.150   1.150   1.150
                                                       1.150   1.150

     PseudoPot. # 3 for H  read from file:
     /home/camp/zhonxu/pseudo/h_pbe_v1.uspp.F.UPF
     MD5 check sum: 3408e3ff4ec8b0a4e358431e7e038a48
     Pseudo is Ultrasoft, Zval =  1.0
     Generated by new atomic code, or converted to UPF format
     Using radial grid of  615 points,  2 beta functions with: 
                l(1) =   0
                l(2) =   0
     Q(r) pseudized with  8 coefficients,  rinner =    0.700

     atomic species   valence    mass     pseudopotential
        O0             6.00    15.99940     O ( 1.00)
        Mn1           15.00    54.93800     Mn( 1.00)
        H2             1.00     1.00794     H ( 1.00)

     Starting magnetic structure 
     atomic species   magnetization
        O0           0.000
        Mn1          0.600
        H2           0.000


     Simplified LDA+U calculation (l_max = 2) with parameters (eV):
     atomic species    L          U    alpha       J0     beta
        Mn1            2     5.5000   0.0000   0.0000   0.0000



     No symmetry found



   Cartesian axes

     site n.     atom                  positions (alat units)
         1           O0  tau(   1) = (   0.0000000   0.0000000   1.7457494  )
         2           O0  tau(   2) = (   0.0000000   0.5427791   1.8442864  )
         3           Mn1 tau(   3) = (   0.2500000   0.5427791   2.0803790  )
         4           Mn1 tau(   4) = (   0.0000000   0.0000000   2.0733307  )
         5           O0  tau(   5) = (   0.2500000   0.8684466   2.0718105  )
         6           O0  tau(   6) = (   0.2500000   0.2171117   2.0783981  )
         7           O0  tau(   7) = (   0.0000000   0.5427791   2.2929314  )
         8           O0  tau(   8) = (   0.0000000   0.0000000   2.4163906  )
         9           Mn1 tau(   9) = (   0.2500000   0.0000000   2.6432698  )
        10           Mn1 tau(  10) = (   0.0000000   0.5427791   2.6163668  )
        11           O0  tau(  11) = (   0.2500000   0.7598908   2.6487057  )
        12           O0  tau(  12) = (   0.2500000   0.3256675   2.6647830  )
        13           O0  tau(  13) = (   0.0000000   0.0000000   2.8448584  )
        14           O0  tau(  14) = (   0.5000000   0.0000000   1.7464864  )
        15           O0  tau(  15) = (   0.5000000   0.5427791   1.8448852  )
        16           Mn1 tau(  16) = (   0.7500000   0.5427791   2.0803790  )
        17           Mn1 tau(  17) = (   0.5000000   0.0000000   2.0744363  )
        18           O0  tau(  18) = (   0.7500000   0.8684466   2.0716723  )
        19           O0  tau(  19) = (   0.7500000   0.2171117   2.0786745  )
        20           O0  tau(  20) = (   0.5000000   0.5427791   2.2968932  )
        21           O0  tau(  21) = (   0.5000000   0.0000000   2.4162984  )
        22           Mn1 tau(  22) = (   0.7500000   0.0000000   2.6433159  )
        23           Mn1 tau(  23) = (   0.5000000   0.5427791   2.6660729  )
        24           O0  tau(  24) = (   0.7500000   0.7598908   2.6487057  )
        25           O0  tau(  25) = (   0.7500000   0.3256675   2.6648291  )
        26           O0  tau(  26) = (   0.5000000   0.0000000   2.8426011  )
        27           H2  tau(  27) = (   0.0000600   0.7014769   1.7682761  )
        28           H2  tau(  28) = (   0.5000200   0.7014226   1.7687367  )
        29           H2  tau(  29) = (   0.1615100   0.0393949   1.6915287  )
        30           H2  tau(  30) = (   0.6615300   0.0393515   1.6922658  )
        31           O0  tau(  31) = (   0.4998600   0.5845297   2.9855926  )
        32           O0  tau(  32) = (   0.5002900   0.3746370   3.1260965  )
        33           H2  tau(  33) = (   0.4998600   0.4487589   3.2835069  )

     number of k points=    20  Methfessel-Paxton smearing, width (Ry)=  0.0100
                       cart. coord. in units 2pi/alat
        k(    1) = (   0.0000000   0.0000000   0.0000000), wk =   0.0625000
        k(    2) = (   0.0000000   0.2302962   0.0000000), wk =   0.1250000
        k(    3) = (   0.0000000  -0.4605925   0.0000000), wk =   0.0625000
        k(    4) = (   0.2500000   0.0000000   0.0000000), wk =   0.1250000
        k(    5) = (   0.2500000   0.2302962   0.0000000), wk =   0.1250000
        k(    6) = (   0.2500000  -0.4605925   0.0000000), wk =   0.1250000
        k(    7) = (  -0.5000000   0.0000000   0.0000000), wk =   0.0625000
        k(    8) = (  -0.5000000   0.2302962   0.0000000), wk =   0.1250000
        k(    9) = (  -0.5000000  -0.4605925   0.0000000), wk =   0.0625000
        k(   10) = (  -0.2500000   0.2302962   0.0000000), wk =   0.1250000
        k(   11) = (   0.0000000   0.0000000   0.0000000), wk =   0.0625000
        k(   12) = (   0.0000000   0.2302962   0.0000000), wk =   0.1250000
        k(   13) = (   0.0000000  -0.4605925   0.0000000), wk =   0.0625000
        k(   14) = (   0.2500000   0.0000000   0.0000000), wk =   0.1250000
        k(   15) = (   0.2500000   0.2302962   0.0000000), wk =   0.1250000
        k(   16) = (   0.2500000  -0.4605925   0.0000000), wk =   0.1250000
        k(   17) = (  -0.5000000   0.0000000   0.0000000), wk =   0.0625000
        k(   18) = (  -0.5000000   0.2302962   0.0000000), wk =   0.1250000
        k(   19) = (  -0.5000000  -0.4605925   0.0000000), wk =   0.0625000
        k(   20) = (  -0.2500000   0.2302962   0.0000000), wk =   0.1250000

     Dense  grid:  1167509 G-vectors     FFT dimensions: (  80,  90, 360)

     Smooth grid:   211387 G-vectors     FFT dimensions: (  45,  48, 200)

     Largest allocated arrays     est. size (Mb)     dimensions
        Kohn-Sham Wavefunctions        35.97 Mb     (   6641,  355)
        Atomic wavefunctions           19.15 Mb     (   6641,  189)
        NL pseudopotentials            41.95 Mb     (   6641,  414)
        Each V/rho on FFT grid         19.78 Mb     ( 648000,   2)
        Each G-vector array             2.23 Mb     ( 291883)
        G-vector shells                 0.97 Mb     ( 127585)
     Largest temporary arrays     est. size (Mb)     dimensions
        Auxiliary wavefunctions       143.89 Mb     (   6641, 1420)
        Each subspace H/S matrix       30.77 Mb     (1420,1420)
        Each <psi_i|beta_j> matrix      2.24 Mb     (    414,  355)
        Arrays for rho mixing          79.10 Mb     ( 648000,   8)

     Check: negative/imaginary core charge=   -0.000022    0.000000

     Initial potential from superposition of free atoms
     Check: negative starting charge=(component1):   -0.000643
     Check: negative starting charge=(component2):   -0.000358

     starting charge  236.99986, renormalised to  245.00000

     negative rho (up, down):  0.665E-03 0.370E-03
     Number of +U iterations with fixed ns =  0
     Starting occupations:
 --- enter write_ns ---
 LDA+U parameters:
U( 2)     =  5.50000000
alpha( 2) =  0.00000000
atom    3   Tr[ns(na)] (up, down, total) =   5.00000  0.00000  5.00000
   spin  1
    eigenvalues: 
  1.000  1.000  1.000  1.000  1.000
    eigenvectors:
  1.000  0.000  0.000  0.000  0.000
  0.000  1.000  0.000  0.000  0.000
  0.000  0.000  1.000  0.000  0.000
  0.000  0.000  0.000  1.000  0.000
  0.000  0.000  0.000  0.000  1.000
    occupations:
  1.000  0.000  0.000  0.000  0.000
  0.000  1.000  0.000  0.000  0.000
  0.000  0.000  1.000  0.000  0.000
  0.000  0.000  0.000  1.000  0.000
  0.000  0.000  0.000  0.000  1.000
   spin  2
    eigenvalues: 
  0.000  0.000  0.000  0.000  0.000
    eigenvectors:
  1.000  0.000  0.000  0.000  0.000
  0.000  1.000  0.000  0.000  0.000
  0.000  0.000  1.000  0.000  0.000
  0.000  0.000  0.000  1.000  0.000
  0.000  0.000  0.000  0.000  1.000
    occupations:
  0.000  0.000  0.000  0.000  0.000
  0.000  0.000  0.000  0.000  0.000
  0.000  0.000  0.000  0.000  0.000
  0.000  0.000  0.000  0.000  0.000
  0.000  0.000  0.000  0.000  0.000
atomic mag. moment =     5.000000
atom    4   Tr[ns(na)] (up, down, total) =   5.00000  0.00000  5.00000
   spin  1
    eigenvalues: 
  1.000  1.000  1.000  1.000  1.000
    eigenvectors:
  1.000  0.000  0.000  0.000  0.000
  0.000  1.000  0.000  0.000  0.000
  0.000  0.000  1.000  0.000  0.000
  0.000  0.000  0.000  1.000  0.000
  0.000  0.000  0.000  0.000  1.000
    occupations:
  1.000  0.000  0.000  0.000  0.000
  0.000  1.000  0.000  0.000  0.000
  0.000  0.000  1.000  0.000  0.000
  0.000  0.000  0.000  1.000  0.000
  0.000  0.000  0.000  0.000  1.000
   spin  2
    eigenvalues: 
  0.000  0.000  0.000  0.000  0.000
    eigenvectors:
  1.000  0.000  0.000  0.000  0.000
  0.000  1.000  0.000  0.000  0.000
  0.000  0.000  1.000  0.000  0.000
  0.000  0.000  0.000  1.000  0.000
  0.000  0.000  0.000  0.000  1.000
    occupations:
  0.000  0.000  0.000  0.000  0.000
  0.000  0.000  0.000  0.000  0.000
  0.000  0.000  0.000  0.000  0.000
  0.000  0.000  0.000  0.000  0.000
  0.000  0.000  0.000  0.000  0.000
atomic mag. moment =     5.000000
atom    9   Tr[ns(na)] (up, down, total) =   5.00000  0.00000  5.00000
   spin  1
    eigenvalues: 
  1.000  1.000  1.000  1.000  1.000
    eigenvectors:
  1.000  0.000  0.000  0.000  0.000
  0.000  1.000  0.000  0.000  0.000
  0.000  0.000  1.000  0.000  0.000
  0.000  0.000  0.000  1.000  0.000
  0.000  0.000  0.000  0.000  1.000
    occupations:
  1.000  0.000  0.000  0.000  0.000
  0.000  1.000  0.000  0.000  0.000
  0.000  0.000  1.000  0.000  0.000
  0.000  0.000  0.000  1.000  0.000
  0.000  0.000  0.000  0.000  1.000
   spin  2
    eigenvalues: 
  0.000  0.000  0.000  0.000  0.000
    eigenvectors:
  1.000  0.000  0.000  0.000  0.000
  0.000  1.000  0.000  0.000  0.000
  0.000  0.000  1.000  0.000  0.000
  0.000  0.000  0.000  1.000  0.000
  0.000  0.000  0.000  0.000  1.000
    occupations:
  0.000  0.000  0.000  0.000  0.000
  0.000  0.000  0.000  0.000  0.000
  0.000  0.000  0.000  0.000  0.000
  0.000  0.000  0.000  0.000  0.000
  0.000  0.000  0.000  0.000  0.000
atomic mag. moment =     5.000000
atom   10   Tr[ns(na)] (up, down, total) =   5.00000  0.00000  5.00000
   spin  1
    eigenvalues: 
  1.000  1.000  1.000  1.000  1.000
    eigenvectors:
  1.000  0.000  0.000  0.000  0.000
  0.000  1.000  0.000  0.000  0.000
  0.000  0.000  1.000  0.000  0.000
  0.000  0.000  0.000  1.000  0.000
  0.000  0.000  0.000  0.000  1.000
    occupations:
  1.000  0.000  0.000  0.000  0.000
  0.000  1.000  0.000  0.000  0.000
  0.000  0.000  1.000  0.000  0.000
  0.000  0.000  0.000  1.000  0.000
  0.000  0.000  0.000  0.000  1.000
   spin  2
    eigenvalues: 
  0.000  0.000  0.000  0.000  0.000
    eigenvectors:
  1.000  0.000  0.000  0.000  0.000
  0.000  1.000  0.000  0.000  0.000
  0.000  0.000  1.000  0.000  0.000
  0.000  0.000  0.000  1.000  0.000
  0.000  0.000  0.000  0.000  1.000
    occupations:
  0.000  0.000  0.000  0.000  0.000
  0.000  0.000  0.000  0.000  0.000
  0.000  0.000  0.000  0.000  0.000
  0.000  0.000  0.000  0.000  0.000
  0.000  0.000  0.000  0.000  0.000
atomic mag. moment =     5.000000
atom   16   Tr[ns(na)] (up, down, total) =   5.00000  0.00000  5.00000
   spin  1
    eigenvalues: 
  1.000  1.000  1.000  1.000  1.000
    eigenvectors:
  1.000  0.000  0.000  0.000  0.000
  0.000  1.000  0.000  0.000  0.000
  0.000  0.000  1.000  0.000  0.000
  0.000  0.000  0.000  1.000  0.000
  0.000  0.000  0.000  0.000  1.000
    occupations:
  1.000  0.000  0.000  0.000  0.000
  0.000  1.000  0.000  0.000  0.000
  0.000  0.000  1.000  0.000  0.000
  0.000  0.000  0.000  1.000  0.000
  0.000  0.000  0.000  0.000  1.000
   spin  2
    eigenvalues: 
  0.000  0.000  0.000  0.000  0.000
    eigenvectors:
  1.000  0.000  0.000  0.000  0.000
  0.000  1.000  0.000  0.000  0.000
  0.000  0.000  1.000  0.000  0.000
  0.000  0.000  0.000  1.000  0.000
  0.000  0.000  0.000  0.000  1.000
    occupations:
  0.000  0.000  0.000  0.000  0.000
  0.000  0.000  0.000  0.000  0.000
  0.000  0.000  0.000  0.000  0.000
  0.000  0.000  0.000  0.000  0.000
  0.000  0.000  0.000  0.000  0.000
atomic mag. moment =     5.000000
atom   17   Tr[ns(na)] (up, down, total) =   5.00000  0.00000  5.00000
   spin  1
    eigenvalues: 
  1.000  1.000  1.000  1.000  1.000
    eigenvectors:
  1.000  0.000  0.000  0.000  0.000
  0.000  1.000  0.000  0.000  0.000
  0.000  0.000  1.000  0.000  0.000
  0.000  0.000  0.000  1.000  0.000
  0.000  0.000  0.000  0.000  1.000
    occupations:
  1.000  0.000  0.000  0.000  0.000
  0.000  1.000  0.000  0.000  0.000
  0.000  0.000  1.000  0.000  0.000
  0.000  0.000  0.000  1.000  0.000
  0.000  0.000  0.000  0.000  1.000
   spin  2
    eigenvalues: 
  0.000  0.000  0.000  0.000  0.000
    eigenvectors:
  1.000  0.000  0.000  0.000  0.000
  0.000  1.000  0.000  0.000  0.000
  0.000  0.000  1.000  0.000  0.000
  0.000  0.000  0.000  1.000  0.000
  0.000  0.000  0.000  0.000  1.000
    occupations:
  0.000  0.000  0.000  0.000  0.000
  0.000  0.000  0.000  0.000  0.000
  0.000  0.000  0.000  0.000  0.000
  0.000  0.000  0.000  0.000  0.000
  0.000  0.000  0.000  0.000  0.000
atomic mag. moment =     5.000000
atom   22   Tr[ns(na)] (up, down, total) =   5.00000  0.00000  5.00000
   spin  1
    eigenvalues: 
  1.000  1.000  1.000  1.000  1.000
    eigenvectors:
  1.000  0.000  0.000  0.000  0.000
  0.000  1.000  0.000  0.000  0.000
  0.000  0.000  1.000  0.000  0.000
  0.000  0.000  0.000  1.000  0.000
  0.000  0.000  0.000  0.000  1.000
    occupations:
  1.000  0.000  0.000  0.000  0.000
  0.000  1.000  0.000  0.000  0.000
  0.000  0.000  1.000  0.000  0.000
  0.000  0.000  0.000  1.000  0.000
  0.000  0.000  0.000  0.000  1.000
   spin  2
    eigenvalues: 
  0.000  0.000  0.000  0.000  0.000
    eigenvectors:
  1.000  0.000  0.000  0.000  0.000
  0.000  1.000  0.000  0.000  0.000
  0.000  0.000  1.000  0.000  0.000
  0.000  0.000  0.000  1.000  0.000
  0.000  0.000  0.000  0.000  1.000
    occupations:
  0.000  0.000  0.000  0.000  0.000
  0.000  0.000  0.000  0.000  0.000
  0.000  0.000  0.000  0.000  0.000
  0.000  0.000  0.000  0.000  0.000
  0.000  0.000  0.000  0.000  0.000
atomic mag. moment =     5.000000
atom   23   Tr[ns(na)] (up, down, total) =   5.00000  0.00000  5.00000
   spin  1
    eigenvalues: 
  1.000  1.000  1.000  1.000  1.000
    eigenvectors:
  1.000  0.000  0.000  0.000  0.000
  0.000  1.000  0.000  0.000  0.000
  0.000  0.000  1.000  0.000  0.000
  0.000  0.000  0.000  1.000  0.000
  0.000  0.000  0.000  0.000  1.000
    occupations:
  1.000  0.000  0.000  0.000  0.000
  0.000  1.000  0.000  0.000  0.000
  0.000  0.000  1.000  0.000  0.000
  0.000  0.000  0.000  1.000  0.000
  0.000  0.000  0.000  0.000  1.000
   spin  2
    eigenvalues: 
  0.000  0.000  0.000  0.000  0.000
    eigenvectors:
  1.000  0.000  0.000  0.000  0.000
  0.000  1.000  0.000  0.000  0.000
  0.000  0.000  1.000  0.000  0.000
  0.000  0.000  0.000  1.000  0.000
  0.000  0.000  0.000  0.000  1.000
    occupations:
  0.000  0.000  0.000  0.000  0.000
  0.000  0.000  0.000  0.000  0.000
  0.000  0.000  0.000  0.000  0.000
  0.000  0.000  0.000  0.000  0.000
  0.000  0.000  0.000  0.000  0.000
atomic mag. moment =     5.000000
N of occupied +U levels =  40.0000000
 --- exit write_ns ---
 Atomic wfc used for LDA+U Projector are NOT orthogonalized
     Starting wfc are  189 randomized atomic wfcs

     total cpu time spent up to now is      122.5 secs

     per-process dynamical memory:   476.4 Mb

     Self-consistent Calculation

     iteration #  1     ecut=    40.00 Ry     beta=0.70
     Davidson diagonalization with overlap
     ethr =  1.00E-02,  avg # of iterations =  5.6
 --- enter write_ns ---
 LDA+U parameters:
U( 2)     =  5.50000000
alpha( 2) =  0.00000000
atom    3   Tr[ns(na)] (up, down, total) =   4.53001  0.49292  5.02293
   spin  1
    eigenvalues: 
  0.769  0.770  0.992  0.995  1.003
    eigenvectors:
  0.153  0.046  0.000  0.789  0.011
  0.212  0.785  0.003  0.000  0.000
  0.000  0.000  0.000  0.016  0.983
  0.634  0.167  0.000  0.194  0.005
  0.001  0.002  0.997  0.000  0.000
    occupations:
  0.950  0.002 -0.001 -0.090  0.000
  0.002  0.771  0.000 -0.001 -0.012
 -0.001  0.000  1.003 -0.004  0.000
 -0.090 -0.001 -0.004  0.815 -0.000
  0.000 -0.012  0.000 -0.000  0.991
   spin  2
    eigenvalues: 
  0.048  0.053  0.053  0.163  0.175
    eigenvectors:
  0.528  0.200  0.084  0.000  0.189
  0.000  0.000  0.000  0.999  0.000
  0.349  0.420  0.231  0.000  0.000
  0.122  0.047  0.020  0.000  0.811
  0.001  0.333  0.665  0.001  0.000
    occupations:
  0.074 -0.000 -0.002  0.049 -0.000
 -0.000  0.163  0.000  0.000  0.003
 -0.002  0.000  0.051  0.001 -0.000
  0.049  0.000  0.001  0.152 -0.000
 -0.000  0.003 -0.000 -0.000  0.053
atomic mag. moment =     4.037095
atom    4   Tr[ns(na)] (up, down, total) =   4.57786  0.50675  5.08461
   spin  1
    eigenvalues: 
  0.777  0.829  0.980  0.991  1.000
    eigenvectors:
  0.000  0.992  0.000  0.001  0.006
  0.000  0.005  0.076  0.014  0.905
  0.000  0.001  0.917  0.013  0.069
  0.000  0.002  0.006  0.972  0.020
  1.000  0.000  0.000  0.000  0.000
    occupations:
  0.831 -0.012 -0.005  0.007 -0.000
 -0.012  0.998  0.005 -0.001  0.003
 -0.005  0.005  0.981  0.001 -0.000
  0.007 -0.001  0.001  0.991 -0.000
 -0.000  0.003 -0.000 -0.000  0.777
   spin  2
    eigenvalues: 
  0.048  0.054  0.061  0.165  0.178
    eigenvectors:
  0.009  0.001  0.000  0.000  0.991
  0.010  0.801  0.188  0.000  0.001
  0.004  0.184  0.812  0.000  0.000
  0.977  0.015  0.000  0.000  0.008
  0.000  0.000  0.000  1.000  0.000
    occupations:
  0.177  0.004  0.002 -0.011  0.000
  0.004  0.056 -0.002  0.000 -0.002
  0.002 -0.002  0.059  0.000  0.000
 -0.011  0.000  0.000  0.050  0.000
  0.000 -0.002  0.000  0.000  0.165
atomic mag. moment =     4.071115
atom    9   Tr[ns(na)] (up, down, total) =   4.53006  0.56600  5.09607
   spin  1
    eigenvalues: 
  0.768  0.777  0.989  0.993  1.004
    eigenvectors:
  0.000  0.128  0.843  0.029  0.000
  1.000  0.000  0.000  0.000  0.000
  0.000  0.001  0.004  0.119  0.876
  0.000  0.872  0.122  0.006  0.001
  0.000  0.000  0.030  0.847  0.123
    occupations:
  0.962 -0.003 -0.002 -0.071 -0.001
 -0.003  0.768 -0.000  0.001  0.000
 -0.002 -0.000  1.002 -0.006  0.004
 -0.071  0.001 -0.006  0.804  0.000
 -0.001  0.000  0.004  0.000  0.994
   spin  2
    eigenvalues: 
  0.058  0.067  0.069  0.184  0.188
    eigenvectors:
  0.000  0.864  0.003  0.121  0.011
  0.000  0.000  0.000  0.095  0.905
  0.995  0.000  0.004  0.001  0.000
  0.001  0.132  0.000  0.784  0.083
  0.004  0.004  0.992  0.000  0.000
    occupations:
  0.082  0.000  0.001  0.040  0.000
  0.000  0.188 -0.000 -0.001 -0.000
  0.001 -0.000  0.058  0.003 -0.001
  0.040 -0.001  0.003  0.169 -0.000
  0.000 -0.000 -0.001 -0.000  0.069
atomic mag. moment =     3.964057
atom   10   Tr[ns(na)] (up, down, total) =   4.91487  0.42363  5.33850
   spin  1
    eigenvalues: 
  0.925  0.986  0.999  1.001  1.005
    eigenvectors:
  0.000  0.828  0.172  0.000  0.000
  0.003  0.000  0.000  0.997  0.000
  0.000  0.000  0.001  0.000  0.999
  0.000  0.171  0.827  0.000  0.001
  0.997  0.000  0.000  0.003  0.000
    occupations:
  0.988 -0.000  0.000  0.005 -0.000
 -0.000  1.000 -0.000  0.000 -0.004
  0.000 -0.000  1.005 -0.000 -0.000
  0.005  0.000 -0.000  0.997 -0.000
 -0.000 -0.004 -0.000 -0.000  0.925
   spin  2
    eigenvalues: 
  0.046  0.048  0.052  0.114  0.164
    eigenvectors:
  0.002  0.020  0.000  0.978  0.000
  0.000  0.000  0.999  0.000  0.001
  0.929  0.071  0.000  0.000  0.000
  0.068  0.910  0.000  0.022  0.000
  0.000  0.000  0.001  0.000  0.999
    occupations:
  0.112 -0.000 -0.001 -0.010  0.000
 -0.000  0.052  0.000  0.000  0.004
 -0.001  0.000  0.046 -0.000  0.000
 -0.010  0.000 -0.000  0.049  0.000
  0.000  0.004  0.000  0.000  0.164
atomic mag. moment =     4.491248
atom   16   Tr[ns(na)] (up, down, total) =   4.53024  0.49290  5.02314
   spin  1
    eigenvalues: 
  0.769  0.770  0.992  0.995  1.003
    eigenvectors:
  0.138  0.061  0.001  0.788  0.011
  0.285  0.712  0.003  0.000  0.000
  0.000  0.000  0.000  0.016  0.983
  0.576  0.225  0.000  0.194  0.005
  0.001  0.002  0.995  0.002  0.000
    occupations:
  0.950 -0.002 -0.001 -0.090 -0.000
 -0.002  0.771  0.000  0.002 -0.012
 -0.001  0.000  1.003 -0.004  0.000
 -0.090  0.002 -0.004  0.815 -0.000
 -0.000 -0.012  0.000 -0.000  0.992
   spin  2
    eigenvalues: 
  0.048  0.053  0.053  0.163  0.175
    eigenvectors:
  0.529  0.209  0.074  0.000  0.189
  0.000  0.000  0.000  0.999  0.000
  0.348  0.451  0.201  0.000  0.000
  0.122  0.049  0.017  0.000  0.811
  0.001  0.291  0.708  0.001  0.000
    occupations:
  0.074  0.000 -0.002  0.049 -0.000
  0.000  0.163 -0.000 -0.000  0.003
 -0.002 -0.000  0.051  0.001  0.000
  0.049 -0.000  0.001  0.152 -0.000
 -0.000  0.003  0.000 -0.000  0.053
atomic mag. moment =     4.037338
atom   17   Tr[ns(na)] (up, down, total) =   4.57247  0.50649  5.07897
   spin  1
    eigenvalues: 
  0.773  0.828  0.980  0.991  1.000
    eigenvectors:
  0.000  0.993  0.000  0.001  0.006
  0.000  0.004  0.078  0.013  0.904
  0.000  0.001  0.915  0.014  0.070
  0.000  0.002  0.007  0.972  0.019
  1.000  0.000  0.000  0.000  0.000
    occupations:
  0.829 -0.011 -0.005  0.007 -0.000
 -0.011  0.998  0.005 -0.001  0.003
 -0.005  0.005  0.981  0.001  0.000
  0.007 -0.001  0.001  0.991 -0.000
 -0.000  0.003  0.000 -0.000  0.774
   spin  2
    eigenvalues: 
  0.048  0.054  0.060  0.165  0.179
    eigenvectors:
  0.009  0.001  0.000  0.000  0.991
  0.010  0.798  0.191  0.000  0.001
  0.003  0.187  0.809  0.000  0.000
  0.978  0.014  0.000  0.000  0.008
  0.000  0.000  0.000  1.000  0.000
    occupations:
  0.177  0.004  0.002 -0.012  0.000
  0.004  0.056 -0.002  0.000 -0.002
  0.002 -0.002  0.059  0.000  0.000
 -0.012  0.000  0.000  0.049  0.000
  0.000 -0.002  0.000  0.000  0.165
atomic mag. moment =     4.065978
atom   22   Tr[ns(na)] (up, down, total) =   4.52979  0.56605  5.09583
   spin  1
    eigenvalues: 
  0.768  0.777  0.989  0.993  1.004
    eigenvectors:
  0.000  0.128  0.844  0.028  0.000
  0.999  0.000  0.000  0.000  0.000
  0.000  0.001  0.004  0.119  0.876
  0.000  0.871  0.122  0.006  0.001
  0.000  0.000  0.029  0.847  0.124
    occupations:
  0.962  0.003 -0.002 -0.071  0.001
  0.003  0.768  0.000 -0.001  0.000
 -0.002  0.000  1.002 -0.006 -0.004
 -0.071 -0.001 -0.006  0.804 -0.000
  0.001  0.000 -0.004 -0.000  0.994
   spin  2
    eigenvalues: 
  0.058  0.067  0.069  0.184  0.188
    eigenvectors:
  0.000  0.864  0.003  0.121  0.011
  0.000  0.000  0.000  0.094  0.906
  0.995  0.000  0.004  0.001  0.000
  0.001  0.132  0.000  0.784  0.083
  0.004  0.004  0.992  0.000  0.000
    occupations:
  0.082 -0.000  0.001  0.040 -0.000
 -0.000  0.188  0.000  0.001 -0.000
  0.001  0.000  0.058  0.003  0.001
  0.040  0.001  0.003  0.169  0.000
 -0.000 -0.000  0.001  0.000  0.069
atomic mag. moment =     3.963740
atom   23   Tr[ns(na)] (up, down, total) =   4.67477  0.52029  5.19506
   spin  1
    eigenvalues: 
  0.824  0.872  0.983  0.994  1.002
    eigenvectors:
  0.000  0.976  0.000  0.014  0.010
  0.001  0.000  0.999  0.000  0.000
  0.000  0.016  0.000  0.055  0.930
  0.000  0.009  0.000  0.931  0.060
  0.999  0.000  0.001  0.000  0.000
    occupations:
  0.875 -0.000  0.016  0.011 -0.000
 -0.000  0.983  0.000  0.000 -0.004
  0.016  0.000  0.999 -0.003  0.000
  0.011  0.000 -0.003  0.993 -0.000
 -0.000 -0.004  0.000 -0.000  0.824
   spin  2
    eigenvalues: 
  0.045  0.048  0.083  0.164  0.179
    eigenvectors:
  0.001  0.010  0.000  0.000  0.990
  0.000  0.000  1.000  0.000  0.000
  0.824  0.172  0.000  0.000  0.004
  0.175  0.818  0.000  0.000  0.006
  0.000  0.000  0.000  1.000  0.000
    occupations:
  0.178  0.000 -0.009 -0.010  0.000
  0.000  0.083  0.000  0.000  0.000
 -0.009  0.000  0.046  0.002 -0.000
 -0.010  0.000  0.002  0.049 -0.000
  0.000  0.000 -0.000 -0.000  0.164
atomic mag. moment =     4.154477
N of occupied +U levels =  40.9351046
 --- exit write_ns ---

     negative rho (up, down):  0.860E-03 0.984E-03

     total cpu time spent up to now is      596.6 secs

     total energy              =   -2341.46713309 Ry
     Harris-Foulkes estimate   =   -2350.12928754 Ry
     estimated scf accuracy    <      19.17163987 Ry

     total magnetization       =    23.00 Bohr mag/cell
     absolute magnetization    =    43.29 Bohr mag/cell

     iteration #  2     ecut=    40.00 Ry     beta=0.70
     Davidson diagonalization with overlap
     ethr =  7.83E-03,  avg # of iterations =  5.3

     negative rho (up, down):  0.804E-06 0.280E-07

     total cpu time spent up to now is      941.9 secs

     total energy              =   -2236.61586303 Ry
     Harris-Foulkes estimate   =   -2424.35877202 Ry
     estimated scf accuracy    <    3077.56357878 Ry

     total magnetization       =    23.00 Bohr mag/cell
     absolute magnetization    =    25.25 Bohr mag/cell

     iteration #  3     ecut=    40.00 Ry     beta=0.70
     Davidson diagonalization with overlap
     ethr =  7.83E-03,  avg # of iterations =  4.0

     negative rho (up, down):  0.000E+00 0.233E-05

     total cpu time spent up to now is     1324.4 secs

     total energy              =   -2329.20343694 Ry
     Harris-Foulkes estimate   =   -2364.67423223 Ry
     estimated scf accuracy    <     221.61673058 Ry

     total magnetization       =    23.00 Bohr mag/cell
     absolute magnetization    =    28.82 Bohr mag/cell

     iteration #  4     ecut=    40.00 Ry     beta=0.70
     Davidson diagonalization with overlap
     ethr =  7.83E-03,  avg # of iterations =  3.9

     negative rho (up, down):  0.493E-07 0.951E-08

     total cpu time spent up to now is     1608.9 secs

     total energy              =   -2335.32200330 Ry
     Harris-Foulkes estimate   =   -2367.39666805 Ry
     estimated scf accuracy    <     462.18744472 Ry

     total magnetization       =    23.00 Bohr mag/cell
     absolute magnetization    =    24.17 Bohr mag/cell

     iteration #  5     ecut=    40.00 Ry     beta=0.70
     Davidson diagonalization with overlap
     ethr =  7.83E-03,  avg # of iterations =  3.7

     negative rho (up, down):  0.125E-05 0.000E+00

     total cpu time spent up to now is     1878.2 secs

     total energy              =   -2351.07036916 Ry
     Harris-Foulkes estimate   =   -2353.85636956 Ry
     estimated scf accuracy    <      10.96023226 Ry

     total magnetization       =    23.00 Bohr mag/cell
     absolute magnetization    =    31.16 Bohr mag/cell

     iteration #  6     ecut=    40.00 Ry     beta=0.70
     Davidson diagonalization with overlap
     ethr =  4.47E-03,  avg # of iterations =  3.2

     total cpu time spent up to now is     2130.4 secs

     total energy              =   -2351.46523026 Ry
     Harris-Foulkes estimate   =   -2352.70313063 Ry
     estimated scf accuracy    <       6.11712278 Ry

     total magnetization       =    23.00 Bohr mag/cell
     absolute magnetization    =    36.60 Bohr mag/cell

     iteration #  7     ecut=    40.00 Ry     beta=0.70
     Davidson diagonalization with overlap
     ethr =  2.50E-03,  avg # of iterations =  3.9

     total cpu time spent up to now is     2396.6 secs

     total energy              =   -2351.51433385 Ry
     Harris-Foulkes estimate   =   -2353.23308765 Ry
     estimated scf accuracy    <       9.58072156 Ry

     total magnetization       =    23.00 Bohr mag/cell
     absolute magnetization    =    33.68 Bohr mag/cell

     iteration #  8     ecut=    40.00 Ry     beta=0.70
     Davidson diagonalization with overlap
     ethr =  2.50E-03,  avg # of iterations =  1.6

     total cpu time spent up to now is     2637.8 secs

     total energy              =   -2352.22593855 Ry
     Harris-Foulkes estimate   =   -2352.53574673 Ry
     estimated scf accuracy    <       1.81932205 Ry

     total magnetization       =    23.00 Bohr mag/cell
     absolute magnetization    =    33.35 Bohr mag/cell

     iteration #  9     ecut=    40.00 Ry     beta=0.70
     Davidson diagonalization with overlap
     ethr =  7.43E-04,  avg # of iterations =  2.0

     total cpu time spent up to now is     2884.7 secs

     total energy              =   -2352.23695244 Ry
     Harris-Foulkes estimate   =   -2352.36960995 Ry
     estimated scf accuracy    <       0.94734582 Ry

     total magnetization       =    23.00 Bohr mag/cell
     absolute magnetization    =    32.84 Bohr mag/cell

     iteration # 10     ecut=    40.00 Ry     beta=0.70
     Davidson diagonalization with overlap
     ethr =  3.87E-04,  avg # of iterations =  2.1

     total cpu time spent up to now is     3128.5 secs

     total energy              =   -2352.25277111 Ry
     Harris-Foulkes estimate   =   -2352.32990968 Ry
     estimated scf accuracy    <       0.97366102 Ry

     total magnetization       =    23.00 Bohr mag/cell
     absolute magnetization    =    33.75 Bohr mag/cell

     iteration # 11     ecut=    40.00 Ry     beta=0.70
     Davidson diagonalization with overlap
     ethr =  3.87E-04,  avg # of iterations =  1.4

     negative rho (up, down):  0.130E-05 0.105E-05

     total cpu time spent up to now is     3370.7 secs

     total energy              =   -2352.04956923 Ry
     Harris-Foulkes estimate   =   -2352.29596913 Ry
     estimated scf accuracy    <       0.42592918 Ry

     total magnetization       =    23.00 Bohr mag/cell
     absolute magnetization    =    33.58 Bohr mag/cell

     iteration # 12     ecut=    40.00 Ry     beta=0.70
     Davidson diagonalization with overlap
     ethr =  1.74E-04,  avg # of iterations =  7.3

     negative rho (up, down):  0.280E-05 0.347E-06

     total cpu time spent up to now is     3740.4 secs

     total energy              =   -2351.91806553 Ry
     Harris-Foulkes estimate   =   -2352.23749300 Ry
     estimated scf accuracy    <       1.28243238 Ry

     total magnetization       =    23.00 Bohr mag/cell
     absolute magnetization    =    33.03 Bohr mag/cell

     iteration # 13     ecut=    40.00 Ry     beta=0.70
     Davidson diagonalization with overlap
     ethr =  1.74E-04,  avg # of iterations =  3.1

     negative rho (up, down):  0.968E-05 0.293E-05

     total cpu time spent up to now is     3994.0 secs

     total energy              =   -2352.06713017 Ry
     Harris-Foulkes estimate   =   -2352.19667670 Ry
     estimated scf accuracy    <       0.57814810 Ry

     total magnetization       =    23.00 Bohr mag/cell
     absolute magnetization    =    33.23 Bohr mag/cell

     iteration # 14     ecut=    40.00 Ry     beta=0.70
     Davidson diagonalization with overlap
     ethr =  1.74E-04,  avg # of iterations =  2.0

     negative rho (up, down):  0.538E-04 0.143E-04

     total cpu time spent up to now is     4234.5 secs

     total energy              =   -2352.07521323 Ry
     Harris-Foulkes estimate   =   -2352.18505811 Ry
     estimated scf accuracy    <       0.63854984 Ry

     total magnetization       =    23.00 Bohr mag/cell
     absolute magnetization    =    32.96 Bohr mag/cell

     iteration # 15     ecut=    40.00 Ry     beta=0.70
     Davidson diagonalization with overlap
     ethr =  1.74E-04,  avg # of iterations =  1.0

     negative rho (up, down):  0.720E-04 0.436E-04

     total cpu time spent up to now is     4471.9 secs

     total energy              =   -2352.10664353 Ry
     Harris-Foulkes estimate   =   -2352.13994643 Ry
     estimated scf accuracy    <       0.20326171 Ry

     total magnetization       =    23.00 Bohr mag/cell
     absolute magnetization    =    32.94 Bohr mag/cell

     iteration # 16     ecut=    40.00 Ry     beta=0.70
     Davidson diagonalization with overlap
     ethr =  8.30E-05,  avg # of iterations =  3.0

     negative rho (up, down):  0.265E-03 0.105E-03

     total cpu time spent up to now is     4717.8 secs

     total energy              =   -2352.10186006 Ry
     Harris-Foulkes estimate   =   -2352.16113299 Ry
     estimated scf accuracy    <       0.77727960 Ry

     total magnetization       =    23.00 Bohr mag/cell
     absolute magnetization    =    33.71 Bohr mag/cell

     iteration # 17     ecut=    40.00 Ry     beta=0.70
     Davidson diagonalization with overlap
     ethr =  8.30E-05,  avg # of iterations =  4.7

     negative rho (up, down):  0.674E-03 0.509E-03

     total cpu time spent up to now is     4993.2 secs

     total energy              =   -2352.12456817 Ry
     Harris-Foulkes estimate   =   -2352.13222560 Ry
     estimated scf accuracy    <       0.05324077 Ry

     total magnetization       =    23.00 Bohr mag/cell
     absolute magnetization    =    32.82 Bohr mag/cell

     iteration # 18     ecut=    40.00 Ry     beta=0.70
     Davidson diagonalization with overlap
     ethr =  2.17E-05,  avg # of iterations =  3.4

     negative rho (up, down):  0.136E-02 0.101E-02

     total cpu time spent up to now is     5243.3 secs

     total energy              =   -2352.12713724 Ry
     Harris-Foulkes estimate   =   -2352.12985483 Ry
     estimated scf accuracy    <       0.02224082 Ry

     total magnetization       =    23.00 Bohr mag/cell
     absolute magnetization    =    32.94 Bohr mag/cell

     iteration # 19     ecut=    40.00 Ry     beta=0.70
     Davidson diagonalization with overlap
     ethr =  9.08E-06,  avg # of iterations =  5.3

     negative rho (up, down):  0.123E-02 0.899E-03

     total cpu time spent up to now is     5514.7 secs

     total energy              =   -2352.12753089 Ry
     Harris-Foulkes estimate   =   -2352.12967257 Ry
     estimated scf accuracy    <       0.01665264 Ry

     total magnetization       =    23.00 Bohr mag/cell
     absolute magnetization    =    32.85 Bohr mag/cell

     iteration # 20     ecut=    40.00 Ry     beta=0.70
     Davidson diagonalization with overlap
     ethr =  6.80E-06,  avg # of iterations =  3.2

     negative rho (up, down):  0.101E-02 0.729E-03

     total cpu time spent up to now is     5767.3 secs

     total energy              =   -2352.12710335 Ry
     Harris-Foulkes estimate   =   -2352.13012355 Ry
     estimated scf accuracy    <       0.04254515 Ry

     total magnetization       =    23.00 Bohr mag/cell
     absolute magnetization    =    32.69 Bohr mag/cell

     iteration # 21     ecut=    40.00 Ry     beta=0.70
     Davidson diagonalization with overlap
     ethr =  6.80E-06,  avg # of iterations =  1.0

     negative rho (up, down):  0.211E-02 0.164E-02

     total cpu time spent up to now is     6003.4 secs

     total energy              =   -2352.12823377 Ry
     Harris-Foulkes estimate   =   -2352.12949006 Ry
     estimated scf accuracy    <       0.00898273 Ry

     total magnetization       =    23.00 Bohr mag/cell
     absolute magnetization    =    32.77 Bohr mag/cell

     iteration # 22     ecut=    40.00 Ry     beta=0.70
     Davidson diagonalization with overlap
     ethr =  3.67E-06,  avg # of iterations =  3.5

     negative rho (up, down):  0.222E-02 0.170E-02

     total cpu time spent up to now is     6257.8 secs

     total energy              =   -2352.12794801 Ry
     Harris-Foulkes estimate   =   -2352.13019699 Ry
     estimated scf accuracy    <       0.01509695 Ry

     total magnetization       =    23.00 Bohr mag/cell
     absolute magnetization    =    32.60 Bohr mag/cell

     iteration # 23     ecut=    40.00 Ry     beta=0.70
     Davidson diagonalization with overlap
     ethr =  3.67E-06,  avg # of iterations =  3.0

     negative rho (up, down):  0.174E-02 0.133E-02

     total cpu time spent up to now is     6499.1 secs

     total energy              =   -2352.12889465 Ry
     Harris-Foulkes estimate   =   -2352.12931250 Ry
     estimated scf accuracy    <       0.00246259 Ry

     total magnetization       =    23.00 Bohr mag/cell
     absolute magnetization    =    32.68 Bohr mag/cell

     iteration # 24     ecut=    40.00 Ry     beta=0.70
     Davidson diagonalization with overlap
     ethr =  1.01E-06,  avg # of iterations =  1.2

     negative rho (up, down):  0.177E-02 0.136E-02

     total cpu time spent up to now is     6737.8 secs

     total energy              =   -2352.12887803 Ry
     Harris-Foulkes estimate   =   -2352.12945521 Ry
     estimated scf accuracy    <       0.00341798 Ry

     total magnetization       =    23.00 Bohr mag/cell
     absolute magnetization    =    32.66 Bohr mag/cell

     iteration # 25     ecut=    40.00 Ry     beta=0.70
     Davidson diagonalization with overlap
     ethr =  1.01E-06,  avg # of iterations =  1.0

     negative rho (up, down):  0.189E-02 0.145E-02

     total cpu time spent up to now is     6977.6 secs

     total energy              =   -2352.12916663 Ry
     Harris-Foulkes estimate   =   -2352.12924987 Ry
     estimated scf accuracy    <       0.00094030 Ry

     total magnetization       =    23.00 Bohr mag/cell
     absolute magnetization    =    32.65 Bohr mag/cell

     iteration # 26     ecut=    40.00 Ry     beta=0.70
     Davidson diagonalization with overlap
     ethr =  3.84E-07,  avg # of iterations =  1.0

     negative rho (up, down):  0.186E-02 0.143E-02

     total cpu time spent up to now is     7204.9 secs

     total energy              =   -2352.12897482 Ry
     Harris-Foulkes estimate   =   -2352.12954453 Ry
     estimated scf accuracy    <       0.00627017 Ry

     total magnetization       =    23.00 Bohr mag/cell
     absolute magnetization    =    32.66 Bohr mag/cell

     iteration # 27     ecut=    40.00 Ry     beta=0.70
     Davidson diagonalization with overlap
     ethr =  3.84E-07,  avg # of iterations =  1.0

     negative rho (up, down):  0.183E-02 0.140E-02

     total cpu time spent up to now is     7431.8 secs

     total energy              =   -2352.12922003 Ry
     Harris-Foulkes estimate   =   -2352.12929684 Ry
     estimated scf accuracy    <       0.00026106 Ry

     total magnetization       =    23.00 Bohr mag/cell
     absolute magnetization    =    32.59 Bohr mag/cell

     iteration # 28     ecut=    40.00 Ry     beta=0.70
     Davidson diagonalization with overlap
     ethr =  1.07E-07,  avg # of iterations =  1.1

     negative rho (up, down):  0.183E-02 0.140E-02

     total cpu time spent up to now is     7661.0 secs

     total energy              =   -2352.12921614 Ry
     Harris-Foulkes estimate   =   -2352.12930703 Ry
     estimated scf accuracy    <       0.00070108 Ry

     total magnetization       =    23.00 Bohr mag/cell
     absolute magnetization    =    32.58 Bohr mag/cell

     iteration # 29     ecut=    40.00 Ry     beta=0.70
     Davidson diagonalization with overlap
     ethr =  1.07E-07,  avg # of iterations =  1.0

     negative rho (up, down):  0.183E-02 0.141E-02

     total cpu time spent up to now is     7892.1 secs

     total energy              =   -2352.12925306 Ry
     Harris-Foulkes estimate   =   -2352.12930202 Ry
     estimated scf accuracy    <       0.00041216 Ry

     total magnetization       =    23.00 Bohr mag/cell
     absolute magnetization    =    32.58 Bohr mag/cell

     iteration # 30     ecut=    40.00 Ry     beta=0.70
     Davidson diagonalization with overlap
     ethr =  1.07E-07,  avg # of iterations =  1.0

     negative rho (up, down):  0.182E-02 0.140E-02

     total cpu time spent up to now is     8119.4 secs

     total energy              =   -2352.12926245 Ry
     Harris-Foulkes estimate   =   -2352.12929479 Ry
     estimated scf accuracy    <       0.00019153 Ry

     total magnetization       =    23.00 Bohr mag/cell
     absolute magnetization    =    32.57 Bohr mag/cell

     iteration # 31     ecut=    40.00 Ry     beta=0.70
     Davidson diagonalization with overlap
     ethr =  7.82E-08,  avg # of iterations =  1.0

     negative rho (up, down):  0.182E-02 0.139E-02

     total cpu time spent up to now is     8343.8 secs

     total energy              =   -2352.12924977 Ry
     Harris-Foulkes estimate   =   -2352.12931854 Ry
     estimated scf accuracy    <       0.00072257 Ry

     total magnetization       =    23.00 Bohr mag/cell
     absolute magnetization    =    32.57 Bohr mag/cell

     iteration # 32     ecut=    40.00 Ry     beta=0.70
     Davidson diagonalization with overlap
     ethr =  7.82E-08,  avg # of iterations =  1.0

     negative rho (up, down):  0.182E-02 0.140E-02

     total cpu time spent up to now is     8572.9 secs

     total energy              =   -2352.12927613 Ry
     Harris-Foulkes estimate   =   -2352.12930905 Ry
     estimated scf accuracy    <       0.00032285 Ry

     total magnetization       =    23.00 Bohr mag/cell
     absolute magnetization    =    32.57 Bohr mag/cell

     iteration # 33     ecut=    40.00 Ry     beta=0.70
     Davidson diagonalization with overlap
     ethr =  7.82E-08,  avg # of iterations =  1.0

     negative rho (up, down):  0.182E-02 0.139E-02

     total cpu time spent up to now is     8799.6 secs

     total energy              =   -2352.12929559 Ry
     Harris-Foulkes estimate   =   -2352.12930023 Ry
     estimated scf accuracy    <       0.00006376 Ry

     total magnetization       =    23.00 Bohr mag/cell
     absolute magnetization    =    32.55 Bohr mag/cell

     iteration # 34     ecut=    40.00 Ry     beta=0.70
     Davidson diagonalization with overlap
     ethr =  2.60E-08,  avg # of iterations =  1.0

     negative rho (up, down):  0.182E-02 0.139E-02

     total cpu time spent up to now is     9027.3 secs

     total energy              =   -2352.12929348 Ry
     Harris-Foulkes estimate   =   -2352.12930530 Ry
     estimated scf accuracy    <       0.00004210 Ry

     total magnetization       =    23.00 Bohr mag/cell
     absolute magnetization    =    32.53 Bohr mag/cell

     iteration # 35     ecut=    40.00 Ry     beta=0.70
     Davidson diagonalization with overlap
     ethr =  1.72E-08,  avg # of iterations =  1.6

     negative rho (up, down):  0.181E-02 0.139E-02

     total cpu time spent up to now is     9258.4 secs

     total energy              =   -2352.12927897 Ry
     Harris-Foulkes estimate   =   -2352.12932311 Ry
     estimated scf accuracy    <       0.00055113 Ry

     total magnetization       =    23.00 Bohr mag/cell
     absolute magnetization    =    32.53 Bohr mag/cell

     iteration # 36     ecut=    40.00 Ry     beta=0.70
     Davidson diagonalization with overlap
     ethr =  1.72E-08,  avg # of iterations =  1.0

     negative rho (up, down):  0.181E-02 0.139E-02

     total cpu time spent up to now is     9487.6 secs

     total energy              =   -2352.12929681 Ry
     Harris-Foulkes estimate   =   -2352.12931125 Ry
     estimated scf accuracy    <       0.00016336 Ry

     total magnetization       =    23.00 Bohr mag/cell
     absolute magnetization    =    32.53 Bohr mag/cell

     iteration # 37     ecut=    40.00 Ry     beta=0.70
     Davidson diagonalization with overlap
     ethr =  1.72E-08,  avg # of iterations =  1.1

     negative rho (up, down):  0.181E-02 0.139E-02

     total cpu time spent up to now is     9712.9 secs

     total energy              =   -2352.12930283 Ry
     Harris-Foulkes estimate   =   -2352.12930635 Ry
     estimated scf accuracy    <       0.00001575 Ry

     total magnetization       =    23.00 Bohr mag/cell
     absolute magnetization    =    32.53 Bohr mag/cell

     iteration # 38     ecut=    40.00 Ry     beta=0.70
     Davidson diagonalization with overlap
     ethr =  6.43E-09,  avg # of iterations =  1.0

     negative rho (up, down):  0.181E-02 0.139E-02

     total cpu time spent up to now is     9938.4 secs

     total energy              =   -2352.12930427 Ry
     Harris-Foulkes estimate   =   -2352.12930654 Ry
     estimated scf accuracy    <       0.00001738 Ry

     total magnetization       =    23.00 Bohr mag/cell
     absolute magnetization    =    32.52 Bohr mag/cell

     iteration # 39     ecut=    40.00 Ry     beta=0.70
     Davidson diagonalization with overlap
     ethr =  6.43E-09,  avg # of iterations =  1.0

     negative rho (up, down):  0.181E-02 0.139E-02

     total cpu time spent up to now is    10162.9 secs

     total energy              =   -2352.12930284 Ry
     Harris-Foulkes estimate   =   -2352.12930772 Ry
     estimated scf accuracy    <       0.00001954 Ry

     total magnetization       =    23.00 Bohr mag/cell
     absolute magnetization    =    32.52 Bohr mag/cell

     iteration # 40     ecut=    40.00 Ry     beta=0.70
     Davidson diagonalization with overlap
     ethr =  6.43E-09,  avg # of iterations =  1.1

     negative rho (up, down):  0.181E-02 0.139E-02

     total cpu time spent up to now is    10388.7 secs

     total energy              =   -2352.12930415 Ry
     Harris-Foulkes estimate   =   -2352.12930729 Ry
     estimated scf accuracy    <       0.00003924 Ry

     total magnetization       =    23.00 Bohr mag/cell
     absolute magnetization    =    32.52 Bohr mag/cell

     iteration # 41     ecut=    40.00 Ry     beta=0.70
     Davidson diagonalization with overlap
     ethr =  6.43E-09,  avg # of iterations =  1.0

     negative rho (up, down):  0.181E-02 0.139E-02

     total cpu time spent up to now is    10617.0 secs

     total energy              =   -2352.12930596 Ry
     Harris-Foulkes estimate   =   -2352.12930714 Ry
     estimated scf accuracy    <       0.00000861 Ry

     total magnetization       =    23.00 Bohr mag/cell
     absolute magnetization    =    32.51 Bohr mag/cell

     iteration # 42     ecut=    40.00 Ry     beta=0.70
     Davidson diagonalization with overlap
     ethr =  3.52E-09,  avg # of iterations =  1.0

     negative rho (up, down):  0.181E-02 0.139E-02

     total cpu time spent up to now is    10844.6 secs

     total energy              =   -2352.12930508 Ry
     Harris-Foulkes estimate   =   -2352.12930717 Ry
     estimated scf accuracy    <       0.00001185 Ry

     total magnetization       =    23.00 Bohr mag/cell
     absolute magnetization    =    32.51 Bohr mag/cell

     iteration # 43     ecut=    40.00 Ry     beta=0.70
     Davidson diagonalization with overlap
     ethr =  3.52E-09,  avg # of iterations =  1.0

     negative rho (up, down):  0.181E-02 0.139E-02

     total cpu time spent up to now is    11069.4 secs

     total energy              =   -2352.12930544 Ry
     Harris-Foulkes estimate   =   -2352.12930711 Ry
     estimated scf accuracy    <       0.00001874 Ry

     total magnetization       =    23.00 Bohr mag/cell
     absolute magnetization    =    32.52 Bohr mag/cell

     iteration # 44     ecut=    40.00 Ry     beta=0.70
     Davidson diagonalization with overlap
     ethr =  3.52E-09,  avg # of iterations =  1.0

     negative rho (up, down):  0.181E-02 0.139E-02

     total cpu time spent up to now is    11294.9 secs

     total energy              =   -2352.12930655 Ry
     Harris-Foulkes estimate   =   -2352.12930668 Ry
     estimated scf accuracy    <       0.00000388 Ry

     total magnetization       =    23.00 Bohr mag/cell
     absolute magnetization    =    32.52 Bohr mag/cell

     iteration # 45     ecut=    40.00 Ry     beta=0.70
     Davidson diagonalization with overlap
     ethr =  1.58E-09,  avg # of iterations =  1.0

     negative rho (up, down):  0.181E-02 0.139E-02

     total cpu time spent up to now is    11522.7 secs

     total energy              =   -2352.12930672 Ry
     Harris-Foulkes estimate   =   -2352.12930711 Ry
     estimated scf accuracy    <       0.00000360 Ry

     total magnetization       =    23.00 Bohr mag/cell
     absolute magnetization    =    32.51 Bohr mag/cell

     iteration # 46     ecut=    40.00 Ry     beta=0.70
     Davidson diagonalization with overlap
     ethr =  1.47E-09,  avg # of iterations =  1.0

     negative rho (up, down):  0.181E-02 0.139E-02

     total cpu time spent up to now is    11750.0 secs

     total energy              =   -2352.12930676 Ry
     Harris-Foulkes estimate   =   -2352.12930714 Ry
     estimated scf accuracy    <       0.00000451 Ry

     total magnetization       =    23.00 Bohr mag/cell
     absolute magnetization    =    32.51 Bohr mag/cell

     iteration # 47     ecut=    40.00 Ry     beta=0.70
     Davidson diagonalization with overlap
     ethr =  1.47E-09,  avg # of iterations =  1.0

     negative rho (up, down):  0.181E-02 0.139E-02

     total cpu time spent up to now is    11975.0 secs

     total energy              =   -2352.12930684 Ry
     Harris-Foulkes estimate   =   -2352.12930708 Ry
     estimated scf accuracy    <       0.00000163 Ry

     total magnetization       =    23.00 Bohr mag/cell
     absolute magnetization    =    32.51 Bohr mag/cell

     iteration # 48     ecut=    40.00 Ry     beta=0.70
     Davidson diagonalization with overlap
     ethr =  6.65E-10,  avg # of iterations =  1.0

     negative rho (up, down):  0.181E-02 0.139E-02

     total cpu time spent up to now is    12200.4 secs

     total energy              =   -2352.12930681 Ry
     Harris-Foulkes estimate   =   -2352.12930723 Ry
     estimated scf accuracy    <       0.00000314 Ry

     total magnetization       =    23.00 Bohr mag/cell
     absolute magnetization    =    32.51 Bohr mag/cell

     iteration # 49     ecut=    40.00 Ry     beta=0.70
     Davidson diagonalization with overlap
     ethr =  6.65E-10,  avg # of iterations =  1.0

     negative rho (up, down):  0.181E-02 0.139E-02

     total cpu time spent up to now is    12424.4 secs

     End of self-consistent calculation
 --- enter write_ns ---
 LDA+U parameters:
U( 2)     =  5.50000000
alpha( 2) =  0.00000000
atom    3   Tr[ns(na)] (up, down, total) =   4.38548  1.01043  5.39591
   spin  1
    eigenvalues: 
  0.681  0.703  0.999  0.999  1.003
    eigenvectors:
  0.168  0.065  0.720  0.025  0.023
  0.310  0.689  0.001  0.001  0.000
  0.000  0.000  0.026  0.001  0.973
  0.522  0.245  0.221  0.007  0.004
  0.000  0.001  0.033  0.966  0.000
    occupations:
  0.926  0.010 -0.003 -0.131  0.001
  0.010  0.697  0.000  0.006 -0.009
 -0.003  0.000  1.003 -0.004  0.000
 -0.131  0.006 -0.004  0.760  0.001
  0.001 -0.009  0.000  0.001  0.999
   spin  2
    eigenvalues: 
  0.082  0.106  0.121  0.343  0.358
    eigenvectors:
  0.787  0.000  0.005  0.023  0.184
  0.000  0.002  0.000  0.888  0.111
  0.006  0.026  0.968  0.000  0.000
  0.207  0.000  0.001  0.088  0.705
  0.000  0.972  0.027  0.002  0.000
    occupations:
  0.139 -0.002 -0.002  0.111 -0.000
 -0.002  0.344  0.000 -0.004  0.010
 -0.002  0.000  0.121  0.003 -0.003
  0.111 -0.004  0.003  0.299 -0.000
 -0.000  0.010 -0.003 -0.000  0.106
atomic mag. moment =     3.375056
atom    4   Tr[ns(na)] (up, down, total) =   4.36935  1.02698  5.39633
   spin  1
    eigenvalues: 
  0.665  0.700  0.997  1.003  1.004
    eigenvectors:
  0.000  0.998  0.001  0.000  0.001
  0.000  0.001  0.000  0.008  0.991
  0.000  0.000  0.000  0.992  0.008
  0.000  0.001  0.999  0.000  0.000
  1.000  0.000  0.000  0.000  0.000
    occupations:
  0.701 -0.010 -0.004  0.007 -0.000
 -0.010  1.004 -0.000  0.000  0.001
 -0.004 -0.000  1.003  0.000 -0.000
  0.007  0.000  0.000  0.997  0.000
 -0.000  0.001 -0.000  0.000  0.665
   spin  2
    eigenvalues: 
  0.080  0.107  0.122  0.355  0.363
    eigenvectors:
  0.003  0.002  0.000  0.000  0.994
  0.001  0.873  0.123  0.000  0.002
  0.001  0.122  0.877  0.000  0.000
  0.995  0.002  0.000  0.000  0.003
  0.000  0.000  0.000  1.000  0.000
    occupations:
  0.361  0.012  0.004 -0.016  0.000
  0.012  0.110 -0.005  0.000 -0.003
  0.004 -0.005  0.120  0.001  0.000
 -0.016  0.000  0.001  0.081 -0.000
  0.000 -0.003  0.000 -0.000  0.355
atomic mag. moment =     3.342366
atom    9   Tr[ns(na)] (up, down, total) =   4.33896  1.10602  5.44498
   spin  1
    eigenvalues: 
  0.682  0.691  0.975  0.992  0.998
    eigenvectors:
  0.181  0.001  0.000  0.006  0.812
  0.009  0.991  0.000  0.000  0.000
  0.000  0.000  0.004  0.990  0.006
  0.809  0.008  0.000  0.000  0.182
  0.000  0.000  0.996  0.004  0.000
    occupations:
  0.941 -0.002 -0.002 -0.122  0.000
 -0.002  0.691  0.000  0.000 -0.000
 -0.002  0.000  0.992 -0.005 -0.001
 -0.122  0.000 -0.005  0.740  0.001
  0.000 -0.000 -0.001  0.001  0.975
   spin  2
    eigenvalues: 
  0.110  0.116  0.123  0.367  0.390
    eigenvectors:
  0.840  0.003  0.000  0.155  0.001
  0.000  0.000  0.000  0.007  0.993
  0.003  0.995  0.002  0.001  0.000
  0.157  0.000  0.000  0.837  0.006
  0.000  0.002  0.998  0.000  0.000
    occupations:
  0.150  0.001  0.002  0.093 -0.000
  0.001  0.390 -0.000 -0.002  0.000
  0.002 -0.000  0.116  0.006 -0.000
  0.093 -0.002  0.006  0.326 -0.000
 -0.000  0.000 -0.000 -0.000  0.123
atomic mag. moment =     3.232941
atom   10   Tr[ns(na)] (up, down, total) =   4.55801  0.78439  5.34240
   spin  1
    eigenvalues: 
  0.665  0.898  0.997  0.997  1.001
    eigenvectors:
  0.000  0.984  0.015  0.000  0.001
  0.000  0.000  0.000  1.000  0.000
  0.000  0.000  0.015  0.000  0.984
  0.000  0.016  0.970  0.000  0.015
  1.000  0.000  0.000  0.000  0.000
    occupations:
  0.900 -0.000  0.002  0.012  0.000
 -0.000  0.997 -0.000  0.000 -0.004
  0.002 -0.000  1.001  0.000 -0.000
  0.012  0.000  0.000  0.995 -0.000
  0.000 -0.004 -0.000 -0.000  0.665
   spin  2
    eigenvalues: 
  0.071  0.094  0.097  0.201  0.322
    eigenvectors:
  0.013  0.000  0.000  0.987  0.000
  0.000  0.000  0.999  0.000  0.001
  0.001  0.999  0.000  0.000  0.000
  0.986  0.001  0.000  0.013  0.000
  0.000  0.000  0.001  0.000  0.999
    occupations:
  0.199 -0.000 -0.001 -0.015 -0.000
 -0.000  0.097 -0.000  0.000  0.006
 -0.001 -0.000  0.094 -0.001  0.000
 -0.015  0.000 -0.001  0.073  0.000
 -0.000  0.006  0.000  0.000  0.321
atomic mag. moment =     3.773626
atom   16   Tr[ns(na)] (up, down, total) =   4.38523  1.01068  5.39591
   spin  1
    eigenvalues: 
  0.681  0.703  0.999  0.999  1.003
    eigenvectors:
  0.172  0.061  0.747  0.000  0.020
  0.291  0.708  0.000  0.001  0.000
  0.000  0.000  0.023  0.000  0.976
  0.537  0.230  0.229  0.000  0.004
  0.000  0.001  0.000  0.998  0.000
    occupations:
  0.926 -0.010 -0.003 -0.132 -0.000
 -0.010  0.697 -0.001 -0.006 -0.009
 -0.003 -0.001  1.003 -0.004  0.000
 -0.132 -0.006 -0.004  0.760 -0.000
 -0.000 -0.009  0.000 -0.000  0.999
   spin  2
    eigenvalues: 
  0.082  0.106  0.121  0.343  0.358
    eigenvectors:
  0.787  0.000  0.005  0.022  0.186
  0.000  0.002  0.000  0.893  0.105
  0.006  0.026  0.968  0.000  0.000
  0.207  0.000  0.001  0.084  0.709
  0.000  0.972  0.026  0.002  0.000
    occupations:
  0.139  0.002 -0.002  0.111 -0.000
  0.002  0.345 -0.000  0.004  0.010
 -0.002 -0.000  0.121  0.003  0.003
  0.111  0.004  0.003  0.300 -0.000
 -0.000  0.010  0.003 -0.000  0.106
atomic mag. moment =     3.374551
atom   17   Tr[ns(na)] (up, down, total) =   4.36824  1.02670  5.39493
   spin  1
    eigenvalues: 
  0.666  0.699  0.997  1.003  1.004
    eigenvectors:
  0.000  0.998  0.000  0.000  0.001
  0.000  0.001  0.000  0.000  0.999
  0.000  0.000  0.000  1.000  0.000
  0.000  0.000  0.999  0.000  0.000
  1.000  0.000  0.000  0.000  0.000
    occupations:
  0.699 -0.010 -0.004  0.006 -0.000
 -0.010  1.004 -0.000  0.000  0.001
 -0.004 -0.000  1.003  0.000  0.000
  0.006  0.000  0.000  0.996  0.000
 -0.000  0.001  0.000  0.000  0.666
   spin  2
    eigenvalues: 
  0.080  0.107  0.121  0.355  0.363
    eigenvectors:
  0.003  0.002  0.000  0.001  0.994
  0.001  0.872  0.125  0.000  0.002
  0.001  0.124  0.875  0.000  0.000
  0.995  0.002  0.000  0.000  0.003
  0.000  0.000  0.000  0.999  0.001
    occupations:
  0.361  0.012  0.004 -0.016 -0.000
  0.012  0.110 -0.004  0.000 -0.003
  0.004 -0.004  0.120  0.001  0.000
 -0.016  0.000  0.001  0.081 -0.000
 -0.000 -0.003  0.000 -0.000  0.355
atomic mag. moment =     3.341539
atom   22   Tr[ns(na)] (up, down, total) =   4.33879  1.10624  5.44503
   spin  1
    eigenvalues: 
  0.682  0.691  0.975  0.992  0.998
    eigenvectors:
  0.174  0.008  0.000  0.007  0.811
  0.051  0.949  0.000  0.000  0.000
  0.000  0.000  0.004  0.988  0.007
  0.775  0.043  0.000  0.000  0.182
  0.000  0.000  0.996  0.004  0.000
    occupations:
  0.941  0.003 -0.002 -0.122 -0.000
  0.003  0.691 -0.000  0.001 -0.000
 -0.002 -0.000  0.992 -0.005  0.001
 -0.122  0.001 -0.005  0.740 -0.001
 -0.000 -0.000  0.001 -0.001  0.975
   spin  2
    eigenvalues: 
  0.110  0.116  0.123  0.367  0.390
    eigenvectors:
  0.840  0.003  0.000  0.155  0.001
  0.000  0.000  0.000  0.007  0.993
  0.003  0.995  0.001  0.001  0.000
  0.157  0.000  0.000  0.837  0.006
  0.000  0.001  0.999  0.000  0.000
    occupations:
  0.150 -0.001  0.002  0.093  0.000
 -0.001  0.390  0.000  0.002  0.000
  0.002  0.000  0.116  0.006  0.000
  0.093  0.002  0.006  0.327  0.000
  0.000  0.000  0.000  0.000  0.123
atomic mag. moment =     3.232551
atom   23   Tr[ns(na)] (up, down, total) =   4.39945  0.98154  5.38100
   spin  1
    eigenvalues: 
  0.700  0.705  0.994  0.999  1.001
    eigenvectors:
  0.000  0.997  0.000  0.001  0.002
  0.000  0.000  1.000  0.000  0.000
  0.000  0.002  0.000  0.081  0.917
  0.000  0.000  0.000  0.918  0.082
  1.000  0.000  0.000  0.000  0.000
    occupations:
  0.706 -0.000  0.014  0.005  0.000
 -0.000  0.994  0.000 -0.000 -0.000
  0.014  0.000  1.000 -0.001  0.000
  0.005 -0.000 -0.001  0.999  0.000
  0.000 -0.000  0.000  0.000  0.700
   spin  2
    eigenvalues: 
  0.084  0.092  0.126  0.314  0.365
    eigenvectors:
  0.002  0.003  0.000  0.995  0.000
  0.000  0.000  0.999  0.000  0.001
  0.002  0.996  0.000  0.002  0.000
  0.996  0.002  0.000  0.002  0.000
  0.000  0.000  0.001  0.000  0.999
    occupations:
  0.313  0.000 -0.011 -0.011 -0.000
  0.000  0.127  0.000  0.000  0.005
 -0.011  0.000  0.093  0.001 -0.000
 -0.011  0.000  0.001  0.085 -0.000
 -0.000  0.005 -0.000 -0.000  0.365
atomic mag. moment =     3.417912
N of occupied +U levels =  43.1964808
 --- exit write_ns ---

 ------ SPIN UP ------------


          k = 0.0000 0.0000 0.0000 ( 26393 PWs)   bands (ev):

   -83.7866 -83.6704 -83.6601 -83.4383 -83.4071 -83.3205 -83.3099 -83.2561
   -52.4831 -52.4705 -52.4591 -52.4306 -52.3456 -52.3256 -52.3132 -52.3055
   -52.2888 -52.2419 -52.1313 -52.1181 -52.0964 -52.0833 -52.0419 -52.0322
   -52.0156 -52.0028 -51.9695 -51.9590 -51.9418 -51.9330 -51.9139 -51.9026
   -24.3023 -21.0775 -20.4618 -20.4373 -20.1157 -19.5987 -19.3240 -19.2778
   -19.2702 -19.1721 -19.1296 -19.0714 -18.8993 -18.8614 -18.8061 -18.7309
   -18.5507 -18.3413 -18.0837 -17.7009 -10.2176 -10.1338  -9.9922  -9.7424
    -9.6178  -9.3633  -9.2281  -9.0556  -9.0540  -9.0123  -8.4325  -8.2679
    -8.2433  -8.2340  -8.1010  -8.0728  -8.0301  -8.0118  -7.9126  -7.7831
    -7.5950  -7.5657  -7.5204  -7.4685  -7.4374  -7.3423  -7.2554  -7.1619
    -7.1007  -7.0639  -7.0161  -6.9531  -6.7270  -6.6989  -6.5419  -6.3509
    -6.3251  -6.3057  -6.2681  -6.2124  -6.1011  -6.0260  -5.6182  -5.5104
    -5.4776  -5.3401  -5.3164  -5.2380  -5.0625  -5.0186  -4.7341  -4.6443
    -4.5816  -4.4765  -4.4147  -4.3226  -4.1555  -4.0973  -4.0730  -3.9147
    -3.7019  -3.5840  -3.5196  -3.4525  -3.1247  -2.9102  -2.6897  -2.5670
    -2.4493  -2.4315  -2.3870  -2.2144  -2.0978  -2.0163  -1.9572  -1.9260
    -1.9022  -1.8581  -1.7709  -1.6613  -1.5359  -1.5157  -1.2459  -1.2078
    -1.1874  -0.6350  -0.2710  -0.0130   0.0373   0.1547   0.2227   0.5761
     0.6051   0.6154   1.0848   1.2358   1.3959   1.5058   1.6919   2.6790
     3.3780   3.6055   3.7864   4.3356   4.9394   5.5519   5.9589   6.4669
     6.9486   7.0185   7.2103   7.4582   7.4690   7.5424   7.5729   7.6229
     7.8020   7.9326   7.9429   8.1237   8.2652   8.2957   8.3325   8.5931
     8.7260   8.9056   8.9355   9.0390   9.1837   9.3305   9.5444   9.6616
     9.7102   9.7988  10.0013  10.0546  10.1205  10.2306  10.4445  10.5557
    10.5943  10.7285  10.8612  10.8905  11.0841  11.1047  11.1910  11.1996
    11.3601  11.4200  11.4540  11.5368  11.6460  11.8173  11.8349  11.8751
    11.9068  12.0956  12.1238  12.1431  12.2229  12.2260  12.2402  12.4186
    12.4971  12.5441  12.5585  12.6479  12.7526  12.8650  12.9127  13.0332
    13.0696  13.1969  13.2583  13.3736  13.3803  13.4464  13.5244  13.5869
    13.7296  13.7826  13.8172  13.8422  13.9269  14.0018  14.1084  14.1431
    14.3302  14.4286  14.5111  14.5785  14.6066  14.6295  14.7380  14.8971
    15.0686  15.0773  15.1053  15.1450  15.1945  15.3236  15.3741  15.4163
    15.4375  15.5429  15.6470  15.7250  15.7820  15.8330  16.0218  16.0536
    16.3731  16.5224  16.5390  16.5743  16.6704  16.7756  16.8548  16.9226
    16.9402  17.1967  17.2055  17.3394  17.4086  17.5504  17.6171  17.6938
    17.7723  17.8351  17.9428  18.0946  18.2008  18.2757  18.4060  18.4199
    18.5170  18.5531  18.6676  18.8462  18.9915  19.0545  19.1357  19.1651
    19.2169  19.2756  19.3537  19.3990  19.4596  19.5080  19.5776  19.6249
    19.7404  19.8063  19.8998  19.9802  20.0454  20.1361  20.1576  20.2587
    20.3149  20.3872  20.4102  20.6532  20.6890  20.7202  20.8673  20.9494
    21.0449  21.0799  21.1959  21.3576  21.3967  21.5183  21.5474  21.5618
    21.5961  21.6739  21.7314  21.8831  21.9230  21.9556  21.9944  22.1510
    22.1877  22.1990  22.2930  22.3688  22.4377  22.4748  22.4809  22.5884
    22.6055  22.6401  22.8143  22.8405  22.8773  22.9599  23.0106  23.1399
    23.1968  23.2871  23.3396

          k = 0.0000 0.2303 0.0000 ( 26455 PWs)   bands (ev):

   -83.7866 -83.6703 -83.6601 -83.4383 -83.4071 -83.3205 -83.3099 -83.2561
   -52.4831 -52.4706 -52.4591 -52.4305 -52.3457 -52.3253 -52.3135 -52.3054
   -52.2890 -52.2413 -52.1319 -52.1182 -52.0964 -52.0833 -52.0417 -52.0329
   -52.0147 -52.0028 -51.9695 -51.9592 -51.9423 -51.9330 -51.9140 -51.9027
   -24.3020 -21.0182 -20.4364 -20.3412 -20.1020 -19.6218 -19.4027 -19.3944
   -19.3692 -19.2677 -19.0370 -19.0092 -18.9508 -18.8744 -18.7885 -18.7077
   -18.5574 -18.3430 -18.0790 -17.6943 -10.0787  -9.9061  -9.8513  -9.8312
    -9.6850  -9.4229  -9.3960  -9.1196  -9.1007  -8.9923  -8.2888  -8.2360
    -8.1541  -8.0681  -8.0126  -7.9418  -7.9000  -7.8240  -7.7747  -7.6861
    -7.6383  -7.5845  -7.5211  -7.5047  -7.4708  -7.4162  -7.1655  -7.1505
    -7.1068  -7.0627  -7.0335  -6.9103  -6.8683  -6.7812  -6.7248  -6.5459
    -6.4445  -6.3910  -6.3503  -6.2910  -6.0749  -5.8814  -5.6634  -5.5707
    -5.4356  -5.3375  -5.3263  -5.2522  -5.0369  -4.9966  -4.8271  -4.7464
    -4.7007  -4.5581  -4.4797  -4.2640  -4.2002  -4.1536  -3.8349  -3.7751
    -3.6870  -3.5462  -3.4636  -3.2270  -3.0745  -2.8998  -2.7979  -2.6981
    -2.5902  -2.4582  -2.4311  -2.3992  -2.2865  -2.2491  -2.0312  -1.8816
    -1.8344  -1.8254  -1.7657  -1.7211  -1.5427  -1.5398  -1.2778  -1.2308
    -1.2172  -1.0238  -0.8788  -0.2184  -0.1154   0.2625   0.5771   0.6581
     0.9581   1.1154   1.3077   1.4081   1.4548   1.5651   1.7020   2.8075
     3.4509   3.8170   4.0358   4.5499   5.1358   5.2956   5.7159   5.8213
     6.0145   6.3549   6.6115   7.1281   7.3379   7.6499   7.6861   7.7617
     8.0165   8.1097   8.2387   8.3624   8.5256   8.5421   8.8263   8.9877
     9.0072   9.1110   9.1295   9.2994   9.4860   9.5478   9.6637   9.6778
     9.7723   9.8855   9.9447  10.0330  10.2398  10.3143  10.3915  10.4044
    10.4814  10.5007  10.5589  10.7611  10.8212  10.8848  10.8938  10.9841
    11.0759  11.1027  11.2873  11.4394  11.5158  11.6484  11.6900  11.7043
    11.8124  11.8936  12.0206  12.1625  12.1824  12.3052  12.3309  12.4964
    12.7257  12.7429  12.7893  12.8369  12.8593  13.1470  13.3071  13.3423
    13.3897  13.4893  13.5143  13.7056  13.8042  13.8321  13.8595  13.9033
    14.1240  14.1891  14.1958  14.2416  14.3579  14.3907  14.4123  14.4670
    14.5218  14.6515  14.6739  14.7598  14.7714  14.8682  14.9487  15.0412
    15.0690  15.1623  15.1951  15.2876  15.3677  15.3803  15.4491  15.4680
    15.4750  15.6498  15.7326  15.7459  15.8697  15.8880  15.9368  16.0263
    16.0563  16.0812  16.1959  16.3178  16.4398  16.5565  16.5789  16.6835
    16.7260  16.7889  17.0144  17.0326  17.1508  17.2299  17.2316  17.3664
    17.4491  17.5669  17.6835  17.6948  17.8880  17.9335  18.1160  18.2732
    18.3028  18.3458  18.4875  18.5664  18.6428  18.6637  18.8396  18.9311
    18.9497  19.1468  19.2158  19.2827  19.3251  19.4042  19.4331  19.4836
    19.6833  19.7268  19.8421  19.9818  20.0268  20.1786  20.2266  20.2865
    20.3342  20.4017  20.4398  20.4770  20.5319  20.5714  20.6544  20.6951
    20.7517  20.8844  20.8907  20.9860  21.1531  21.2238  21.2392  21.3054
    21.3764  21.4231  21.5040  21.5707  21.6447  21.6795  21.7711  21.8367
    21.8927  22.0120  22.0631  22.1088  22.1443  22.2821  22.4045  22.4491
    22.4913  22.5442  22.6601  22.6915  22.7852  22.8837  22.9474  23.0150
    23.0548  23.0999  23.1193

          k = 0.0000-0.4606 0.0000 ( 26364 PWs)   bands (ev):

   -83.7866 -83.6703 -83.6601 -83.4383 -83.4071 -83.3204 -83.3099 -83.2561
   -52.4830 -52.4705 -52.4591 -52.4304 -52.3457 -52.3249 -52.3139 -52.3051
   -52.2890 -52.2405 -52.1323 -52.1181 -52.0963 -52.0832 -52.0413 -52.0335
   -52.0137 -52.0027 -51.9694 -51.9592 -51.9427 -51.9329 -51.9139 -51.9026
   -24.3017 -20.9524 -20.4335 -20.1909 -20.0226 -19.7587 -19.5852 -19.4429
   -19.4316 -19.2391 -19.0863 -18.9802 -18.9788 -18.8514 -18.7584 -18.6908
   -18.5655 -18.3447 -18.0767 -17.6873 -10.0263 -10.0011  -9.7330  -9.6672
    -9.5602  -9.5092  -9.4288  -9.1429  -9.0724  -8.7366  -8.4351  -8.1586
    -8.1404  -8.1127  -7.9531  -7.9290  -7.8183  -7.7687  -7.7066  -7.6305
    -7.5692  -7.5209  -7.4964  -7.4499  -7.3748  -7.2734  -7.1777  -7.1608
    -7.0840  -7.0290  -7.0117  -6.9876  -6.9066  -6.7814  -6.7785  -6.7520
    -6.6665  -6.5616  -6.4509  -6.4132  -5.9933  -5.7941  -5.6135  -5.5782
    -5.3863  -5.3723  -5.3381  -5.2705  -5.2073  -5.1132  -5.0017  -4.8776
    -4.6857  -4.5866  -4.5446  -4.2336  -4.1852  -4.0521  -3.8015  -3.6189
    -3.5634  -3.4479  -3.4032  -3.0027  -2.9158  -2.7957  -2.7798  -2.7734
    -2.7417  -2.6685  -2.5928  -2.5243  -2.4339  -2.3044  -2.0873  -2.0281
    -1.8829  -1.8693  -1.8593  -1.8506  -1.6163  -1.5570  -1.5459  -1.4948
    -1.3326  -1.1889  -0.6956  -0.1704   0.2993   0.3218   0.5678   0.8005
     0.8267   0.9933   1.2773   1.4742   1.7024   1.8050   2.0492   2.9672
     3.5751   4.2823   4.4893   4.6047   4.7571   4.9812   5.2478   5.5401
     5.7505   6.1195   6.3242   6.9079   7.1900   7.6860   7.8385   7.8796
     8.1833   8.2176   8.5186   8.5723   8.6257   8.6765   8.7517   8.8561
     9.0398   9.1116   9.2068   9.2514   9.3058   9.3821   9.5573   9.7501
     9.7681   9.8668   9.9129  10.0006  10.0830  10.1820  10.2358  10.4085
    10.4407  10.5332  10.6958  10.7974  10.8786  11.0881  11.1765  11.2802
    11.3577  11.4115  11.4356  11.4834  11.5370  11.6421  11.7779  11.9670
    12.0541  12.1902  12.2235  12.3426  12.4003  12.4807  12.4993  12.5065
    12.7330  12.7707  12.8202  12.9959  13.0224  13.0874  13.2842  13.2965
    13.3645  13.4635  13.5805  13.6322  13.7228  13.7294  13.8729  14.0111
    14.0280  14.0412  14.0772  14.3250  14.3373  14.3625  14.5910  14.6079
    14.6271  14.6527  14.6808  14.7336  14.8049  14.9000  14.9394  15.0108
    15.2542  15.2648  15.3760  15.4202  15.4494  15.5080  15.5495  15.5880
    15.6815  15.7640  15.7719  15.8901  16.0157  16.0969  16.1269  16.2870
    16.3253  16.3785  16.4160  16.4903  16.6273  16.6511  16.7818  16.9481
    16.9935  17.0125  17.0629  17.1178  17.1749  17.2228  17.2717  17.3013
    17.4228  17.5165  17.6489  17.6965  17.7977  17.8196  17.8790  17.9063
    18.0125  18.1345  18.1521  18.1963  18.2396  18.4065  18.4389  18.5335
    18.6202  18.6918  18.7551  18.8848  18.9150  19.0359  19.0879  19.1293
    19.1716  19.2075  19.3336  19.4410  19.4642  19.5112  19.7602  19.8014
    19.9875  20.0479  20.1238  20.2109  20.2790  20.3896  20.4338  20.4839
    20.5979  20.6719  20.7087  20.7637  20.8559  20.9054  20.9452  21.0127
    21.0607  21.1326  21.1870  21.2149  21.3464  21.4824  21.5461  21.5763
    21.7423  21.8513  21.9000  21.9915  22.0604  22.2827  22.3436  22.5056
    22.5579  22.5721  22.6348  22.6730  22.7742  22.7905  22.8371  22.8440
    22.9023  22.9476  22.9920

          k = 0.2500 0.0000 0.0000 ( 26392 PWs)   bands (ev):

   -83.7863 -83.6686 -83.6612 -83.4375 -83.4072 -83.3187 -83.3111 -83.2558
   -52.4831 -52.4675 -52.4430 -52.4306 -52.3627 -52.3238 -52.3150 -52.3032
   -52.2914 -52.2256 -52.1393 -52.1262 -52.0978 -52.0656 -52.0406 -52.0336
   -52.0196 -52.0024 -51.9779 -51.9697 -51.9419 -51.9301 -51.9167 -51.9026
   -24.3022 -20.9639 -20.4985 -20.3276 -20.0184 -19.6761 -19.4874 -19.4158
   -19.2150 -19.0938 -19.0623 -19.0361 -18.9169 -18.8989 -18.8348 -18.7436
   -18.5689 -18.3832 -18.1458 -17.6998  -9.9695  -9.9108  -9.8178  -9.7028
    -9.5189  -9.1214  -9.0911  -8.9323  -8.8909  -8.8605  -8.5968  -8.5356
    -8.4762  -8.3554  -8.2763  -8.2017  -8.0639  -8.0170  -7.9476  -7.9376
    -7.6930  -7.6451  -7.5608  -7.4996  -7.4395  -7.3764  -7.2655  -7.2009
    -7.1509  -6.9982  -6.9764  -6.9632  -6.7780  -6.6412  -6.5498  -6.4680
    -6.4114  -6.3931  -6.3648  -6.3560  -6.2295  -6.1126  -5.6830  -5.6329
    -5.5749  -5.4210  -5.2148  -5.1406  -5.0860  -4.9877  -4.7209  -4.5752
    -4.4251  -4.3094  -4.1234  -4.0878  -4.0100  -3.9137  -3.8982  -3.8150
    -3.6778  -3.6254  -3.5324  -3.3371  -3.1416  -3.0209  -2.7551  -2.5832
    -2.5184  -2.4111  -2.2978  -2.1828  -2.1202  -2.0641  -2.0542  -2.0190
    -1.8717  -1.7985  -1.7298  -1.7001  -1.6213  -1.5416  -1.4866  -1.3437
    -1.0875  -0.4207  -0.2805   0.0711   0.1105   0.1537   0.2045   0.2528
     0.6254   0.7676   0.8318   0.9291   1.1120   1.3464   1.5899   2.8652
     3.4967   3.8719   4.0922   4.6298   5.1999   5.3112   5.9997   6.1279
     6.2403   6.5367   6.7979   7.0478   7.2323   7.3080   7.5270   7.7045
     7.7722   7.9090   8.0529   8.1372   8.2454   8.4589   8.5383   8.7455
     8.9232   9.0089   9.2354   9.2745   9.4616   9.4903   9.6840   9.8131
     9.9132   9.9842  10.0549  10.0754  10.1505  10.2967  10.3345  10.4232
    10.5350  10.6031  10.6203  10.7282  10.7737  10.8532  10.9464  11.0089
    11.1274  11.2126  11.3701  11.5280  11.5919  11.6421  11.7091  11.7603
    11.8110  11.8506  11.9725  12.1189  12.2311  12.3963  12.4832  12.5030
    12.6324  12.6759  12.8058  12.8551  13.0346  13.2004  13.2318  13.3758
    13.4500  13.4930  13.5500  13.6114  13.7211  13.8311  13.8818  13.9741
    14.0334  14.1245  14.2094  14.2925  14.3167  14.3620  14.5377  14.6338
    14.6527  14.7051  14.8051  14.8457  14.9140  14.9894  15.0384  15.1564
    15.1679  15.2499  15.3489  15.3960  15.4510  15.4869  15.5686  15.5855
    15.7899  15.8441  15.8690  15.9767  15.9994  16.1343  16.1824  16.3318
    16.3935  16.4954  16.6123  16.6571  16.7741  16.7926  16.8447  16.9558
    17.1164  17.1565  17.2348  17.3427  17.4034  17.4711  17.5798  17.6479
    17.7068  17.7555  17.8038  17.9285  17.9819  18.0525  18.1683  18.1956
    18.3315  18.4188  18.4556  18.6907  18.7556  18.7985  18.8281  18.9389
    19.0046  19.1274  19.1892  19.2852  19.3375  19.3594  19.4008  19.4919
    19.5621  19.6359  19.7169  19.7579  19.8545  19.9296  19.9863  20.0283
    20.1121  20.2308  20.3023  20.3635  20.4469  20.4861  20.5898  20.6557
    20.7241  20.7330  20.8822  20.9327  21.0269  21.0854  21.1916  21.2856
    21.3574  21.3837  21.4858  21.5466  21.5940  21.6204  21.6701  21.7651
    21.7700  21.8554  21.8927  21.9264  22.0186  22.0744  22.0904  22.1326
    22.1543  22.1813  22.2479  22.2654  22.3291  22.3636  22.4530  22.5170
    22.5798  22.6146  22.6655

          k = 0.2500 0.2303 0.0000 ( 26396 PWs)   bands (ev):

   -83.7863 -83.6686 -83.6612 -83.4375 -83.4072 -83.3186 -83.3111 -83.2558
   -52.4831 -52.4676 -52.4430 -52.4304 -52.3627 -52.3235 -52.3151 -52.3031
   -52.2915 -52.2251 -52.1395 -52.1264 -52.0978 -52.0656 -52.0404 -52.0344
   -52.0183 -52.0025 -51.9779 -51.9698 -51.9423 -51.9302 -51.9168 -51.9026
   -24.3019 -20.9156 -20.4936 -20.2162 -19.9835 -19.6711 -19.4890 -19.4049
   -19.3133 -19.2133 -19.1419 -19.1000 -18.9634 -18.8697 -18.7948 -18.7175
   -18.5713 -18.3862 -18.1417 -17.6932  -9.8652  -9.7474  -9.6602  -9.6470
    -9.5807  -9.2240  -9.1559  -8.9866  -8.9362  -8.8288  -8.4448  -8.4287
    -8.3499  -8.2709  -8.2445  -8.1528  -8.0609  -7.9177  -7.8113  -7.7563
    -7.6834  -7.6513  -7.5064  -7.4342  -7.3931  -7.2990  -7.2380  -7.2069
    -7.1539  -7.1242  -7.0307  -6.9378  -6.8951  -6.8102  -6.6682  -6.6489
    -6.5779  -6.5580  -6.5394  -6.3861  -6.3356  -6.2223  -5.7288  -5.5916
    -5.5238  -5.3560  -5.1195  -5.0333  -4.9935  -4.9552  -4.7384  -4.6053
    -4.5517  -4.4341  -4.3162  -4.2285  -3.9989  -3.8859  -3.8049  -3.6838
    -3.6181  -3.5549  -3.4964  -3.2444  -3.1899  -2.9977  -2.7574  -2.6304
    -2.5388  -2.5064  -2.4540  -2.3019  -2.2394  -2.1209  -1.9907  -1.9601
    -1.9072  -1.8609  -1.8234  -1.7333  -1.5729  -1.5427  -1.4631  -1.3689
    -0.9967  -0.8448  -0.7178  -0.1675  -0.0595   0.1914   0.2209   0.5079
     0.6515   0.9988   1.1329   1.2001   1.4095   1.5438   1.5931   2.9574
     3.5876   4.0957   4.3313   4.8361   5.3094   5.4494   5.7606   6.0466
     6.2178   6.3053   6.3809   6.5436   6.7628   6.9354   7.1578   7.4946
     7.6161   7.8032   7.8991   8.1825   8.3457   8.4163   8.5101   8.6679
     8.8276   8.9329   9.2330   9.2710   9.4295   9.5731   9.6982   9.8481
     9.9045   9.9843  10.0632  10.1573  10.2375  10.3960  10.5045  10.5464
    10.6868  10.7409  10.8141  10.8890  11.0413  11.2493  11.3082  11.3873
    11.4689  11.6032  11.6774  11.7884  11.8293  11.9086  11.9872  12.0650
    12.1341  12.2194  12.3266  12.4016  12.4528  12.5194  12.6537  12.7161
    12.8267  12.8795  12.9611  13.0644  13.1478  13.2062  13.2809  13.3853
    13.4412  13.5353  13.5670  13.6466  13.7833  13.8240  13.9450  14.0404
    14.0598  14.0979  14.2088  14.2327  14.3293  14.3908  14.4781  14.5662
    14.6162  14.6864  14.7374  14.8221  14.9128  14.9471  15.0384  15.1021
    15.1377  15.2033  15.2848  15.4298  15.4671  15.5539  15.6363  15.6956
    15.7587  15.8111  15.9514  16.0265  16.0982  16.1742  16.2198  16.3196
    16.3692  16.4336  16.5120  16.5373  16.6501  16.7092  16.7847  16.8244
    16.8955  17.0358  17.0901  17.1635  17.2542  17.2954  17.3555  17.4697
    17.5182  17.5873  17.6232  17.7117  17.7565  17.8095  17.8705  17.9840
    18.0647  18.1641  18.2283  18.2494  18.3379  18.4419  18.4953  18.6014
    18.6538  18.6837  18.7289  18.8370  18.8576  18.9510  19.0281  19.0969
    19.2214  19.2842  19.3445  19.4016  19.4793  19.5979  19.6676  19.7228
    19.7885  19.8754  19.9391  20.0018  20.0885  20.1895  20.2466  20.3225
    20.3771  20.4566  20.5605  20.6188  20.6952  20.7532  20.8684  20.9053
    20.9893  21.0392  21.1558  21.1897  21.2978  21.3600  21.3920  21.5369
    21.5980  21.6735  21.7563  21.8442  21.9101  21.9882  22.0756  22.1217
    22.2325  22.3237  22.4142  22.4930  22.5386  22.5896  22.6965  22.7559
    22.8545  22.9566  23.0187

          k = 0.2500-0.4606 0.0000 ( 26462 PWs)   bands (ev):

   -83.7863 -83.6686 -83.6612 -83.4376 -83.4073 -83.3186 -83.3111 -83.2558
   -52.4831 -52.4677 -52.4430 -52.4304 -52.3627 -52.3232 -52.3153 -52.3030
   -52.2916 -52.2248 -52.1395 -52.1269 -52.0979 -52.0657 -52.0404 -52.0350
   -52.0173 -52.0025 -51.9780 -51.9698 -51.9428 -51.9301 -51.9168 -51.9027
   -24.3016 -20.8642 -20.4885 -20.0531 -19.9104 -19.6672 -19.6241 -19.4576
   -19.3795 -19.2217 -19.1747 -19.1573 -19.0862 -18.8408 -18.7580 -18.6993
   -18.5746 -18.3894 -18.1397 -17.6866  -9.8217  -9.7648  -9.6593  -9.4858
    -9.3544  -9.2891  -9.2160  -8.9721  -8.9214  -8.6631  -8.4374  -8.2586
    -8.2092  -8.1572  -8.1394  -7.9624  -7.9280  -7.8484  -7.8260  -7.7315
    -7.6666  -7.6491  -7.5538  -7.4997  -7.4583  -7.4100  -7.3888  -7.2924
    -7.2316  -7.1675  -7.1367  -7.1036  -7.0436  -7.0255  -6.7268  -6.5905
    -6.5085  -6.4965  -6.3145  -6.2892  -6.2040  -6.1396  -5.9340  -5.6718
    -5.6003  -5.4974  -5.1895  -5.1495  -5.0693  -5.0055  -4.9174  -4.8651
[...]
     atom   28 type  3   force =     0.00008052   -0.00020794    0.00150121
     atom   29 type  3   force =     0.00048894   -0.00032001   -0.00033892
     atom   30 type  3   force =     0.00050584   -0.00048366   -0.00072740
     atom   31 type  1   force =    -0.00006694   -0.00051839    0.00091456
     atom   32 type  1   force =     0.00002900   -0.00090959   -0.00033605
     atom   33 type  3   force =    -0.00001254    0.00112240   -0.00044374

     Total force =     0.005792     Total SCF correction =     0.000219


     entering subroutine stress ...


     negative rho (up, down):  0.161E-02 0.127E-02
          total   stress  (Ry/bohr**3)                   (kbar)     P=   29.25
   0.00032761  -0.00000248   0.00000352         48.19     -0.36      0.52
  -0.00000248   0.00031681   0.00000484         -0.36     46.60      0.71
   0.00000352   0.00000484  -0.00004792          0.52      0.71     -7.05


     number of scf cycles    =  25
     number of bfgs steps    =  24

     energy   old            =   -2352.2198563656 Ry
     energy   new            =   -2352.2199578208 Ry

     CASE: energy  _new < energy  _old

     new trust radius        =       0.0101458352 bohr
     new conv_thr            =       0.0000000101 Ry


ATOMIC_POSITIONS (crystal)
O0       0.000000000   0.000000000   0.372236861    0   0   1
O0       0.000000000   0.500000000   0.391967364    0   0   1
Mn1      0.250000000   0.500000000   0.445147293    0   0   1
Mn1      0.000000000   0.000000000   0.445497140    0   0   1
O0       0.250000000   0.800000000   0.444475503    0   0   1
O0       0.250000000   0.200000000   0.447755108    0   0   1
O0       0.000000000   0.500000000   0.493311530    0   0   1
O0       0.000000000   0.000000000   0.523809748    0   0   1
Mn1      0.250000000   0.000000000   0.572786225    0   0   1
Mn1      0.000000000   0.500000000   0.570593104    0   0   1
O0       0.250000000   0.700000000   0.582966566    0   0   1
O0       0.250000000   0.300000000   0.583968626    0   0   1
O0       0.000000000   0.000000000   0.621603261    0   0   1
O0       0.500000000   0.000000000   0.372276762    0   0   1
O0       0.500000000   0.500000000   0.391999927    0   0   1
Mn1      0.750000000   0.500000000   0.445138802    0   0   1
Mn1      0.500000000   0.000000000   0.445504914    0   0   1
O0       0.750000000   0.800000000   0.444568540    0   0   1
O0       0.750000000   0.200000000   0.447767079    0   0   1
O0       0.500000000   0.500000000   0.493924873    0   0   1
O0       0.500000000   0.000000000   0.523761177    0   0   1
Mn1      0.750000000   0.000000000   0.572782693    0   0   1
Mn1      0.500000000   0.500000000   0.572996533    0   0   1
O0       0.750000000   0.700000000   0.582970060    0   0   1
O0       0.750000000   0.300000000   0.583958192    0   0   1
O0       0.500000000   0.000000000   0.621466603    0   0   1
H2       0.000563389   0.647226593   0.376144858
H2       0.500558549   0.647760193   0.376412814
H2       0.160819030   0.045707638   0.361927287
H2       0.660591291   0.046487365   0.362012762
O0       0.499457948   0.546788080   0.675378781
O0       0.501713227   0.359717581   0.701879494
H2       0.498952611   0.405963404   0.738319520


     Check: negative starting charge=(component1):   -0.000882
     NEW-OLD atomic charge density approx. for the potential

     Check: negative/imaginary core charge=   -0.000023    0.000000
     Check: negative starting charge=(component1):   -0.000882

     negative rho (up, down):  0.148E-02 0.142E-02
 Atomic wfc used for LDA+U Projector are NOT orthogonalized

     total cpu time spent up to now is   169553.7 secs

     per-process dynamical memory:   494.9 Mb

     Self-consistent Calculation

     iteration #  1     ecut=    40.00 Ry     beta=0.70
     Davidson diagonalization with overlap
     ethr =  1.00E-06,  avg # of iterations =  3.0
 --- enter write_ns ---
 LDA+U parameters:
U( 2)     =  5.50000000
alpha( 2) =  0.00000000
atom    3   Tr[ns(na)] (up, down, total) =   4.42722  0.94428  5.37150
   spin  1
    eigenvalues: 
  0.694  0.732  0.999  0.999  1.003
    eigenvectors:
  0.247  0.001  0.003  0.663  0.086
  0.001  0.998  0.001  0.000  0.000
  0.000  0.000  0.003  0.109  0.889
  0.752  0.001  0.001  0.222  0.024
  0.000  0.001  0.992  0.006  0.001
    occupations:
  0.924  0.001 -0.003 -0.132  0.000
  0.001  0.732  0.000 -0.002 -0.007
 -0.003  0.000  1.003 -0.003  0.000
 -0.132 -0.002 -0.003  0.770  0.000
  0.000 -0.007  0.000  0.000  0.998
   spin  2
    eigenvalues: 
  0.076  0.097  0.110  0.318  0.343
    eigenvectors:
  0.775  0.000  0.003  0.000  0.222
  0.000  0.002  0.000  0.998  0.001
  0.004  0.000  0.996  0.000  0.000
  0.221  0.000  0.001  0.000  0.777
  0.000  0.998  0.000  0.002  0.000
    occupations:
  0.136 -0.000 -0.002  0.111 -0.000
 -0.000  0.318  0.000  0.001  0.009
 -0.002  0.000  0.110  0.000  0.000
  0.111  0.001  0.000  0.284 -0.000
 -0.000  0.009  0.000 -0.000  0.097
atomic mag. moment =     3.482931
atom    4   Tr[ns(na)] (up, down, total) =   4.41268  0.95251  5.36519
   spin  1
    eigenvalues: 
  0.675  0.733  0.997  1.004  1.005
    eigenvectors:
  0.000  0.998  0.001  0.001  0.000
  0.000  0.001  0.000  0.847  0.152
  0.000  0.000  0.000  0.152  0.848
  0.000  0.001  0.999  0.000  0.000
  1.000  0.000  0.000  0.000  0.000
    occupations:
  0.733 -0.008 -0.006  0.007 -0.001
 -0.008  1.004 -0.000  0.000  0.002
 -0.006 -0.000  1.005  0.000 -0.000
  0.007  0.000  0.000  0.997  0.000
 -0.001  0.002 -0.000  0.000  0.675
   spin  2
    eigenvalues: 
  0.080  0.097  0.106  0.318  0.352
    eigenvectors:
  0.005  0.002  0.000  0.993  0.000
  0.002  0.618  0.377  0.002  0.001
  0.003  0.373  0.623  0.001  0.000
  0.989  0.006  0.000  0.004  0.000
  0.000  0.000  0.000  0.000  0.999
    occupations:
  0.316  0.009  0.006 -0.016  0.000
  0.009  0.101 -0.004  0.000 -0.006
  0.006 -0.004  0.103  0.001  0.000
 -0.016  0.000  0.001  0.081 -0.000
  0.000 -0.006  0.000 -0.000  0.351
atomic mag. moment =     3.460168
atom    9   Tr[ns(na)] (up, down, total) =   4.39617  0.99901  5.39518
   spin  1
    eigenvalues: 
  0.708  0.714  0.984  0.990  1.000
    eigenvectors:
  0.226  0.000  0.000  0.000  0.774
  0.001  0.999  0.000  0.000  0.000
  0.000  0.000  0.000  1.000  0.000
  0.773  0.001  0.000  0.000  0.226
  0.000  0.000  1.000  0.000  0.000
    occupations:
  0.934 -0.000 -0.001 -0.122 -0.000
 -0.000  0.714  0.000  0.000  0.000
 -0.001  0.000  0.990 -0.001 -0.000
 -0.122  0.000 -0.001  0.774  0.000
 -0.000  0.000 -0.000  0.000  0.984
   spin  2
    eigenvalues: 
  0.090  0.103  0.108  0.344  0.355
    eigenvectors:
  0.810  0.000  0.000  0.190  0.000
  0.000  0.000  0.000  0.001  0.999
  0.000  0.000  1.000  0.000  0.000
  0.190  0.000  0.000  0.810  0.001
  0.000  1.000  0.000  0.000  0.000
    occupations:
  0.138  0.000  0.001  0.100 -0.000
  0.000  0.355 -0.000 -0.000 -0.000
  0.001 -0.000  0.108  0.002 -0.000
  0.100 -0.000  0.002  0.296 -0.000
 -0.000 -0.000 -0.000 -0.000  0.103
atomic mag. moment =     3.397157
atom   10   Tr[ns(na)] (up, down, total) =   4.63255  0.66519  5.29774
   spin  1
    eigenvalues: 
  0.687  0.949  0.998  0.998  0.999
    eigenvectors:
  0.000  0.951  0.000  0.049  0.000
  0.000  0.000  0.998  0.001  0.001
  0.000  0.000  0.001  0.007  0.992
  0.000  0.049  0.000  0.943  0.007
  1.000  0.000  0.000  0.000  0.000
    occupations:
  0.952  0.000  0.000  0.011  0.000
  0.000  0.998  0.000  0.000 -0.002
  0.000  0.000  0.999 -0.000  0.000
  0.011  0.000 -0.000  0.996 -0.000
  0.000 -0.002  0.000 -0.000  0.687
   spin  2
    eigenvalues: 
  0.067  0.075  0.082  0.142  0.300
    eigenvectors:
  0.036  0.000  0.000  0.964  0.000
  0.000  0.000  1.000  0.000  0.000
  0.001  0.999  0.000  0.000  0.000
  0.963  0.001  0.000  0.036  0.000
  0.000  0.000  0.000  0.000  1.000
    occupations:
  0.139  0.000 -0.000 -0.014 -0.000
  0.000  0.082 -0.000 -0.000  0.002
 -0.000 -0.000  0.075 -0.000 -0.000
 -0.014 -0.000 -0.000  0.069  0.000
 -0.000  0.002 -0.000  0.000  0.300
atomic mag. moment =     3.967366
atom   16   Tr[ns(na)] (up, down, total) =   4.42725  0.94421  5.37146
   spin  1
    eigenvalues: 
  0.694  0.732  0.999  1.000  1.003
    eigenvectors:
  0.247  0.001  0.002  0.666  0.085
  0.002  0.997  0.001  0.000  0.000
  0.000  0.000  0.000  0.108  0.892
  0.751  0.001  0.001  0.223  0.023
  0.000  0.001  0.996  0.003  0.000
    occupations:
  0.924 -0.001 -0.003 -0.132  0.000
 -0.001  0.732 -0.000  0.002 -0.007
 -0.003 -0.000  1.003 -0.003 -0.000
 -0.132  0.002 -0.003  0.770  0.000
  0.000 -0.007 -0.000  0.000  0.998
   spin  2
    eigenvalues: 
  0.076  0.097  0.110  0.318  0.343
    eigenvectors:
  0.774  0.000  0.003  0.000  0.222
  0.000  0.002  0.000  0.997  0.001
  0.004  0.000  0.995  0.000  0.000
  0.221  0.000  0.001  0.001  0.777
  0.000  0.998  0.000  0.002  0.000
    occupations:
  0.136  0.000 -0.002  0.111 -0.000
  0.000  0.318  0.000 -0.001  0.009
 -0.002  0.000  0.110  0.000 -0.000
  0.111 -0.001  0.000  0.284 -0.000
 -0.000  0.009 -0.000 -0.000  0.097
atomic mag. moment =     3.483044
atom   17   Tr[ns(na)] (up, down, total) =   4.41190  0.95323  5.36513
   spin  1
    eigenvalues: 
  0.674  0.732  0.997  1.004  1.005
    eigenvectors:
  0.000  0.998  0.001  0.001  0.000
  0.000  0.001  0.000  0.866  0.133
  0.000  0.001  0.000  0.132  0.867
  0.000  0.001  0.999  0.000  0.000
  1.000  0.000  0.000  0.000  0.000
    occupations:
  0.733 -0.008 -0.006  0.007 -0.001
 -0.008  1.004 -0.000  0.000  0.002
 -0.006 -0.000  1.005  0.000 -0.000
  0.007  0.000  0.000  0.997  0.000
 -0.001  0.002 -0.000  0.000  0.674
   spin  2
    eigenvalues: 
  0.080  0.097  0.107  0.318  0.352
    eigenvectors:
  0.005  0.002  0.000  0.993  0.000
  0.002  0.614  0.382  0.002  0.001
  0.003  0.378  0.618  0.001  0.000
  0.989  0.006  0.000  0.004  0.000
  0.000  0.000  0.000  0.000  0.999
    occupations:
  0.317  0.009  0.006 -0.016  0.000
  0.009  0.101 -0.004  0.000 -0.006
  0.006 -0.004  0.103  0.001  0.000
 -0.016  0.000  0.001  0.081 -0.000
  0.000 -0.006  0.000 -0.000  0.351
atomic mag. moment =     3.458667
atom   22   Tr[ns(na)] (up, down, total) =   4.39619  0.99894  5.39514
   spin  1
    eigenvalues: 
  0.708  0.714  0.984  0.990  1.000
    eigenvectors:
  0.224  0.002  0.000  0.000  0.774
  0.009  0.991  0.000  0.000  0.000
  0.000  0.000  0.000  1.000  0.000
  0.767  0.007  0.000  0.000  0.226
  0.000  0.000  1.000  0.000  0.000
    occupations:
  0.934  0.001 -0.001 -0.122  0.000
  0.001  0.714  0.000  0.000  0.000
 -0.001  0.000  0.990 -0.001  0.000
 -0.122  0.000 -0.001  0.774  0.000
  0.000  0.000  0.000  0.000  0.984
   spin  2
    eigenvalues: 
  0.090  0.103  0.108  0.344  0.355
    eigenvectors:
  0.810  0.000  0.000  0.190  0.000
  0.000  0.000  0.000  0.001  0.999
  0.000  0.000  1.000  0.000  0.000
  0.190  0.000  0.000  0.810  0.000
  0.000  1.000  0.000  0.000  0.000
    occupations:
  0.138 -0.000  0.001  0.100  0.000
 -0.000  0.355 -0.000  0.000 -0.000
  0.001 -0.000  0.108  0.001  0.000
  0.100  0.000  0.001  0.296  0.000
  0.000 -0.000  0.000  0.000  0.103
atomic mag. moment =     3.397250
atom   23   Tr[ns(na)] (up, down, total) =   4.61959  0.67554  5.29513
   spin  1
    eigenvalues: 
  0.680  0.943  0.998  0.999  0.999
    eigenvectors:
  0.000  0.961  0.038  0.000  0.000
  0.000  0.000  0.000  0.982  0.018
  0.000  0.000  0.005  0.018  0.976
  0.000  0.038  0.956  0.000  0.005
  1.000  0.000  0.000  0.000  0.000
    occupations:
  0.945 -0.000  0.001  0.011 -0.000
 -0.000  0.999  0.000  0.000 -0.002
  0.001  0.000  0.999 -0.000  0.000
  0.011  0.000 -0.000  0.996  0.000
 -0.000 -0.002  0.000  0.000  0.680
   spin  2
    eigenvalues: 
  0.070  0.070  0.079  0.146  0.311
    eigenvectors:
  0.027  0.006  0.000  0.967  0.000
  0.000  0.000  1.000  0.000  0.000
  0.232  0.768  0.000  0.000  0.000
  0.742  0.225  0.000  0.033  0.000
  0.000  0.000  0.000  0.000  1.000
    occupations:
  0.143  0.000 -0.001 -0.014  0.000
  0.000  0.079 -0.000  0.000  0.002
 -0.001 -0.000  0.070 -0.000  0.000
 -0.014  0.000 -0.000  0.072 -0.000
  0.000  0.002  0.000 -0.000  0.311
atomic mag. moment =     3.944053
N of occupied +U levels =  42.8564773
 --- exit write_ns ---

     Threshold (ethr) on eigenvalues was too large:
     Diagonalizing with lowered threshold

     Davidson diagonalization with overlap
     ethr =  4.88E-08,  avg # of iterations =  1.3

     negative rho (up, down):  0.184E-02 0.158E-02

     total cpu time spent up to now is   170053.8 secs

     total energy              =   -2352.21992786 Ry
     Harris-Foulkes estimate   =   -2352.21999663 Ry
     estimated scf accuracy    <       0.00012034 Ry

     total magnetization       =    23.00 Bohr mag/cell
     absolute magnetization    =    35.43 Bohr mag/cell

     iteration #  2     ecut=    40.00 Ry     beta=0.70
     Davidson diagonalization with overlap
     ethr =  4.91E-08,  avg # of iterations =  2.7

     negative rho (up, down):  0.168E-02 0.137E-02

     total cpu time spent up to now is   170305.6 secs

     total energy              =   -2352.21948387 Ry
     Harris-Foulkes estimate   =   -2352.22047885 Ry
     estimated scf accuracy    <       0.00971316 Ry

     total magnetization       =    23.00 Bohr mag/cell
     absolute magnetization    =    35.48 Bohr mag/cell

     iteration #  3     ecut=    40.00 Ry     beta=0.70
     Davidson diagonalization with overlap
     ethr =  4.91E-08,  avg # of iterations =  3.3

     negative rho (up, down):  0.169E-02 0.138E-02

     total cpu time spent up to now is   170552.4 secs

     total energy              =   -2352.21987333 Ry
     Harris-Foulkes estimate   =   -2352.22012075 Ry
     estimated scf accuracy    <       0.00324802 Ry

     total magnetization       =    23.00 Bohr mag/cell
     absolute magnetization    =    35.41 Bohr mag/cell

     iteration #  4     ecut=    40.00 Ry     beta=0.70
     Davidson diagonalization with overlap
     ethr =  4.91E-08,  avg # of iterations =  1.4

     negative rho (up, down):  0.166E-02 0.134E-02

     total cpu time spent up to now is   170779.5 secs

     total energy              =   -2352.21999298 Ry
     Harris-Foulkes estimate   =   -2352.22001606 Ry
     estimated scf accuracy    <       0.00013750 Ry

     total magnetization       =    23.00 Bohr mag/cell
     absolute magnetization    =    35.44 Bohr mag/cell

     iteration #  5     ecut=    40.00 Ry     beta=0.70
     Davidson diagonalization with overlap
     ethr =  4.91E-08,  avg # of iterations =  1.0

     negative rho (up, down):  0.162E-02 0.129E-02

     total cpu time spent up to now is   171005.8 secs

     total energy              =   -2352.22000367 Ry
     Harris-Foulkes estimate   =   -2352.22001589 Ry
     estimated scf accuracy    <       0.00006618 Ry

     total magnetization       =    23.00 Bohr mag/cell
     absolute magnetization    =    35.43 Bohr mag/cell

     iteration #  6     ecut=    40.00 Ry     beta=0.70
     Davidson diagonalization with overlap
     ethr =  2.70E-08,  avg # of iterations =  1.0

     negative rho (up, down):  0.162E-02 0.128E-02

     total cpu time spent up to now is   171231.6 secs

     total energy              =   -2352.22000814 Ry
     Harris-Foulkes estimate   =   -2352.22001453 Ry
     estimated scf accuracy    <       0.00003671 Ry

     total magnetization       =    23.00 Bohr mag/cell
     absolute magnetization    =    35.43 Bohr mag/cell

     iteration #  7     ecut=    40.00 Ry     beta=0.70
     Davidson diagonalization with overlap
     ethr =  1.50E-08,  avg # of iterations =  1.0

     negative rho (up, down):  0.161E-02 0.128E-02

     total cpu time spent up to now is   171455.3 secs

     total energy              =   -2352.22001064 Ry
     Harris-Foulkes estimate   =   -2352.22001333 Ry
     estimated scf accuracy    <       0.00001937 Ry

     total magnetization       =    23.00 Bohr mag/cell
     absolute magnetization    =    35.43 Bohr mag/cell

     iteration #  8     ecut=    40.00 Ry     beta=0.70
     Davidson diagonalization with overlap
     ethr =  7.90E-09,  avg # of iterations =  1.0

     negative rho (up, down):  0.161E-02 0.127E-02

     total cpu time spent up to now is   171681.5 secs

     total energy              =   -2352.22001212 Ry
     Harris-Foulkes estimate   =   -2352.22001270 Ry
     estimated scf accuracy    <       0.00000407 Ry

     total magnetization       =    23.00 Bohr mag/cell
     absolute magnetization    =    35.43 Bohr mag/cell

     iteration #  9     ecut=    40.00 Ry     beta=0.70
     Davidson diagonalization with overlap
     ethr =  1.66E-09,  avg # of iterations =  1.0

     negative rho (up, down):  0.161E-02 0.127E-02

     total cpu time spent up to now is   171901.5 secs

     total energy              =   -2352.22001246 Ry
     Harris-Foulkes estimate   =   -2352.22001266 Ry
     estimated scf accuracy    <       0.00000105 Ry

     total magnetization       =    23.00 Bohr mag/cell
     absolute magnetization    =    35.43 Bohr mag/cell

     iteration # 10     ecut=    40.00 Ry     beta=0.70
     Davidson diagonalization with overlap
     ethr =  4.27E-10,  avg # of iterations =  1.0

     negative rho (up, down):  0.161E-02 0.127E-02

     total cpu time spent up to now is   172124.9 secs

     total energy              =   -2352.22001257 Ry
     Harris-Foulkes estimate   =   -2352.22001263 Ry
     estimated scf accuracy    <       0.00000029 Ry

     total magnetization       =    23.00 Bohr mag/cell
     absolute magnetization    =    35.43 Bohr mag/cell

     iteration # 11     ecut=    40.00 Ry     beta=0.70
     Davidson diagonalization with overlap
     ethr =  1.20E-10,  avg # of iterations =  1.0

     negative rho (up, down):  0.161E-02 0.127E-02

     total cpu time spent up to now is   172346.3 secs

     total energy              =   -2352.22001261 Ry
     Harris-Foulkes estimate   =   -2352.22001263 Ry
     estimated scf accuracy    <       0.00000012 Ry

     total magnetization       =    23.00 Bohr mag/cell
     absolute magnetization    =    35.43 Bohr mag/cell

     iteration # 12     ecut=    40.00 Ry     beta=0.70
     Davidson diagonalization with overlap
     ethr =  5.05E-11,  avg # of iterations =  1.0

     negative rho (up, down):  0.161E-02 0.127E-02

     total cpu time spent up to now is   172569.5 secs

     total energy              =   -2352.22001262 Ry
     Harris-Foulkes estimate   =   -2352.22001263 Ry
     estimated scf accuracy    <       0.00000005 Ry

     total magnetization       =    23.00 Bohr mag/cell
     absolute magnetization    =    35.43 Bohr mag/cell

     iteration # 13     ecut=    40.00 Ry     beta=0.70
     Davidson diagonalization with overlap
     ethr =  1.90E-11,  avg # of iterations =  1.8

     negative rho (up, down):  0.161E-02 0.127E-02

     total cpu time spent up to now is   172799.8 secs

     total energy              =   -2352.22001254 Ry
     Harris-Foulkes estimate   =   -2352.22001273 Ry
     estimated scf accuracy    <       0.00000259 Ry

     total magnetization       =    23.00 Bohr mag/cell
     absolute magnetization    =    35.43 Bohr mag/cell

     iteration # 14     ecut=    40.00 Ry     beta=0.70
     Davidson diagonalization with overlap
=>> PBS: job killed: walltime 172808 exceeded limit 172800
mpirun: killing job...

---------------------------------------
Running PBS batch system epilogue script
Job id: 373403.audhumbla.fysik.dtu.dk
Username: zhonxu
Groupname: campgst
Jobname: MnO2/Eads-2-layers/OOH-U-5.5
Sessionid: 29317
Resources limits: neednodes=2:ppn=8:xeon8,nodes=2:ppn=8:xeon8,walltime=48:00:00
Resources used: cput=767:21:00,mem=17852588kb,vmem=21830076kb,walltime=48:00:09
Queuename: verylong
Accounting:
This job has allocated the following 16 nodes:
a019 a019 a019 a019 a019 a019 a019 a019 a009 a009 a009 a009 a009 a009 a009 a009
Finished epilogue job 373403.audhumbla.fysik.dtu.dk for zhonxu
