loading modules
dropbox is Dropbox isn't running!

     Program PWSCF v.5.0.2 (svn rev. 9656) starts on 11Aug2014 at  8:48:41 

     This program is part of the open-source Quantum ESPRESSO suite
     for quantum simulation of materials; please cite
         "P. Giannozzi et al., J. Phys.:Condens. Matter 21 395502 (2009);
          URL http://www.quantum-espresso.org", 
     in publications or presentations arising from this work. More details at
     http://www.quantum-espresso.org/quote.php

     Parallel version (MPI), running on    16 processors
     K-points division:     npool     =       4
     R & G space division:  proc/nbgrp/npool/nimage =       4

     Current dimensions of program PWSCF are:
     Max number of different atomic species (ntypx) = 10
     Max number of k-points (npk) =  40000
     Max angular momentum in pseudopotentials (lmaxx) =  3
     Reading input from pwscf.in
Warning: card &CELL ignored
Warning: card / ignored

     Subspace diagonalization in iterative solution of the eigenvalue problem:
     a serial algorithm will be used

 
     Parallelization info
     --------------------
     sticks:   dense  smooth     PW     G-vecs:    dense   smooth      PW
     Min        1274     408    116               299662    54238    8133
     Max        1275     409    117               299663    54251    8135
     Sum        5097    1635    467              1198649   216969   32535
 


     bravais-lattice index     =            0
     lattice parameter (alat)  =      10.9604  a.u.
     unit-cell volume          =    6350.6732 (a.u.)^3
     number of atoms/cell      =           33
     number of atomic types    =            3
     number of electrons       =       237.00 (up: 126.00, down: 111.00)
     number of Kohn-Sham states=          343
     kinetic-energy cutoff     =      40.0000  Ry
     charge density cutoff     =     500.0000  Ry
     convergence threshold     =      1.0E-06
     mixing beta               =       0.3000
     number of iterations used =            8  plain     mixing
     Exchange-correlation      = SLA  PW   PBE  PBE ( 1 4 3 4 0)
     EXX-fraction              =        0.00
     nstep                     =           50


     celldm(1)=  10.960412  celldm(2)=   0.000000  celldm(3)=   0.000000
     celldm(4)=   0.000000  celldm(5)=   0.000000  celldm(6)=   0.000000

     crystal axes: (cart. coord. in units of alat)
               a(1) = (   1.000000   0.000000   0.000000 )  
               a(2) = (   0.000000   1.067975   0.000000 )  
               a(3) = (   0.000000   0.000000   4.516251 )  

     reciprocal axes: (cart. coord. in units 2 pi/alat)
               b(1) = (  1.000000  0.000000  0.000000 )  
               b(2) = (  0.000000  0.936351  0.000000 )  
               b(3) = (  0.000000  0.000000  0.221423 )  


     PseudoPot. # 1 for O  read from file:
     /home-research/zhongnanxu/gbrv_espresso_pseudo_v1.01/o_pbe_v1.01.uspp.F.UPF
     MD5 check sum: 2bcb18d16ea4b960afae9ec6d52f22d2
     Pseudo is Ultrasoft + core correction, Zval =  6.0
     Generated by new atomic code, or converted to UPF format
     Using radial grid of  737 points,  5 beta functions with: 
                l(1) =   0
                l(2) =   0
                l(3) =   1
                l(4) =   1
                l(5) =   2
     Q(r) pseudized with  8 coefficients,  rinner =    0.900   0.900   0.900
                                                       0.900   0.900

     PseudoPot. # 2 for Cr read from file:
     /home-research/zhongnanxu/gbrv_espresso_pseudo_v1.01/cr_pbe_v1.uspp.F.UPF
     MD5 check sum: 68b6f918d1762dccfb11451fe85b0e0e
     Pseudo is Ultrasoft + core correction, Zval = 14.0
     Generated by new atomic code, or converted to UPF format
     Using radial grid of  857 points,  6 beta functions with: 
                l(1) =   0
                l(2) =   0
                l(3) =   1
                l(4) =   1
                l(5) =   2
                l(6) =   2
     Q(r) pseudized with  6 coefficients,  rinner =    1.000   1.000   1.000
                                                       1.000   1.000

     PseudoPot. # 3 for H  read from file:
     /home-research/zhongnanxu/gbrv_espresso_pseudo_v1.01/h_pbe_v1.uspp.F.UPF
     MD5 check sum: 3408e3ff4ec8b0a4e358431e7e038a48
     Pseudo is Ultrasoft, Zval =  1.0
     Generated by new atomic code, or converted to UPF format
     Using radial grid of  615 points,  2 beta functions with: 
                l(1) =   0
                l(2) =   0
     Q(r) pseudized with  8 coefficients,  rinner =    0.700

     atomic species   valence    mass     pseudopotential
        O0             6.00    15.99940     O ( 1.00)
        Cr1           14.00    51.99600     Cr( 1.00)
        H2             1.00     1.00794     H ( 1.00)

     Starting magnetic structure 
     atomic species   magnetization
        O0           0.000
        Cr1          0.600
        H2           0.000


     Simplified LDA+U calculation (l_max = 2) with parameters (eV):
     atomic species    L          U    alpha       J0     beta
        Cr1            2     5.5000   0.0000   0.0000   0.0000



     No symmetry found



   Cartesian axes

     site n.     atom                  positions (alat units)
         1           O0  tau(   1) = (   0.0000000   0.0000000   1.6999169  )
         2           O0  tau(   2) = (   0.0000000   0.5339875   1.8054165  )
         3           Cr1 tau(   3) = (   0.2500000   0.5339875   2.0368292  )
         4           Cr1 tau(   4) = (   0.0000000   0.0000000   2.0282483  )
         5           O0  tau(   5) = (   0.2500000   0.8543801   2.0309580  )
         6           O0  tau(   6) = (   0.2500000   0.2135950   2.0316355  )
         7           O0  tau(   7) = (   0.0000000   0.5339875   2.2492285  )
         8           O0  tau(   8) = (   0.0000000   0.0000000   2.3601476  )
         9           Cr1 tau(   9) = (   0.2500000   0.0000000   2.5673532  )
        10           Cr1 tau(  10) = (   0.0000000   0.5339875   2.5625659  )
        11           O0  tau(  11) = (   0.2500000   0.7475825   2.5886699  )
        12           O0  tau(  12) = (   0.2500000   0.3203925   2.5982895  )
        13           O0  tau(  13) = (   0.0000000   0.0000000   2.7961916  )
        14           O0  tau(  14) = (   0.5000000   0.0000000   1.6988781  )
        15           O0  tau(  15) = (   0.5000000   0.5339875   1.8050552  )
        16           Cr1 tau(  16) = (   0.7500000   0.5339875   2.0370550  )
        17           Cr1 tau(  17) = (   0.5000000   0.0000000   2.0284741  )
        18           O0  tau(  18) = (   0.7500000   0.8543801   2.0308226  )
        19           O0  tau(  19) = (   0.7500000   0.2135950   2.0317710  )
        20           O0  tau(  20) = (   0.5000000   0.5339875   2.2604288  )
        21           O0  tau(  21) = (   0.5000000   0.0000000   2.3602831  )
        22           Cr1 tau(  22) = (   0.7500000   0.0000000   2.6225869  )
        23           Cr1 tau(  23) = (   0.5000000   0.5339875   2.5982895  )
        24           O0  tau(  24) = (   0.7500000   0.7475825   2.5965281  )
        25           O0  tau(  25) = (   0.7500000   0.3203925   2.6057413  )
        26           O0  tau(  26) = (   0.5000000   0.0000000   2.7921270  )
        27           H2  tau(  27) = (  -0.0006600   0.6815710   1.7215497  )
        28           H2  tau(  28) = (   0.4997700   0.6834186   1.7240336  )
        29           H2  tau(  29) = (   0.1585800   0.0329470   1.6456315  )
        30           H2  tau(  30) = (   0.6583100   0.0333422   1.6448186  )
        31           O0  tau(  31) = (   0.4998600   0.5735453   2.9395826  )
        32           O0  tau(  32) = (   0.5002200   0.3747738   3.0709603  )
        33           H2  tau(  33) = (   0.4998900   0.4476524   3.2225257  )

     number of k points=    20  Methfessel-Paxton smearing, width (Ry)=  0.0100
                       cart. coord. in units 2pi/alat
        k(    1) = (   0.0000000   0.0000000   0.0000000), wk =   0.0625000
        k(    2) = (   0.0000000   0.2340879   0.0000000), wk =   0.1250000
        k(    3) = (   0.0000000  -0.4681757   0.0000000), wk =   0.0625000
        k(    4) = (   0.2500000   0.0000000   0.0000000), wk =   0.1250000
        k(    5) = (   0.2500000   0.2340879   0.0000000), wk =   0.1250000
        k(    6) = (   0.2500000  -0.4681757   0.0000000), wk =   0.1250000
        k(    7) = (  -0.5000000   0.0000000   0.0000000), wk =   0.0625000
        k(    8) = (  -0.5000000   0.2340879   0.0000000), wk =   0.1250000
        k(    9) = (  -0.5000000  -0.4681757   0.0000000), wk =   0.0625000
        k(   10) = (  -0.2500000   0.2340879   0.0000000), wk =   0.1250000
        k(   11) = (   0.0000000   0.0000000   0.0000000), wk =   0.0625000
        k(   12) = (   0.0000000   0.2340879   0.0000000), wk =   0.1250000
        k(   13) = (   0.0000000  -0.4681757   0.0000000), wk =   0.0625000
        k(   14) = (   0.2500000   0.0000000   0.0000000), wk =   0.1250000
        k(   15) = (   0.2500000   0.2340879   0.0000000), wk =   0.1250000
        k(   16) = (   0.2500000  -0.4681757   0.0000000), wk =   0.1250000
        k(   17) = (  -0.5000000   0.0000000   0.0000000), wk =   0.0625000
        k(   18) = (  -0.5000000   0.2340879   0.0000000), wk =   0.1250000
        k(   19) = (  -0.5000000  -0.4681757   0.0000000), wk =   0.0625000
        k(   20) = (  -0.2500000   0.2340879   0.0000000), wk =   0.1250000

     Dense  grid:  1198649 G-vectors     FFT dimensions: (  80,  90, 360)

     Smooth grid:   216969 G-vectors     FFT dimensions: (  45,  48, 200)

     Largest allocated arrays     est. size (Mb)     dimensions
        Kohn-Sham Wavefunctions        36.03 Mb     (   6884,  343)
        Atomic wavefunctions           17.33 Mb     (   6884,  165)
        NL pseudopotentials            43.49 Mb     (   6884,  414)
        Each V/rho on FFT grid         19.78 Mb     ( 648000,   2)
        Each G-vector array             2.29 Mb     ( 299662)
        G-vector shells                 0.99 Mb     ( 129803)
     Largest temporary arrays     est. size (Mb)     dimensions
        Auxiliary wavefunctions       144.12 Mb     (   6884, 1372)
        Each subspace H/S matrix       28.72 Mb     (1372,1372)
        Each <psi_i|beta_j> matrix      2.17 Mb     (    414,  343)
        Arrays for rho mixing          79.10 Mb     ( 648000,   8)

     Check: negative/imaginary core charge=   -0.000012    0.000000

     Initial potential from superposition of free atoms
     Check: negative starting charge=(component1):   -0.001313
     Check: negative starting charge=(component2):   -0.000454

     starting charge  228.99983, renormalised to  237.00000

     negative rho (up, down):  0.136E-02 0.470E-03
     Number of +U iterations with fixed ns =  0
     Starting occupations:
 --- enter write_ns ---
 LDA+U parameters:
U( 2)     =  5.50000000
alpha( 2) =  0.00000000
atom    3   Tr[ns(na)] (up, down, total) =   5.00000  0.00000  5.00000
   spin  1
    eigenvalues: 
  1.000  1.000  1.000  1.000  1.000
    eigenvectors:
  1.000  0.000  0.000  0.000  0.000
  0.000  1.000  0.000  0.000  0.000
  0.000  0.000  1.000  0.000  0.000
  0.000  0.000  0.000  1.000  0.000
  0.000  0.000  0.000  0.000  1.000
    occupations:
  1.000  0.000  0.000  0.000  0.000
  0.000  1.000  0.000  0.000  0.000
  0.000  0.000  1.000  0.000  0.000
  0.000  0.000  0.000  1.000  0.000
  0.000  0.000  0.000  0.000  1.000
   spin  2
    eigenvalues: 
  0.000  0.000  0.000  0.000  0.000
    eigenvectors:
  1.000  0.000  0.000  0.000  0.000
  0.000  1.000  0.000  0.000  0.000
  0.000  0.000  1.000  0.000  0.000
  0.000  0.000  0.000  1.000  0.000
  0.000  0.000  0.000  0.000  1.000
    occupations:
  0.000  0.000  0.000  0.000  0.000
  0.000  0.000  0.000  0.000  0.000
  0.000  0.000  0.000  0.000  0.000
  0.000  0.000  0.000  0.000  0.000
  0.000  0.000  0.000  0.000  0.000
atomic mag. moment =     5.000000
atom    4   Tr[ns(na)] (up, down, total) =   5.00000  0.00000  5.00000
   spin  1
    eigenvalues: 
  1.000  1.000  1.000  1.000  1.000
    eigenvectors:
  1.000  0.000  0.000  0.000  0.000
  0.000  1.000  0.000  0.000  0.000
  0.000  0.000  1.000  0.000  0.000
  0.000  0.000  0.000  1.000  0.000
  0.000  0.000  0.000  0.000  1.000
    occupations:
  1.000  0.000  0.000  0.000  0.000
  0.000  1.000  0.000  0.000  0.000
  0.000  0.000  1.000  0.000  0.000
  0.000  0.000  0.000  1.000  0.000
  0.000  0.000  0.000  0.000  1.000
   spin  2
    eigenvalues: 
  0.000  0.000  0.000  0.000  0.000
    eigenvectors:
  1.000  0.000  0.000  0.000  0.000
  0.000  1.000  0.000  0.000  0.000
  0.000  0.000  1.000  0.000  0.000
  0.000  0.000  0.000  1.000  0.000
  0.000  0.000  0.000  0.000  1.000
    occupations:
  0.000  0.000  0.000  0.000  0.000
  0.000  0.000  0.000  0.000  0.000
  0.000  0.000  0.000  0.000  0.000
  0.000  0.000  0.000  0.000  0.000
  0.000  0.000  0.000  0.000  0.000
atomic mag. moment =     5.000000
atom    9   Tr[ns(na)] (up, down, total) =   5.00000  0.00000  5.00000
   spin  1
    eigenvalues: 
  1.000  1.000  1.000  1.000  1.000
    eigenvectors:
  1.000  0.000  0.000  0.000  0.000
  0.000  1.000  0.000  0.000  0.000
  0.000  0.000  1.000  0.000  0.000
  0.000  0.000  0.000  1.000  0.000
  0.000  0.000  0.000  0.000  1.000
    occupations:
  1.000  0.000  0.000  0.000  0.000
  0.000  1.000  0.000  0.000  0.000
  0.000  0.000  1.000  0.000  0.000
  0.000  0.000  0.000  1.000  0.000
  0.000  0.000  0.000  0.000  1.000
   spin  2
    eigenvalues: 
  0.000  0.000  0.000  0.000  0.000
    eigenvectors:
  1.000  0.000  0.000  0.000  0.000
  0.000  1.000  0.000  0.000  0.000
  0.000  0.000  1.000  0.000  0.000
  0.000  0.000  0.000  1.000  0.000
  0.000  0.000  0.000  0.000  1.000
    occupations:
  0.000  0.000  0.000  0.000  0.000
  0.000  0.000  0.000  0.000  0.000
  0.000  0.000  0.000  0.000  0.000
  0.000  0.000  0.000  0.000  0.000
  0.000  0.000  0.000  0.000  0.000
atomic mag. moment =     5.000000
atom   10   Tr[ns(na)] (up, down, total) =   5.00000  0.00000  5.00000
   spin  1
    eigenvalues: 
  1.000  1.000  1.000  1.000  1.000
    eigenvectors:
  1.000  0.000  0.000  0.000  0.000
  0.000  1.000  0.000  0.000  0.000
  0.000  0.000  1.000  0.000  0.000
  0.000  0.000  0.000  1.000  0.000
  0.000  0.000  0.000  0.000  1.000
    occupations:
  1.000  0.000  0.000  0.000  0.000
  0.000  1.000  0.000  0.000  0.000
  0.000  0.000  1.000  0.000  0.000
  0.000  0.000  0.000  1.000  0.000
  0.000  0.000  0.000  0.000  1.000
   spin  2
    eigenvalues: 
  0.000  0.000  0.000  0.000  0.000
    eigenvectors:
  1.000  0.000  0.000  0.000  0.000
  0.000  1.000  0.000  0.000  0.000
  0.000  0.000  1.000  0.000  0.000
  0.000  0.000  0.000  1.000  0.000
  0.000  0.000  0.000  0.000  1.000
    occupations:
  0.000  0.000  0.000  0.000  0.000
  0.000  0.000  0.000  0.000  0.000
  0.000  0.000  0.000  0.000  0.000
  0.000  0.000  0.000  0.000  0.000
  0.000  0.000  0.000  0.000  0.000
atomic mag. moment =     5.000000
atom   16   Tr[ns(na)] (up, down, total) =   5.00000  0.00000  5.00000
   spin  1
    eigenvalues: 
  1.000  1.000  1.000  1.000  1.000
    eigenvectors:
  1.000  0.000  0.000  0.000  0.000
  0.000  1.000  0.000  0.000  0.000
  0.000  0.000  1.000  0.000  0.000
  0.000  0.000  0.000  1.000  0.000
  0.000  0.000  0.000  0.000  1.000
    occupations:
  1.000  0.000  0.000  0.000  0.000
  0.000  1.000  0.000  0.000  0.000
  0.000  0.000  1.000  0.000  0.000
  0.000  0.000  0.000  1.000  0.000
  0.000  0.000  0.000  0.000  1.000
   spin  2
    eigenvalues: 
  0.000  0.000  0.000  0.000  0.000
    eigenvectors:
  1.000  0.000  0.000  0.000  0.000
  0.000  1.000  0.000  0.000  0.000
  0.000  0.000  1.000  0.000  0.000
  0.000  0.000  0.000  1.000  0.000
  0.000  0.000  0.000  0.000  1.000
    occupations:
  0.000  0.000  0.000  0.000  0.000
  0.000  0.000  0.000  0.000  0.000
  0.000  0.000  0.000  0.000  0.000
  0.000  0.000  0.000  0.000  0.000
  0.000  0.000  0.000  0.000  0.000
atomic mag. moment =     5.000000
atom   17   Tr[ns(na)] (up, down, total) =   5.00000  0.00000  5.00000
   spin  1
    eigenvalues: 
  1.000  1.000  1.000  1.000  1.000
    eigenvectors:
  1.000  0.000  0.000  0.000  0.000
  0.000  1.000  0.000  0.000  0.000
  0.000  0.000  1.000  0.000  0.000
  0.000  0.000  0.000  1.000  0.000
  0.000  0.000  0.000  0.000  1.000
    occupations:
  1.000  0.000  0.000  0.000  0.000
  0.000  1.000  0.000  0.000  0.000
  0.000  0.000  1.000  0.000  0.000
  0.000  0.000  0.000  1.000  0.000
  0.000  0.000  0.000  0.000  1.000
   spin  2
    eigenvalues: 
  0.000  0.000  0.000  0.000  0.000
    eigenvectors:
  1.000  0.000  0.000  0.000  0.000
  0.000  1.000  0.000  0.000  0.000
  0.000  0.000  1.000  0.000  0.000
  0.000  0.000  0.000  1.000  0.000
  0.000  0.000  0.000  0.000  1.000
    occupations:
  0.000  0.000  0.000  0.000  0.000
  0.000  0.000  0.000  0.000  0.000
  0.000  0.000  0.000  0.000  0.000
  0.000  0.000  0.000  0.000  0.000
  0.000  0.000  0.000  0.000  0.000
atomic mag. moment =     5.000000
atom   22   Tr[ns(na)] (up, down, total) =   5.00000  0.00000  5.00000
   spin  1
    eigenvalues: 
  1.000  1.000  1.000  1.000  1.000
    eigenvectors:
  1.000  0.000  0.000  0.000  0.000
  0.000  1.000  0.000  0.000  0.000
  0.000  0.000  1.000  0.000  0.000
  0.000  0.000  0.000  1.000  0.000
  0.000  0.000  0.000  0.000  1.000
    occupations:
  1.000  0.000  0.000  0.000  0.000
  0.000  1.000  0.000  0.000  0.000
  0.000  0.000  1.000  0.000  0.000
  0.000  0.000  0.000  1.000  0.000
  0.000  0.000  0.000  0.000  1.000
   spin  2
    eigenvalues: 
  0.000  0.000  0.000  0.000  0.000
    eigenvectors:
  1.000  0.000  0.000  0.000  0.000
  0.000  1.000  0.000  0.000  0.000
  0.000  0.000  1.000  0.000  0.000
  0.000  0.000  0.000  1.000  0.000
  0.000  0.000  0.000  0.000  1.000
    occupations:
  0.000  0.000  0.000  0.000  0.000
  0.000  0.000  0.000  0.000  0.000
  0.000  0.000  0.000  0.000  0.000
  0.000  0.000  0.000  0.000  0.000
  0.000  0.000  0.000  0.000  0.000
atomic mag. moment =     5.000000
atom   23   Tr[ns(na)] (up, down, total) =   5.00000  0.00000  5.00000
   spin  1
    eigenvalues: 
  1.000  1.000  1.000  1.000  1.000
    eigenvectors:
  1.000  0.000  0.000  0.000  0.000
  0.000  1.000  0.000  0.000  0.000
  0.000  0.000  1.000  0.000  0.000
  0.000  0.000  0.000  1.000  0.000
  0.000  0.000  0.000  0.000  1.000
    occupations:
  1.000  0.000  0.000  0.000  0.000
  0.000  1.000  0.000  0.000  0.000
  0.000  0.000  1.000  0.000  0.000
  0.000  0.000  0.000  1.000  0.000
  0.000  0.000  0.000  0.000  1.000
   spin  2
    eigenvalues: 
  0.000  0.000  0.000  0.000  0.000
    eigenvectors:
  1.000  0.000  0.000  0.000  0.000
  0.000  1.000  0.000  0.000  0.000
  0.000  0.000  1.000  0.000  0.000
  0.000  0.000  0.000  1.000  0.000
  0.000  0.000  0.000  0.000  1.000
    occupations:
  0.000  0.000  0.000  0.000  0.000
  0.000  0.000  0.000  0.000  0.000
  0.000  0.000  0.000  0.000  0.000
  0.000  0.000  0.000  0.000  0.000
  0.000  0.000  0.000  0.000  0.000
atomic mag. moment =     5.000000
N of occupied +U levels =  40.0000000
 --- exit write_ns ---
 Atomic wfc used for LDA+U Projector are NOT orthogonalized
     Starting wfc are  165 randomized atomic wfcs

     total cpu time spent up to now is      152.5 secs

     per-process dynamical memory:   512.5 Mb

     Self-consistent Calculation

     iteration #  1     ecut=    40.00 Ry     beta=0.30
     Davidson diagonalization with overlap
     ethr =  1.00E-02,  avg # of iterations =  5.3
 --- enter write_ns ---
 LDA+U parameters:
U( 2)     =  5.50000000
alpha( 2) =  0.00000000
atom    3   Tr[ns(na)] (up, down, total) =   4.24813  0.52867  4.77680
   spin  1
    eigenvalues: 
  0.669  0.716  0.924  0.966  0.974
    eigenvectors:
  0.231  0.000  0.014  0.751  0.003
  0.000  0.995  0.000  0.000  0.004
  0.000  0.000  0.981  0.018  0.001
  0.769  0.000  0.004  0.226  0.001
  0.000  0.004  0.002  0.004  0.990
    occupations:
  0.897  0.006  0.004 -0.125  0.000
  0.006  0.717 -0.001 -0.003 -0.016
  0.004 -0.001  0.925 -0.004  0.002
 -0.125 -0.003 -0.004  0.737  0.001
  0.000 -0.016  0.002  0.001  0.973
   spin  2
    eigenvalues: 
  0.051  0.058  0.059  0.168  0.192
    eigenvectors:
  0.671  0.130  0.009  0.002  0.189
  0.000  0.000  0.001  0.995  0.005
  0.167  0.760  0.073  0.000  0.000
  0.162  0.027  0.002  0.003  0.806
  0.000  0.083  0.916  0.001  0.000
    occupations:
  0.079 -0.001 -0.002  0.055  0.000
 -0.001  0.168  0.000  0.002  0.003
 -0.002  0.000  0.057  0.002  0.000
  0.055  0.002  0.002  0.165  0.000
  0.000  0.003  0.000  0.000  0.059
atomic mag. moment =     3.719461
atom    4   Tr[ns(na)] (up, down, total) =   4.09925  0.54985  4.64910
   spin  1
    eigenvalues: 
  0.598  0.699  0.899  0.926  0.977
    eigenvectors:
  0.000  0.947  0.048  0.001  0.003
  0.000  0.048  0.951  0.001  0.000
  0.000  0.002  0.001  0.992  0.006
  0.000  0.003  0.000  0.006  0.991
  1.000  0.000  0.000  0.000  0.000
    occupations:
  0.710  0.043  0.008  0.015  0.000
  0.043  0.889 -0.003 -0.002  0.000
  0.008 -0.003  0.926 -0.004  0.000
  0.015 -0.002 -0.004  0.976  0.000
  0.000  0.000  0.000  0.000  0.598
   spin  2
    eigenvalues: 
  0.053  0.061  0.066  0.176  0.194
    eigenvectors:
  0.010  0.001  0.000  0.000  0.989
  0.005  0.814  0.180  0.000  0.001
  0.001  0.179  0.820  0.000  0.000
  0.983  0.007  0.000  0.000  0.010
  0.000  0.000  0.000  1.000  0.000
    occupations:
  0.192  0.004  0.001 -0.014  0.000
  0.004  0.062 -0.002  0.000  0.000
  0.001 -0.002  0.065  0.000  0.000
 -0.014  0.000  0.000  0.055  0.000
  0.000  0.000  0.000  0.000  0.176
atomic mag. moment =     3.549397
atom    9   Tr[ns(na)] (up, down, total) =   4.30847  0.57857  4.88704
   spin  1
    eigenvalues: 
  0.705  0.730  0.936  0.960  0.977
    eigenvectors:
  0.185  0.001  0.000  0.000  0.814
  0.002  0.998  0.000  0.000  0.000
  0.000  0.000  0.130  0.869  0.000
  0.813  0.002  0.000  0.001  0.185
  0.000  0.000  0.870  0.130  0.000
    occupations:
  0.927  0.001 -0.002 -0.106  0.000
  0.001  0.730 -0.001 -0.002  0.001
 -0.002 -0.001  0.957 -0.003  0.008
 -0.106 -0.002 -0.003  0.756 -0.001
  0.000  0.001  0.008 -0.001  0.939
   spin  2
    eigenvalues: 
  0.063  0.064  0.069  0.187  0.196
    eigenvectors:
  0.810  0.030  0.000  0.004  0.156
  0.000  0.000  0.000  0.977  0.023
  0.033  0.956  0.010  0.000  0.000
  0.157  0.003  0.000  0.019  0.821
  0.000  0.011  0.989  0.000  0.000
    occupations:
  0.084  0.000  0.001  0.049  0.000
  0.000  0.188  0.000 -0.001  0.000
  0.001  0.000  0.064  0.002 -0.001
  0.049 -0.001  0.002  0.174  0.000
  0.000  0.000 -0.001  0.000  0.069
atomic mag. moment =     3.729903
atom   10   Tr[ns(na)] (up, down, total) =   4.45471  0.47318  4.92789
   spin  1
    eigenvalues: 
  0.698  0.789  0.986  0.989  0.993
    eigenvectors:
  0.000  0.992  0.004  0.002  0.001
  0.000  0.000  0.180  0.819  0.000
  0.001  0.001  0.000  0.000  0.999
  0.000  0.006  0.815  0.178  0.000
  0.999  0.000  0.000  0.000  0.001
    occupations:
  0.791  0.003  0.006  0.016 -0.002
  0.003  0.988  0.000  0.001 -0.004
  0.006  0.000  0.993  0.000 -0.007
  0.016  0.001  0.000  0.985  0.000
 -0.002 -0.004 -0.007  0.000  0.698
   spin  2
    eigenvalues: 
  0.052  0.053  0.059  0.133  0.176
    eigenvectors:
  0.002  0.021  0.001  0.977  0.000
  0.000  0.010  0.989  0.000  0.000
  0.952  0.048  0.000  0.000  0.000
  0.046  0.921  0.009  0.023  0.000
  0.000  0.000  0.000  0.000  0.999
    occupations:
  0.131 -0.001 -0.001 -0.012  0.000
 -0.001  0.059  0.000  0.001  0.002
 -0.001  0.000  0.052  0.000  0.002
 -0.012  0.001  0.000  0.055  0.000
  0.000  0.002  0.002  0.000  0.176
atomic mag. moment =     3.981536
atom   16   Tr[ns(na)] (up, down, total) =   4.23914  0.52886  4.76801
   spin  1
    eigenvalues: 
  0.668  0.715  0.915  0.967  0.974
    eigenvectors:
  0.230  0.000  0.011  0.736  0.022
  0.000  0.995  0.000  0.000  0.004
  0.000  0.000  0.983  0.012  0.005
  0.770  0.000  0.003  0.220  0.007
  0.000  0.004  0.002  0.032  0.961
    occupations:
  0.897 -0.005  0.006 -0.125  0.000
 -0.005  0.716  0.000  0.003 -0.016
  0.006  0.000  0.916 -0.003  0.003
 -0.125  0.003 -0.003  0.737 -0.001
  0.000 -0.016  0.003 -0.001  0.973
   spin  2
    eigenvalues: 
  0.051  0.058  0.059  0.168  0.192
    eigenvectors:
  0.682  0.118  0.009  0.002  0.189
  0.000  0.000  0.001  0.995  0.004
  0.154  0.761  0.085  0.000  0.000
  0.164  0.025  0.002  0.003  0.806
  0.000  0.095  0.904  0.001  0.000
    occupations:
  0.079  0.001 -0.002  0.055  0.000
  0.001  0.168  0.000 -0.002  0.003
 -0.002  0.000  0.057  0.002  0.000
  0.055 -0.002  0.002  0.165  0.000
  0.000  0.003  0.000  0.000  0.059
atomic mag. moment =     3.710280
atom   17   Tr[ns(na)] (up, down, total) =   4.10163  0.54729  4.64892
   spin  1
    eigenvalues: 
  0.596  0.701  0.902  0.926  0.977
    eigenvectors:
  0.000  0.949  0.047  0.001  0.003
  0.000  0.046  0.950  0.004  0.000
  0.000  0.002  0.003  0.990  0.006
  0.000  0.003  0.000  0.005  0.991
  1.000  0.000  0.000  0.000  0.000
    occupations:
  0.711  0.042  0.009  0.016  0.000
  0.042  0.893 -0.003 -0.002  0.000
  0.009 -0.003  0.926 -0.004  0.001
  0.016 -0.002 -0.004  0.976  0.000
  0.000  0.000  0.001  0.000  0.596
   spin  2
    eigenvalues: 
  0.053  0.060  0.066  0.175  0.193
    eigenvectors:
  0.011  0.000  0.000  0.000  0.989
  0.010  0.797  0.192  0.000  0.001
  0.002  0.190  0.808  0.000  0.000
  0.977  0.013  0.000  0.000  0.010
  0.000  0.000  0.000  1.000  0.000
    occupations:
  0.191  0.004  0.001 -0.014  0.000
  0.004  0.061 -0.002  0.000  0.000
  0.001 -0.002  0.065  0.000  0.000
 -0.014  0.000  0.000  0.054  0.000
  0.000  0.000  0.000  0.000  0.175
atomic mag. moment =     3.554340
atom   22   Tr[ns(na)] (up, down, total) =   4.03053  0.64365  4.67417
   spin  1
    eigenvalues: 
  0.690  0.716  0.848  0.871  0.906
    eigenvectors:
  0.088  0.003  0.000  0.014  0.895
  0.052  0.948  0.000  0.000  0.000
  0.000  0.000  0.159  0.826  0.015
  0.860  0.049  0.000  0.002  0.088
  0.000  0.000  0.841  0.158  0.002
    occupations:
  0.886  0.005 -0.005 -0.061 -0.001
  0.005  0.714  0.001  0.004  0.001
 -0.005  0.001  0.867  0.000  0.009
 -0.061  0.004  0.000  0.711  0.001
 -0.001  0.001  0.009  0.001  0.851
   spin  2
    eigenvalues: 
  0.066  0.087  0.088  0.195  0.207
    eigenvectors:
  0.000  0.867  0.074  0.002  0.057
  0.000  0.000  0.000  0.977  0.023
  0.997  0.000  0.003  0.000  0.000
  0.000  0.055  0.004  0.021  0.920
  0.003  0.078  0.919  0.000  0.000
    occupations:
  0.095 -0.001  0.001  0.028  0.000
 -0.001  0.195  0.000  0.002  0.000
  0.001  0.000  0.066  0.002  0.001
  0.028  0.002  0.002  0.200  0.000
  0.000  0.000  0.001  0.000  0.088
atomic mag. moment =     3.386882
atom   23   Tr[ns(na)] (up, down, total) =   4.32016  0.54497  4.86513
   spin  1
    eigenvalues: 
  0.636  0.747  0.969  0.976  0.992
    eigenvectors:
  0.000  0.977  0.000  0.004  0.019
  0.000  0.000  0.988  0.012  0.000
  0.001  0.017  0.000  0.006  0.976
  0.000  0.006  0.012  0.978  0.004
  0.999  0.000  0.000  0.000  0.001
    occupations:
  0.753 -0.002  0.032  0.017  0.000
 -0.002  0.969  0.000 -0.001 -0.005
  0.032  0.000  0.987 -0.001  0.010
  0.017 -0.001 -0.001  0.974 -0.001
  0.000 -0.005  0.010 -0.001  0.636
   spin  2
    eigenvalues: 
  0.047  0.053  0.083  0.176  0.187
    eigenvectors:
  0.001  0.010  0.000  0.000  0.989
  0.000  0.000  1.000  0.000  0.000
  0.991  0.007  0.000  0.000  0.001
  0.008  0.982  0.000  0.000  0.010
  0.000  0.000  0.000  1.000  0.000
    occupations:
  0.185  0.001 -0.005 -0.013  0.000
  0.001  0.083  0.000 -0.001  0.000
 -0.005  0.000  0.048  0.001 -0.002
 -0.013 -0.001  0.001  0.054  0.000
  0.000  0.000 -0.002  0.000  0.176
atomic mag. moment =     3.775196
N of occupied +U levels =  38.1970572
 --- exit write_ns ---

     negative rho (up, down):  0.149E-02 0.617E-03

     total cpu time spent up to now is      891.9 secs

     total energy              =   -2047.32128154 Ry
     Harris-Foulkes estimate   =   -2053.34612297 Ry
     estimated scf accuracy    <      22.05472422 Ry

     total magnetization       =    15.00 Bohr mag/cell
     absolute magnetization    =    42.98 Bohr mag/cell

     iteration #  2     ecut=    40.00 Ry     beta=0.30
     Davidson diagonalization with overlap
     ethr =  9.31E-03,  avg # of iterations =  3.8

     negative rho (up, down):  0.201E-04 0.000E+00

     total cpu time spent up to now is     1265.4 secs

     total energy              =   -2043.90059571 Ry
     Harris-Foulkes estimate   =   -2060.32719837 Ry
     estimated scf accuracy    <     112.50037108 Ry

     total magnetization       =    15.00 Bohr mag/cell
     absolute magnetization    =    32.23 Bohr mag/cell

     iteration #  3     ecut=    40.00 Ry     beta=0.30
     Davidson diagonalization with overlap
     ethr =  9.31E-03,  avg # of iterations =  3.0

     negative rho (up, down):  0.176E-03 0.000E+00

     total cpu time spent up to now is     1600.0 secs

     total energy              =   -2054.52718238 Ry
     Harris-Foulkes estimate   =   -2055.06314007 Ry
     estimated scf accuracy    <       7.50729024 Ry

     total magnetization       =    15.00 Bohr mag/cell
     absolute magnetization    =    32.91 Bohr mag/cell

     iteration #  4     ecut=    40.00 Ry     beta=0.30
     Davidson diagonalization with overlap
     ethr =  3.17E-03,  avg # of iterations =  2.4

     negative rho (up, down):  0.612E-03 0.000E+00

     total cpu time spent up to now is     1896.5 secs

     total energy              =   -2054.58581418 Ry
     Harris-Foulkes estimate   =   -2055.44502315 Ry
     estimated scf accuracy    <      11.82989171 Ry

     total magnetization       =    15.00 Bohr mag/cell
     absolute magnetization    =    35.33 Bohr mag/cell

     iteration #  5     ecut=    40.00 Ry     beta=0.30
     Davidson diagonalization with overlap
     ethr =  3.17E-03,  avg # of iterations =  1.9

     negative rho (up, down):  0.292E-04 0.000E+00

     total cpu time spent up to now is     2218.1 secs

     total energy              =   -2055.65968960 Ry
     Harris-Foulkes estimate   =   -2055.35125268 Ry
     estimated scf accuracy    <       7.02420046 Ry

     total magnetization       =    15.00 Bohr mag/cell
     absolute magnetization    =    35.57 Bohr mag/cell

     iteration #  6     ecut=    40.00 Ry     beta=0.30
     Davidson diagonalization with overlap
     ethr =  2.96E-03,  avg # of iterations =  2.7

     negative rho (up, down):  0.225E-04 0.000E+00

     total cpu time spent up to now is     2552.0 secs

     total energy              =   -2056.08923270 Ry
     Harris-Foulkes estimate   =   -2056.14978264 Ry
     estimated scf accuracy    <       2.31971046 Ry

     total magnetization       =    15.00 Bohr mag/cell
     absolute magnetization    =    33.60 Bohr mag/cell

     iteration #  7     ecut=    40.00 Ry     beta=0.30
     Davidson diagonalization with overlap
     ethr =  9.79E-04,  avg # of iterations =  4.7

     negative rho (up, down):  0.927E-04 0.000E+00

     total cpu time spent up to now is     2914.2 secs

     total energy              =   -2056.22634895 Ry
     Harris-Foulkes estimate   =   -2056.28172318 Ry
     estimated scf accuracy    <       0.87370161 Ry

     total magnetization       =    15.00 Bohr mag/cell
     absolute magnetization    =    32.32 Bohr mag/cell

     iteration #  8     ecut=    40.00 Ry     beta=0.30
     Davidson diagonalization with overlap
     ethr =  3.69E-04,  avg # of iterations =  3.6

     negative rho (up, down):  0.135E-02 0.794E-09

     total cpu time spent up to now is     3256.1 secs

     total energy              =   -2056.31835758 Ry
     Harris-Foulkes estimate   =   -2056.35239127 Ry
     estimated scf accuracy    <       0.70336672 Ry

     total magnetization       =    15.00 Bohr mag/cell
     absolute magnetization    =    32.03 Bohr mag/cell

     iteration #  9     ecut=    40.00 Ry     beta=0.30
     Davidson diagonalization with overlap
     ethr =  2.97E-04,  avg # of iterations =  4.4

     negative rho (up, down):  0.170E-02 0.196E-07

     total cpu time spent up to now is     3625.9 secs

     total energy              =   -2056.36411118 Ry
     Harris-Foulkes estimate   =   -2056.37846111 Ry
     estimated scf accuracy    <       0.17416937 Ry

     total magnetization       =    15.00 Bohr mag/cell
     absolute magnetization    =    31.42 Bohr mag/cell

     iteration # 10     ecut=    40.00 Ry     beta=0.30
     Davidson diagonalization with overlap
     ethr =  7.35E-05,  avg # of iterations =  2.7

     negative rho (up, down):  0.282E-02 0.550E-05

     total cpu time spent up to now is     3971.6 secs

     total energy              =   -2056.37389907 Ry
     Harris-Foulkes estimate   =   -2056.38398925 Ry
     estimated scf accuracy    <       0.18311784 Ry

     total magnetization       =    15.00 Bohr mag/cell
     absolute magnetization    =    30.99 Bohr mag/cell

     iteration # 11     ecut=    40.00 Ry     beta=0.30
     Davidson diagonalization with overlap
     ethr =  7.35E-05,  avg # of iterations =  1.1

     negative rho (up, down):  0.397E-02 0.244E-03

     total cpu time spent up to now is     4281.3 secs

     total energy              =   -2056.38947935 Ry
     Harris-Foulkes estimate   =   -2056.39287894 Ry
     estimated scf accuracy    <       0.12373947 Ry

     total magnetization       =    15.00 Bohr mag/cell
     absolute magnetization    =    30.87 Bohr mag/cell

     iteration # 12     ecut=    40.00 Ry     beta=0.30
     Davidson diagonalization with overlap
     ethr =  5.22E-05,  avg # of iterations =  1.1

     negative rho (up, down):  0.522E-02 0.246E-02

     total cpu time spent up to now is     4587.5 secs

     total energy              =   -2056.39686998 Ry
     Harris-Foulkes estimate   =   -2056.39383679 Ry
     estimated scf accuracy    <       0.02849113 Ry

     total magnetization       =    15.00 Bohr mag/cell
     absolute magnetization    =    30.41 Bohr mag/cell

     iteration # 13     ecut=    40.00 Ry     beta=0.30
     Davidson diagonalization with overlap
     ethr =  1.20E-05,  avg # of iterations =  6.2

     negative rho (up, down):  0.565E-02 0.381E-02

     total cpu time spent up to now is     4989.9 secs

     total energy              =   -2056.40075844 Ry
     Harris-Foulkes estimate   =   -2056.39873019 Ry
     estimated scf accuracy    <       0.01182318 Ry

     total magnetization       =    15.00 Bohr mag/cell
     absolute magnetization    =    30.10 Bohr mag/cell

     iteration # 14     ecut=    40.00 Ry     beta=0.30
     Davidson diagonalization with overlap
     ethr =  4.99E-06,  avg # of iterations =  2.5

     negative rho (up, down):  0.581E-02 0.445E-02

     total cpu time spent up to now is     5331.8 secs

     total energy              =   -2056.40281264 Ry
     Harris-Foulkes estimate   =   -2056.40198374 Ry
     estimated scf accuracy    <       0.00733999 Ry

     total magnetization       =    15.00 Bohr mag/cell
     absolute magnetization    =    29.91 Bohr mag/cell

     iteration # 15     ecut=    40.00 Ry     beta=0.30
     Davidson diagonalization with overlap
     ethr =  3.10E-06,  avg # of iterations =  4.8

     negative rho (up, down):  0.631E-02 0.636E-02

     total cpu time spent up to now is     5702.8 secs

     total energy              =   -2056.40421715 Ry
     Harris-Foulkes estimate   =   -2056.40403557 Ry
     estimated scf accuracy    <       0.02875314 Ry

     total magnetization       =    15.00 Bohr mag/cell
     absolute magnetization    =    29.62 Bohr mag/cell

     iteration # 16     ecut=    40.00 Ry     beta=0.30
     Davidson diagonalization with overlap
     ethr =  3.10E-06,  avg # of iterations =  3.5

     negative rho (up, down):  0.635E-02 0.622E-02

     total cpu time spent up to now is     6038.3 secs

     total energy              =   -2056.40672640 Ry
     Harris-Foulkes estimate   =   -2056.40624226 Ry
     estimated scf accuracy    <       0.01363271 Ry

     total magnetization       =    15.00 Bohr mag/cell
     absolute magnetization    =    29.46 Bohr mag/cell

     iteration # 17     ecut=    40.00 Ry     beta=0.30
     Davidson diagonalization with overlap
     ethr =  3.10E-06,  avg # of iterations =  1.0

     negative rho (up, down):  0.603E-02 0.468E-02

     total cpu time spent up to now is     6353.0 secs

     total energy              =   -2056.40761799 Ry
     Harris-Foulkes estimate   =   -2056.40755143 Ry
     estimated scf accuracy    <       0.00523498 Ry

     total magnetization       =    15.00 Bohr mag/cell
     absolute magnetization    =    29.17 Bohr mag/cell

     iteration # 18     ecut=    40.00 Ry     beta=0.30
     Davidson diagonalization with overlap
     ethr =  2.21E-06,  avg # of iterations =  1.0

     negative rho (up, down):  0.586E-02 0.408E-02

     total cpu time spent up to now is     6659.6 secs

     total energy              =   -2056.40772883 Ry
     Harris-Foulkes estimate   =   -2056.40791434 Ry
     estimated scf accuracy    <       0.00315658 Ry

     total magnetization       =    15.00 Bohr mag/cell
     absolute magnetization    =    29.01 Bohr mag/cell

     iteration # 19     ecut=    40.00 Ry     beta=0.30
     Davidson diagonalization with overlap
     ethr =  1.33E-06,  avg # of iterations =  1.0

     negative rho (up, down):  0.595E-02 0.440E-02

     total cpu time spent up to now is     6966.0 secs

     total energy              =   -2056.40792339 Ry
     Harris-Foulkes estimate   =   -2056.40797188 Ry
     estimated scf accuracy    <       0.00113057 Ry

     total magnetization       =    15.00 Bohr mag/cell
     absolute magnetization    =    28.89 Bohr mag/cell

     iteration # 20     ecut=    40.00 Ry     beta=0.30
     Davidson diagonalization with overlap
     ethr =  4.77E-07,  avg # of iterations =  1.0

     negative rho (up, down):  0.553E-02 0.284E-02

     total cpu time spent up to now is     7270.1 secs

     total energy              =   -2056.40810801 Ry
     Harris-Foulkes estimate   =   -2056.40805914 Ry
     estimated scf accuracy    <       0.00073266 Ry

     total magnetization       =    15.00 Bohr mag/cell
     absolute magnetization    =    28.85 Bohr mag/cell

     iteration # 21     ecut=    40.00 Ry     beta=0.30
     Davidson diagonalization with overlap
     ethr =  3.09E-07,  avg # of iterations =  1.9

     negative rho (up, down):  0.550E-02 0.272E-02

     total cpu time spent up to now is     7602.1 secs

     total energy              =   -2056.40814838 Ry
     Harris-Foulkes estimate   =   -2056.40816665 Ry
     estimated scf accuracy    <       0.00084107 Ry

     total magnetization       =    15.00 Bohr mag/cell
     absolute magnetization    =    28.81 Bohr mag/cell

     iteration # 22     ecut=    40.00 Ry     beta=0.30
     Davidson diagonalization with overlap
     ethr =  3.09E-07,  avg # of iterations =  1.0

     negative rho (up, down):  0.535E-02 0.220E-02

     total cpu time spent up to now is     7909.6 secs

     total energy              =   -2056.40820146 Ry
     Harris-Foulkes estimate   =   -2056.40818069 Ry
     estimated scf accuracy    <       0.00040827 Ry

     total magnetization       =    15.00 Bohr mag/cell
     absolute magnetization    =    28.78 Bohr mag/cell

     iteration # 23     ecut=    40.00 Ry     beta=0.30
     Davidson diagonalization with overlap
     ethr =  1.72E-07,  avg # of iterations =  1.0

     negative rho (up, down):  0.520E-02 0.174E-02

     total cpu time spent up to now is     8216.5 secs

     total energy              =   -2056.40824955 Ry
     Harris-Foulkes estimate   =   -2056.40823489 Ry
     estimated scf accuracy    <       0.00017965 Ry

     total magnetization       =    15.00 Bohr mag/cell
     absolute magnetization    =    28.73 Bohr mag/cell

     iteration # 24     ecut=    40.00 Ry     beta=0.30
     Davidson diagonalization with overlap
     ethr =  7.58E-08,  avg # of iterations =  1.0

     negative rho (up, down):  0.512E-02 0.155E-02

     total cpu time spent up to now is     8520.3 secs

     total energy              =   -2056.40828874 Ry
     Harris-Foulkes estimate   =   -2056.40828452 Ry
     estimated scf accuracy    <       0.00020935 Ry

     total magnetization       =    15.00 Bohr mag/cell
     absolute magnetization    =    28.68 Bohr mag/cell

     iteration # 25     ecut=    40.00 Ry     beta=0.30
     Davidson diagonalization with overlap
     ethr =  7.58E-08,  avg # of iterations =  1.0

     negative rho (up, down):  0.520E-02 0.175E-02

     total cpu time spent up to now is     8834.5 secs

     total energy              =   -2056.40827469 Ry
     Harris-Foulkes estimate   =   -2056.40830434 Ry
     estimated scf accuracy    <       0.00026707 Ry

     total magnetization       =    15.00 Bohr mag/cell
     absolute magnetization    =    28.66 Bohr mag/cell

     iteration # 26     ecut=    40.00 Ry     beta=0.30
     Davidson diagonalization with overlap
     ethr =  7.58E-08,  avg # of iterations =  1.0

     negative rho (up, down):  0.515E-02 0.160E-02

     total cpu time spent up to now is     9144.1 secs

     total energy              =   -2056.40829750 Ry
     Harris-Foulkes estimate   =   -2056.40829354 Ry
     estimated scf accuracy    <       0.00019664 Ry

     total magnetization       =    15.00 Bohr mag/cell
     absolute magnetization    =    28.69 Bohr mag/cell

     iteration # 27     ecut=    40.00 Ry     beta=0.30
     Davidson diagonalization with overlap
     ethr =  7.58E-08,  avg # of iterations =  1.0

     negative rho (up, down):  0.512E-02 0.151E-02

     total cpu time spent up to now is     9449.9 secs

     total energy              =   -2056.40831811 Ry
     Harris-Foulkes estimate   =   -2056.40830988 Ry
     estimated scf accuracy    <       0.00004623 Ry

     total magnetization       =    15.00 Bohr mag/cell
     absolute magnetization    =    28.66 Bohr mag/cell

     iteration # 28     ecut=    40.00 Ry     beta=0.30
     Davidson diagonalization with overlap
     ethr =  1.95E-08,  avg # of iterations =  1.5

     negative rho (up, down):  0.512E-02 0.151E-02

     total cpu time spent up to now is     9754.6 secs

     total energy              =   -2056.40833530 Ry
     Harris-Foulkes estimate   =   -2056.40833405 Ry
     estimated scf accuracy    <       0.00009051 Ry

     total magnetization       =    15.00 Bohr mag/cell
     absolute magnetization    =    28.64 Bohr mag/cell

     iteration # 29     ecut=    40.00 Ry     beta=0.30
     Davidson diagonalization with overlap
     ethr =  1.95E-08,  avg # of iterations =  1.0

     negative rho (up, down):  0.515E-02 0.161E-02

     total cpu time spent up to now is    10067.5 secs

     total energy              =   -2056.40834163 Ry
     Harris-Foulkes estimate   =   -2056.40834341 Ry
     estimated scf accuracy    <       0.00004325 Ry

     total magnetization       =    15.00 Bohr mag/cell
     absolute magnetization    =    28.63 Bohr mag/cell

     iteration # 30     ecut=    40.00 Ry     beta=0.30
     Davidson diagonalization with overlap
     ethr =  1.83E-08,  avg # of iterations =  1.0

     negative rho (up, down):  0.517E-02 0.165E-02

     total cpu time spent up to now is    10379.0 secs

     total energy              =   -2056.40834650 Ry
     Harris-Foulkes estimate   =   -2056.40834651 Ry
     estimated scf accuracy    <       0.00005458 Ry

     total magnetization       =    15.00 Bohr mag/cell
     absolute magnetization    =    28.65 Bohr mag/cell

     iteration # 31     ecut=    40.00 Ry     beta=0.30
     Davidson diagonalization with overlap
     ethr =  1.83E-08,  avg # of iterations =  1.0

     negative rho (up, down):  0.518E-02 0.165E-02

     total cpu time spent up to now is    10687.0 secs

     total energy              =   -2056.40834720 Ry
     Harris-Foulkes estimate   =   -2056.40835223 Ry
     estimated scf accuracy    <       0.00001620 Ry

     total magnetization       =    15.00 Bohr mag/cell
     absolute magnetization    =    28.64 Bohr mag/cell

     iteration # 32     ecut=    40.00 Ry     beta=0.30
     Davidson diagonalization with overlap
     ethr =  6.84E-09,  avg # of iterations =  1.5

     negative rho (up, down):  0.518E-02 0.168E-02

     total cpu time spent up to now is    10993.5 secs

     total energy              =   -2056.40835530 Ry
     Harris-Foulkes estimate   =   -2056.40835609 Ry
     estimated scf accuracy    <       0.00001659 Ry

     total magnetization       =    15.00 Bohr mag/cell
     absolute magnetization    =    28.63 Bohr mag/cell

     iteration # 33     ecut=    40.00 Ry     beta=0.30
     Davidson diagonalization with overlap
     ethr =  6.84E-09,  avg # of iterations =  1.0

     negative rho (up, down):  0.521E-02 0.175E-02

     total cpu time spent up to now is    11303.4 secs

     total energy              =   -2056.40835836 Ry
     Harris-Foulkes estimate   =   -2056.40835673 Ry
     estimated scf accuracy    <       0.00000596 Ry

     total magnetization       =    15.00 Bohr mag/cell
     absolute magnetization    =    28.63 Bohr mag/cell

     iteration # 34     ecut=    40.00 Ry     beta=0.30
     Davidson diagonalization with overlap
     ethr =  2.51E-09,  avg # of iterations =  1.0

     negative rho (up, down):  0.522E-02 0.178E-02

     total cpu time spent up to now is    11595.6 secs

     total energy              =   -2056.40836009 Ry
     Harris-Foulkes estimate   =   -2056.40835962 Ry
     estimated scf accuracy    <       0.00000465 Ry

     total magnetization       =    15.00 Bohr mag/cell
     absolute magnetization    =    28.64 Bohr mag/cell

     iteration # 35     ecut=    40.00 Ry     beta=0.30
     Davidson diagonalization with overlap
     ethr =  1.96E-09,  avg # of iterations =  1.0

     negative rho (up, down):  0.524E-02 0.183E-02

     total cpu time spent up to now is    11884.2 secs

     total energy              =   -2056.40836118 Ry
     Harris-Foulkes estimate   =   -2056.40836068 Ry
     estimated scf accuracy    <       0.00000362 Ry

     total magnetization       =    15.00 Bohr mag/cell
     absolute magnetization    =    28.64 Bohr mag/cell

     iteration # 36     ecut=    40.00 Ry     beta=0.30
     Davidson diagonalization with overlap
     ethr =  1.53E-09,  avg # of iterations =  1.0

     negative rho (up, down):  0.523E-02 0.181E-02

     total cpu time spent up to now is    12180.1 secs

     total energy              =   -2056.40836204 Ry
     Harris-Foulkes estimate   =   -2056.40836195 Ry
     estimated scf accuracy    <       0.00000162 Ry

     total magnetization       =    15.00 Bohr mag/cell
     absolute magnetization    =    28.65 Bohr mag/cell

     iteration # 37     ecut=    40.00 Ry     beta=0.30
     Davidson diagonalization with overlap
     ethr =  6.83E-10,  avg # of iterations =  1.0

     negative rho (up, down):  0.523E-02 0.182E-02

     total cpu time spent up to now is    12489.6 secs

     total energy              =   -2056.40836226 Ry
     Harris-Foulkes estimate   =   -2056.40836227 Ry
     estimated scf accuracy    <       0.00000188 Ry

     total magnetization       =    15.00 Bohr mag/cell
     absolute magnetization    =    28.65 Bohr mag/cell

     iteration # 38     ecut=    40.00 Ry     beta=0.30
     Davidson diagonalization with overlap
     ethr =  6.83E-10,  avg # of iterations =  1.0

     negative rho (up, down):  0.521E-02 0.177E-02

     total cpu time spent up to now is    12795.0 secs

     End of self-consistent calculation
 --- enter write_ns ---
 LDA+U parameters:
U( 2)     =  5.50000000
alpha( 2) =  0.00000000
atom    3   Tr[ns(na)] (up, down, total) =   3.68156  0.91537  4.59693
   spin  1
    eigenvalues: 
  0.462  0.505  0.772  0.952  0.990
    eigenvectors:
  0.000  0.223  0.001  0.000  0.775
  0.997  0.002  0.000  0.000  0.000
  0.000  0.000  0.997  0.001  0.002
  0.002  0.774  0.001  0.000  0.223
  0.000  0.000  0.001  0.999  0.000
    occupations:
  0.881  0.001  0.009 -0.202 -0.001
  0.001  0.462 -0.001 -0.003 -0.006
  0.009 -0.001  0.773 -0.003  0.006
 -0.202 -0.003 -0.003  0.613 -0.001
 -0.001 -0.006  0.006 -0.001  0.952
   spin  2
    eigenvalues: 
  0.073  0.089  0.098  0.312  0.342
    eigenvectors:
  0.752  0.000  0.031  0.000  0.217
  0.000  0.002  0.000  0.998  0.000
  0.036  0.001  0.962  0.000  0.000
  0.212  0.000  0.006  0.000  0.783
  0.000  0.997  0.001  0.002  0.000
    occupations:
  0.133 -0.002 -0.002  0.110  0.000
 -0.002  0.312  0.000  0.002  0.009
 -0.002  0.000  0.097  0.006  0.000
  0.110  0.002  0.006  0.284  0.000
  0.000  0.009  0.000  0.000  0.089
atomic mag. moment =     2.766191
atom    4   Tr[ns(na)] (up, down, total) =   3.65364  0.95693  4.61058
   spin  1
    eigenvalues: 
  0.488  0.538  0.714  0.923  0.991
    eigenvectors:
  0.002  0.993  0.000  0.001  0.004
  0.000  0.001  0.013  0.986  0.001
  0.000  0.000  0.987  0.013  0.000
  0.000  0.004  0.000  0.000  0.995
  0.998  0.002  0.000  0.000  0.000
    occupations:
  0.540 -0.012  0.000  0.029  0.002
 -0.012  0.920  0.023  0.002  0.001
  0.000  0.023  0.717  0.000 -0.001
  0.029  0.002  0.000  0.989  0.000
  0.002  0.001 -0.001  0.000  0.488
   spin  2
    eigenvalues: 
  0.079  0.093  0.105  0.334  0.347
    eigenvectors:
  0.005  0.001  0.000  0.003  0.991
  0.003  0.889  0.106  0.000  0.001
  0.001  0.105  0.894  0.000  0.000
  0.991  0.004  0.000  0.000  0.004
  0.000  0.000  0.000  0.997  0.003
    occupations:
  0.346  0.009  0.002 -0.017  0.001
  0.009  0.094 -0.004  0.000 -0.001
  0.002 -0.004  0.103  0.000  0.000
 -0.017  0.000  0.000  0.080  0.000
  0.001 -0.001  0.000  0.000  0.334
atomic mag. moment =     2.696707
atom    9   Tr[ns(na)] (up, down, total) =   3.68107  0.95987  4.64095
   spin  1
    eigenvalues: 
  0.509  0.525  0.737  0.921  0.989
    eigenvectors:
  0.004  0.188  0.000  0.000  0.808
  0.980  0.020  0.000  0.000  0.000
  0.000  0.000  0.994  0.005  0.000
  0.016  0.792  0.000  0.000  0.192
  0.000  0.000  0.005  0.995  0.000
    occupations:
  0.900  0.001 -0.001 -0.183  0.000
  0.001  0.509  0.003  0.002  0.000
 -0.001  0.003  0.738 -0.003 -0.013
 -0.183  0.002 -0.003  0.614  0.002
  0.000  0.000 -0.013  0.002  0.920
   spin  2
    eigenvalues: 
  0.083  0.101  0.105  0.327  0.344
    eigenvectors:
  0.811  0.000  0.001  0.000  0.188
  0.000  0.000  0.000  0.999  0.001
  0.000  0.011  0.988  0.000  0.000
  0.188  0.000  0.000  0.001  0.811
  0.000  0.989  0.011  0.000  0.000
    occupations:
  0.132  0.001  0.001  0.102  0.000
  0.001  0.327  0.000 -0.001  0.000
  0.001  0.000  0.105  0.004  0.000
  0.102 -0.001  0.004  0.295  0.000
  0.000  0.000  0.000  0.000  0.101
atomic mag. moment =     2.721196
atom   10   Tr[ns(na)] (up, down, total) =   3.75452  0.82153  4.57605
   spin  1
    eigenvalues: 
  0.478  0.492  0.867  0.929  0.989
    eigenvectors:
  0.001  0.996  0.000  0.000  0.003
  0.000  0.001  0.000  0.975  0.023
  0.000  0.000  0.999  0.000  0.000
  0.000  0.002  0.000  0.024  0.974
  0.999  0.001  0.000  0.000  0.000
    occupations:
  0.493 -0.013  0.001  0.025  0.001
 -0.013  0.930 -0.001 -0.008 -0.009
  0.001 -0.001  0.867  0.002  0.005
  0.025 -0.008  0.002  0.986  0.000
  0.001 -0.009  0.005  0.000  0.478
   spin  2
    eigenvalues: 
  0.074  0.093  0.097  0.240  0.317
    eigenvectors:
  0.010  0.000  0.000  0.990  0.000
  0.002  0.003  0.995  0.000  0.000
  0.001  0.996  0.003  0.000  0.000
  0.987  0.001  0.002  0.010  0.000
  0.000  0.000  0.000  0.000  0.999
    occupations:
  0.238  0.000 -0.001 -0.016  0.000
  0.000  0.097  0.000  0.001  0.005
 -0.001  0.000  0.093  0.000  0.004
 -0.016  0.001  0.000  0.076  0.000
  0.000  0.005  0.004  0.000  0.317
atomic mag. moment =     2.932990
atom   16   Tr[ns(na)] (up, down, total) =   3.68036  0.91693  4.59730
   spin  1
    eigenvalues: 
  0.462  0.506  0.772  0.950  0.990
    eigenvectors:
  0.001  0.224  0.001  0.000  0.774
  0.996  0.004  0.000  0.000  0.000
  0.000  0.000  0.998  0.001  0.002
  0.003  0.773  0.000  0.000  0.224
  0.000  0.000  0.001  0.999  0.000
    occupations:
  0.881  0.000  0.009 -0.202  0.001
  0.000  0.462  0.001  0.003 -0.007
  0.009  0.001  0.772 -0.004 -0.004
 -0.202  0.003 -0.004  0.614  0.000
  0.001 -0.007 -0.004  0.000  0.950
   spin  2
    eigenvalues: 
  0.074  0.089  0.098  0.313  0.343
    eigenvectors:
  0.752  0.000  0.030  0.000  0.217
  0.000  0.002  0.000  0.998  0.001
  0.036  0.001  0.963  0.000  0.000
  0.212  0.000  0.006  0.000  0.783
  0.000  0.997  0.001  0.002  0.000
    occupations:
  0.133  0.002 -0.002  0.111  0.000
  0.002  0.313  0.000 -0.002  0.009
 -0.002  0.000  0.097  0.006  0.000
  0.111 -0.002  0.006  0.284  0.000
  0.000  0.009  0.000  0.000  0.090
atomic mag. moment =     2.763431
atom   17   Tr[ns(na)] (up, down, total) =   3.66761  0.94239  4.61001
   spin  1
    eigenvalues: 
  0.481  0.533  0.743  0.920  0.990
    eigenvectors:
  0.001  0.994  0.000  0.001  0.004
  0.000  0.001  0.013  0.986  0.000
  0.000  0.000  0.987  0.013  0.000
  0.000  0.004  0.000  0.000  0.996
  0.999  0.001  0.000  0.000  0.000
    occupations:
  0.535 -0.012 -0.003  0.028  0.002
 -0.012  0.918  0.020  0.000  0.001
 -0.003  0.020  0.745  0.001  0.002
  0.028  0.000  0.001  0.988  0.000
  0.002  0.001  0.002  0.000  0.481
   spin  2
    eigenvalues: 
  0.078  0.091  0.101  0.330  0.342
    eigenvectors:
  0.005  0.001  0.000  0.003  0.991
  0.006  0.866  0.127  0.000  0.002
  0.001  0.126  0.873  0.000  0.000
  0.988  0.008  0.000  0.000  0.005
  0.000  0.000  0.000  0.997  0.003
    occupations:
  0.340  0.010  0.002 -0.018  0.001
  0.010  0.093 -0.003  0.000 -0.001
  0.002 -0.003  0.100  0.000  0.000
 -0.018  0.000  0.000  0.079  0.000
  0.001 -0.001  0.000  0.000  0.330
atomic mag. moment =     2.725221
atom   22   Tr[ns(na)] (up, down, total) =   3.54885  1.17266  4.72151
   spin  1
    eigenvalues: 
  0.562  0.566  0.761  0.827  0.832
    eigenvectors:
  0.004  0.150  0.820  0.021  0.004
  0.978  0.021  0.000  0.000  0.000
  0.000  0.000  0.025  0.975  0.000
  0.017  0.828  0.150  0.004  0.000
  0.000  0.000  0.005  0.000  0.995
    occupations:
  0.733  0.002  0.009 -0.071  0.005
  0.002  0.562  0.002  0.000  0.000
  0.009  0.002  0.826 -0.004 -0.001
 -0.071  0.000 -0.004  0.597  0.000
  0.005  0.000 -0.001  0.000  0.832
   spin  2
    eigenvalues: 
  0.119  0.140  0.149  0.374  0.391
    eigenvectors:
  0.000  0.001  0.912  0.001  0.087
  0.000  0.000  0.000  0.998  0.002
  0.999  0.000  0.000  0.000  0.000
  0.000  0.000  0.087  0.002  0.911
  0.000  0.998  0.001  0.000  0.000
    occupations:
  0.170 -0.002  0.001  0.068  0.000
 -0.002  0.374  0.000  0.001  0.000
  0.001  0.000  0.119  0.004  0.000
  0.068  0.001  0.004  0.370  0.000
  0.000  0.000  0.000  0.000  0.140
atomic mag. moment =     2.376190
atom   23   Tr[ns(na)] (up, down, total) =   3.74477  0.83986  4.58463
   spin  1
    eigenvalues: 
  0.464  0.467  0.901  0.928  0.985
    eigenvectors:
  0.979  0.019  0.000  0.001  0.001
  0.000  0.001  0.993  0.000  0.006
  0.001  0.000  0.000  0.998  0.000
  0.001  0.000  0.006  0.000  0.993
  0.019  0.980  0.001  0.000  0.000
    occupations:
  0.465  0.006  0.017  0.012 -0.001
  0.006  0.902 -0.001  0.006 -0.011
  0.017 -0.001  0.927 -0.001 -0.003
  0.012  0.006 -0.001  0.984  0.000
 -0.001 -0.011 -0.003  0.000  0.467
   spin  2
    eigenvalues: 
  0.071  0.076  0.090  0.282  0.321
    eigenvectors:
  0.001  0.006  0.000  0.992  0.000
  0.000  0.005  0.994  0.000  0.000
  0.997  0.002  0.000  0.001  0.000
  0.002  0.986  0.005  0.007  0.000
  0.000  0.000  0.000  0.000  0.999
    occupations:
  0.281  0.002 -0.007 -0.017  0.000
  0.002  0.090  0.000 -0.001  0.004
 -0.007  0.000  0.072  0.000 -0.004
 -0.017 -0.001  0.000  0.077  0.000
  0.000  0.004 -0.004  0.000  0.321
atomic mag. moment =     2.904909
N of occupied +U levels =  36.9379470
 --- exit write_ns ---

 ------ SPIN UP ------------


          k = 0.0000 0.0000 0.0000 ( 27003 PWs)   bands (ev):

   -74.8497 -74.5043 -74.4423 -74.3709 -74.3598 -74.3106 -74.2944 -74.2399
   -46.2151 -46.1560 -46.1243 -45.9809 -45.7982 -45.7902 -45.7794 -45.7710
   -45.7548 -45.7368 -45.7028 -45.6870 -45.6769 -45.6732 -45.6675 -45.6419
   -45.6214 -45.6108 -45.6049 -45.6006 -45.5729 -45.5454 -45.5065 -45.4677
   -25.1833 -20.4188 -19.9693 -19.6656 -19.5949 -19.1753 -19.0035 -18.9508
   -18.8755 -18.8001 -18.7485 -18.6548 -18.5923 -18.4966 -18.4022 -18.3762
   -18.2691 -18.1924 -18.0556 -17.3898  -9.7320  -9.2108  -9.0279  -8.6201
    -8.4728  -8.3888  -8.1609  -7.9291  -7.8537  -7.7877  -7.6342  -7.3546
    -7.2459  -7.1778  -7.1017  -6.9219  -6.5857  -6.5589  -6.5489  -6.4748
    -6.4105  -6.2602  -6.1105  -6.0105  -5.8769  -5.8412  -5.7194  -5.6425
    -5.4803  -5.3933  -5.3067  -5.0931  -5.0369  -4.9339  -4.9106  -4.7344
    -4.7263  -4.5504  -4.4747  -4.4364  -4.3845  -4.2909  -4.2590  -4.1955
    -4.1330  -3.9837  -3.9697  -3.9329  -3.8943  -3.8129  -3.7505  -3.6967
    -3.6245  -3.5442  -3.4315  -3.3919  -3.3477  -3.2948  -3.2110  -3.2082
    -3.1349  -3.0685  -2.9443  -2.8367  -2.5614  -2.2847  -2.2660  -2.1225
    -1.9782  -1.6645  -1.6056  -1.4417  -1.4318  -1.3729  -1.3412  -1.2907
    -1.1994  -1.1205  -1.0141  -0.7857  -0.6487  -0.6042  -0.3378   0.2437
     0.9397   1.1410   1.4974   1.9180   2.1412   2.1824   2.2008   2.2791
     2.4188   2.5007   2.5744   2.6266   2.7946   2.9621   2.9700   3.2749
     3.5460   3.8780   4.1963   4.3546   4.9429   5.4472   5.9453   6.4120
     6.8128   7.0764   7.0955   7.1478   7.4221   7.5016   7.5625   7.6730
     7.8478   7.8645   7.9373   8.0463   8.0748   8.2023   8.2877   8.5394
     8.7006   8.7250   8.8993   8.9881   9.2845   9.2911   9.4310   9.4661
     9.6530   9.7957   9.9377   9.9625  10.0808  10.1609  10.2246  10.4980
    10.5205  10.5499  10.5759  10.7795  10.8307  10.9238  10.9702  11.1712
    11.2534  11.3667  11.4503  11.4926  11.6170  11.7172  11.7346  11.8296
    11.8612  11.9079  12.0057  12.0191  12.1226  12.1720  12.2647  12.3318
    12.3489  12.4575  12.4790  12.5658  12.7362  12.7778  12.8509  12.9238
    12.9902  12.9941  13.1816  13.3139  13.3564  13.4055  13.5126  13.5753
    13.5854  13.6377  13.7091  13.7801  13.8497  13.9340  13.9567  14.1368
    14.2223  14.3233  14.3797  14.4448  14.4665  14.5247  14.8218  14.8864
    15.0336  15.0791  15.1048  15.1552  15.1974  15.2493  15.2915  15.3434
    15.3994  15.5360  15.6200  15.7609  15.8018  15.8516  15.9981  16.0473
    16.2173  16.4940  16.5443  16.6604  16.6895  16.7562  16.8403  16.8671
    16.9749  17.1225  17.2855  17.3402  17.3928  17.4481  17.6082  17.6800
    17.7359  17.7584  17.7980  18.0610  18.1978  18.2524  18.3218  18.4245
    18.4964  18.5059  18.6005  18.7111  18.8361  18.8771  18.9922  19.0892
    19.1209  19.1412  19.1702  19.3040  19.4530  19.5147  19.6040  19.6433
    19.6872  19.6963  19.7135  19.7957  19.9776  19.9945  20.0616  20.0930
    20.1691  20.2986  20.3804  20.5406  20.5974  20.6097  20.6689  20.7101
    20.8473  20.9194  21.0266  21.0887  21.1420  21.2175  21.2196  21.3107
    21.3976  21.4211  21.4738  21.4911  21.5922  21.6469  21.7130  21.7508
    21.8212  21.8890  21.9807  22.0320  22.1609  22.1758  22.1916

          k = 0.0000 0.2341 0.0000 ( 27088 PWs)   bands (ev):

   -74.8497 -74.5043 -74.4424 -74.3709 -74.3598 -74.3105 -74.2943 -74.2399
   -46.2151 -46.1560 -46.1242 -45.9809 -45.8012 -45.7878 -45.7732 -45.7711
   -45.7562 -45.7398 -45.7003 -45.6871 -45.6779 -45.6731 -45.6709 -45.6415
   -45.6210 -45.6107 -45.6049 -45.6005 -45.5728 -45.5454 -45.5069 -45.4678
   -25.1832 -20.3275 -19.8622 -19.6610 -19.6408 -19.1649 -19.0907 -18.9591
   -18.9107 -18.8966 -18.7842 -18.6353 -18.5597 -18.5275 -18.4455 -18.3549
   -18.2605 -18.1941 -18.0495 -17.3859  -9.7140  -9.0125  -8.7804  -8.7065
    -8.5373  -8.4293  -8.3950  -8.0551  -7.9682  -7.7840  -7.4798  -7.1415
    -7.0659  -6.9541  -6.8050  -6.6371  -6.5542  -6.4385  -6.3836  -6.3406
    -6.2865  -6.2393  -6.0564  -6.0243  -5.9924  -5.8882  -5.7323  -5.6735
    -5.6094  -5.5369  -5.2699  -5.2096  -5.0838  -5.0156  -4.9733  -4.9423
    -4.8766  -4.8250  -4.7946  -4.7281  -4.6954  -4.4951  -4.3791  -4.3028
    -4.2451  -4.1531  -4.0698  -3.9309  -3.8166  -3.7174  -3.6887  -3.5784
    -3.4863  -3.4329  -3.3547  -3.3067  -3.2977  -3.2151  -3.1484  -3.0580
    -2.9519  -2.8932  -2.8326  -2.5875  -2.5106  -2.4310  -2.1860  -2.1477
    -2.0887  -1.9325  -1.9079  -1.7747  -1.5695  -1.3977  -1.3683  -1.2901
    -1.1886  -0.9809  -0.8386  -0.7193  -0.6563  -0.6122  -0.5772   0.4141
     1.1209   1.1415   1.2200   1.2735   1.7802   2.2649   2.4286   2.4868
     2.5751   2.7660   2.7978   2.8188   2.8266   3.0955   3.1624   3.2234
     3.7678   4.1075   4.1527   4.5639   5.1226   5.1904   5.6900   5.8327
     6.0734   6.3909   6.6022   7.0743   7.2724   7.3622   7.6442   7.8690
     7.9962   8.1126   8.1240   8.2388   8.2964   8.4958   8.6693   8.8932
     8.9360   9.0388   9.0708   9.2451   9.2825   9.3911   9.5703   9.6017
     9.6533   9.7097   9.7931  10.0342  10.1283  10.1810  10.2403  10.2701
    10.3122  10.4503  10.4910  10.6740  10.7087  10.7572  10.8416  10.9403
    10.9944  11.0670  11.2072  11.4007  11.4559  11.5461  11.6847  11.7430
    11.7921  11.9089  11.9539  12.0332  12.1590  12.1962  12.2320  12.5539
    12.5878  12.6603  12.7008  12.7374  12.8424  13.0612  13.1588  13.1829
    13.3172  13.3771  13.4821  13.6205  13.7005  13.7449  13.8228  13.8913
    13.9145  14.0175  14.1069  14.1927  14.2208  14.2873  14.3358  14.4418
    14.4793  14.5258  14.6143  14.6387  14.7887  14.8902  14.9089  15.0051
    15.0117  15.0906  15.1921  15.2345  15.2704  15.3670  15.3990  15.4419
    15.5205  15.5894  15.6167  15.7706  15.8942  15.9277  15.9668  16.0002
    16.0575  16.0948  16.2048  16.2625  16.3685  16.5065  16.5918  16.6793
    16.7749  16.8396  16.9169  16.9716  17.1236  17.1735  17.1975  17.2687
    17.4220  17.4518  17.5079  17.6620  17.8050  17.8699  18.0225  18.1157
    18.1815  18.3182  18.4187  18.4641  18.5348  18.6943  18.7329  18.8169
    18.9222  18.9622  19.0978  19.1561  19.2271  19.2540  19.3352  19.4303
    19.5763  19.6914  19.7217  19.8256  19.9019  19.9345  20.0203  20.1329
    20.1838  20.2543  20.3133  20.4038  20.4588  20.5296  20.5885  20.6178
    20.6705  20.7237  20.7590  20.8479  20.8888  20.9492  21.0279  21.0859
    21.1851  21.2363  21.3090  21.3624  21.4113  21.4609  21.4923  21.5465
    21.5776  21.6521  21.6919  21.7518  21.8495  21.8844  21.9346

          k = 0.0000-0.4682 0.0000 ( 27136 PWs)   bands (ev):

   -74.8496 -74.5043 -74.4424 -74.3708 -74.3599 -74.3105 -74.2943 -74.2400
   -46.2151 -46.1560 -46.1240 -45.9809 -45.8032 -45.7855 -45.7713 -45.7670
   -45.7572 -45.7439 -45.6923 -45.6898 -45.6857 -45.6730 -45.6703 -45.6412
   -45.6206 -45.6107 -45.6049 -45.6005 -45.5727 -45.5454 -45.5072 -45.4679
   -25.1831 -20.2022 -19.7974 -19.6560 -19.5757 -19.3801 -19.0436 -19.0084
   -18.9637 -18.9216 -18.8055 -18.6297 -18.6242 -18.5320 -18.4228 -18.3432
   -18.2559 -18.1961 -18.0481 -17.3819  -9.6929  -8.8885  -8.8471  -8.6327
    -8.4863  -8.4338  -8.3582  -8.0819  -8.0038  -7.8081  -7.1766  -7.0234
    -6.9265  -6.7624  -6.6406  -6.6121  -6.5324  -6.4414  -6.3258  -6.2181
    -6.0995  -6.0341  -6.0252  -6.0002  -5.9593  -5.8165  -5.7238  -5.7066
    -5.6693  -5.5254  -5.4907  -5.4341  -5.3451  -5.2932  -5.1588  -5.1090
    -5.0436  -4.9620  -4.8590  -4.8156  -4.7026  -4.5503  -4.4874  -4.4242
    -4.2945  -4.2706  -4.2000  -4.0314  -3.9658  -3.7068  -3.5770  -3.5144
    -3.4726  -3.4015  -3.2945  -3.2673  -3.2361  -3.1987  -3.0497  -3.0188
    -2.8442  -2.7658  -2.6781  -2.4880  -2.4593  -2.3973  -2.3611  -2.2905
    -2.0924  -2.0017  -1.8137  -1.7925  -1.6763  -1.3512  -1.3142  -1.2720
    -1.2167  -1.1976  -1.1236  -0.8042  -0.6724  -0.5642  -0.4105   0.5355
     0.7896   0.8467   1.1526   1.4659   1.8750   2.4251   2.4835   2.5341
     2.6724   2.7327   2.7461   2.7970   2.8410   3.0723   3.5239   3.6010
     3.8152   4.3544   4.4835   4.7221   4.8589   5.0388   5.2887   5.5183
     5.7045   6.1178   6.3219   6.9325   7.1411   7.6255   7.7130   7.7940
     8.1208   8.1822   8.3730   8.5131   8.5303   8.5881   8.6494   8.7219
     8.9183   8.9433   8.9677   9.0585   9.1922   9.3669   9.4673   9.5782
     9.6293   9.6582   9.9057   9.9303   9.9699  10.1302  10.1970  10.2802
    10.3074  10.5493  10.5913  10.6487  10.7971  10.9639  11.0166  11.2263
    11.2301  11.3009  11.3462  11.5330  11.5622  11.6138  11.7088  11.9821
    12.0719  12.0820  12.1323  12.2299  12.2976  12.3620  12.4009  12.4464
    12.5802  12.6363  12.8519  12.8697  12.9986  13.0550  13.1868  13.2462
    13.2784  13.4299  13.5295  13.6354  13.7158  13.8053  13.8290  13.8735
    13.9015  14.0010  14.0739  14.1211  14.2642  14.3034  14.4623  14.4882
    14.5532  14.6535  14.6871  14.7931  14.8415  14.9733  15.0466  15.2271
    15.2803  15.3356  15.3777  15.5354  15.5582  15.5764  15.5871  15.6308
    15.6739  15.7849  15.8378  15.8902  15.9532  15.9587  16.1097  16.1317
    16.2003  16.2304  16.2657  16.3363  16.4661  16.5719  16.6631  16.6861
    16.7364  16.7871  16.8843  16.9056  16.9910  17.0798  17.1425  17.1848
    17.3621  17.3688  17.4443  17.4948  17.6080  17.7051  17.7591  17.7755
    17.9730  18.0574  18.1107  18.1382  18.2155  18.2807  18.3959  18.4605
    18.5493  18.6715  18.7192  18.7711  18.8707  18.9143  18.9490  19.0341
    19.0904  19.2016  19.2252  19.2801  19.4226  19.5629  19.5884  19.7826
    19.8021  19.8936  20.0104  20.0579  20.2379  20.2431  20.2743  20.3336
    20.4427  20.5416  20.6090  20.6558  20.7455  20.7799  20.8051  20.8824
    20.9863  21.0227  21.0890  21.1249  21.1785  21.1992  21.3263  21.3839
    21.4128  21.4773  21.5441  21.6246  21.7635  21.9135  21.9651

          k = 0.2500 0.0000 0.0000 ( 27178 PWs)   bands (ev):

   -74.8493 -74.5038 -74.4416 -74.3708 -74.3597 -74.3085 -74.2956 -74.2396
   -46.2108 -46.1558 -46.1243 -45.9809 -45.7878 -45.7845 -45.7792 -45.7700
   -45.7366 -45.7344 -45.7053 -45.6876 -45.6780 -45.6731 -45.6659 -45.6335
   -45.6165 -45.6109 -45.6057 -45.5969 -45.5961 -45.5607 -45.5069 -45.4917
   -25.1833 -20.2962 -19.8536 -19.7435 -19.5139 -19.2338 -19.1045 -19.0334
   -18.9315 -18.7674 -18.7115 -18.6323 -18.5631 -18.5184 -18.4219 -18.3676
   -18.2984 -18.2183 -18.0834 -17.3889  -9.7292  -8.9619  -8.7991  -8.4434
    -8.3452  -8.1760  -8.1255  -7.7655  -7.7413  -7.6879  -7.5044  -7.4658
    -7.4455  -7.2425  -7.0845  -6.9052  -6.8637  -6.7233  -6.6087  -6.5496
    -6.4572  -6.4144  -6.1919  -6.0302  -5.9941  -5.8971  -5.8722  -5.7283
    -5.5217  -5.3920  -5.2864  -5.1847  -5.1251  -4.9733  -4.9036  -4.8597
    -4.8226  -4.7239  -4.6475  -4.5999  -4.5726  -4.3727  -4.3179  -4.2955
    -4.1768  -4.1340  -4.1062  -3.9781  -3.8352  -3.7572  -3.6089  -3.5796
    -3.5397  -3.4499  -3.3743  -3.3406  -3.2343  -3.2069  -3.1562  -2.9874
    -2.9156  -2.8644  -2.7575  -2.6044  -2.4416  -2.3741  -2.1946  -2.0617
    -1.9739  -1.6559  -1.6113  -1.5943  -1.4102  -1.3268  -1.2978  -1.2000
    -1.1799  -1.1604  -1.0532  -0.8765  -0.7612  -0.6626  -0.4542   0.3358
     1.0361   1.1786   1.5882   1.8886   2.0700   2.1691   2.1955   2.2410
     2.2856   2.3419   2.5225   2.7050   2.7379   2.7533   2.8614   3.2278
     3.8108   4.1650   4.2594   4.6440   4.9641   5.2993   5.9054   6.1289
     6.2827   6.5081   6.7125   6.9029   7.1035   7.3519   7.5124   7.6988
     7.7237   7.8354   8.1042   8.1627   8.2555   8.3791   8.5154   8.6627
     8.7000   8.9319   9.0981   9.1776   9.3224   9.3724   9.5649   9.7522
     9.7989   9.8702   9.9402   9.9963  10.0764  10.1686  10.2871  10.3345
    10.4332  10.4784  10.5327  10.6043  10.6233  10.7060  10.8776  10.9178
    10.9685  11.1329  11.2784  11.3979  11.4893  11.5730  11.6590  11.7394
    11.8017  11.8652  11.9863  12.1160  12.1992  12.3461  12.4658  12.5201
    12.5695  12.6786  12.7512  12.7954  12.9434  13.0784  13.1399  13.2158
    13.3478  13.4643  13.4893  13.5402  13.6943  13.7614  13.8065  13.8818
    13.9121  13.9669  14.0465  14.1512  14.2445  14.2903  14.3328  14.4594
    14.5243  14.6312  14.7545  14.7820  14.8317  14.9714  15.0044  15.0906
    15.1537  15.2154  15.2494  15.2991  15.3851  15.4435  15.5681  15.6514
    15.7115  15.7572  15.8421  15.8757  15.9853  16.0113  16.1310  16.2303
    16.3336  16.4536  16.5167  16.6141  16.6928  16.8035  16.8339  16.9665
    17.0000  17.0571  17.1030  17.2499  17.3091  17.4108  17.4632  17.5269
    17.6309  17.6628  17.7184  17.7474  17.8015  17.8500  18.0129  18.0885
    18.1574  18.2415  18.3740  18.5041  18.5443  18.6543  18.7422  18.7613
    18.8700  18.9121  19.0130  19.0988  19.1666  19.2682  19.3026  19.3923
    19.4531  19.4626  19.5805  19.6212  19.6759  19.8339  19.8788  19.9143
    19.9480  20.0743  20.1359  20.1858  20.2643  20.3107  20.3642  20.3773
    20.5151  20.5891  20.6928  20.7249  20.8217  20.8743  20.9479  20.9634
    21.0265  21.1454  21.2242  21.2917  21.3440  21.3961  21.4397  21.4597
    21.5349  21.6315  21.6958  21.7105  21.7572  21.8037  21.8421

          k = 0.2500 0.2341 0.0000 ( 27132 PWs)   bands (ev):

   -74.8493 -74.5038 -74.4417 -74.3707 -74.3597 -74.3085 -74.2956 -74.2397
   -46.2108 -46.1557 -46.1241 -45.9809 -45.7892 -45.7855 -45.7714 -45.7699
   -45.7396 -45.7361 -45.7027 -45.6875 -45.6792 -45.6731 -45.6687 -45.6334
   -45.6164 -45.6109 -45.6056 -45.5967 -45.5958 -45.5606 -45.5073 -45.4918
   -25.1832 -20.2169 -19.7559 -19.7326 -19.5389 -19.2011 -19.0809 -19.0156
   -18.9907 -18.8782 -18.7862 -18.6833 -18.5903 -18.5378 -18.4519 -18.3496
   -18.2759 -18.2195 -18.0771 -17.3846  -9.7112  -8.7916  -8.5622  -8.5126
    -8.3357  -8.2563  -8.1743  -7.9756  -7.7714  -7.6562  -7.3598  -7.2774
    -7.2129  -7.1091  -7.0195  -6.7503  -6.7284  -6.6514  -6.5433  -6.4366
    -6.3656  -6.2197  -6.1209  -6.0121  -5.9567  -5.9146  -5.7765  -5.6599
    -5.5768  -5.4382  -5.4130  -5.2937  -5.2579  -5.2331  -5.1799  -5.1102
    -5.0118  -4.9797  -4.8775  -4.8195  -4.7362  -4.6356  -4.5886  -4.3744
    -4.2595  -4.1190  -4.0734  -3.8934  -3.8440  -3.7876  -3.6860  -3.6455
    -3.5137  -3.4109  -3.3715  -3.2192  -3.1152  -3.0423  -2.9911  -2.8756
    -2.7372  -2.6612  -2.5945  -2.4830  -2.3946  -2.3199  -2.1565  -2.0394
    -1.9731  -1.9238  -1.7971  -1.6975  -1.5918  -1.3870  -1.3046  -1.2246
    -1.1747  -1.0394  -0.9584  -0.8229  -0.7844  -0.7371  -0.6539   0.4800
     1.1498   1.2276   1.3025   1.3883   1.7817   2.1240   2.2181   2.3013
     2.3926   2.5028   2.6508   2.7181   3.0095   3.0801   3.1640   3.2148
     4.0146   4.2040   4.4334   4.8425   5.0732   5.4216   5.6725   6.0801
     6.1153   6.3210   6.4360   6.5394   6.7488   6.9076   7.1189   7.3913
     7.5382   7.7506   7.8736   8.1681   8.2490   8.3476   8.4535   8.6133
     8.6864   8.8857   9.0837   9.2132   9.3673   9.4670   9.5743   9.7443
     9.8508   9.9479  10.0387  10.0818  10.1395  10.3554  10.4270  10.4555
    10.5605  10.6090  10.7114  10.8010  10.9128  11.0474  11.1897  11.2921
    11.3320  11.5083  11.5660  11.7121  11.7600  11.8915  11.9388  12.0278
    12.0822  12.1824  12.2184  12.3192  12.3475  12.4283  12.5968  12.6513
    12.7488  12.7708  12.9020  12.9836  13.0542  13.1172  13.1964  13.2782
    13.3387  13.4092  13.4533  13.5829  13.6388  13.7218  13.8263  13.9039
    14.0101  14.0802  14.1113  14.1480  14.2191  14.2536  14.4160  14.4816
    14.5506  14.6859  14.7400  14.7799  14.9141  14.9610  15.0505  15.0846
    15.1821  15.2365  15.2896  15.4094  15.4494  15.5353  15.6431  15.6990
    15.7442  15.8195  15.8677  15.9413  16.0025  16.0864  16.1336  16.1836
    16.2955  16.3339  16.4198  16.5186  16.5896  16.6664  16.6885  16.7736
    16.8219  16.8750  17.0206  17.0660  17.1188  17.2125  17.2702  17.3178
    17.3735  17.4326  17.4975  17.6058  17.6616  17.6823  17.7607  17.8043
    17.9230  17.9818  18.0212  18.0866  18.2161  18.2791  18.3407  18.4022
    18.4467  18.5299  18.6072  18.6955  18.7934  18.8033  18.8415  18.8805
    18.9610  19.0963  19.2141  19.2535  19.2991  19.4135  19.4209  19.5290
    19.6365  19.6508  19.7298  19.7610  19.8553  20.0390  20.0631  20.1384
    20.2094  20.2408  20.3236  20.4593  20.5192  20.6264  20.6944  20.7464
    20.8627  20.9294  21.0088  21.0575  21.1386  21.1989  21.2303  21.3699
    21.4459  21.5073  21.5886  21.6846  21.7255  21.8135  21.8507

          k = 0.2500-0.4682 0.0000 ( 27150 PWs)   bands (ev):

   -74.8492 -74.5038 -74.4417 -74.3707 -74.3598 -74.3084 -74.2956 -74.2397
   -46.2108 -46.1557 -46.1239 -45.9809 -45.7913 -45.7833 -45.7699 -45.7654
   -45.7435 -45.7381 -45.6932 -45.6884 -45.6862 -45.6730 -45.6714 -45.6334
   -45.6163 -45.6108 -45.6054 -45.5962 -45.5955 -45.5605 -45.5076 -45.4918
   -25.1830 -20.1158 -19.7225 -19.6733 -19.4784 -19.2894 -19.0914 -19.0329
   -18.9532 -18.9221 -18.8734 -18.7668 -18.6302 -18.6031 -18.4245 -18.3376
   -18.2557 -18.2262 -18.0748 -17.3803  -9.6910  -8.6793  -8.6347  -8.4103
    -8.2717  -8.1922  -8.1359  -8.0426  -7.7932  -7.6821  -7.1963  -7.1296
    -6.9115  -6.8564  -6.7247  -6.6185  -6.5486  -6.4742  -6.4414  -6.3939
    -6.3267  -6.2957  -6.1113  -6.0401  -6.0036  -5.9595  -5.9132  -5.8849
    -5.7593  -5.7146  -5.6509  -5.5128  -5.4312  -5.2496  -5.1406  -5.1230
    -5.0070  -4.9723  -4.9144  -4.8586  -4.8104  -4.7460  -4.6994  -4.6546
    -4.4511  -4.3523  -4.0828  -4.0397  -3.9169  -3.8345  -3.6991  -3.6622
    -3.5971  -3.4083  -3.3311  -3.2098  -2.9968  -2.9124  -2.8563  -2.7582
    -2.6177  -2.5436  -2.4745  -2.4349  -2.2953  -2.1924  -2.1631  -2.0410
    -1.9971  -1.9351  -1.7935  -1.7463  -1.5494  -1.3521  -1.3413  -1.2739
    -1.2383  -1.1888  -1.0583  -0.8980  -0.8242  -0.7451  -0.5647   0.5890
     0.9006   0.9624   1.1637   1.4762   1.9204   2.1060   2.1527   2.2330
     2.3864   2.4421   2.7022   2.9652   3.0057   3.2720   3.4382   3.4991
     3.9814   4.5526   4.7553   4.9850   5.1080   5.3048   5.4113   5.5733
     5.8373   6.2332   6.4645   6.5873   6.7702   6.9154   7.0852   7.1567
     7.2854   7.4382   7.5476   7.7782   7.9176   8.1138   8.3200   8.5323
     8.6823   8.9246   8.9882   9.0923   9.2235   9.2783   9.4309   9.6548
     9.8868  10.0585  10.1712  10.3239  10.4952  10.5472  10.6322  10.8330
    10.8475  10.9834  11.0452  11.1564  11.2679  11.4517  11.4922  11.5234
    11.6797  11.7811  11.8403  11.9009  11.9918  12.0641  12.1522  12.3196
    12.3758  12.4512  12.5488  12.5811  12.6632  12.6831  12.7060  12.8343
    12.9030  13.0563  13.1113  13.1899  13.2124  13.3212  13.3729  13.3989
    13.4922  13.5932  13.6662  13.7351  13.7753  13.7980  13.9048  13.9506
    14.0445  14.0832  14.1236  14.2102  14.3326  14.4440  14.4736  14.5383
    14.5727  14.6132  14.6425  14.7304  14.7800  14.7901  14.8357  14.9390
    14.9692  15.0610  15.1271  15.2818  15.3139  15.3702  15.4296  15.4592
    15.5476  15.6020  15.6309  15.7031  15.7257  15.8215  15.9167  16.0184
    16.0503  16.0807  16.1179  16.2021  16.2978  16.3870  16.4441  16.5315
    16.5925  16.6766  16.7255  16.8388  16.8745  16.9368  16.9761  17.0287
    17.1858  17.3054  17.4436  17.5286  17.5843  17.6602  17.7110  17.7478
    17.8924  17.9805  18.0041  18.1206  18.1621  18.2177  18.2879  18.3734
    18.4105  18.5076  18.5731  18.6805  18.7051  18.7610  18.8214  18.8842
    18.9557  19.0068  19.0760  19.1545  19.2029  19.3032  19.3642  19.4260
    19.4829  19.5339  19.5710  19.6236  19.6680  19.7115  19.7519  19.8322
    19.8803  19.9506  20.1195  20.2123  20.3153  20.3893  20.4651  20.5618
    20.6112  20.6739  20.7214  20.7433  20.8592  20.9211  20.9606  21.0162
    21.0621  21.1237  21.1992  21.3370  21.4263  21.5297  21.6255

          k =-0.5000 0.0000 0.0000 ( 27158 PWs)   bands (ev):

   -74.8489 -74.5033 -74.4409 -74.3706 -74.3596 -74.3059 -74.2974 -74.2394
   -46.2064 -46.1555 -46.1242 -45.9810 -45.7856 -45.7793 -45.7695 -45.7683
   -45.7364 -45.7107 -45.6973 -45.6881 -45.6783 -45.6728 -45.6656 -45.6329
   -45.6244 -45.6221 -45.6171 -45.6023 -45.5781 -45.5524 -45.5440 -45.5073
   -25.1832 -20.0337 -19.9659 -19.5749 -19.5541 -19.3101 -19.2919 -19.0745
   -18.8841 -18.8351 -18.5902 -18.5649 -18.5480 -18.4986 -18.4931 -18.4830
   -18.3157 -18.2017 -18.1237 -17.3879  -9.7265  -8.4092  -8.3308  -8.2359
    -8.2058  -8.1037  -8.0783  -8.0582  -7.6983  -7.6304  -7.5011  -7.4399
    -7.4031  -7.3775  -7.2238  -7.1153  -7.0071  -6.9404  -6.6980  -6.6800
    -6.3339  -6.2296  -6.0711  -6.0134  -5.9398  -5.8567  -5.7478  -5.7122
    -5.6627  -5.6235  -5.5589  -5.5560  -5.4692  -5.2920  -5.2559  -5.0230
    -4.7943  -4.7313  -4.6207  -4.5986  -4.5634  -4.5209  -4.4850  -4.3488
    -4.3182  -4.1705  -4.0925  -4.0319  -3.7453  -3.6728  -3.5452  -3.4686
    -3.3521  -3.3108  -3.2689  -3.1702  -3.1391  -3.1166  -2.9970  -2.9496
    -2.8609  -2.8231  -2.4964  -2.3643  -2.3115  -2.1893  -2.1803  -2.0634
    -1.9858  -1.7591  -1.7042  -1.6161  -1.4730  -1.4094  -1.3487  -1.2080
    -1.1035  -1.0365  -1.0227  -0.8379  -0.7983  -0.7516  -0.7195   0.4103
     1.1631   1.3128   1.5296   1.7375   1.9266   2.1134   2.1274   2.1975
     2.2940   2.3253   2.3509   2.4999   2.6169   2.9286   3.0192   3.2483
     4.0687   4.3289   4.6612   4.7114   5.0219   5.0269   5.4269   5.4738
     6.0273   6.2155   6.6862   6.9623   7.1620   7.3537   7.7145   7.8803
     7.9055   7.9367   8.0307   8.2828   8.4958   8.5288   8.5774   8.6535
     8.6881   8.9058   8.9262   8.9485   8.9687   9.1126   9.1660   9.3076
     9.3615   9.4482   9.6300   9.8751   9.9622  10.0486  10.1501  10.2060
    10.3647  10.6666  10.7187  10.8907  10.9340  10.9767  11.0329  11.0782
    11.1362  11.2663  11.5358  11.6377  11.6495  11.8758  11.8820  11.9461
    12.1606  12.1813  12.1950  12.3245  12.4577  12.5337  12.6268  12.6429
    12.8620  12.8949  12.9697  13.0109  13.1863  13.2536  13.3074  13.4682
    13.5238  13.5880  13.6910  13.7079  13.7784  13.8543  13.9094  13.9227
    14.1478  14.1861  14.2144  14.2578  14.4436  14.4619  14.5245  14.5932
    14.7154  14.7471  14.8441  15.0253  15.0760  15.1160  15.1854  15.2014
    15.3950  15.4397  15.5046  15.5680  15.6067  15.7013  15.7170  15.8580
    15.8879  15.9232  16.0902  16.1234  16.1994  16.2540  16.4023  16.4269
    16.4659  16.5336  16.6854  16.7638  16.7813  16.8560  16.9120  16.9684
    16.9978  17.0489  17.2111  17.3074  17.3997  17.4560  17.4871  17.5034
    17.5522  17.5948  17.6369  17.6869  17.7698  17.8598  17.9161  17.9593
    18.0487  18.0824  18.1367  18.1678  18.3351  18.3563  18.4420  18.5316
    18.5441  18.5835  18.6326  18.7402  18.7613  18.9534  19.0348  19.1121
    19.1824  19.1965  19.2610  19.2928  19.3473  19.3970  19.5663  19.6316
    19.7158  19.7568  19.8607  19.8749  19.8946  19.9144  19.9975  20.0807
    20.1597  20.1628  20.2888  20.3346  20.4247  20.4647  20.5373  20.6053
    20.6203  20.6864  20.7430  20.8054  20.8514  20.9738  21.0472  21.1028
    21.1548  21.2029  21.2359  21.2973  21.3441  21.4060  21.4119

          k =-0.5000 0.2341 0.0000 ( 27132 PWs)   bands (ev):

   -74.8489 -74.5033 -74.4409 -74.3706 -74.3597 -74.3059 -74.2974 -74.2394
   -46.2065 -46.1555 -46.1240 -45.9809 -45.7837 -45.7800 -45.7694 -45.7646
   -45.7393 -45.7081 -45.6970 -45.6877 -45.6823 -45.6728 -45.6688 -45.6312
   -45.6244 -45.6220 -45.6172 -45.6023 -45.5779 -45.5523 -45.5439 -45.5077
   -25.1831 -19.9899 -19.9235 -19.5013 -19.4701 -19.2858 -19.2622 -19.0974
   -18.8831 -18.8575 -18.8112 -18.7185 -18.6009 -18.5742 -18.4356 -18.4217
   -18.2874 -18.2019 -18.1176 -17.3833  -9.7085  -8.4081  -8.3164  -8.1772
    -8.0500  -8.0363  -7.8766  -7.7971  -7.7152  -7.5144  -7.4866  -7.4756
    -7.3346  -7.2957  -7.1997  -7.1035  -6.9939  -6.8381  -6.6617  -6.5215
    -6.3298  -6.2292  -6.0652  -5.9937  -5.9132  -5.7671  -5.7571  -5.7074
[...]
     3.8221   3.8607   3.9235   3.9786   3.9993   4.1092   4.2054   4.2271
     4.2452   4.4094   4.5318   4.6080   4.6198   4.6599   4.6738   4.7322
     4.7685   4.8503   4.8775   4.9391   5.1132   5.1165   5.4881   5.4990
     6.1373   6.2314   6.7995   6.9826   7.2035   7.4249   7.7148   7.9187
     7.9281   8.0116   8.0380   8.2414   8.5252   8.5726   8.6209   8.6698
     8.6941   8.8367   8.8678   8.9312   8.9360   9.0850   9.1664   9.2990
     9.4099   9.4426   9.6743   9.8955   9.9668  10.0167  10.1747  10.1885
    10.4483  10.7052  10.7181  10.7416  10.8418  10.9487  11.0110  11.0556
    11.1808  11.3814  11.5874  11.7130  11.7182  11.9365  12.1034  12.1112
    12.2053  12.2662  12.3557  12.4555  12.5851  12.6264  12.6920  12.7328
    12.9664  12.9788  13.0617  13.0897  13.3249  13.4623  13.4833  13.5573
    13.6307  13.6492  13.7207  13.7544  13.8692  13.9451  13.9911  14.0615
    14.2367  14.2741  14.3256  14.4031  14.5266  14.6258  14.6438  14.7109
    14.9346  14.9740  15.0990  15.1587  15.2061  15.2549  15.3239  15.3794
    15.6012  15.6364  15.6984  15.7125  15.7945  15.8128  15.8335  16.0487
    16.1476  16.2101  16.4102  16.5183  16.5305  16.6061  16.6881  16.7297
    16.7703  16.8056  16.8667  16.8790  16.8959  17.0581  17.1348  17.1454
    17.2344  17.3027  17.3417  17.4204  17.4811  17.5270  17.5545  17.5936
    17.6406  17.7772  17.8229  17.8823  17.9367  17.9577  18.0449  18.0717
    18.1311  18.1491  18.2242  18.2574  18.4128  18.4724  18.5839  18.6168
    18.6330  18.7370  18.7561  18.7908  18.8304  19.1240  19.1588  19.2476
    19.3205  19.3572  19.3935  19.4384  19.4964  19.5453  19.6952  19.7083
    19.8684  19.9545  19.9828  20.0408  20.0534  20.0582  20.1421  20.1826
    20.2182  20.2527  20.3529  20.4085  20.4997  20.5334  20.6317  20.6786
    20.6844  20.7395  20.8879  20.9604  20.9827  21.0660  21.1127  21.2583
    21.2934  21.3221  21.3710  21.3786  21.4777  21.5135  21.5672

          k =-0.5000 0.2341 0.0000 ( 27132 PWs)   bands (ev):

   -71.4946 -71.4481 -71.4309 -71.4262 -71.4245 -71.4058 -71.4054 -71.1343
   -43.1117 -43.1091 -42.9951 -42.9726 -42.9699 -42.9664 -42.9185 -42.9074
   -42.8513 -42.8246 -42.8230 -42.7428 -42.7216 -42.7176 -42.7136 -42.6940
   -42.6719 -42.5867 -42.5681 -42.5668 -42.5595 -42.5488 -42.5438 -42.4093
   -25.5880 -20.1700 -20.1080 -19.8316 -19.8264 -19.6446 -19.6248 -19.4257
   -19.2748 -19.2420 -19.2257 -19.1263 -19.0723 -19.0388 -18.8190 -18.8110
   -18.7517 -18.6289 -18.6260 -18.0249  -9.9360  -8.2392  -7.6331  -7.5568
    -7.4991  -6.9580  -6.9097  -6.8503  -6.8391  -6.6687  -6.6394  -6.3107
    -6.2328  -6.2164  -6.1062  -6.0035  -5.9738  -5.8962  -5.8678  -5.4791
    -5.4399  -5.3947  -5.3382  -5.2720  -5.1200  -5.0807  -5.0046  -4.8363
    -4.7942  -4.7563  -4.7106  -4.6086  -4.5880  -4.4612  -4.4513  -4.3524
    -4.3125  -4.1528  -4.1191  -4.0882  -4.0468  -3.9564  -3.9118  -3.7847
    -3.6608  -3.4358  -3.4100  -3.3336  -3.2934  -3.1726  -3.1445  -3.0835
    -3.0135  -2.9536  -2.8957  -2.8536  -2.7449  -2.6344  -2.5859   2.5020
     2.6910   2.8282   2.8345   2.8693   2.9170   2.9614   3.0128   3.0282
     3.0376   3.2343   3.2519   3.2568   3.3168   3.3424   3.3729   3.4310
     3.4532   3.4813   3.4852   3.5201   3.6356   3.6949   3.7905   3.8175
     3.8555   3.9281   3.9850   4.0273   4.0390   4.0931   4.2235   4.2301
     4.2487   4.2700   4.2833   4.3214   4.4259   4.4841   4.8269   4.8628
     4.8873   4.9499   5.0162   5.0329   5.2606   5.2954   5.6576   5.7087
     6.1452   6.2780   6.4169   6.5448   6.8370   6.8892   7.0186   7.1036
     7.1868   7.4358   7.6060   7.7318   7.8275   8.1142   8.3208   8.3884
     8.7039   8.8611   9.0677   9.1735   9.2151   9.2635   9.5722   9.6142
     9.8809   9.9391  10.2134  10.2657  10.3114  10.3944  10.6825  10.7327
    10.7696  10.8020  10.8602  10.9917  11.1360  11.1677  11.4005  11.4225
    11.5575  11.7069  11.8711  12.0054  12.0603  12.0775  12.1898  12.2889
    12.4474  12.5368  12.6314  12.7000  12.8956  12.9579  13.0837  13.1036
    13.1641  13.2016  13.3765  13.3995  13.5042  13.5467  13.6268  13.6801
    13.7401  13.7875  13.8954  13.9191  14.1032  14.1840  14.2257  14.2958
    14.3272  14.4188  14.4786  14.5199  14.6141  14.6677  14.7539  14.8166
    14.8541  14.9360  15.0361  15.0730  15.1240  15.1880  15.2196  15.3372
    15.3662  15.3976  15.6569  15.6837  15.7369  15.7872  15.8184  15.8339
    15.9007  15.9497  15.9995  16.0593  16.1592  16.1826  16.2607  16.3325
    16.3904  16.4104  16.4823  16.5033  16.5699  16.5806  16.6379  16.6917
    16.7540  16.7778  16.8776  16.9355  17.0107  17.1059  17.1827  17.2164
    17.2694  17.3059  17.4074  17.4668  17.4988  17.6137  17.6988  17.7220
    17.9017  17.9272  17.9896  18.0101  18.0568  18.1024  18.1901  18.2225
    18.3394  18.3768  18.4950  18.5383  18.7050  18.7485  18.7569  18.8308
    18.9380  19.0315  19.0485  19.1527  19.3205  19.4329  19.4899  19.5974
    19.6549  19.6817  19.7858  19.8065  19.8787  19.9005  19.9605  20.0499
    20.1083  20.1365  20.1933  20.2151  20.3313  20.3667  20.4520  20.5834
    20.6595  20.6765  20.7745  20.9116  20.9520  21.0437  21.1185  21.3026
    21.3378  21.3754  21.4859  21.5953  21.6493  21.7022  21.7940

          k =-0.5000-0.4682 0.0000 ( 27168 PWs)   bands (ev):

   -71.4945 -71.4480 -71.4307 -71.4263 -71.4246 -71.4058 -71.4054 -71.1343
   -43.1114 -43.1088 -42.9950 -42.9723 -42.9642 -42.9639 -42.9184 -42.9142
   -42.8547 -42.8246 -42.8231 -42.7423 -42.7230 -42.7174 -42.7136 -42.6932
   -42.6712 -42.5867 -42.5682 -42.5657 -42.5602 -42.5488 -42.5437 -42.4096
   -25.5878 -20.0566 -19.9876 -19.7673 -19.7478 -19.6476 -19.6121 -19.5212
   -19.4975 -19.3236 -19.2358 -19.1785 -19.1509 -19.0492 -18.7876 -18.7693
   -18.7345 -18.6336 -18.6220 -18.0192  -9.9245  -8.2563  -7.6052  -7.5270
    -7.4904  -6.8436  -6.8123  -6.4565  -6.3820  -6.2833  -6.2763  -6.2539
    -6.2010  -6.0327  -6.0088  -5.9841  -5.9714  -5.8659  -5.7745  -5.6703
    -5.6481  -5.5218  -5.4571  -5.3686  -5.2616  -5.2392  -5.0588  -5.0234
    -5.0129  -4.9925  -4.9405  -4.7449  -4.7103  -4.6440  -4.6182  -4.5234
    -4.3873  -4.2286  -4.1754  -4.0535  -4.0375  -3.9804  -3.9525  -3.8853
    -3.6169  -3.4855  -3.4388  -3.2516  -3.2298  -3.1482  -3.1080  -3.0962
    -3.0408  -2.9705  -2.8929  -2.8530  -2.7405  -2.5759  -2.5688   2.4652
     2.7114   2.7837   2.8531   2.8787   2.9317   3.0414   3.1035   3.1735
     3.2082   3.3184   3.3936   3.4252   3.4264   3.4385   3.4678   3.5120
     3.5231   3.5576   3.6011   3.6222   3.6987   3.7186   3.7329   3.7805
     3.7955   3.8227   3.8777   3.8901   4.0192   4.0383   4.0590   4.0699
     4.0809   4.1331   4.3510   4.3592   4.5211   4.7840   4.8575   4.8947
     4.9241   4.9814   5.3006   5.3081   5.6037   5.6440   5.7319   5.7482
     5.8793   5.8941   6.1087   6.1436   6.3306   6.3961   6.6021   6.7100
     6.9087   7.1452   7.2879   7.4996   7.6307   8.0198   8.0881   8.3800
     8.4504   8.5631   8.8885   9.0461   9.2709   9.3495   9.6543   9.8219
     9.8411   9.8599  10.0102  10.1177  10.2157  10.4392  10.9635  11.1881
    11.2265  11.3711  11.4574  11.5045  11.6599  11.7296  11.8269  12.0628
    12.2559  12.3914  12.4400  12.5853  12.7012  12.8635  12.8743  13.0119
    13.1696  13.2093  13.2711  13.2802  13.3433  13.3970  13.4224  13.4240
    13.4805  13.4927  13.5213  13.5582  13.7772  13.8519  13.8762  13.8821
    13.9352  14.0242  14.0841  14.1351  14.1661  14.2026  14.2192  14.2393
    14.2465  14.3291  14.3555  14.4509  14.5542  14.5722  14.5952  14.6185
    14.6523  14.7005  14.7391  14.7640  14.7900  14.8727  14.9959  15.0274
    15.0803  15.1456  15.1860  15.2117  15.2393  15.2860  15.3549  15.4028
    15.4213  15.4398  15.5269  15.5616  15.6590  15.6773  15.8243  15.8809
    15.9036  15.9137  15.9401  16.0868  16.1178  16.1420  16.2064  16.2258
    16.3207  16.3535  16.6159  16.6647  16.7551  16.8064  16.9008  16.9287
    16.9609  17.1499  17.2219  17.2964  17.3048  17.3387  17.4516  17.4788
    17.5769  17.6438  17.6998  17.7367  17.7491  17.8573  18.0602  18.1095
    18.1365  18.2034  18.2160  18.2640  18.3217  18.3711  18.4004  18.5847
    18.8589  18.8957  19.0092  19.0783  19.0822  19.1971  19.2026  19.2974
    19.3731  19.4424  19.5979  19.6607  19.7864  19.8755  19.9880  20.0093
    20.1872  20.2822  20.3334  20.4204  20.6515  20.7715  20.8485  20.9336
    20.9698  20.9837  21.2172  21.2940  21.4073  21.4927  21.5641  21.6789
    21.7300  21.8002  21.8715  21.8943  21.9650  22.0008  22.0758

          k =-0.2500 0.2341 0.0000 ( 27132 PWs)   bands (ev):

   -71.4949 -71.4470 -71.4315 -71.4296 -71.4194 -71.4106 -71.3998 -71.1338
   -43.1160 -43.1050 -42.9952 -42.9768 -42.9727 -42.9612 -42.9181 -42.9090
   -42.8509 -42.8354 -42.8124 -42.7671 -42.7528 -42.7427 -42.7201 -42.6962
   -42.6198 -42.6120 -42.6116 -42.5857 -42.5421 -42.5030 -42.4822 -42.4087
   -25.5881 -20.4387 -20.0753 -19.8446 -19.8158 -19.5577 -19.4578 -19.4123
   -19.3792 -19.2378 -19.1680 -19.1213 -19.0418 -19.0281 -18.8449 -18.7652
   -18.7557 -18.6503 -18.6056 -18.0261  -9.9365  -8.2472  -7.7548  -7.5939
    -7.4896  -7.3120  -7.0994  -7.0120  -6.7179  -6.5850  -6.4822  -6.3687
    -6.2896  -6.1225  -6.0583  -6.0133  -5.9772  -5.9383  -5.7668  -5.7015
    -5.4943  -5.4521  -5.3420  -5.2534  -5.0850  -5.0190  -4.9530  -4.8901
    -4.8042  -4.7482  -4.5993  -4.5629  -4.5313  -4.4765  -4.3858  -4.3427
    -4.2708  -4.2313  -4.1731  -4.1022  -3.8421  -3.7353  -3.6613  -3.5592
    -3.5121  -3.4494  -3.4178  -3.3188  -3.2922  -3.2613  -3.2282  -3.1353
    -3.0593  -3.0229  -2.9433  -2.7775  -2.7059  -2.6610  -2.5250   2.4546
     2.6301   2.7605   2.8088   2.8554   2.9036   2.9400   2.9675   3.0164
     3.0609   3.0769   3.1364   3.1627   3.2506   3.2714   3.3391   3.4115
     3.4419   3.4873   3.5203   3.5851   3.6479   3.6835   3.7753   3.8342
     3.8614   3.8896   3.9664   4.0116   4.0920   4.1086   4.1377   4.1574
     4.2105   4.3050   4.3859   4.4748   4.5440   4.5858   4.6204   4.7074
     4.8630   4.9005   4.9990   5.1075   5.2023   5.5101   5.7108   6.1118
     6.2024   6.3353   6.4433   6.5426   6.8113   6.9410   7.1458   7.4386
     7.5896   7.7482   7.9197   8.1446   8.2516   8.3390   8.4470   8.6403
     8.6899   8.9398   9.0768   9.2404   9.3764   9.4957   9.5544   9.7456
     9.8519   9.9410  10.0353  10.0824  10.1403  10.3051  10.4074  10.4745
    10.5750  10.6588  10.7769  10.8946  11.0419  11.1031  11.2328  11.3312
    11.3971  11.4910  11.5993  11.7585  11.8199  11.9215  12.0240  12.0690
    12.1184  12.2545  12.3018  12.3773  12.4496  12.5499  12.6673  12.7112
    12.7920  12.8306  12.9958  13.0281  13.1620  13.2303  13.3153  13.3954
    13.4661  13.5115  13.5390  13.6536  13.7513  13.8622  13.9228  13.9956
    14.0926  14.1690  14.2561  14.2810  14.3769  14.4276  14.5138  14.5935
    14.6786  14.8435  14.9039  14.9262  15.0573  15.1213  15.1625  15.2118
    15.3159  15.4129  15.5104  15.5715  15.6996  15.7750  15.8295  15.8582
    15.9628  16.0266  16.0596  16.1127  16.1617  16.2472  16.2752  16.3794
    16.4436  16.5202  16.5970  16.6803  16.7098  16.7488  16.8748  16.9508
    17.0157  17.1130  17.1986  17.2452  17.2833  17.3381  17.4553  17.4711
    17.5170  17.5278  17.6730  17.7571  17.7948  17.8502  17.9593  18.0135
    18.0646  18.1469  18.1875  18.2952  18.3919  18.4555  18.4875  18.5462
    18.6066  18.7174  18.7885  18.8613  18.9168  18.9935  19.0501  19.1056
    19.1468  19.2547  19.3611  19.3899  19.4597  19.4955  19.5579  19.6485
    19.7301  19.8082  19.8596  19.8970  20.0442  20.1798  20.2102  20.3026
    20.3511  20.3872  20.4990  20.5872  20.6733  20.8330  20.8895  20.9349
    21.0267  21.0900  21.2061  21.2302  21.3249  21.4109  21.4569  21.4902
    21.6247  21.7157  21.7463  21.8803  21.9230  21.9846  22.0416

     the spin up/dw Fermi energies are    -1.4381   -1.7502 ev

!    total energy              =   -2056.42970571 Ry
     Harris-Foulkes estimate   =   -2056.42970572 Ry
     estimated scf accuracy    <          6.5E-09 Ry

     The total energy is the sum of the following terms:

     one-electron contribution =  -24178.14673961 Ry
     hartree contribution      =   12117.81640133 Ry
     xc contribution           =    -330.37894948 Ry
     ewald contribution        =   10332.00870246 Ry
     Hubbard energy            =       2.27084466 Ry
     smearing contrib. (-TS)   =       0.00003494 Ry

     total magnetization       =    15.00 Bohr mag/cell
     absolute magnetization    =    29.90 Bohr mag/cell

     convergence has been achieved in  18 iterations

     Forces acting on atoms (Ry/au):


     negative rho (up, down):  0.537E-02 0.173E-02
     atom    1 type  1   force =    -0.00398351   -0.01091969   -0.00012218
     atom    2 type  1   force =    -0.00005539    0.00381895   -0.00038569
     atom    3 type  2   force =     0.02459248    0.00243920    0.00055986
     atom    4 type  2   force =     0.00425942    0.00542902   -0.00033838
     atom    5 type  1   force =    -0.00048987    0.00644962    0.00036660
     atom    6 type  1   force =     0.00027064   -0.00530933    0.00040056
     atom    7 type  1   force =    -0.00035698   -0.00396864    0.00016754
     atom    8 type  1   force =    -0.00139206    0.00105668   -0.00009881
     atom    9 type  2   force =    -0.00001553    0.00064167    0.00011048
     atom   10 type  2   force =    -0.00039760   -0.00135638   -0.00062218
     atom   11 type  1   force =    -0.02644988   -0.02638489    0.00033007
     atom   12 type  1   force =    -0.02219622    0.03306212    0.00060158
     atom   13 type  1   force =    -0.00003409   -0.00125905    0.00005370
     atom   14 type  1   force =    -0.00494834   -0.01155858    0.00001874
     atom   15 type  1   force =     0.00002574    0.00483457    0.00037388
     atom   16 type  2   force =    -0.02476141    0.00257830    0.00042958
     atom   17 type  2   force =     0.00440596    0.00570939   -0.00033750
     atom   18 type  1   force =     0.00118314    0.00636994    0.00043473
     atom   19 type  1   force =     0.00165909   -0.00535265    0.00044519
     atom   20 type  1   force =     0.00007889   -0.00525135   -0.00073234
     atom   21 type  1   force =    -0.00090237    0.00131142   -0.00059986
     atom   22 type  2   force =     0.00101258   -0.00012126    0.00007903
     atom   23 type  2   force =    -0.00001755   -0.00473306   -0.00056910
     atom   24 type  1   force =     0.02641176   -0.02664748   -0.00066951
     atom   25 type  1   force =     0.02294115    0.03350153   -0.00009191
     atom   26 type  1   force =    -0.00052455   -0.00697009    0.00019637
     atom   27 type  3   force =     0.00002054    0.00046699    0.00013328
     atom   28 type  3   force =     0.00002726    0.00003764    0.00039575
     atom   29 type  3   force =    -0.00010632    0.00012800   -0.00034232
     atom   30 type  3   force =    -0.00014234    0.00011838   -0.00033222
     atom   31 type  1   force =    -0.00014263    0.00082841    0.00053345
     atom   32 type  1   force =     0.00002166    0.00014800   -0.00022708
     atom   33 type  3   force =     0.00000631    0.00090262   -0.00016132

     Total force =     0.002629     Total SCF correction =     0.000130

     bfgs converged in  24 scf cycles and  23 bfgs steps
     (criteria: energy < 0.10E-03, force < 0.10E-02)

     End of BFGS Geometry Optimization

     Final energy   =   -2056.4297057099 Ry
Begin final coordinates

ATOMIC_POSITIONS (crystal)
O0       0.000000000   0.000000000   0.375272031    0   0   1
O0       0.000000000   0.500000000   0.396561809    0   0   1
Cr1      0.250000000   0.500000000   0.448857063    0   0   1
Cr1      0.000000000   0.000000000   0.449094605    0   0   1
O0       0.250000000   0.800000000   0.448599915    0   0   1
O0       0.250000000   0.200000000   0.448647085    0   0   1
O0       0.000000000   0.500000000   0.497143873    0   0   1
O0       0.000000000   0.000000000   0.524419617    0   0   1
Cr1      0.250000000   0.000000000   0.575714583    0   0   1
Cr1      0.000000000   0.500000000   0.567087497    0   0   1
O0       0.250000000   0.700000000   0.575612737    0   0   1
O0       0.250000000   0.300000000   0.576881471    0   0   1
O0       0.000000000   0.000000000   0.623054717    0   0   1
O0       0.500000000   0.000000000   0.375026099    0   0   1
O0       0.500000000   0.500000000   0.396515568    0   0   1
Cr1      0.750000000   0.500000000   0.448860375    0   0   1
Cr1      0.500000000   0.000000000   0.448917152    0   0   1
O0       0.750000000   0.800000000   0.448623684    0   0   1
O0       0.750000000   0.200000000   0.448625700    0   0   1
O0       0.500000000   0.500000000   0.499119482    0   0   1
O0       0.500000000   0.000000000   0.524486123    0   0   1
Cr1      0.750000000   0.000000000   0.575729027    0   0   1
Cr1      0.500000000   0.500000000   0.576081364    0   0   1
O0       0.750000000   0.700000000   0.575839247    0   0   1
O0       0.750000000   0.300000000   0.577031871    0   0   1
O0       0.500000000   0.000000000   0.622793798    0   0   1
H2      -0.000792641   0.636968081   0.377200793
H2       0.499345263   0.638390179   0.377670414
H2       0.159506833   0.026449017   0.363044469
H2       0.659175553   0.027433175   0.362790425
O0       0.499860000   0.548145968   0.653982713    0   1   1
O0       0.500220000   0.362447503   0.683187160    0   1   1
H2       0.499890000   0.422237512   0.718297532    0   1   1
End final coordinates


 
     init_run     :    144.14s CPU    148.28s WALL (       1 calls)
     electrons    : 154331.71s CPU 156402.74s WALL (      24 calls)
     update_pot   :    521.93s CPU    538.67s WALL (      23 calls)
     forces       :   6428.26s CPU   6466.11s WALL (      24 calls)

     Called by init_run:
     wfcinit      :     81.76s CPU     85.44s WALL (       1 calls)
     potinit      :     11.28s CPU     11.49s WALL (       1 calls)

     Called by electrons:
     c_bands      :  95691.35s CPU  96987.62s WALL (     498 calls)
     sum_band     :  37621.31s CPU  37875.82s WALL (     498 calls)
     v_of_rho     :   1719.90s CPU   1790.97s WALL (     515 calls)
     newd         :  19450.71s CPU  19522.54s WALL (     515 calls)
     mix_rho      :    274.43s CPU    275.93s WALL (     498 calls)

     Called by c_bands:
     init_us_2    :    193.37s CPU    193.59s WALL (    5345 calls)
     cegterg      :  93102.23s CPU  94052.92s WALL (    2490 calls)

     Called by *egterg:
     h_psi        :  49271.70s CPU  49423.60s WALL (    6444 calls)
     s_psi        :   6505.40s CPU   6506.79s WALL (    6684 calls)
     g_psi        :    178.69s CPU    178.75s WALL (    3949 calls)
     cdiaghg      :   8676.29s CPU   8679.09s WALL (    6289 calls)

     Called by h_psi:
     add_vuspsi   :   6311.74s CPU   6314.97s WALL (    6444 calls)
     vhpsi        :   5722.34s CPU   5727.54s WALL (    6444 calls)

     General routines
     calbec       :  15357.87s CPU  15371.23s WALL (   53988 calls)
     fft          :   1986.24s CPU   2046.44s WALL (   16237 calls)
     ffts         :     29.06s CPU     29.39s WALL (    2026 calls)
     fftw         :  28953.62s CPU  29179.14s WALL ( 4392848 calls)
     interpolate  :    247.11s CPU    248.70s WALL (    2026 calls)
     davcio       :      0.33s CPU    129.82s WALL (    5465 calls)
 
     Parallel routines
     fft_scatter  :  10815.49s CPU  10859.26s WALL ( 4411111 calls)
     Hubbard U routines
     new_ns       :   1344.23s CPU   1389.25s WALL (     498 calls)
     vhpsi        :   5722.34s CPU   5727.54s WALL (    6444 calls)
     force_hub    :   2207.60s CPU   2222.26s WALL (      24 calls)
 
     PWSCF        :     1d   21h 7m CPU        1d   21h43m WALL

 
   This run was terminated on:   6:32:33  13Aug2014            

=------------------------------------------------------------------------------=
   JOB DONE.
=------------------------------------------------------------------------------=
