
     Program PWSCF v.5.0.2 (svn rev. 9656) starts on  8May2014 at 23:17: 0 

     This program is part of the open-source Quantum ESPRESSO suite
     for quantum simulation of materials; please cite
         "P. Giannozzi et al., J. Phys.:Condens. Matter 21 395502 (2009);
          URL http://www.quantum-espresso.org", 
     in publications or presentations arising from this work. More details at
     http://www.quantum-espresso.org/quote.php

     Parallel version (MPI), running on    16 processors
     K-points division:     npool     =       4
     R & G space division:  proc/nbgrp/npool/nimage =       4

     Current dimensions of program PWSCF are:
     Max number of different atomic species (ntypx) = 10
     Max number of k-points (npk) =  40000
     Max angular momentum in pseudopotentials (lmaxx) =  3
     Reading input from pwscf.in
Warning: card &CELL ignored
Warning: card / ignored

     Subspace diagonalization in iterative solution of the eigenvalue problem:
     a serial algorithm will be used


     Parallelization info
     --------------------
     sticks:   dense  smooth     PW     G-vecs:    dense   smooth      PW
     Min        1424     456    126               337026    61014    9038
     Max        1425     457    127               337029    61047    9044
     Sum        5697    1827    505              1348107   244131   36167



     bravais-lattice index     =            0
     lattice parameter (alat)  =      11.7541  a.u.
     unit-cell volume          =    7139.8207 (a.u.)^3
     number of atoms/cell      =           30
     number of atomic types    =            3
     number of electrons       =       232.00
     number of Kohn-Sham states=          348
     kinetic-energy cutoff     =      40.0000  Ry
     charge density cutoff     =     500.0000  Ry
     convergence threshold     =      1.0E-06
     mixing beta               =       0.7000
     number of iterations used =            8  plain     mixing
     Exchange-correlation      = SLA  PW   PBE  PBE ( 1 4 3 4 0)
     EXX-fraction              =        0.00
     nstep                     =           50


     celldm(1)=  11.754097  celldm(2)=   0.000000  celldm(3)=   0.000000
     celldm(4)=   0.000000  celldm(5)=   0.000000  celldm(6)=   0.000000

     crystal axes: (cart. coord. in units of alat)
               a(1) = (   1.000000   0.000000   0.000000 )  
               a(2) = (   0.000000   1.034513   0.000000 )  
               a(3) = (   0.000000   0.000000   4.249947 )  

     reciprocal axes: (cart. coord. in units 2 pi/alat)
               b(1) = (  1.000000  0.000000  0.000000 )  
               b(2) = (  0.000000  0.966638  0.000000 )  
               b(3) = (  0.000000  0.000000  0.235297 )  


     PseudoPot. # 1 for O  read from file:
     /home/camp/zhonxu/pseudo/o_pbe_v1.01.uspp.F.UPF
     MD5 check sum: 2bcb18d16ea4b960afae9ec6d52f22d2
     Pseudo is Ultrasoft + core correction, Zval =  6.0
     Generated by new atomic code, or converted to UPF format
     Using radial grid of  737 points,  5 beta functions with: 
                l(1) =   0
                l(2) =   0
                l(3) =   1
                l(4) =   1
                l(5) =   2
     Q(r) pseudized with  8 coefficients,  rinner =    0.900   0.900   0.900
                                                       0.900   0.900

     PseudoPot. # 2 for Rh read from file:
     /home/camp/zhonxu/pseudo/rh_pbe_v1.uspp.F.UPF
     MD5 check sum: 37b626987ad0dd8ec6bf4cc9ef289918
     Pseudo is Ultrasoft + core correction, Zval = 15.0
     Generated by new atomic code, or converted to UPF format
     Using radial grid of  969 points,  7 beta functions with: 
                l(1) =   0
                l(2) =   0
                l(3) =   1
                l(4) =   1
                l(5) =   2
                l(6) =   2
                l(7) =   2
     Q(r) pseudized with  6 coefficients,  rinner =    1.050   1.050   1.050
                                                       1.050   1.050

     PseudoPot. # 3 for H  read from file:
     /home/camp/zhonxu/pseudo/h_pbe_v1.uspp.F.UPF
     MD5 check sum: 3408e3ff4ec8b0a4e358431e7e038a48
     Pseudo is Ultrasoft, Zval =  1.0
     Generated by new atomic code, or converted to UPF format
     Using radial grid of  615 points,  2 beta functions with: 
                l(1) =   0
                l(2) =   0
     Q(r) pseudized with  8 coefficients,  rinner =    0.700

     atomic species   valence    mass     pseudopotential
        O0             6.00    15.99940     O ( 1.00)
        Rh1           15.00   102.90550     Rh( 1.00)
        H2             1.00     1.00794     H ( 1.00)


     Simplified LDA+U calculation (l_max = 2) with parameters (eV):
     atomic species    L          U    alpha       J0     beta
        Rh1            2     2.5000   0.0000   0.0000   0.0000



     No symmetry found



   Cartesian axes

     site n.     atom                  positions (alat units)
         1           O0  tau(   1) = (   0.0000000   0.0000000   1.6092425  )
         2           O0  tau(   2) = (   0.0000000   0.5172566   1.7020614  )
         3           Rh1 tau(   3) = (   0.2500000   0.5172566   1.9209336  )
         4           Rh1 tau(   4) = (   0.0000000   0.0000000   1.9260761  )
         5           O0  tau(   5) = (   0.2500000   0.8379556   1.9243336  )
         6           O0  tau(   6) = (   0.2500000   0.1965575   1.9234411  )
         7           O0  tau(   7) = (   0.0000000   0.5172566   2.1185137  )
         8           O0  tau(   8) = (   0.0000000   0.0000000   2.2473721  )
         9           Rh1 tau(   9) = (   0.2500000   0.0000000   2.4498821  )
        10           Rh1 tau(  10) = (   0.0000000   0.5172566   2.4276124  )
        11           O0  tau(  11) = (   0.2500000   0.7138141   2.4560020  )
        12           O0  tau(  12) = (   0.2500000   0.3206991   2.4560870  )
        13           O0  tau(  13) = (   0.0000000   0.0000000   2.6421072  )
        14           O0  tau(  14) = (   0.5000000   0.0000000   1.6092425  )
        15           O0  tau(  15) = (   0.5000000   0.5172566   1.7020614  )
        16           Rh1 tau(  16) = (   0.7500000   0.5172566   1.9209336  )
        17           Rh1 tau(  17) = (   0.5000000   0.0000000   1.9260761  )
        18           O0  tau(  18) = (   0.7500000   0.8379556   1.9243336  )
        19           O0  tau(  19) = (   0.7500000   0.1965575   1.9234411  )
        20           O0  tau(  20) = (   0.5000000   0.5172566   2.1185137  )
        21           O0  tau(  21) = (   0.5000000   0.0000000   2.2473721  )
        22           Rh1 tau(  22) = (   0.7500000   0.0000000   2.4498821  )
        23           Rh1 tau(  23) = (   0.5000000   0.5172566   2.4276124  )
        24           O0  tau(  24) = (   0.7500000   0.7138141   2.4560020  )
        25           O0  tau(  25) = (   0.7500000   0.3206991   2.4560870  )
        26           O0  tau(  26) = (   0.5000000   0.0000000   2.6421072  )
        27           H2  tau(  27) = (  -0.0000700   0.6610229   1.6318947  )
        28           H2  tau(  28) = (   0.4999300   0.6610125   1.6318947  )
        29           H2  tau(  29) = (   0.1484400   0.0336527   1.5632581  )
        30           H2  tau(  30) = (   0.6484400   0.0336527   1.5632581  )

     number of k points=    10  Methfessel-Paxton smearing, width (Ry)=  0.0100
                       cart. coord. in units 2pi/alat
        k(    1) = (   0.0000000   0.0000000   0.0000000), wk =   0.1250000
        k(    2) = (   0.0000000   0.2416596   0.0000000), wk =   0.2500000
        k(    3) = (   0.0000000  -0.4833191   0.0000000), wk =   0.1250000
        k(    4) = (   0.2500000   0.0000000   0.0000000), wk =   0.2500000
        k(    5) = (   0.2500000   0.2416596   0.0000000), wk =   0.2500000
        k(    6) = (   0.2500000  -0.4833191   0.0000000), wk =   0.2500000
        k(    7) = (  -0.5000000   0.0000000   0.0000000), wk =   0.1250000
        k(    8) = (  -0.5000000   0.2416596   0.0000000), wk =   0.2500000
        k(    9) = (  -0.5000000  -0.4833191   0.0000000), wk =   0.1250000
        k(   10) = (  -0.2500000   0.2416596   0.0000000), wk =   0.2500000

     Dense  grid:  1348107 G-vectors     FFT dimensions: (  90,  90, 360)

     Smooth grid:   244131 G-vectors     FFT dimensions: (  48,  50, 216)

     Largest allocated arrays     est. size (Mb)     dimensions
        Kohn-Sham Wavefunctions        40.77 Mb     (   7677,  348)
        Atomic wavefunctions           20.15 Mb     (   7677,  172)
        NL pseudopotentials            49.90 Mb     (   7677,  426)
        Each V/rho on FFT grid         11.12 Mb     ( 729000)
        Each G-vector array             2.57 Mb     ( 337026)
        G-vector shells                 1.12 Mb     ( 146445)
     Largest temporary arrays     est. size (Mb)     dimensions
        Auxiliary wavefunctions       163.06 Mb     (   7677, 1392)
        Each subspace H/S matrix       29.57 Mb     (1392,1392)
        Each <psi_i|beta_j> matrix      2.26 Mb     (    426,  348)
        Arrays for rho mixing          88.99 Mb     ( 729000,   8)

     Check: negative/imaginary core charge=   -0.000002    0.000000

     Initial potential from superposition of free atoms
     Check: negative starting charge=   -0.642992

     starting charge  227.99915, renormalised to  232.00000

     negative rho (up, down):  0.654E+00 0.000E+00
     Number of +U iterations with fixed ns =  0
     Starting occupations:
 --- enter write_ns ---
 LDA+U parameters:
U( 2)     =  2.50000000
alpha( 2) =  0.00000000
atom    3   Tr[ns(na)] =   7.00000
    eigenvalues: 
  0.700  0.700  0.700  0.700  0.700
    eigenvectors:
  1.000  0.000  0.000  0.000  0.000
  0.000  1.000  0.000  0.000  0.000
  0.000  0.000  1.000  0.000  0.000
  0.000  0.000  0.000  1.000  0.000
  0.000  0.000  0.000  0.000  1.000
    occupations:
  0.700  0.000  0.000  0.000  0.000
  0.000  0.700  0.000  0.000  0.000
  0.000  0.000  0.700  0.000  0.000
  0.000  0.000  0.000  0.700  0.000
  0.000  0.000  0.000  0.000  0.700
atom    4   Tr[ns(na)] =   7.00000
    eigenvalues: 
  0.700  0.700  0.700  0.700  0.700
    eigenvectors:
  1.000  0.000  0.000  0.000  0.000
  0.000  1.000  0.000  0.000  0.000
  0.000  0.000  1.000  0.000  0.000
  0.000  0.000  0.000  1.000  0.000
  0.000  0.000  0.000  0.000  1.000
    occupations:
  0.700  0.000  0.000  0.000  0.000
  0.000  0.700  0.000  0.000  0.000
  0.000  0.000  0.700  0.000  0.000
  0.000  0.000  0.000  0.700  0.000
  0.000  0.000  0.000  0.000  0.700
atom    9   Tr[ns(na)] =   7.00000
    eigenvalues: 
  0.700  0.700  0.700  0.700  0.700
    eigenvectors:
  1.000  0.000  0.000  0.000  0.000
  0.000  1.000  0.000  0.000  0.000
  0.000  0.000  1.000  0.000  0.000
  0.000  0.000  0.000  1.000  0.000
  0.000  0.000  0.000  0.000  1.000
    occupations:
  0.700  0.000  0.000  0.000  0.000
  0.000  0.700  0.000  0.000  0.000
  0.000  0.000  0.700  0.000  0.000
  0.000  0.000  0.000  0.700  0.000
  0.000  0.000  0.000  0.000  0.700
atom   10   Tr[ns(na)] =   7.00000
    eigenvalues: 
  0.700  0.700  0.700  0.700  0.700
    eigenvectors:
  1.000  0.000  0.000  0.000  0.000
  0.000  1.000  0.000  0.000  0.000
  0.000  0.000  1.000  0.000  0.000
  0.000  0.000  0.000  1.000  0.000
  0.000  0.000  0.000  0.000  1.000
    occupations:
  0.700  0.000  0.000  0.000  0.000
  0.000  0.700  0.000  0.000  0.000
  0.000  0.000  0.700  0.000  0.000
  0.000  0.000  0.000  0.700  0.000
  0.000  0.000  0.000  0.000  0.700
atom   16   Tr[ns(na)] =   7.00000
    eigenvalues: 
  0.700  0.700  0.700  0.700  0.700
    eigenvectors:
  1.000  0.000  0.000  0.000  0.000
  0.000  1.000  0.000  0.000  0.000
  0.000  0.000  1.000  0.000  0.000
  0.000  0.000  0.000  1.000  0.000
  0.000  0.000  0.000  0.000  1.000
    occupations:
  0.700  0.000  0.000  0.000  0.000
  0.000  0.700  0.000  0.000  0.000
  0.000  0.000  0.700  0.000  0.000
  0.000  0.000  0.000  0.700  0.000
  0.000  0.000  0.000  0.000  0.700
atom   17   Tr[ns(na)] =   7.00000
    eigenvalues: 
  0.700  0.700  0.700  0.700  0.700
    eigenvectors:
  1.000  0.000  0.000  0.000  0.000
  0.000  1.000  0.000  0.000  0.000
  0.000  0.000  1.000  0.000  0.000
  0.000  0.000  0.000  1.000  0.000
  0.000  0.000  0.000  0.000  1.000
    occupations:
  0.700  0.000  0.000  0.000  0.000
  0.000  0.700  0.000  0.000  0.000
  0.000  0.000  0.700  0.000  0.000
  0.000  0.000  0.000  0.700  0.000
  0.000  0.000  0.000  0.000  0.700
atom   22   Tr[ns(na)] =   7.00000
    eigenvalues: 
  0.700  0.700  0.700  0.700  0.700
    eigenvectors:
  1.000  0.000  0.000  0.000  0.000
  0.000  1.000  0.000  0.000  0.000
  0.000  0.000  1.000  0.000  0.000
  0.000  0.000  0.000  1.000  0.000
  0.000  0.000  0.000  0.000  1.000
    occupations:
  0.700  0.000  0.000  0.000  0.000
  0.000  0.700  0.000  0.000  0.000
  0.000  0.000  0.700  0.000  0.000
  0.000  0.000  0.000  0.700  0.000
  0.000  0.000  0.000  0.000  0.700
atom   23   Tr[ns(na)] =   7.00000
    eigenvalues: 
  0.700  0.700  0.700  0.700  0.700
    eigenvectors:
  1.000  0.000  0.000  0.000  0.000
  0.000  1.000  0.000  0.000  0.000
  0.000  0.000  1.000  0.000  0.000
  0.000  0.000  0.000  1.000  0.000
  0.000  0.000  0.000  0.000  1.000
    occupations:
  0.700  0.000  0.000  0.000  0.000
  0.000  0.700  0.000  0.000  0.000
  0.000  0.000  0.700  0.000  0.000
  0.000  0.000  0.000  0.700  0.000
  0.000  0.000  0.000  0.000  0.700
N of occupied +U levels =  56.0000000
 --- exit write_ns ---
 Atomic wfc used for LDA+U Projector are NOT orthogonalized
     Starting wfc are  172 randomized atomic wfcs

     total cpu time spent up to now is      116.8 secs

     per-process dynamical memory:   418.8 Mb

     Self-consistent Calculation

     iteration #  1     ecut=    40.00 Ry     beta=0.70
     Davidson diagonalization with overlap
     ethr =  1.00E-02,  avg # of iterations =  5.8
 --- enter write_ns ---
 LDA+U parameters:
U( 2)     =  2.50000000
alpha( 2) =  0.00000000
atom    3   Tr[ns(na)] =   6.30709
    eigenvalues: 
  0.418  0.451  0.645  0.782  0.858
    eigenvectors:
  0.000  0.232  0.009  0.759  0.000
  1.000  0.000  0.000  0.000  0.000
  0.000  0.000  0.987  0.013  0.000
  0.000  0.768  0.004  0.228  0.000
  0.000  0.000  0.000  0.000  1.000
    occupations:
  0.704  0.000  0.014 -0.139  0.000
  0.000  0.418 -0.000  0.000 -0.005
  0.014 -0.000  0.647 -0.006  0.001
 -0.139  0.000 -0.006  0.527 -0.000
  0.000 -0.005  0.001 -0.000  0.858
atom    4   Tr[ns(na)] =   5.81899
    eigenvalues: 
  0.445  0.458  0.465  0.665  0.877
    eigenvectors:
  0.000  0.024  0.969  0.000  0.007
  0.000  0.010  0.000  0.990  0.000
  0.001  0.965  0.024  0.010  0.000
  0.000  0.000  0.007  0.000  0.993
  0.999  0.001  0.000  0.000  0.000
    occupations:
  0.468 -0.000  0.001  0.033  0.000
 -0.000  0.663  0.020  0.000 -0.001
  0.001  0.020  0.460  0.004  0.000
  0.033  0.000  0.004  0.874 -0.000
  0.000 -0.001  0.000 -0.000  0.445
atom    9   Tr[ns(na)] =   7.61450
    eigenvalues: 
  0.461  0.475  0.939  0.963  0.970
    eigenvectors:
  0.000  0.161  0.000  0.000  0.838
  0.999  0.001  0.000  0.000  0.000
  0.000  0.000  0.000  1.000  0.000
  0.001  0.838  0.000  0.000  0.162
  0.000  0.000  1.000  0.000  0.000
    occupations:
  0.890  0.000 -0.000 -0.182  0.000
  0.000  0.461  0.001  0.000 -0.000
 -0.000  0.001  0.963 -0.000 -0.000
 -0.182  0.000 -0.000  0.555  0.000
  0.000 -0.000 -0.000  0.000  0.939
atom   10   Tr[ns(na)] =   7.82484
    eigenvalues: 
  0.452  0.563  0.964  0.966  0.968
    eigenvectors:
  0.000  0.992  0.008  0.000  0.000
  0.000  0.000  0.000  0.000  1.000
  0.000  0.000  0.001  0.999  0.000
  0.000  0.008  0.991  0.001  0.000
  1.000  0.000  0.000  0.000  0.000
    occupations:
  0.566  0.000  0.002  0.036 -0.000
  0.000  0.968 -0.000 -0.000  0.000
  0.002 -0.000  0.966 -0.000  0.000
  0.036 -0.000 -0.000  0.960 -0.000
 -0.000  0.000  0.000 -0.000  0.452
atom   16   Tr[ns(na)] =   6.30709
    eigenvalues: 
  0.418  0.451  0.645  0.782  0.858
    eigenvectors:
  0.000  0.232  0.009  0.759  0.000
  1.000  0.000  0.000  0.000  0.000
  0.000  0.000  0.987  0.013  0.000
  0.000  0.768  0.004  0.228  0.000
  0.000  0.000  0.000  0.000  1.000
    occupations:
  0.704  0.000  0.014 -0.139  0.000
  0.000  0.418 -0.000  0.000 -0.005
  0.014 -0.000  0.647 -0.006  0.001
 -0.139  0.000 -0.006  0.527 -0.000
  0.000 -0.005  0.001 -0.000  0.857
atom   17   Tr[ns(na)] =   5.81897
    eigenvalues: 
  0.445  0.458  0.465  0.665  0.877
    eigenvectors:
  0.000  0.024  0.969  0.000  0.007
  0.000  0.010  0.000  0.990  0.000
  0.001  0.965  0.024  0.010  0.000
  0.000  0.000  0.007  0.000  0.993
  0.999  0.001  0.000  0.000  0.000
    occupations:
  0.468 -0.000  0.001  0.033  0.000
 -0.000  0.663  0.020  0.000 -0.001
  0.001  0.020  0.460  0.004  0.000
  0.033  0.000  0.004  0.874 -0.000
  0.000 -0.001  0.000 -0.000  0.445
atom   22   Tr[ns(na)] =   7.61451
    eigenvalues: 
  0.461  0.475  0.939  0.963  0.970
    eigenvectors:
  0.000  0.161  0.000  0.000  0.838
  0.999  0.001  0.000  0.000  0.000
  0.000  0.000  0.000  1.000  0.000
  0.001  0.838  0.000  0.000  0.162
  0.000  0.000  1.000  0.000  0.000
    occupations:
  0.890  0.000 -0.000 -0.182  0.000
  0.000  0.461  0.001  0.000 -0.000
 -0.000  0.001  0.963 -0.000 -0.000
 -0.182  0.000 -0.000  0.555  0.000
  0.000 -0.000 -0.000  0.000  0.939
atom   23   Tr[ns(na)] =   7.82484
    eigenvalues: 
  0.452  0.563  0.964  0.966  0.968
    eigenvectors:
  0.000  0.992  0.008  0.000  0.000
  0.000  0.000  0.000  0.000  1.000
  0.000  0.000  0.001  0.999  0.000
  0.000  0.008  0.991  0.001  0.000
  1.000  0.000  0.000  0.000  0.000
    occupations:
  0.566  0.000  0.002  0.036 -0.000
  0.000  0.968 -0.000 -0.000  0.000
  0.002 -0.000  0.966 -0.000  0.000
  0.036 -0.000 -0.000  0.960 -0.000
 -0.000  0.000  0.000 -0.000  0.452
N of occupied +U levels =  55.1308252
 --- exit write_ns ---

     negative rho (up, down):  0.673E+00 0.000E+00

     total cpu time spent up to now is      468.9 secs

     total energy              =   -1930.14436569 Ry
     Harris-Foulkes estimate   =   -1949.98967611 Ry
     estimated scf accuracy    <      23.68063213 Ry

     iteration #  2     ecut=    40.00 Ry     beta=0.70
     Davidson diagonalization with overlap
     ethr =  1.00E-02,  avg # of iterations =  5.0

     negative rho (up, down):  0.581E+00 0.000E+00

     total cpu time spent up to now is      796.7 secs

     total energy              =   -1822.62238478 Ry
     Harris-Foulkes estimate   =   -2074.77912205 Ry
     estimated scf accuracy    <    3004.25179492 Ry

     iteration #  3     ecut=    40.00 Ry     beta=0.70
     Davidson diagonalization with overlap
     ethr =  1.00E-02,  avg # of iterations =  4.9

     negative rho (up, down):  0.553E+00 0.000E+00

     total cpu time spent up to now is     1149.7 secs

     total energy              =   -1931.46097086 Ry
     Harris-Foulkes estimate   =   -1968.61994774 Ry
     estimated scf accuracy    <     245.16655524 Ry

     iteration #  4     ecut=    40.00 Ry     beta=0.70
     Davidson diagonalization with overlap
     ethr =  1.00E-02,  avg # of iterations =  3.0

     negative rho (up, down):  0.563E+00 0.000E+00

     total cpu time spent up to now is     1361.1 secs

     total energy              =   -1944.52333149 Ry
     Harris-Foulkes estimate   =   -1950.08349101 Ry
     estimated scf accuracy    <      25.61537004 Ry

     iteration #  5     ecut=    40.00 Ry     beta=0.70
     Davidson diagonalization with overlap
     ethr =  1.00E-02,  avg # of iterations =  1.3

     negative rho (up, down):  0.588E+00 0.000E+00

     total cpu time spent up to now is     1546.8 secs

     total energy              =   -1946.89787150 Ry
     Harris-Foulkes estimate   =   -1947.92975327 Ry
     estimated scf accuracy    <      15.42890208 Ry

     iteration #  6     ecut=    40.00 Ry     beta=0.70
     Davidson diagonalization with overlap
     ethr =  6.65E-03,  avg # of iterations =  1.0

     negative rho (up, down):  0.602E+00 0.000E+00

     total cpu time spent up to now is     1728.9 secs

     total energy              =   -1947.16904294 Ry
     Harris-Foulkes estimate   =   -1947.52089922 Ry
     estimated scf accuracy    <       2.61328589 Ry

     iteration #  7     ecut=    40.00 Ry     beta=0.70
     Davidson diagonalization with overlap
     ethr =  1.13E-03,  avg # of iterations =  4.5

     negative rho (up, down):  0.613E+00 0.000E+00

     total cpu time spent up to now is     1931.0 secs

     total energy              =   -1947.23553307 Ry
     Harris-Foulkes estimate   =   -1947.31529117 Ry
     estimated scf accuracy    <       0.84033826 Ry

     iteration #  8     ecut=    40.00 Ry     beta=0.70
     Davidson diagonalization with overlap
     ethr =  3.62E-04,  avg # of iterations =  2.7

     negative rho (up, down):  0.631E+00 0.000E+00

     total cpu time spent up to now is     2119.6 secs

     total energy              =   -1947.18892683 Ry
     Harris-Foulkes estimate   =   -1947.36763977 Ry
     estimated scf accuracy    <       2.69883614 Ry

     iteration #  9     ecut=    40.00 Ry     beta=0.70
     Davidson diagonalization with overlap
     ethr =  3.62E-04,  avg # of iterations =  1.6

     negative rho (up, down):  0.642E+00 0.000E+00

     total cpu time spent up to now is     2305.0 secs

     total energy              =   -1947.18234877 Ry
     Harris-Foulkes estimate   =   -1947.28847988 Ry
     estimated scf accuracy    <       0.54590197 Ry

     iteration # 10     ecut=    40.00 Ry     beta=0.70
     Davidson diagonalization with overlap
     ethr =  2.35E-04,  avg # of iterations =  2.5

     negative rho (up, down):  0.669E+00 0.000E+00

     total cpu time spent up to now is     2485.7 secs

     total energy              =   -1947.19999970 Ry
     Harris-Foulkes estimate   =   -1947.32180530 Ry
     estimated scf accuracy    <       1.30812754 Ry

     iteration # 11     ecut=    40.00 Ry     beta=0.70
     Davidson diagonalization with overlap
     ethr =  2.35E-04,  avg # of iterations =  4.9

     negative rho (up, down):  0.681E+00 0.000E+00

     total cpu time spent up to now is     2687.4 secs

     total energy              =   -1947.20853978 Ry
     Harris-Foulkes estimate   =   -1947.27496253 Ry
     estimated scf accuracy    <       0.46695277 Ry

     iteration # 12     ecut=    40.00 Ry     beta=0.70
     Davidson diagonalization with overlap
     ethr =  2.01E-04,  avg # of iterations =  2.2

     negative rho (up, down):  0.681E+00 0.000E+00

     total cpu time spent up to now is     2887.3 secs

     total energy              =   -1947.22234058 Ry
     Harris-Foulkes estimate   =   -1947.26114338 Ry
     estimated scf accuracy    <       0.66056825 Ry

     iteration # 13     ecut=    40.00 Ry     beta=0.70
     Davidson diagonalization with overlap
     ethr =  2.01E-04,  avg # of iterations =  1.0

     negative rho (up, down):  0.683E+00 0.000E+00

     total cpu time spent up to now is     3069.9 secs

     total energy              =   -1947.21960889 Ry
     Harris-Foulkes estimate   =   -1947.24454423 Ry
     estimated scf accuracy    <       0.14005395 Ry

     iteration # 14     ecut=    40.00 Ry     beta=0.70
     Davidson diagonalization with overlap
     ethr =  6.04E-05,  avg # of iterations =  3.3

     negative rho (up, down):  0.688E+00 0.000E+00

     total cpu time spent up to now is     3271.7 secs

     total energy              =   -1947.16614155 Ry
     Harris-Foulkes estimate   =   -1947.28508338 Ry
     estimated scf accuracy    <       1.06970215 Ry

     iteration # 15     ecut=    40.00 Ry     beta=0.70
     Davidson diagonalization with overlap
     ethr =  6.04E-05,  avg # of iterations =  5.6

     negative rho (up, down):  0.685E+00 0.000E+00

     total cpu time spent up to now is     3479.7 secs

     total energy              =   -1947.21040023 Ry
     Harris-Foulkes estimate   =   -1947.26414596 Ry
     estimated scf accuracy    <       0.47302381 Ry

     iteration # 16     ecut=    40.00 Ry     beta=0.70
     Davidson diagonalization with overlap
     ethr =  6.04E-05,  avg # of iterations =  1.2

     negative rho (up, down):  0.686E+00 0.000E+00

     total cpu time spent up to now is     3661.1 secs

     total energy              =   -1947.23028384 Ry
     Harris-Foulkes estimate   =   -1947.24424765 Ry
     estimated scf accuracy    <       0.10678757 Ry

     iteration # 17     ecut=    40.00 Ry     beta=0.70
     Davidson diagonalization with overlap
     ethr =  4.60E-05,  avg # of iterations =  1.0

     negative rho (up, down):  0.686E+00 0.000E+00

     total cpu time spent up to now is     3844.7 secs

     total energy              =   -1947.23487827 Ry
     Harris-Foulkes estimate   =   -1947.23936586 Ry
     estimated scf accuracy    <       0.02940316 Ry

     iteration # 18     ecut=    40.00 Ry     beta=0.70
     Davidson diagonalization with overlap
     ethr =  1.27E-05,  avg # of iterations =  1.9

     negative rho (up, down):  0.686E+00 0.000E+00

     total cpu time spent up to now is     4030.7 secs

     total energy              =   -1947.23504836 Ry
     Harris-Foulkes estimate   =   -1947.23933571 Ry
     estimated scf accuracy    <       0.03714872 Ry

     iteration # 19     ecut=    40.00 Ry     beta=0.70
     Davidson diagonalization with overlap
     ethr =  1.27E-05,  avg # of iterations =  1.6

     negative rho (up, down):  0.686E+00 0.000E+00

     total cpu time spent up to now is     4214.6 secs

     total energy              =   -1947.23680947 Ry
     Harris-Foulkes estimate   =   -1947.23760942 Ry
     estimated scf accuracy    <       0.00592802 Ry

     iteration # 20     ecut=    40.00 Ry     beta=0.70
     Davidson diagonalization with overlap
     ethr =  2.56E-06,  avg # of iterations =  6.6

     negative rho (up, down):  0.687E+00 0.000E+00

     total cpu time spent up to now is     4417.9 secs

     total energy              =   -1947.23639461 Ry
     Harris-Foulkes estimate   =   -1947.23826187 Ry
     estimated scf accuracy    <       0.01492734 Ry

     iteration # 21     ecut=    40.00 Ry     beta=0.70
     Davidson diagonalization with overlap
     ethr =  2.56E-06,  avg # of iterations =  1.0

     negative rho (up, down):  0.687E+00 0.000E+00

     total cpu time spent up to now is     4597.4 secs

     total energy              =   -1947.23716007 Ry
     Harris-Foulkes estimate   =   -1947.23738918 Ry
     estimated scf accuracy    <       0.00166252 Ry

     iteration # 22     ecut=    40.00 Ry     beta=0.70
     Davidson diagonalization with overlap
     ethr =  7.17E-07,  avg # of iterations =  1.0

     negative rho (up, down):  0.687E+00 0.000E+00

     total cpu time spent up to now is     4774.7 secs

     total energy              =   -1947.23698513 Ry
     Harris-Foulkes estimate   =   -1947.23758209 Ry
     estimated scf accuracy    <       0.00736005 Ry

     iteration # 23     ecut=    40.00 Ry     beta=0.70
     Davidson diagonalization with overlap
     ethr =  7.17E-07,  avg # of iterations =  1.0

     negative rho (up, down):  0.687E+00 0.000E+00

     total cpu time spent up to now is     4951.3 secs

     total energy              =   -1947.23710431 Ry
     Harris-Foulkes estimate   =   -1947.23731982 Ry
     estimated scf accuracy    <       0.00043015 Ry

     iteration # 24     ecut=    40.00 Ry     beta=0.70
     Davidson diagonalization with overlap
     ethr =  1.85E-07,  avg # of iterations =  5.6

     negative rho (up, down):  0.687E+00 0.000E+00

     total cpu time spent up to now is     5173.8 secs

     total energy              =   -1947.23631359 Ry
     Harris-Foulkes estimate   =   -1947.23828091 Ry
     estimated scf accuracy    <       0.01962166 Ry

     iteration # 25     ecut=    40.00 Ry     beta=0.70
     Davidson diagonalization with overlap
     ethr =  1.85E-07,  avg # of iterations =  2.0

     negative rho (up, down):  0.687E+00 0.000E+00

     total cpu time spent up to now is     5355.5 secs

     total energy              =   -1947.23719782 Ry
     Harris-Foulkes estimate   =   -1947.23736660 Ry
     estimated scf accuracy    <       0.00123411 Ry

     iteration # 26     ecut=    40.00 Ry     beta=0.70
     Davidson diagonalization with overlap
     ethr =  1.85E-07,  avg # of iterations =  1.0

     negative rho (up, down):  0.687E+00 0.000E+00

     total cpu time spent up to now is     5534.5 secs

     total energy              =   -1947.23724499 Ry
     Harris-Foulkes estimate   =   -1947.23732910 Ry
     estimated scf accuracy    <       0.00064200 Ry

     iteration # 27     ecut=    40.00 Ry     beta=0.70
     Davidson diagonalization with overlap
     ethr =  1.85E-07,  avg # of iterations =  1.0

     negative rho (up, down):  0.687E+00 0.000E+00

     total cpu time spent up to now is     5714.6 secs

     total energy              =   -1947.23727853 Ry
     Harris-Foulkes estimate   =   -1947.23729446 Ry
     estimated scf accuracy    <       0.00011760 Ry

     iteration # 28     ecut=    40.00 Ry     beta=0.70
     Davidson diagonalization with overlap
     ethr =  5.07E-08,  avg # of iterations =  1.0

     negative rho (up, down):  0.687E+00 0.000E+00

     total cpu time spent up to now is     5895.5 secs

     total energy              =   -1947.23728533 Ry
     Harris-Foulkes estimate   =   -1947.23728879 Ry
     estimated scf accuracy    <       0.00001635 Ry

     iteration # 29     ecut=    40.00 Ry     beta=0.70
     Davidson diagonalization with overlap
     ethr =  7.05E-09,  avg # of iterations =  1.0

     negative rho (up, down):  0.687E+00 0.000E+00

     total cpu time spent up to now is     6077.7 secs

     total energy              =   -1947.23728597 Ry
     Harris-Foulkes estimate   =   -1947.23728815 Ry
     estimated scf accuracy    <       0.00001931 Ry

     iteration # 30     ecut=    40.00 Ry     beta=0.70
     Davidson diagonalization with overlap
     ethr =  7.05E-09,  avg # of iterations =  1.0

     negative rho (up, down):  0.687E+00 0.000E+00

     total cpu time spent up to now is     6261.5 secs

     total energy              =   -1947.23728588 Ry
     Harris-Foulkes estimate   =   -1947.23728868 Ry
     estimated scf accuracy    <       0.00002258 Ry

     iteration # 31     ecut=    40.00 Ry     beta=0.70
     Davidson diagonalization with overlap
     ethr =  7.05E-09,  avg # of iterations =  1.0

     negative rho (up, down):  0.687E+00 0.000E+00

     total cpu time spent up to now is     6438.5 secs

     total energy              =   -1947.23728690 Ry
     Harris-Foulkes estimate   =   -1947.23728780 Ry
     estimated scf accuracy    <       0.00000704 Ry

     iteration # 32     ecut=    40.00 Ry     beta=0.70
     Davidson diagonalization with overlap
     ethr =  3.04E-09,  avg # of iterations =  1.0

     negative rho (up, down):  0.687E+00 0.000E+00

     total cpu time spent up to now is     6618.0 secs

     total energy              =   -1947.23728709 Ry
     Harris-Foulkes estimate   =   -1947.23728764 Ry
     estimated scf accuracy    <       0.00000352 Ry

     iteration # 33     ecut=    40.00 Ry     beta=0.70
     Davidson diagonalization with overlap
     ethr =  1.52E-09,  avg # of iterations =  1.0

     negative rho (up, down):  0.687E+00 0.000E+00

     total cpu time spent up to now is     6797.9 secs

     total energy              =   -1947.23728725 Ry
     Harris-Foulkes estimate   =   -1947.23728747 Ry
     estimated scf accuracy    <       0.00000243 Ry

     iteration # 34     ecut=    40.00 Ry     beta=0.70
     Davidson diagonalization with overlap
     ethr =  1.05E-09,  avg # of iterations =  1.0

     negative rho (up, down):  0.687E+00 0.000E+00

     total cpu time spent up to now is     6981.8 secs

     total energy              =   -1947.23728713 Ry
     Harris-Foulkes estimate   =   -1947.23728759 Ry
     estimated scf accuracy    <       0.00000329 Ry

     iteration # 35     ecut=    40.00 Ry     beta=0.70
     Davidson diagonalization with overlap
     ethr =  1.05E-09,  avg # of iterations =  1.0

     negative rho (up, down):  0.687E+00 0.000E+00

     total cpu time spent up to now is     7163.1 secs

     total energy              =   -1947.23728724 Ry
     Harris-Foulkes estimate   =   -1947.23728751 Ry
     estimated scf accuracy    <       0.00000312 Ry

     iteration # 36     ecut=    40.00 Ry     beta=0.70
     Davidson diagonalization with overlap
     ethr =  1.05E-09,  avg # of iterations =  1.0

     negative rho (up, down):  0.687E+00 0.000E+00

     total cpu time spent up to now is     7345.0 secs

     total energy              =   -1947.23728731 Ry
     Harris-Foulkes estimate   =   -1947.23728746 Ry
     estimated scf accuracy    <       0.00000113 Ry

     iteration # 37     ecut=    40.00 Ry     beta=0.70
     Davidson diagonalization with overlap
     ethr =  4.87E-10,  avg # of iterations =  1.0

     negative rho (up, down):  0.687E+00 0.000E+00

     total cpu time spent up to now is     7528.9 secs

     End of self-consistent calculation
 --- enter write_ns ---
 LDA+U parameters:
U( 2)     =  2.50000000
alpha( 2) =  0.00000000
atom    3   Tr[ns(na)] =   8.02465
    eigenvalues: 
  0.586  0.603  0.899  0.957  0.967
    eigenvectors:
  0.000  0.209  0.003  0.000  0.788
  1.000  0.000  0.000  0.000  0.000
  0.000  0.000  0.997  0.000  0.003
  0.000  0.791  0.000  0.000  0.209
  0.000  0.000  0.000  0.999  0.000
    occupations:
  0.891 -0.000  0.001 -0.148 -0.000
 -0.000  0.586 -0.000 -0.000 -0.007
  0.001 -0.000  0.900 -0.005  0.001
 -0.148 -0.000 -0.005  0.679 -0.000
 -0.000 -0.007  0.001 -0.000  0.957
atom    4   Tr[ns(na)] =   8.00969
    eigenvalues: 
  0.602  0.650  0.864  0.914  0.975
    eigenvectors:
  0.001  0.992  0.000  0.000  0.007
  0.000  0.000  0.050  0.950  0.000
  0.000  0.000  0.950  0.050  0.000
  0.000  0.007  0.000  0.000  0.993
  0.999  0.001  0.000  0.000  0.000
    occupations:
  0.652 -0.004 -0.001  0.028  0.001
 -0.004  0.912  0.011  0.001 -0.001
 -0.001  0.011  0.866 -0.001  0.001
  0.028  0.001 -0.001  0.973  0.000
  0.001 -0.001  0.001  0.000  0.602
atom    9   Tr[ns(na)] =   8.00634
    eigenvalues: 
  0.635  0.649  0.858  0.884  0.978
    eigenvectors:
  0.000  0.155  0.000  0.000  0.845
  0.999  0.001  0.000  0.000  0.000
  0.000  0.000  1.000  0.000  0.000
  0.001  0.844  0.000  0.000  0.155
  0.000  0.000  0.000  1.000  0.000
    occupations:
  0.927  0.000 -0.000 -0.119 -0.001
  0.000  0.635  0.000  0.000 -0.000
 -0.000  0.000  0.858 -0.000 -0.000
 -0.119  0.000 -0.000  0.700  0.001
 -0.001 -0.000 -0.000  0.001  0.884
atom   10   Tr[ns(na)] =   8.00809
    eigenvalues: 
  0.595  0.600  0.916  0.920  0.973
    eigenvectors:
  0.000  0.995  0.000  0.000  0.005
  0.000  0.000  0.002  0.998  0.000
  0.000  0.000  0.998  0.002  0.000
  0.000  0.005  0.000  0.000  0.995
  1.000  0.000  0.000  0.000  0.000
    occupations:
  0.602  0.000  0.002  0.026 -0.000
  0.000  0.920 -0.000  0.000 -0.001
  0.002 -0.000  0.916  0.000  0.000
  0.026  0.000  0.000  0.971  0.000
 -0.000 -0.001  0.000  0.000  0.595
atom   16   Tr[ns(na)] =   8.02476
    eigenvalues: 
  0.586  0.603  0.899  0.957  0.967
    eigenvectors:
  0.000  0.209  0.003  0.000  0.788
  1.000  0.000  0.000  0.000  0.000
  0.000  0.000  0.997  0.000  0.003
  0.000  0.791  0.000  0.000  0.209
  0.000  0.000  0.000  0.999  0.000
    occupations:
  0.891 -0.000  0.001 -0.148 -0.000
 -0.000  0.586 -0.000 -0.000 -0.007
  0.001 -0.000  0.900 -0.005  0.001
 -0.148 -0.000 -0.005  0.679 -0.000
 -0.000 -0.007  0.001 -0.000  0.957
atom   17   Tr[ns(na)] =   8.00971
    eigenvalues: 
  0.602  0.650  0.864  0.914  0.975
    eigenvectors:
  0.001  0.992  0.000  0.000  0.007
  0.000  0.000  0.050  0.950  0.000
  0.000  0.000  0.950  0.050  0.000
  0.000  0.007  0.000  0.000  0.993
  0.999  0.001  0.000  0.000  0.000
    occupations:
  0.652 -0.004 -0.001  0.028  0.001
 -0.004  0.912  0.011  0.001 -0.001
 -0.001  0.011  0.866 -0.001  0.001
  0.028  0.001 -0.001  0.973  0.000
  0.001 -0.001  0.001  0.000  0.602
atom   22   Tr[ns(na)] =   8.00639
    eigenvalues: 
  0.635  0.649  0.858  0.884  0.978
    eigenvectors:
  0.000  0.155  0.000  0.000  0.845
  0.999  0.001  0.000  0.000  0.000
  0.000  0.000  1.000  0.000  0.000
  0.001  0.844  0.000  0.000  0.155
  0.000  0.000  0.000  1.000  0.000
    occupations:
  0.927  0.000 -0.000 -0.119 -0.001
  0.000  0.635  0.000  0.000 -0.000
 -0.000  0.000  0.858 -0.000 -0.000
 -0.119  0.000 -0.000  0.700  0.001
 -0.001 -0.000 -0.000  0.001  0.884
atom   23   Tr[ns(na)] =   8.00820
    eigenvalues: 
  0.595  0.600  0.916  0.920  0.973
    eigenvectors:
  0.000  0.995  0.000  0.000  0.005
  0.000  0.000  0.002  0.998  0.000
  0.000  0.000  0.998  0.002  0.000
  0.000  0.005  0.000  0.000  0.995
  1.000  0.000  0.000  0.000  0.000
    occupations:
  0.602  0.000  0.002  0.026 -0.000
  0.000  0.920 -0.000  0.000 -0.001
  0.002 -0.000  0.916  0.000  0.000
  0.026  0.000  0.000  0.971  0.000
 -0.000 -0.001  0.000  0.000  0.595
N of occupied +U levels =  64.0978347
 --- exit write_ns ---

          k = 0.0000 0.0000 0.0000 ( 30479 PWs)   bands (ev):

   -49.1212 -49.0611 -49.0503 -49.0408 -49.0321 -49.0098 -48.9390 -48.9328
   -48.9214 -48.8971 -48.8720 -48.8639 -48.8243 -48.7797 -48.7611 -48.7579
   -48.7516 -48.6876 -48.6718 -48.6519 -48.6124 -48.6094 -48.5943 -48.5919
   -21.5420 -21.1015 -21.0892 -21.0024 -20.4695 -20.4473 -20.3141 -20.2768
   -20.2551 -20.2334 -20.1360 -20.0748 -20.0547 -19.7511 -19.7232 -19.6511
   -18.9780 -18.8388 -10.1992 -10.1135  -9.8648  -9.1743  -9.0675  -8.9249
    -8.7780  -8.7282  -8.6327  -8.5468  -8.4840  -8.4726  -8.3259  -8.2222
    -8.1950  -8.0851  -8.0501  -7.8900  -7.8603  -7.6630  -7.4426  -7.2765
    -7.0350  -6.8206  -6.8140  -6.5898  -6.5352  -6.3043  -6.2355  -6.1520
    -6.0461  -5.7684  -5.7027  -5.7008  -5.5317  -5.4614  -5.4457  -5.3088
    -5.2983  -5.2225  -5.1760  -4.8053  -4.7794  -4.7128  -4.6923  -4.6255
    -4.5911  -4.5514  -4.5314  -4.4104  -4.3760  -4.3602  -4.3194  -4.2222
    -4.0825  -3.9295  -3.8299  -3.8128  -3.8029  -3.7338  -3.6979  -3.4567
    -3.4275  -3.2321  -3.1974  -3.0264  -2.8024  -2.6848  -2.6319  -2.4562
    -2.4174  -2.1564  -1.8901  -1.8688  -1.8191  -1.5586  -1.3817  -1.2837
    -1.1639  -1.1308   0.0545   0.1848   0.3893   0.5263   0.5272   0.5814
     0.8789   0.9257   1.2588   1.7937   1.9198   1.9510   2.1057   2.2398
     3.0059   3.5106   4.0154   4.4471   4.7804   5.5927   5.7980   6.0129
     6.2001   6.7249   6.7769   6.8198   7.0610   7.2020   7.2467   7.4427
     7.6076   7.6618   7.7331   7.8221   7.9325   7.9586   8.0487   8.0738
     8.1169   8.1644   8.2825   8.3739   8.4413   8.5258   8.5838   8.6903
     8.7822   8.8605   8.9859   9.1251   9.1337   9.3029   9.4232   9.5184
     9.6311   9.6351   9.8555   9.9967  10.0408  10.3082  10.4837  10.5059
    10.6315  10.6846  10.7006  10.8188  10.9509  11.0525  11.0540  11.0745
    11.0855  11.1305  11.2123  11.2912  11.5168  11.5404  11.5632  11.5740
    11.7425  11.7674  11.8073  11.8415  11.8856  11.8998  11.9742  12.0745
    12.1131  12.1216  12.2411  12.2805  12.3119  12.3945  12.4529  12.4815
    12.6235  12.6393  12.7101  12.8102  12.8654  12.9483  13.0020  13.1357
    13.3547  13.4277  13.4441  13.5477  13.6127  13.7356  13.7691  13.8824
    14.0453  14.0637  14.2233  14.2276  14.3213  14.3793  14.5407  14.7712
    14.7797  14.9226  14.9502  15.0504  15.1871  15.2043  15.3125  15.4055
    15.5163  15.6058  15.6332  15.6919  15.7569  15.8843  15.9230  16.1101
    16.1807  16.2508  16.4436  16.5707  16.6008  16.6368  16.9453  16.9597
    16.9709  17.0589  17.0836  17.0946  17.2297  17.3404  17.5406  17.6173
    17.6446  17.7193  17.9368  17.9452  18.0430  18.1206  18.1773  18.1871
    18.2598  18.3753  18.4019  18.4055  18.4315  18.5904  18.5940  18.6351
    18.7249  18.7254  18.7566  18.8592  18.9765  19.0144  19.0985  19.2300
    19.2309  19.3339  19.4308  19.4964  19.5267  19.5868  19.6129  19.6478
    19.7065  19.7342  19.7757  19.8613  19.8842  19.9306  19.9932  20.0840
    20.1367  20.2651  20.2662  20.3822  20.4369  20.4879  20.4900  20.5452
    20.5467  20.7181  20.8186  21.0277  21.0498  21.0637  21.1174  21.2140
    21.2713  21.4419  21.4586  21.4788  21.5579  21.6221  21.6482  21.7292
    21.7685  21.9766  21.9768  22.0626  22.1161  22.1684  22.1708  22.2243
    22.2748  22.3182  22.3916  22.4010

          k = 0.0000 0.2417 0.0000 ( 30538 PWs)   bands (ev):

   -49.1215 -49.0612 -49.0504 -49.0404 -49.0332 -49.0097 -48.9391 -48.9318
   -48.9215 -48.8964 -48.8721 -48.8640 -48.8242 -48.7798 -48.7609 -48.7591
   -48.7516 -48.6877 -48.6719 -48.6519 -48.6125 -48.6099 -48.5944 -48.5918
   -21.4891 -21.1000 -21.0216 -20.9372 -20.4660 -20.4563 -20.4434 -20.3667
   -20.3052 -20.1087 -20.0960 -20.0428 -20.0316 -19.8297 -19.7598 -19.7513
   -18.9771 -18.8355  -9.9324  -9.7639  -9.7283  -9.3875  -9.1192  -8.9282
    -8.8766  -8.7858  -8.6499  -8.4716  -8.4532  -8.4011  -8.2874  -8.2008
    -8.1884  -8.0886  -7.9661  -7.8556  -7.7650  -7.3236  -7.3000  -7.1216
    -6.9648  -6.8713  -6.7810  -6.7725  -6.5249  -6.4702  -6.4009  -6.3071
    -6.0521  -6.0067  -5.8714  -5.7878  -5.7589  -5.7173  -5.6116  -5.5767
    -5.3850  -5.2848  -5.2211  -5.1878  -5.0335  -4.8579  -4.7929  -4.6731
    -4.6632  -4.5073  -4.3059  -4.2703  -4.1601  -4.0892  -4.0482  -3.9461
    -3.9260  -3.8161  -3.8137  -3.7079  -3.6901  -3.5803  -3.5322  -3.5317
    -3.3564  -3.3558  -3.2973  -3.2014  -3.1747  -3.0227  -2.6582  -2.4216
    -2.4110  -1.9346  -1.9222  -1.8060  -1.6700  -1.5193  -1.3882  -1.3611
    -1.2558  -0.8191  -0.5755  -0.3736   0.2167   0.4357   0.5422   1.0063
     1.2577   1.6099   1.7506   1.7705   1.8135   1.8429   1.9861   2.2416
     3.2968   3.7071   4.2472   4.6525   5.0030   5.2182   5.7319   5.9159
     6.0629   6.1440   6.3599   6.5379   6.8358   6.9335   6.9526   7.1423
     7.3698   7.5143   7.5217   7.7065   7.7471   8.0291   8.1335   8.1580
     8.3101   8.4411   8.5252   8.5842   8.6829   8.8426   8.8734   8.9225
     9.1090   9.1696   9.2405   9.3761   9.4245   9.5408   9.5490   9.6307
     9.6541   9.7882   9.8999   9.9359  10.0002  10.0543  10.0634  10.2209
    10.3171  10.3455  10.3758  10.6480  10.6660  10.7364  10.7527  10.8885
    10.9397  11.0416  11.1122  11.1357  11.2475  11.2848  11.4271  11.5109
    11.7575  11.8735  12.0578  12.0898  12.1024  12.1507  12.2699  12.2813
    12.3025  12.4589  12.4775  12.5781  12.5969  12.7384  12.8205  12.9412
    12.9665  13.0106  13.1019  13.2038  13.3533  13.4910  13.5140  13.5246
    13.6899  13.7270  13.7805  13.8331  13.9114  13.9197  14.0041  14.0627
    14.0981  14.1243  14.2925  14.3999  14.4037  14.4745  14.6591  14.6973
    14.7289  14.8650  14.9459  15.1506  15.1811  15.1975  15.2490  15.2962
    15.3948  15.5376  15.6642  15.6810  15.7151  15.8205  15.8280  15.9703
    15.9982  16.1478  16.2163  16.3426  16.3582  16.4600  16.4979  16.6136
    16.7456  16.7899  16.8839  16.9381  17.0124  17.0836  17.1230  17.1504
    17.2475  17.3048  17.4682  17.5198  17.5407  17.7472  17.9523  17.9979
    18.0357  18.1333  18.2449  18.3748  18.3917  18.3990  18.4494  18.4668
    18.5525  18.7228  18.7406  18.7834  18.8452  18.8823  18.9856  18.9856
    19.1067  19.2043  19.2294  19.3073  19.4386  19.4788  19.5311  19.5818
    19.6698  19.6958  19.7370  19.7457  19.8042  19.8133  19.8356  19.8686
    19.9181  20.0067  20.0432  20.0575  20.1469  20.2417  20.3149  20.4056
    20.4124  20.4286  20.5492  20.7161  20.7569  20.8681  20.8731  20.8850
    20.9896  21.0201  21.1080  21.1183  21.1478  21.1769  21.2426  21.3214
    21.3428  21.4486  21.5787  21.6088  21.6288  21.6618  21.7178  21.7186
    21.8827  21.8879  21.9602  22.0107

          k = 0.0000-0.4833 0.0000 ( 30492 PWs)   bands (ev):

   -49.1217 -49.0611 -49.0504 -49.0399 -49.0339 -49.0094 -48.9390 -48.9307
   -48.9215 -48.8955 -48.8720 -48.8640 -48.8240 -48.7798 -48.7606 -48.7602
   -48.7513 -48.6878 -48.6718 -48.6519 -48.6126 -48.6102 -48.5943 -48.5916
   -21.4343 -21.0985 -20.9690 -20.8007 -20.5114 -20.4623 -20.4320 -20.4267
   -20.4221 -20.1158 -20.0844 -20.0009 -19.9704 -19.9570 -19.8493 -19.7509
   -18.9762 -18.8331  -9.8760  -9.5563  -9.3307  -9.1817  -9.1335  -9.1055
    -8.9269  -8.8002  -8.5624  -8.3449  -8.3055  -8.2224  -8.2042  -8.1989
    -8.1790  -8.0918  -7.9815  -7.8964  -7.6970  -7.3548  -7.3377  -7.1941
    -7.1167  -7.0631  -7.0504  -6.6901  -6.5640  -6.4484  -6.3534  -6.1792
    -6.1542  -6.1265  -6.1024  -6.0665  -6.0034  -5.9579  -5.7236  -5.6117
    -5.3338  -5.2802  -5.2419  -5.1668  -5.1350  -4.8706  -4.7372  -4.6292
    -4.5455  -4.3473  -4.3062  -4.2423  -4.1522  -4.1149  -4.0107  -3.9871
    -3.9579  -3.9326  -3.8419  -3.7790  -3.7789  -3.6655  -3.5604  -3.5369
    -3.4155  -3.2774  -3.1834  -3.0927  -2.9321  -2.8754  -2.6381  -2.3703
    -2.3386  -2.2429  -2.0172  -1.9202  -1.5659  -1.4078  -1.4030  -1.3539
    -1.2205  -0.9995  -0.8192  -0.5584   0.2436   0.5574   0.7479   1.2554
     1.2741   1.5687   1.5774   1.7257   1.8904   2.0896   2.2427   2.2728
     3.8335   4.0897   4.3758   4.8913   4.9486   5.0539   5.3250   5.5238
     5.7059   5.9453   6.4038   6.5094   6.5457   6.6923   6.8690   6.9627
     7.2703   7.3493   7.5277   7.6064   7.8156   7.8839   8.1600   8.5040
     8.6458   8.6580   8.7035   8.7368   8.7641   8.8282   8.9431   8.9908
     8.9989   9.0935   9.1554   9.1683   9.2477   9.3093   9.3926   9.5090
     9.5309   9.5596   9.7812   9.8486   9.9256  10.0299  10.0533  10.3902
    10.3917  10.4195  10.4507  10.7029  10.7501  11.0168  11.0246  11.1416
    11.2908  11.3014  11.3545  11.3800  11.4099  11.6119  11.6224  11.6705
    11.7584  11.8456  11.9760  12.1316  12.1951  12.2218  12.3577  12.3586
    12.5368  12.6023  12.7142  12.7484  12.7784  12.8799  12.9196  12.9745
    13.0551  13.2013  13.2245  13.2856  13.3288  13.3781  13.3789  13.4858
    13.6152  13.7128  13.7733  13.8296  13.9821  14.0906  14.1280  14.1723
    14.2165  14.2512  14.4024  14.4506  14.4739  14.7892  14.8088  14.9813
    15.1002  15.1787  15.2159  15.3147  15.3663  15.4335  15.4734  15.4978
    15.5308  15.6705  15.7227  15.8615  15.8714  15.9394  15.9887  16.0452
    16.1663  16.1999  16.2749  16.2974  16.3386  16.3929  16.4030  16.4247
    16.5497  16.6607  16.6992  16.7713  16.8243  16.9150  16.9631  17.0397
    17.1879  17.2022  17.2423  17.3266  17.4316  17.4827  17.5393  17.5704
    17.6615  17.7491  17.8011  17.8483  17.9130  17.9167  17.9275  17.9481
    18.1242  18.1709  18.2110  18.2773  18.2829  18.2887  18.4637  18.5289
    18.5581  18.6338  18.6826  18.8332  18.9168  19.0986  19.2636  19.3246
    19.4948  19.5936  19.6011  19.6310  19.6365  19.6688  19.8661  19.9211
    19.9836  20.1307  20.1604  20.1730  20.2889  20.3090  20.3422  20.3836
    20.4049  20.4640  20.4877  20.5018  20.5358  20.5523  20.5804  20.6829
    20.6830  20.7532  20.7628  20.7778  20.8984  20.9441  21.0439  21.0737
    21.1177  21.2091  21.2277  21.3488  21.4388  21.4682  21.4923  21.5092
    21.5468  21.5590  21.5590  21.5792

          k = 0.2500 0.0000 0.0000 ( 30502 PWs)   bands (ev):

   -49.1059 -49.0609 -49.0511 -49.0396 -49.0336 -49.0239 -48.9328 -48.9241
   -48.9232 -48.8809 -48.8708 -48.8650 -48.8419 -48.7976 -48.7570 -48.7527
   -48.7462 -48.6855 -48.6741 -48.6684 -48.6097 -48.6068 -48.5970 -48.5946
   -21.4447 -21.1164 -20.9972 -20.9038 -20.5830 -20.4609 -20.3808 -20.3598
   -20.2169 -20.1706 -20.0689 -20.0500 -20.0202 -19.8025 -19.7751 -19.7259
   -19.0155 -18.9022  -9.9792  -9.9016  -9.6813  -9.1956  -8.9247  -8.8404
    -8.7552  -8.7498  -8.7213  -8.5989  -8.4981  -8.4749  -8.3960  -8.3217
    -8.2027  -8.0456  -7.9563  -7.8708  -7.6060  -7.5521  -7.4019  -7.3797
    -7.0824  -6.9760  -6.7286  -6.6111  -6.4394  -6.3876  -6.3139  -6.1946
    -6.1841  -6.1377  -5.9760  -5.9040  -5.8110  -5.6052  -5.5061  -5.4243
    -5.4028  -5.3123  -5.1893  -5.1607  -5.0971  -4.9392  -4.8804  -4.7605
    -4.7313  -4.6808  -4.5579  -4.5530  -4.3438  -4.1007  -4.0635  -3.9690
    -3.9394  -3.7960  -3.7414  -3.7408  -3.5119  -3.4965  -3.4284  -3.4025
    -3.1817  -3.0199  -2.9436  -2.8572  -2.6059  -2.5931  -2.5531  -2.4046
    -2.3468  -2.1314  -2.1092  -1.9942  -1.8764  -1.6911  -1.4568  -1.2891
    -1.1454  -0.9920   0.1746   0.2926   0.4802   0.5311   0.6348   0.6575
     0.7794   0.9780   1.1015   1.6161   1.6346   1.7068   1.7614   2.1119
     3.3446   3.8080   4.2685   4.6973   5.0578   5.2382   5.6821   5.8281
     6.0656   6.2094   6.3054   6.5393   6.9258   7.0065   7.3051   7.3702
     7.4405   7.4784   7.7710   7.8596   7.8780   7.9131   7.9967   8.2134
     8.3104   8.3917   8.4390   8.4990   8.6688   8.7807   8.8479   8.9875
     9.0405   9.0506   9.2212   9.2390   9.3812   9.4299   9.6316   9.6605
     9.7806   9.8805   9.8818   9.9645  10.0321  10.1515  10.2042  10.2134
    10.2782  10.3975  10.4684  10.5255  10.7036  10.8113  10.8775  10.9049
    10.9554  11.0825  11.1476  11.2195  11.2196  11.2543  11.3142  11.4142
    11.5364  11.6449  11.8796  11.9187  12.0368  12.0644  12.2220  12.2303
    12.3201  12.3801  12.3915  12.5334  12.5894  12.7014  12.7796  12.9121
    12.9420  13.1076  13.2658  13.3110  13.3474  13.5016  13.5886  13.6757
    13.7324  13.7506  13.8571  13.8746  13.9032  13.9688  14.0296  14.1155
    14.1689  14.2424  14.3066  14.4507  14.4900  14.4919  14.6427  14.6713
    14.7741  14.8375  15.1407  15.1545  15.2459  15.3011  15.3032  15.3647
    15.4613  15.4626  15.6702  15.7058  15.8161  15.8385  15.9262  15.9306
    15.9706  16.0050  16.1673  16.2603  16.3278  16.3712  16.4244  16.5344
    16.5405  16.6790  16.9558  16.9815  17.0445  17.0513  17.2025  17.2775
    17.3251  17.3857  17.5101  17.5579  17.7334  17.7427  17.8720  18.0374
    18.0408  18.1167  18.1250  18.3019  18.3926  18.3976  18.5748  18.6083
    18.7690  18.8170  18.8917  18.9908  19.0000  19.0655  19.0676  19.1244
    19.1448  19.2040  19.2662  19.3328  19.3458  19.3866  19.4797  19.5200
    19.5349  19.5926  19.6568  19.7007  19.7303  19.7757  19.8116  19.8364
    19.9249  20.0000  20.0499  20.2168  20.2680  20.3483  20.3618  20.4016
    20.4106  20.4615  20.4807  20.5636  20.6580  20.6656  20.7079  20.7090
    20.8013  20.8409  20.8413  20.9510  20.9606  21.0640  21.1716  21.1929
    21.3162  21.3376  21.3713  21.3796  21.4449  21.5785  21.5944  21.6527
    21.7332  21.7741  21.8040  21.9304

          k = 0.2500 0.2417 0.0000 ( 30481 PWs)   bands (ev):

   -49.1060 -49.0609 -49.0511 -49.0393 -49.0341 -49.0240 -48.9317 -48.9240
   -48.9231 -48.8803 -48.8708 -48.8651 -48.8418 -48.7977 -48.7580 -48.7526
   -48.7458 -48.6857 -48.6741 -48.6684 -48.6098 -48.6072 -48.5971 -48.5944
   -21.4024 -21.1141 -20.9311 -20.8290 -20.5716 -20.4689 -20.3849 -20.3699
   -20.2408 -20.1977 -20.0770 -20.0534 -20.0226 -19.9027 -19.8191 -19.7759
   -19.0152 -18.8994  -9.7339  -9.5669  -9.5182  -9.2868  -8.9344  -8.8472
    -8.7200  -8.6924  -8.6838  -8.5497  -8.5127  -8.4271  -8.3996  -8.2408
    -8.1134  -8.0833  -7.9082  -7.8690  -7.5317  -7.4268  -7.4215  -7.2675
    -7.0773  -6.8743  -6.8631  -6.6917  -6.6828  -6.4179  -6.3808  -6.2977
    -6.2701  -6.2271  -6.2074  -6.0197  -5.9442  -5.8521  -5.8189  -5.7854
    -5.5451  -5.4494  -5.4416  -5.2035  -5.0558  -5.0003  -4.9225  -4.7423
    -4.7234  -4.5933  -4.5236  -4.3784  -4.1406  -4.1365  -3.9437  -3.7837
    -3.7742  -3.6666  -3.6238  -3.5643  -3.4378  -3.4277  -3.2814  -3.2770
    -3.2064  -3.0725  -3.0216  -2.9766  -2.8729  -2.8347  -2.6218  -2.3888
    -2.1392  -2.0472  -2.0218  -1.9277  -1.8937  -1.7218  -1.5235  -1.4773
    -1.0404  -0.7517  -0.3419  -0.1579   0.3368   0.4665   0.5294   0.8495
     1.0612   1.3251   1.4641   1.5486   1.7278   1.7542   1.8738   2.0812
     3.6154   3.9911   4.4991   4.8982   5.2593   5.4106   5.4886   5.8002
     5.9685   6.2042   6.3193   6.4022   6.4147   6.6976   6.7981   6.9955
     7.1798   7.3497   7.4206   7.6287   7.6768   7.8397   8.0006   8.0111
     8.0487   8.2357   8.3874   8.4280   8.6272   8.7559   8.7950   8.8865
     8.8891   9.1691   9.3147   9.4250   9.4904   9.6419   9.6701   9.7422
     9.8245   9.9024  10.0793  10.1532  10.2441  10.2771  10.3539  10.5415
    10.5813  10.6364  10.7888  10.8276  10.8660  10.9769  11.0073  11.1398
    11.2744  11.3065  11.3888  11.4749  11.4997  11.5867  11.6840  11.6903
    11.8068  11.9646  12.0716  12.1157  12.1291  12.2061  12.2190  12.3486
    12.4348  12.4748  12.5948  12.6017  12.6856  12.7900  12.8732  12.9998
    13.0405  13.1159  13.1899  13.2477  13.2881  13.3463  13.4636  13.5433
    13.6534  13.7030  13.7511  13.7995  13.9257  14.0393  14.0446  14.1241
    14.1345  14.2556  14.4085  14.4530  14.5424  14.5792  14.6313  14.7510
    14.8183  15.0906  15.1881  15.2217  15.3625  15.4213  15.4979  15.4985
    15.5385  15.6258  15.7138  15.7162  15.7920  15.8982  15.9571  15.9794
    16.0617  16.0747  16.1823  16.2464  16.2994  16.3595  16.3951  16.4711
    16.5216  16.5824  16.6330  16.6407  16.7414  16.8203  16.9339  16.9494
    17.1482  17.1848  17.2291  17.2945  17.3525  17.4155  17.4702  17.5252
    17.5690  17.6196  17.7538  17.7865  17.8401  17.8730  18.0107  18.0650
    18.0819  18.1640  18.2769  18.3691  18.3910  18.4797  18.5092  18.6262
    18.6937  18.8053  18.8556  18.9332  18.9756  19.0472  19.0671  19.1330
    19.1461  19.2534  19.3189  19.4401  19.4653  19.5649  19.6083  19.7473
    19.8173  19.8477  19.8824  20.0712  20.0740  20.1938  20.3427  20.4206
    20.4522  20.5008  20.5829  20.6417  20.6577  20.7555  20.8087  20.9443
    20.9859  20.9998  21.0732  21.1370  21.1909  21.2464  21.3099  21.3396
    21.4009  21.4152  21.5990  21.6171  21.6279  21.6701  21.7681  21.8242
    21.8434  21.9241  22.0210  22.1174

          k = 0.2500-0.4833 0.0000 ( 30510 PWs)   bands (ev):

   -49.1063 -49.0609 -49.0511 -49.0390 -49.0348 -49.0238 -48.9311 -48.9238
   -48.9231 -48.8798 -48.8708 -48.8650 -48.8417 -48.7977 -48.7589 -48.7528
   -48.7457 -48.6857 -48.6741 -48.6684 -48.6099 -48.6076 -48.5970 -48.5945
   -21.3607 -21.1116 -20.8513 -20.7146 -20.5577 -20.4376 -20.3887 -20.3828
   -20.3548 -20.2218 -20.0894 -20.0831 -20.0293 -20.0004 -19.8831 -19.7768
   -19.0149 -18.8972  -9.6858  -9.3630  -9.1039  -8.9605  -8.9370  -8.8467
    -8.8379  -8.6664  -8.6091  -8.4496  -8.3900  -8.3674  -8.3192  -8.2634
    -8.1063  -7.9983  -7.9133  -7.7714  -7.6437  -7.4336  -7.3956  -7.2104
    -7.1718  -6.9512  -6.8722  -6.8320  -6.8033  -6.7223  -6.6863  -6.5470
    -6.4061  -6.2733  -6.2091  -6.1990  -6.1523  -6.0191  -5.9498  -5.8723
    -5.7871  -5.6526  -5.2443  -5.2345  -5.0513  -4.9219  -4.8503  -4.7065
    -4.6744  -4.5303  -4.4078  -4.2364  -4.1235  -4.0600  -3.9051  -3.8991
    -3.6836  -3.6742  -3.5362  -3.5351  -3.4390  -3.4192  -3.3444  -3.2838
    -3.2495  -3.1306  -3.0003  -2.9112  -2.7836  -2.5510  -2.4833  -2.3404
    -2.3023  -2.1253  -2.0807  -1.9986  -1.8001  -1.6933  -1.5701  -1.5166
    -0.9667  -0.7586  -0.5901  -0.5560   0.3663   0.5422   0.7412   0.8430
     0.9831   1.0885   1.5785   1.7330   1.7529   1.9790   1.9957   2.1864
     4.1065   4.3160   4.6449   5.1429   5.1975   5.3226   5.5756   5.7061
     5.7946   5.9563   5.9856   6.2451   6.4395   6.6718   6.8126   7.0056
     7.0548   7.0971   7.1493   7.2422   7.4129   7.6766   7.7777   7.8187
     8.0970   8.1482   8.1947   8.2252   8.4102   8.4705   8.6295   8.7836
     8.9629   8.9860   9.1125   9.4022   9.4337   9.5717   9.8369   9.8952
     9.9763  10.0387  10.0819  10.4298  10.6370  10.7390  10.7527  10.7822
    10.9216  11.0306  11.0887  11.1659  11.2488  11.3224  11.3470  11.3595
    11.4109  11.5184  11.6205  11.7415  11.7586  11.8589  11.8812  11.9211
    12.0171  12.0455  12.1458  12.2282  12.3561  12.4006  12.5300  12.5637
    12.6723  12.6744  12.7833  12.8041  12.8455  12.8855  13.0680  13.1262
    13.1835  13.2186  13.2703  13.3230  13.3381  13.4421  13.4494  13.5030
    13.5321  13.6970  13.7497  13.8984  14.0271  14.0357  14.1388  14.2676
    14.3338  14.3591  14.4389  14.5267  14.5339  14.5544  14.5857  14.5898
    14.7159  14.7584  14.7667  14.8676  14.9364  14.9618  14.9647  15.1024
    15.1834  15.2531  15.4374  15.4513  15.5832  15.6282  15.6920  15.8670
    15.9267  16.0119  16.0130  16.0800  16.1887  16.2378  16.3359  16.4432
    16.5274  16.6031  16.6515  16.6686  16.7855  16.8434  16.8812  16.9049
    16.9758  17.0067  17.1345  17.1885  17.1905  17.2816  17.3180  17.4188
    17.4682  17.4749  17.5504  17.7697  17.7920  17.8789  17.9100  17.9332
    18.0349  18.1241  18.1260  18.2061  18.2913  18.3851  18.4063  18.4597
    18.4981  18.5528  18.6192  18.6507  18.6862  18.8050  18.8435  18.8750
    18.9582  18.9822  19.0588  19.2435  19.2901  19.3587  19.4384  19.5174
    19.5688  19.6455  19.7232  19.7517  19.7891  19.8011  19.8879  19.9083
    20.0305  20.0883  20.2933  20.3984  20.5173  20.5201  20.5434  20.6618
    20.7118  20.7703  20.8258  20.9117  20.9811  21.0337  21.0770  21.2168
    21.2545  21.3685  21.3812  21.4280  21.5229  21.7202  21.7746  21.8418
    21.9057  22.0080  22.0243  22.0957

          k =-0.5000 0.0000 0.0000 ( 30524 PWs)   bands (ev):

   -49.0713 -49.0713 -49.0495 -49.0495 -49.0367 -49.0366 -48.9295 -48.9295
   -48.8836 -48.8835 -48.8681 -48.8679 -48.8401 -48.8399 -48.7550 -48.7548
   -48.7088 -48.7086 -48.6795 -48.6793 -48.6035 -48.6034 -48.6008 -48.6006
   -21.2367 -21.2364 -20.7960 -20.7959 -20.6470 -20.6469 -20.4589 -20.4588
   -20.1081 -20.1080 -19.9896 -19.9895 -19.9009 -19.9008 -19.8770 -19.8770
   -19.0109 -19.0107  -9.4267  -9.4266  -9.3469  -9.3468  -9.2869  -9.2868
    -8.7459  -8.7459  -8.6318  -8.6318  -8.5090  -8.5090  -8.3824  -8.3824
    -8.0191  -8.0191  -7.8790  -7.8789  -7.5109  -7.5109  -7.0721  -7.0721
    -6.9323  -6.9322  -6.8218  -6.8218  -6.6471  -6.6471  -6.4924  -6.4923
    -6.3151  -6.3150  -6.0373  -6.0373  -5.8248  -5.8248  -5.7405  -5.7404
    -5.6567  -5.6567  -5.3204  -5.3204  -5.1366  -5.1366  -4.8515  -4.8515
    -4.7303  -4.7303  -4.4067  -4.4066  -3.9962  -3.9962  -3.8842  -3.8842
    -3.7739  -3.7739  -3.6736  -3.6736  -3.4743  -3.4743  -3.4023  -3.4023
    -2.8045  -2.8044  -2.7206  -2.7205  -2.5415  -2.5415  -2.3870  -2.3870
    -2.1351  -2.1350  -2.1283  -2.1283  -1.8487  -1.8487  -1.6153  -1.6153
    -0.9016  -0.9016   0.3347   0.3347   0.5417   0.5418   0.9585   0.9585
     0.9858   0.9858   1.0532   1.0532   1.0705   1.0706   1.8620   1.8620
     4.1567   4.1568   4.5761   4.5761   5.0142   5.0142   5.4179   5.4179
     5.8338   5.8338   6.4679   6.4680   6.8039   6.8039   6.9936   6.9936
     7.6302   7.6302   7.9843   7.9843   8.0893   8.0893   8.1366   8.1366
     8.5903   8.5903   8.6229   8.6229   8.7182   8.7182   9.0182   9.0182
     9.0416   9.0416   9.1698   9.1698   9.2799   9.2800   9.6655   9.6655
     9.6910   9.6911   9.7958   9.7958   9.8956   9.8956  10.0088  10.0088
    10.2082  10.2083  10.4623  10.4623  10.6824  10.6824  10.7814  10.7814
    11.2844  11.2844  11.4813  11.4813  11.6212  11.6212  11.6746  11.6747
    11.7926  11.7926  12.0238  12.0238  12.2437  12.2437  12.4397  12.4397
    12.5375  12.5375  12.7268  12.7268  12.8805  12.8805  13.0110  13.0110
    13.2285  13.2285  13.3649  13.3649  13.4701  13.4701  13.6566  13.6566
    13.7397  13.7398  13.8757  13.8757  14.0343  14.0343  14.2006  14.2007
    14.2793  14.2793  14.3390  14.3390  14.4379  14.4379  14.7359  14.7359
    14.8430  14.8430  15.0098  15.0098  15.1295  15.1295  15.4920  15.4920
    15.8026  15.8026  16.0347  16.0347  16.2222  16.2222  16.2507  16.2507
    16.2788  16.2788  16.3584  16.3584  16.4278  16.4278  16.5823  16.5823
    16.6145  16.6145  16.6470  16.6470  16.7444  16.7444  16.8237  16.8237
    17.0530  17.0530  17.1990  17.1990  17.4264  17.4264  17.6073  17.6073
    17.8012  17.8012  17.9042  17.9042  18.0957  18.0957  18.2827  18.2827
    18.3894  18.3894  18.4781  18.4781  18.7076  18.7076  18.7827  18.7827
    18.8922  18.8922  19.0286  19.0286  19.1446  19.1446  19.2315  19.2315
    19.3480  19.3480  19.4409  19.4409  19.5848  19.5848  19.6177  19.6178
    19.7322  19.7322  19.8083  19.8083  20.0150  20.0150  20.0671  20.0671
    20.1802  20.1802  20.2634  20.2634  20.3131  20.3131  20.4484  20.4484
    20.5776  20.5776  20.8039  20.8039  20.9482  20.9482  20.9979  20.9980
    21.1109  21.1109  21.1345  21.1345  21.3188  21.3188  21.3273  21.3274
    21.3633  21.3633  21.4559  21.4559

          k =-0.5000 0.2417 0.0000 ( 30500 PWs)   bands (ev):

   -49.0715 -49.0713 -49.0496 -49.0495 -49.0367 -49.0366 -48.9291 -48.9287
   -48.8834 -48.8834 -48.8681 -48.8680 -48.8399 -48.8398 -48.7554 -48.7552
   -48.7086 -48.7085 -48.6795 -48.6794 -48.6035 -48.6034 -48.6009 -48.6007
   -21.2207 -21.2202 -20.7324 -20.7320 -20.5705 -20.5704 -20.4606 -20.4605
   -20.1519 -20.1458 -20.0521 -20.0451 -20.0155 -20.0147 -19.8609 -19.8609
   -19.0094 -19.0093  -9.3173  -9.3157  -9.0866  -9.0845  -9.0146  -9.0141
    -8.7367  -8.7348  -8.6471  -8.6366  -8.4607  -8.4501  -8.3367  -8.3358
    -8.1169  -8.0559  -7.8586  -7.8002  -7.4810  -7.4276  -7.2838  -7.2693
    -7.0977  -7.0824  -7.0211  -6.9289  -6.7283  -6.6805  -6.5852  -6.5408
    -6.3326  -6.3187  -6.2077  -6.2001  -5.9772  -5.9384  -5.7927  -5.7812
    -5.7319  -5.7203  -5.6315  -5.5355  -5.1284  -5.0429  -4.9534  -4.9228
    -4.8230  -4.6549  -4.5036  -4.3588  -4.1244  -4.1023  -3.8440  -3.8279
    -3.5243  -3.5225  -3.3812  -3.3767  -3.2746  -3.2595  -3.1877  -3.1769
    -3.0446  -2.9577  -2.8021  -2.7793  -2.5047  -2.4925  -2.3546  -2.3537
    -2.1802  -2.1776  -2.0809  -2.0349  -1.9405  -1.9229  -1.7533  -1.7411
    -0.7775  -0.7772   0.2436   0.2529   0.3479   0.3488   0.6206   0.6210
     0.7539   0.7605   1.2887   1.2966   1.5610   1.5629   1.9494   1.9550
     4.3729   4.3838   4.7275   4.7275   5.2349   5.2352   5.6015   5.6090
     5.9467   5.9770   6.2375   6.2476   6.6503   6.6593   6.9751   6.9753
     7.0420   7.0539   7.1136   7.1229   7.5232   7.5389   7.8272   7.8347
     8.1073   8.1212   8.2799   8.3117   8.5461   8.5923   8.7423   8.7941
     9.0251   9.1245   9.4662   9.4751   9.7217   9.7381   9.8640   9.8721
    10.0040  10.0140  10.1895  10.2033  10.4201  10.4383  10.6214  10.6270
    10.7305  10.7366  10.9245  10.9273  10.9622  10.9651  11.1791  11.1899
    11.4605  11.4745  11.6569  11.6688  11.8331  11.8508  11.9441  11.9748
    12.0166  12.0340  12.1547  12.1563  12.3464  12.3588  12.5589  12.5672
    12.7185  12.7255  12.9321  12.9431  13.0176  13.0396  13.1304  13.1377
    13.2637  13.2703  13.3717  13.3894  13.5260  13.5342  13.6430  13.6491
    13.8372  13.8515  13.8998  13.9024  14.0550  14.0738  14.2426  14.2446
    14.3106  14.3352  14.4838  14.4853  14.5250  14.5934  14.6577  14.6825
    14.7856  14.7964  14.9320  14.9330  15.0174  15.0241  15.1008  15.1082
    15.2461  15.2556  15.4096  15.4222  15.4740  15.4777  15.8070  15.8129
    15.9411  15.9482  16.0882  16.1052  16.1628  16.1729  16.3416  16.3442
    16.3886  16.4267  16.4716  16.4797  16.5948  16.6104  16.6997  16.7189
    16.8619  16.8759  16.9938  17.0046  17.0217  17.1238  17.3043  17.3266
    17.4875  17.5049  17.6729  17.6794  17.7772  17.8023  17.8435  17.9314
    17.9729  18.0014  18.2933  18.2935  18.3362  18.3710  18.4483  18.4569
    18.5502  18.5549  18.7114  18.7289  18.7860  18.8108  18.9182  18.9281
    19.0445  19.0773  19.1601  19.1766  19.3761  19.4105  19.5105  19.5121
    19.5724  19.5896  19.6825  19.6943  19.8509  19.8647  20.0774  20.0828
    20.2046  20.2220  20.3481  20.3755  20.4728  20.4762  20.5829  20.6728
    20.7557  20.7686  20.8747  20.9078  21.0666  21.1029  21.3209  21.3214
    21.4504  21.4604  21.5488  21.5636  21.7117  21.7243  21.8331  21.8456
    21.9031  21.9524  22.1423  22.1528

          k =-0.5000-0.4833 0.0000 ( 30496 PWs)   bands (ev):

   -49.0715 -49.0715 -49.0496 -49.0496 -49.0368 -49.0367 -48.9284 -48.9283
   -48.8833 -48.8832 -48.8681 -48.8680 -48.8397 -48.8396 -48.7559 -48.7557
   -48.7085 -48.7083 -48.6796 -48.6794 -48.6036 -48.6035 -48.6011 -48.6009
   -21.2054 -21.2051 -20.6098 -20.6097 -20.5592 -20.5591 -20.3300 -20.3300
   -20.2787 -20.2786 -20.2099 -20.2098 -20.0472 -20.0472 -19.8598 -19.8597
   -19.0081 -19.0080  -9.2886  -9.2885  -8.7415  -8.7415  -8.7204  -8.7204
    -8.5003  -8.5003  -8.4351  -8.4351  -8.3768  -8.3768  -8.3451  -8.3450
    -8.1547  -8.1547  -8.0030  -8.0029  -7.7536  -7.7535  -7.4216  -7.4216
    -7.1329  -7.1328  -6.9493  -6.9492  -6.8074  -6.8074  -6.6395  -6.6395
    -6.4892  -6.4892  -6.3359  -6.3359  -6.2717  -6.2717  -6.1308  -6.1308
    -5.8632  -5.8632  -5.3078  -5.3078  -5.1381  -5.1380  -4.7956  -4.7955
    -4.7773  -4.7773  -4.4435  -4.4435  -3.9927  -3.9927  -3.7561  -3.7561
    -3.4323  -3.4323  -3.3895  -3.3895  -3.2444  -3.2444  -3.0835  -3.0835
    -2.8811  -2.8811  -2.8600  -2.8599  -2.3578  -2.3578  -2.2933  -2.2933
    -2.1321  -2.1320  -2.0754  -2.0754  -1.9616  -1.9616  -1.8877  -1.8876
    -0.6870  -0.6870  -0.0688  -0.0688   0.0546   0.0547   0.6277   0.6278
     0.7730   0.7731   1.4908   1.4908   1.7438   1.7439   2.0344   2.0344
     4.7771   4.7773   4.9616   4.9616   5.3695   5.3696   5.8709   5.8709
     5.9210   5.9210   6.0684   6.0684   6.2903   6.2903   6.5397   6.5397
     6.7283   6.7284   7.0339   7.0339   7.3907   7.3908   7.5668   7.5668
     7.7674   7.7675   7.8941   7.8941   8.4028   8.4029   8.8168   8.8168
     8.9754   8.9754   9.2466   9.2466   9.5293   9.5294   9.9968   9.9968
    10.1960  10.1960  10.4566  10.4567  10.7290  10.7291  11.0649  11.0649
    11.2810  11.2810  11.3891  11.3891  11.4317  11.4318  11.8146  11.8146
    11.9416  11.9416  12.1216  12.1216  12.2734  12.2734  12.4949  12.4950
    12.5670  12.5670  12.6947  12.6947  12.8270  12.8270  12.8663  12.8663
    12.9447  12.9448  13.1200  13.1200  13.2124  13.2124  13.2585  13.2585
    13.4345  13.4345  13.5031  13.5031  13.5663  13.5663  13.6001  13.6001
    13.7062  13.7062  13.7810  13.7810  13.9636  13.9636  13.9941  13.9941
    14.0748  14.0748  14.1501  14.1501  14.3037  14.3037  14.3296  14.3296
    14.4940  14.4940  14.5919  14.5919  14.7529  14.7529  14.9496  14.9496
    15.1067  15.1067  15.1440  15.1440  15.2014  15.2014  15.2835  15.2835
    15.4558  15.4558  15.5941  15.5941  15.6335  15.6335  15.8180  15.8180
    15.9516  15.9516  16.0019  16.0019  16.2081  16.2081  16.4189  16.4189
    16.5432  16.5432  16.7183  16.7183  16.9129  16.9129  16.9854  16.9854
    17.1100  17.1100  17.3343  17.3343  17.4885  17.4885  17.6343  17.6343
    18.0225  18.0225  18.0293  18.0293  18.1742  18.1742  18.2736  18.2736
    18.3722  18.3722  18.5976  18.5976  18.8108  18.8109  19.1472  19.1473
    19.3074  19.3074  19.4458  19.4458  19.5496  19.5496  19.6607  19.6607
    20.1184  20.1184  20.2156  20.2156  20.2885  20.2885  20.6200  20.6200
    20.6947  20.6947  20.7789  20.7789  20.8619  20.8619  20.9599  20.9599
    21.0456  21.0456  21.1322  21.1322  21.2420  21.2420  21.3401  21.3401
    21.4463  21.4463  21.4720  21.4721  21.5787  21.5787  21.6355  21.6355
    21.6540  21.6540  21.8352  21.8352

          k =-0.2500 0.2417 0.0000 ( 30481 PWs)   bands (ev):

   -49.1061 -49.0609 -49.0511 -49.0393 -49.0341 -49.0238 -48.9321 -48.9237
   -48.9231 -48.8803 -48.8708 -48.8651 -48.8418 -48.7977 -48.7579 -48.7527
   -48.7459 -48.6856 -48.6741 -48.6684 -48.6098 -48.6072 -48.5971 -48.5944
   -21.4026 -21.1139 -20.9308 -20.8289 -20.5711 -20.4690 -20.3838 -20.3706
   -20.2403 -20.2027 -20.0771 -20.0532 -20.0184 -19.9033 -19.8194 -19.7760
   -19.0152 -18.8994  -9.7316  -9.5685  -9.5184  -9.2872  -8.9440  -8.8484
    -8.7202  -8.6822  -8.6634  -8.5650  -8.5178  -8.4179  -8.3996  -8.2501
    -8.1377  -8.0865  -7.9168  -7.8511  -7.5403  -7.4250  -7.3571  -7.2490
    -7.0985  -6.8848  -6.8642  -6.7082  -6.6923  -6.4521  -6.4128  -6.2908
    -6.2734  -6.1987  -6.1274  -6.0215  -5.9532  -5.8885  -5.8203  -5.7619
    -5.5594  -5.4578  -5.3882  -5.2748  -5.1049  -4.9515  -4.9005  -4.8313
    -4.6808  -4.6043  -4.4897  -4.4006  -4.1015  -4.0701  -3.9515  -3.8026
    -3.7869  -3.6371  -3.6273  -3.5619  -3.4453  -3.4390  -3.2938  -3.2697
    -3.2303  -3.1120  -3.0255  -2.9818  -2.8458  -2.8348  -2.5907  -2.3964
    -2.1255  -2.0588  -2.0185  -1.9391  -1.9032  -1.7035  -1.5267  -1.4791
    -1.0407  -0.7519  -0.3449  -0.1576   0.3371   0.4706   0.5294   0.8493
     1.0614   1.3147   1.4737   1.5498   1.7249   1.7558   1.8687   2.0849
     3.6111   3.9911   4.4993   4.9007   5.2712   5.4296   5.4982   5.8003
     5.9650   6.2024   6.3272   6.3971   6.4049   6.6618   6.8048   6.9604
     7.1890   7.3525   7.4201   7.6177   7.6938   7.8239   8.0082   8.0198
     8.0596   8.2388   8.3851   8.4021   8.6270   8.7673   8.8007   8.8721
     8.8913   9.1750   9.3373   9.4143   9.5225   9.6425   9.6669   9.7074
     9.8335   9.8985  10.1182  10.1550  10.2456  10.2791  10.3402  10.4903
    10.5834  10.6346  10.7656  10.8236  10.8672  10.9803  11.0090  11.1651
    11.3057  11.3125  11.4135  11.4570  11.5049  11.5841  11.6851  11.6919
    11.8068  11.9940  12.0778  12.1275  12.1475  12.2082  12.2144  12.3466
    12.4298  12.5087  12.5778  12.6062  12.6968  12.7748  12.8715  12.9904
    13.0346  13.0934  13.2083  13.2242  13.3112  13.3651  13.4287  13.5416
    13.6397  13.7043  13.7909  13.8101  13.8506  14.0501  14.0524  14.1009
    14.1602  14.2646  14.3607  14.4633  14.5448  14.5936  14.6543  14.7120
    14.7821  15.0463  15.2159  15.2873  15.3586  15.4200  15.4635  15.4834
    15.5288  15.6136  15.6870  15.7027  15.7857  15.7942  15.9623  15.9909
    16.0575  16.0665  16.1834  16.2704  16.3150  16.3605  16.3915  16.4813
    16.5344  16.5686  16.5979  16.6234  16.7247  16.8171  16.9789  16.9815
    17.1313  17.2088  17.2218  17.3218  17.3285  17.4207  17.4921  17.5338
    17.5696  17.6190  17.7449  17.7696  17.8726  17.8820  18.0542  18.0707
    18.0973  18.1546  18.2450  18.3602  18.4175  18.4923  18.5083  18.6549
    18.7069  18.8539  18.8763  18.9284  18.9834  19.0370  19.0658  19.1384
    19.2049  19.2120  19.3101  19.4507  19.4572  19.5604  19.6599  19.7288
    19.7460  19.9046  19.9065  20.0375  20.1378  20.2140  20.3054  20.3414
    20.4588  20.5391  20.5989  20.6524  20.6723  20.7337  20.8393  20.8976
    20.9410  21.0176  21.1127  21.1201  21.1716  21.2486  21.3174  21.3474
    21.3974  21.4428  21.5598  21.6373  21.6587  21.7174  21.7888  21.8350
    21.8519  21.9172  22.0097  22.1016

     the Fermi energy is    -1.9148 ev

!    total energy              =   -1947.23728694 Ry
     Harris-Foulkes estimate   =   -1947.23728742 Ry
     estimated scf accuracy    <       0.00000051 Ry

     The total energy is the sum of the following terms:

     one-electron contribution =  -22566.30547388 Ry
     hartree contribution      =   11329.45076050 Ry
     xc contribution           =    -365.09380529 Ry
     ewald contribution        =    9653.72146861 Ry
     Hubbard energy            =       0.99096492 Ry
     smearing contrib. (-TS)   =      -0.00120180 Ry

     convergence has been achieved in  37 iterations

     Forces acting on atoms (Ry/au):


     negative rho (up, down):  0.687E+00 0.000E+00
     atom    1 type  1   force =    -0.00769755   -0.01365575    0.00251540
     atom    2 type  1   force =     0.00019662    0.00736606    0.00210891
     atom    3 type  2   force =    -0.00013363    0.00457281   -0.00408484
     atom    4 type  2   force =     0.00859413    0.00878942   -0.00205245
     atom    5 type  1   force =    -0.00161097   -0.02963511   -0.00027359
     atom    6 type  1   force =     0.00276204    0.02659393   -0.00026954
     atom    7 type  1   force =    -0.00025971   -0.00084585    0.01138749
     atom    8 type  1   force =    -0.00289673   -0.00060828    0.00140279
     atom    9 type  2   force =     0.00122810   -0.00019503   -0.00341043
     atom   10 type  2   force =     0.00003690   -0.00179125    0.00082081
     atom   11 type  1   force =    -0.00019439    0.00651420   -0.00578567
     atom   12 type  1   force =     0.00029652   -0.00581514   -0.00589435
     atom   13 type  1   force =    -0.00071354   -0.00003940    0.00156552
     atom   14 type  1   force =    -0.00770884   -0.01365413    0.00251615
     atom   15 type  1   force =     0.00016245    0.00727414    0.00214765
     atom   16 type  2   force =    -0.00011163    0.00457235   -0.00408361
     atom   17 type  2   force =     0.00856687    0.00879193   -0.00206408
     atom   18 type  1   force =    -0.00159677   -0.02962557   -0.00027417
     atom   19 type  1   force =     0.00277534    0.02658526   -0.00026966
     atom   20 type  1   force =    -0.00030264   -0.00084706    0.01135950
     atom   21 type  1   force =    -0.00292400   -0.00060828    0.00139333
     atom   22 type  2   force =     0.00126138   -0.00019607   -0.00341190
     atom   23 type  2   force =     0.00003395   -0.00179250    0.00084080
     atom   24 type  1   force =    -0.00014522    0.00650933   -0.00577645
     atom   25 type  1   force =     0.00034418   -0.00580878   -0.00588528
     atom   26 type  1   force =    -0.00073189   -0.00003926    0.00159815
     atom   27 type  3   force =    -0.00008597   -0.00187595    0.00153276
     atom   28 type  3   force =    -0.00008658   -0.00178758    0.00148903
     atom   29 type  3   force =     0.00046929    0.00062530    0.00042939
     atom   30 type  3   force =     0.00047229    0.00062627    0.00042832

     Total force =     0.022478     Total SCF correction =     0.002413
     SCF correction compared to forces is large: reduce conv_thr to get better values

     BFGS Geometry Optimization

     number of scf cycles    =   1
     number of bfgs steps    =   0

     energy   new            =   -1947.2372869403 Ry

     new trust radius        =       0.0113874863 bohr
     new conv_thr            =       0.0000010000 Ry


ATOMIC_POSITIONS (crystal)
O0       0.000000000   0.000000000   0.378700354    0   0   1
O0       0.000000000   0.500000000   0.400532217    0   0   1
Rh1      0.250000000   0.500000000   0.451908228    0   0   1
Rh1      0.000000000   0.000000000   0.453158913    0   0   1
O0       0.250000000   0.810000000   0.452784523    0   0   1
O0       0.250000000   0.190000000   0.452574604    0   0   1
O0       0.000000000   0.500000000   0.498707958    0   0   1
O0       0.000000000   0.000000000   0.528828081    0   0   1
Rh1      0.250000000   0.000000000   0.576381729    0   0   1
Rh1      0.000000000   0.500000000   0.571226431    0   0   1
O0       0.250000000   0.690000000   0.577774181    0   0   1
O0       0.250000000   0.310000000   0.577792005    0   0   1
O0       0.000000000   0.000000000   0.621711339    0   0   1
O0       0.500000000   0.000000000   0.378700369    0   0   1
O0       0.500000000   0.500000000   0.400532992    0   0   1
Rh1      0.750000000   0.500000000   0.451908253    0   0   1
Rh1      0.500000000   0.000000000   0.453158681    0   0   1
O0       0.750000000   0.810000000   0.452784512    0   0   1
O0       0.750000000   0.190000000   0.452574602    0   0   1
O0       0.500000000   0.500000000   0.498707398    0   0   1
O0       0.500000000   0.000000000   0.528827892    0   0   1
Rh1      0.750000000   0.000000000   0.576381700    0   0   1
Rh1      0.500000000   0.500000000   0.571226831    0   0   1
O0       0.750000000   0.690000000   0.577774365    0   0   1
O0       0.750000000   0.310000000   0.577792187    0   0   1
O0       0.500000000   0.000000000   0.621711992    0   0   1
H2      -0.000077314   0.638815725   0.384010683
H2       0.499922634   0.638812992   0.384009808
H2       0.148479926   0.032581424   0.367838596
H2       0.648480181   0.032581504   0.367838574


     Check: negative starting charge=   -0.642992
     NEW-OLD atomic charge density approx. for the potential

     Check: negative/imaginary core charge=   -0.000002    0.000000
     Check: negative starting charge=   -0.642991

     negative rho (up, down):  0.687E+00 0.000E+00
 Atomic wfc used for LDA+U Projector are NOT orthogonalized

     total cpu time spent up to now is     7760.5 secs

     per-process dynamical memory:   432.4 Mb

     Self-consistent Calculation

     iteration #  1     ecut=    40.00 Ry     beta=0.70
     Davidson diagonalization with overlap
     ethr =  1.00E-06,  avg # of iterations =  4.0
 --- enter write_ns ---
 LDA+U parameters:
U( 2)     =  2.50000000
alpha( 2) =  0.00000000
atom    3   Tr[ns(na)] =   8.02873
    eigenvalues: 
  0.585  0.602  0.900  0.959  0.968
    eigenvectors:
  0.000  0.210  0.003  0.000  0.787
  1.000  0.000  0.000  0.000  0.000
  0.000  0.000  0.997  0.000  0.003
  0.000  0.790  0.000  0.000  0.210
  0.000  0.000  0.000  0.999  0.000
    occupations:
  0.891 -0.000  0.002 -0.149 -0.000
 -0.000  0.585 -0.000 -0.000 -0.007
  0.002 -0.000  0.900 -0.005  0.001
 -0.149 -0.000 -0.005  0.679 -0.000
 -0.000 -0.007  0.001 -0.000  0.958
atom    4   Tr[ns(na)] =   8.01302
    eigenvalues: 
  0.602  0.650  0.865  0.915  0.975
    eigenvectors:
  0.001  0.992  0.000  0.000  0.007
  0.000  0.000  0.051  0.948  0.000
  0.000  0.000  0.949  0.051  0.000
  0.000  0.007  0.000  0.000  0.993
  0.999  0.001  0.000  0.000  0.000
    occupations:
  0.652 -0.004 -0.001  0.028  0.001
 -0.004  0.912  0.011  0.001 -0.001
 -0.001  0.011  0.867 -0.001  0.001
  0.028  0.001 -0.001  0.973  0.000
  0.001 -0.001  0.001  0.000  0.602
atom    9   Tr[ns(na)] =   8.00393
    eigenvalues: 
  0.635  0.649  0.856  0.884  0.978
    eigenvectors:
  0.000  0.155  0.000  0.000  0.845
  0.999  0.001  0.000  0.000  0.000
  0.000  0.000  1.000  0.000  0.000
  0.001  0.844  0.000  0.000  0.155
  0.000  0.000  0.000  1.000  0.000
    occupations:
  0.927  0.000 -0.000 -0.119 -0.001
  0.000  0.635  0.000  0.000 -0.000
 -0.000  0.000  0.856 -0.000 -0.000
 -0.119  0.000 -0.000  0.700  0.001
 -0.001 -0.000 -0.000  0.001  0.884
atom   10   Tr[ns(na)] =   8.00472
    eigenvalues: 
  0.595  0.599  0.916  0.919  0.973
    eigenvectors:
  0.000  0.995  0.000  0.000  0.005
  0.000  0.000  0.002  0.998  0.000
  0.000  0.000  0.998  0.002  0.000
  0.000  0.005  0.000  0.000  0.995
  1.000  0.000  0.000  0.000  0.000
    occupations:
  0.601  0.000  0.002  0.026 -0.000
  0.000  0.919 -0.000  0.000 -0.001
  0.002 -0.000  0.916  0.000  0.000
  0.026  0.000  0.000  0.971  0.000
 -0.000 -0.001  0.000  0.000  0.595
atom   16   Tr[ns(na)] =   8.02721
    eigenvalues: 
  0.585  0.602  0.900  0.959  0.968
    eigenvectors:
  0.000  0.210  0.003  0.000  0.787
  1.000  0.000  0.000  0.000  0.000
  0.000  0.000  0.997  0.000  0.003
  0.000  0.790  0.000  0.000  0.210
  0.000  0.000  0.000  0.999  0.000
    occupations:
  0.891 -0.000  0.002 -0.149 -0.000
 -0.000  0.585 -0.000 -0.000 -0.007
  0.002 -0.000  0.900 -0.005  0.001
 -0.149 -0.000 -0.005  0.679 -0.000
 -0.000 -0.007  0.001 -0.000  0.958
atom   17   Tr[ns(na)] =   8.01274
    eigenvalues: 
  0.602  0.650  0.865  0.915  0.975
    eigenvectors:
  0.001  0.992  0.000  0.000  0.007
  0.000  0.000  0.051  0.949  0.000
  0.000  0.000  0.949  0.051  0.000
  0.000  0.007  0.000  0.000  0.993
  0.999  0.001  0.000  0.000  0.000
    occupations:
  0.652 -0.004 -0.001  0.028  0.001
 -0.004  0.912  0.011  0.001 -0.001
 -0.001  0.011  0.867 -0.001  0.001
  0.028  0.001 -0.001  0.973  0.000
  0.001 -0.001  0.001  0.000  0.602
atom   22   Tr[ns(na)] =   8.00311
    eigenvalues: 
  0.635  0.648  0.856  0.884  0.978
    eigenvectors:
  0.000  0.155  0.000  0.000  0.845
  0.999  0.001  0.000  0.000  0.000
  0.000  0.000  1.000  0.000  0.000
  0.001  0.844  0.000  0.000  0.155
  0.000  0.000  0.000  1.000  0.000
    occupations:
  0.927  0.001 -0.000 -0.119 -0.001
  0.001  0.635  0.000  0.000 -0.000
 -0.000  0.000  0.856 -0.000 -0.000
 -0.119  0.000 -0.000  0.700  0.001
 -0.001 -0.000 -0.000  0.001  0.884
atom   23   Tr[ns(na)] =   8.00327
    eigenvalues: 
  0.595  0.599  0.915  0.919  0.973
    eigenvectors:
[...]
    -3.7507  -3.7506  -3.6507  -3.6507  -3.4606  -3.4606  -3.3874  -3.3874
    -2.7957  -2.7957  -2.6940  -2.6940  -2.5198  -2.5197  -2.3663  -2.3663
    -2.1253  -2.1253  -2.1095  -2.1095  -1.8254  -1.8254  -1.5864  -1.5864
    -0.8734  -0.8734   0.3602   0.3602   0.5812   0.5812   0.9887   0.9887
     1.0117   1.0117   1.0720   1.0720   1.0870   1.0870   1.8949   1.8949
     4.1694   4.1694   4.5453   4.5453   5.0150   5.0150   5.4122   5.4122
     5.8389   5.8389   6.4619   6.4619   6.8479   6.8479   6.9983   6.9983
     7.6337   7.6337   7.9906   7.9906   8.0702   8.0702   8.1467   8.1467
     8.5913   8.5913   8.6188   8.6188   8.7215   8.7215   9.0172   9.0172
     9.0741   9.0741   9.1650   9.1650   9.2827   9.2827   9.6790   9.6790
     9.7059   9.7059   9.8432   9.8432   9.9031   9.9031  10.0329  10.0329
    10.2359  10.2359  10.4693  10.4693  10.6735  10.6735  10.7897  10.7897
    11.2939  11.2939  11.4888  11.4888  11.6288  11.6288  11.6840  11.6840
    11.7965  11.7965  12.0683  12.0683  12.2513  12.2513  12.4415  12.4415
    12.5467  12.5467  12.7333  12.7333  12.8782  12.8782  13.0147  13.0147
    13.2546  13.2546  13.3705  13.3705  13.4902  13.4902  13.6641  13.6641
    13.7552  13.7553  13.8858  13.8858  14.0559  14.0559  14.2128  14.2128
    14.2756  14.2756  14.3774  14.3774  14.4517  14.4517  14.7382  14.7382
    14.8421  14.8421  15.0084  15.0084  15.1294  15.1294  15.5033  15.5033
    15.7860  15.7860  16.0633  16.0633  16.2214  16.2214  16.2588  16.2588
    16.2847  16.2847  16.3523  16.3523  16.4355  16.4355  16.5792  16.5792
    16.6186  16.6186  16.6582  16.6582  16.7451  16.7451  16.8239  16.8239
    17.0486  17.0486  17.1918  17.1918  17.4253  17.4253  17.6110  17.6110
    17.7964  17.7964  17.8932  17.8932  18.0948  18.0948  18.2969  18.2969
    18.3836  18.3836  18.4706  18.4706  18.7033  18.7034  18.7778  18.7778
    18.9014  18.9014  19.0398  19.0398  19.1338  19.1338  19.2263  19.2263
    19.3486  19.3486  19.4406  19.4406  19.5808  19.5808  19.6190  19.6190
    19.7327  19.7327  19.8212  19.8212  20.0090  20.0090  20.0702  20.0702
    20.1760  20.1760  20.2599  20.2599  20.3065  20.3065  20.4524  20.4524
    20.5759  20.5759  20.8043  20.8043  20.9515  20.9515  21.0079  21.0079
    21.1215  21.1215  21.1422  21.1423  21.3139  21.3139  21.3486  21.3486
    21.3835  21.3835  21.4769  21.4769

          k =-0.5000 0.2417 0.0000 ( 30500 PWs)   bands (ev):

   -49.0479 -49.0477 -49.0282 -49.0281 -49.0275 -49.0274 -48.9057 -48.9053
   -48.8977 -48.8977 -48.8688 -48.8686 -48.8634 -48.8632 -48.7267 -48.7265
   -48.6832 -48.6831 -48.6570 -48.6570 -48.6172 -48.6172 -48.5933 -48.5933
   -21.2355 -21.2352 -20.7281 -20.7278 -20.5607 -20.5606 -20.4532 -20.4532
   -20.1442 -20.1384 -20.0371 -20.0315 -20.0102 -20.0101 -19.8575 -19.8574
   -18.9744 -18.9744  -9.3343  -9.3329  -9.0662  -9.0642  -9.0281  -9.0272
    -8.7492  -8.7456  -8.6504  -8.6425  -8.4649  -8.4556  -8.3290  -8.3277
    -8.1124  -8.0535  -7.8564  -7.7990  -7.4759  -7.4208  -7.2719  -7.2615
    -7.1155  -7.0899  -7.0420  -6.9395  -6.7175  -6.6630  -6.5800  -6.5272
    -6.3323  -6.3223  -6.1920  -6.1824  -5.9641  -5.9240  -5.7780  -5.7729
    -5.7167  -5.7072  -5.6090  -5.5079  -5.1297  -5.0433  -4.9560  -4.9253
    -4.8173  -4.6510  -4.4965  -4.3468  -4.1075  -4.0855  -3.8190  -3.8020
    -3.5036  -3.4997  -3.3520  -3.3487  -3.2495  -3.2318  -3.1811  -3.1746
    -3.0347  -2.9488  -2.7909  -2.7728  -2.4771  -2.4639  -2.3377  -2.3369
    -2.1670  -2.1646  -2.0615  -2.0139  -1.9174  -1.8995  -1.7235  -1.7106
    -0.7518  -0.7515   0.2675   0.2767   0.3595   0.3602   0.6483   0.6490
     0.7909   0.7974   1.3203   1.3287   1.5843   1.5862   1.9788   1.9847
     4.3847   4.3960   4.6926   4.6926   5.2356   5.2358   5.5970   5.6039
     5.9475   5.9790   6.2399   6.2516   6.6444   6.6538   6.9820   6.9851
     7.0767   7.0845   7.1140   7.1222   7.5202   7.5351   7.8347   7.8429
     8.1196   8.1380   8.2841   8.3187   8.5777   8.6285   8.7448   8.7955
     9.0294   9.1267   9.4786   9.4857   9.7366   9.7486   9.8838   9.8905
    10.0114  10.0243  10.2034  10.2161  10.4256  10.4447  10.6340  10.6414
    10.7500  10.7595  10.9302  10.9360  10.9614  10.9625  11.1856  11.1973
    11.4834  11.5019  11.6569  11.6761  11.8584  11.8695  11.9482  11.9807
    12.0202  12.0426  12.1744  12.1752  12.3545  12.3711  12.5602  12.5687
    12.7281  12.7407  12.9348  12.9442  13.0195  13.0443  13.1330  13.1411
    13.2687  13.2782  13.3900  13.4169  13.5324  13.5452  13.6616  13.6717
    13.8586  13.8736  13.9093  13.9189  14.0741  14.0931  14.2562  14.2662
    14.3148  14.3375  14.5039  14.5136  14.5404  14.6041  14.6668  14.6871
    14.7927  14.8041  14.9361  14.9408  15.0209  15.0369  15.0934  15.1047
    15.2494  15.2570  15.4129  15.4243  15.4730  15.4745  15.8053  15.8112
    15.9397  15.9480  16.0950  16.1125  16.1554  16.1644  16.3418  16.3434
    16.3908  16.4282  16.4763  16.4835  16.5911  16.6037  16.6984  16.7190
    16.8663  16.8799  16.9944  17.0087  17.0251  17.1349  17.3001  17.3218
    17.4921  17.5074  17.6725  17.6776  17.7748  17.8040  17.8557  17.9370
    17.9765  18.0012  18.2896  18.2916  18.3366  18.3704  18.4500  18.4586
    18.5523  18.5571  18.7111  18.7264  18.7854  18.8062  18.9129  18.9210
    19.0419  19.0729  19.1661  19.1791  19.3718  19.4090  19.5053  19.5054
    19.5687  19.5856  19.6824  19.6930  19.8425  19.8561  20.0772  20.0820
    20.2041  20.2159  20.3573  20.3857  20.4662  20.4675  20.5831  20.6721
    20.7521  20.7613  20.8750  20.9103  21.0792  21.1150  21.3281  21.3321
    21.4589  21.4688  21.5501  21.5621  21.7091  21.7160  21.8485  21.8728
    21.9102  21.9611  22.1563  22.1703

          k =-0.5000-0.4833 0.0000 ( 30496 PWs)   bands (ev):

   -49.0479 -49.0478 -49.0283 -49.0283 -49.0275 -49.0275 -48.9050 -48.9050
   -48.8977 -48.8977 -48.8679 -48.8679 -48.8637 -48.8637 -48.7271 -48.7271
   -48.6830 -48.6830 -48.6570 -48.6570 -48.6174 -48.6174 -48.5933 -48.5933
   -21.2215 -21.2214 -20.6099 -20.6099 -20.5431 -20.5430 -20.3256 -20.3256
   -20.2774 -20.2774 -20.1879 -20.1879 -20.0412 -20.0412 -19.8562 -19.8562
   -18.9733 -18.9732  -9.3083  -9.3083  -8.7460  -8.7460  -8.7258  -8.7258
    -8.4865  -8.4865  -8.4516  -8.4516  -8.3632  -8.3632  -8.3526  -8.3526
    -8.1509  -8.1509  -7.9988  -7.9988  -7.7443  -7.7443  -7.4465  -7.4465
    -7.1360  -7.1360  -6.9419  -6.9418  -6.8001  -6.8001  -6.6093  -6.6093
    -6.4691  -6.4691  -6.3112  -6.3111  -6.2562  -6.2562  -6.1571  -6.1571
    -5.8615  -5.8615  -5.3063  -5.3063  -5.1213  -5.1213  -4.8029  -4.8029
    -4.7736  -4.7736  -4.4188  -4.4188  -3.9731  -3.9731  -3.7330  -3.7330
    -3.4163  -3.4163  -3.3729  -3.3729  -3.2143  -3.2143  -3.0606  -3.0606
    -2.8674  -2.8674  -2.8418  -2.8418  -2.3323  -2.3323  -2.2865  -2.2865
    -2.1216  -2.1216  -2.0509  -2.0509  -1.9325  -1.9325  -1.8635  -1.8635
    -0.6628  -0.6628  -0.0435  -0.0434   0.0533   0.0533   0.6617   0.6617
     0.8091   0.8091   1.5265   1.5265   1.7720   1.7720   2.0572   2.0572
     4.7907   4.7907   4.9174   4.9174   5.3737   5.3737   5.8674   5.8674
     5.9192   5.9192   6.0649   6.0649   6.2851   6.2851   6.5365   6.5365
     6.7352   6.7352   7.0399   7.0399   7.3887   7.3887   7.6236   7.6236
     7.8029   7.8029   7.8955   7.8955   8.4199   8.4199   8.8106   8.8106
     8.9735   8.9735   9.2640   9.2640   9.5503   9.5503  10.0031  10.0031
    10.2158  10.2158  10.4794  10.4794  10.7260  10.7260  11.0657  11.0657
    11.3035  11.3035  11.4011  11.4011  11.4479  11.4479  11.8289  11.8289
    11.9511  11.9511  12.1244  12.1244  12.2886  12.2886  12.4866  12.4866
    12.5726  12.5726  12.7343  12.7343  12.8462  12.8462  12.9065  12.9065
    12.9806  12.9806  13.1271  13.1271  13.2168  13.2168  13.2606  13.2606
    13.4362  13.4362  13.5166  13.5166  13.5657  13.5657  13.6044  13.6044
    13.7057  13.7057  13.7880  13.7880  13.9685  13.9685  13.9962  13.9962
    14.0767  14.0767  14.1479  14.1479  14.3159  14.3159  14.3312  14.3312
    14.4988  14.4988  14.6001  14.6001  14.7603  14.7603  14.9512  14.9512
    15.1023  15.1023  15.1535  15.1535  15.2015  15.2015  15.2846  15.2846
    15.4735  15.4735  15.5897  15.5897  15.6347  15.6347  15.8307  15.8307
    15.9530  15.9530  16.0240  16.0240  16.2149  16.2149  16.4241  16.4241
    16.5428  16.5428  16.7355  16.7355  16.9121  16.9121  16.9969  16.9969
    17.0966  17.0966  17.3314  17.3314  17.4824  17.4824  17.6306  17.6306
    18.0186  18.0186  18.0461  18.0461  18.1835  18.1835  18.2704  18.2704
    18.3540  18.3540  18.6007  18.6008  18.8041  18.8041  19.1407  19.1408
    19.2955  19.2955  19.4263  19.4263  19.5368  19.5368  19.6577  19.6577
    20.1192  20.1192  20.2249  20.2250  20.2931  20.2931  20.6199  20.6199
    20.6939  20.6939  20.7796  20.7796  20.8708  20.8708  20.9523  20.9523
    21.0444  21.0444  21.1310  21.1310  21.2463  21.2463  21.3295  21.3295
    21.4402  21.4402  21.4702  21.4702  21.5782  21.5782  21.6426  21.6426
    21.6705  21.6705  21.8519  21.8519

          k =-0.2500 0.2417 0.0000 ( 30481 PWs)   bands (ev):

   -49.0810 -49.0401 -49.0307 -49.0304 -49.0257 -48.9994 -48.9082 -48.9080
   -48.9042 -48.9005 -48.9005 -48.8948 -48.8273 -48.8208 -48.7293 -48.7239
   -48.7205 -48.6630 -48.6517 -48.6430 -48.6236 -48.6108 -48.5996 -48.5869
   -21.4128 -21.1316 -20.9283 -20.8238 -20.5628 -20.4632 -20.3726 -20.3639
   -20.2380 -20.1848 -20.0799 -20.0453 -20.0109 -19.8785 -19.8168 -19.7720
   -18.9785 -18.8673  -9.7434  -9.5618  -9.5313  -9.2920  -8.9445  -8.8518
    -8.7368  -8.6703  -8.6685  -8.5511  -8.5197  -8.4276  -8.4210  -8.2580
    -8.1373  -8.1008  -7.9164  -7.8509  -7.5397  -7.4130  -7.3470  -7.2497
    -7.0866  -6.8779  -6.8643  -6.7057  -6.6865  -6.4358  -6.3908  -6.2793
    -6.2645  -6.1797  -6.1031  -6.0055  -5.9430  -5.8944  -5.8283  -5.7494
    -5.5794  -5.4607  -5.3658  -5.2645  -5.0966  -4.9342  -4.8904  -4.8233
    -4.6803  -4.5814  -4.4691  -4.3864  -4.0769  -4.0437  -3.9574  -3.7828
    -3.7649  -3.6276  -3.6044  -3.5660  -3.4310  -3.4239  -3.2771  -3.2539
    -3.2086  -3.0927  -3.0113  -2.9678  -2.8601  -2.8185  -2.5717  -2.3746
    -2.1181  -2.0318  -1.9912  -1.9023  -1.8779  -1.6747  -1.5060  -1.4507
    -1.0053  -0.7347  -0.3211  -0.1639   0.3743   0.5066   0.5762   0.8717
     1.0818   1.3455   1.5041   1.5797   1.7467   1.7882   1.8980   2.1141
     3.6245   3.9659   4.5005   4.8962   5.2764   5.4416   5.5065   5.7530
     5.9557   6.2178   6.3425   6.3969   6.4078   6.6603   6.8007   6.9545
     7.1975   7.3490   7.4393   7.6198   7.6991   7.8597   8.0258   8.0386
     8.0924   8.2375   8.3871   8.3975   8.6278   8.7591   8.8189   8.8847
     8.9036   9.1801   9.3320   9.4283   9.5382   9.6370   9.6761   9.7238
     9.8554   9.9088  10.1246  10.1587  10.2572  10.2868  10.3514  10.5058
    10.5829  10.6445  10.7757  10.8325  10.8719  10.9976  11.0229  11.1892
    11.3177  11.3230  11.4288  11.4589  11.5036  11.5859  11.6930  11.7255
    11.8136  12.0011  12.1069  12.1478  12.1551  12.2135  12.2516  12.3695
    12.4294  12.5088  12.5833  12.6065  12.7051  12.7821  12.8877  12.9977
    13.0483  13.1082  13.2238  13.2364  13.3377  13.3669  13.4371  13.5403
    13.6513  13.6996  13.7952  13.8500  13.8552  14.0613  14.0904  14.1293
    14.1708  14.2700  14.3706  14.4712  14.5630  14.5706  14.6583  14.7200
    14.7926  15.0477  15.2269  15.2975  15.3640  15.4198  15.4734  15.4879
    15.5323  15.6177  15.6858  15.6989  15.7877  15.7929  15.9581  15.9943
    16.0597  16.0708  16.1847  16.2885  16.3283  16.3627  16.4004  16.4895
    16.5383  16.5645  16.6089  16.6309  16.7311  16.8186  16.9807  16.9864
    17.1323  17.2061  17.2217  17.3260  17.3271  17.4163  17.4911  17.5296
    17.5709  17.6262  17.7422  17.7657  17.8724  17.8865  18.0509  18.0650
    18.0988  18.1493  18.2454  18.3488  18.4150  18.4874  18.4999  18.6558
    18.7243  18.8627  18.8644  18.9178  18.9781  19.0290  19.0685  19.1418
    19.2067  19.2225  19.3024  19.4635  19.4674  19.5550  19.6710  19.7225
    19.7477  19.9091  19.9111  20.0327  20.1353  20.2243  20.3061  20.3372
    20.4570  20.5430  20.6120  20.6600  20.6667  20.7500  20.8373  20.8988
    20.9380  21.0263  21.1114  21.1200  21.1722  21.2462  21.3211  21.3635
    21.4024  21.4392  21.5621  21.6376  21.6647  21.7187  21.7935  21.8472
    21.8537  21.9172  22.0057  22.1075

     the Fermi energy is    -1.8876 ev

!    total energy              =   -1947.23827674 Ry
     Harris-Foulkes estimate   =   -1947.23827674 Ry
     estimated scf accuracy    <          2.8E-09 Ry

     The total energy is the sum of the following terms:

     one-electron contribution =  -22618.75987206 Ry
     hartree contribution      =   11355.78866299 Ry
     xc contribution           =    -365.14133333 Ry
     ewald contribution        =    9679.88596811 Ry
     Hubbard energy            =       0.98962859 Ry
     smearing contrib. (-TS)   =      -0.00133104 Ry

     convergence has been achieved in  15 iterations

     Forces acting on atoms (Ry/au):


     negative rho (up, down):  0.688E+00 0.000E+00
     atom    1 type  1   force =    -0.00676549   -0.01312672    0.00014588
     atom    2 type  1   force =     0.00009987    0.00471165   -0.00045193
     atom    3 type  2   force =    -0.00012209    0.00474414   -0.00038599
     atom    4 type  2   force =     0.00829599    0.00877534   -0.00009059
     atom    5 type  1   force =    -0.00177073   -0.02963595    0.00002201
     atom    6 type  1   force =     0.00289391    0.02661267    0.00002124
     atom    7 type  1   force =    -0.00029511   -0.00081470    0.00049810
     atom    8 type  1   force =    -0.00291484   -0.00062802   -0.00015616
     atom    9 type  2   force =     0.00123133   -0.00017764   -0.00038236
     atom   10 type  2   force =     0.00002218   -0.00181617    0.00026578
     atom   11 type  1   force =    -0.00015959    0.00867866    0.00012976
     atom   12 type  1   force =     0.00030910   -0.00805772    0.00014928
     atom   13 type  1   force =    -0.00072538   -0.00003036   -0.00026752
     atom   14 type  1   force =    -0.00676049   -0.01312551    0.00015126
     atom   15 type  1   force =     0.00009864    0.00470790   -0.00045136
     atom   16 type  2   force =    -0.00011888    0.00474428   -0.00038544
     atom   17 type  2   force =     0.00829436    0.00877520   -0.00009227
     atom   18 type  1   force =    -0.00177244   -0.02963560    0.00002235
     atom   19 type  1   force =     0.00289217    0.02661223    0.00002134
     atom   20 type  1   force =    -0.00029610   -0.00081479    0.00050070
     atom   21 type  1   force =    -0.00291374   -0.00062799   -0.00016636
     atom   22 type  2   force =     0.00123265   -0.00017772   -0.00038313
     atom   23 type  2   force =     0.00002240   -0.00181645    0.00026628
     atom   24 type  1   force =    -0.00015492    0.00867916    0.00012987
     atom   25 type  1   force =     0.00031370   -0.00805817    0.00014943
     atom   26 type  1   force =    -0.00072454   -0.00003036   -0.00026434
     atom   27 type  3   force =     0.00001330    0.00047079    0.00055356
     atom   28 type  3   force =     0.00001331    0.00047397    0.00055278
     atom   29 type  3   force =    -0.00011811    0.00029421   -0.00005097
     atom   30 type  3   force =    -0.00012044    0.00029365   -0.00005123

     Total force =     0.001800     Total SCF correction =     0.000155

     bfgs converged in   9 scf cycles and   8 bfgs steps
     (criteria: energy < 0.10E-03, force < 0.10E-02)

     End of BFGS Geometry Optimization

     Final energy   =   -1947.2382767381 Ry
Begin final coordinates

ATOMIC_POSITIONS (crystal)
O0       0.000000000   0.000000000   0.378763132    0   0   1
O0       0.000000000   0.500000000   0.401182009    0   0   1
Rh1      0.250000000   0.500000000   0.452406701    0   0   1
Rh1      0.000000000   0.000000000   0.453145774    0   0   1
O0       0.250000000   0.810000000   0.452838381    0   0   1
O0       0.250000000   0.190000000   0.452637120    0   0   1
O0       0.000000000   0.500000000   0.499076243    0   0   1
O0       0.000000000   0.000000000   0.528633481    0   0   1
Rh1      0.250000000   0.000000000   0.576058430    0   0   1
Rh1      0.000000000   0.500000000   0.571301737    0   0   1
O0       0.250000000   0.690000000   0.576969531    0   0   1
O0       0.250000000   0.310000000   0.576981776    0   0   1
O0       0.000000000   0.000000000   0.621428781    0   0   1
O0       0.500000000   0.000000000   0.378762996    0   0   1
O0       0.500000000   0.500000000   0.401182001    0   0   1
Rh1      0.750000000   0.500000000   0.452406677    0   0   1
Rh1      0.500000000   0.000000000   0.453145833    0   0   1
O0       0.750000000   0.810000000   0.452838350    0   0   1
O0       0.750000000   0.190000000   0.452637100    0   0   1
O0       0.500000000   0.500000000   0.499076015    0   0   1
O0       0.500000000   0.000000000   0.528633873    0   0   1
Rh1      0.750000000   0.000000000   0.576058471    0   0   1
Rh1      0.500000000   0.500000000   0.571301729    0   0   1
O0       0.750000000   0.690000000   0.576969538    0   0   1
O0       0.750000000   0.310000000   0.576981777    0   0   1
O0       0.500000000   0.000000000   0.621428679    0   0   1
H2      -0.000176685   0.638239958   0.384449955
H2       0.499823279   0.638238970   0.384449621
H2       0.148423559   0.033409788   0.368057037
H2       0.648424306   0.033409802   0.368057252
End final coordinates



     init_run     :    114.22s CPU    116.44s WALL (       1 calls)
     electrons    :  33650.56s CPU  34412.11s WALL (       9 calls)
     update_pot   :    159.56s CPU    163.09s WALL (       8 calls)
     forces       :   1266.59s CPU   1280.57s WALL (       9 calls)

     Called by init_run:
     wfcinit      :     37.06s CPU     38.06s WALL (       1 calls)
     potinit      :      7.26s CPU      7.38s WALL (       1 calls)

     Called by electrons:
     c_bands      :  16618.00s CPU  17032.50s WALL (     176 calls)
     sum_band     :   6966.97s CPU   7113.70s WALL (     176 calls)
     v_of_rho     :    193.34s CPU    203.29s WALL (     180 calls)
     newd         :  10325.28s CPU  10365.45s WALL (     180 calls)
     mix_rho      :     37.35s CPU     37.94s WALL (     176 calls)

     Called by c_bands:
     init_us_2    :     47.00s CPU     47.49s WALL (    1140 calls)
     cegterg      :  16365.02s CPU  16739.06s WALL (     528 calls)

     Called by *egterg:
     h_psi        :   9691.43s CPU   9891.27s WALL (    1468 calls)
     s_psi        :    986.51s CPU    998.84s WALL (    1522 calls)
     g_psi        :     20.19s CPU     20.22s WALL (     937 calls)
     cdiaghg      :   1415.97s CPU   1420.27s WALL (    1426 calls)

     Called by h_psi:
     add_vuspsi   :    955.82s CPU    968.56s WALL (    1468 calls)
     vhpsi        :   1006.25s CPU   1014.49s WALL (    1468 calls)

     General routines
     calbec       :   2301.25s CPU   2324.92s WALL (   11390 calls)
     fft          :    244.41s CPU    290.66s WALL (    2971 calls)
     ffts         :      3.00s CPU      3.10s WALL (     356 calls)
     fftw         :   5252.13s CPU   5461.73s WALL (  958572 calls)
     interpolate  :     29.94s CPU     30.35s WALL (     356 calls)
     davcio       :      0.09s CPU     19.03s WALL (    1167 calls)

     Parallel routines
     fft_scatter  :   1971.80s CPU   2214.21s WALL (  961899 calls)
     Hubbard U routines
     new_ns       :    204.68s CPU    216.94s WALL (     176 calls)
     vhpsi        :   1006.25s CPU   1014.49s WALL (    1468 calls)
     force_hub    :    328.99s CPU    338.23s WALL (       9 calls)

     PWSCF        :     9h56m CPU       10h 9m WALL


   This run was terminated on:   9:26:24   9May2014            

=------------------------------------------------------------------------------=
   JOB DONE.
=------------------------------------------------------------------------------=
