
     Program PWSCF v.5.0.2 (svn rev. 9656) starts on 23Jan2014 at 18:16:53 

     This program is part of the open-source Quantum ESPRESSO suite
     for quantum simulation of materials; please cite
         "P. Giannozzi et al., J. Phys.:Condens. Matter 21 395502 (2009);
          URL http://www.quantum-espresso.org", 
     in publications or presentations arising from this work. More details at
     http://www.quantum-espresso.org/quote.php

     Parallel version (MPI), running on     4 processors
     R & G space division:  proc/nbgrp/npool/nimage =       4

     Current dimensions of program PWSCF are:
     Max number of different atomic species (ntypx) = 10
     Max number of k-points (npk) =  40000
     Max angular momentum in pseudopotentials (lmaxx) =  3
     Reading input from TiO2-v-1.1.in

     Subspace diagonalization in iterative solution of the eigenvalue problem:
     a serial algorithm will be used


     Parallelization info
     --------------------
     sticks:   dense  smooth     PW     G-vecs:    dense   smooth      PW
     Min         793     251     73                21699     3925     645
     Max         794     252     74                21700     3935     648
     Sum        3173    1005    293                86797    15723    2585



     bravais-lattice index     =            0
     lattice parameter (alat)  =       8.9385  a.u.
     unit-cell volume          =     460.2364 (a.u.)^3
     number of atoms/cell      =            6
     number of atomic types    =            2
     number of electrons       =        48.00
     number of Kohn-Sham states=           69
     kinetic-energy cutoff     =      40.0000  Ry
     charge density cutoff     =     500.0000  Ry
     convergence threshold     =      1.0E-06
     mixing beta               =       0.7000
     number of iterations used =            8  plain     mixing
     Exchange-correlation      = SLA  PW   PBE  PBE ( 1 4 3 4 0)
     EXX-fraction              =        0.00
     nstep                     =           50


     celldm(1)=   8.938511  celldm(2)=   0.000000  celldm(3)=   0.000000
     celldm(4)=   0.000000  celldm(5)=   0.000000  celldm(6)=   0.000000

     crystal axes: (cart. coord. in units of alat)
               a(1) = (   1.000000   0.000000   0.000000 )  
               a(2) = (   0.000000   1.000000   0.000000 )  
               a(3) = (   0.000000   0.000000   0.644444 )  

     reciprocal axes: (cart. coord. in units 2 pi/alat)
               b(1) = (  1.000000  0.000000  0.000000 )  
               b(2) = (  0.000000  1.000000  0.000000 )  
               b(3) = (  0.000000  0.000000  1.551724 )  


     PseudoPot. # 1 for Ti read from file:
     /home/camp/zhonxu/pseudo/ti_pbe_v1.uspp.F.UPF
     MD5 check sum: bcc8f6961b3b91f0cac3ca967d22d0fb
     Pseudo is Ultrasoft + core correction, Zval = 12.0
     Generated by new atomic code, or converted to UPF format
     Using radial grid of  851 points,  6 beta functions with: 
                l(1) =   0
                l(2) =   0
                l(3) =   1
                l(4) =   1
                l(5) =   2
                l(6) =   2
     Q(r) pseudized with  6 coefficients,  rinner =    1.000   1.000   1.000
                                                       1.000   1.000

     PseudoPot. # 2 for O  read from file:
     /home/camp/zhonxu/pseudo/o_pbe_v1.01.uspp.F.UPF
     MD5 check sum: 2bcb18d16ea4b960afae9ec6d52f22d2
     Pseudo is Ultrasoft + core correction, Zval =  6.0
     Generated by new atomic code, or converted to UPF format
     Using radial grid of  737 points,  5 beta functions with: 
                l(1) =   0
                l(2) =   0
                l(3) =   1
                l(4) =   1
                l(5) =   2
     Q(r) pseudized with  8 coefficients,  rinner =    0.900   0.900   0.900
                                                       0.900   0.900

     atomic species   valence    mass     pseudopotential
        Ti0           12.00    47.88000     Ti( 1.00)
        O1             6.00    15.99940     O ( 1.00)

     Starting magnetic structure 
     atomic species   magnetization
        Ti0          0.600
        O1           0.000

      8 Sym. Ops., with inversion, found
          (note:  8 additional sym.ops. were found but ignored
           their fractional translations are incommensurate with FFT grid)


   Cartesian axes

     site n.     atom                  positions (alat units)
         1           Ti0 tau(   1) = (   0.0000000   0.0000000   0.0000000  )
         2           Ti0 tau(   2) = (   0.5000000   0.5000000   0.3222222  )
         3           O1  tau(   3) = (   0.3050000   0.3050000   0.0000000  )
         4           O1  tau(   4) = (  -0.3050000  -0.3050000   0.0000000  )
         5           O1  tau(   5) = (   0.8050000   0.1950000   0.3222222  )
         6           O1  tau(   6) = (   0.1950000   0.8050000   0.3222222  )

     number of k points=    54  Methfessel-Paxton smearing, width (Ry)=  0.0100
                       cart. coord. in units 2pi/alat
        k(    1) = (   0.0000000   0.0000000   0.0000000), wk =   0.0080000
        k(    2) = (   0.0000000   0.0000000   0.3103448), wk =   0.0160000
        k(    3) = (   0.0000000   0.0000000   0.6206897), wk =   0.0160000
        k(    4) = (   0.0000000   0.2000000   0.0000000), wk =   0.0320000
        k(    5) = (   0.0000000   0.2000000   0.3103448), wk =   0.0640000
        k(    6) = (   0.0000000   0.2000000   0.6206897), wk =   0.0640000
        k(    7) = (   0.0000000   0.4000000   0.0000000), wk =   0.0320000
        k(    8) = (   0.0000000   0.4000000   0.3103448), wk =   0.0640000
        k(    9) = (   0.0000000   0.4000000   0.6206897), wk =   0.0640000
        k(   10) = (   0.2000000   0.2000000   0.0000000), wk =   0.0160000
        k(   11) = (   0.2000000   0.2000000   0.3103448), wk =   0.0320000
        k(   12) = (   0.2000000   0.2000000   0.6206897), wk =   0.0320000
        k(   13) = (   0.2000000   0.4000000   0.0000000), wk =   0.0320000
        k(   14) = (   0.2000000   0.4000000   0.3103448), wk =   0.0640000
        k(   15) = (   0.2000000   0.4000000   0.6206897), wk =   0.0640000
        k(   16) = (   0.4000000   0.4000000   0.0000000), wk =   0.0160000
        k(   17) = (   0.4000000   0.4000000   0.3103448), wk =   0.0320000
        k(   18) = (   0.4000000   0.4000000   0.6206897), wk =   0.0320000
        k(   19) = (  -0.2000000   0.2000000   0.0000000), wk =   0.0160000
        k(   20) = (  -0.2000000   0.2000000  -0.3103448), wk =   0.0320000
        k(   21) = (  -0.2000000   0.2000000  -0.6206897), wk =   0.0320000
        k(   22) = (  -0.2000000   0.4000000   0.0000000), wk =   0.0320000
        k(   23) = (  -0.2000000   0.4000000  -0.3103448), wk =   0.0640000
        k(   24) = (  -0.2000000   0.4000000  -0.6206897), wk =   0.0640000
        k(   25) = (  -0.4000000   0.4000000   0.0000000), wk =   0.0160000
        k(   26) = (  -0.4000000   0.4000000  -0.3103448), wk =   0.0320000
        k(   27) = (  -0.4000000   0.4000000  -0.6206897), wk =   0.0320000
        k(   28) = (   0.0000000   0.0000000   0.0000000), wk =   0.0080000
        k(   29) = (   0.0000000   0.0000000   0.3103448), wk =   0.0160000
        k(   30) = (   0.0000000   0.0000000   0.6206897), wk =   0.0160000
        k(   31) = (   0.0000000   0.2000000   0.0000000), wk =   0.0320000
        k(   32) = (   0.0000000   0.2000000   0.3103448), wk =   0.0640000
        k(   33) = (   0.0000000   0.2000000   0.6206897), wk =   0.0640000
        k(   34) = (   0.0000000   0.4000000   0.0000000), wk =   0.0320000
        k(   35) = (   0.0000000   0.4000000   0.3103448), wk =   0.0640000
        k(   36) = (   0.0000000   0.4000000   0.6206897), wk =   0.0640000
        k(   37) = (   0.2000000   0.2000000   0.0000000), wk =   0.0160000
        k(   38) = (   0.2000000   0.2000000   0.3103448), wk =   0.0320000
        k(   39) = (   0.2000000   0.2000000   0.6206897), wk =   0.0320000
        k(   40) = (   0.2000000   0.4000000   0.0000000), wk =   0.0320000
        k(   41) = (   0.2000000   0.4000000   0.3103448), wk =   0.0640000
        k(   42) = (   0.2000000   0.4000000   0.6206897), wk =   0.0640000
        k(   43) = (   0.4000000   0.4000000   0.0000000), wk =   0.0160000
        k(   44) = (   0.4000000   0.4000000   0.3103448), wk =   0.0320000
        k(   45) = (   0.4000000   0.4000000   0.6206897), wk =   0.0320000
        k(   46) = (  -0.2000000   0.2000000   0.0000000), wk =   0.0160000
        k(   47) = (  -0.2000000   0.2000000  -0.3103448), wk =   0.0320000
        k(   48) = (  -0.2000000   0.2000000  -0.6206897), wk =   0.0320000
        k(   49) = (  -0.2000000   0.4000000   0.0000000), wk =   0.0320000
        k(   50) = (  -0.2000000   0.4000000  -0.3103448), wk =   0.0640000
        k(   51) = (  -0.2000000   0.4000000  -0.6206897), wk =   0.0640000
        k(   52) = (  -0.4000000   0.4000000   0.0000000), wk =   0.0160000
        k(   53) = (  -0.4000000   0.4000000  -0.3103448), wk =   0.0320000
        k(   54) = (  -0.4000000   0.4000000  -0.6206897), wk =   0.0320000

     Dense  grid:    86797 G-vectors     FFT dimensions: (  64,  64,  45)

     Smooth grid:    15723 G-vectors     FFT dimensions: (  36,  36,  24)

     Largest allocated arrays     est. size (Mb)     dimensions
        Kohn-Sham Wavefunctions         0.53 Mb     (    503,   69)
        NL pseudopotentials             0.68 Mb     (    503,   88)
        Each V/rho on FFT grid          1.50 Mb     (  49152,   2)
        Each G-vector array             0.17 Mb     (  21700)
        G-vector shells                 0.17 Mb     (  21700)
     Largest temporary arrays     est. size (Mb)     dimensions
        Auxiliary wavefunctions         2.12 Mb     (    503,  276)
        Each subspace H/S matrix        1.16 Mb     ( 276, 276)
        Each <psi_i|beta_j> matrix      0.09 Mb     (     88,   69)
        Arrays for rho mixing           6.00 Mb     (  49152,   8)

     Check: negative/imaginary core charge=   -0.000014    0.000000

     Initial potential from superposition of free atoms
     Check: negative starting charge=(component1):   -0.020156
     Check: negative starting charge=(component2):   -0.004969

     starting charge   45.99991, renormalised to   48.00000

     negative rho (up, down):  0.210E-01 0.518E-02
     Starting wfc are   36 randomized atomic wfcs

     total cpu time spent up to now is       12.7 secs

     per-process dynamical memory:    58.4 Mb

     Self-consistent Calculation

     iteration #  1     ecut=    40.00 Ry     beta=0.70
     Davidson diagonalization with overlap
     ethr =  1.00E-02,  avg # of iterations =  5.1

     negative rho (up, down):  0.160E-01 0.125E-01

     total cpu time spent up to now is       71.9 secs

     total energy              =    -365.60122795 Ry
     Harris-Foulkes estimate   =    -365.22226759 Ry
     estimated scf accuracy    <       2.62511054 Ry

     total magnetization       =     0.00 Bohr mag/cell
     absolute magnetization    =     1.83 Bohr mag/cell

     iteration #  2     ecut=    40.00 Ry     beta=0.70
     Davidson diagonalization with overlap
     ethr =  5.47E-03,  avg # of iterations =  1.8

     negative rho (up, down):  0.112E-01 0.969E-02

     total cpu time spent up to now is       99.4 secs

     total energy              =    -361.72033228 Ry
     Harris-Foulkes estimate   =    -368.62732793 Ry
     estimated scf accuracy    <      30.84555929 Ry

     total magnetization       =     1.92 Bohr mag/cell
     absolute magnetization    =     3.62 Bohr mag/cell

     iteration #  3     ecut=    40.00 Ry     beta=0.70
     Davidson diagonalization with overlap
     ethr =  5.47E-03,  avg # of iterations =  1.1

     negative rho (up, down):  0.880E-02 0.119E-01

     total cpu time spent up to now is      123.3 secs

     total energy              =    -366.52420294 Ry
     Harris-Foulkes estimate   =    -366.58416273 Ry
     estimated scf accuracy    <       1.15649079 Ry

     total magnetization       =     0.00 Bohr mag/cell
     absolute magnetization    =     0.84 Bohr mag/cell

     iteration #  4     ecut=    40.00 Ry     beta=0.70
     Davidson diagonalization with overlap
     ethr =  2.41E-03,  avg # of iterations =  1.0

     negative rho (up, down):  0.993E-02 0.122E-01

     total cpu time spent up to now is      146.9 secs

     total energy              =    -366.50623402 Ry
     Harris-Foulkes estimate   =    -366.56381316 Ry
     estimated scf accuracy    <       0.36066685 Ry

     total magnetization       =    -0.00 Bohr mag/cell
     absolute magnetization    =     0.30 Bohr mag/cell

     iteration #  5     ecut=    40.00 Ry     beta=0.70
     Davidson diagonalization with overlap
     ethr =  7.51E-04,  avg # of iterations =  1.0

     negative rho (up, down):  0.117E-01 0.125E-01

     total cpu time spent up to now is      170.2 secs

     total energy              =    -366.46648975 Ry
     Harris-Foulkes estimate   =    -366.51444119 Ry
     estimated scf accuracy    <       0.14533284 Ry

     total magnetization       =     0.00 Bohr mag/cell
     absolute magnetization    =     0.22 Bohr mag/cell

     iteration #  6     ecut=    40.00 Ry     beta=0.70
     Davidson diagonalization with overlap
     ethr =  3.03E-04,  avg # of iterations =  1.1

     negative rho (up, down):  0.125E-01 0.125E-01

     total cpu time spent up to now is      193.1 secs

     total energy              =    -366.48706908 Ry
     Harris-Foulkes estimate   =    -366.48701193 Ry
     estimated scf accuracy    <       0.00030094 Ry

     total magnetization       =     0.00 Bohr mag/cell
     absolute magnetization    =     0.07 Bohr mag/cell

     iteration #  7     ecut=    40.00 Ry     beta=0.70
     Davidson diagonalization with overlap
     ethr =  6.27E-07,  avg # of iterations =  4.6

     negative rho (up, down):  0.124E-01 0.124E-01

     total cpu time spent up to now is      234.4 secs

     total energy              =    -366.48693999 Ry
     Harris-Foulkes estimate   =    -366.48773716 Ry
     estimated scf accuracy    <       0.00338151 Ry

     total magnetization       =    -0.00 Bohr mag/cell
     absolute magnetization    =     0.01 Bohr mag/cell

     iteration #  8     ecut=    40.00 Ry     beta=0.70
     Davidson diagonalization with overlap
     ethr =  6.27E-07,  avg # of iterations =  1.1

     negative rho (up, down):  0.124E-01 0.123E-01

     total cpu time spent up to now is      257.5 secs

     total energy              =    -366.48713483 Ry
     Harris-Foulkes estimate   =    -366.48719463 Ry
     estimated scf accuracy    <       0.00033245 Ry

     total magnetization       =     0.00 Bohr mag/cell
     absolute magnetization    =     0.00 Bohr mag/cell

     iteration #  9     ecut=    40.00 Ry     beta=0.70
     Davidson diagonalization with overlap
     ethr =  6.27E-07,  avg # of iterations =  1.0

     negative rho (up, down):  0.123E-01 0.123E-01

     total cpu time spent up to now is      280.2 secs

     total energy              =    -366.48713702 Ry
     Harris-Foulkes estimate   =    -366.48715236 Ry
     estimated scf accuracy    <       0.00009571 Ry

     total magnetization       =     0.00 Bohr mag/cell
     absolute magnetization    =     0.00 Bohr mag/cell

     iteration # 10     ecut=    40.00 Ry     beta=0.70
     Davidson diagonalization with overlap
     ethr =  1.99E-07,  avg # of iterations =  1.0

     negative rho (up, down):  0.123E-01 0.123E-01

     total cpu time spent up to now is      321.0 secs

     total energy              =    -366.48713756 Ry
     Harris-Foulkes estimate   =    -366.48714124 Ry
     estimated scf accuracy    <       0.00003037 Ry

     total magnetization       =     0.00 Bohr mag/cell
     absolute magnetization    =     0.00 Bohr mag/cell

     iteration # 11     ecut=    40.00 Ry     beta=0.70
     Davidson diagonalization with overlap
     ethr =  6.33E-08,  avg # of iterations =  1.0

     negative rho (up, down):  0.123E-01 0.123E-01

     total cpu time spent up to now is      343.7 secs

     total energy              =    -366.48713409 Ry
     Harris-Foulkes estimate   =    -366.48713836 Ry
     estimated scf accuracy    <       0.00001390 Ry

     total magnetization       =     0.00 Bohr mag/cell
     absolute magnetization    =     0.00 Bohr mag/cell

     iteration # 12     ecut=    40.00 Ry     beta=0.70
     Davidson diagonalization with overlap
     ethr =  2.90E-08,  avg # of iterations =  1.0

     negative rho (up, down):  0.123E-01 0.123E-01

     total cpu time spent up to now is      366.3 secs

     End of self-consistent calculation

 ------ SPIN UP ------------


          k = 0.0000 0.0000 0.0000 (  1955 PWs)   bands (ev):

   -49.2858 -49.2755 -25.5275 -25.5275 -25.4122 -25.4122 -25.3853 -25.3612
    -9.8988  -8.8515  -8.3053  -8.3053   2.5065   2.9938   3.5332   4.3753
     4.3753   5.5092   5.5092   5.9930   7.1859   7.4727   7.4727   7.9065
     9.5812   9.8365  10.0425  10.1170  10.1170  11.6642  11.9302  13.7917
    13.7917  14.6431  15.1306  18.9969  18.9969  21.7771  22.7996  23.5961
    24.7106  26.1274  26.1274  26.8203  27.9300  29.7119  31.0111  31.0111
    31.8327  32.4888  32.4888  32.8391  32.8391  32.8902  33.3608  35.1784
    37.3641  37.5389  38.2159  38.6964  38.6964  39.9884  39.9884  40.1042
    42.2805  42.2805  42.2931  43.3487  45.5489

          k = 0.0000 0.0000 0.3103 (  1947 PWs)   bands (ev):

   -49.2756 -49.2672 -25.4988 -25.4988 -25.4943 -25.4759 -25.4082 -25.4082
    -9.5774  -8.6996  -8.4328  -8.4328   2.9907   3.3349   3.9468   4.1395
     4.1395   5.1005   5.9983   6.0508   6.0508   6.8122   6.8122   7.6902
     9.8906  10.0703  10.1971  10.5242  10.5242  11.6540  12.1343  13.3678
    13.3678  14.1086  16.2760  20.2847  20.2847  21.8916  22.3735  24.0539
    24.5736  25.1104  25.7690  25.7690  26.4451  30.0185  30.0185  30.0544
    31.5140  31.6337  31.6338  32.7434  33.4164  35.7216  35.7216  35.7960
    36.5584  36.5584  37.2910  38.3253  40.1866  41.3045  41.3045  41.6511
    41.7818  43.7884  43.7884  43.8478  44.8781

          k = 0.0000 0.0000 0.6207 (  1980 PWs)   bands (ev):

   -49.2578 -49.2546 -25.6649 -25.6584 -25.4434 -25.4434 -25.4105 -25.4105
    -8.9249  -8.6382  -8.6382  -8.5678   3.7421   3.7786   4.2579   4.3535
     4.3535   4.6772   5.0904   5.6028   5.6028   6.5023   6.5023   6.6028
    10.1668  10.4378  10.7581  10.9429  11.0825  11.0825  12.6287  13.0179
    13.1417  13.1417  18.5599  20.7468  22.2629  22.2629  22.3483  23.3468
    24.5034  24.7689  24.7689  24.7878  25.2891  27.4067  29.1779  29.1779
    31.5271  31.5271  32.6180  33.7615  33.8430  35.6688  36.0484  36.0484
    36.5032  38.6013  38.6583  38.6583  41.4319  41.4319  41.6190  41.7466
    43.6752  43.7755  44.0070  44.0070  44.4202

          k = 0.0000 0.2000 0.0000 (  1964 PWs)   bands (ev):

   -49.2849 -49.2765 -25.5194 -25.5188 -25.4216 -25.4210 -25.3829 -25.3635
    -9.7820  -8.8793  -8.3994  -8.3402   2.7331   3.1221   3.7585   4.3886
     4.3972   5.3044   5.4365   6.0239   6.8540   6.9677   7.2259   7.7729
     9.7566  10.0532  10.2457  10.2851  10.2936  11.7534  11.9621  13.6846
    13.7065  14.4151  15.6088  18.7857  19.2766  21.8685  22.5419  23.3971
    24.6127  26.1094  26.5933  27.1488  28.2622  29.3263  29.5673  29.8894
    31.0566  31.9527  32.6790  32.7059  33.0568  33.4770  35.3650  36.0740
    36.8442  37.9443  38.4167  38.6166  38.7714  39.3920  40.3732  41.3205
    42.0350  42.4555  43.3245  43.9724  44.7546

          k = 0.0000 0.2000 0.3103 (  1949 PWs)   bands (ev):

   -49.2747 -49.2680 -25.5052 -25.4923 -25.4806 -25.4805 -25.4143 -25.4124
    -9.4803  -8.7035  -8.5253  -8.4572   3.1646   3.4831   3.8939   4.1061
     4.4875   5.0114   5.5139   5.9341   5.9642   6.7907   6.8047   7.5865
     9.9153  10.2988  10.3297  10.4776  10.6810  11.5248  12.3260  13.0504
    13.3111  14.1911  16.6587  19.8367  20.4931  22.1835  22.4274  23.6896
    24.5221  24.8252  25.2205  26.3703  26.9863  28.7886  29.1162  30.3746
    31.4743  31.4964  32.8884  32.9416  33.6051  35.0089  35.4912  35.6108
    36.3474  37.2252  38.0902  39.0777  40.4507  40.8161  41.7636  41.9917
    42.1542  43.1328  43.5009  43.9933  44.3899

          k = 0.0000 0.2000 0.6207 (  1962 PWs)   bands (ev):

   -49.2575 -49.2549 -25.6668 -25.6614 -25.4400 -25.4388 -25.4127 -25.4116
    -8.9348  -8.7441  -8.5920  -8.4932   3.7111   3.8052   3.8477   4.1640
     4.5730   4.7754   5.3168   5.6911   5.7564   6.3625   6.4605   6.8330
     9.9424  10.5003  10.5518  10.7619  11.1840  11.2506  12.4452  12.4762
    13.4541  13.7783  18.6503  20.5223  21.6544  22.4390  22.9129  23.0460
    24.2490  24.3659  24.6340  24.8325  25.9707  26.8522  28.9809  29.5131
    31.7259  31.9221  32.9559  33.6443  34.2390  35.3808  35.5632  36.2517
    37.0968  38.1587  38.3298  38.9134  40.2102  41.6289  41.8573  42.0501
    42.7209  43.4028  43.9971  44.6504  45.1619

          k = 0.0000 0.4000 0.0000 (  1972 PWs)   bands (ev):

   -49.2823 -49.2791 -25.5012 -25.5002 -25.4415 -25.4405 -25.3769 -25.3695
    -9.4698  -9.0904  -8.4818  -8.4223   3.1787   3.3380   4.4159   4.4247
     4.4811   5.0001   5.1412   5.6372   6.1825   6.5339   7.1189   7.4152
    10.0475  10.1924  10.4909  10.5377  10.7853  11.3243  12.7767  13.5158
    13.5400  13.7244  16.7582  17.9843  20.1080  21.2568  22.7647  23.1583
    24.7225  25.8034  26.4626  27.6260  28.0222  29.0090  29.1473  29.9145
    30.4241  30.9749  32.5565  32.6940  33.7192  33.9998  34.7255  34.9387
    38.4119  38.5950  39.0400  39.2082  39.2740  40.1215  41.7598  42.2306
    42.7079  43.0861  43.5135  43.6701  43.7091

          k = 0.0000 0.4000 0.3103 (  1964 PWs)   bands (ev):

   -49.2726 -49.2701 -25.5032 -25.4933 -25.4750 -25.4675 -25.4257 -25.4224
    -9.2200  -8.8909  -8.5764  -8.5171   3.5574   3.7524   4.0162   4.0636
     4.7475   4.8969   5.2098   5.5126   5.7186   6.3175   7.0683   7.3482
    10.1498  10.3591  10.5768  10.6319  10.9572  11.2171  12.5652  12.6708
    13.4464  13.9395  17.6467  18.8237  21.1620  22.0632  22.7917  23.3029
    24.3175  24.3992  24.9929  26.3246  27.2809  27.9917  28.9397  30.4893
    31.5296  31.7435  32.8455  33.3747  33.5556  34.2085  35.7424  35.7449
    36.2466  37.4917  38.5674  39.3942  40.4766  41.0441  42.1063  42.8194
    43.0705  43.2822  43.9833  44.0678  44.4144

          k = 0.0000 0.4000 0.6207 (  1963 PWs)   bands (ev):

   -49.2567 -49.2557 -25.6690 -25.6669 -25.4326 -25.4306 -25.4172 -25.4153
    -8.9251  -8.8598  -8.5082  -8.4625   3.4642   3.5585   3.9937   4.1778
     4.5577   4.9709   5.2340   5.6752   6.1395   6.1890   6.7017   7.0776
     9.6885   9.9676  10.6710  10.7547  11.2996  11.3142  12.1445  12.2310
    13.9644  14.1501  19.0477  19.8008  21.5810  22.0741  23.0886  23.4111
    23.6713  23.9159  24.8723  25.1714  25.8413  25.8589  29.4978  30.1357
    32.3234  32.4628  33.4890  33.5769  34.5179  34.5630  35.3198  35.6325
    36.3675  37.2837  39.2450  39.6223  40.7263  41.1714  42.2533  42.2762
    42.5148  43.0551  44.7774  44.9662  45.1192

          k = 0.2000 0.2000 0.0000 (  1967 PWs)   bands (ev):

   -49.2840 -49.2773 -25.5301 -25.4993 -25.4421 -25.4106 -25.3811 -25.3653
    -9.6889  -8.9286  -8.4631  -8.3416   2.7176   3.3329   3.9507   4.3549
     4.4280   5.0524   5.6029   6.0774   6.5496   6.8729   7.0509   7.6678
     9.6446  10.1228  10.1795  10.5046  10.5173  11.6564  12.1410  13.5272
    13.7890  14.1707  16.0882  18.9771  19.1691  21.9985  22.1240  23.2116
    24.5911  25.9272  27.2727  27.4625  28.5165  29.2202  29.3804  29.4922
    29.6818  31.4520  31.5083  32.9892  34.1804  34.4330  36.1655  36.2171
    36.6188  37.7458  38.0807  38.5037  39.4592  39.7695  40.7156  41.1461
    41.9938  43.1522  43.3785  43.8679  44.2703

          k = 0.2000 0.2000 0.3103 (  1961 PWs)   bands (ev):

   -49.2741 -49.2686 -25.5010 -25.4996 -25.4849 -25.4692 -25.4246 -25.4069
    -9.4009  -8.7366  -8.5754  -8.4653   3.1136   3.7234   3.8094   4.1607
     4.6648   4.8617   5.5410   5.6676   6.0758   6.6907   6.8553   7.4543
     9.9540  10.1030  10.4421  10.7039  10.7367  11.4246  12.3988  12.9157
    13.3697  14.1099  17.0229  19.8493  20.2633  22.4101  22.4487  23.0217
    24.4737  24.6944  25.9711  26.2466  26.9888  28.0845  28.9224  30.5912
    31.4300  31.5738  32.4438  32.8423  34.2671  35.0246  35.2151  36.0285
    36.7181  37.5036  38.2930  38.8065  40.6660  41.1405  41.4554  41.8944
    42.7639  43.1918  43.8879  44.1762  44.4052

          k = 0.2000 0.2000 0.6207 (  1964 PWs)   bands (ev):

   -49.2573 -49.2552 -25.6680 -25.6615 -25.4444 -25.4310 -25.4166 -25.4102
    -8.9369  -8.6954  -8.6653  -8.4620   3.5558   3.8068   3.9551   4.0375
     4.2550   5.0852   5.4444   5.6384   5.7928   6.4152   6.5368   6.9916
     9.8186  10.5511  10.5981  10.7242  10.8945  11.4059  12.1148  12.9951
    13.1349  14.0268  18.7233  20.5513  20.9887  22.4396  22.6494  23.3997
    23.8087  24.0905  24.9632  25.3736  25.5401  27.4517  28.3537  29.9329
    31.7227  31.8035  32.6129  34.2759  34.4860  35.3910  35.4534  36.3113
    37.9969  38.0331  38.5695  39.1515  39.8505  40.8791  41.0293  42.0831
    43.1751  43.2993  44.2148  44.8066  44.8971

          k = 0.2000 0.4000 0.0000 (  1972 PWs)   bands (ev):

   -49.2820 -49.2794 -25.5231 -25.5031 -25.4390 -25.4186 -25.3762 -25.3701
    -9.4418  -9.1373  -8.4742  -8.4029   2.9164   3.2758   4.3637   4.4084
     4.5360   5.0920   5.4770   5.9976   6.2791   6.5990   6.8456   7.2554
     9.8424  10.1216  10.2737  10.5180  10.9293  11.3521  12.7444  13.5260
    13.5301  13.6925  17.1581  18.2820  19.9662  21.1197  22.4577  22.8818
    24.7815  25.5319  27.2926  27.9625  28.2792  29.1071  29.2190  29.3794
    29.6487  30.2930  31.8350  33.3767  33.5035  34.6431  35.3913  35.9254
    38.1549  38.2924  38.3726  38.6810  39.4048  40.1400  41.5273  42.4309
    42.6725  43.0623  43.1041  43.7045  43.8569

          k = 0.2000 0.4000 0.3103 (  1961 PWs)   bands (ev):

   -49.2724 -49.2703 -25.5029 -25.4964 -25.4845 -25.4697 -25.4229 -25.4113
    -9.1905  -8.9273  -8.5680  -8.5118   3.2894   3.6733   3.8439   3.9873
     4.9190   5.1758   5.4045   5.7434   5.9192   6.3724   6.8619   7.1500
    10.1670  10.2652  10.4123  10.6608  10.9185  11.1685  12.6177  12.8975
    13.4147  13.8026  17.9184  18.9923  20.8409  21.8389  22.6947  22.7930
    24.4891  24.5720  25.5461  26.2052  27.0882  27.7882  29.0341  30.6341
    31.2782  31.6008  32.8116  33.0066  34.0255  34.3394  35.3640  36.1916
    37.1503  37.7534  38.6827  39.2729  40.2016  41.2864  41.6210  42.1765
    43.2030  43.6168  44.0301  44.3597  44.7074

          k = 0.2000 0.4000 0.6207 (  1974 PWs)   bands (ev):

   -49.2566 -49.2558 -25.6676 -25.6642 -25.4410 -25.4325 -25.4157 -25.4115
    -8.9005  -8.8062  -8.5666  -8.4793   3.4289   3.5741   3.8992   4.0525
     4.4359   4.9405   5.4159   5.5534   6.2004   6.4285   6.8212   7.1480
     9.7629  10.1249  10.6412  10.7232  11.0487  11.2991  12.1773  12.5660
    13.6872  14.0707  19.0662  19.8159  21.0281  21.7863  22.7206  23.0687
    24.0015  24.3263  24.6129  25.0981  26.0541  26.9617  29.1561  30.4645
    31.8212  32.0913  32.3417  33.5691  34.6943  34.9749  35.8255  37.0416
    37.2470  38.2777  39.3837  39.4545  40.0618  40.8461  41.1384  42.1494
    42.7767  43.2757  43.8702  44.6549  45.0801

          k = 0.4000 0.4000 0.0000 (  1962 PWs)   bands (ev):

   -49.2811 -49.2802 -25.5344 -25.5256 -25.4169 -25.4078 -25.3743 -25.3720
    -9.3620  -9.2472  -8.4351  -8.3988   2.7591   2.9284   4.3211   4.3461
     4.9448   5.3033   5.8745   6.2528   6.4977   6.5270   6.6415   7.0370
     9.6157   9.8313  10.1328  10.2795  11.1770  11.3310  12.8394  13.1422
    13.6900  13.7841  18.0155  18.6640  19.8112  20.5146  22.2994  22.4921
    25.0188  25.3878  27.6761  28.0174  28.6047  28.7170  28.8933  29.2235
    29.4109  29.8664  32.7018  33.3867  33.9081  34.0760  35.6390  36.2762
    37.8547  37.9456  38.5008  38.6734  39.1726  39.2113  41.9453  42.6830
    43.0807  43.3775  43.4104  43.4619  45.3043

          k = 0.4000 0.4000 0.3103 (  1972 PWs)   bands (ev):

   -49.2717 -49.2709 -25.5047 -25.5024 -25.4869 -25.4799 -25.4101 -25.4047
    -9.1133  -9.0145  -8.5422  -8.5168   3.1279   3.2985   3.7597   3.8212
     5.3929   5.6198   5.6620   6.1613   6.1663   6.3915   6.4861   6.6903
    10.0863  10.2745  10.3011  10.4502  10.9339  11.0379  12.9189  13.1093
    13.3667  13.5178  18.5659  19.1458  20.4645  21.0441  22.7215  22.7607
    24.4905  24.6288  25.5433  25.7705  27.3206  27.8917  29.4393  30.6024
    30.8760  30.9376  33.3133  33.7040  34.4274  34.7277  35.0346  35.3598
    37.6465  38.0504  39.0370  39.1229  40.4077  40.5537  41.8454  41.8952
    43.8457  44.0494  44.1785  44.7512  44.7783

          k = 0.4000 0.4000 0.6207 (  1976 PWs)   bands (ev):

   -49.2563 -49.2560 -25.6635 -25.6615 -25.4462 -25.4420 -25.4112 -25.4097
    -8.8162  -8.7083  -8.6651  -8.5579   3.4409   3.6326   3.6476   3.7794
     4.5587   4.7726   5.4755   5.4855   6.5161   6.6424   7.0157   7.1883
    10.0366  10.3790  10.6146  10.6542  10.7331  11.0279  12.5579  13.1213
    13.1453  13.6999  19.1715  19.5279  20.8898  21.4991  22.0967  22.5464
    23.7998  23.9708  25.3952  25.6446  26.6261  27.0982  29.7152  30.8119
    31.3973  31.5778  31.9484  32.7527  35.1001  35.1964  36.5908  37.3719
    38.6191  39.0247  39.6165  40.0846  40.1875  40.7612  41.0170  41.7544
    42.1368  42.9506  43.7221  44.4650  44.5079

          k =-0.2000 0.2000 0.0000 (  1967 PWs)   bands (ev):

   -49.2840 -49.2773 -25.5301 -25.4993 -25.4421 -25.4106 -25.3811 -25.3653
    -9.6889  -8.9286  -8.4631  -8.3416   2.7176   3.3329   3.9507   4.3549
     4.4280   5.0524   5.6029   6.0774   6.5496   6.8729   7.0509   7.6678
     9.6446  10.1228  10.1795  10.5046  10.5173  11.6564  12.1410  13.5272
    13.7890  14.1707  16.0882  18.9771  19.1691  21.9985  22.1240  23.2116
    24.5911  25.9272  27.2727  27.4625  28.5165  29.2202  29.3804  29.4922
    29.6819  31.4520  31.5083  32.9892  34.1804  34.4330  36.1655  36.2171
    36.6189  37.7458  38.0807  38.5037  39.4592  39.7695  40.7156  41.1461
    41.9938  43.1522  43.3785  43.8679  44.2703

          k =-0.2000 0.2000-0.3103 (  1961 PWs)   bands (ev):

   -49.2741 -49.2686 -25.5010 -25.4996 -25.4849 -25.4692 -25.4246 -25.4069
    -9.4009  -8.7366  -8.5754  -8.4654   3.1136   3.7234   3.8094   4.1608
     4.6648   4.8617   5.5410   5.6676   6.0758   6.6907   6.8553   7.4543
     9.9540  10.1030  10.4422  10.7039  10.7367  11.4246  12.3988  12.9158
    13.3697  14.1099  17.0229  19.8493  20.2633  22.4101  22.4487  23.0217
    24.4737  24.6944  25.9711  26.2466  26.9888  28.0845  28.9224  30.5912
    31.4300  31.5738  32.4438  32.8423  34.2671  35.0246  35.2151  36.0285
    36.7181  37.5036  38.2930  38.8065  40.6660  41.1405  41.4554  41.8944
    42.7639  43.1918  43.8879  44.1762  44.4052

          k =-0.2000 0.2000-0.6207 (  1964 PWs)   bands (ev):

   -49.2573 -49.2552 -25.6680 -25.6615 -25.4444 -25.4310 -25.4166 -25.4102
    -8.9369  -8.6954  -8.6653  -8.4620   3.5558   3.8068   3.9551   4.0375
     4.2550   5.0852   5.4444   5.6384   5.7928   6.4152   6.5368   6.9916
     9.8186  10.5511  10.5981  10.7242  10.8945  11.4059  12.1149  12.9951
    13.1349  14.0268  18.7233  20.5513  20.9887  22.4396  22.6494  23.3997
    23.8087  24.0905  24.9632  25.3736  25.5401  27.4517  28.3537  29.9329
    31.7227  31.8035  32.6129  34.2759  34.4860  35.3910  35.4534  36.3113
    37.9969  38.0331  38.5695  39.1515  39.8505  40.8791  41.0293  42.0831
    43.1751  43.2993  44.2148  44.8066  44.8971

          k =-0.2000 0.4000 0.0000 (  1972 PWs)   bands (ev):

   -49.2820 -49.2794 -25.5231 -25.5031 -25.4390 -25.4186 -25.3762 -25.3701
    -9.4418  -9.1373  -8.4742  -8.4029   2.9164   3.2759   4.3637   4.4085
     4.5360   5.0920   5.4770   5.9976   6.2791   6.5990   6.8456   7.2554
     9.8423  10.1216  10.2737  10.5180  10.9293  11.3521  12.7444  13.5261
    13.5301  13.6925  17.1581  18.2820  19.9662  21.1197  22.4577  22.8818
    24.7815  25.5319  27.2926  27.9625  28.2792  29.1071  29.2190  29.3794
    29.6487  30.2930  31.8350  33.3767  33.5035  34.6431  35.3913  35.9254
    38.1549  38.2924  38.3726  38.6810  39.4048  40.1400  41.5273  42.4309
    42.6725  43.0623  43.1041  43.7045  43.8570

          k =-0.2000 0.4000-0.3103 (  1961 PWs)   bands (ev):

   -49.2724 -49.2703 -25.5029 -25.4964 -25.4845 -25.4697 -25.4229 -25.4113
    -9.1905  -8.9273  -8.5680  -8.5118   3.2894   3.6733   3.8439   3.9873
     4.9190   5.1758   5.4045   5.7434   5.9192   6.3724   6.8619   7.1500
    10.1670  10.2652  10.4123  10.6608  10.9185  11.1685  12.6177  12.8975
    13.4147  13.8026  17.9184  18.9923  20.8409  21.8389  22.6947  22.7930
    24.4891  24.5720  25.5461  26.2052  27.0882  27.7882  29.0341  30.6341
    31.2782  31.6008  32.8116  33.0065  34.0255  34.3394  35.3640  36.1916
    37.1503  37.7534  38.6827  39.2729  40.2016  41.2864  41.6210  42.1765
    43.2030  43.6168  44.0301  44.3597  44.7074

          k =-0.2000 0.4000-0.6207 (  1974 PWs)   bands (ev):

   -49.2566 -49.2558 -25.6676 -25.6642 -25.4410 -25.4325 -25.4157 -25.4115
    -8.9005  -8.8062  -8.5666  -8.4793   3.4289   3.5741   3.8992   4.0525
     4.4359   4.9405   5.4159   5.5534   6.2004   6.4285   6.8212   7.1480
     9.7629  10.1249  10.6412  10.7232  11.0487  11.2991  12.1773  12.5659
    13.6872  14.0707  19.0662  19.8159  21.0281  21.7863  22.7206  23.0687
    24.0015  24.3263  24.6129  25.0981  26.0541  26.9617  29.1561  30.4645
    31.8212  32.0913  32.3417  33.5691  34.6943  34.9749  35.8255  37.0416
    37.2470  38.2777  39.3837  39.4545  40.0618  40.8461  41.1384  42.1494
    42.7767  43.2757  43.8702  44.6549  45.0801

          k =-0.4000 0.4000 0.0000 (  1962 PWs)   bands (ev):

   -49.2811 -49.2802 -25.5344 -25.5256 -25.4169 -25.4078 -25.3743 -25.3720
    -9.3620  -9.2472  -8.4351  -8.3988   2.7591   2.9284   4.3211   4.3461
     4.9448   5.3033   5.8745   6.2528   6.4977   6.5270   6.6415   7.0370
     9.6156   9.8313  10.1329  10.2795  11.1770  11.3310  12.8394  13.1422
    13.6900  13.7841  18.0155  18.6640  19.8112  20.5146  22.2994  22.4921
    25.0188  25.3878  27.6761  28.0174  28.6047  28.7170  28.8933  29.2235
    29.4109  29.8664  32.7018  33.3867  33.9081  34.0760  35.6390  36.2762
    37.8547  37.9456  38.5008  38.6734  39.1726  39.2113  41.9454  42.6830
    43.0807  43.3775  43.4104  43.4619  45.3043

          k =-0.4000 0.4000-0.3103 (  1972 PWs)   bands (ev):

   -49.2717 -49.2709 -25.5047 -25.5024 -25.4869 -25.4799 -25.4101 -25.4047
    -9.1133  -9.0145  -8.5422  -8.5168   3.1279   3.2985   3.7597   3.8212
     5.3929   5.6198   5.6620   6.1613   6.1663   6.3915   6.4861   6.6903
    10.0863  10.2745  10.3012  10.4501  10.9339  11.0379  12.9189  13.1093
    13.3667  13.5178  18.5659  19.1458  20.4644  21.0441  22.7215  22.7607
    24.4905  24.6288  25.5433  25.7705  27.3206  27.8917  29.4393  30.6024
    30.8760  30.9377  33.3133  33.7040  34.4274  34.7277  35.0346  35.3598
    37.6465  38.0504  39.0370  39.1229  40.4077  40.5537  41.8454  41.8952
    43.8457  44.0494  44.1785  44.7512  44.7783

          k =-0.4000 0.4000-0.6207 (  1976 PWs)   bands (ev):

   -49.2563 -49.2560 -25.6635 -25.6615 -25.4462 -25.4420 -25.4112 -25.4097
    -8.8162  -8.7083  -8.6651  -8.5579   3.4409   3.6326   3.6476   3.7794
     4.5587   4.7726   5.4755   5.4855   6.5161   6.6424   7.0157   7.1883
    10.0366  10.3791  10.6146  10.6542  10.7331  11.0279  12.5579  13.1213
    13.1453  13.6999  19.1715  19.5279  20.8898  21.4991  22.0967  22.5464
    23.7998  23.9708  25.3952  25.6445  26.6261  27.0982  29.7152  30.8119
    31.3973  31.5778  31.9484  32.7527  35.1001  35.1964  36.5908  37.3719
    38.6191  39.0247  39.6165  40.0846  40.1875  40.7612  41.0170  41.7544
    42.1368  42.9506  43.7221  44.4650  44.5079

 ------ SPIN DOWN ----------


          k = 0.0000 0.0000 0.0000 (  1955 PWs)   bands (ev):

   -49.2857 -49.2754 -25.5273 -25.5273 -25.4120 -25.4120 -25.3852 -25.3611
    -9.8989  -8.8517  -8.3054  -8.3054   2.5066   2.9938   3.5332   4.3753
     4.3753   5.5091   5.5091   5.9929   7.1857   7.4725   7.4725   7.9063
     9.5813   9.8366  10.0427  10.1172  10.1172  11.6643  11.9303  13.7917
    13.7917  14.6431  15.1307  18.9971  18.9971  21.7772  22.7998  23.5963
    24.7107  26.1275  26.1275  26.8205  27.9302  29.7120  31.0113  31.0113
    31.8330  32.4891  32.4891  32.8393  32.8393  32.8904  33.3610  35.1786
    37.3644  37.5391  38.2160  38.6966  38.6966  39.9886  39.9886  40.1045
    42.2807  42.2807  42.2933  43.3489  45.5490

          k = 0.0000 0.0000 0.3103 (  1947 PWs)   bands (ev):

   -49.2754 -49.2670 -25.4986 -25.4986 -25.4942 -25.4758 -25.4081 -25.4080
    -9.5775  -8.6997  -8.4330  -8.4329   2.9907   3.3349   3.9468   4.1395
     4.1395   5.1005   5.9983   6.0507   6.0507   6.8120   6.8120   7.6899
     9.8909  10.0703  10.1971  10.5243  10.5243  11.6541  12.1344  13.3679
    13.3679  14.1087  16.2761  20.2849  20.2849  21.8916  22.3737  24.0541
    24.5737  25.1106  25.7692  25.7692  26.4454  30.0187  30.0187  30.0546
    31.5142  31.6339  31.6339  32.7437  33.4166  35.7219  35.7219  35.7963
    36.5586  36.5586  37.2912  38.3255  40.1869  41.3047  41.3047  41.6513
    41.7820  43.7886  43.7886  43.8479  44.8783

          k = 0.0000 0.0000 0.6207 (  1980 PWs)   bands (ev):

   -49.2577 -49.2545 -25.6648 -25.6583 -25.4432 -25.4432 -25.4103 -25.4103
    -8.9251  -8.6384  -8.6384  -8.5679   3.7421   3.7786   4.2579   4.3535
     4.3535   4.6771   5.0904   5.6027   5.6027   6.5021   6.5021   6.6027
    10.1670  10.4378  10.7581  10.9430  11.0826  11.0826  12.6288  13.0180
    13.1418  13.1418  18.5600  20.7469  22.2631  22.2631  22.3484  23.3469
    24.5035  24.7692  24.7692  24.7880  25.2893  27.4069  29.1781  29.1781
    31.5273  31.5273  32.6182  33.7617  33.8431  35.6690  36.0486  36.0486
    36.5034  38.6015  38.6585  38.6585  41.4321  41.4321  41.6192  41.7468
    43.6754  43.7757  44.0071  44.0072  44.4204

          k = 0.0000 0.2000 0.0000 (  1964 PWs)   bands (ev):

   -49.2847 -49.2764 -25.5193 -25.5187 -25.4214 -25.4208 -25.3828 -25.3634
    -9.7821  -8.8795  -8.3996  -8.3404   2.7332   3.1221   3.7585   4.3886
     4.3972   5.3044   5.4365   6.0238   6.8538   6.9676   7.2257   7.7727
     9.7566  10.0533  10.2458  10.2853  10.2937  11.7536  11.9621  13.6846
    13.7065  14.4151  15.6090  18.7858  19.2768  21.8686  22.5421  23.3972
    24.6128  26.1096  26.5935  27.1491  28.2625  29.3266  29.5675  29.8897
    31.0568  31.9529  32.6793  32.7062  33.0570  33.4772  35.3652  36.0742
    36.8444  37.9445  38.4169  38.6169  38.7716  39.3922  40.3734  41.3208
    42.0352  42.4556  43.3247  43.9726  44.7547

          k = 0.0000 0.2000 0.3103 (  1949 PWs)   bands (ev):

   -49.2746 -49.2678 -25.5051 -25.4922 -25.4805 -25.4804 -25.4141 -25.4122
    -9.4804  -8.7036  -8.5255  -8.4574   3.1646   3.4831   3.8939   4.1061
     4.4875   5.0113   5.5138   5.9340   5.9642   6.7906   6.8046   7.5862
     9.9155  10.2989  10.3297  10.4777  10.6811  11.5249  12.3261  13.0505
    13.3111  14.1912  16.6588  19.8368  20.4933  22.1836  22.4275  23.6897
    24.5222  24.8255  25.2207  26.3706  26.9865  28.7889  29.1164  30.3748
    31.4745  31.4966  32.8886  32.9418  33.6053  35.0091  35.4914  35.6110
    36.3476  37.2254  38.0905  39.0779  40.4509  40.8163  41.7637  41.9919
    42.1544  43.1330  43.5010  43.9935  44.3901

          k = 0.0000 0.2000 0.6207 (  1962 PWs)   bands (ev):

   -49.2574 -49.2548 -25.6667 -25.6613 -25.4398 -25.4386 -25.4125 -25.4114
    -8.9349  -8.7442  -8.5921  -8.4933   3.7111   3.8052   3.8477   4.1640
     4.5730   4.7753   5.3167   5.6910   5.7564   6.3624   6.4604   6.8328
     9.9426  10.5004  10.5519  10.7619  11.1840  11.2507  12.4453  12.4763
    13.4541  13.7784  18.6504  20.5224  21.6545  22.4392  22.9131  23.0462
    24.2492  24.3661  24.6342  24.8327  25.9710  26.8524  28.9811  29.5134
    31.7261  31.9222  32.9561  33.6445  34.2392  35.3810  35.5634  36.2519
    37.0970  38.1589  38.3300  38.9136  40.2105  41.6291  41.8574  42.0503
    42.7211  43.4030  43.9973  44.6505  45.1621

          k = 0.0000 0.4000 0.0000 (  1972 PWs)   bands (ev):

   -49.2821 -49.2789 -25.5010 -25.5000 -25.4413 -25.4403 -25.3768 -25.3694
    -9.4699  -9.0905  -8.4820  -8.4224   3.1788   3.3380   4.4159   4.4247
     4.4811   5.0000   5.1412   5.6371   6.1824   6.5338   7.1187   7.4150
    10.0476  10.1924  10.4911  10.5379  10.7854  11.3245  12.7767  13.5158
    13.5400  13.7244  16.7583  17.9844  20.1082  21.2570  22.7649  23.1584
    24.7227  25.8036  26.4628  27.6263  28.0224  29.0092  29.1475  29.9147
    30.4244  30.9751  32.5567  32.6942  33.7195  34.0000  34.7258  34.9389
    38.4121  38.5952  39.0402  39.2084  39.2742  40.1217  41.7600  42.2308
    42.7081  43.0862  43.5137  43.6703  43.7092

          k = 0.0000 0.4000 0.3103 (  1964 PWs)   bands (ev):

   -49.2725 -49.2699 -25.5031 -25.4932 -25.4749 -25.4674 -25.4255 -25.4222
    -9.2201  -8.8910  -8.5766  -8.5172   3.5574   3.7524   4.0162   4.0636
     4.7475   4.8969   5.2097   5.5125   5.7185   6.3174   7.0682   7.3480
    10.1499  10.3592  10.5768  10.6319  10.9573  11.2172  12.5653  12.6709
    13.4465  13.9395  17.6468  18.8238  21.1622  22.0634  22.7918  23.3031
    24.3177  24.3994  24.9932  26.3248  27.2812  27.9919  28.9399  30.4895
    31.5298  31.7436  32.8457  33.3748  33.5558  34.2088  35.7426  35.7452
    36.2468  37.4919  38.5676  39.3944  40.4767  41.0443  42.1065  42.8196
    43.0707  43.2823  43.9835  44.0679  44.4145

          k = 0.0000 0.4000 0.6207 (  1963 PWs)   bands (ev):

   -49.2565 -49.2555 -25.6690 -25.6668 -25.4325 -25.4304 -25.4170 -25.4151
    -8.9252  -8.8600  -8.5084  -8.4627   3.4642   3.5586   3.9937   4.1778
     4.5576   4.9709   5.2339   5.6751   6.1394   6.1889   6.7015   7.0774
     9.6887   9.9678  10.6710  10.7548  11.2996  11.3143  12.1446  12.2311
    13.9644  14.1501  19.0478  19.8010  21.5811  22.0742  23.0888  23.4112
    23.6715  23.9161  24.8725  25.1716  25.8416  25.8591  29.4980  30.1360
    32.3235  32.4630  33.4891  33.5771  34.5181  34.5632  35.3201  35.6328
    36.3676  37.2839  39.2452  39.6224  40.7265  41.1716  42.2535  42.2764
    42.5150  43.0553  44.7776  44.9664  45.1194

          k = 0.2000 0.2000 0.0000 (  1967 PWs)   bands (ev):

   -49.2839 -49.2772 -25.5299 -25.4991 -25.4419 -25.4104 -25.3810 -25.3652
    -9.6890  -8.9287  -8.4632  -8.3417   2.7176   3.3329   3.9507   4.3549
     4.4280   5.0523   5.6029   6.0773   6.5494   6.8728   7.0507   7.6676
     9.6447  10.1230  10.1795  10.5048  10.5175  11.6565  12.1410  13.5273
    13.7890  14.1707  16.0883  18.9772  19.1693  21.9987  22.1242  23.2117
    24.5912  25.9274  27.2729  27.4627  28.5168  29.2204  29.3807  29.4924
    29.6821  31.4523  31.5085  32.9895  34.1806  34.4333  36.1657  36.2173
    36.6191  37.7460  38.0809  38.5039  39.4593  39.7698  40.7157  41.1464
    41.9940  43.1523  43.3787  43.8681  44.2705

          k = 0.2000 0.2000 0.3103 (  1961 PWs)   bands (ev):

   -49.2739 -49.2685 -25.5009 -25.4995 -25.4848 -25.4690 -25.4244 -25.4067
    -9.4010  -8.7368  -8.5756  -8.4655   3.1136   3.7234   3.8094   4.1607
     4.6647   4.8617   5.5410   5.6675   6.0757   6.6906   6.8551   7.4541
     9.9542  10.1030  10.4422  10.7040  10.7368  11.4247  12.3989  12.9158
    13.3698  14.1099  17.0230  19.8494  20.2635  22.4103  22.4489  23.0219
    24.4739  24.6946  25.9713  26.2468  26.9890  28.0848  28.9227  30.5914
    31.4302  31.5740  32.4440  32.8425  34.2673  35.0248  35.2153  36.0288
    36.7184  37.5039  38.2932  38.8067  40.6663  41.1407  41.4556  41.8946
    42.7641  43.1919  43.8881  44.1764  44.4053

          k = 0.2000 0.2000 0.6207 (  1964 PWs)   bands (ev):

   -49.2571 -49.2550 -25.6679 -25.6614 -25.4443 -25.4308 -25.4164 -25.4100
    -8.9371  -8.6955  -8.6654  -8.4622   3.5559   3.8068   3.9551   4.0375
     4.2550   5.0852   5.4444   5.6384   5.7928   6.4151   6.5367   6.9915
     9.8188  10.5511  10.5982  10.7242  10.8946  11.4060  12.1150  12.9952
    13.1350  14.0269  18.7234  20.5515  20.9888  22.4397  22.6496  23.3998
    23.8089  24.0907  24.9634  25.3738  25.5403  27.4519  28.3539  29.9331
    31.7228  31.8037  32.6130  34.2761  34.4862  35.3912  35.4536  36.3115
    37.9971  38.0333  38.5697  39.1517  39.8507  40.8793  41.0295  42.0833
    43.1753  43.2995  44.2149  44.8068  44.8973

          k = 0.2000 0.4000 0.0000 (  1972 PWs)   bands (ev):

   -49.2818 -49.2792 -25.5229 -25.5030 -25.4388 -25.4184 -25.3761 -25.3701
    -9.4419  -9.1374  -8.4744  -8.4030   2.9164   3.2759   4.3637   4.4084
     4.5360   5.0920   5.4769   5.9975   6.2790   6.5989   6.8455   7.2552
     9.8424  10.1217  10.2739  10.5182  10.9294  11.3522  12.7444  13.5261
    13.5301  13.6926  17.1582  18.2821  19.9664  21.1198  22.4579  22.8820
    24.7817  25.5321  27.2929  27.9628  28.2794  29.1073  29.2192  29.3796
    29.6490  30.2932  31.8351  33.3769  33.5037  34.6433  35.3916  35.9256
    38.1551  38.2926  38.3728  38.6812  39.4051  40.1402  41.5275  42.4311
    42.6727  43.0625  43.1043  43.7046  43.8571

          k = 0.2000 0.4000 0.3103 (  1961 PWs)   bands (ev):

   -49.2722 -49.2701 -25.5028 -25.4963 -25.4844 -25.4695 -25.4227 -25.4111
    -9.1906  -8.9274  -8.5682  -8.5119   3.2894   3.6733   3.8439   3.9873
     4.9189   5.1757   5.4045   5.7434   5.9191   6.3723   6.8618   7.1498
    10.1671  10.2653  10.4124  10.6608  10.9186  11.1687  12.6178  12.8976
    13.4148  13.8026  17.9185  18.9924  20.8411  21.8390  22.6949  22.7932
    24.4893  24.5722  25.5463  26.2054  27.0885  27.7885  29.0343  30.6343
    31.2783  31.6010  32.8118  33.0067  34.0257  34.3396  35.3642  36.1918
    37.1505  37.7536  38.6829  39.2731  40.2018  41.2866  41.6212  42.1766
    43.2032  43.6170  44.0303  44.3599  44.7075

          k = 0.2000 0.4000 0.6207 (  1974 PWs)   bands (ev):

   -49.2564 -49.2556 -25.6675 -25.6641 -25.4409 -25.4323 -25.4155 -25.4113
    -8.9007  -8.8064  -8.5667  -8.4794   3.4289   3.5741   3.8992   4.0525
     4.4358   4.9405   5.4159   5.5533   6.2003   6.4284   6.8211   7.1478
     9.7632  10.1251  10.6412  10.7232  11.0488  11.2992  12.1774  12.5660
    13.6872  14.0707  19.0664  19.8161  21.0283  21.7865  22.7207  23.0688
    24.0016  24.3265  24.6131  25.0983  26.0544  26.9620  29.1563  30.4647
    31.8213  32.0915  32.3418  33.5692  34.6945  34.9750  35.8257  37.0418
    37.2472  38.2780  39.3839  39.4547  40.0620  40.8462  41.1386  42.1496
    42.7769  43.2758  43.8704  44.6551  45.0803

          k = 0.4000 0.4000 0.0000 (  1962 PWs)   bands (ev):

   -49.2810 -49.2800 -25.5342 -25.5254 -25.4167 -25.4076 -25.3742 -25.3719
    -9.3621  -9.2473  -8.4353  -8.3989   2.7591   2.9284   4.3211   4.3461
     4.9447   5.3032   5.8744   6.2527   6.4976   6.5269   6.6414   7.0368
     9.6157   9.8314  10.1330  10.2797  11.1771  11.3312  12.8394  13.1422
    13.6900  13.7842  18.0156  18.6640  19.8114  20.5147  22.2996  22.4924
    25.0190  25.3880  27.6763  28.0177  28.6049  28.7172  28.8935  29.2237
    29.4111  29.8666  32.7020  33.3869  33.9084  34.0762  35.6392  36.2763
    37.8549  37.9459  38.5011  38.6735  39.1729  39.2116  41.9455  42.6831
    43.0809  43.3776  43.4106  43.4621  45.3045

          k = 0.4000 0.4000 0.3103 (  1972 PWs)   bands (ev):

   -49.2716 -49.2708 -25.5045 -25.5023 -25.4868 -25.4798 -25.4099 -25.4046
    -9.1134  -9.0146  -8.5423  -8.5169   3.1279   3.2985   3.7597   3.8212
     5.3928   5.6197   5.6619   6.1612   6.1662   6.3914   6.4860   6.6902
    10.0863  10.2745  10.3013  10.4503  10.9340  11.0381  12.9189  13.1093
    13.3668  13.5178  18.5660  19.1458  20.4646  21.0442  22.7217  22.7609
    24.4907  24.6290  25.5435  25.7707  27.3209  27.8919  29.4395  30.6026
    30.8762  30.9378  33.3135  33.7042  34.4276  34.7279  35.0348  35.3600
    37.6466  38.0506  39.0372  39.1232  40.4078  40.5539  41.8456  41.8954
    43.8459  44.0496  44.1786  44.7514  44.7784

          k = 0.4000 0.4000 0.6207 (  1976 PWs)   bands (ev):

   -49.2562 -49.2559 -25.6634 -25.6614 -25.4460 -25.4418 -25.4110 -25.4095
    -8.8164  -8.7085  -8.6652  -8.5580   3.4409   3.6326   3.6476   3.7794
     4.5586   4.7726   5.4754   5.4854   6.5160   6.6423   7.0155   7.1881
    10.0368  10.3792  10.6147  10.6542  10.7332  11.0280  12.5580  13.1214
    13.1454  13.6999  19.1717  19.5281  20.8900  21.4993  22.0968  22.5465
    23.7999  23.9709  25.3954  25.6448  26.6264  27.0985  29.7154  30.8121
    31.3975  31.5780  31.9485  32.7529  35.1003  35.1965  36.5910  37.3721
    38.6193  39.0249  39.6167  40.0848  40.1878  40.7614  41.0172  41.7547
    42.1369  42.9508  43.7223  44.4651  44.5080

          k =-0.2000 0.2000 0.0000 (  1967 PWs)   bands (ev):

   -49.2839 -49.2772 -25.5299 -25.4991 -25.4419 -25.4104 -25.3810 -25.3652
    -9.6890  -8.9287  -8.4632  -8.3417   2.7176   3.3329   3.9507   4.3549
     4.4280   5.0524   5.6029   6.0773   6.5494   6.8728   7.0507   7.6676
     9.6446  10.1230  10.1795  10.5048  10.5175  11.6565  12.1410  13.5273
    13.7890  14.1707  16.0883  18.9772  19.1693  21.9987  22.1242  23.2117
    24.5912  25.9273  27.2729  27.4627  28.5168  29.2204  29.3807  29.4924
    29.6821  31.4523  31.5085  32.9895  34.1806  34.4333  36.1657  36.2173
    36.6191  37.7460  38.0809  38.5039  39.4593  39.7698  40.7157  41.1464
    41.9940  43.1523  43.3787  43.8681  44.2705

          k =-0.2000 0.2000-0.3103 (  1961 PWs)   bands (ev):

   -49.2739 -49.2685 -25.5009 -25.4995 -25.4848 -25.4690 -25.4244 -25.4067
    -9.4010  -8.7368  -8.5756  -8.4655   3.1136   3.7234   3.8094   4.1608
     4.6647   4.8617   5.5410   5.6675   6.0757   6.6906   6.8551   7.4541
     9.9542  10.1030  10.4422  10.7040  10.7368  11.4247  12.3989  12.9159
    13.3698  14.1099  17.0230  19.8494  20.2635  22.4103  22.4489  23.0219
    24.4739  24.6946  25.9713  26.2468  26.9890  28.0848  28.9227  30.5914
    31.4302  31.5740  32.4440  32.8425  34.2673  35.0248  35.2153  36.0288
    36.7184  37.5039  38.2932  38.8067  40.6663  41.1407  41.4556  41.8946
    42.7641  43.1919  43.8881  44.1764  44.4053

          k =-0.2000 0.2000-0.6207 (  1964 PWs)   bands (ev):

   -49.2571 -49.2550 -25.6679 -25.6614 -25.4443 -25.4308 -25.4164 -25.4100
    -8.9371  -8.6955  -8.6654  -8.4622   3.5559   3.8068   3.9551   4.0375
     4.2550   5.0852   5.4444   5.6384   5.7928   6.4151   6.5367   6.9915
     9.8188  10.5511  10.5983  10.7242  10.8946  11.4060  12.1150  12.9952
    13.1350  14.0269  18.7234  20.5515  20.9888  22.4397  22.6496  23.3999
    23.8089  24.0907  24.9634  25.3738  25.5403  27.4519  28.3539  29.9331
    31.7228  31.8037  32.6130  34.2761  34.4862  35.3912  35.4536  36.3115
    37.9971  38.0333  38.5697  39.1517  39.8507  40.8793  41.0295  42.0833
    43.1753  43.2995  44.2149  44.8068  44.8973

          k =-0.2000 0.4000 0.0000 (  1972 PWs)   bands (ev):

   -49.2818 -49.2792 -25.5229 -25.5029 -25.4388 -25.4184 -25.3761 -25.3701
    -9.4419  -9.1374  -8.4744  -8.4030   2.9164   3.2759   4.3637   4.4084
     4.5360   5.0920   5.4769   5.9975   6.2790   6.5989   6.8455   7.2552
     9.8424  10.1217  10.2739  10.5182  10.9294  11.3522  12.7444  13.5261
    13.5301  13.6926  17.1582  18.2821  19.9664  21.1198  22.4579  22.8820
    24.7817  25.5321  27.2929  27.9628  28.2794  29.1073  29.2192  29.3796
    29.6490  30.2932  31.8351  33.3769  33.5037  34.6433  35.3916  35.9256
    38.1551  38.2926  38.3728  38.6812  39.4051  40.1402  41.5275  42.4311
    42.6727  43.0625  43.1043  43.7046  43.8571

          k =-0.2000 0.4000-0.3103 (  1961 PWs)   bands (ev):

   -49.2722 -49.2701 -25.5028 -25.4963 -25.4844 -25.4695 -25.4227 -25.4111
    -9.1906  -8.9274  -8.5682  -8.5120   3.2894   3.6733   3.8439   3.9873
     4.9189   5.1757   5.4045   5.7434   5.9191   6.3723   6.8618   7.1498
    10.1671  10.2653  10.4124  10.6608  10.9186  11.1687  12.6178  12.8976
    13.4148  13.8026  17.9185  18.9924  20.8411  21.8390  22.6949  22.7932
    24.4893  24.5722  25.5463  26.2054  27.0885  27.7885  29.0343  30.6343
    31.2783  31.6010  32.8118  33.0067  34.0257  34.3396  35.3642  36.1918
    37.1505  37.7536  38.6829  39.2731  40.2018  41.2866  41.6212  42.1766
    43.2032  43.6170  44.0303  44.3599  44.7075

          k =-0.2000 0.4000-0.6207 (  1974 PWs)   bands (ev):

   -49.2564 -49.2556 -25.6675 -25.6641 -25.4409 -25.4323 -25.4155 -25.4113
    -8.9007  -8.8064  -8.5667  -8.4794   3.4289   3.5741   3.8992   4.0525
     4.4358   4.9405   5.4159   5.5533   6.2003   6.4284   6.8211   7.1478
     9.7632  10.1251  10.6412  10.7232  11.0488  11.2992  12.1774  12.5660
    13.6872  14.0707  19.0664  19.8161  21.0283  21.7865  22.7207  23.0688
    24.0016  24.3265  24.6131  25.0983  26.0544  26.9620  29.1563  30.4647
    31.8213  32.0915  32.3418  33.5692  34.6945  34.9750  35.8257  37.0418
    37.2472  38.2780  39.3839  39.4547  40.0620  40.8462  41.1386  42.1496
    42.7769  43.2758  43.8704  44.6551  45.0803

          k =-0.4000 0.4000 0.0000 (  1962 PWs)   bands (ev):

   -49.2810 -49.2800 -25.5342 -25.5254 -25.4167 -25.4076 -25.3742 -25.3719
    -9.3621  -9.2473  -8.4353  -8.3989   2.7591   2.9284   4.3211   4.3461
     4.9447   5.3032   5.8744   6.2527   6.4976   6.5269   6.6414   7.0368
     9.6157   9.8314  10.1331  10.2796  11.1771  11.3312  12.8394  13.1422
    13.6900  13.7842  18.0156  18.6640  19.8114  20.5147  22.2996  22.4924
    25.0190  25.3880  27.6763  28.0177  28.6049  28.7172  28.8935  29.2237
    29.4111  29.8666  32.7020  33.3869  33.9084  34.0762  35.6392  36.2763
    37.8549  37.9458  38.5011  38.6735  39.1729  39.2116  41.9455  42.6831
    43.0809  43.3776  43.4106  43.4621  45.3045

          k =-0.4000 0.4000-0.3103 (  1972 PWs)   bands (ev):

   -49.2716 -49.2708 -25.5045 -25.5023 -25.4868 -25.4798 -25.4099 -25.4045
    -9.1134  -9.0146  -8.5423  -8.5170   3.1279   3.2985   3.7597   3.8212
     5.3928   5.6197   5.6619   6.1612   6.1662   6.3914   6.4860   6.6902
    10.0863  10.2745  10.3013  10.4503  10.9340  11.0381  12.9189  13.1093
    13.3668  13.5179  18.5660  19.1458  20.4646  21.0442  22.7217  22.7609
    24.4907  24.6290  25.5435  25.7707  27.3209  27.8919  29.4395  30.6025
    30.8762  30.9378  33.3135  33.7042  34.4276  34.7279  35.0348  35.3600
    37.6466  38.0506  39.0372  39.1232  40.4078  40.5539  41.8456  41.8954
    43.8459  44.0496  44.1786  44.7514  44.7784

          k =-0.4000 0.4000-0.6207 (  1976 PWs)   bands (ev):

   -49.2562 -49.2559 -25.6634 -25.6614 -25.4460 -25.4418 -25.4110 -25.4095
    -8.8164  -8.7085  -8.6652  -8.5580   3.4409   3.6326   3.6476   3.7794
     4.5586   4.7726   5.4754   5.4855   6.5159   6.6423   7.0155   7.1881
    10.0368  10.3792  10.6147  10.6542  10.7332  11.0280  12.5580  13.1213
    13.1454  13.6999  19.1717  19.5281  20.8900  21.4993  22.0968  22.5465
    23.7999  23.9709  25.3954  25.6448  26.6264  27.0985  29.7154  30.8121
    31.3975  31.5780  31.9485  32.7529  35.1003  35.1965  36.5910  37.3721
    38.6193  39.0249  39.6167  40.0848  40.1878  40.7614  41.0172  41.7546
    42.1369  42.9508  43.7223  44.4651  44.5080

     the Fermi energy is     8.5637 ev

!    total energy              =    -366.48713599 Ry
     Harris-Foulkes estimate   =    -366.48713599 Ry
     estimated scf accuracy    <          4.5E-09 Ry

     The total energy is the sum of the following terms:

     one-electron contribution =    -136.20046585 Ry
     hartree contribution      =      89.31016013 Ry
     xc contribution           =     -62.96534941 Ry
     ewald contribution        =    -256.63148086 Ry
     smearing contrib. (-TS)   =       0.00000000 Ry

     total magnetization       =     0.00 Bohr mag/cell
     absolute magnetization    =     0.00 Bohr mag/cell

     convergence has been achieved in  12 iterations

     Forces acting on atoms (Ry/au):


     negative rho (up, down):  0.123E-01 0.123E-01
     atom    1 type  1   force =     0.00000000    0.00000000    0.00000000
     atom    2 type  1   force =     0.00000000    0.00000000    0.00000000
     atom    3 type  2   force =     0.00779589    0.00779589    0.00000000
     atom    4 type  2   force =    -0.00779589   -0.00779589   -0.00000000
     atom    5 type  2   force =     0.00779384   -0.00779384    0.00000000
     atom    6 type  2   force =    -0.00779384    0.00779384    0.00000000

     Total force =     0.022047     Total SCF correction =     0.000028


     entering subroutine stress ...


     negative rho (up, down):  0.123E-01 0.123E-01
          total   stress  (Ry/bohr**3)                   (kbar)     P= -139.77
  -0.00082633   0.00000000   0.00000000       -121.56      0.00      0.00
   0.00000000  -0.00082633   0.00000000          0.00   -121.56      0.00
   0.00000000   0.00000000  -0.00119775          0.00      0.00   -176.19

     Volume is kept fixed: isostatic pressure set to zero

     BFGS Geometry Optimization

     number of scf cycles    =   1
     number of bfgs steps    =   0

     enthalpy new            =    -366.4871359885 Ry

     new trust radius        =       0.0265600088 bohr
     new conv_thr            =       0.0000010000 Ry

     new unit-cell volume =    460.23642 a.u.^3 (    68.20000 Ang^3 )

CELL_PARAMETERS (alat=  8.93851073)
   1.003104751   0.000000063   0.000000000
   0.000000063   1.003104751   0.000000000
   0.000000000   0.000000000   0.640461325

ATOMIC_POSITIONS (crystal)
Ti0      0.000000000   0.000000000   0.000000000    0   0   0
Ti0      0.500000000   0.500000000   0.500000000    0   0   0
O1       0.305872168   0.305872168   0.000000000    1   1   0
O1      -0.305872168  -0.305872168   0.000000000    1   1   0
O1       0.805871939   0.194128061   0.500000000    1   1   0
O1       0.194128061   0.805871939   0.500000000    1   1   0


     Check: negative starting charge=(component1):   -0.025125
     NEW-OLD atomic charge density approx. for the potential
     NEW k-points:
        k(    1) = (   0.0000000   0.0000000   0.0000000), wk =   0.0080000
        k(    2) = (   0.0000000   0.0000000   0.3122749), wk =   0.0160000
        k(    3) = (   0.0000000   0.0000000   0.6245498), wk =   0.0160000
        k(    4) = (  -0.0000000   0.1993810   0.0000000), wk =   0.0320000
        k(    5) = (  -0.0000000   0.1993810   0.3122749), wk =   0.0640000
        k(    6) = (  -0.0000000   0.1993810   0.6245498), wk =   0.0640000
        k(    7) = (  -0.0000000   0.3987619   0.0000000), wk =   0.0320000
        k(    8) = (  -0.0000000   0.3987619   0.3122749), wk =   0.0640000
        k(    9) = (  -0.0000000   0.3987619   0.6245498), wk =   0.0640000
        k(   10) = (   0.1993810   0.1993810   0.0000000), wk =   0.0160000
        k(   11) = (   0.1993810   0.1993810   0.3122749), wk =   0.0320000
        k(   12) = (   0.1993810   0.1993810   0.6245498), wk =   0.0320000
        k(   13) = (   0.1993809   0.3987619   0.0000000), wk =   0.0320000
        k(   14) = (   0.1993809   0.3987619   0.3122749), wk =   0.0640000
        k(   15) = (   0.1993809   0.3987619   0.6245498), wk =   0.0640000
        k(   16) = (   0.3987619   0.3987619   0.0000000), wk =   0.0160000
        k(   17) = (   0.3987619   0.3987619   0.3122749), wk =   0.0320000
        k(   18) = (   0.3987619   0.3987619   0.6245498), wk =   0.0320000
        k(   19) = (  -0.1993810   0.1993810   0.0000000), wk =   0.0160000
        k(   20) = (  -0.1993810   0.1993810  -0.3122749), wk =   0.0320000
        k(   21) = (  -0.1993810   0.1993810  -0.6245498), wk =   0.0320000
        k(   22) = (  -0.1993810   0.3987620   0.0000000), wk =   0.0320000
        k(   23) = (  -0.1993810   0.3987620  -0.3122749), wk =   0.0640000
        k(   24) = (  -0.1993810   0.3987620  -0.6245498), wk =   0.0640000
        k(   25) = (  -0.3987620   0.3987620   0.0000000), wk =   0.0160000
        k(   26) = (  -0.3987620   0.3987620  -0.3122749), wk =   0.0320000
        k(   27) = (  -0.3987620   0.3987620  -0.6245498), wk =   0.0320000
        k(   28) = (   0.0000000   0.0000000   0.0000000), wk =   0.0080000
        k(   29) = (   0.0000000   0.0000000   0.3122749), wk =   0.0160000
        k(   30) = (   0.0000000   0.0000000   0.6245498), wk =   0.0160000
        k(   31) = (  -0.0000000   0.1993810   0.0000000), wk =   0.0320000
        k(   32) = (  -0.0000000   0.1993810   0.3122749), wk =   0.0640000
        k(   33) = (  -0.0000000   0.1993810   0.6245498), wk =   0.0640000
        k(   34) = (  -0.0000000   0.3987619   0.0000000), wk =   0.0320000
        k(   35) = (  -0.0000000   0.3987619   0.3122749), wk =   0.0640000
        k(   36) = (  -0.0000000   0.3987619   0.6245498), wk =   0.0640000
        k(   37) = (   0.1993810   0.1993810   0.0000000), wk =   0.0160000
        k(   38) = (   0.1993810   0.1993810   0.3122749), wk =   0.0320000
        k(   39) = (   0.1993810   0.1993810   0.6245498), wk =   0.0320000
        k(   40) = (   0.1993809   0.3987619   0.0000000), wk =   0.0320000
        k(   41) = (   0.1993809   0.3987619   0.3122749), wk =   0.0640000
        k(   42) = (   0.1993809   0.3987619   0.6245498), wk =   0.0640000
        k(   43) = (   0.3987619   0.3987619   0.0000000), wk =   0.0160000
        k(   44) = (   0.3987619   0.3987619   0.3122749), wk =   0.0320000
        k(   45) = (   0.3987619   0.3987619   0.6245498), wk =   0.0320000
        k(   46) = (  -0.1993810   0.1993810   0.0000000), wk =   0.0160000
        k(   47) = (  -0.1993810   0.1993810  -0.3122749), wk =   0.0320000
        k(   48) = (  -0.1993810   0.1993810  -0.6245498), wk =   0.0320000
        k(   49) = (  -0.1993810   0.3987620   0.0000000), wk =   0.0320000
        k(   50) = (  -0.1993810   0.3987620  -0.3122749), wk =   0.0640000
        k(   51) = (  -0.1993810   0.3987620  -0.6245498), wk =   0.0640000
        k(   52) = (  -0.3987620   0.3987620   0.0000000), wk =   0.0160000
        k(   53) = (  -0.3987620   0.3987620  -0.3122749), wk =   0.0320000
        k(   54) = (  -0.3987620   0.3987620  -0.6245498), wk =   0.0320000

     Check: negative/imaginary core charge=   -0.000014    0.000000
     Check: negative starting charge=(component1):   -0.025082

     negative rho (up, down):  0.123E-01 0.123E-01

     total cpu time spent up to now is      398.6 secs

     per-process dynamical memory:    61.0 Mb

     Self-consistent Calculation

     iteration #  1     ecut=    40.00 Ry     beta=0.70
     Davidson diagonalization with overlap
     ethr =  1.00E-06,  avg # of iterations =  4.4

     negative rho (up, down):  0.123E-01 0.123E-01

     total cpu time spent up to now is      453.9 secs

     total energy              =    -366.48837984 Ry
     Harris-Foulkes estimate   =    -366.48856447 Ry
     estimated scf accuracy    <       0.00029845 Ry

     total magnetization       =    -0.00 Bohr mag/cell
     absolute magnetization    =     0.00 Bohr mag/cell

     iteration #  2     ecut=    40.00 Ry     beta=0.70
     Davidson diagonalization with overlap
     ethr =  6.22E-07,  avg # of iterations =  2.0

     negative rho (up, down):  0.123E-01 0.123E-01

     total cpu time spent up to now is      479.2 secs

     total energy              =    -366.48832428 Ry
     Harris-Foulkes estimate   =    -366.48853075 Ry
     estimated scf accuracy    <       0.00044283 Ry

     total magnetization       =     0.00 Bohr mag/cell
     absolute magnetization    =     0.00 Bohr mag/cell

     iteration #  3     ecut=    40.00 Ry     beta=0.70
     Davidson diagonalization with overlap
     ethr =  6.22E-07,  avg # of iterations =  1.0

     negative rho (up, down):  0.123E-01 0.123E-01

     total cpu time spent up to now is      501.5 secs

     total energy              =    -366.48842947 Ry
     Harris-Foulkes estimate   =    -366.48849680 Ry
     estimated scf accuracy    <       0.00023292 Ry

     total magnetization       =     0.00 Bohr mag/cell
     absolute magnetization    =     0.00 Bohr mag/cell

     iteration #  4     ecut=    40.00 Ry     beta=0.70
     Davidson diagonalization with overlap
     ethr =  4.85E-07,  avg # of iterations =  1.0

     negative rho (up, down):  0.123E-01 0.123E-01

     total cpu time spent up to now is      524.0 secs

     End of self-consistent calculation

 ------ SPIN UP ------------


          k = 0.0000 0.0000 0.0000 (  1955 PWs)   bands (ev):

   -49.2747 -49.2646 -25.5183 -25.5183 -25.4036 -25.4036 -25.3686 -25.3453
    -9.9141  -8.8761  -8.3204  -8.3204   2.4902   2.9782   3.5279   4.3603
     4.3603   5.4741   5.4741   6.0332   7.1878   7.4506   7.4506   7.8573
     9.5824   9.8484  10.0843  10.1388  10.1388  11.6369  11.9377  13.8527
    13.8527  14.5889  15.1486  19.0444  19.0444  21.7013  22.8980  23.5839
    24.6641  26.0361  26.0361  26.9879  28.1030  29.8269  30.8848  30.8848
    31.8658  32.4138  32.4138  32.8317  32.9267  32.9267  33.3516  35.1623
    37.3778  37.7450  38.2740  38.8098  38.8098  39.9032  39.9032  40.0926
    42.1888  42.1888  42.2093  43.4325  45.5410

          k = 0.0000 0.0000 0.3123 (  1947 PWs)   bands (ev):

   -49.2636 -49.2554 -25.4883 -25.4883 -25.4848 -25.4671 -25.3987 -25.3987
    -9.5836  -8.7125  -8.4540  -8.4539   2.9877   3.3348   3.9472   4.1092
     4.1093   5.1097   5.9783   6.0291   6.0291   6.7913   6.7913   7.6754
     9.8982  10.0906  10.2151  10.5391  10.5391  11.6540  12.1184  13.4293
    13.4294  14.0595  16.3004  20.3425  20.3425  21.8229  22.4357  24.0535
    24.5413  25.1866  25.6912  25.6912  26.5321  29.9993  29.9993  30.1859
    31.5143  31.5143  31.5758  32.6624  33.3932  35.6974  35.6974  35.9635
    36.5987  36.5987  37.3034  38.3113  40.3092  41.2557  41.2557  41.6660
    41.7490  43.7848  43.7849  44.1087  44.8020

          k = 0.0000 0.0000 0.6245 (  1980 PWs)   bands (ev):

   -49.2447 -49.2416 -25.6666 -25.6604 -25.4311 -25.4311 -25.3990 -25.3990
    -8.9162  -8.6691  -8.6691  -8.5608   3.7531   3.7953   4.2411   4.3288
     4.3289   4.6455   5.1051   5.5733   5.5733   6.4674   6.4674   6.6260
    10.1367  10.4759  10.8121  10.9242  11.0883  11.0883  12.6080  12.9672
    13.2337  13.2338  18.5826  20.7655  22.3050  22.3225  22.3225  23.3498
    24.4858  24.6980  24.6980  24.7931  25.3012  27.4418  29.1413  29.1413
    31.4550  31.4550  32.7254  33.6887  33.8013  35.6253  35.9872  35.9872
    36.5856  38.6278  38.6278  38.9032  41.4377  41.4377  41.4848  41.8316
    43.7083  43.7461  44.0049  44.0049  44.4869

          k =-0.0000 0.1994 0.0000 (  1964 PWs)   bands (ev):

   -49.2737 -49.2655 -25.5104 -25.5098 -25.4129 -25.4123 -25.3663 -25.3475
    -9.7992  -8.9087  -8.4081  -8.3537   2.7101   3.0990   3.7509   4.3727
     4.3802   5.2821   5.4125   6.0652   6.8281   6.9794   7.2026   7.7326
     9.7601  10.0664  10.2612  10.3050  10.3213  11.7633  11.9300  13.7515
    13.7715  14.3755  15.6072  18.8110  19.3134  21.8098  22.6121  23.3790
    24.5687  26.0546  26.5103  27.3124  28.4306  29.2821  29.6877  29.8623
    30.9534  32.0644  32.6116  32.6450  33.1414  33.4782  35.3124  36.0087
    36.9160  37.9866  38.5810  38.5919  38.8850  39.3135  40.2898  41.3905
    41.9621  42.3485  43.2453  44.0728  44.6455

          k =-0.0000 0.1994 0.3123 (  1949 PWs)   bands (ev):

   -49.2628 -49.2562 -25.4951 -25.4820 -25.4714 -25.4708 -25.4048 -25.4029
    -9.4883  -8.7218  -8.5399  -8.4767   3.1562   3.4761   3.8795   4.0776
     4.4662   5.0204   5.4980   5.9313   5.9617   6.7625   6.7737   7.5616
     9.9331  10.3224  10.3517  10.4935  10.6874  11.5270  12.3000  13.0921
    13.3745  14.1678  16.6735  19.8594  20.5408  22.1404  22.4898  23.6778
    24.4916  24.8769  25.1703  26.4131  26.9629  28.7705  29.1498  30.4853
    31.3830  31.4488  32.8149  32.9335  33.6441  34.9696  35.5336  35.6546
    36.3752  37.2396  38.1168  39.0741  40.4365  40.8720  41.7208  42.0302
    42.0995  43.0472  43.5321  44.1734  44.3941

          k =-0.0000 0.1994 0.6245 (  1962 PWs)   bands (ev):

   -49.2444 -49.2419 -25.6683 -25.6632 -25.4277 -25.4266 -25.4013 -25.4003
    -8.9355  -8.7645  -8.6133  -8.4963   3.6943   3.8018   3.8564   4.1674
     4.5376   4.7594   5.3008   5.6888   5.7356   6.3261   6.4208   6.8421
     9.9225  10.5131  10.5743  10.8152  11.1861  11.2482  12.4631  12.4852
    13.5082  13.8016  18.6658  20.5316  21.6533  22.4940  22.9075  23.0715
    24.2395  24.3240  24.6084  24.8342  25.9249  26.8602  28.9573  29.4939
    31.6786  31.8676  33.0108  33.5915  34.1606  35.3907  35.5478  36.2349
    37.0769  38.1402  38.4809  38.9317  40.2613  41.6325  41.8469  42.1458
    42.7050  43.4292  44.1559  44.6666  45.1365

          k =-0.0000 0.3988 0.0000 (  1972 PWs)   bands (ev):

   -49.2712 -49.2680 -25.4924 -25.4915 -25.4324 -25.4314 -25.3605 -25.3533
    -9.4928  -9.1213  -8.4857  -8.4314   3.1389   3.2962   4.3979   4.4055
     4.4677   5.0035   5.1436   5.6171   6.2221   6.5624   7.0879   7.3795
    10.0552  10.2042  10.4929  10.5357  10.8130  11.3436  12.7384  13.5924
    13.6142  13.6873  16.7476  17.9806  20.1226  21.2553  22.7596  23.1383
    24.6830  25.7552  26.4569  27.6280  28.1740  29.1439  29.3036  29.8654
    30.5625  30.9208  32.4763  32.6095  33.7964  34.0048  34.6848  35.0093
    38.3889  38.5414  39.1422  39.1555  39.4034  40.0115  41.6838  42.3690
    42.6292  42.9914  43.4322  43.6472  43.8010

          k =-0.0000 0.3988 0.3123 (  1964 PWs)   bands (ev):

   -49.2608 -49.2582 -25.4933 -25.4838 -25.4647 -25.4576 -25.4162 -25.4130
    -9.2331  -8.9114  -8.5864  -8.5324   3.5341   3.7227   3.9912   4.0409
     4.7450   4.8986   5.2108   5.5247   5.7272   6.2957   7.0316   7.3150
    10.1672  10.3769  10.6051  10.6581  10.9589  11.2219  12.5568  12.6993
    13.4826  13.9370  17.6482  18.8234  21.1870  22.0778  22.7877  23.2889
    24.3463  24.3936  24.9797  26.3158  27.3488  28.0555  28.8999  30.5122
    31.5077  31.7566  32.7810  33.3200  33.6197  34.2405  35.7203  35.7795
    36.2945  37.5049  38.5353  39.4282  40.4747  41.0580  42.0802  42.8588
    43.1230  43.2191  43.9283  44.0750  44.4285

          k =-0.0000 0.3988 0.6245 (  1963 PWs)   bands (ev):

   -49.2436 -49.2426 -25.6703 -25.6683 -25.4200 -25.4179 -25.4067 -25.4047
    -8.9369  -8.8772  -8.5186  -8.4678   3.4503   3.5446   3.9885   4.1662
     4.5544   4.9582   5.2297   5.6656   6.1202   6.1531   6.6688   7.0611
     9.6851   9.9688  10.7172  10.8067  11.2987  11.3128  12.1702  12.2554
    13.9905  14.1676  19.0481  19.7938  21.5953  22.0924  23.0950  23.4094
    23.6716  23.9046  24.8663  25.1765  25.8245  25.8734  29.4453  30.0785
    32.3043  32.4365  33.5185  33.5359  34.4637  34.4925  35.2777  35.6242
    36.4698  37.3289  39.3475  39.6155  40.8642  41.3464  42.1717  42.2008
    42.6327  43.1237  44.8049  44.9746  45.1035

          k = 0.1994 0.1994 0.0000 (  1967 PWs)   bands (ev):

   -49.2729 -49.2663 -25.5209 -25.4906 -25.4329 -25.4020 -25.3645 -25.3493
    -9.7075  -8.9600  -8.4673  -8.3557   2.7007   3.2919   3.9406   4.3411
     4.4088   5.0573   5.5685   6.1184   6.5273   6.8874   7.0137   7.6430
     9.6472  10.1440  10.1922  10.5169  10.5359  11.6692  12.1104  13.6028
    13.8501  14.1338  16.0800  18.9940  19.1870  21.9512  22.1577  23.2200
    24.5560  25.8488  27.2352  27.6223  28.6811  29.1821  29.3727  29.6164
    29.6226  31.3912  31.6285  33.0769  34.1260  34.3740  36.1628  36.2354
    36.5546  37.7758  38.1913  38.4216  39.6188  39.6988  40.6355  41.2502
    41.9340  43.0281  43.2996  43.9979  44.1301

          k = 0.1994 0.1994 0.3123 (  1961 PWs)   bands (ev):

   -49.2622 -49.2568 -25.4905 -25.4899 -25.4757 -25.4592 -25.4152 -25.3974
    -9.4102  -8.7584  -8.5843  -8.4855   3.1110   3.6988   3.7919   4.1301
     4.6503   4.8727   5.5431   5.6709   6.0542   6.6753   6.8207   7.4227
     9.9786  10.1225  10.4651  10.7180  10.7434  11.4280  12.3780  12.9508
    13.4313  14.0931  17.0308  19.8565  20.2916  22.3985  22.5067  23.0084
    24.4521  24.7108  25.9869  26.2047  27.0046  28.1318  28.8884  30.6807
    31.4020  31.5328  32.4630  32.8451  34.2438  35.0527  35.2249  36.0324
    36.6983  37.4975  38.2863  38.8489  40.6707  41.1150  41.4767  41.9310
    42.6529  43.1996  43.9694  44.0737  44.5883

          k = 0.1994 0.1994 0.6245 (  1964 PWs)   bands (ev):

   -49.2442 -49.2421 -25.6694 -25.6633 -25.4322 -25.4182 -25.4061 -25.3986
    -8.9445  -8.6984  -8.6951  -8.4671   3.5397   3.8248   3.9458   4.0289
     4.2375   5.0614   5.4154   5.6332   5.7938   6.3627   6.5082   6.9927
     9.8051  10.5826  10.5918  10.7661  10.9206  11.4022  12.1365  12.9597
    13.2272  14.0505  18.7322  20.5612  20.9733  22.4681  22.7011  23.3827
    23.8015  24.1144  24.9477  25.3592  25.4801  27.4268  28.3271  29.9508
    31.6966  31.7427  32.5828  34.1968  34.5842  35.3251  35.4470  36.2972
    37.9739  38.0529  38.6081  39.2331  39.8338  40.9492  41.1136  42.1934
    43.1715  43.1922  44.2048  44.8501  45.0915

          k = 0.1994 0.3988 0.0000 (  1972 PWs)   bands (ev):

   -49.2708 -49.2683 -25.5139 -25.4943 -25.4300 -25.4099 -25.3598 -25.3540
    -9.4644  -9.1658  -8.4798  -8.4140   2.8945   3.2364   4.3492   4.3907
     4.5210   5.0886   5.4603   5.9740   6.3143   6.6229   6.8166   7.2325
     9.8469  10.1310  10.2868  10.5176  10.9541  11.3703  12.7127  13.4954
    13.6016  13.7584  17.1453  18.2751  19.9684  21.1183  22.4401  22.8796
    24.7560  25.4862  27.2876  27.9602  28.4284  29.2436  29.3509  29.3719
    29.6173  30.4316  31.7620  33.2984  33.5863  34.7183  35.3649  35.9040
    38.0784  38.2354  38.4774  38.6190  39.5161  40.0311  41.6702  42.3660
    42.5641  42.9946  43.2470  43.5757  43.7665

          k = 0.1994 0.3988 0.3123 (  1961 PWs)   bands (ev):

   -49.2605 -49.2585 -25.4928 -25.4866 -25.4747 -25.4598 -25.4134 -25.4018
    -9.2033  -8.9452  -8.5798  -8.5290   3.2826   3.6487   3.8234   3.9648
     4.9200   5.1648   5.4029   5.7464   5.9128   6.3560   6.8301   7.1159
    10.1874  10.2864  10.4331  10.6805  10.9232  11.1742  12.6213  12.9043
    13.4607  13.8063  17.9164  18.9875  20.8473  21.8366  22.7300  22.8185
    24.4658  24.5505  25.5622  26.2227  27.1150  27.7892  29.0528  30.6754
    31.2959  31.6084  32.8031  33.0254  34.0094  34.3571  35.3881  36.2077
    37.0968  37.7692  38.6970  39.2762  40.1612  41.2715  41.6476  42.2194
    43.1330  43.6057  44.0786  44.3246  44.7743

          k = 0.1994 0.3988 0.6245 (  1974 PWs)   bands (ev):

   -49.2435 -49.2427 -25.6690 -25.6658 -25.4288 -25.4199 -25.4050 -25.4001
    -8.9146  -8.8227  -8.5757  -8.4850   3.4178   3.5641   3.9093   4.0474
     4.4221   4.9193   5.3981   5.5316   6.1901   6.4053   6.7836   7.1273
     9.7601  10.1231  10.6864  10.7720  11.0523  11.2975  12.2034  12.5904
    13.7141  14.0919  19.0631  19.8065  21.0332  21.7981  22.7423  23.0804
    24.0326  24.3244  24.6083  25.0736  26.0335  26.9434  29.1075  30.4217
    31.8358  32.0558  32.3092  33.5852  34.6206  34.9176  35.9260  37.0861
    37.2131  38.2502  39.4142  39.5213  40.2373  40.9759  41.0952  42.2542
    42.7635  43.1458  43.8543  44.6162  45.0617

          k = 0.3988 0.3988 0.0000 (  1962 PWs)   bands (ev):

   -49.2700 -49.2691 -25.5250 -25.5163 -25.4083 -25.3993 -25.3580 -25.3557
    -9.3844  -9.2715  -8.4451  -8.4113   2.7455   2.9083   4.3095   4.3328
     4.9216   5.2768   5.8407   6.2133   6.5232   6.5237   6.6612   7.0283
     9.6183   9.8361  10.1531  10.2920  11.1975  11.3492  12.8139  13.1137
    13.7560  13.8453  17.9998  18.6501  19.8016  20.5072  22.2853  22.4876
    24.9989  25.3488  27.7201  28.0582  28.5525  28.6584  29.0351  29.3611
    29.5600  30.0082  32.6364  33.4747  33.9919  34.0021  35.6329  36.2808
    37.7696  38.0446  38.5995  38.6271  39.0489  39.0529  42.1057  42.8528
    42.9800  43.2790  43.3333  43.3995  45.1584

          k = 0.3988 0.3988 0.3123 (  1972 PWs)   bands (ev):

   -49.2599 -49.2591 -25.4941 -25.4921 -25.4776 -25.4706 -25.4006 -25.3952
    -9.1258  -9.0285  -8.5582  -8.5353   3.1288   3.2939   3.7403   3.8007
     5.3869   5.6122   5.6415   6.1426   6.1587   6.3659   6.4758   6.6583
    10.1062  10.2966  10.3193  10.4618  10.9417  11.0457  12.9138  13.0926
    13.4285  13.5461  18.5576  19.1331  20.4634  21.0375  22.7747  22.8053
    24.4538  24.5762  25.5867  25.8172  27.2938  27.8533  29.5081  30.6588
    30.9427  30.9959  33.2981  33.6915  34.4448  34.6993  35.0488  35.3430
    37.7214  38.1313  38.9571  39.0072  40.4136  40.5204  41.8758  41.9388
    43.8154  43.9351  44.2466  44.6918  44.7978

          k = 0.3988 0.3988 0.6245 (  1976 PWs)   bands (ev):

   -49.2433 -49.2430 -25.6652 -25.6633 -25.4339 -25.4297 -25.3998 -25.3981
    -8.8333  -8.7365  -8.6609  -8.5630   3.4366   3.6286   3.6551   3.7913
     4.5373   4.7498   5.4385   5.4562   6.5107   6.6310   6.9746   7.1571
    10.0321  10.3646  10.6558  10.6967  10.7551  11.0292  12.5840  13.1058
    13.2139  13.7258  19.1671  19.5228  20.8862  21.4875  22.1196  22.5572
    23.8564  24.0167  25.3632  25.6122  26.5885  27.0723  29.6762  30.8012
    31.3220  31.5983  31.9266  32.7784  35.0420  35.1466  36.6718  37.4327
    38.6865  39.0736  39.7715  40.1750  40.2221  40.8078  40.9514  41.6698
    42.2239  42.9679  43.5574  44.3454  44.4051

          k =-0.1994 0.1994 0.0000 (  1967 PWs)   bands (ev):

   -49.2729 -49.2663 -25.5209 -25.4907 -25.4329 -25.4020 -25.3645 -25.3493
    -9.7075  -8.9600  -8.4674  -8.3557   2.7007   3.2918   3.9406   4.3412
     4.4087   5.0573   5.5685   6.1183   6.5273   6.8874   7.0137   7.6430
     9.6472  10.1440  10.1922  10.5169  10.5358  11.6692  12.1104  13.6028
    13.8501  14.1338  16.0800  18.9940  19.1870  21.9512  22.1577  23.2200
    24.5560  25.8488  27.2352  27.6223  28.6811  29.1821  29.3727  29.6164
    29.6226  31.3911  31.6286  33.0769  34.1260  34.3739  36.1628  36.2354
    36.5546  37.7758  38.1913  38.4216  39.6188  39.6988  40.6355  41.2502
    41.9340  43.0281  43.2995  43.9979  44.1301

          k =-0.1994 0.1994-0.3123 (  1961 PWs)   bands (ev):

   -49.2622 -49.2568 -25.4905 -25.4899 -25.4757 -25.4592 -25.4152 -25.3974
    -9.4102  -8.7585  -8.5844  -8.4854   3.1111   3.6988   3.7920   4.1301
     4.6503   4.8727   5.5431   5.6709   6.0542   6.6753   6.8207   7.4227
     9.9786  10.1225  10.4651  10.7180  10.7434  11.4280  12.3780  12.9508
    13.4313  14.0931  17.0308  19.8565  20.2916  22.3985  22.5067  23.0084
    24.4521  24.7108  25.9869  26.2047  27.0046  28.1318  28.8884  30.6807
    31.4020  31.5329  32.4630  32.8451  34.2438  35.0527  35.2249  36.0324
    36.6983  37.4975  38.2863  38.8489  40.6707  41.1150  41.4767  41.9310
    42.6529  43.1996  43.9694  44.0737  44.5883

          k =-0.1994 0.1994-0.6245 (  1964 PWs)   bands (ev):

   -49.2442 -49.2421 -25.6694 -25.6633 -25.4322 -25.4182 -25.4061 -25.3986
    -8.9446  -8.6983  -8.6951  -8.4671   3.5397   3.8248   3.9458   4.0289
     4.2375   5.0613   5.4154   5.6332   5.7938   6.3627   6.5081   6.9927
     9.8051  10.5826  10.5919  10.7661  10.9206  11.4022  12.1365  12.9597
    13.2272  14.0505  18.7322  20.5612  20.9733  22.4681  22.7011  23.3827
    23.8015  24.1144  24.9477  25.3592  25.4801  27.4268  28.3271  29.9508
    31.6965  31.7427  32.5828  34.1968  34.5842  35.3251  35.4470  36.2972
    37.9739  38.0529  38.6081  39.2331  39.8338  40.9492  41.1136  42.1934
    43.1715  43.1922  44.2048  44.8501  45.0915

          k =-0.1994 0.3988 0.0000 (  1972 PWs)   bands (ev):

   -49.2708 -49.2683 -25.5139 -25.4944 -25.4300 -25.4099 -25.3598 -25.3540
    -9.4644  -9.1658  -8.4799  -8.4140   2.8945   3.2364   4.3493   4.3907
     4.5210   5.0886   5.4603   5.9741   6.3143   6.6229   6.8166   7.2325
     9.8470  10.1310  10.2868  10.5176  10.9541  11.3703  12.7127  13.4954
    13.6015  13.7585  17.1453  18.2751  19.9684  21.1184  22.4401  22.8796
    24.7560  25.4862  27.2876  27.9602  28.4284  29.2436  29.3509  29.3719
    29.6173  30.4316  31.7620  33.2984  33.5863  34.7183  35.3649  35.9040
[...]
     4.4736   4.7208   5.2838   5.6925   5.6999   6.2425   6.3295   6.8596
     9.8906  10.5217  10.6519  10.9318  11.2112  11.2616  12.4842  12.4994
    13.6609  13.8889  18.6920  20.5334  21.6289  22.5870  22.8860  23.1226
    24.2253  24.2511  24.5720  24.8493  25.8511  26.9227  28.9389  29.4654
    31.5769  31.7528  33.1024  33.5156  34.0066  35.3344  35.6072  36.1874
    37.0567  38.1166  38.6459  38.9387  40.4564  41.3364  42.0927  42.3761
    42.6802  43.5025  44.4014  44.6605  45.1739

          k = 0.0000 0.3963 0.0000 (  1974 PWs)   bands (ev):

   -49.2345 -49.2316 -25.4648 -25.4640 -25.4009 -25.4001 -25.3130 -25.3063
    -9.5473  -9.1941  -8.4852  -8.4418   3.0480   3.1980   4.3360   4.3421
     4.4416   5.0290   5.1717   5.5796   6.3048   6.6226   7.0119   7.2881
    10.0953  10.2591  10.5038  10.5381  10.8925  11.3998  12.6618  13.6103
    13.8018  13.8193  16.7289  17.9701  20.1509  21.2367  22.7577  23.1173
    24.6280  25.6613  26.4436  27.6397  28.4755  29.4015  29.6333  29.7903
    30.8307  30.8473  32.3411  32.4602  33.9322  34.0213  34.6133  35.1316
    38.3073  38.4229  39.0254  39.3930  39.6681  39.7877  41.5381  42.4401
    42.6775  42.8049  43.2698  43.5321  44.0771

          k = 0.0000 0.3963 0.3161 (  1965 PWs)   bands (ev):

   -49.2224 -49.2200 -25.4614 -25.4526 -25.4333 -25.4268 -25.3839 -25.3811
    -9.2629  -8.9574  -8.6038  -8.5607   3.4826   3.6520   3.9343   3.9928
     4.7367   4.9020   5.2193   5.5617   5.7557   6.2503   6.9422   7.2284
    10.2264  10.4338  10.6820  10.7347  10.9743  11.2429  12.5327  12.7623
    13.6021  13.9624  17.6521  18.8156  21.2305  22.0806  22.7955  23.2818
    24.3791  24.3967  24.9775  26.3100  27.5147  28.2090  28.8217  30.5082
    31.4957  31.7872  32.6611  33.2319  33.7559  34.3048  35.6607  35.8403
    36.3984  37.5164  38.4688  39.5069  40.4595  41.0866  42.0317  42.9364
    42.9890  43.2329  43.7987  44.1304  44.4703

          k = 0.0000 0.3963 0.6322 (  1968 PWs)   bands (ev):

   -49.2025 -49.2015 -25.6643 -25.6625 -25.3829 -25.3809 -25.3718 -25.3699
    -8.9623  -8.9145  -8.5385  -8.4775   3.4195   3.5128   3.9942   4.1601
     4.5538   4.9325   5.2297   5.6518   6.0654   6.0739   6.5947   7.0219
     9.6941   9.9864  10.8177  10.9207  11.3141  11.3265  12.2226  12.3066
    14.0755  14.2315  19.0389  19.7640  21.6125  22.1175  23.0887  23.4069
    23.7034  23.8705  24.8726  25.1992  25.8113  25.9394  29.3591  29.9689
    32.2691  32.3852  33.4678  33.5737  34.3314  34.3522  35.1881  35.6011
    36.6903  37.4047  39.5113  39.5973  41.1612  41.6087  41.9973  42.0493
    42.9400  43.3552  44.7309  44.9074  45.2033

          k = 0.1982 0.1982 0.0000 (  1981 PWs)   bands (ev):

   -49.2362 -49.2299 -25.4914 -25.4633 -25.4014 -25.3726 -25.3167 -25.3025
    -9.7520  -9.0348  -8.4678  -8.3764   2.6624   3.1962   3.9218   4.2893
     4.3447   5.0903   5.5026   6.2030   6.4737   6.9164   6.9327   7.5828
     9.6760  10.1989  10.2508  10.5230  10.6260  11.7092  12.0485  13.8103
    14.0250  14.0519  16.0742  19.0217  19.2283  21.8419  22.2182  23.2691
    24.5192  25.6755  27.1696  27.9434  29.0313  29.0914  29.3854  29.5163
    29.8451  31.2866  31.8658  33.2423  34.0398  34.2626  36.0544  36.3603
    36.4568  37.8200  38.2901  38.4077  39.5571  39.9429  40.4783  41.4954
    41.7764  42.7699  43.1328  43.8574  44.2894

          k = 0.1982 0.1982 0.3161 (  1969 PWs)   bands (ev):

   -49.2238 -49.2186 -25.4582 -25.4578 -25.4450 -25.4283 -25.3830 -25.3658
    -9.4316  -8.8087  -8.5993  -8.5226   3.1062   3.6399   3.7485   4.0654
     4.6206   4.8932   5.5405   5.6953   6.0059   6.6564   6.7393   7.3384
    10.0526  10.1826  10.5332  10.7666  10.7719  11.4450  12.3343  13.0357
    13.5969  14.0793  17.0522  19.8541  20.3500  22.3692  22.6111  23.0074
    24.4402  24.7194  26.0217  26.1241  27.0502  28.2596  28.8354  30.8511
    31.3468  31.4325  32.5407  32.8515  34.2099  35.0875  35.2393  36.0250
    36.6628  37.4975  38.3219  38.9183  40.6994  41.0579  41.4581  42.0232
    42.4011  43.2434  43.8437  44.1056  44.5530

          k = 0.1982 0.1982 0.6322 (  1955 PWs)   bands (ev):

   -49.2030 -49.2010 -25.6636 -25.6582 -25.3953 -25.3812 -25.3713 -25.3626
    -8.9631  -8.7589  -8.7012  -8.4752   3.5034   3.8698   3.9256   4.0084
     4.2248   5.0076   5.3723   5.6333   5.8019   6.2382   6.4424   6.9920
     9.7891  10.5566  10.6792  10.8609  10.9991  11.4113  12.1823  12.8840
    13.4475  14.1299  18.7439  20.5679  20.9240  22.5064  22.8047  23.3630
    23.7799  24.1747  24.9516  25.3423  25.3444  27.4109  28.3031  30.0022
    31.6073  31.6551  32.5349  34.0400  34.7437  35.2023  35.4452  36.2787
    37.8532  38.0988  38.6501  39.3994  39.7380  41.1617  41.3477  42.3836
    42.8966  43.2735  44.1774  44.9511  45.3326

          k = 0.1982 0.3963 0.0000 (  1973 PWs)   bands (ev):

   -49.2343 -49.2318 -25.4847 -25.4666 -25.3987 -25.3801 -25.3123 -25.3069
    -9.5181  -9.2333  -8.4830  -8.4284   2.8440   3.1446   4.2957   4.3296
     4.4905   5.0955   5.4375   5.9318   6.3877   6.6725   6.7483   7.1785
     9.8816  10.1785  10.3233  10.5236  11.0247  11.4235  12.6509  13.4256
    13.8089  13.9445  17.1190  18.2547  19.9720  21.1100  22.4044  22.8850
    24.7281  25.3957  27.2869  27.9653  28.7230  29.3135  29.5037  29.5849
    29.6933  30.7153  31.6305  33.1663  33.7410  34.8559  35.3134  35.8622
    37.9380  38.1127  38.4925  38.6961  39.7590  39.8260  41.9639  42.2136
    42.3380  42.8655  43.3019  43.5346  43.5998

          k = 0.1982 0.3963 0.3161 (  1971 PWs)   bands (ev):

   -49.2222 -49.2202 -25.4606 -25.4550 -25.4435 -25.4290 -25.3814 -25.3701
    -9.2325  -8.9862  -8.6009  -8.5605   3.2676   3.5907   3.7727   3.9145
     4.9200   5.1411   5.4005   5.7651   5.9053   6.3304   6.7525   7.0293
    10.2515  10.3478  10.4976  10.7396  10.9453  11.1972  12.6184  12.9221
    13.6004  13.8505  17.9105  18.9680  20.8580  21.8285  22.7965  22.8815
    24.4167  24.5094  25.6036  26.2730  27.1814  27.8031  29.1141  30.7580
    31.3439  31.6210  32.7806  33.0904  33.9884  34.3925  35.4212  36.2295
    36.9880  37.7712  38.7321  39.3051  40.0974  41.2278  41.7123  42.2916
    42.9209  43.5229  44.1982  44.2768  44.7849

          k = 0.1982 0.3963 0.6322 (  1971 PWs)   bands (ev):

   -49.2024 -49.2016 -25.6632 -25.6604 -25.3920 -25.3830 -25.3700 -25.3644
    -8.9455  -8.8609  -8.5894  -8.4954   3.3923   3.5426   3.9385   4.0480
     4.4039   4.8786   5.3680   5.4967   6.1648   6.3515   6.6984   7.0783
     9.7693  10.1315  10.7845  10.8792  11.0798  11.3116  12.2577  12.6270
    13.8108  14.1644  19.0477  19.7748  21.0355  21.8174  22.7881  23.1060
    24.1016  24.3243  24.6054  25.0310  26.0067  26.9327  29.0287  30.3444
    31.8856  31.9819  32.2490  33.6345  34.4536  34.7938  36.1046  36.9743
    37.3329  38.1840  39.4493  39.6189  40.5732  40.9851  41.2633  42.4735
    42.7961  42.9232  43.8614  44.4826  44.9883

          k = 0.3963 0.3963 0.0000 (  1955 PWs)   bands (ev):

   -49.2335 -49.2326 -25.4953 -25.4871 -25.3785 -25.3700 -25.3106 -25.3085
    -9.4381  -9.3300  -8.4573  -8.4287   2.7146   2.8613   4.2622   4.2815
     4.8694   5.2212   5.7714   6.1292   6.5304   6.5750   6.7007   7.0216
     9.6484   9.8716  10.2058  10.3274  11.2560  11.4019  12.7665  13.0594
    13.9426  14.0209  17.9592  18.6047  19.7925  20.4984  22.2512  22.4769
    24.9736  25.2738  27.8528  28.1880  28.4462  28.5391  29.3100  29.6247
    29.8699  30.2978  32.5270  33.6501  33.8796  34.1569  35.6330  36.2971
    37.6168  38.2595  38.5161  38.7418  38.8020  38.8236  42.4118  42.7772
    42.9992  43.1852  43.1996  43.2965  44.8376

          k = 0.3963 0.3963 0.3161 (  1975 PWs)   bands (ev):

   -49.2216 -49.2208 -25.4612 -25.4597 -25.4469 -25.4399 -25.3689 -25.3637
    -9.1549  -9.0614  -8.5874  -8.5691   3.1313   3.2831   3.6900   3.7484
     5.3722   5.5943   5.5945   6.0919   6.1699   6.3024   6.4753   6.5788
    10.1666  10.3637  10.3745  10.5014  10.9700  11.0734  12.8918  13.0579
    13.5946  13.6559  18.5322  19.0910  20.4730  21.0345  22.8815  22.8934
    24.3731  24.4560  25.6938  25.9337  27.2450  27.7846  29.6643  30.7773
    31.1138  31.1396  33.2518  33.6746  34.4732  34.6515  35.0729  35.3010
    37.8646  38.2861  38.7731  38.8093  40.3949  40.4787  41.9138  42.0372
    43.6297  43.7006  44.3761  44.5055  44.8332

          k = 0.3963 0.3963 0.6322 (  1975 PWs)   bands (ev):

   -49.2021 -49.2018 -25.6600 -25.6583 -25.3969 -25.3929 -25.3640 -25.3620
    -8.8731  -8.7969  -8.6492  -8.5692   3.4255   3.6193   3.6750   3.8208
     4.5010   4.7028   5.3823   5.4086   6.5001   6.6058   6.8772   7.0843
    10.0348  10.3396  10.7417  10.7902  10.8314  11.0526  12.6242  13.0199
    13.4346  13.8193  19.1486  19.5007  20.8875  21.4953  22.1401  22.5751
    23.9750  24.1135  25.2940  25.5505  26.5252  27.0440  29.6088  30.8316
    31.1231  31.5945  31.9538  32.8664  34.9119  35.0391  36.7934  37.5112
    38.7947  39.1750  39.7579  40.3249  40.4822  40.8099  41.1086  41.4960
    42.4265  43.0332  43.2044  44.0980  44.1951

          k =-0.1982 0.1982 0.0000 (  1981 PWs)   bands (ev):

   -49.2362 -49.2299 -25.4914 -25.4632 -25.4014 -25.3726 -25.3167 -25.3025
    -9.7520  -9.0348  -8.4677  -8.3765   2.6623   3.1963   3.9217   4.2891
     4.3449   5.0904   5.5026   6.2030   6.4736   6.9164   6.9328   7.5828
     9.6759  10.1990  10.2509  10.5229  10.6260  11.7092  12.0486  13.8103
    14.0250  14.0519  16.0742  19.0216  19.2284  21.8419  22.2180  23.2692
    24.5192  25.6758  27.1693  27.9434  29.0313  29.0914  29.3853  29.5164
    29.8451  31.2867  31.8657  33.2425  34.0400  34.2626  36.0544  36.3604
    36.4567  37.8200  38.2905  38.4077  39.5569  39.9428  40.4781  41.4953
    41.7765  42.7695  43.1327  43.8570  44.2893

          k =-0.1982 0.1982-0.3161 (  1969 PWs)   bands (ev):

   -49.2238 -49.2186 -25.4582 -25.4579 -25.4451 -25.4283 -25.3831 -25.3658
    -9.4317  -8.8086  -8.5992  -8.5227   3.1061   3.6400   3.7484   4.0655
     4.6206   4.8933   5.5404   5.6954   6.0060   6.6564   6.7392   7.3384
    10.0526  10.1825  10.5331  10.7666  10.7719  11.4450  12.3342  13.0358
    13.5969  14.0792  17.0521  19.8541  20.3500  22.3691  22.6110  23.0074
    24.4402  24.7195  26.0216  26.1242  27.0501  28.2596  28.8356  30.8511
    31.3468  31.4325  32.5407  32.8516  34.2101  35.0875  35.2393  36.0251
    36.6629  37.4974  38.3219  38.9181  40.6995  41.0578  41.4580  42.0231
    42.4012  43.2433  43.8442  44.1053  44.5528

          k =-0.1982 0.1982-0.6322 (  1955 PWs)   bands (ev):

   -49.2030 -49.2010 -25.6635 -25.6583 -25.3953 -25.3811 -25.3714 -25.3626
    -8.9630  -8.7590  -8.7013  -8.4752   3.5035   3.8697   3.9256   4.0084
     4.2248   5.0077   5.3722   5.6334   5.8018   6.2381   6.4426   6.9920
     9.7891  10.5567  10.6791  10.8610  10.9991  11.4113  12.1822  12.8842
    13.4475  14.1298  18.7439  20.5679  20.9240  22.5064  22.8047  23.3629
    23.7799  24.1746  24.9516  25.3422  25.3447  27.4108  28.3032  30.0021
    31.6074  31.6552  32.5350  34.0400  34.7435  35.2024  35.4451  36.2786
    37.8533  38.0990  38.6502  39.3995  39.7382  41.1616  41.3479  42.3836
    42.8970  43.2735  44.1776  44.9511  45.3326

          k =-0.1982 0.3963 0.0000 (  1973 PWs)   bands (ev):

   -49.2343 -49.2318 -25.4848 -25.4665 -25.3988 -25.3801 -25.3123 -25.3069
    -9.5182  -9.2332  -8.4829  -8.4285   2.8438   3.1447   4.2955   4.3298
     4.4905   5.0955   5.4375   5.9317   6.3878   6.6724   6.7483   7.1784
     9.8816  10.1785  10.3234  10.5235  11.0247  11.4235  12.6509  13.4256
    13.8089  13.9446  17.1189  18.2547  19.9721  21.1099  22.4043  22.8851
    24.7280  25.3959  27.2868  27.9653  28.7230  29.3133  29.5037  29.5850
    29.6934  30.7153  31.6304  33.1665  33.7411  34.8559  35.3133  35.8623
    37.9381  38.1128  38.4926  38.6962  39.7588  39.8258  41.9639  42.2135
    42.3379  42.8654  43.3017  43.5345  43.5997

          k =-0.1982 0.3963-0.3161 (  1971 PWs)   bands (ev):

   -49.2222 -49.2202 -25.4606 -25.4549 -25.4435 -25.4290 -25.3814 -25.3701
    -9.2326  -8.9861  -8.6009  -8.5605   3.2674   3.5908   3.7726   3.9146
     4.9200   5.1411   5.4005   5.7653   5.9053   6.3304   6.7525   7.0293
    10.2515  10.3478  10.4976  10.7396  10.9453  11.1972  12.6183  12.9222
    13.6004  13.8505  17.9104  18.9680  20.8581  21.8284  22.7964  22.8816
    24.4168  24.5094  25.6036  26.2730  27.1814  27.8032  29.1141  30.7580
    31.3440  31.6208  32.7806  33.0903  33.9885  34.3926  35.4212  36.2295
    36.9879  37.7712  38.7322  39.3051  40.0974  41.2277  41.7123  42.2914
    42.9210  43.5229  44.1981  44.2766  44.7850

          k =-0.1982 0.3963-0.6322 (  1971 PWs)   bands (ev):

   -49.2024 -49.2016 -25.6631 -25.6604 -25.3920 -25.3830 -25.3701 -25.3644
    -8.9453  -8.8610  -8.5895  -8.4953   3.3924   3.5425   3.9385   4.0480
     4.4039   4.8787   5.3681   5.4967   6.1646   6.3516   6.6984   7.0783
     9.7693  10.1316  10.7844  10.8793  11.0798  11.3115  12.2576  12.6271
    13.8108  14.1643  19.0477  19.7748  21.0355  21.8174  22.7881  23.1060
    24.1016  24.3242  24.6054  25.0310  26.0068  26.9327  29.0286  30.3444
    31.8857  31.9819  32.2491  33.6343  34.4535  34.7939  36.1045  36.9743
    37.3330  38.1842  39.4494  39.6188  40.5731  40.9852  41.2634  42.4734
    42.7959  42.9234  43.8615  44.4826  44.9882

          k =-0.3963 0.3963 0.0000 (  1955 PWs)   bands (ev):

   -49.2335 -49.2326 -25.4953 -25.4870 -25.3785 -25.3700 -25.3106 -25.3085
    -9.4382  -9.3299  -8.4572  -8.4288   2.7144   2.8615   4.2620   4.2817
     4.8694   5.2212   5.7715   6.1292   6.5304   6.5751   6.7007   7.0216
     9.6484   9.8716  10.2059  10.3273  11.2559  11.4020  12.7665  13.0594
    13.9425  14.0210  17.9592  18.6048  19.7926  20.4983  22.2511  22.4770
    24.9734  25.2741  27.8528  28.1880  28.4460  28.5394  29.3101  29.6246
    29.8699  30.2978  32.5267  33.6501  33.8800  34.1569  35.6332  36.2969
    37.6169  38.2594  38.5159  38.7417  38.8022  38.8237  42.4118  42.7772
    42.9991  43.1852  43.1999  43.2963  44.8374

          k =-0.3963 0.3963-0.3161 (  1975 PWs)   bands (ev):

   -49.2216 -49.2208 -25.4612 -25.4596 -25.4470 -25.4399 -25.3689 -25.3637
    -9.1550  -9.0612  -8.5873  -8.5692   3.1311   3.2833   3.6899   3.7485
     5.3723   5.5942   5.5943   6.0920   6.1700   6.3023   6.4753   6.5788
    10.1666  10.3638  10.3745  10.5013  10.9700  11.0734  12.8917  13.0581
    13.5946  13.6559  18.5322  19.0910  20.4731  21.0344  22.8816  22.8933
    24.3730  24.4562  25.6938  25.9337  27.2449  27.7849  29.6642  30.7773
    31.1138  31.1396  33.2519  33.6744  34.4734  34.6516  35.0729  35.3009
    37.8648  38.2860  38.7731  38.8093  40.3948  40.4785  41.9136  42.0375
    43.6300  43.7003  44.3759  44.5058  44.8331

          k =-0.3963 0.3963-0.6322 (  1975 PWs)   bands (ev):

   -49.2021 -49.2018 -25.6599 -25.6584 -25.3969 -25.3929 -25.3640 -25.3621
    -8.8730  -8.7970  -8.6494  -8.5691   3.4256   3.6193   3.6750   3.8208
     4.5010   4.7028   5.3823   5.4086   6.4999   6.6060   6.8772   7.0843
    10.0347  10.3397  10.7417  10.7902  10.8314  11.0526  12.6241  13.0200
    13.4346  13.8192  19.1486  19.5007  20.8875  21.4954  22.1402  22.5751
    23.9751  24.1134  25.2940  25.5504  26.5253  27.0440  29.6086  30.8315
    31.1234  31.5944  31.9538  32.8663  34.9116  35.0393  36.7934  37.5112
    38.7947  39.1750  39.7581  40.3247  40.4821  40.8094  41.1084  41.4965
    42.4265  43.0331  43.2046  44.0978  44.1952

     the Fermi energy is     8.6171 ev

!    total energy              =    -366.48979354 Ry
     Harris-Foulkes estimate   =    -366.48979354 Ry
     estimated scf accuracy    <          2.0E-09 Ry

     The total energy is the sum of the following terms:

     one-electron contribution =    -138.77754889 Ry
     hartree contribution      =      90.60001418 Ry
     xc contribution           =     -63.00752996 Ry
     ewald contribution        =    -255.30472888 Ry
     smearing contrib. (-TS)   =       0.00000000 Ry

     total magnetization       =    -0.00 Bohr mag/cell
     absolute magnetization    =     0.00 Bohr mag/cell

     convergence has been achieved in  13 iterations

     Forces acting on atoms (Ry/au):


     negative rho (up, down):  0.124E-01 0.124E-01
     atom    1 type  1   force =     0.00000000    0.00000000    0.00000000
     atom    2 type  1   force =     0.00000000    0.00000000    0.00000000
     atom    3 type  2   force =     0.00005568    0.00005568   -0.00000000
     atom    4 type  2   force =    -0.00005568   -0.00005568   -0.00000000
     atom    5 type  2   force =     0.00005366   -0.00005366   -0.00000000
     atom    6 type  2   force =    -0.00005366    0.00005366   -0.00000000

     Total force =     0.000155     Total SCF correction =     0.000024
     SCF correction compared to forces is large: reduce conv_thr to get better values


     entering subroutine stress ...


     negative rho (up, down):  0.124E-01 0.124E-01
          total   stress  (Ry/bohr**3)                   (kbar)     P= -117.23
  -0.00079637   0.00000014   0.00000000       -117.15      0.02      0.00
   0.00000014  -0.00079637   0.00000000          0.02   -117.15      0.00
   0.00000000   0.00000000  -0.00079799          0.00      0.00   -117.39


     init_run     :     24.90s CPU     25.66s WALL (       2 calls)
     electrons    :   2021.79s CPU   2097.42s WALL (       8 calls)
     update_pot   :     25.99s CPU     26.16s WALL (       6 calls)
     forces       :     61.88s CPU     61.94s WALL (       8 calls)
     stress       :    160.18s CPU    160.32s WALL (       8 calls)

     Called by init_run:
     wfcinit      :     22.96s CPU     23.29s WALL (       3 calls)
     potinit      :      3.36s CPU      3.41s WALL (       3 calls)

     Called by electrons:
     c_bands      :   1600.49s CPU   1652.06s WALL (      66 calls)
     sum_band     :    314.85s CPU    317.86s WALL (      66 calls)
     v_of_rho     :     19.05s CPU     19.18s WALL (      73 calls)
     newd         :     96.20s CPU     96.35s WALL (      73 calls)
     mix_rho      :      2.12s CPU      2.27s WALL (      66 calls)

     Called by c_bands:
     init_us_2    :      9.38s CPU      9.35s WALL (    8154 calls)
     cegterg      :   1570.97s CPU   1622.35s WALL (    3564 calls)

     Called by *egterg:
     h_psi        :    878.90s CPU    897.95s WALL (   10716 calls)
     s_psi        :     55.04s CPU     55.11s WALL (   10716 calls)
     g_psi        :      4.42s CPU      4.41s WALL (    6990 calls)
     cdiaghg      :    337.11s CPU    337.86s WALL (   10176 calls)

     Called by h_psi:
     add_vuspsi   :     55.48s CPU     55.55s WALL (   10716 calls)

     General routines
     calbec       :     93.82s CPU    100.24s WALL (   15144 calls)
     fft          :     18.46s CPU     18.73s WALL (    2543 calls)
     ffts         :      0.25s CPU      0.25s WALL (     278 calls)
     fftw         :    681.52s CPU    691.27s WALL ( 1413730 calls)
     interpolate  :      2.12s CPU      2.15s WALL (     278 calls)

     Parallel routines
     fft_scatter  :    285.45s CPU    284.75s WALL ( 1416551 calls)

     PWSCF        : 38m32.09s CPU    39m49.11s WALL


   This run was terminated on:  18:56:42  23Jan2014            

=------------------------------------------------------------------------------=
   JOB DONE.
=------------------------------------------------------------------------------=
---------------------------------------
Running PBS batch system epilogue script
Job id: 251199.audhumbla.fysik.dtu.dk
Username: zhonxu
Groupname: campgst
Jobname: TiO2/coarse-EOS/TiO2-v-1.1
Sessionid: 18230
Resources limits: neednodes=1:ppn=4:opteron4,nodes=1:ppn=4:opteron4,walltime=18:00:00
Resources used: cput=02:38:41,mem=373464kb,vmem=1255464kb,walltime=00:39:51
Queuename: verylong
Accounting:
This job has allocated the following 4 nodes:
q043 q043 q043 q043
Finished epilogue job 251199.audhumbla.fysik.dtu.dk for zhonxu
