
     Program PWSCF v.5.0.2 (svn rev. 9656) starts on 27Feb2014 at 20:37:58 

     This program is part of the open-source Quantum ESPRESSO suite
     for quantum simulation of materials; please cite
         "P. Giannozzi et al., J. Phys.:Condens. Matter 21 395502 (2009);
          URL http://www.quantum-espresso.org", 
     in publications or presentations arising from this work. More details at
     http://www.quantum-espresso.org/quote.php

     Parallel version (MPI), running on    16 processors
     R & G space division:  proc/nbgrp/npool/nimage =      16

     Current dimensions of program PWSCF are:
     Max number of different atomic species (ntypx) = 10
     Max number of k-points (npk) =  40000
     Max angular momentum in pseudopotentials (lmaxx) =  3
     Reading input from bare.in
Warning: card &CELL ignored
Warning: card / ignored

     Subspace diagonalization in iterative solution of the eigenvalue problem:
     a serial algorithm will be used

     Found symmetry operation: I + ( -0.5000  0.0000  0.0000)
     This is a supercell, fractional translations are disabled

     Parallelization info
     --------------------
     sticks:   dense  smooth     PW     G-vecs:    dense   smooth      PW
     Min         318     102     29                74912    13536    2029
     Max         319     103     30                74919    13571    2035
     Sum        5097    1635    467              1198649   216969   32535



     bravais-lattice index     =            0
     lattice parameter (alat)  =      10.9604  a.u.
     unit-cell volume          =    6350.6732 (a.u.)^3
     number of atoms/cell      =           30
     number of atomic types    =            3
     number of electrons       =       224.00
     number of Kohn-Sham states=          324
     kinetic-energy cutoff     =      40.0000  Ry
     charge density cutoff     =     500.0000  Ry
     convergence threshold     =      1.0E-06
     mixing beta               =       0.3000
     number of iterations used =            8  plain     mixing
     Exchange-correlation      = SLA  PW   PBE  PBE ( 1 4 3 4 0)
     EXX-fraction              =        0.00
     nstep                     =           50


     celldm(1)=  10.960412  celldm(2)=   0.000000  celldm(3)=   0.000000
     celldm(4)=   0.000000  celldm(5)=   0.000000  celldm(6)=   0.000000

     crystal axes: (cart. coord. in units of alat)
               a(1) = (   1.000000   0.000000   0.000000 )  
               a(2) = (   0.000000   1.067975   0.000000 )  
               a(3) = (   0.000000   0.000000   4.516251 )  

     reciprocal axes: (cart. coord. in units 2 pi/alat)
               b(1) = (  1.000000  0.000000  0.000000 )  
               b(2) = (  0.000000  0.936351  0.000000 )  
               b(3) = (  0.000000  0.000000  0.221423 )  


     PseudoPot. # 1 for O  read from file:
     /home/camp/zhonxu/pseudo/o_pbe_v1.01.uspp.F.UPF
     MD5 check sum: 2bcb18d16ea4b960afae9ec6d52f22d2
     Pseudo is Ultrasoft + core correction, Zval =  6.0
     Generated by new atomic code, or converted to UPF format
     Using radial grid of  737 points,  5 beta functions with: 
                l(1) =   0
                l(2) =   0
                l(3) =   1
                l(4) =   1
                l(5) =   2
     Q(r) pseudized with  8 coefficients,  rinner =    0.900   0.900   0.900
                                                       0.900   0.900

     PseudoPot. # 2 for Cr read from file:
     /home/camp/zhonxu/pseudo/cr_pbe_v1.uspp.F.UPF
     MD5 check sum: 68b6f918d1762dccfb11451fe85b0e0e
     Pseudo is Ultrasoft + core correction, Zval = 14.0
     Generated by new atomic code, or converted to UPF format
     Using radial grid of  857 points,  6 beta functions with: 
                l(1) =   0
                l(2) =   0
                l(3) =   1
                l(4) =   1
                l(5) =   2
                l(6) =   2
     Q(r) pseudized with  6 coefficients,  rinner =    1.000   1.000   1.000
                                                       1.000   1.000

     PseudoPot. # 3 for H  read from file:
     /home/camp/zhonxu/pseudo/h_pbe_v1.uspp.F.UPF
     MD5 check sum: 3408e3ff4ec8b0a4e358431e7e038a48
     Pseudo is Ultrasoft, Zval =  1.0
     Generated by new atomic code, or converted to UPF format
     Using radial grid of  615 points,  2 beta functions with: 
                l(1) =   0
                l(2) =   0
     Q(r) pseudized with  8 coefficients,  rinner =    0.700

     atomic species   valence    mass     pseudopotential
        O0             6.00    15.99940     O ( 1.00)
        Cr1           14.00    51.99600     Cr( 1.00)
        H2             1.00     1.00794     H ( 1.00)

     Starting magnetic structure 
     atomic species   magnetization
        O0           0.000
        Cr1          0.600
        H2           0.000

     No symmetry found



   Cartesian axes

     site n.     atom                  positions (alat units)
         1           O0  tau(   1) = (   0.0000000   0.0000000   1.7177109  )
         2           O0  tau(   2) = (   0.0000000   0.5339875   1.8014873  )
         3           Cr1 tau(   3) = (   0.2500000   0.5339875   2.0301000  )
         4           Cr1 tau(   4) = (   0.0000000   0.0000000   2.0408938  )
         5           O0  tau(   5) = (   0.2500000   0.8543801   2.0365582  )
         6           O0  tau(   6) = (   0.2500000   0.2135950   2.0375066  )
         7           O0  tau(   7) = (   0.0000000   0.5339875   2.2466994  )
         8           O0  tau(   8) = (   0.0000000   0.0000000   2.3700382  )
         9           Cr1 tau(   9) = (   0.2500000   0.0000000   2.6077736  )
        10           Cr1 tau(  10) = (   0.0000000   0.5339875   2.5531721  )
        11           O0  tau(  11) = (   0.2500000   0.7475825   2.5982443  )
        12           O0  tau(  12) = (   0.2500000   0.3203925   2.5981088  )
        13           O0  tau(  13) = (   0.0000000   0.0000000   2.7911786  )
        14           O0  tau(  14) = (   0.5000000   0.0000000   1.7177109  )
        15           O0  tau(  15) = (   0.5000000   0.5339875   1.8014873  )
        16           Cr1 tau(  16) = (   0.7500000   0.5339875   2.0301000  )
        17           Cr1 tau(  17) = (   0.5000000   0.0000000   2.0408938  )
        18           O0  tau(  18) = (   0.7500000   0.8543801   2.0365582  )
        19           O0  tau(  19) = (   0.7500000   0.2135950   2.0375066  )
        20           O0  tau(  20) = (   0.5000000   0.5339875   2.2466994  )
        21           O0  tau(  21) = (   0.5000000   0.0000000   2.3700382  )
        22           Cr1 tau(  22) = (   0.7500000   0.0000000   2.6077736  )
        23           Cr1 tau(  23) = (   0.5000000   0.5339875   2.5531721  )
        24           O0  tau(  24) = (   0.7500000   0.7475825   2.5982443  )
        25           O0  tau(  25) = (   0.7500000   0.3203925   2.5981088  )
        26           O0  tau(  26) = (   0.5000000   0.0000000   2.7911786  )
        27           H2  tau(  27) = (  -0.0009200   0.6850312   1.7205561  )
        28           H2  tau(  28) = (   0.4990800   0.6850312   1.7205561  )
        29           H2  tau(  29) = (   0.1579400   0.0311528   1.6606255  )
        30           H2  tau(  30) = (   0.6579400   0.0311528   1.6606255  )

     number of k points=    20  Methfessel-Paxton smearing, width (Ry)=  0.0100
                       cart. coord. in units 2pi/alat
        k(    1) = (   0.0000000   0.0000000   0.0000000), wk =   0.0625000
        k(    2) = (   0.0000000   0.2340879   0.0000000), wk =   0.1250000
        k(    3) = (   0.0000000  -0.4681757   0.0000000), wk =   0.0625000
        k(    4) = (   0.2500000   0.0000000   0.0000000), wk =   0.1250000
        k(    5) = (   0.2500000   0.2340879   0.0000000), wk =   0.1250000
        k(    6) = (   0.2500000  -0.4681757   0.0000000), wk =   0.1250000
        k(    7) = (  -0.5000000   0.0000000   0.0000000), wk =   0.0625000
        k(    8) = (  -0.5000000   0.2340879   0.0000000), wk =   0.1250000
        k(    9) = (  -0.5000000  -0.4681757   0.0000000), wk =   0.0625000
        k(   10) = (  -0.2500000   0.2340879   0.0000000), wk =   0.1250000
        k(   11) = (   0.0000000   0.0000000   0.0000000), wk =   0.0625000
        k(   12) = (   0.0000000   0.2340879   0.0000000), wk =   0.1250000
        k(   13) = (   0.0000000  -0.4681757   0.0000000), wk =   0.0625000
        k(   14) = (   0.2500000   0.0000000   0.0000000), wk =   0.1250000
        k(   15) = (   0.2500000   0.2340879   0.0000000), wk =   0.1250000
        k(   16) = (   0.2500000  -0.4681757   0.0000000), wk =   0.1250000
        k(   17) = (  -0.5000000   0.0000000   0.0000000), wk =   0.0625000
        k(   18) = (  -0.5000000   0.2340879   0.0000000), wk =   0.1250000
        k(   19) = (  -0.5000000  -0.4681757   0.0000000), wk =   0.0625000
        k(   20) = (  -0.2500000   0.2340879   0.0000000), wk =   0.1250000

     Dense  grid:  1198649 G-vectors     FFT dimensions: (  80,  90, 360)

     Smooth grid:   216969 G-vectors     FFT dimensions: (  45,  48, 200)

     Largest allocated arrays     est. size (Mb)     dimensions
        Kohn-Sham Wavefunctions         8.50 Mb     (   1719,  324)
        NL pseudopotentials            10.12 Mb     (   1719,  386)
        Each V/rho on FFT grid          5.05 Mb     ( 165600,   2)
        Each G-vector array             0.57 Mb     (  74919)
        G-vector shells                 0.28 Mb     (  36600)
     Largest temporary arrays     est. size (Mb)     dimensions
        Auxiliary wavefunctions        33.99 Mb     (   1719, 1296)
        Each subspace H/S matrix       25.63 Mb     (1296,1296)
        Each <psi_i|beta_j> matrix      1.91 Mb     (    386,  324)
        Arrays for rho mixing          20.21 Mb     ( 165600,   8)

     Check: negative/imaginary core charge=   -0.000012    0.000000

     Initial potential from superposition of free atoms
     Check: negative starting charge=(component1):   -0.001593
     Check: negative starting charge=(component2):   -0.000512

     starting charge  215.99984, renormalised to  224.00000

     negative rho (up, down):  0.165E-02 0.531E-03
     Starting wfc are  156 randomized atomic wfcs

     total cpu time spent up to now is      111.5 secs

     per-process dynamical memory:   245.5 Mb

     Self-consistent Calculation

     iteration #  1     ecut=    40.00 Ry     beta=0.30
     Davidson diagonalization with overlap
     ethr =  1.00E-02,  avg # of iterations =  5.3

     negative rho (up, down):  0.168E-02 0.712E-03

     total cpu time spent up to now is      879.6 secs

     total energy              =   -1963.00326281 Ry
     Harris-Foulkes estimate   =   -1991.51989493 Ry
     estimated scf accuracy    <      66.60122698 Ry

     total magnetization       =    24.00 Bohr mag/cell
     absolute magnetization    =    28.91 Bohr mag/cell

     iteration #  2     ecut=    40.00 Ry     beta=0.30
     Davidson diagonalization with overlap
     ethr =  1.00E-02,  avg # of iterations =  4.9

     negative rho (up, down):  0.419E-02 0.327E-02

     total cpu time spent up to now is     1606.0 secs

     total energy              =   -1897.04997148 Ry
     Harris-Foulkes estimate   =   -2105.92288018 Ry
     estimated scf accuracy    <    3025.33136720 Ry

     total magnetization       =     2.22 Bohr mag/cell
     absolute magnetization    =     4.53 Bohr mag/cell

     iteration #  3     ecut=    40.00 Ry     beta=0.30
     Davidson diagonalization with overlap
     ethr =  1.00E-02,  avg # of iterations =  5.0

     negative rho (up, down):  0.621E-02 0.451E-02

     total cpu time spent up to now is     2357.5 secs

     total energy              =   -1991.23837966 Ry
     Harris-Foulkes estimate   =   -1993.95161747 Ry
     estimated scf accuracy    <      21.57110973 Ry

     total magnetization       =    16.00 Bohr mag/cell
     absolute magnetization    =    22.82 Bohr mag/cell

     iteration #  4     ecut=    40.00 Ry     beta=0.30
     Davidson diagonalization with overlap
     ethr =  9.63E-03,  avg # of iterations =  1.0

     negative rho (up, down):  0.754E-02 0.526E-02

     total cpu time spent up to now is     2637.5 secs

     total energy              =   -1991.94338058 Ry
     Harris-Foulkes estimate   =   -1992.89913844 Ry
     estimated scf accuracy    <       9.43847571 Ry

     total magnetization       =    16.00 Bohr mag/cell
     absolute magnetization    =    25.24 Bohr mag/cell

     iteration #  5     ecut=    40.00 Ry     beta=0.30
     Davidson diagonalization with overlap
     ethr =  4.21E-03,  avg # of iterations =  1.0

     negative rho (up, down):  0.760E-02 0.476E-02

     total cpu time spent up to now is     2918.9 secs

     total energy              =   -1992.45910145 Ry
     Harris-Foulkes estimate   =   -1992.69588168 Ry
     estimated scf accuracy    <       5.79706933 Ry

     total magnetization       =    16.00 Bohr mag/cell
     absolute magnetization    =    25.05 Bohr mag/cell

     iteration #  6     ecut=    40.00 Ry     beta=0.30
     Davidson diagonalization with overlap
     ethr =  2.59E-03,  avg # of iterations =  1.0

     negative rho (up, down):  0.493E-02 0.249E-02

     total cpu time spent up to now is     3198.8 secs

     total energy              =   -1992.78455797 Ry
     Harris-Foulkes estimate   =   -1993.12853100 Ry
     estimated scf accuracy    <       9.86882756 Ry

     total magnetization       =    16.00 Bohr mag/cell
     absolute magnetization    =    24.16 Bohr mag/cell

     iteration #  7     ecut=    40.00 Ry     beta=0.30
     Davidson diagonalization with overlap
     ethr =  2.59E-03,  avg # of iterations =  3.4

     negative rho (up, down):  0.306E-02 0.109E-02

     total cpu time spent up to now is     3540.0 secs

     total energy              =   -1993.48577581 Ry
     Harris-Foulkes estimate   =   -1993.40850431 Ry
     estimated scf accuracy    <       3.54822759 Ry

     total magnetization       =    16.12 Bohr mag/cell
     absolute magnetization    =    24.18 Bohr mag/cell

     iteration #  8     ecut=    40.00 Ry     beta=0.30
     Davidson diagonalization with overlap
     ethr =  1.58E-03,  avg # of iterations =  1.6

     negative rho (up, down):  0.372E-02 0.117E-02

     total cpu time spent up to now is     3833.1 secs

     total energy              =   -1993.49791306 Ry
     Harris-Foulkes estimate   =   -1993.69973928 Ry
     estimated scf accuracy    <       2.02648157 Ry

     total magnetization       =    16.00 Bohr mag/cell
     absolute magnetization    =    21.48 Bohr mag/cell

     iteration #  9     ecut=    40.00 Ry     beta=0.30
     Davidson diagonalization with overlap
     ethr =  9.05E-04,  avg # of iterations =  3.1

     negative rho (up, down):  0.395E-02 0.155E-02

     total cpu time spent up to now is     4165.5 secs

     total energy              =   -1993.63747440 Ry
     Harris-Foulkes estimate   =   -1993.71508998 Ry
     estimated scf accuracy    <       0.87342105 Ry

     total magnetization       =    16.00 Bohr mag/cell
     absolute magnetization    =    21.03 Bohr mag/cell

     iteration # 10     ecut=    40.00 Ry     beta=0.30
     Davidson diagonalization with overlap
     ethr =  3.90E-04,  avg # of iterations =  5.4

     negative rho (up, down):  0.373E-02 0.144E-02

     total cpu time spent up to now is     4556.0 secs

     total energy              =   -1993.69373050 Ry
     Harris-Foulkes estimate   =   -1993.70958312 Ry
     estimated scf accuracy    <       0.19992949 Ry

     total magnetization       =    16.00 Bohr mag/cell
     absolute magnetization    =    20.08 Bohr mag/cell

     iteration # 11     ecut=    40.00 Ry     beta=0.30
     Davidson diagonalization with overlap
     ethr =  8.93E-05,  avg # of iterations =  3.5

     negative rho (up, down):  0.363E-02 0.137E-02

     total cpu time spent up to now is     4893.4 secs

     total energy              =   -1993.70336818 Ry
     Harris-Foulkes estimate   =   -1993.70410023 Ry
     estimated scf accuracy    <       0.05841476 Ry

     total magnetization       =    16.00 Bohr mag/cell
     absolute magnetization    =    19.75 Bohr mag/cell

     iteration # 12     ecut=    40.00 Ry     beta=0.30
     Davidson diagonalization with overlap
     ethr =  2.61E-05,  avg # of iterations =  3.4

     negative rho (up, down):  0.392E-02 0.144E-02

     total cpu time spent up to now is     5234.0 secs

     total energy              =   -1993.70912983 Ry
     Harris-Foulkes estimate   =   -1993.70605052 Ry
     estimated scf accuracy    <       0.00893096 Ry

     total magnetization       =    16.00 Bohr mag/cell
     absolute magnetization    =    19.49 Bohr mag/cell

     iteration # 13     ecut=    40.00 Ry     beta=0.30
     Davidson diagonalization with overlap
     ethr =  3.99E-06,  avg # of iterations =  6.3

     negative rho (up, down):  0.447E-02 0.158E-02

     total cpu time spent up to now is     5674.3 secs

     total energy              =   -1993.71194905 Ry
     Harris-Foulkes estimate   =   -1993.71026785 Ry
     estimated scf accuracy    <       0.00542930 Ry

     total magnetization       =    16.00 Bohr mag/cell
     absolute magnetization    =    19.15 Bohr mag/cell

     iteration # 14     ecut=    40.00 Ry     beta=0.30
     Davidson diagonalization with overlap
     ethr =  2.42E-06,  avg # of iterations =  4.2

     negative rho (up, down):  0.520E-02 0.215E-02

     total cpu time spent up to now is     6046.8 secs

     total energy              =   -1993.71323663 Ry
     Harris-Foulkes estimate   =   -1993.71259687 Ry
     estimated scf accuracy    <       0.00230824 Ry

     total magnetization       =    16.00 Bohr mag/cell
     absolute magnetization    =    18.86 Bohr mag/cell

     iteration # 15     ecut=    40.00 Ry     beta=0.30
     Davidson diagonalization with overlap
     ethr =  1.03E-06,  avg # of iterations =  2.8

     negative rho (up, down):  0.558E-02 0.260E-02

     total cpu time spent up to now is     6369.1 secs

     total energy              =   -1993.71382703 Ry
     Harris-Foulkes estimate   =   -1993.71362275 Ry
     estimated scf accuracy    <       0.00217171 Ry

     total magnetization       =    16.00 Bohr mag/cell
     absolute magnetization    =    18.70 Bohr mag/cell

     iteration # 16     ecut=    40.00 Ry     beta=0.30
     Davidson diagonalization with overlap
     ethr =  9.70E-07,  avg # of iterations =  1.0

     negative rho (up, down):  0.583E-02 0.289E-02

     total cpu time spent up to now is     6655.1 secs

     total energy              =   -1993.71408733 Ry
     Harris-Foulkes estimate   =   -1993.71418890 Ry
     estimated scf accuracy    <       0.00299010 Ry

     total magnetization       =    16.00 Bohr mag/cell
     absolute magnetization    =    18.59 Bohr mag/cell

     iteration # 17     ecut=    40.00 Ry     beta=0.30
     Davidson diagonalization with overlap
     ethr =  9.70E-07,  avg # of iterations =  1.0

     negative rho (up, down):  0.562E-02 0.265E-02

     total cpu time spent up to now is     6941.9 secs

     total energy              =   -1993.71420620 Ry
     Harris-Foulkes estimate   =   -1993.71438096 Ry
     estimated scf accuracy    <       0.00173214 Ry

     total magnetization       =    16.00 Bohr mag/cell
     absolute magnetization    =    18.49 Bohr mag/cell

     iteration # 18     ecut=    40.00 Ry     beta=0.30
     Davidson diagonalization with overlap
     ethr =  7.73E-07,  avg # of iterations =  1.0

     negative rho (up, down):  0.560E-02 0.263E-02

     total cpu time spent up to now is     7229.3 secs

     total energy              =   -1993.71434203 Ry
     Harris-Foulkes estimate   =   -1993.71438278 Ry
     estimated scf accuracy    <       0.00110395 Ry

     total magnetization       =    16.00 Bohr mag/cell
     absolute magnetization    =    18.48 Bohr mag/cell

     iteration # 19     ecut=    40.00 Ry     beta=0.30
     Davidson diagonalization with overlap
     ethr =  4.93E-07,  avg # of iterations =  1.0

     negative rho (up, down):  0.537E-02 0.235E-02

     total cpu time spent up to now is     7515.6 secs

     total energy              =   -1993.71442660 Ry
     Harris-Foulkes estimate   =   -1993.71442977 Ry
     estimated scf accuracy    <       0.00033737 Ry

     total magnetization       =    16.00 Bohr mag/cell
     absolute magnetization    =    18.43 Bohr mag/cell

     iteration # 20     ecut=    40.00 Ry     beta=0.30
     Davidson diagonalization with overlap
     ethr =  1.51E-07,  avg # of iterations =  1.0

     negative rho (up, down):  0.519E-02 0.216E-02

     total cpu time spent up to now is     7802.0 secs

     total energy              =   -1993.71445163 Ry
     Harris-Foulkes estimate   =   -1993.71445635 Ry
     estimated scf accuracy    <       0.00015869 Ry

     total magnetization       =    16.00 Bohr mag/cell
     absolute magnetization    =    18.39 Bohr mag/cell

     iteration # 21     ecut=    40.00 Ry     beta=0.30
     Davidson diagonalization with overlap
     ethr =  7.08E-08,  avg # of iterations =  1.0

     negative rho (up, down):  0.514E-02 0.210E-02

     total cpu time spent up to now is     8088.3 secs

     total energy              =   -1993.71446443 Ry
     Harris-Foulkes estimate   =   -1993.71446847 Ry
     estimated scf accuracy    <       0.00012913 Ry

     total magnetization       =    16.00 Bohr mag/cell
     absolute magnetization    =    18.38 Bohr mag/cell

     iteration # 22     ecut=    40.00 Ry     beta=0.30
     Davidson diagonalization with overlap
     ethr =  5.76E-08,  avg # of iterations =  1.0

     negative rho (up, down):  0.505E-02 0.201E-02

     total cpu time spent up to now is     8370.1 secs

     total energy              =   -1993.71447523 Ry
     Harris-Foulkes estimate   =   -1993.71447689 Ry
     estimated scf accuracy    <       0.00009702 Ry

     total magnetization       =    16.00 Bohr mag/cell
     absolute magnetization    =    18.36 Bohr mag/cell

     iteration # 23     ecut=    40.00 Ry     beta=0.30
     Davidson diagonalization with overlap
     ethr =  4.33E-08,  avg # of iterations =  1.0

     negative rho (up, down):  0.495E-02 0.191E-02

     total cpu time spent up to now is     8651.2 secs

     total energy              =   -1993.71448172 Ry
     Harris-Foulkes estimate   =   -1993.71448201 Ry
     estimated scf accuracy    <       0.00004392 Ry

     total magnetization       =    16.00 Bohr mag/cell
     absolute magnetization    =    18.36 Bohr mag/cell

     iteration # 24     ecut=    40.00 Ry     beta=0.30
     Davidson diagonalization with overlap
     ethr =  1.96E-08,  avg # of iterations =  1.0

     negative rho (up, down):  0.489E-02 0.185E-02

     total cpu time spent up to now is     8940.6 secs

     total energy              =   -1993.71448768 Ry
     Harris-Foulkes estimate   =   -1993.71448597 Ry
     estimated scf accuracy    <       0.00001063 Ry

     total magnetization       =    16.00 Bohr mag/cell
     absolute magnetization    =    18.35 Bohr mag/cell

     iteration # 25     ecut=    40.00 Ry     beta=0.30
     Davidson diagonalization with overlap
     ethr =  4.75E-09,  avg # of iterations =  1.0

     negative rho (up, down):  0.485E-02 0.181E-02

     total cpu time spent up to now is     9230.3 secs

     total energy              =   -1993.71448966 Ry
     Harris-Foulkes estimate   =   -1993.71448920 Ry
     estimated scf accuracy    <       0.00000980 Ry

     total magnetization       =    16.00 Bohr mag/cell
     absolute magnetization    =    18.34 Bohr mag/cell

     iteration # 26     ecut=    40.00 Ry     beta=0.30
     Davidson diagonalization with overlap
     ethr =  4.37E-09,  avg # of iterations =  1.0

     negative rho (up, down):  0.483E-02 0.180E-02

     total cpu time spent up to now is     9520.2 secs

     total energy              =   -1993.71449045 Ry
     Harris-Foulkes estimate   =   -1993.71449077 Ry
     estimated scf accuracy    <       0.00000725 Ry

     total magnetization       =    16.00 Bohr mag/cell
     absolute magnetization    =    18.33 Bohr mag/cell

     iteration # 27     ecut=    40.00 Ry     beta=0.30
     Davidson diagonalization with overlap
     ethr =  3.24E-09,  avg # of iterations =  1.0

     negative rho (up, down):  0.482E-02 0.178E-02

     total cpu time spent up to now is     9804.2 secs

     total energy              =   -1993.71449100 Ry
     Harris-Foulkes estimate   =   -1993.71449118 Ry
     estimated scf accuracy    <       0.00000592 Ry

     total magnetization       =    16.00 Bohr mag/cell
     absolute magnetization    =    18.33 Bohr mag/cell

     iteration # 28     ecut=    40.00 Ry     beta=0.30
     Davidson diagonalization with overlap
     ethr =  2.64E-09,  avg # of iterations =  1.0

     negative rho (up, down):  0.482E-02 0.179E-02

     total cpu time spent up to now is    10091.6 secs

     total energy              =   -1993.71449113 Ry
     Harris-Foulkes estimate   =   -1993.71449178 Ry
     estimated scf accuracy    <       0.00000745 Ry

     total magnetization       =    16.00 Bohr mag/cell
     absolute magnetization    =    18.33 Bohr mag/cell

     iteration # 29     ecut=    40.00 Ry     beta=0.30
     Davidson diagonalization with overlap
     ethr =  2.64E-09,  avg # of iterations =  1.0

     negative rho (up, down):  0.482E-02 0.178E-02

     total cpu time spent up to now is    10378.1 secs

     total energy              =   -1993.71449163 Ry
     Harris-Foulkes estimate   =   -1993.71449159 Ry
     estimated scf accuracy    <       0.00000161 Ry

     total magnetization       =    16.00 Bohr mag/cell
     absolute magnetization    =    18.33 Bohr mag/cell

     iteration # 30     ecut=    40.00 Ry     beta=0.30
     Davidson diagonalization with overlap
     ethr =  7.18E-10,  avg # of iterations =  1.0

     negative rho (up, down):  0.484E-02 0.180E-02

     total cpu time spent up to now is    10664.4 secs

     End of self-consistent calculation

 ------ SPIN UP ------------


          k = 0.0000 0.0000 0.0000 ( 27003 PWs)   bands (ev):

   -75.2042 -75.1888 -75.1586 -75.1443 -75.0458 -75.0316 -74.9888 -74.9742
   -46.6303 -46.6163 -46.5940 -46.5522 -46.5332 -46.5046 -46.4867 -46.4568
   -46.4272 -46.4092 -46.4000 -46.3935 -46.3833 -46.3764 -46.3725 -46.3614
   -46.3356 -46.3334 -46.2888 -46.2747 -46.2727 -46.2636 -46.2508 -46.2100
   -21.5481 -20.9898 -20.8828 -20.5870 -20.3617 -20.2970 -19.9935 -19.8418
   -19.8179 -19.7208 -19.6897 -19.5715 -19.5474 -19.5436 -19.3557 -19.2689
   -19.0371 -18.8976  -9.3917  -9.0851  -8.9521  -8.8174  -8.6564  -8.2012
    -7.9538  -7.9335  -7.9125  -7.8042  -7.7671  -7.7442  -7.6128  -7.3976
    -7.2644  -7.0292  -7.0041  -6.9948  -6.9603  -6.9427  -6.8891  -6.8145
    -6.5945  -6.3026  -6.1958  -6.0328  -5.8330  -5.7764  -5.5918  -5.4777
    -5.4048  -5.3055  -5.2641  -5.1849  -5.1160  -4.9395  -4.8743  -4.8238
    -4.8076  -4.5779  -4.5014  -4.3787  -4.2813  -4.0847  -4.0259  -4.0190
    -3.9446  -3.7575  -3.7517  -3.5719  -3.4377  -3.2345  -3.2221  -3.0599
    -2.9984  -2.7773  -2.7343  -2.6736  -2.6129  -2.2407  -2.1887  -2.1530
    -2.1334  -2.1117  -2.0693  -2.0214  -1.7529  -1.7207  -1.6469  -1.5634
    -1.5385  -1.4651  -1.0858  -1.0767  -1.0236  -0.7418  -0.6479  -0.6330
    -0.4527  -0.2187   0.5655   0.7793   1.1698   1.2504   1.2787   1.4473
     1.4799   1.6208   1.6550   1.8120   2.2311   2.2373   2.3296   2.5602
     3.1674   3.2698   3.6775   4.1562   4.6585   5.4396   5.9995   6.3419
     6.7354   6.9631   7.0730   7.1266   7.1902   7.2019   7.2783   7.5089
     7.5927   7.5937   7.7517   8.0374   8.0468   8.1328   8.1389   8.3025
     8.4230   8.4788   8.5880   8.7311   8.7428   8.8868   9.1816   9.2151
     9.3354   9.3480   9.3488   9.4950   9.6447   9.8036   9.8285   9.9342
    10.1262  10.2417  10.2475  10.4481  10.6130  10.6239  11.0176  11.0266
    11.1025  11.1721  11.2596  11.2779  11.3290  11.3378  11.4874  11.4910
    11.6051  11.7683  11.8469  11.9890  12.0058  12.0263  12.0373  12.1209
    12.2748  12.2871  12.3470  12.4066  12.4385  12.4451  12.5031  12.5883
    12.6771  12.8396  12.9050  12.9372  12.9450  13.0302  13.1042  13.1144
    13.2693  13.2882  13.4166  13.4277  13.5284  13.6769  13.7118  13.8001
    13.8536  14.0172  14.0433  14.2711  14.2724  14.4108  14.4654  14.5145
    14.8100  14.8188  14.8789  14.8828  14.9153  14.9846  15.0074  15.0574
    15.2351  15.2776  15.4076  15.4178  15.4484  15.5442  15.7078  15.8324
    16.0892  16.1043  16.2040  16.3366  16.4153  16.4338  16.6964  16.7439
    16.9007  16.9357  17.0182  17.0386  17.1168  17.1466  17.3137  17.5412
    17.5524  17.6351  17.7622  17.8265  17.8851  18.0724  18.0993  18.1685
    18.2936  18.3527  18.4851  18.4876  18.6967  18.7535  18.8048  18.8373
    18.9103  18.9684  19.0275  19.2010  19.2414  19.3241  19.3358  19.4349
    19.5177  19.6148  19.6720  19.7260  19.7528  19.8607  19.8839  19.9413
    20.0748  20.1862  20.1988  20.3565  20.3668  20.4204  20.4704  20.4883
    20.5879  20.8113  20.9567  21.0060  21.0699  21.1386  21.1610  21.1826
    21.2764  21.3223  21.3248  21.4473

          k = 0.0000 0.2341 0.0000 ( 27088 PWs)   bands (ev):

   -75.2042 -75.1888 -75.1587 -75.1443 -75.0458 -75.0316 -74.9888 -74.9742
   -46.6304 -46.6163 -46.5943 -46.5495 -46.5385 -46.4992 -46.4868 -46.4569
   -46.4275 -46.4091 -46.4026 -46.3932 -46.3898 -46.3761 -46.3626 -46.3613
   -46.3358 -46.3334 -46.2890 -46.2765 -46.2746 -46.2634 -46.2505 -46.2102
   -21.4869 -20.8896 -20.8799 -20.5812 -20.3936 -20.2943 -19.9923 -19.9812
   -19.8524 -19.8044 -19.6879 -19.6030 -19.4916 -19.4559 -19.4317 -19.2686
   -19.0394 -18.8933  -9.3559  -8.9196  -8.7421  -8.6375  -8.6068  -8.2674
    -8.2044  -7.8695  -7.8660  -7.7526  -7.7398  -7.6287  -7.4850  -7.2526
    -7.1746  -7.0157  -6.9886  -6.9829  -6.8993  -6.8665  -6.8171  -6.5719
    -6.4347  -6.4010  -6.2467  -6.1786  -6.0694  -6.0657  -5.7970  -5.7668
    -5.4707  -5.3255  -5.2785  -5.2047  -5.0488  -4.9730  -4.9348  -4.7826
    -4.6558  -4.5662  -4.5469  -4.5077  -4.4198  -4.3067  -4.2939  -4.2270
    -4.1062  -3.8772  -3.6819  -3.6331  -3.5486  -3.3393  -3.1799  -2.8411
    -2.7052  -2.6286  -2.6192  -2.5031  -2.4756  -2.3127  -2.2567  -2.2419
    -2.1467  -2.1210  -2.0978  -2.0562  -1.9772  -1.8843  -1.7337  -1.6097
    -1.4454  -1.1483  -1.1148  -1.0059  -0.9044  -0.7476  -0.6721  -0.6276
    -0.6055   0.0037   0.3743   0.5326   0.5960   1.0989   1.2613   1.4790
     1.6368   1.7218   2.0662   2.2864   2.3035   2.3434   2.4459   2.4568
     3.4394   3.4962   3.9268   4.3812   4.8868   5.3415   5.5753   5.7903
     6.0098   6.2702   6.4865   6.9097   7.0179   7.0830   7.3399   7.3592
     7.5639   7.7378   7.8261   8.2119   8.2702   8.2841   8.3633   8.5174
     8.5341   8.7723   8.7899   8.9389   9.0090   9.1998   9.2216   9.4973
     9.5137   9.6229   9.6374   9.7789  10.0013  10.0202  10.0566  10.0926
    10.1028  10.1788  10.2424  10.2450  10.3490  10.3936  10.5810  10.6218
    10.7017  10.7594  10.9826  11.0368  11.1827  11.3020  11.3304  11.3308
    11.4739  11.4783  11.5370  11.6354  11.7405  11.8178  11.8781  12.2623
    12.3005  12.3551  12.4950  12.5673  12.6663  12.6998  12.7902  12.8224
    12.8390  13.0004  13.1965  13.3174  13.3232  13.5221  13.5871  13.6174
    13.6565  13.7720  13.9233  13.9285  14.0420  14.0704  14.1871  14.2056
    14.3149  14.3204  14.3745  14.4676  14.5115  14.5179  14.5894  14.6154
    14.8494  14.8529  14.9808  15.0232  15.0338  15.0615  15.1688  15.1852
    15.3463  15.3658  15.4491  15.4612  15.5345  15.5863  15.7792  15.8495
    15.8737  15.8826  16.0060  16.0695  16.1498  16.1995  16.3990  16.4247
    16.5425  16.5797  16.7989  16.8923  16.9287  17.0540  17.0850  17.2057
    17.2537  17.3070  17.3977  17.4839  17.5922  17.6476  17.7496  17.9954
    18.0146  18.0800  18.1215  18.1393  18.3920  18.5730  18.5993  18.6559
    18.8427  18.9331  18.9477  18.9771  19.0330  19.1519  19.1625  19.2054
    19.2792  19.5478  19.6063  19.6546  19.7284  19.9017  19.9328  19.9600
    20.0885  20.1463  20.1681  20.1849  20.2308  20.2914  20.3743  20.4545
    20.4803  20.6433  20.6536  20.7250  20.7761  20.8064  20.8734  20.9301
    20.9764  21.0843  21.2146  21.2255

          k = 0.0000-0.4682 0.0000 ( 27136 PWs)   bands (ev):

   -75.2042 -75.1888 -75.1587 -75.1443 -75.0457 -75.0316 -74.9888 -74.9742
   -46.6305 -46.6162 -46.5945 -46.5466 -46.5427 -46.4950 -46.4868 -46.4569
   -46.4278 -46.4089 -46.4054 -46.3988 -46.3856 -46.3759 -46.3612 -46.3570
   -46.3359 -46.3334 -46.2894 -46.2805 -46.2746 -46.2632 -46.2501 -46.2104
   -21.4175 -20.8771 -20.7154 -20.6457 -20.3559 -20.2917 -20.2337 -19.9904
   -19.8826 -19.7969 -19.6882 -19.6169 -19.5263 -19.4602 -19.4026 -19.2683
   -19.0418 -18.8906  -9.3287  -8.9982  -8.5677  -8.4690  -8.2475  -8.2214
    -8.2199  -7.8135  -7.8019  -7.6783  -7.5949  -7.4783  -7.3679  -7.3404
    -7.0153  -7.0051  -6.9880  -6.8828  -6.8016  -6.7990  -6.7754  -6.6359
    -6.5391  -6.5320  -6.3648  -6.3630  -6.3038  -6.0016  -5.9474  -5.8625
    -5.6975  -5.4754  -5.3112  -5.2916  -5.2570  -5.0842  -4.9479  -4.8260
    -4.7626  -4.6803  -4.5595  -4.5552  -4.4573  -4.4120  -4.1131  -4.0953
    -4.0786  -3.8138  -3.7776  -3.7551  -3.5590  -3.2353  -3.0817  -2.8372
    -2.7740  -2.7469  -2.6952  -2.6904  -2.5874  -2.4396  -2.3162  -2.2436
    -2.1491  -2.1225  -2.0994  -1.8232  -1.7316  -1.6530  -1.5699  -1.5334
    -1.3907  -1.3277  -1.2455  -1.1379  -0.8204  -0.8003  -0.7583  -0.5715
    -0.4739   0.0317   0.1401   0.2008   0.6203   1.2722   1.4161   1.4415
     1.4827   1.8740   1.8772   2.2441   2.3510   2.3526   2.7824   2.8009
     3.9082   3.9986   4.3955   4.5266   4.6598   4.8333   5.0939   5.3412
     5.6791   5.9614   6.4032   6.7500   7.0160   7.1072   7.2287   7.3858
     7.7110   7.8615   7.8658   7.9561   7.9994   8.2123   8.5726   8.7574
     8.8968   8.9581   8.9848   9.0411   9.0525   9.1241   9.2144   9.3970
     9.4191   9.4733   9.4989   9.5889   9.6531   9.7606   9.8335   9.9395
    10.0274  10.1814  10.2536  10.3731  10.5658  10.6090  10.7465  10.9325
    10.9424  10.9829  10.9833  11.1221  11.1261  11.3913  11.5244  11.5595
    11.7108  11.8520  11.9380  11.9516  12.0088  12.1153  12.1829  12.3704
    12.3738  12.4445  12.5728  12.6634  12.6766  12.7615  12.8068  12.8921
    12.9924  13.1142  13.2459  13.2847  13.3583  13.3602  13.4874  13.5095
    13.5681  13.6502  13.7270  13.8276  13.9908  14.0786  14.1612  14.2128
    14.2896  14.3180  14.4124  14.5142  14.5741  14.5772  14.6315  14.6823
    14.7828  14.8072  14.9444  14.9835  15.2197  15.2906  15.3291  15.3574
    15.4714  15.4831  15.5817  15.7545  15.8670  15.9177  15.9418  15.9492
    15.9817  16.2635  16.2796  16.3912  16.5143  16.5567  16.6124  16.6895
    16.7830  16.8578  16.8670  16.9407  17.0007  17.0231  17.0655  17.1030
    17.2404  17.3963  17.4056  17.5374  17.5882  17.6814  17.7480  17.8231
    17.8741  17.9178  18.0639  18.0891  18.2018  18.2085  18.2325  18.3103
    18.4112  18.4199  18.4468  18.4577  18.4876  18.5570  18.7342  18.7838
    18.7995  18.9321  18.9899  19.1281  19.1394  19.2217  19.2586  19.3683
    19.5474  19.6530  19.7617  19.8988  19.9541  20.0365  20.0929  20.1492
    20.2354  20.3009  20.3276  20.3775  20.5276  20.6388  20.7365  20.7681
    20.8272  20.8744  20.9330  21.0497

          k = 0.2500 0.0000 0.0000 ( 27178 PWs)   bands (ev):

   -75.2020 -75.1911 -75.1565 -75.1464 -75.0437 -75.0336 -74.9866 -74.9763
   -46.6282 -46.6183 -46.5676 -46.5494 -46.5360 -46.4832 -46.4802 -46.4608
   -46.4357 -46.4036 -46.3966 -46.3904 -46.3799 -46.3755 -46.3622 -46.3586
   -46.3558 -46.3374 -46.2882 -46.2868 -46.2763 -46.2697 -46.2541 -46.2349
   -21.4342 -20.9424 -20.8898 -20.5108 -20.4296 -20.3244 -20.1030 -19.9416
   -19.7826 -19.6681 -19.6455 -19.5725 -19.5672 -19.5220 -19.3846 -19.2962
   -19.0549 -18.9313  -9.2507  -8.9304  -8.8555  -8.8052  -8.4410  -8.1432
    -8.0201  -7.9209  -7.8857  -7.8556  -7.7283  -7.7235  -7.6453  -7.3939
    -7.3545  -7.3176  -7.1514  -6.9844  -6.9710  -6.8457  -6.7952  -6.6884
    -6.6142  -6.1382  -6.0738  -5.9943  -5.7609  -5.7153  -5.6392  -5.5062
    -5.4205  -5.3537  -5.2670  -5.2388  -5.1970  -5.0904  -4.9986  -4.8327
    -4.7560  -4.6888  -4.5866  -4.5618  -4.3946  -4.2213  -4.1626  -4.1307
    -4.1059  -4.0351  -3.8805  -3.7240  -3.4968  -3.2581  -3.1654  -3.0619
    -2.9497  -2.6429  -2.5905  -2.5188  -2.3469  -2.2867  -2.2183  -2.1607
    -2.1244  -2.0209  -1.8927  -1.8222  -1.8084  -1.7369  -1.6287  -1.5201
    -1.4438  -1.2100  -1.1928  -1.1565  -1.0408  -0.7389  -0.7340  -0.5477
    -0.4964  -0.1540   0.6957   0.8863   1.1035   1.1756   1.2151   1.3482
     1.4501   1.6176   1.6993   1.7148   1.9084   1.9913   2.2380   2.5612
     3.4890   3.5756   3.9709   4.4443   4.9653   5.5268   5.6597   5.7125
     6.1751   6.2875   6.5629   6.6865   7.0673   7.3543   7.3881   7.4547
     7.5216   7.5804   7.7940   7.8684   8.0396   8.0494   8.3292   8.4271
     8.6195   8.7070   8.8075   8.9607   9.0362   9.2059   9.3398   9.3871
     9.4610   9.6715   9.6788   9.7850   9.8976   9.9065   9.9644   9.9874
    10.0274  10.1403  10.2423  10.3845  10.4851  10.5114  10.5186  10.6470
    10.8787  10.8932  10.9184  11.1774  11.2714  11.2882  11.3723  11.3987
    11.4336  11.5673  11.6123  11.7461  11.7493  11.8196  12.0118  12.1663
    12.2693  12.3976  12.5163  12.5254  12.6245  12.6537  12.7265  12.8114
    12.8612  13.0056  13.1069  13.2400  13.2403  13.3239  13.4186  13.4791
    13.6354  13.7185  13.8523  13.9298  13.9922  14.1325  14.3383  14.3910
    14.4274  14.4480  14.4833  14.4953  14.5942  14.6483  14.7604  14.7848
    14.8124  14.9144  14.9647  15.1369  15.2288  15.2382  15.2890  15.3077
    15.4398  15.5356  15.6357  15.7197  15.7382  15.8086  15.9615  16.0054
    16.0629  16.2700  16.2782  16.3691  16.4451  16.5159  16.5769  16.7224
    16.7587  16.8708  16.9200  16.9273  17.0943  17.1798  17.2370  17.2445
    17.4456  17.5048  17.5277  17.5602  17.6093  17.7050  17.7522  17.8485
    17.9642  17.9804  17.9981  18.2694  18.4406  18.5100  18.6219  18.7514
    18.7604  18.8467  18.8977  18.9603  18.9980  19.0647  19.1825  19.2561
    19.4948  19.5340  19.5686  19.6415  19.6443  19.6795  19.7008  19.7491
    19.8944  19.8947  20.0254  20.0963  20.1504  20.2366  20.3321  20.4073
    20.4545  20.5509  20.5995  20.6405  20.7152  20.7614  20.8147  21.0282
    21.0691  21.1339  21.1814  21.2316

          k = 0.2500 0.2341 0.0000 ( 27132 PWs)   bands (ev):

   -75.2019 -75.1911 -75.1566 -75.1464 -75.0437 -75.0336 -74.9867 -74.9763
   -46.6283 -46.6183 -46.5679 -46.5472 -46.5382 -46.4832 -46.4775 -46.4608
   -46.4359 -46.4039 -46.3986 -46.3874 -46.3823 -46.3799 -46.3621 -46.3557
   -46.3514 -46.3374 -46.2883 -46.2874 -46.2764 -46.2723 -46.2542 -46.2350
   -21.3826 -20.9369 -20.7990 -20.4785 -20.4098 -20.3642 -20.0733 -19.9121
   -19.9103 -19.7557 -19.7264 -19.6636 -19.4834 -19.4729 -19.4404 -19.2935
   -19.0530 -18.9267  -9.2261  -8.8664  -8.5831  -8.4788  -8.4119  -8.1021
    -8.0198  -7.8663  -7.8510  -7.8087  -7.7479  -7.6888  -7.4823  -7.4055
    -7.2413  -7.2254  -7.1254  -6.9945  -6.8955  -6.8443  -6.6921  -6.6665
    -6.5928  -6.2828  -6.2082  -6.1179  -5.8220  -5.8011  -5.6856  -5.6457
    -5.6086  -5.5236  -5.4629  -5.3343  -5.3211  -5.2125  -5.1169  -4.9849
    -4.8229  -4.7608  -4.6862  -4.5589  -4.4410  -4.3845  -4.2937  -4.1668
    -4.1370  -3.9187  -3.8164  -3.5866  -3.5373  -3.1954  -3.1676  -2.9545
    -2.8104  -2.5898  -2.4786  -2.4167  -2.3183  -2.2585  -2.2286  -2.1615
    -2.0470  -2.0285  -2.0066  -1.9691  -1.8375  -1.7413  -1.6695  -1.5368
    -1.2742  -1.2040  -1.1674  -1.1403  -0.9554  -0.8133  -0.7865  -0.7042
    -0.3782   0.0377   0.4592   0.6486   0.7397   1.1121   1.1761   1.2425
     1.3569   1.6992   1.9060   1.9882   2.0402   2.3623   2.4278   2.5262
     3.7402   3.7889   4.2134   4.6635   5.1719   5.6018   5.7171   5.8133
     5.8528   6.0833   6.2941   6.3992   6.5836   6.7540   6.7934   7.1610
     7.3067   7.4994   7.6357   7.8701   7.9082   8.1450   8.2388   8.3547
     8.5123   8.6536   8.8454   8.8627   9.0517   9.1271   9.1356   9.3643
     9.3920   9.5534   9.6516   9.7933   9.9497  10.0015  10.0958  10.2110
    10.3241  10.3542  10.4487  10.5504  10.7398  10.8429  10.9714  10.9993
    11.0843  11.2691  11.3343  11.3745  11.4627  11.4926  11.6047  11.6819
    11.7620  11.7755  11.9908  12.0345  12.1048  12.2000  12.2444  12.4535
    12.5229  12.5358  12.6843  12.7166  12.7774  12.8166  12.8617  12.8913
    12.9746  13.0662  13.1325  13.1696  13.3551  13.4260  13.4356  13.6209
    13.7110  13.7133  13.8358  13.8630  13.9471  14.0313  14.1459  14.2193
    14.3524  14.3778  14.4416  14.4855  14.5622  14.6847  14.6952  14.7376
    14.9056  15.0032  15.0237  15.0458  15.1162  15.2076  15.3966  15.4071
    15.4968  15.5342  15.7167  15.7436  15.7709  15.8795  15.9682  16.0254
    16.1088  16.1712  16.2183  16.3236  16.4016  16.4760  16.6381  16.6838
    16.7313  16.7335  16.7847  16.9114  16.9828  17.0676  17.1673  17.1805
    17.2673  17.3153  17.3813  17.4438  17.4787  17.5097  17.6126  17.6233
    17.7636  17.8215  17.9052  17.9368  18.0817  18.1186  18.1748  18.1823
    18.2768  18.4420  18.4447  18.5537  18.6502  18.7356  18.8293  18.8345
    18.9578  18.9711  19.1228  19.1836  19.2926  19.3091  19.3803  19.4148
    19.4924  19.5225  19.6072  19.6359  19.7057  19.7935  19.8460  19.9644
    19.9728  20.1398  20.2486  20.3048  20.3810  20.4194  20.4580  20.6289
    20.6427  20.7317  20.9033  20.9445

          k = 0.2500-0.4682 0.0000 ( 27150 PWs)   bands (ev):

   -75.2019 -75.1911 -75.1566 -75.1464 -75.0437 -75.0336 -74.9867 -74.9763
   -46.6284 -46.6183 -46.5681 -46.5449 -46.5403 -46.4832 -46.4749 -46.4609
   -46.4360 -46.4042 -46.4007 -46.3868 -46.3841 -46.3801 -46.3620 -46.3557
   -46.3464 -46.3373 -46.2894 -46.2870 -46.2763 -46.2751 -46.2545 -46.2349
   -21.3263 -20.9309 -20.6331 -20.5542 -20.3890 -20.2689 -20.1873 -20.0324
   -19.8218 -19.7974 -19.7916 -19.7369 -19.5631 -19.4642 -19.3996 -19.2911
   -19.0513 -18.9236  -9.2014  -8.8947  -8.3587  -8.1649  -8.1020  -8.0371
    -8.0304  -7.8623  -7.8154  -7.7096  -7.5749  -7.5130  -7.3610  -7.2110
    -7.1768  -7.1684  -7.1584  -6.9800  -6.9705  -6.8389  -6.7221  -6.6323
    -6.4860  -6.4052  -6.3901  -6.2460  -6.1182  -6.0297  -5.9911  -5.8070
    -5.7387  -5.7169  -5.6116  -5.6111  -5.3822  -5.2616  -5.1985  -5.1413
    -4.9534  -4.9214  -4.6575  -4.5733  -4.5384  -4.3676  -4.2292  -4.0401
    -3.8975  -3.7881  -3.6449  -3.6093  -3.3879  -3.2451  -3.2389  -2.8710
    -2.7985  -2.7668  -2.6277  -2.5507  -2.3774  -2.3349  -2.2578  -2.1514
    -2.0730  -2.0726  -1.9185  -1.7334  -1.6140  -1.5643  -1.4545  -1.4257
    -1.3630  -1.2941  -1.1628  -1.1325  -1.1039  -0.9106  -0.8548  -0.6010
    -0.2847   0.1122   0.1978   0.2438   0.7594   1.0679   1.1879   1.2716
     1.3637   1.4920   1.9589   2.1171   2.2146   2.4169   2.6691   2.7368
     4.1587   4.2651   4.6757   4.8059   4.9341   5.1187   5.3694   5.6331
     5.9523   6.0276   6.0472   6.2686   6.6872   6.7459   6.9788   7.0662
     7.1108   7.2780   7.3336   7.4758   7.7389   7.7714   8.0004   8.1761
     8.3294   8.3891   8.5768   8.6070   8.9089   9.0174   9.2697   9.2718
     9.2919   9.4795   9.7406   9.8505   9.8944  10.0997  10.1711  10.3270
    10.4531  10.6149  10.8441  10.9657  11.1837  11.2938  11.3102  11.4543
    11.5554  11.6411  11.7088  11.7216  11.8326  11.8334  11.8844  11.9857
    12.0237  12.2446  12.2584  12.2711  12.4200  12.4664  12.6284  12.6285
    12.7069  12.7823  12.8090  12.8194  12.9096  12.9528  13.0461  13.1456
    13.1707  13.1717  13.4049  13.4674  13.4965  13.5502  13.6373  13.6655
    13.6973  13.8091  13.8480  13.9329  13.9652  14.0060  14.1500  14.1801
    14.2018  14.2571  14.3404  14.6205  14.6522  14.7060  14.8022  14.8283
    14.8699  14.9224  14.9398  14.9959  15.0985  15.1513  15.1832  15.2335
    15.2477  15.2912  15.3385  15.4230  15.4653  15.4731  15.6055  15.6549
    15.7382  15.7580  15.8458  15.8658  16.0875  16.2152  16.2426  16.2475
    16.4070  16.4170  16.5179  16.6026  16.6620  16.7839  16.8480  16.9950
    17.0447  17.1839  17.3818  17.4307  17.4880  17.5401  17.6118  17.6795
    17.8115  17.8230  17.9854  18.0233  18.0622  18.1952  18.2458  18.2943
    18.3291  18.3954  18.4893  18.5056  18.5945  18.6526  18.6873  18.7765
    18.8024  18.8596  18.9272  18.9590  19.2211  19.2959  19.3088  19.3185
    19.3754  19.3769  19.5047  19.5392  19.5960  19.7205  19.7411  19.8060
    19.8579  19.8802  19.8982  19.9785  20.0007  20.1332  20.2240  20.3159
    20.5425  20.5725  20.6029  20.6810

          k =-0.5000 0.0000 0.0000 ( 27158 PWs)   bands (ev):

   -75.1966 -75.1965 -75.1517 -75.1512 -75.0389 -75.0385 -74.9819 -74.9811
   -46.6234 -46.6230 -46.5427 -46.5426 -46.5047 -46.5046 -46.4695 -46.4694
   -46.4209 -46.4205 -46.3885 -46.3881 -46.3830 -46.3827 -46.3486 -46.3484
   -46.3448 -46.3446 -46.3008 -46.3001 -46.2790 -46.2782 -46.2621 -46.2614
   -21.1636 -21.1636 -20.6642 -20.6642 -20.3315 -20.3315 -20.1713 -20.1713
   -19.6578 -19.6578 -19.6164 -19.6164 -19.4589 -19.4589 -19.4520 -19.4520
   -19.0091 -19.0091  -8.9868  -8.9868  -8.5325  -8.5324  -8.4337  -8.4336
    -8.0263  -8.0263  -7.8159  -7.8158  -7.7342  -7.7342  -7.6088  -7.6087
    -7.2775  -7.2775  -7.1807  -7.1807  -6.7452  -6.7452  -6.5864  -6.5864
    -6.2368  -6.2367  -6.0792  -6.0792  -5.8996  -5.8995  -5.7702  -5.7702
    -5.5380  -5.5380  -5.1841  -5.1841  -4.9903  -4.9903  -4.9161  -4.9161
    -4.8543  -4.8542  -4.6977  -4.6977  -4.5098  -4.5097  -4.4333  -4.4333
    -4.1695  -4.1695  -3.5901  -3.5900  -3.4081  -3.4081  -3.0715  -3.0715
    -2.7187  -2.7186  -2.5775  -2.5774  -2.3516  -2.3515  -2.2849  -2.2845
    -1.8241  -1.8240  -1.7387  -1.7384  -1.6823  -1.6822  -1.5343  -1.5342
    -1.3038  -1.3037  -1.1784  -1.1783  -0.8995  -0.8993  -0.7763  -0.7762
    -0.2121  -0.2119   0.9033   0.9035   1.0951   1.0952   1.3033   1.3035
     1.3590   1.3592   1.6034   1.6039   1.7723   1.7723   2.3864   2.3867
     4.3196   4.3196   4.3911   4.3912   4.8166   4.8166   5.2628   5.2628
     5.8157   5.8157   6.4659   6.4659   7.0365   7.0365   7.5424   7.5424
     8.0865   8.0865   8.1509   8.1510   8.2427   8.2427   8.3747   8.3747
     8.6269   8.6269   8.6778   8.6778   8.8457   8.8457   9.1327   9.1327
     9.2384   9.2384   9.4582   9.4582   9.7526   9.7526  10.0268  10.0268
    10.1632  10.1632  10.3260  10.3260  10.5285  10.5285  10.7732  10.7732
    10.9832  10.9832  11.0228  11.0228  11.2062  11.2062  11.5483  11.5483
    11.7443  11.7443  11.8516  11.8516  12.1417  12.1417  12.3704  12.3704
    12.5055  12.5055  12.7200  12.7200  12.8240  12.8240  12.9924  12.9924
    13.2119  13.2119  13.4893  13.4893  13.6040  13.6040  13.6642  13.6642
    13.9165  13.9165  13.9822  13.9822  14.1525  14.1525  14.2745  14.2745
    14.5592  14.5592  14.6124  14.6124  14.7904  14.7904  14.8535  14.8535
    14.9397  14.9397  15.0603  15.0603  15.1880  15.1880  15.4625  15.4625
    15.5988  15.5988  15.6628  15.6628  15.7926  15.7926  16.2630  16.2630
    16.5272  16.5272  16.5953  16.5953  16.7165  16.7165  16.9432  16.9432
    17.0919  17.0919  17.2394  17.2394  17.2979  17.2979  17.4443  17.4443
    17.5211  17.5211  17.5353  17.5353  17.7064  17.7064  17.7970  17.7970
    17.8869  17.8870  18.0389  18.0389  18.1709  18.1709  18.4415  18.4415
    18.5321  18.5321  18.6777  18.6777  18.9196  18.9196  18.9673  18.9673
    18.9947  18.9947  19.0571  19.0571  19.2160  19.2160  19.4646  19.4646
    19.5748  19.5748  19.9071  19.9071  19.9295  19.9295  20.1887  20.1887
    20.2289  20.2290  20.3499  20.3499  20.3792  20.3792  20.5087  20.5087
    20.6006  20.6006  20.6187  20.6187

          k =-0.5000 0.2341 0.0000 ( 27132 PWs)   bands (ev):

   -75.1966 -75.1965 -75.1517 -75.1513 -75.0388 -75.0385 -74.9819 -74.9811
   -46.6234 -46.6230 -46.5421 -46.5420 -46.5048 -46.5047 -46.4695 -46.4694
   -46.4203 -46.4199 -46.3896 -46.3891 -46.3823 -46.3820 -46.3487 -46.3485
   -46.3449 -46.3447 -46.2999 -46.2991 -46.2790 -46.2781 -46.2636 -46.2628
   -21.1383 -21.1377 -20.6037 -20.6033 -20.2699 -20.2689 -20.1924 -20.1916
   -19.7834 -19.7833 -19.6668 -19.6618 -19.5223 -19.5173 -19.3941 -19.3940
   -19.0040 -19.0039  -8.9675  -8.9599  -8.2175  -8.2166  -8.1689  -8.1459
    -8.0011  -7.9810  -7.8359  -7.8160  -7.6642  -7.6613  -7.5429  -7.5334
    -7.3261  -7.3069  -7.1307  -7.0773  -6.7173  -6.6874  -6.6284  -6.5860
    -6.4214  -6.3600  -6.2155  -6.1844  -6.0698  -6.0310  -5.9622  -5.9521
    -5.5872  -5.5522  -5.3980  -5.3672  -5.2581  -5.2306  -5.1447  -5.1354
    -5.0152  -5.0139  -4.8390  -4.7875  -4.5240  -4.4493  -4.1850  -4.1636
    -4.0991  -4.0343  -3.5996  -3.5454  -3.3562  -3.2406  -3.1580  -3.0973
    -2.6746  -2.6605  -2.5422  -2.5328  -2.2625  -2.2366  -2.0714  -2.0115
    -1.9746  -1.9650  -1.9187  -1.9124  -1.5588  -1.5551  -1.4825  -1.4821
    -1.2856  -1.2780  -1.1834  -1.1361  -0.9922  -0.9881  -0.8704  -0.8511
    -0.0788  -0.0785   0.7779   0.7782   0.9739   0.9830   1.0448   1.0477
     1.1978   1.2000   1.7536   1.7624   2.1628   2.1635   2.4962   2.5012
     4.5411   4.5455   4.5786   4.5787   5.0443   5.0450   5.4687   5.4689
     5.9616   5.9700   6.3390   6.3615   6.6500   6.6567   6.9195   6.9235
     7.0944   7.1035   7.4323   7.4480   7.6266   7.6513   8.1126   8.1460
     8.4046   8.4297   8.5880   8.5896   8.9796   9.0135   9.2751   9.2854
     9.5798   9.6063   9.7930   9.8427  10.2346  10.2513  10.3611  10.3691
    10.5367  10.5428  10.7603  10.7768  10.8937  10.8959  11.1028  11.1050
    11.2938  11.3065  11.4193  11.4252  11.5289  11.5440  11.7893  11.8096
    12.0491  12.0719  12.2525  12.2579  12.3962  12.3985  12.6333  12.6640
    12.7350  12.7548  12.8391  12.8674  12.9331  12.9443  13.2401  13.2565
    13.3508  13.4199  13.4716  13.5856  13.7295  13.7809  13.8728  13.8863
    13.9780  13.9951  14.1033  14.1186  14.2921  14.2932  14.3749  14.3922
    14.4836  14.4978  14.6137  14.6150  14.7071  14.7274  14.8166  14.8288
    14.9777  14.9806  15.2258  15.2624  15.3550  15.3634  15.5054  15.5492
    15.6536  15.6822  15.7412  15.7431  15.8474  15.8489  15.9190  15.9373
    15.9617  15.9625  16.0581  16.0639  16.1806  16.1839  16.4513  16.4712
    16.5598  16.5633  16.6509  16.6677  16.7414  16.7539  16.8327  16.8465
    17.0424  17.0849  17.1635  17.1681  17.2108  17.2546  17.3088  17.3097
    17.4753  17.4754  17.6737  17.6823  17.7384  17.8031  17.8539  17.8550
    18.0837  18.0875  18.2107  18.2214  18.3199  18.3399  18.4064  18.4221
    18.8115  18.8249  18.9219  18.9277  19.0662  19.1025  19.2783  19.2810
    19.4859  19.4904  19.5515  19.5981  19.7120  19.7472  19.7847  19.7931
    19.8941  19.8953  19.9868  19.9882  20.0181  20.0416  20.1928  20.1964
    20.2886  20.2973  20.5856  20.6078

          k =-0.5000-0.4682 0.0000 ( 27168 PWs)   bands (ev):

   -75.1966 -75.1964 -75.1517 -75.1513 -75.0388 -75.0385 -74.9819 -74.9811
   -46.6235 -46.6231 -46.5415 -46.5414 -46.5049 -46.5048 -46.4696 -46.4695
   -46.4195 -46.4191 -46.3907 -46.3902 -46.3816 -46.3813 -46.3489 -46.3487
   -46.3450 -46.3449 -46.2988 -46.2980 -46.2789 -46.2781 -46.2652 -46.2645
   -21.1120 -21.1120 -20.5190 -20.5189 -20.2657 -20.2657 -20.0740 -20.0740
   -20.0194 -20.0194 -19.6735 -19.6734 -19.5828 -19.5828 -19.3652 -19.3652
   -19.0000 -18.9999  -8.9405  -8.9405  -8.0657  -8.0656  -7.9348  -7.9348
    -7.6608  -7.6608  -7.6069  -7.6069  -7.5038  -7.5037  -7.3894  -7.3893
    -7.2956  -7.2956  -7.0944  -7.0943  -6.9042  -6.9042  -6.8438  -6.8437
    -6.5169  -6.5169  -6.4183  -6.4182  -6.1514  -6.1514  -6.0277  -6.0277
    -5.8089  -5.8089  -5.6657  -5.6657  -5.4423  -5.4422  -5.3564  -5.3563
    -5.1349  -5.1349  -4.7695  -4.7694  -4.3931  -4.3930  -3.9576  -3.9575
    -3.7900  -3.7899  -3.6390  -3.6389  -3.5187  -3.5186  -2.8551  -2.8550
    -2.6011  -2.6011  -2.4783  -2.4782  -2.4089  -2.4088  -2.2476  -2.2475
    -2.0531  -2.0530  -1.6343  -1.6340  -1.4362  -1.4361  -1.3217  -1.3217
    -1.2209  -1.2209  -1.1918  -1.1917  -1.1148  -1.1145  -0.8995  -0.8992
     0.0222   0.0223   0.4704   0.4706   0.6633   0.6637   1.1029   1.1031
     1.1635   1.1637   1.9244   1.9247   2.4001   2.4003   2.5840   2.5841
     4.8863   4.8863   4.9783   4.9783   5.4846   5.4846   5.6265   5.6265
     5.7510   5.7510   5.9412   5.9412   6.1712   6.1712   6.4574   6.4574
     6.7435   6.7435   7.1110   7.1111   7.4739   7.4739   7.9094   7.9094
     8.1653   8.1653   8.6267   8.6267   8.9717   8.9717   9.0785   9.0785
     9.4055   9.4055   9.7609   9.7609   9.9702   9.9702  10.5989  10.5990
    10.8232  10.8232  10.9802  10.9802  11.1313  11.1314  11.6049  11.6049
    12.0625  12.0625  12.2607  12.2608  12.5067  12.5067  12.5776  12.5776
    12.6949  12.6949  12.8176  12.8176  12.8760  12.8760  12.9329  12.9329
    13.2956  13.2956  13.3749  13.3749  13.4174  13.4174  13.4996  13.4996
    13.6200  13.6200  13.6798  13.6798  13.8474  13.8474  13.8948  13.8948
    14.0261  14.0261  14.0980  14.0980  14.2190  14.2190  14.4232  14.4232
    14.5288  14.5288  14.5845  14.5846  14.6351  14.6351  14.6753  14.6753
    14.7780  14.7780  14.8972  14.8972  15.0771  15.0771  15.1172  15.1172
    15.1491  15.1491  15.2360  15.2360  15.3975  15.3975  15.4943  15.4943
    15.5294  15.5294  15.6788  15.6788  15.7527  15.7527  15.8855  15.8855
    16.0172  16.0172  16.1930  16.1931  16.3605  16.3605  16.5069  16.5069
    16.6296  16.6296  16.6629  16.6629  16.6931  16.6931  16.8824  16.8825
    17.0226  17.0226  17.2503  17.2503  17.5966  17.5966  17.6934  17.6934
    17.8120  17.8120  17.8834  17.8834  18.0751  18.0751  18.2019  18.2020
    18.3458  18.3458  18.5522  18.5523  18.6694  18.6694  18.9459  18.9459
    18.9859  18.9859  19.2821  19.2821  19.5489  19.5489  19.8842  19.8842
    20.0086  20.0086  20.1987  20.1987  20.2353  20.2353  20.5240  20.5241
    20.7261  20.7261  21.0035  21.0035

          k =-0.2500 0.2341 0.0000 ( 27132 PWs)   bands (ev):

   -75.2019 -75.1911 -75.1566 -75.1464 -75.0437 -75.0336 -74.9867 -74.9763
   -46.6283 -46.6183 -46.5679 -46.5472 -46.5382 -46.4832 -46.4775 -46.4608
   -46.4358 -46.4039 -46.3986 -46.3874 -46.3824 -46.3799 -46.3621 -46.3557
   -46.3513 -46.3374 -46.2887 -46.2867 -46.2763 -46.2727 -46.2543 -46.2348
   -21.3829 -20.9365 -20.7988 -20.4771 -20.4099 -20.3654 -20.0733 -19.9122
   -19.9087 -19.7548 -19.7274 -19.6709 -19.4768 -19.4736 -19.4407 -19.2935
   -19.0531 -18.9267  -9.2234  -8.8868  -8.5833  -8.4825  -8.3706  -8.1049
    -8.0172  -7.8922  -7.8694  -7.8077  -7.7286  -7.6842  -7.4859  -7.4043
    -7.2443  -7.2361  -7.1463  -6.9491  -6.8909  -6.8387  -6.7247  -6.6576
    -6.5660  -6.2623  -6.1965  -6.1427  -5.8254  -5.8187  -5.6883  -5.6751
    -5.5959  -5.5212  -5.4727  -5.3358  -5.3269  -5.2133  -5.0916  -4.9882
    -4.8760  -4.7426  -4.6836  -4.5413  -4.4619  -4.3413  -4.2924  -4.1323
    -4.0896  -3.9813  -3.8476  -3.6001  -3.5591  -3.1943  -3.1524  -2.8848
    -2.8110  -2.5903  -2.4892  -2.4238  -2.3303  -2.2649  -2.2205  -2.1379
    -2.0761  -2.0535  -2.0242  -1.9912  -1.8029  -1.7238  -1.6507  -1.5481
    -1.2770  -1.1879  -1.1679  -1.1579  -0.9597  -0.8082  -0.7819  -0.7087
    -0.3786   0.0376   0.4593   0.6459   0.7403   1.1140   1.1760   1.2451
     1.3577   1.6903   1.9062   1.9891   2.0481   2.3629   2.4210   2.5298
     3.7389   3.7886   4.2130   4.6635   5.1750   5.6161   5.7273   5.8135
     5.8476   6.0846   6.2911   6.3993   6.5890   6.7478   6.7824   7.1281
     7.3226   7.4808   7.6247   7.8629   7.9210   8.1635   8.2384   8.3731
     8.5144   8.6434   8.8514   8.8748   9.0480   9.1129   9.1505   9.3625
     9.3695   9.5439   9.6829   9.7947   9.9446  10.0069  10.0917  10.1902
    10.3502  10.3508  10.4510  10.5508  10.7300  10.8617  10.9645  10.9746
    11.1059  11.2378  11.3239  11.3635  11.4657  11.4945  11.6130  11.7043
    11.7635  11.7774  11.9654  12.0549  12.1191  12.1945  12.2494  12.4512
    12.5230  12.5619  12.6787  12.7165  12.7740  12.8111  12.8547  12.8905
    13.0023  13.0885  13.1303  13.1574  13.3896  13.4117  13.4566  13.5858
    13.7240  13.7311  13.8147  13.8803  13.9700  14.0522  14.1046  14.2054
    14.3458  14.3553  14.4326  14.4575  14.5960  14.6816  14.6918  14.7709
    14.8665  15.0004  15.0221  15.0495  15.1277  15.1967  15.3753  15.3852
    15.4909  15.5378  15.7187  15.7550  15.7948  15.8720  15.9340  16.0101
    16.1102  16.1660  16.2437  16.3571  16.3904  16.4593  16.6241  16.6569
    16.7357  16.7439  16.7925  16.9032  16.9824  17.0634  17.1549  17.1939
    17.2267  17.3058  17.3332  17.4133  17.4936  17.5189  17.5834  17.6732
    17.7850  17.8265  17.9031  17.9154  18.0768  18.1212  18.1808  18.1947
    18.2863  18.4429  18.4579  18.5433  18.6219  18.7343  18.8443  18.8646
    18.9529  19.0024  19.1330  19.1922  19.2884  19.2977  19.3833  19.4419
    19.4920  19.4997  19.6080  19.6384  19.7055  19.7838  19.8753  19.9769
    20.0334  20.1414  20.2811  20.3025  20.3488  20.4418  20.4563  20.6348
    20.6621  20.7293  20.8923  20.9369

 ------ SPIN DOWN ----------


          k = 0.0000 0.0000 0.0000 ( 27003 PWs)   bands (ev):

   -73.2567 -73.2400 -72.7888 -72.7730 -72.6000 -72.5842 -72.5324 -72.5170
   -44.7060 -44.6517 -44.6351 -44.5921 -44.5558 -44.4959 -44.4080 -44.3943
   -44.2495 -44.2328 -44.1289 -44.0755 -44.0696 -44.0535 -43.9965 -43.9465
   -43.9222 -43.9055 -43.8918 -43.8569 -43.8138 -43.7907 -43.7201 -43.5998
   -21.5312 -20.9899 -20.8476 -20.5822 -20.4214 -20.3724 -19.9856 -19.8713
   -19.8331 -19.7978 -19.7017 -19.6010 -19.5693 -19.5562 -19.3999 -19.3929
   -19.1968 -19.0614  -9.1123  -8.6476  -8.6186  -8.5034  -8.4849  -7.8683
    -7.6579  -7.6305  -7.6243  -7.4757  -7.4519  -7.4401  -7.3068  -7.1509
    -6.9034  -6.7398  -6.6810  -6.6447  -6.5958  -6.5661  -6.5234  -6.4814
    -6.3536  -6.0505  -5.9282  -5.7102  -5.6470  -5.5415  -5.4043  -5.3743
    -5.2967  -4.9924  -4.9783  -4.9380  -4.8864  -4.8044  -4.6678  -4.5105
    -4.5041  -4.4702  -4.2842  -4.1889  -4.1397  -3.9468  -3.9034  -3.8471
    -3.7769  -3.6291  -3.5968  -3.2982  -3.2257  -3.1690  -3.1477  -2.7127
    -0.6779  -0.6758  -0.5532  -0.4056  -0.3418  -0.2685  -0.2402  -0.1807
    -0.0821   0.0095   0.1169   0.1213   0.2065   0.2173   0.4285   0.4333
     0.5439   0.6298   0.6734   0.6836   0.7904   0.8658   0.9519   1.0357
     1.1216   1.2734   1.5988   2.0190   2.4404   2.4438   2.4535   2.5295
     2.6567   2.7683   2.8099   2.9867   3.1147   3.1707   3.2525   3.3433
     3.3469   3.7002   3.7647   4.2338   4.7457   5.5290   6.1054   6.4030
     6.8131   7.1332   7.1508   7.2421   7.2853   7.3131   7.3768   7.5492
     7.6180   7.6289   7.7928   8.0681   8.0726   8.1525   8.1808   8.3538
     8.5066   8.5336   8.6141   8.8162   8.8241   8.9704   9.2477   9.2671
     9.4258   9.4973   9.6594   9.7547   9.8169   9.9434   9.9929  10.0183
    10.2591  10.3343  10.3660  10.5343  10.6871  10.7480  11.1235  11.1605
    11.2462  11.3115  11.3161  11.3872  11.4155  11.5150  11.5641  11.7972
    11.8055  11.8786  11.9434  12.0281  12.0505  12.0584  12.1310  12.2648
    12.3058  12.4066  12.4492  12.4598  12.4915  12.6988  12.7590  12.8467
    12.8526  12.9475  12.9891  13.0505  13.0912  13.1102  13.2059  13.4004
    13.4770  13.4980  13.5227  13.5789  13.7220  13.7971  13.8743  13.9321
    13.9388  14.1625  14.2583  14.3315  14.4720  14.5568  14.8231  14.8545
    14.9802  15.0315  15.0881  15.1761  15.2274  15.2944  15.3546  15.3677
    15.4093  15.4443  15.5377  15.6114  15.8561  15.9149  15.9186  16.0609
    16.1414  16.4057  16.4388  16.5270  16.6308  16.9074  16.9202  16.9452
    17.0596  17.0943  17.3060  17.3422  17.4150  17.4648  17.4876  17.6609
    17.7460  17.8420  17.9773  18.1177  18.1952  18.3820  18.4159  18.4401
    18.5249  18.6489  18.7427  18.7548  18.8303  18.9592  19.0111  19.0665
    19.1265  19.1538  19.2739  19.3770  19.3843  19.4726  19.4807  19.5426
    19.6043  19.7064  19.8305  19.9246  19.9640  20.0029  20.1053  20.2568
    20.2887  20.3861  20.4515  20.4728  20.5372  20.5660  20.7171  20.8655
    20.8790  20.9949  21.1179  21.1758  21.2315  21.2733  21.2735  21.3279
    21.4114  21.4230  21.5057  21.5296

          k = 0.0000 0.2341 0.0000 ( 27088 PWs)   bands (ev):

   -73.2567 -73.2400 -72.7888 -72.7730 -72.6000 -72.5842 -72.5324 -72.5170
   -44.7061 -44.6510 -44.6355 -44.5921 -44.5558 -44.4959 -44.4080 -44.3943
   -44.2495 -44.2328 -44.1184 -44.0831 -44.0656 -44.0641 -43.9930 -43.9465
   -43.9219 -43.9053 -43.8927 -43.8568 -43.8138 -43.7903 -43.7201 -43.5999
   -21.4673 -20.8949 -20.8448 -20.5846 -20.4460 -20.3697 -20.0237 -19.9920
   -19.8768 -19.8189 -19.6908 -19.6224 -19.5200 -19.5026 -19.4720 -19.3996
   -19.1989 -19.0566  -9.0838  -8.6914  -8.4220  -8.3109  -8.2009  -7.9021
    -7.8384  -7.5837  -7.5628  -7.4705  -7.4406  -7.2898  -7.1844  -6.9874
    -6.9083  -6.7395  -6.6723  -6.6475  -6.5860  -6.4517  -6.4124  -6.3217
    -6.1593  -6.1381  -6.0057  -5.9260  -5.9018  -5.8561  -5.6016  -5.4468
    -5.2560  -5.0535  -5.0519  -4.9219  -4.8018  -4.7158  -4.6729  -4.5177
    -4.4986  -4.3637  -4.3319  -4.3279  -4.2333  -4.0900  -4.0129  -3.9852
    -3.9302  -3.7040  -3.6375  -3.5911  -3.3794  -3.1453  -3.1403  -2.7446
    -0.6584  -0.4771  -0.4210  -0.3529  -0.3376  -0.3115  -0.2386  -0.1491
    -0.1434  -0.0886   0.1147   0.1588   0.2228   0.2767   0.4745   0.5697
     0.6214   0.6348   0.7229   0.7761   0.8232   0.8247   0.9886   1.0274
     1.0794   1.3163   1.6389   1.7156   1.8703   2.2368   2.4644   2.6537
     2.7802   2.8190   3.1062   3.1406   3.2546   3.3189   3.4649   3.5043
     3.5455   3.6739   3.9798   4.4502   4.9692   5.4048   5.6225   5.8334
     6.0439   6.3544   6.5480   6.9909   7.0625   7.3986   7.4349   7.4583
     7.6808   7.7836   7.8936   8.2987   8.3011   8.3282   8.3859   8.5662
     8.6909   8.8010   8.9607   9.0051   9.1730   9.2724   9.3731   9.5569
     9.5675   9.6551   9.7457   9.9379  10.0556  10.1340  10.1496  10.1542
    10.2750  10.2863  10.3695  10.3704  10.4162  10.4370  10.6537  10.6833
    10.8155  10.8455  11.0306  11.2496  11.3122  11.3892  11.4239  11.5112
    11.5239  11.6577  11.7021  11.7428  11.9550  11.9935  12.0686  12.3673
    12.4135  12.4562  12.6788  12.7197  12.8830  12.9295  12.9634  12.9802
    12.9894  13.2548  13.3054  13.4919  13.5971  13.6714  13.6942  13.7582
    13.8150  13.9931  14.0940  14.1224  14.1588  14.2250  14.3110  14.3371
    14.4520  14.4679  14.5745  14.6078  14.6273  14.7840  14.9543  14.9906
    15.0771  15.0785  15.1425  15.1948  15.2961  15.3646  15.4689  15.5093
    15.5264  15.6265  15.6594  15.6822  15.6950  15.7285  15.9360  16.0070
    16.0200  16.0858  16.1294  16.2170  16.4269  16.5212  16.5387  16.7544
    16.7639  16.9161  17.0136  17.0386  17.1618  17.1756  17.2829  17.3679
    17.4585  17.5159  17.5292  17.7485  17.8366  17.9094  17.9606  18.0825
    18.1380  18.2639  18.4324  18.6511  18.7003  18.7966  18.8201  18.8700
    19.0421  19.0441  19.1278  19.1615  19.1690  19.2647  19.3878  19.4306
    19.6224  19.7345  19.8272  19.8466  20.0113  20.0577  20.1307  20.1463
    20.2132  20.2598  20.2697  20.3689  20.4298  20.5480  20.6477  20.7232
    20.7343  20.7834  20.8520  20.8705  20.9227  20.9357  21.0360  21.0650
    21.2074  21.3205  21.3340  21.4304

          k = 0.0000-0.4682 0.0000 ( 27136 PWs)   bands (ev):

   -73.2567 -73.2400 -72.7888 -72.7730 -72.6000 -72.5842 -72.5324 -72.5170
   -44.7062 -44.6503 -44.6358 -44.5921 -44.5558 -44.4959 -44.4080 -44.3943
   -44.2495 -44.2328 -44.0985 -44.0880 -44.0842 -44.0641 -43.9898 -43.9465
   -43.9217 -43.9052 -43.8935 -43.8567 -43.8137 -43.7900 -43.7201 -43.5999
   -21.3936 -20.8419 -20.7394 -20.6589 -20.3964 -20.3669 -20.2494 -19.9975
   -19.9126 -19.8052 -19.6835 -19.6327 -19.5657 -19.4872 -19.4654 -19.3993
   -19.2009 -19.0537  -9.0572  -8.7432  -8.3768  -8.0803  -7.8533  -7.8318
    -7.7955  -7.5639  -7.5056  -7.4062  -7.2977  -7.1964  -7.0138  -6.9260
    -6.7286  -6.7075  -6.6551  -6.6191  -6.5961  -6.3794  -6.3446  -6.3302
    -6.2705  -6.2272  -6.2168  -6.1595  -6.0241  -5.8394  -5.7438  -5.6472
    -5.5464  -5.1449  -5.0152  -4.9792  -4.8517  -4.7449  -4.7252  -4.5480
    -4.4653  -4.4563  -4.3800  -4.3081  -4.2906  -4.1066  -4.0663  -3.9846
    -3.9397  -3.8009  -3.7500  -3.7327  -3.5075  -3.1394  -3.0936  -2.7475
    -0.9160  -0.6908  -0.4232  -0.3997  -0.3243  -0.1624  -0.1421  -0.0245
     0.0140   0.0211   0.1758   0.1791   0.3055   0.3737   0.5910   0.6157
     0.6285   0.6327   0.6653   0.6965   0.7731   0.8270   1.0047   1.0073
     1.2031   1.4629   1.5143   1.5836   1.6662   2.4281   2.4752   2.5458
     2.6607   2.8255   2.9947   3.1431   3.1881   3.3339   3.7370   3.8463
     4.0935   4.1207   4.4376   4.5521   4.7006   4.8611   5.1486   5.3682
     5.7490   5.9972   6.4849   6.7921   7.1429   7.2008   7.4696   7.6405
     7.7556   7.9022   7.9997   8.0239   8.1847   8.3158   8.6750   8.7758
     8.9141   8.9787   9.0642   9.0740   9.1259   9.1414   9.2522   9.4228
     9.4487   9.6097   9.6688   9.7075   9.7745   9.9087   9.9319   9.9747
    10.1083  10.3256  10.3636  10.4305  10.6588  10.7112  10.9816  11.0468
    11.0842  11.1306  11.1604  11.2432  11.2860  11.6154  11.6669  11.6893
    11.9087  11.9382  12.0265  12.1158  12.1248  12.1600  12.2855  12.4166
    12.4666  12.5037  12.7117  12.7374  12.8766  12.9083  12.9297  12.9872
    13.1305  13.2107  13.3781  13.4399  13.5822  13.5905  13.6586  13.6783
    13.7741  13.7776  13.9449  14.0900  14.1356  14.2770  14.3439  14.4180
    14.4851  14.6218  14.6324  14.6637  14.6860  14.8934  14.8962  14.9501
    15.0576  15.1598  15.3934  15.4271  15.5302  15.5983  15.6753  15.7163
    15.7353  15.8603  15.9608  16.0807  16.0888  16.1714  16.1943  16.2035
    16.2843  16.3737  16.4488  16.5046  16.6085  16.7123  16.7229  16.7321
    16.8475  16.8773  16.8994  17.0324  17.1182  17.1215  17.1394  17.1949
    17.4731  17.4744  17.4828  17.5709  17.6352  17.7560  17.9200  18.0181
    18.0758  18.1519  18.2221  18.2616  18.2941  18.4252  18.4373  18.5165
    18.5262  18.5676  18.6044  18.6471  18.7602  18.8819  18.9473  18.9688
    19.1265  19.1402  19.1813  19.2411  19.2873  19.3509  19.5634  19.6230
    19.7372  19.9935  20.0150  20.0579  20.2329  20.2585  20.3398  20.3718
    20.3984  20.4374  20.5179  20.6654  20.8000  20.8425  20.8940  20.9142
    20.9467  21.1316  21.1861  21.2009

          k = 0.2500 0.0000 0.0000 ( 27178 PWs)   bands (ev):

   -73.2543 -73.2424 -72.7865 -72.7753 -72.5977 -72.5865 -72.5301 -72.5192
   -44.6762 -44.6493 -44.6375 -44.5878 -44.5607 -44.5261 -44.4060 -44.3963
   -44.2471 -44.2353 -44.1224 -44.0870 -44.0601 -44.0531 -43.9735 -43.9415
   -43.9189 -43.8867 -43.8856 -43.8620 -43.8424 -43.7631 -43.7490 -43.6281
   -21.4151 -20.9045 -20.8913 -20.5097 -20.4896 -20.3828 -20.1102 -19.9609
   -19.8016 -19.7369 -19.6796 -19.5870 -19.5765 -19.5575 -19.4219 -19.4195
   -19.2169 -19.0944  -9.0009  -8.6565  -8.5142  -8.3727  -8.2637  -7.8734
    -7.6719  -7.6000  -7.5826  -7.5301  -7.4178  -7.3832  -7.3264  -7.1064
    -7.0079  -6.9164  -6.8292  -6.7420  -6.7325  -6.5650  -6.4597  -6.3399
    -6.3336  -5.8871  -5.7659  -5.6283  -5.5946  -5.4043  -5.3107  -5.2452
    -5.2037  -5.1799  -5.0810  -4.9939  -4.9559  -4.8356  -4.8250  -4.6860
    -4.5514  -4.4185  -4.3368  -4.2814  -4.2165  -4.0829  -3.9844  -3.9804
    -3.8880  -3.7049  -3.5911  -3.5725  -3.2613  -3.1335  -3.1210  -2.8323
    -0.5696  -0.5031  -0.3967  -0.3169  -0.2574  -0.2514  -0.2368  -0.0611
    -0.0315   0.0498   0.0659   0.1874   0.3106   0.3128   0.3661   0.3864
     0.3949   0.4972   0.5662   0.6249   0.7796   0.8536   0.9572   1.1033
     1.1850   1.2190   1.7389   2.0889   2.3100   2.4190   2.4467   2.5598
     2.5667   2.7554   2.8248   2.8738   2.8774   3.1278   3.1896   3.5223
     3.5958   3.7963   4.0358   4.5136   5.0467   5.5854   5.7845   5.7997
     6.2143   6.3843   6.6205   6.7479   7.1451   7.4105   7.4258   7.5364
     7.6122   7.6821   7.8342   7.8929   8.0753   8.1548   8.3544   8.4686
     8.7244   8.7763   8.9251   9.1038   9.1088   9.2807   9.3834   9.4604
     9.5276   9.7230   9.8032   9.9588  10.0065  10.0152  10.0677  10.0910
    10.2462  10.2762  10.3131  10.4171  10.5237  10.5704  10.6620  10.6771
    10.9321  10.9843  11.0346  11.2839  11.3480  11.4149  11.4946  11.4954
    11.5788  11.7744  11.7890  11.8762  11.9838  12.0479  12.2710  12.3525
    12.4202  12.5720  12.6627  12.6945  12.8776  12.9099  12.9547  13.0324
    13.0344  13.1273  13.2471  13.3578  13.4244  13.5811  13.6673  13.7171
    13.7991  13.8376  14.0795  14.1204  14.1292  14.2536  14.4265  14.5007
    14.5302  14.5672  14.6731  14.7207  14.7892  14.8538  15.0053  15.0226
    15.1468  15.2122  15.2444  15.3261  15.3787  15.4788  15.5826  15.6827
    15.7372  15.7381  15.8453  15.8853  15.9413  16.0384  16.1850  16.1999
    16.4002  16.4196  16.5183  16.6157  16.7055  16.7636  16.9022  16.9677
    17.0632  17.1446  17.1483  17.1761  17.2650  17.3706  17.4136  17.4222
    17.6257  17.6816  17.7342  17.7860  17.8626  17.8936  17.9360  17.9780
    18.0654  18.2125  18.3065  18.4692  18.7130  18.7180  18.8038  18.8393
    18.9309  19.0319  19.0341  19.0758  19.1324  19.2105  19.3710  19.5623
    19.5822  19.6404  19.6537  19.7573  19.7580  19.8510  19.8617  19.9568
    20.0318  20.0746  20.1101  20.2315  20.2599  20.4039  20.4656  20.6427
    20.6458  20.6671  20.7363  20.7389  20.9285  20.9667  21.0116  21.1325
    21.1779  21.2271  21.3056  21.3664

          k = 0.2500 0.2341 0.0000 ( 27132 PWs)   bands (ev):

   -73.2543 -73.2424 -72.7865 -72.7753 -72.5977 -72.5865 -72.5301 -72.5192
   -44.6762 -44.6487 -44.6377 -44.5878 -44.5607 -44.5261 -44.4059 -44.3963
   -44.2470 -44.2353 -44.1136 -44.0788 -44.0720 -44.0620 -43.9700 -43.9415
   -43.9189 -43.8874 -43.8852 -43.8621 -43.8424 -43.7628 -43.7489 -43.6281
   -21.3607 -20.8988 -20.8064 -20.4832 -20.4742 -20.4166 -20.0839 -19.9511
   -19.9295 -19.7697 -19.7363 -19.6865 -19.5159 -19.5042 -19.4938 -19.4163
   -19.2144 -19.0892  -8.9782  -8.6534  -8.2372  -8.1749  -8.0617  -7.7706
    -7.6466  -7.5547  -7.5460  -7.4664  -7.4545  -7.3456  -7.1518  -7.0700
    -6.9729  -6.8605  -6.8159  -6.7191  -6.6426  -6.5604  -6.4318  -6.3302
    -6.3222  -6.0371  -5.9189  -5.9096  -5.5727  -5.5061  -5.3818  -5.3525
    -5.2959  -5.2904  -5.2111  -5.0891  -5.0526  -4.9811  -4.8648  -4.6687
    -4.5688  -4.5212  -4.4551  -4.3478  -4.2311  -4.2119  -4.0429  -3.9711
    -3.9187  -3.7635  -3.6227  -3.5048  -3.3199  -3.1721  -3.0528  -2.7984
    -0.6340  -0.5160  -0.3749  -0.3534  -0.2567  -0.1763  -0.1310  -0.0370
    -0.0216   0.0631   0.1117   0.2242   0.3022   0.3173   0.4222   0.4561
     0.4936   0.5713   0.6040   0.6866   0.7821   0.8765   0.9755   1.0285
     1.2172   1.3812   1.7032   1.8875   1.9754   2.2584   2.3814   2.4290
     2.5504   2.7729   2.8459   3.0053   3.0405   3.3512   3.4823   3.5415
     3.8298   3.9290   4.2671   4.7311   5.2505   5.6614   5.7754   5.8930
     5.9647   6.1247   6.3283   6.4370   6.6559   6.8131   6.8571   7.2310
     7.3522   7.5702   7.7295   7.9524   7.9933   8.2047   8.2763   8.3917
     8.5917   8.7220   8.8950   8.9975   9.2054   9.2626   9.2739   9.4527
     9.5199   9.6935   9.7528   9.8491  10.0334  10.0815  10.2697  10.2835
    10.3845  10.4901  10.6038  10.7176  10.7775  10.9382  11.0883  11.0887
    11.1368  11.3790  11.4996  11.5539  11.5767  11.6341  11.7871  11.7958
    11.8760  12.0148  12.0826  12.1630  12.2864  12.2949  12.3926  12.5686
    12.6554  12.6909  12.7946  12.9189  12.9471  12.9991  13.0645  13.0999
    13.1025  13.1473  13.2642  13.3188  13.5365  13.6383  13.7300  13.7799
    13.8361  13.9085  13.9871  13.9904  14.1073  14.2492  14.3852  14.4605
    14.5602  14.5669  14.6925  14.7052  14.7877  14.8598  14.8997  15.0410
    15.1994  15.2606  15.3707  15.4597  15.5089  15.5192  15.6002  15.6303
    15.7890  15.8177  15.8941  15.9148  15.9860  16.1112  16.1456  16.1628
    16.2564  16.3079  16.3680  16.5735  16.5762  16.6700  16.8185  16.8480
    16.9001  16.9580  17.0021  17.1166  17.2017  17.2250  17.3877  17.3997
    17.4486  17.4840  17.5722  17.6136  17.6766  17.7465  17.7506  17.8766
    17.9083  18.0033  18.0332  18.1379  18.2265  18.2908  18.3356  18.3468
    18.4219  18.6078  18.6256  18.7699  18.8217  18.8613  18.9175  19.0395
    19.0994  19.1433  19.2618  19.3404  19.3817  19.4109  19.4764  19.5631
    19.6242  19.6496  19.7304  19.7949  19.7997  19.9445  20.0857  20.1048
    20.2400  20.3258  20.4013  20.4267  20.5693  20.6470  20.6594  20.8067
    20.8446  20.9319  21.0946  21.1001

          k = 0.2500-0.4682 0.0000 ( 27150 PWs)   bands (ev):

   -73.2543 -73.2424 -72.7865 -72.7753 -72.5977 -72.5865 -72.5301 -72.5192
   -44.6763 -44.6482 -44.6379 -44.5878 -44.5607 -44.5262 -44.4059 -44.3963
   -44.2470 -44.2353 -44.0938 -44.0844 -44.0823 -44.0679 -43.9687 -43.9415
   -43.9188 -43.8881 -43.8849 -43.8621 -43.8420 -43.7626 -43.7489 -43.6282
   -21.3005 -20.8927 -20.6555 -20.5809 -20.4581 -20.3045 -20.1965 -20.0494
   -19.8391 -19.8278 -19.7877 -19.7457 -19.6027 -19.4817 -19.4702 -19.4137
   -19.2123 -19.0859  -8.9528  -8.6707  -8.1803  -7.7764  -7.7423  -7.6510
    -7.6332  -7.5496  -7.5235  -7.4129  -7.2517  -7.1801  -6.9195  -6.9026
    -6.8800  -6.8101  -6.7672  -6.7431  -6.7048  -6.5518  -6.4980  -6.3325
    -6.2223  -6.1718  -6.1713  -6.1012  -5.8334  -5.7454  -5.6831  -5.5526
    -5.4700  -5.4323  -5.3516  -5.2981  -5.0481  -5.0128  -4.8774  -4.8120
    -4.6506  -4.5897  -4.4797  -4.4227  -4.2928  -4.0684  -3.9800  -3.8636
    -3.8572  -3.7395  -3.6311  -3.4889  -3.4587  -3.1469  -3.0570  -2.7604
    -0.8663  -0.6303  -0.4409  -0.3364  -0.2861  -0.1183  -0.0120   0.0283
     0.0609   0.0778   0.1898   0.2211   0.3335   0.4950   0.5334   0.5458
     0.5929   0.6326   0.6740   0.7116   0.7267   0.8712   0.8990   1.1342
     1.3248   1.4683   1.5343   1.6147   1.8199   2.2180   2.3931   2.4317
     2.4699   2.5108   2.8213   3.1687   3.1892   3.3137   3.6555   3.7301
     4.3448   4.3701   4.7131   4.8286   4.9723   5.1458   5.4214   5.6592
     6.0178   6.1072   6.2573   6.3037   6.7629   6.7771   6.9933   7.1099
     7.1392   7.2982   7.4464   7.5195   7.7968   7.8166   8.0580   8.3035
     8.4338   8.5108   8.6772   8.6793   8.9943   9.1223   9.3135   9.4100
     9.4924   9.5937   9.8436  10.0183  10.1543  10.2675  10.2802  10.4287
    10.6408  10.7111  10.9539  11.0469  11.2328  11.4607  11.5042  11.5413
    11.6082  11.7757  11.7947  11.9357  11.9399  11.9764  12.0034  12.0949
    12.1947  12.3820  12.3833  12.4318  12.5407  12.6061  12.6689  12.6808
    12.7739  12.8933  12.9617  13.0765  13.0876  13.1061  13.1770  13.2337
    13.3350  13.3540  13.5566  13.6417  13.6893  13.6903  13.7878  13.7984
    13.8754  13.9790  14.0439  14.1105  14.2722  14.3140  14.3238  14.4068
    14.4570  14.4847  14.5894  14.7601  14.7753  14.8699  14.9423  14.9602
    15.0046  15.0512  15.1091  15.2303  15.2793  15.3850  15.4422  15.4516
    15.4912  15.5997  15.6489  15.6701  15.7113  15.8574  15.8918  15.9064
    16.0012  16.0695  16.0735  16.2314  16.2639  16.3737  16.4162  16.4897
    16.6521  16.6788  16.7182  16.7607  16.8094  16.9307  16.9540  17.1414
    17.2104  17.4808  17.6239  17.6541  17.6779  17.7090  17.7430  17.9103
    17.9157  18.0248  18.1251  18.1576  18.2404  18.2888  18.3812  18.4804
    18.5329  18.5694  18.5728  18.6877  18.7639  18.7843  18.8509  18.9308
    18.9856  18.9963  19.1148  19.3226  19.3278  19.3746  19.4164  19.5337
    19.5694  19.6273  19.6662  19.6795  19.8174  19.8204  19.8654  19.8850
    19.9775  20.0077  20.0591  20.0670  20.2241  20.4145  20.4597  20.5334
    20.6731  20.7166  20.7541  20.7734

          k =-0.5000 0.0000 0.0000 ( 27158 PWs)   bands (ev):

   -73.2484 -73.2483 -72.7813 -72.7805 -72.5923 -72.5919 -72.5249 -72.5245
   -44.6435 -44.6434 -44.6055 -44.6054 -44.5703 -44.5702 -44.4015 -44.4007
   -44.2414 -44.2409 -44.1060 -44.1056 -44.0539 -44.0535 -43.9298 -43.9294
   -43.9105 -43.9097 -43.8746 -43.8742 -43.8184 -43.8180 -43.6961 -43.6958
   -21.1352 -21.1351 -20.6838 -20.6837 -20.3499 -20.3499 -20.2060 -20.2060
   -19.6680 -19.6679 -19.6268 -19.6268 -19.5663 -19.5663 -19.4927 -19.4926
   -19.1715 -19.1714  -8.7885  -8.7885  -8.1790  -8.1789  -8.0677  -8.0676
    -7.7003  -7.7003  -7.5615  -7.5615  -7.4161  -7.4161  -7.2253  -7.2253
    -7.0386  -7.0386  -6.8572  -6.8572  -6.4381  -6.4381  -6.3127  -6.3127
    -5.9521  -5.9521  -5.8437  -5.8437  -5.5835  -5.5834  -5.4127  -5.4126
    -5.2175  -5.2175  -4.9610  -4.9610  -4.7455  -4.7454  -4.7076  -4.7076
    -4.6000  -4.6000  -4.5513  -4.5513  -4.2700  -4.2699  -4.1144  -4.1144
    -3.9741  -3.9741  -3.3975  -3.3975  -3.2001  -3.2001  -3.0826  -3.0825
    -0.5331  -0.5331  -0.2066  -0.2065  -0.1225  -0.1224  -0.0572  -0.0570
     0.0831   0.0832   0.1690   0.1693   0.1777   0.1778   0.3186   0.3188
     0.4889   0.4892   0.5812   0.5813   0.6770   0.6771   0.9786   0.9787
     1.2760   1.2761   2.0814   2.0816   2.1958   2.1960   2.5119   2.5121
     2.5625   2.5628   2.7629   2.7633   2.9215   2.9215   3.4264   3.4267
     4.3867   4.3867   4.5039   4.5039   4.8668   4.8668   5.3213   5.3213
     5.8892   5.8892   6.5489   6.5489   7.1198   7.1198   7.6100   7.6100
     8.1787   8.1788   8.2141   8.2141   8.2951   8.2951   8.4744   8.4744
     8.6623   8.6623   8.6987   8.6987   8.8758   8.8758   9.1609   9.1609
     9.2890   9.2890   9.5123   9.5123   9.8105   9.8105  10.1148  10.1148
    10.2091  10.2091  10.4330  10.4330  10.6127  10.6127  10.9101  10.9101
    11.0967  11.0967  11.3028  11.3028  11.5412  11.5412  11.7458  11.7458
    11.9253  11.9253  11.9854  11.9854  12.3325  12.3325  12.5679  12.5679
    12.7362  12.7362  12.8645  12.8645  13.0442  13.0442  13.2455  13.2456
    13.3525  13.3525  13.5990  13.5990  13.7156  13.7156  13.7437  13.7437
    14.1338  14.1339  14.2177  14.2177  14.3239  14.3239  14.4202  14.4202
    14.7985  14.7985  14.8755  14.8755  15.0310  15.0310  15.1351  15.1351
    15.2291  15.2291  15.2984  15.2984  15.4275  15.4276  15.7420  15.7421
    15.8559  15.8560  16.1423  16.1423  16.1782  16.1782  16.4878  16.4878
    16.6701  16.6701  16.8177  16.8177  16.9997  16.9998  17.2274  17.2274
    17.3210  17.3210  17.4399  17.4399  17.5268  17.5268  17.5439  17.5439
    17.5931  17.5931  17.6373  17.6373  17.7769  17.7769  17.9483  17.9483
    18.0157  18.0158  18.0993  18.0993  18.2309  18.2309  18.5368  18.5369
    18.6203  18.6203  18.7644  18.7644  19.0726  19.0726  19.1258  19.1258
    19.2037  19.2038  19.2413  19.2413  19.4271  19.4272  19.6273  19.6273
    19.7231  19.7231  19.9726  19.9726  20.0777  20.0777  20.2850  20.2850
    20.3064  20.3064  20.4192  20.4192  20.4535  20.4535  20.5817  20.5817
    20.6664  20.6664  20.6896  20.6896

          k =-0.5000 0.2341 0.0000 ( 27132 PWs)   bands (ev):

   -73.2484 -73.2483 -72.7813 -72.7805 -72.5923 -72.5919 -72.5249 -72.5245
   -44.6433 -44.6432 -44.6056 -44.6055 -44.5703 -44.5702 -44.4015 -44.4007
   -44.2414 -44.2409 -44.1011 -44.0964 -44.0648 -44.0590 -43.9298 -43.9294
   -43.9098 -43.9085 -43.8750 -43.8745 -43.8183 -43.8178 -43.6960 -43.6957
   -21.1077 -21.1070 -20.6331 -20.6327 -20.3025 -20.3018 -20.2080 -20.2075
   -19.8036 -19.8035 -19.6852 -19.6804 -19.5529 -19.5483 -19.4875 -19.4873
   -19.1654 -19.1653  -8.7674  -8.7601  -7.8803  -7.8774  -7.8434  -7.8112
    -7.6811  -7.6584  -7.5267  -7.5125  -7.3226  -7.3180  -7.1760  -7.1587
    -7.0574  -7.0330  -6.7947  -6.7741  -6.4434  -6.4367  -6.3549  -6.2814
    -6.1448  -6.0789  -5.9115  -5.8895  -5.8017  -5.7584  -5.6563  -5.6539
    -5.2984  -5.2806  -5.1158  -5.1136  -5.0028  -4.9529  -4.9024  -4.8972
    -4.7667  -4.7452  -4.5532  -4.5486  -4.2524  -4.2118  -3.9696  -3.9196
    -3.8383  -3.8344  -3.4464  -3.4203  -3.2640  -3.2373  -3.0145  -2.9268
[...]
    18.9848  18.9954  19.1126  19.3193  19.3330  19.3711  19.4176  19.5327
    19.5715  19.6281  19.6691  19.6770  19.8157  19.8180  19.8647  19.8828
    19.9757  20.0075  20.0579  20.0694  20.2270  20.4203  20.4601  20.5344
    20.6678  20.7137  20.7532  20.7711

          k =-0.5000 0.0000 0.0000 ( 27158 PWs)   bands (ev):

   -73.2391 -73.2390 -72.7731 -72.7729 -72.5824 -72.5824 -72.5109 -72.5109
   -44.6322 -44.6322 -44.5985 -44.5984 -44.5617 -44.5617 -44.3945 -44.3941
   -44.2316 -44.2316 -44.0952 -44.0950 -44.0422 -44.0421 -43.9173 -43.9173
   -43.9013 -43.9011 -43.8650 -43.8650 -43.8081 -43.8081 -43.6789 -43.6788
   -21.1103 -21.1101 -20.6692 -20.6691 -20.3375 -20.3375 -20.1901 -20.1899
   -19.6517 -19.6515 -19.6176 -19.6176 -19.5618 -19.5618 -19.4808 -19.4807
   -19.1659 -19.1657  -8.7635  -8.7634  -8.1692  -8.1692  -8.0540  -8.0539
    -7.6866  -7.6864  -7.5504  -7.5503  -7.4056  -7.4055  -7.2140  -7.2139
    -7.0329  -7.0328  -6.8422  -6.8421  -6.4311  -6.4310  -6.3016  -6.3015
    -5.9404  -5.9404  -5.8317  -5.8316  -5.5760  -5.5760  -5.3986  -5.3986
    -5.2061  -5.2061  -4.9499  -4.9498  -4.7325  -4.7325  -4.6963  -4.6962
    -4.5857  -4.5856  -4.5404  -4.5403  -4.2604  -4.2602  -4.1072  -4.1072
    -3.9639  -3.9639  -3.3831  -3.3830  -3.1917  -3.1915  -3.0697  -3.0696
    -0.5235  -0.5235  -0.1961  -0.1961  -0.1110  -0.1109  -0.0491  -0.0490
     0.0932   0.0932   0.1793   0.1794   0.1885   0.1885   0.3297   0.3297
     0.5006   0.5006   0.5918   0.5919   0.6886   0.6887   0.9885   0.9885
     1.2840   1.2840   2.0905   2.0906   2.2000   2.2000   2.5208   2.5209
     2.5740   2.5740   2.7737   2.7739   2.9310   2.9310   3.4359   3.4360
     4.3808   4.3809   4.5047   4.5047   4.8637   4.8637   5.3185   5.3185
     5.8876   5.8876   6.5466   6.5466   7.1137   7.1137   7.6036   7.6036
     8.1795   8.1796   8.2152   8.2152   8.2896   8.2897   8.4809   8.4810
     8.6607   8.6607   8.6950   8.6950   8.8721   8.8721   9.1579   9.1579
     9.2874   9.2874   9.5120   9.5121   9.8108   9.8108  10.1166  10.1167
    10.2095  10.2095  10.4393  10.4393  10.6120  10.6120  10.9152  10.9153
    11.0979  11.0979  11.3096  11.3096  11.5492  11.5492  11.7462  11.7462
    11.9274  11.9274  11.9888  11.9889  12.3306  12.3307  12.5730  12.5731
    12.7390  12.7390  12.8664  12.8664  13.0516  13.0516  13.2549  13.2549
    13.3582  13.3583  13.5948  13.5948  13.7121  13.7121  13.7446  13.7447
    14.1273  14.1274  14.2173  14.2174  14.3239  14.3239  14.4196  14.4197
    14.7990  14.7991  14.8786  14.8786  15.0321  15.0322  15.1424  15.1424
    15.2338  15.2338  15.3038  15.3038  15.4338  15.4339  15.7416  15.7416
    15.8606  15.8608  16.1461  16.1461  16.1859  16.1860  16.4900  16.4901
    16.6703  16.6703  16.8174  16.8175  17.0063  17.0064  17.2275  17.2275
    17.3243  17.3244  17.4410  17.4410  17.5244  17.5244  17.5447  17.5447
    17.5903  17.5903  17.6394  17.6394  17.7758  17.7759  17.9477  17.9477
    18.0157  18.0157  18.0974  18.0974  18.2292  18.2292  18.5355  18.5355
    18.6177  18.6177  18.7630  18.7630  19.0694  19.0694  19.1256  19.1256
    19.2059  19.2060  19.2393  19.2393  19.4310  19.4310  19.6267  19.6267
    19.7255  19.7255  19.9708  19.9708  20.0781  20.0781  20.2818  20.2818
    20.3039  20.3040  20.4163  20.4163  20.4507  20.4507  20.5778  20.5778
    20.6641  20.6641  20.6890  20.6890

          k =-0.5000 0.2341 0.0000 ( 27132 PWs)   bands (ev):

   -73.2391 -73.2390 -72.7731 -72.7729 -72.5824 -72.5824 -72.5109 -72.5109
   -44.6321 -44.6320 -44.5985 -44.5984 -44.5618 -44.5617 -44.3945 -44.3941
   -44.2316 -44.2316 -44.0904 -44.0858 -44.0531 -44.0473 -43.9173 -43.9173
   -43.9008 -43.8996 -43.8654 -43.8654 -43.8079 -43.8079 -43.6788 -43.6788
   -21.0821 -21.0814 -20.6174 -20.6170 -20.2907 -20.2900 -20.1938 -20.1932
   -19.7948 -19.7947 -19.6701 -19.6653 -19.5398 -19.5353 -19.4821 -19.4819
   -19.1597 -19.1595  -8.7420  -8.7347  -7.8692  -7.8665  -7.8304  -7.7975
    -7.6693  -7.6461  -7.5134  -7.4995  -7.3131  -7.3088  -7.1653  -7.1483
    -7.0488  -7.0254  -6.7818  -6.7618  -6.4373  -6.4305  -6.3422  -6.2692
    -6.1326  -6.0676  -5.9025  -5.8800  -5.7917  -5.7485  -5.6405  -5.6378
    -5.2867  -5.2692  -5.1057  -5.1034  -4.9919  -4.9423  -4.8913  -4.8861
    -4.7534  -4.7321  -4.5417  -4.5369  -4.2405  -4.1987  -3.9610  -3.9107
    -3.8309  -3.8265  -3.4324  -3.4052  -3.2552  -3.2273  -3.0034  -2.9136
    -0.6049  -0.5973  -0.2316  -0.2195  -0.1350  -0.1311  -0.0639  -0.0616
     0.1699   0.1769   0.2554   0.2558   0.3336   0.3344   0.3978   0.3983
     0.4445   0.4451   0.6119   0.6136   0.8139   0.8177   0.9452   0.9540
     1.4059   1.4062   2.0614   2.0615   2.1449   2.1463   2.2889   2.2926
     2.3457   2.3459   2.7519   2.7582   3.2124   3.2130   3.5293   3.5334
     4.6010   4.6047   4.7040   4.7041   5.0874   5.0883   5.5270   5.5272
     6.0306   6.0401   6.3893   6.4099   6.6814   6.6878   6.9534   6.9588
     7.1203   7.1321   7.4851   7.5059   7.6816   7.7108   8.1647   8.1969
     8.4934   8.5219   8.7368   8.7386   9.0407   9.0701   9.3521   9.3589
     9.7007   9.7269   9.9015   9.9470  10.3533  10.3626  10.4714  10.4733
    10.6055  10.6080  10.8587  10.8599  11.0023  11.0124  11.2157  11.2173
    11.4423  11.4661  11.5787  11.5843  11.7571  11.7708  11.9591  11.9745
    12.2404  12.2409  12.4302  12.4325  12.6340  12.6374  12.7981  12.8323
    12.9190  12.9191  13.0476  13.0931  13.2041  13.2164  13.4312  13.4416
    13.4948  13.5635  13.7065  13.7562  13.8803  13.8954  13.9942  14.0065
    14.1442  14.1781  14.3463  14.3513  14.4311  14.4563  14.5418  14.5634
    14.6279  14.6400  14.8190  14.8427  14.9653  14.9817  15.0401  15.0448
    15.3345  15.3560  15.4735  15.4924  15.6422  15.6705  15.7809  15.7863
    15.8382  15.8386  15.9135  15.9315  16.0081  16.0198  16.0884  16.0899
    16.1857  16.2073  16.3514  16.3518  16.5335  16.5523  16.5903  16.5940
    16.6754  16.6798  16.7758  16.8141  16.8488  16.8508  16.9665  16.9959
    17.2042  17.2265  17.2809  17.3101  17.3787  17.4101  17.5251  17.5312
    17.6790  17.6798  17.8318  17.8430  17.8644  17.9357  18.0006  18.0252
    18.2623  18.2657  18.4367  18.4478  18.4916  18.4979  18.6422  18.6533
    18.9261  18.9401  19.0553  19.0670  19.2430  19.2767  19.5064  19.5109
    19.6167  19.6169  19.6799  19.6889  19.8329  19.8357  19.9002  19.9111
    19.9857  20.0030  20.1252  20.1334  20.1693  20.1791  20.3837  20.3974
    20.4514  20.4713  20.6754  20.6941

          k =-0.5000-0.4682 0.0000 ( 27168 PWs)   bands (ev):

   -73.2391 -73.2390 -72.7731 -72.7729 -72.5824 -72.5824 -72.5109 -72.5109
   -44.6319 -44.6318 -44.5985 -44.5985 -44.5618 -44.5617 -44.3945 -44.3941
   -44.2316 -44.2316 -44.0758 -44.0755 -44.0638 -44.0637 -43.9173 -43.9173
   -43.8993 -43.8991 -43.8657 -43.8657 -43.8077 -43.8077 -43.6787 -43.6787
   -21.0527 -21.0526 -20.5481 -20.5479 -20.2880 -20.2879 -20.0805 -20.0804
   -20.0064 -20.0063 -19.6955 -19.6955 -19.5827 -19.5826 -19.4556 -19.4556
   -19.1551 -19.1549  -8.7133  -8.7132  -7.7479  -7.7477  -7.6599  -7.6598
    -7.3040  -7.3040  -7.2710  -7.2710  -7.1319  -7.1318  -7.0079  -7.0079
    -6.9024  -6.9023  -6.7553  -6.7553  -6.6104  -6.6104  -6.5199  -6.5197
    -6.2879  -6.2879  -6.1499  -6.1499  -5.8963  -5.8963  -5.7831  -5.7831
    -5.5089  -5.5088  -5.3724  -5.3723  -5.1190  -5.1190  -4.9970  -4.9969
    -4.8618  -4.8618  -4.5308  -4.5307  -4.1364  -4.1363  -3.7138  -3.7137
    -3.6653  -3.6652  -3.4622  -3.4622  -3.3751  -3.3751  -2.8450  -2.8450
    -0.6633  -0.6632  -0.4010  -0.4009  -0.1119  -0.1118  -0.0436  -0.0436
     0.2284   0.2284   0.3039   0.3039   0.3850   0.3851   0.4799   0.4800
     0.5638   0.5639   0.7437   0.7437   0.9367   0.9367   0.9913   0.9913
     1.4909   1.4909   1.7463   1.7464   1.8889   1.8890   2.1791   2.1791
     2.3208   2.3209   2.8910   2.8912   3.4589   3.4589   3.4926   3.4926
     5.0473   5.0473   5.0845   5.0845   5.5070   5.5070   5.6409   5.6409
     5.7794   5.7794   5.9604   5.9604   6.2127   6.2127   6.4769   6.4769
     6.7985   6.7985   7.1425   7.1425   7.5373   7.5373   7.9572   7.9572
     8.2527   8.2527   8.7053   8.7054   9.0969   9.0970   9.2695   9.2695
     9.5067   9.5068   9.8314   9.8314  10.1011  10.1012  10.7730  10.7731
    10.9656  10.9656  11.1790  11.1791  11.3121  11.3121  11.7875  11.7875
    12.2066  12.2066  12.4541  12.4541  12.6083  12.6083  12.8303  12.8303
    12.8656  12.8656  12.9937  12.9937  13.1277  13.1278  13.2404  13.2404
    13.5088  13.5088  13.5642  13.5642  13.5959  13.5959  13.6115  13.6116
    13.7141  13.7142  13.8223  13.8224  13.9371  13.9371  14.0254  14.0255
    14.1124  14.1124  14.2861  14.2861  14.4578  14.4578  14.5825  14.5826
    14.6260  14.6261  14.7080  14.7080  14.7241  14.7242  14.7791  14.7791
    14.9003  14.9003  15.0588  15.0589  15.1873  15.1873  15.2333  15.2333
    15.3290  15.3290  15.3998  15.3999  15.5712  15.5712  15.5829  15.5829
    15.7237  15.7237  15.9128  15.9129  15.9446  15.9446  16.1036  16.1036
    16.2307  16.2307  16.3881  16.3882  16.6413  16.6413  16.7507  16.7507
    16.8384  16.8384  17.0025  17.0025  17.0507  17.0507  17.1390  17.1391
    17.2531  17.2531  17.5645  17.5646  17.7595  17.7595  17.8698  17.8698
    17.9568  17.9569  18.0336  18.0336  18.1837  18.1837  18.3686  18.3686
    18.7215  18.7215  18.7579  18.7579  19.0236  19.0236  19.0579  19.0579
    19.1218  19.1219  19.4041  19.4042  19.7223  19.7223  20.0763  20.0763
    20.1312  20.1312  20.2760  20.2760  20.3296  20.3297  20.7607  20.7607
    20.9193  20.9193  21.2520  21.2521

          k =-0.2500 0.2341 0.0000 ( 27132 PWs)   bands (ev):

   -73.2450 -73.2331 -72.7786 -72.7674 -72.5880 -72.5768 -72.5164 -72.5055
   -44.6694 -44.6375 -44.6265 -44.5792 -44.5520 -44.5191 -44.3992 -44.3895
   -44.2375 -44.2257 -44.1014 -44.0791 -44.0522 -44.0475 -43.9631 -43.9291
   -43.9067 -43.8780 -43.8750 -43.8526 -43.8331 -43.7455 -43.7388 -43.6113
   -21.3360 -20.8722 -20.7942 -20.4668 -20.4551 -20.4038 -20.0744 -19.9426
   -19.9144 -19.7525 -19.7280 -19.6796 -19.5061 -19.4851 -19.4847 -19.4130
   -19.2077 -19.0838  -8.9500  -8.6507  -8.1744  -8.1660  -8.0532  -7.7608
    -7.6317  -7.5738  -7.5642  -7.4575  -7.4126  -7.3181  -7.1465  -7.0671
    -6.9633  -6.8607  -6.8031  -6.6743  -6.6285  -6.5592  -6.4609  -6.3011
    -6.2977  -6.0045  -5.9046  -5.8958  -5.5851  -5.4931  -5.3971  -5.3696
    -5.3160  -5.2595  -5.1781  -5.0995  -5.0021  -4.9807  -4.8551  -4.6570
    -4.5764  -4.5459  -4.4351  -4.3158  -4.2130  -4.1631  -4.0048  -3.9612
    -3.8854  -3.7215  -3.6448  -3.5016  -3.3579  -3.1060  -3.0947  -2.7749
    -0.6234  -0.5102  -0.3492  -0.3440  -0.2469  -0.1713  -0.1295  -0.0250
    -0.0051   0.0640   0.1222   0.2431   0.3064   0.3285   0.4326   0.4679
     0.5027   0.5822   0.6136   0.7045   0.7896   0.8893   0.9817   1.0439
     1.2261   1.3897   1.7127   1.8979   1.9833   2.2646   2.3855   2.4351
     2.5576   2.7835   2.8536   3.0145   3.0564   3.3636   3.4855   3.5505
     3.8248   3.9305   4.2638   4.7288   5.2525   5.6686   5.7789   5.8862
     5.9662   6.1242   6.3199   6.4335   6.6660   6.8034   6.8408   7.1890
     7.3676   7.5473   7.7182   7.9599   7.9940   8.2240   8.2724   8.4075
     8.5991   8.7034   8.9279   8.9921   9.2193   9.2529   9.2807   9.4263
     9.5328   9.6927   9.7821   9.8492  10.0293  10.0797  10.2658  10.2682
    10.4151  10.4743  10.6160  10.7206  10.7615  10.9508  11.0409  11.0914
    11.1613  11.3442  11.5014  11.5462  11.5853  11.6232  11.7971  11.8350
    11.8851  12.0209  12.0738  12.1618  12.2754  12.3126  12.4088  12.5791
    12.6641  12.6987  12.8118  12.9052  12.9238  12.9989  13.0730  13.1021
    13.1076  13.1916  13.2482  13.3233  13.5554  13.6446  13.7140  13.8047
    13.8551  13.9075  13.9811  14.0129  14.1182  14.2647  14.3593  14.4486
    14.5343  14.5635  14.6289  14.7031  14.7927  14.8662  14.9069  15.0542
    15.1811  15.2761  15.3880  15.4507  15.5015  15.5055  15.5950  15.6251
    15.7805  15.8130  15.9147  15.9170  16.0313  16.0889  16.1667  16.1713
    16.2504  16.2920  16.3965  16.5576  16.6206  16.6629  16.8105  16.8316
    16.8844  16.9516  17.0030  17.1115  17.1946  17.2242  17.3843  17.3911
    17.4396  17.4562  17.5409  17.6208  17.6345  17.7254  17.7558  17.8522
    17.9141  18.0059  18.0516  18.1452  18.2195  18.2859  18.3529  18.3658
    18.4314  18.6248  18.6296  18.7535  18.7885  18.8647  18.9256  19.0700
    19.1031  19.1678  19.2725  19.3458  19.3763  19.4143  19.4887  19.5658
    19.6204  19.6527  19.7351  19.7832  19.8258  19.9451  20.1089  20.1234
    20.2623  20.3366  20.4007  20.4680  20.5158  20.6554  20.7097  20.8226
    20.8514  20.9084  21.1050  21.1060

     the Fermi energy is    -1.4090 ev

!    total energy              =   -1993.71455270 Ry
     Harris-Foulkes estimate   =   -1993.71455274 Ry
     estimated scf accuracy    <          8.3E-09 Ry

     The total energy is the sum of the following terms:

     one-electron contribution =  -23569.17162709 Ry
     hartree contribution      =   11801.28299699 Ry
     xc contribution           =    -314.92149847 Ry
     ewald contribution        =   10089.09476643 Ry
     smearing contrib. (-TS)   =       0.00080943 Ry

     total magnetization       =    16.00 Bohr mag/cell
     absolute magnetization    =    18.32 Bohr mag/cell

     convergence has been achieved in  14 iterations

     Forces acting on atoms (Ry/au):


     negative rho (up, down):  0.484E-02 0.180E-02
     atom    1 type  1   force =    -0.00348377   -0.01479447   -0.00031067
     atom    2 type  1   force =    -0.00007772    0.01367800    0.00030274
     atom    3 type  2   force =    -0.00014549   -0.00573296   -0.00013470
     atom    4 type  2   force =     0.00074301    0.00802072   -0.00027925
     atom    5 type  1   force =     0.00344958    0.00631979    0.00015544
     atom    6 type  1   force =    -0.00075260   -0.00585130    0.00014109
     atom    7 type  1   force =    -0.00009352   -0.00065447   -0.00059480
     atom    8 type  1   force =     0.00070512   -0.00067628    0.00033301
     atom    9 type  2   force =     0.00044604   -0.00018364   -0.00015735
     atom   10 type  2   force =     0.00003163   -0.00051649   -0.00032327
     atom   11 type  1   force =    -0.00005453   -0.05985910    0.00032290
     atom   12 type  1   force =     0.00014193    0.06031357    0.00033379
     atom   13 type  1   force =    -0.00063468    0.00014445    0.00043570
     atom   14 type  1   force =    -0.00347333   -0.01479453   -0.00026737
     atom   15 type  1   force =    -0.00007349    0.01368393    0.00030908
     atom   16 type  2   force =    -0.00016744   -0.00573358   -0.00013986
     atom   17 type  2   force =     0.00074514    0.00802156   -0.00028016
     atom   18 type  1   force =     0.00343019    0.00631954    0.00015641
     atom   19 type  1   force =    -0.00077263   -0.00584954    0.00014185
     atom   20 type  1   force =    -0.00009101   -0.00065379   -0.00062690
     atom   21 type  1   force =     0.00070579   -0.00067632    0.00027977
     atom   22 type  2   force =     0.00040753   -0.00018363   -0.00015776
     atom   23 type  2   force =     0.00003154   -0.00051677   -0.00033909
     atom   24 type  1   force =    -0.00004807   -0.05985816    0.00032427
     atom   25 type  1   force =     0.00014847    0.06031242    0.00033508
     atom   26 type  1   force =    -0.00063337    0.00014431    0.00043903
     atom   27 type  3   force =     0.00009987   -0.00055906   -0.00009943
     atom   28 type  3   force =     0.00010035   -0.00056317   -0.00009753
     atom   29 type  3   force =    -0.00033794    0.00035055   -0.00010064
     atom   30 type  3   force =    -0.00034660    0.00034844   -0.00010138

     Total force =     0.001956     Total SCF correction =     0.000153

     bfgs converged in   5 scf cycles and   4 bfgs steps
     (criteria: energy < 0.10E-03, force < 0.10E-02)

     End of BFGS Geometry Optimization

     Final energy   =   -1993.7145526986 Ry
Begin final coordinates

ATOMIC_POSITIONS (crystal)
O0       0.000000000   0.000000000   0.380443226    0   0   1
O0       0.000000000   0.500000000   0.398748148    0   0   1
Cr1      0.250000000   0.500000000   0.449488735    0   0   1
Cr1      0.000000000   0.000000000   0.451997225    0   0   1
O0       0.250000000   0.800000000   0.451021832    0   0   1
O0       0.250000000   0.200000000   0.451216530    0   0   1
O0       0.000000000   0.500000000   0.497560088    0   0   1
O0       0.000000000   0.000000000   0.524791060    0   0   1
Cr1      0.250000000   0.000000000   0.577461289    0   0   1
Cr1      0.000000000   0.500000000   0.565408023    0   0   1
O0       0.250000000   0.700000000   0.575335805    0   0   1
O0       0.250000000   0.300000000   0.575319313    0   0   1
O0       0.000000000   0.000000000   0.618010198    0   0   1
O0       0.500000000   0.000000000   0.380439480    0   0   1
O0       0.500000000   0.500000000   0.398747876    0   0   1
Cr1      0.750000000   0.500000000   0.449489201    0   0   1
Cr1      0.500000000   0.000000000   0.451995396    0   0   1
O0       0.750000000   0.800000000   0.451021740    0   0   1
O0       0.750000000   0.200000000   0.451216490    0   0   1
O0       0.500000000   0.500000000   0.497562789    0   0   1
O0       0.500000000   0.000000000   0.524794479    0   0   1
Cr1      0.750000000   0.000000000   0.577460896    0   0   1
Cr1      0.500000000   0.500000000   0.565410237    0   0   1
O0       0.750000000   0.700000000   0.575335386    0   0   1
O0       0.750000000   0.300000000   0.575318894    0   0   1
O0       0.500000000   0.000000000   0.618010803    0   0   1
H2      -0.000687097   0.641524181   0.380781071
H2       0.499313400   0.641524908   0.380780821
H2       0.157343223   0.029635661   0.367436845
H2       0.657349012   0.029636723   0.367436122
End final coordinates



     init_run     :     82.80s CPU    110.63s WALL (       1 calls)
     electrons    :  19342.98s CPU  25760.33s WALL (       5 calls)
     update_pot   :     22.69s CPU     27.12s WALL (       4 calls)
     forces       :    239.74s CPU    250.85s WALL (       5 calls)

     Called by init_run:
     wfcinit      :     65.30s CPU     91.43s WALL (       1 calls)
     potinit      :      2.80s CPU      3.61s WALL (       1 calls)

     Called by electrons:
     c_bands      :  15226.13s CPU  20301.60s WALL (      81 calls)
     sum_band     :   2999.87s CPU   4158.48s WALL (      81 calls)
     v_of_rho     :     82.17s CPU    132.75s WALL (      84 calls)
     newd         :   1057.59s CPU   1113.71s WALL (      84 calls)
     mix_rho      :     15.01s CPU     25.97s WALL (      81 calls)

     Called by c_bands:
     init_us_2    :     21.71s CPU     21.96s WALL (    3360 calls)
     cegterg      :  15136.27s CPU  20211.06s WALL (    1620 calls)

     Called by *egterg:
     h_psi        :   8166.32s CPU  12633.88s WALL (    4321 calls)
     s_psi        :    580.02s CPU    580.41s WALL (    4321 calls)
     g_psi        :     12.88s CPU     12.89s WALL (    2681 calls)
     cdiaghg      :   3405.69s CPU   3538.96s WALL (    4181 calls)

     Called by h_psi:
     add_vuspsi   :    585.72s CPU    589.51s WALL (    4321 calls)

     General routines
     calbec       :    937.01s CPU   1039.80s WALL (    6041 calls)
     fft          :    150.06s CPU    279.28s WALL (    2665 calls)
     ffts         :      2.24s CPU      4.36s WALL (     330 calls)
     fftw         :   7398.51s CPU  12835.41s WALL ( 2746964 calls)
     interpolate  :     17.23s CPU     31.63s WALL (     330 calls)

     Parallel routines
     fft_scatter  :   5508.53s CPU  11032.09s WALL ( 2749959 calls)

     PWSCF        :     5h29m CPU        7h16m WALL


   This run was terminated on:   3:54:43  28Feb2014            

=------------------------------------------------------------------------------=
   JOB DONE.
=------------------------------------------------------------------------------=
