
     Program PWSCF v.5.0.2 (svn rev. 9656) starts on  5May2014 at  1:41:34 

     This program is part of the open-source Quantum ESPRESSO suite
     for quantum simulation of materials; please cite
         "P. Giannozzi et al., J. Phys.:Condens. Matter 21 395502 (2009);
          URL http://www.quantum-espresso.org", 
     in publications or presentations arising from this work. More details at
     http://www.quantum-espresso.org/quote.php

     Parallel version (MPI), running on    16 processors
     K-points division:     npool     =       4
     R & G space division:  proc/nbgrp/npool/nimage =       4

     Current dimensions of program PWSCF are:
     Max number of different atomic species (ntypx) = 10
     Max number of k-points (npk) =  40000
     Max angular momentum in pseudopotentials (lmaxx) =  3
     Reading input from pwscf.in
Warning: card &CELL ignored
Warning: card / ignored

     Subspace diagonalization in iterative solution of the eigenvalue problem:
     a serial algorithm will be used


     Parallelization info
     --------------------
     sticks:   dense  smooth     PW     G-vecs:    dense   smooth      PW
     Min        1274     408    116               299662    54238    8133
     Max        1275     409    117               299663    54251    8135
     Sum        5097    1635    467              1198649   216969   32535



     bravais-lattice index     =            0
     lattice parameter (alat)  =      10.9604  a.u.
     unit-cell volume          =    6350.6732 (a.u.)^3
     number of atoms/cell      =           32
     number of atomic types    =            3
     number of electrons       =       231.00 (up: 123.00, down: 108.00)
     number of Kohn-Sham states=          334
     kinetic-energy cutoff     =      40.0000  Ry
     charge density cutoff     =     500.0000  Ry
     convergence threshold     =      1.0E-06
     mixing beta               =       0.7000
     number of iterations used =            8  plain     mixing
     Exchange-correlation      = SLA  PW   PBE  PBE ( 1 4 3 4 0)
     EXX-fraction              =        0.00
     nstep                     =           50


     celldm(1)=  10.960412  celldm(2)=   0.000000  celldm(3)=   0.000000
     celldm(4)=   0.000000  celldm(5)=   0.000000  celldm(6)=   0.000000

     crystal axes: (cart. coord. in units of alat)
               a(1) = (   1.000000   0.000000   0.000000 )  
               a(2) = (   0.000000   1.067975   0.000000 )  
               a(3) = (   0.000000   0.000000   4.516251 )  

     reciprocal axes: (cart. coord. in units 2 pi/alat)
               b(1) = (  1.000000  0.000000  0.000000 )  
               b(2) = (  0.000000  0.936351  0.000000 )  
               b(3) = (  0.000000  0.000000  0.221423 )  


     PseudoPot. # 1 for O  read from file:
     /home/camp/zhonxu/pseudo/o_pbe_v1.01.uspp.F.UPF
     MD5 check sum: 2bcb18d16ea4b960afae9ec6d52f22d2
     Pseudo is Ultrasoft + core correction, Zval =  6.0
     Generated by new atomic code, or converted to UPF format
     Using radial grid of  737 points,  5 beta functions with: 
                l(1) =   0
                l(2) =   0
                l(3) =   1
                l(4) =   1
                l(5) =   2
     Q(r) pseudized with  8 coefficients,  rinner =    0.900   0.900   0.900
                                                       0.900   0.900

     PseudoPot. # 2 for Cr read from file:
     /home/camp/zhonxu/pseudo/cr_pbe_v1.uspp.F.UPF
     MD5 check sum: 68b6f918d1762dccfb11451fe85b0e0e
     Pseudo is Ultrasoft + core correction, Zval = 14.0
     Generated by new atomic code, or converted to UPF format
     Using radial grid of  857 points,  6 beta functions with: 
                l(1) =   0
                l(2) =   0
                l(3) =   1
                l(4) =   1
                l(5) =   2
                l(6) =   2
     Q(r) pseudized with  6 coefficients,  rinner =    1.000   1.000   1.000
                                                       1.000   1.000

     PseudoPot. # 3 for H  read from file:
     /home/camp/zhonxu/pseudo/h_pbe_v1.uspp.F.UPF
     MD5 check sum: 3408e3ff4ec8b0a4e358431e7e038a48
     Pseudo is Ultrasoft, Zval =  1.0
     Generated by new atomic code, or converted to UPF format
     Using radial grid of  615 points,  2 beta functions with: 
                l(1) =   0
                l(2) =   0
     Q(r) pseudized with  8 coefficients,  rinner =    0.700

     atomic species   valence    mass     pseudopotential
        O0             6.00    15.99940     O ( 1.00)
        Cr1           14.00    51.99600     Cr( 1.00)
        H2             1.00     1.00794     H ( 1.00)

     Starting magnetic structure 
     atomic species   magnetization
        O0           0.000
        Cr1          0.600
        H2           0.000


     Simplified LDA+U calculation (l_max = 2) with parameters (eV):
     atomic species    L          U    alpha       J0     beta
        Cr1            2     5.0000   0.0000   0.0000   0.0000



     No symmetry found



   Cartesian axes

     site n.     atom                  positions (alat units)
         1           O0  tau(   1) = (   0.0000000   0.0000000   1.7072332  )
         2           O0  tau(   2) = (   0.0000000   0.5339875   1.8068165  )
         3           Cr1 tau(   3) = (   0.2500000   0.5339875   2.0386808  )
         4           Cr1 tau(   4) = (   0.0000000   0.0000000   2.0275709  )
         5           O0  tau(   5) = (   0.2500000   0.8543801   2.0319968  )
         6           O0  tau(   6) = (   0.2500000   0.2135950   2.0327194  )
         7           O0  tau(   7) = (   0.0000000   0.5339875   2.2464284  )
         8           O0  tau(   8) = (   0.0000000   0.0000000   2.3629476  )
         9           Cr1 tau(   9) = (   0.2500000   0.0000000   2.5576884  )
        10           Cr1 tau(  10) = (   0.0000000   0.5339875   2.5509140  )
        11           O0  tau(  11) = (   0.2500000   0.7475825   2.5906119  )
        12           O0  tau(  12) = (   0.2500000   0.3203925   2.5906119  )
        13           O0  tau(  13) = (   0.0000000   0.0000000   2.7911334  )
        14           O0  tau(  14) = (   0.5000000   0.0000000   1.7073235  )
        15           O0  tau(  15) = (   0.5000000   0.5339875   1.8079456  )
        16           Cr1 tau(  16) = (   0.7500000   0.5339875   2.0392228  )
        17           Cr1 tau(  17) = (   0.5000000   0.0000000   2.0278870  )
        18           O0  tau(  18) = (   0.7500000   0.8543801   2.0322226  )
        19           O0  tau(  19) = (   0.7500000   0.2135950   2.0329904  )
        20           O0  tau(  20) = (   0.5000000   0.5339875   2.2544673  )
        21           O0  tau(  21) = (   0.5000000   0.0000000   2.3630380  )
        22           Cr1 tau(  22) = (   0.7500000   0.0000000   2.6360002  )
        23           Cr1 tau(  23) = (   0.5000000   0.5339875   2.6018573  )
        24           O0  tau(  24) = (   0.7500000   0.7475825   2.5939087  )
        25           O0  tau(  25) = (   0.7500000   0.3203925   2.5936377  )
        26           O0  tau(  26) = (   0.5000000   0.0000000   2.7879720  )
        27           H2  tau(  27) = (  -0.0006000   0.6814001   1.7205110  )
        28           H2  tau(  28) = (   0.4996600   0.6814535   1.7215045  )
        29           H2  tau(  29) = (   0.1566500   0.0338121   1.6478896  )
        30           H2  tau(  30) = (   0.6567200   0.0335237   1.6481606  )
        31           O0  tau(  31) = (   0.5143900   0.5336458   2.9144271  )
        32           H2  tau(  32) = (   0.3645400   0.5319370   2.9931001  )

     number of k points=    20  Methfessel-Paxton smearing, width (Ry)=  0.0100
                       cart. coord. in units 2pi/alat
        k(    1) = (   0.0000000   0.0000000   0.0000000), wk =   0.0625000
        k(    2) = (   0.0000000   0.2340879   0.0000000), wk =   0.1250000
        k(    3) = (   0.0000000  -0.4681757   0.0000000), wk =   0.0625000
        k(    4) = (   0.2500000   0.0000000   0.0000000), wk =   0.1250000
        k(    5) = (   0.2500000   0.2340879   0.0000000), wk =   0.1250000
        k(    6) = (   0.2500000  -0.4681757   0.0000000), wk =   0.1250000
        k(    7) = (  -0.5000000   0.0000000   0.0000000), wk =   0.0625000
        k(    8) = (  -0.5000000   0.2340879   0.0000000), wk =   0.1250000
        k(    9) = (  -0.5000000  -0.4681757   0.0000000), wk =   0.0625000
        k(   10) = (  -0.2500000   0.2340879   0.0000000), wk =   0.1250000
        k(   11) = (   0.0000000   0.0000000   0.0000000), wk =   0.0625000
        k(   12) = (   0.0000000   0.2340879   0.0000000), wk =   0.1250000
        k(   13) = (   0.0000000  -0.4681757   0.0000000), wk =   0.0625000
        k(   14) = (   0.2500000   0.0000000   0.0000000), wk =   0.1250000
        k(   15) = (   0.2500000   0.2340879   0.0000000), wk =   0.1250000
        k(   16) = (   0.2500000  -0.4681757   0.0000000), wk =   0.1250000
        k(   17) = (  -0.5000000   0.0000000   0.0000000), wk =   0.0625000
        k(   18) = (  -0.5000000   0.2340879   0.0000000), wk =   0.1250000
        k(   19) = (  -0.5000000  -0.4681757   0.0000000), wk =   0.0625000
        k(   20) = (  -0.2500000   0.2340879   0.0000000), wk =   0.1250000

     Dense  grid:  1198649 G-vectors     FFT dimensions: (  80,  90, 360)

     Smooth grid:   216969 G-vectors     FFT dimensions: (  45,  48, 200)

     Largest allocated arrays     est. size (Mb)     dimensions
        Kohn-Sham Wavefunctions        35.08 Mb     (   6884,  334)
        Atomic wavefunctions           16.91 Mb     (   6884,  161)
        NL pseudopotentials            42.12 Mb     (   6884,  401)
        Each V/rho on FFT grid         19.78 Mb     ( 648000,   2)
        Each G-vector array             2.29 Mb     ( 299662)
        G-vector shells                 0.99 Mb     ( 129803)
     Largest temporary arrays     est. size (Mb)     dimensions
        Auxiliary wavefunctions       140.34 Mb     (   6884, 1336)
        Each subspace H/S matrix       27.24 Mb     (1336,1336)
        Each <psi_i|beta_j> matrix      2.04 Mb     (    401,  334)
        Arrays for rho mixing          79.10 Mb     ( 648000,   8)

     Check: negative/imaginary core charge=   -0.000012    0.000000

     Initial potential from superposition of free atoms
     Check: negative starting charge=(component1):   -0.001476
     Check: negative starting charge=(component2):   -0.000504

     starting charge  222.99983, renormalised to  231.00000

     negative rho (up, down):  0.153E-02 0.522E-03
     Number of +U iterations with fixed ns =  0
     Starting occupations:
 --- enter write_ns ---
 LDA+U parameters:
U( 2)     =  5.00000000
alpha( 2) =  0.00000000
atom    3   Tr[ns(na)] (up, down, total) =   5.00000  0.00000  5.00000
   spin  1
    eigenvalues: 
  1.000  1.000  1.000  1.000  1.000
    eigenvectors:
  1.000  0.000  0.000  0.000  0.000
  0.000  1.000  0.000  0.000  0.000
  0.000  0.000  1.000  0.000  0.000
  0.000  0.000  0.000  1.000  0.000
  0.000  0.000  0.000  0.000  1.000
    occupations:
  1.000  0.000  0.000  0.000  0.000
  0.000  1.000  0.000  0.000  0.000
  0.000  0.000  1.000  0.000  0.000
  0.000  0.000  0.000  1.000  0.000
  0.000  0.000  0.000  0.000  1.000
   spin  2
    eigenvalues: 
  0.000  0.000  0.000  0.000  0.000
    eigenvectors:
  1.000  0.000  0.000  0.000  0.000
  0.000  1.000  0.000  0.000  0.000
  0.000  0.000  1.000  0.000  0.000
  0.000  0.000  0.000  1.000  0.000
  0.000  0.000  0.000  0.000  1.000
    occupations:
  0.000  0.000  0.000  0.000  0.000
  0.000  0.000  0.000  0.000  0.000
  0.000  0.000  0.000  0.000  0.000
  0.000  0.000  0.000  0.000  0.000
  0.000  0.000  0.000  0.000  0.000
atomic mag. moment =     5.000000
atom    4   Tr[ns(na)] (up, down, total) =   5.00000  0.00000  5.00000
   spin  1
    eigenvalues: 
  1.000  1.000  1.000  1.000  1.000
    eigenvectors:
  1.000  0.000  0.000  0.000  0.000
  0.000  1.000  0.000  0.000  0.000
  0.000  0.000  1.000  0.000  0.000
  0.000  0.000  0.000  1.000  0.000
  0.000  0.000  0.000  0.000  1.000
    occupations:
  1.000  0.000  0.000  0.000  0.000
  0.000  1.000  0.000  0.000  0.000
  0.000  0.000  1.000  0.000  0.000
  0.000  0.000  0.000  1.000  0.000
  0.000  0.000  0.000  0.000  1.000
   spin  2
    eigenvalues: 
  0.000  0.000  0.000  0.000  0.000
    eigenvectors:
  1.000  0.000  0.000  0.000  0.000
  0.000  1.000  0.000  0.000  0.000
  0.000  0.000  1.000  0.000  0.000
  0.000  0.000  0.000  1.000  0.000
  0.000  0.000  0.000  0.000  1.000
    occupations:
  0.000  0.000  0.000  0.000  0.000
  0.000  0.000  0.000  0.000  0.000
  0.000  0.000  0.000  0.000  0.000
  0.000  0.000  0.000  0.000  0.000
  0.000  0.000  0.000  0.000  0.000
atomic mag. moment =     5.000000
atom    9   Tr[ns(na)] (up, down, total) =   5.00000  0.00000  5.00000
   spin  1
    eigenvalues: 
  1.000  1.000  1.000  1.000  1.000
    eigenvectors:
  1.000  0.000  0.000  0.000  0.000
  0.000  1.000  0.000  0.000  0.000
  0.000  0.000  1.000  0.000  0.000
  0.000  0.000  0.000  1.000  0.000
  0.000  0.000  0.000  0.000  1.000
    occupations:
  1.000  0.000  0.000  0.000  0.000
  0.000  1.000  0.000  0.000  0.000
  0.000  0.000  1.000  0.000  0.000
  0.000  0.000  0.000  1.000  0.000
  0.000  0.000  0.000  0.000  1.000
   spin  2
    eigenvalues: 
  0.000  0.000  0.000  0.000  0.000
    eigenvectors:
  1.000  0.000  0.000  0.000  0.000
  0.000  1.000  0.000  0.000  0.000
  0.000  0.000  1.000  0.000  0.000
  0.000  0.000  0.000  1.000  0.000
  0.000  0.000  0.000  0.000  1.000
    occupations:
  0.000  0.000  0.000  0.000  0.000
  0.000  0.000  0.000  0.000  0.000
  0.000  0.000  0.000  0.000  0.000
  0.000  0.000  0.000  0.000  0.000
  0.000  0.000  0.000  0.000  0.000
atomic mag. moment =     5.000000
atom   10   Tr[ns(na)] (up, down, total) =   5.00000  0.00000  5.00000
   spin  1
    eigenvalues: 
  1.000  1.000  1.000  1.000  1.000
    eigenvectors:
  1.000  0.000  0.000  0.000  0.000
  0.000  1.000  0.000  0.000  0.000
  0.000  0.000  1.000  0.000  0.000
  0.000  0.000  0.000  1.000  0.000
  0.000  0.000  0.000  0.000  1.000
    occupations:
  1.000  0.000  0.000  0.000  0.000
  0.000  1.000  0.000  0.000  0.000
  0.000  0.000  1.000  0.000  0.000
  0.000  0.000  0.000  1.000  0.000
  0.000  0.000  0.000  0.000  1.000
   spin  2
    eigenvalues: 
  0.000  0.000  0.000  0.000  0.000
    eigenvectors:
  1.000  0.000  0.000  0.000  0.000
  0.000  1.000  0.000  0.000  0.000
  0.000  0.000  1.000  0.000  0.000
  0.000  0.000  0.000  1.000  0.000
  0.000  0.000  0.000  0.000  1.000
    occupations:
  0.000  0.000  0.000  0.000  0.000
  0.000  0.000  0.000  0.000  0.000
  0.000  0.000  0.000  0.000  0.000
  0.000  0.000  0.000  0.000  0.000
  0.000  0.000  0.000  0.000  0.000
atomic mag. moment =     5.000000
atom   16   Tr[ns(na)] (up, down, total) =   5.00000  0.00000  5.00000
   spin  1
    eigenvalues: 
  1.000  1.000  1.000  1.000  1.000
    eigenvectors:
  1.000  0.000  0.000  0.000  0.000
  0.000  1.000  0.000  0.000  0.000
  0.000  0.000  1.000  0.000  0.000
  0.000  0.000  0.000  1.000  0.000
  0.000  0.000  0.000  0.000  1.000
    occupations:
  1.000  0.000  0.000  0.000  0.000
  0.000  1.000  0.000  0.000  0.000
  0.000  0.000  1.000  0.000  0.000
  0.000  0.000  0.000  1.000  0.000
  0.000  0.000  0.000  0.000  1.000
   spin  2
    eigenvalues: 
  0.000  0.000  0.000  0.000  0.000
    eigenvectors:
  1.000  0.000  0.000  0.000  0.000
  0.000  1.000  0.000  0.000  0.000
  0.000  0.000  1.000  0.000  0.000
  0.000  0.000  0.000  1.000  0.000
  0.000  0.000  0.000  0.000  1.000
    occupations:
  0.000  0.000  0.000  0.000  0.000
  0.000  0.000  0.000  0.000  0.000
  0.000  0.000  0.000  0.000  0.000
  0.000  0.000  0.000  0.000  0.000
  0.000  0.000  0.000  0.000  0.000
atomic mag. moment =     5.000000
atom   17   Tr[ns(na)] (up, down, total) =   5.00000  0.00000  5.00000
   spin  1
    eigenvalues: 
  1.000  1.000  1.000  1.000  1.000
    eigenvectors:
  1.000  0.000  0.000  0.000  0.000
  0.000  1.000  0.000  0.000  0.000
  0.000  0.000  1.000  0.000  0.000
  0.000  0.000  0.000  1.000  0.000
  0.000  0.000  0.000  0.000  1.000
    occupations:
  1.000  0.000  0.000  0.000  0.000
  0.000  1.000  0.000  0.000  0.000
  0.000  0.000  1.000  0.000  0.000
  0.000  0.000  0.000  1.000  0.000
  0.000  0.000  0.000  0.000  1.000
   spin  2
    eigenvalues: 
  0.000  0.000  0.000  0.000  0.000
    eigenvectors:
  1.000  0.000  0.000  0.000  0.000
  0.000  1.000  0.000  0.000  0.000
  0.000  0.000  1.000  0.000  0.000
  0.000  0.000  0.000  1.000  0.000
  0.000  0.000  0.000  0.000  1.000
    occupations:
  0.000  0.000  0.000  0.000  0.000
  0.000  0.000  0.000  0.000  0.000
  0.000  0.000  0.000  0.000  0.000
  0.000  0.000  0.000  0.000  0.000
  0.000  0.000  0.000  0.000  0.000
atomic mag. moment =     5.000000
atom   22   Tr[ns(na)] (up, down, total) =   5.00000  0.00000  5.00000
   spin  1
    eigenvalues: 
  1.000  1.000  1.000  1.000  1.000
    eigenvectors:
  1.000  0.000  0.000  0.000  0.000
  0.000  1.000  0.000  0.000  0.000
  0.000  0.000  1.000  0.000  0.000
  0.000  0.000  0.000  1.000  0.000
  0.000  0.000  0.000  0.000  1.000
    occupations:
  1.000  0.000  0.000  0.000  0.000
  0.000  1.000  0.000  0.000  0.000
  0.000  0.000  1.000  0.000  0.000
  0.000  0.000  0.000  1.000  0.000
  0.000  0.000  0.000  0.000  1.000
   spin  2
    eigenvalues: 
  0.000  0.000  0.000  0.000  0.000
    eigenvectors:
  1.000  0.000  0.000  0.000  0.000
  0.000  1.000  0.000  0.000  0.000
  0.000  0.000  1.000  0.000  0.000
  0.000  0.000  0.000  1.000  0.000
  0.000  0.000  0.000  0.000  1.000
    occupations:
  0.000  0.000  0.000  0.000  0.000
  0.000  0.000  0.000  0.000  0.000
  0.000  0.000  0.000  0.000  0.000
  0.000  0.000  0.000  0.000  0.000
  0.000  0.000  0.000  0.000  0.000
atomic mag. moment =     5.000000
atom   23   Tr[ns(na)] (up, down, total) =   5.00000  0.00000  5.00000
   spin  1
    eigenvalues: 
  1.000  1.000  1.000  1.000  1.000
    eigenvectors:
  1.000  0.000  0.000  0.000  0.000
  0.000  1.000  0.000  0.000  0.000
  0.000  0.000  1.000  0.000  0.000
  0.000  0.000  0.000  1.000  0.000
  0.000  0.000  0.000  0.000  1.000
    occupations:
  1.000  0.000  0.000  0.000  0.000
  0.000  1.000  0.000  0.000  0.000
  0.000  0.000  1.000  0.000  0.000
  0.000  0.000  0.000  1.000  0.000
  0.000  0.000  0.000  0.000  1.000
   spin  2
    eigenvalues: 
  0.000  0.000  0.000  0.000  0.000
    eigenvectors:
  1.000  0.000  0.000  0.000  0.000
  0.000  1.000  0.000  0.000  0.000
  0.000  0.000  1.000  0.000  0.000
  0.000  0.000  0.000  1.000  0.000
  0.000  0.000  0.000  0.000  1.000
    occupations:
  0.000  0.000  0.000  0.000  0.000
  0.000  0.000  0.000  0.000  0.000
  0.000  0.000  0.000  0.000  0.000
  0.000  0.000  0.000  0.000  0.000
  0.000  0.000  0.000  0.000  0.000
atomic mag. moment =     5.000000
N of occupied +U levels =  40.0000000
 --- exit write_ns ---
 Atomic wfc used for LDA+U Projector are NOT orthogonalized
     Starting wfc are  161 randomized atomic wfcs

     total cpu time spent up to now is      121.7 secs

     per-process dynamical memory:   420.3 Mb

     Self-consistent Calculation

     iteration #  1     ecut=    40.00 Ry     beta=0.70
     Davidson diagonalization with overlap
     ethr =  1.00E-02,  avg # of iterations =  5.4
 --- enter write_ns ---
 LDA+U parameters:
U( 2)     =  5.00000000
alpha( 2) =  0.00000000
atom    3   Tr[ns(na)] (up, down, total) =   3.79910  0.54844  4.34754
   spin  1
    eigenvalues: 
  0.621  0.634  0.773  0.879  0.893
    eigenvectors:
  0.310  0.002  0.005  0.041  0.642
  0.001  0.971  0.000  0.023  0.005
  0.011  0.000  0.962  0.008  0.019
  0.677  0.000  0.030  0.015  0.277
  0.000  0.027  0.003  0.914  0.057
    occupations:
  0.807  0.008  0.024 -0.123  0.002
  0.008  0.641 -0.002 -0.006  0.040
  0.024 -0.002  0.774  0.003 -0.005
 -0.123 -0.006  0.003  0.705 -0.002
  0.002  0.040 -0.005 -0.002  0.873
   spin  2
    eigenvalues: 
  0.054  0.061  0.062  0.175  0.196
    eigenvectors:
  0.658  0.156  0.000  0.001  0.185
  0.000  0.000  0.001  0.998  0.001
  0.188  0.811  0.000  0.000  0.000
  0.154  0.032  0.000  0.001  0.813
  0.000  0.000  0.999  0.001  0.000
    occupations:
  0.081 -0.001 -0.002  0.055 -0.000
 -0.001  0.175 -0.000  0.001  0.003
 -0.002 -0.000  0.060  0.003 -0.000
  0.055  0.001  0.003  0.170  0.000
 -0.000  0.003 -0.000  0.000  0.062
atomic mag. moment =     3.250664
atom    4   Tr[ns(na)] (up, down, total) =   3.73821  0.56994  4.30815
   spin  1
    eigenvalues: 
  0.577  0.620  0.798  0.818  0.925
    eigenvectors:
  0.000  0.896  0.103  0.000  0.001
  0.000  0.099  0.872  0.029  0.000
  0.000  0.004  0.025  0.971  0.000
  0.000  0.001  0.000  0.000  0.999
  1.000  0.000  0.000  0.000  0.000
    occupations:
  0.639  0.053  0.010 -0.008  0.001
  0.053  0.781 -0.007  0.002  0.002
  0.010 -0.007  0.817  0.001 -0.001
 -0.008  0.002  0.001  0.925  0.000
  0.001  0.002 -0.001  0.000  0.577
   spin  2
    eigenvalues: 
  0.055  0.064  0.071  0.179  0.201
    eigenvectors:
  0.010  0.001  0.000  0.000  0.989
  0.005  0.832  0.161  0.000  0.001
  0.001  0.160  0.839  0.000  0.000
  0.985  0.006  0.000  0.000  0.009
  0.000  0.000  0.000  1.000  0.000
    occupations:
  0.200  0.005  0.001 -0.014  0.000
  0.005  0.065 -0.003  0.000 -0.000
  0.001 -0.003  0.070  0.000  0.000
 -0.014  0.000  0.000  0.056  0.000
  0.000 -0.000  0.000  0.000  0.179
atomic mag. moment =     3.168264
atom    9   Tr[ns(na)] (up, down, total) =   4.24868  0.59791  4.84659
   spin  1
    eigenvalues: 
  0.665  0.672  0.952  0.979  0.980
    eigenvectors:
  0.056  0.126  0.000  0.807  0.011
  0.713  0.287  0.000  0.000  0.000
  0.000  0.000  0.132  0.013  0.855
  0.231  0.587  0.000  0.179  0.002
  0.000  0.000  0.868  0.001  0.132
    occupations:
  0.923 -0.004 -0.000 -0.119 -0.000
 -0.004  0.667 -0.000 -0.001 -0.001
 -0.000 -0.000  0.976 -0.000  0.010
 -0.119 -0.001 -0.000  0.726  0.000
 -0.000 -0.001  0.010  0.000  0.956
   spin  2
    eigenvalues: 
  0.066  0.067  0.073  0.194  0.198
    eigenvectors:
  0.000  0.856  0.000  0.004  0.140
  0.000  0.000  0.000  0.974  0.026
  1.000  0.000  0.000  0.000  0.000
  0.000  0.144  0.000  0.022  0.834
  0.000  0.000  1.000  0.000  0.000
    occupations:
  0.086 -0.000 -0.000  0.046  0.000
 -0.000  0.194  0.000 -0.001  0.000
 -0.000  0.000  0.066  0.000 -0.000
  0.046 -0.001  0.000  0.179 -0.000
  0.000  0.000 -0.000 -0.000  0.073
atomic mag. moment =     3.650772
atom   10   Tr[ns(na)] (up, down, total) =   4.46106  0.50647  4.96753
   spin  1
    eigenvalues: 
  0.718  0.782  0.983  0.987  0.991
    eigenvectors:
  0.000  0.995  0.001  0.004  0.000
  0.000  0.000  0.665  0.330  0.005
  0.001  0.000  0.000  0.008  0.990
  0.000  0.005  0.334  0.658  0.004
  0.998  0.000  0.000  0.000  0.001
    occupations:
  0.783  0.004  0.000  0.014  0.001
  0.004  0.985  0.000  0.002  0.000
  0.000  0.000  0.990  0.000 -0.010
  0.014  0.002  0.000  0.985 -0.000
  0.001  0.000 -0.010 -0.000  0.718
   spin  2
    eigenvalues: 
  0.053  0.061  0.068  0.149  0.175
    eigenvectors:
  0.016  0.000  0.000  0.984  0.000
  0.002  0.000  0.998  0.000  0.000
  0.000  1.000  0.000  0.000  0.000
  0.983  0.000  0.001  0.016  0.000
  0.000  0.000  0.000  0.000  1.000
    occupations:
  0.147 -0.000 -0.000 -0.012 -0.000
 -0.000  0.068 -0.000  0.001 -0.000
 -0.000 -0.000  0.061  0.000  0.001
 -0.012  0.001  0.000  0.055  0.000
 -0.000 -0.000  0.001  0.000  0.175
atomic mag. moment =     3.954586
atom   16   Tr[ns(na)] (up, down, total) =   3.79148  0.54841  4.33989
   spin  1
    eigenvalues: 
  0.621  0.632  0.771  0.874  0.893
    eigenvectors:
  0.299  0.009  0.006  0.148  0.538
  0.016  0.955  0.001  0.018  0.010
  0.011  0.000  0.957  0.000  0.032
  0.674  0.007  0.031  0.065  0.222
  0.000  0.028  0.005  0.770  0.197
    occupations:
  0.806 -0.007  0.025 -0.121 -0.004
 -0.007  0.639 -0.002  0.006  0.041
  0.025 -0.002  0.774  0.002 -0.009
 -0.121  0.006  0.002  0.703  0.002
 -0.004  0.041 -0.009  0.002  0.871
   spin  2
    eigenvalues: 
  0.053  0.061  0.062  0.175  0.197
    eigenvectors:
  0.675  0.139  0.000  0.001  0.185
  0.000  0.000  0.001  0.998  0.001
  0.168  0.832  0.000  0.000  0.000
  0.157  0.028  0.000  0.001  0.814
  0.000  0.000  0.999  0.001  0.000
    occupations:
  0.081  0.001 -0.002  0.055  0.000
  0.001  0.175  0.000 -0.001  0.003
 -0.002  0.000  0.060  0.002  0.000
  0.055 -0.001  0.002  0.170 -0.000
  0.000  0.003  0.000 -0.000  0.062
atomic mag. moment =     3.243065
atom   17   Tr[ns(na)] (up, down, total) =   3.71890  0.56870  4.28760
   spin  1
    eigenvalues: 
  0.574  0.616  0.796  0.813  0.920
    eigenvectors:
  0.000  0.908  0.090  0.000  0.001
  0.000  0.087  0.851  0.062  0.001
  0.000  0.005  0.057  0.938  0.000
  0.000  0.001  0.001  0.000  0.998
  1.000  0.000  0.000  0.000  0.000
    occupations:
  0.633  0.051  0.011 -0.009  0.001
  0.051  0.781 -0.008 -0.002  0.001
  0.011 -0.008  0.811  0.001  0.001
 -0.009 -0.002  0.001  0.919  0.000
  0.001  0.001  0.001  0.000  0.574
   spin  2
    eigenvalues: 
  0.055  0.064  0.071  0.178  0.201
    eigenvectors:
  0.010  0.001  0.000  0.000  0.989
  0.009  0.827  0.163  0.000  0.001
  0.001  0.162  0.837  0.000  0.000
  0.980  0.011  0.000  0.000  0.009
  0.000  0.000  0.000  1.000  0.000
    occupations:
  0.199  0.005  0.001 -0.014  0.000
  0.005  0.065 -0.003  0.000 -0.000
  0.001 -0.003  0.070  0.000  0.000
 -0.014  0.000  0.000  0.056  0.000
  0.000 -0.000  0.000  0.000  0.178
atomic mag. moment =     3.150199
atom   22   Tr[ns(na)] (up, down, total) =   4.11188  0.67997  4.79185
   spin  1
    eigenvalues: 
  0.654  0.662  0.877  0.941  0.978
    eigenvectors:
  0.008  0.018  0.000  0.973  0.000
  0.829  0.170  0.000  0.001  0.000
  0.000  0.000  0.013  0.001  0.986
  0.163  0.812  0.000  0.025  0.000
  0.000  0.000  0.986  0.000  0.013
    occupations:
  0.934  0.008 -0.001 -0.044  0.001
  0.008  0.655 -0.000  0.002 -0.001
 -0.001 -0.000  0.977  0.000 -0.012
 -0.044  0.002  0.000  0.668 -0.001
  0.001 -0.001 -0.012 -0.001  0.878
   spin  2
    eigenvalues: 
  0.069  0.096  0.097  0.203  0.215
    eigenvectors:
  0.000  0.982  0.000  0.000  0.018
  0.000  0.000  0.000  0.990  0.010
  0.999  0.000  0.001  0.000  0.000
  0.000  0.018  0.000  0.010  0.973
  0.001  0.000  0.999  0.000  0.000
    occupations:
  0.098 -0.001 -0.000  0.016  0.000
 -0.001  0.203 -0.000  0.001  0.000
 -0.000 -0.000  0.069 -0.000  0.001
  0.016  0.001 -0.000  0.213 -0.000
  0.000  0.000  0.001 -0.000  0.097
atomic mag. moment =     3.431908
atom   23   Tr[ns(na)] (up, down, total) =   4.25694  0.56156  4.81850
   spin  1
    eigenvalues: 
  0.644  0.680  0.966  0.978  0.988
    eigenvectors:
  0.000  0.997  0.000  0.001  0.002
  0.000  0.001  0.000  0.008  0.990
  0.004  0.000  0.994  0.002  0.000
  0.000  0.002  0.002  0.988  0.008
  0.996  0.000  0.004  0.000  0.000
    occupations:
  0.681 -0.011 -0.003  0.012  0.000
 -0.011  0.988 -0.000 -0.001  0.000
 -0.003 -0.000  0.965 -0.000  0.019
  0.012 -0.001 -0.000  0.978 -0.000
  0.000  0.000  0.019 -0.000  0.645
   spin  2
    eigenvalues: 
  0.054  0.064  0.067  0.179  0.196
    eigenvectors:
  0.010  0.000  0.000  0.000  0.990
  0.007  0.991  0.001  0.000  0.000
  0.000  0.001  0.999  0.000  0.000
  0.983  0.007  0.000  0.000  0.010
  0.000  0.000  0.000  1.000  0.000
    occupations:
  0.195  0.001  0.000 -0.014 -0.000
  0.001  0.064 -0.000 -0.001 -0.000
  0.000 -0.000  0.067 -0.000 -0.002
 -0.014 -0.001 -0.000  0.056  0.000
 -0.000 -0.000 -0.002  0.000  0.179
atomic mag. moment =     3.695377
N of occupied +U levels =  36.7076489
 --- exit write_ns ---

     negative rho (up, down):  0.273E-02 0.118E-02

     total cpu time spent up to now is      581.8 secs

     total energy              =   -2004.76382806 Ry
     Harris-Foulkes estimate   =   -2020.96104648 Ry
     estimated scf accuracy    <      28.11456366 Ry

     total magnetization       =    15.00 Bohr mag/cell
     absolute magnetization    =    38.90 Bohr mag/cell

     iteration #  2     ecut=    40.00 Ry     beta=0.70
     Davidson diagonalization with overlap
     ethr =  1.00E-02,  avg # of iterations =  6.8

     negative rho (up, down):  0.115E-01 0.716E-02

     total cpu time spent up to now is     1051.7 secs

     total energy              =   -1849.44779220 Ry
     Harris-Foulkes estimate   =   -2277.51622565 Ry
     estimated scf accuracy    <    5527.93369954 Ry

     total magnetization       =    15.00 Bohr mag/cell
     absolute magnetization    =    18.54 Bohr mag/cell

     iteration #  3     ecut=    40.00 Ry     beta=0.70
     Davidson diagonalization with overlap
     ethr =  1.00E-02,  avg # of iterations =  6.0

     negative rho (up, down):  0.586E-02 0.335E-02

     total cpu time spent up to now is     1526.8 secs

     total energy              =   -2021.81708807 Ry
     Harris-Foulkes estimate   =   -2026.77845533 Ry
     estimated scf accuracy    <      18.11327655 Ry

     total magnetization       =    15.00 Bohr mag/cell
     absolute magnetization    =    34.96 Bohr mag/cell

     iteration #  4     ecut=    40.00 Ry     beta=0.70
     Davidson diagonalization with overlap
     ethr =  7.84E-03,  avg # of iterations =  2.3

     negative rho (up, down):  0.572E-02 0.261E-02

     total cpu time spent up to now is     1759.4 secs

     total energy              =   -2022.70731897 Ry
     Harris-Foulkes estimate   =   -2025.24812347 Ry
     estimated scf accuracy    <      14.95426200 Ry

     total magnetization       =    15.00 Bohr mag/cell
     absolute magnetization    =    28.39 Bohr mag/cell

     iteration #  5     ecut=    40.00 Ry     beta=0.70
     Davidson diagonalization with overlap
     ethr =  6.47E-03,  avg # of iterations =  1.0

     negative rho (up, down):  0.552E-02 0.184E-02

     total cpu time spent up to now is     1975.8 secs

     total energy              =   -2023.21044369 Ry
     Harris-Foulkes estimate   =   -2025.43699558 Ry
     estimated scf accuracy    <      10.84486262 Ry

     total magnetization       =    15.00 Bohr mag/cell
     absolute magnetization    =    33.58 Bohr mag/cell

     iteration #  6     ecut=    40.00 Ry     beta=0.70
     Davidson diagonalization with overlap
     ethr =  4.69E-03,  avg # of iterations =  3.8

     negative rho (up, down):  0.566E-02 0.145E-02

     total cpu time spent up to now is     2220.7 secs

     total energy              =   -2023.71877321 Ry
     Harris-Foulkes estimate   =   -2025.42633942 Ry
     estimated scf accuracy    <      12.61071785 Ry

     total magnetization       =    15.00 Bohr mag/cell
     absolute magnetization    =    32.11 Bohr mag/cell

     iteration #  7     ecut=    40.00 Ry     beta=0.70
     Davidson diagonalization with overlap
     ethr =  4.69E-03,  avg # of iterations =  1.4

     negative rho (up, down):  0.639E-02 0.131E-02

     total cpu time spent up to now is     2453.1 secs

     total energy              =   -2024.40136024 Ry
     Harris-Foulkes estimate   =   -2024.81045726 Ry
     estimated scf accuracy    <       2.56507720 Ry

     total magnetization       =    15.00 Bohr mag/cell
     absolute magnetization    =    28.27 Bohr mag/cell

     iteration #  8     ecut=    40.00 Ry     beta=0.70
     Davidson diagonalization with overlap
     ethr =  1.11E-03,  avg # of iterations =  4.0

     negative rho (up, down):  0.518E-02 0.126E-02

     total cpu time spent up to now is     2697.7 secs

     total energy              =   -2024.52202792 Ry
     Harris-Foulkes estimate   =   -2024.63900527 Ry
     estimated scf accuracy    <       0.85435379 Ry

     total magnetization       =    15.00 Bohr mag/cell
     absolute magnetization    =    29.18 Bohr mag/cell

     iteration #  9     ecut=    40.00 Ry     beta=0.70
     Davidson diagonalization with overlap
     ethr =  3.70E-04,  avg # of iterations =  4.0

     negative rho (up, down):  0.411E-02 0.125E-02

     total cpu time spent up to now is     2936.4 secs

     total energy              =   -2024.53885788 Ry
     Harris-Foulkes estimate   =   -2024.61624066 Ry
     estimated scf accuracy    <       0.45030176 Ry

     total magnetization       =    15.00 Bohr mag/cell
     absolute magnetization    =    29.09 Bohr mag/cell

     iteration # 10     ecut=    40.00 Ry     beta=0.70
     Davidson diagonalization with overlap
     ethr =  1.95E-04,  avg # of iterations =  5.3

     negative rho (up, down):  0.403E-02 0.122E-02

     total cpu time spent up to now is     3200.3 secs

     total energy              =   -2024.56196947 Ry
     Harris-Foulkes estimate   =   -2024.59582477 Ry
     estimated scf accuracy    <       0.24300718 Ry

     total magnetization       =    15.00 Bohr mag/cell
     absolute magnetization    =    28.03 Bohr mag/cell

     iteration # 11     ecut=    40.00 Ry     beta=0.70
     Davidson diagonalization with overlap
     ethr =  1.05E-04,  avg # of iterations =  1.1

     negative rho (up, down):  0.498E-02 0.146E-02

     total cpu time spent up to now is     3419.1 secs

     total energy              =   -2024.53687728 Ry
     Harris-Foulkes estimate   =   -2024.59481564 Ry
     estimated scf accuracy    <       0.18684539 Ry

     total magnetization       =    15.00 Bohr mag/cell
     absolute magnetization    =    27.85 Bohr mag/cell

     iteration # 12     ecut=    40.00 Ry     beta=0.70
     Davidson diagonalization with overlap
     ethr =  8.09E-05,  avg # of iterations =  5.5

     negative rho (up, down):  0.451E-02 0.136E-02

     total cpu time spent up to now is     3704.2 secs

     total energy              =   -2024.55560850 Ry
     Harris-Foulkes estimate   =   -2024.59894533 Ry
     estimated scf accuracy    <       0.31434429 Ry

     total magnetization       =    15.00 Bohr mag/cell
     absolute magnetization    =    26.90 Bohr mag/cell

     iteration # 13     ecut=    40.00 Ry     beta=0.70
     Davidson diagonalization with overlap
     ethr =  8.09E-05,  avg # of iterations =  2.9

     negative rho (up, down):  0.443E-02 0.138E-02

     total cpu time spent up to now is     3937.8 secs

     total energy              =   -2024.56926686 Ry
     Harris-Foulkes estimate   =   -2024.58225787 Ry
     estimated scf accuracy    <       0.05092848 Ry

     total magnetization       =    15.00 Bohr mag/cell
     absolute magnetization    =    26.86 Bohr mag/cell

     iteration # 14     ecut=    40.00 Ry     beta=0.70
     Davidson diagonalization with overlap
     ethr =  2.20E-05,  avg # of iterations =  5.0

     negative rho (up, down):  0.465E-02 0.139E-02

     total cpu time spent up to now is     4195.8 secs

     total energy              =   -2024.56762737 Ry
     Harris-Foulkes estimate   =   -2024.58582345 Ry
     estimated scf accuracy    <       0.13017166 Ry

     total magnetization       =    15.00 Bohr mag/cell
     absolute magnetization    =    26.66 Bohr mag/cell

     iteration # 15     ecut=    40.00 Ry     beta=0.70
     Davidson diagonalization with overlap
     ethr =  2.20E-05,  avg # of iterations =  1.4

     negative rho (up, down):  0.457E-02 0.141E-02

     total cpu time spent up to now is     4428.6 secs

     total energy              =   -2024.57634489 Ry
     Harris-Foulkes estimate   =   -2024.57824041 Ry
     estimated scf accuracy    <       0.02033747 Ry

     total magnetization       =    15.00 Bohr mag/cell
     absolute magnetization    =    26.74 Bohr mag/cell

     iteration # 16     ecut=    40.00 Ry     beta=0.70
     Davidson diagonalization with overlap
     ethr =  8.80E-06,  avg # of iterations =  1.3

     negative rho (up, down):  0.520E-02 0.170E-02

     total cpu time spent up to now is     4658.2 secs

     total energy              =   -2024.57648971 Ry
     Harris-Foulkes estimate   =   -2024.57817413 Ry
     estimated scf accuracy    <       0.00769224 Ry

     total magnetization       =    15.00 Bohr mag/cell
     absolute magnetization    =    26.81 Bohr mag/cell

     iteration # 17     ecut=    40.00 Ry     beta=0.70
     Davidson diagonalization with overlap
     ethr =  3.33E-06,  avg # of iterations =  4.5

     negative rho (up, down):  0.542E-02 0.183E-02

     total cpu time spent up to now is     4917.7 secs

     total energy              =   -2024.57482939 Ry
     Harris-Foulkes estimate   =   -2024.58083330 Ry
     estimated scf accuracy    <       0.05351885 Ry

     total magnetization       =    15.00 Bohr mag/cell
     absolute magnetization    =    26.81 Bohr mag/cell

     iteration # 18     ecut=    40.00 Ry     beta=0.70
     Davidson diagonalization with overlap
     ethr =  3.33E-06,  avg # of iterations =  2.4

     negative rho (up, down):  0.536E-02 0.180E-02

     total cpu time spent up to now is     5159.9 secs

     total energy              =   -2024.57737013 Ry
     Harris-Foulkes estimate   =   -2024.57843795 Ry
     estimated scf accuracy    <       0.00630786 Ry

     total magnetization       =    15.00 Bohr mag/cell
     absolute magnetization    =    26.60 Bohr mag/cell

     iteration # 19     ecut=    40.00 Ry     beta=0.70
     Davidson diagonalization with overlap
     ethr =  2.73E-06,  avg # of iterations =  3.4

     negative rho (up, down):  0.537E-02 0.181E-02

     total cpu time spent up to now is     5403.5 secs

     total energy              =   -2024.57772548 Ry
     Harris-Foulkes estimate   =   -2024.57822249 Ry
     estimated scf accuracy    <       0.00297548 Ry

     total magnetization       =    15.00 Bohr mag/cell
     absolute magnetization    =    26.66 Bohr mag/cell

     iteration # 20     ecut=    40.00 Ry     beta=0.70
     Davidson diagonalization with overlap
     ethr =  1.29E-06,  avg # of iterations =  1.4

     negative rho (up, down):  0.545E-02 0.189E-02

     total cpu time spent up to now is     5635.8 secs

     total energy              =   -2024.57806731 Ry
     Harris-Foulkes estimate   =   -2024.57809384 Ry
     estimated scf accuracy    <       0.00086653 Ry

     total magnetization       =    15.00 Bohr mag/cell
     absolute magnetization    =    26.60 Bohr mag/cell

     iteration # 21     ecut=    40.00 Ry     beta=0.70
     Davidson diagonalization with overlap
     ethr =  3.75E-07,  avg # of iterations =  1.0

     negative rho (up, down):  0.545E-02 0.188E-02

     total cpu time spent up to now is     5865.4 secs

     total energy              =   -2024.57803442 Ry
     Harris-Foulkes estimate   =   -2024.57835128 Ry
     estimated scf accuracy    <       0.00172804 Ry

     total magnetization       =    15.00 Bohr mag/cell
     absolute magnetization    =    26.56 Bohr mag/cell

     iteration # 22     ecut=    40.00 Ry     beta=0.70
     Davidson diagonalization with overlap
     ethr =  3.75E-07,  avg # of iterations =  1.0

     negative rho (up, down):  0.546E-02 0.190E-02

     total cpu time spent up to now is     6094.2 secs

     total energy              =   -2024.57824410 Ry
     Harris-Foulkes estimate   =   -2024.57822854 Ry
     estimated scf accuracy    <       0.00028236 Ry

     total magnetization       =    15.00 Bohr mag/cell
     absolute magnetization    =    26.55 Bohr mag/cell

     iteration # 23     ecut=    40.00 Ry     beta=0.70
     Davidson diagonalization with overlap
     ethr =  1.22E-07,  avg # of iterations =  1.0

     negative rho (up, down):  0.537E-02 0.181E-02

     total cpu time spent up to now is     6322.6 secs

     total energy              =   -2024.57820926 Ry
     Harris-Foulkes estimate   =   -2024.57834227 Ry
     estimated scf accuracy    <       0.00052286 Ry

     total magnetization       =    15.00 Bohr mag/cell
     absolute magnetization    =    26.50 Bohr mag/cell

     iteration # 24     ecut=    40.00 Ry     beta=0.70
     Davidson diagonalization with overlap
     ethr =  1.22E-07,  avg # of iterations =  1.6

     negative rho (up, down):  0.542E-02 0.186E-02

     total cpu time spent up to now is     6564.8 secs

     total energy              =   -2024.57816182 Ry
     Harris-Foulkes estimate   =   -2024.57844060 Ry
     estimated scf accuracy    <       0.00166782 Ry

     total magnetization       =    15.00 Bohr mag/cell
     absolute magnetization    =    26.51 Bohr mag/cell

     iteration # 25     ecut=    40.00 Ry     beta=0.70
     Davidson diagonalization with overlap
     ethr =  1.22E-07,  avg # of iterations =  2.0

     negative rho (up, down):  0.540E-02 0.185E-02

     total cpu time spent up to now is     6792.0 secs

     total energy              =   -2024.57830063 Ry
     Harris-Foulkes estimate   =   -2024.57839793 Ry
     estimated scf accuracy    <       0.00079237 Ry

     total magnetization       =    15.00 Bohr mag/cell
     absolute magnetization    =    26.46 Bohr mag/cell

     iteration # 26     ecut=    40.00 Ry     beta=0.70
     Davidson diagonalization with overlap
     ethr =  1.22E-07,  avg # of iterations =  1.0

     negative rho (up, down):  0.540E-02 0.184E-02

     total cpu time spent up to now is     7009.4 secs

     total energy              =   -2024.57835335 Ry
     Harris-Foulkes estimate   =   -2024.57837028 Ry
     estimated scf accuracy    <       0.00022628 Ry

     total magnetization       =    15.00 Bohr mag/cell
     absolute magnetization    =    26.45 Bohr mag/cell

     iteration # 27     ecut=    40.00 Ry     beta=0.70
     Davidson diagonalization with overlap
     ethr =  9.80E-08,  avg # of iterations =  1.0

     negative rho (up, down):  0.539E-02 0.183E-02

     total cpu time spent up to now is     7227.4 secs

     total energy              =   -2024.57835001 Ry
     Harris-Foulkes estimate   =   -2024.57839012 Ry
     estimated scf accuracy    <       0.00031309 Ry

     total magnetization       =    15.00 Bohr mag/cell
     absolute magnetization    =    26.43 Bohr mag/cell

     iteration # 28     ecut=    40.00 Ry     beta=0.70
     Davidson diagonalization with overlap
     ethr =  9.80E-08,  avg # of iterations =  1.0

     negative rho (up, down):  0.539E-02 0.183E-02

     total cpu time spent up to now is     7445.3 secs

     total energy              =   -2024.57832663 Ry
     Harris-Foulkes estimate   =   -2024.57841088 Ry
     estimated scf accuracy    <       0.00037026 Ry

     total magnetization       =    15.00 Bohr mag/cell
     absolute magnetization    =    26.44 Bohr mag/cell

     iteration # 29     ecut=    40.00 Ry     beta=0.70
     Davidson diagonalization with overlap
     ethr =  9.80E-08,  avg # of iterations =  1.0

     negative rho (up, down):  0.538E-02 0.182E-02

     total cpu time spent up to now is     7662.6 secs

     total energy              =   -2024.57832006 Ry
     Harris-Foulkes estimate   =   -2024.57841356 Ry
     estimated scf accuracy    <       0.00059449 Ry

     total magnetization       =    15.00 Bohr mag/cell
     absolute magnetization    =    26.43 Bohr mag/cell

     iteration # 30     ecut=    40.00 Ry     beta=0.70
     Davidson diagonalization with overlap
     ethr =  9.80E-08,  avg # of iterations =  1.0

     negative rho (up, down):  0.538E-02 0.182E-02

     total cpu time spent up to now is     7881.9 secs

     total energy              =   -2024.57836083 Ry
     Harris-Foulkes estimate   =   -2024.57840730 Ry
     estimated scf accuracy    <       0.00026546 Ry

     total magnetization       =    15.00 Bohr mag/cell
     absolute magnetization    =    26.41 Bohr mag/cell

     iteration # 31     ecut=    40.00 Ry     beta=0.70
     Davidson diagonalization with overlap
     ethr =  9.80E-08,  avg # of iterations =  1.0

     negative rho (up, down):  0.538E-02 0.182E-02

     total cpu time spent up to now is     8098.8 secs

     total energy              =   -2024.57837711 Ry
     Harris-Foulkes estimate   =   -2024.57838751 Ry
     estimated scf accuracy    <       0.00003638 Ry

     total magnetization       =    15.00 Bohr mag/cell
     absolute magnetization    =    26.41 Bohr mag/cell

     iteration # 32     ecut=    40.00 Ry     beta=0.70
     Davidson diagonalization with overlap
     ethr =  1.57E-08,  avg # of iterations =  1.0

     negative rho (up, down):  0.538E-02 0.182E-02

     total cpu time spent up to now is     8322.4 secs

     total energy              =   -2024.57837835 Ry
     Harris-Foulkes estimate   =   -2024.57838669 Ry
     estimated scf accuracy    <       0.00005647 Ry

     total magnetization       =    15.00 Bohr mag/cell
     absolute magnetization    =    26.42 Bohr mag/cell

     iteration # 33     ecut=    40.00 Ry     beta=0.70
     Davidson diagonalization with overlap
     ethr =  1.57E-08,  avg # of iterations =  1.0

     negative rho (up, down):  0.538E-02 0.182E-02

     total cpu time spent up to now is     8544.2 secs

     total energy              =   -2024.57838249 Ry
     Harris-Foulkes estimate   =   -2024.57838560 Ry
     estimated scf accuracy    <       0.00002351 Ry

     total magnetization       =    15.00 Bohr mag/cell
     absolute magnetization    =    26.42 Bohr mag/cell

     iteration # 34     ecut=    40.00 Ry     beta=0.70
     Davidson diagonalization with overlap
     ethr =  1.02E-08,  avg # of iterations =  1.0

     negative rho (up, down):  0.538E-02 0.182E-02

     total cpu time spent up to now is     8763.7 secs

     total energy              =   -2024.57838659 Ry
     Harris-Foulkes estimate   =   -2024.57838866 Ry
     estimated scf accuracy    <       0.00001554 Ry

     total magnetization       =    15.00 Bohr mag/cell
     absolute magnetization    =    26.40 Bohr mag/cell

     iteration # 35     ecut=    40.00 Ry     beta=0.70
     Davidson diagonalization with overlap
     ethr =  6.73E-09,  avg # of iterations =  1.0

     negative rho (up, down):  0.538E-02 0.182E-02

     total cpu time spent up to now is     8982.9 secs

     total energy              =   -2024.57838414 Ry
     Harris-Foulkes estimate   =   -2024.57838832 Ry
     estimated scf accuracy    <       0.00000794 Ry

     total magnetization       =    15.00 Bohr mag/cell
     absolute magnetization    =    26.40 Bohr mag/cell

     iteration # 36     ecut=    40.00 Ry     beta=0.70
     Davidson diagonalization with overlap
     ethr =  3.44E-09,  avg # of iterations =  2.0

     negative rho (up, down):  0.538E-02 0.182E-02

     total cpu time spent up to now is     9210.2 secs

     total energy              =   -2024.57836807 Ry
     Harris-Foulkes estimate   =   -2024.57840643 Ry
     estimated scf accuracy    <       0.00041658 Ry

     total magnetization       =    15.00 Bohr mag/cell
     absolute magnetization    =    26.41 Bohr mag/cell

     iteration # 37     ecut=    40.00 Ry     beta=0.70
     Davidson diagonalization with overlap
     ethr =  3.44E-09,  avg # of iterations =  2.0

     negative rho (up, down):  0.538E-02 0.182E-02

     total cpu time spent up to now is     9436.8 secs

     total energy              =   -2024.57838745 Ry
     Harris-Foulkes estimate   =   -2024.57838866 Ry
     estimated scf accuracy    <       0.00001015 Ry

     total magnetization       =    15.00 Bohr mag/cell
     absolute magnetization    =    26.40 Bohr mag/cell

     iteration # 38     ecut=    40.00 Ry     beta=0.70
     Davidson diagonalization with overlap
     ethr =  3.44E-09,  avg # of iterations =  1.0

     negative rho (up, down):  0.538E-02 0.182E-02

     total cpu time spent up to now is     9659.4 secs

     total energy              =   -2024.57838890 Ry
     Harris-Foulkes estimate   =   -2024.57838925 Ry
     estimated scf accuracy    <       0.00000197 Ry

     total magnetization       =    15.00 Bohr mag/cell
     absolute magnetization    =    26.39 Bohr mag/cell

     iteration # 39     ecut=    40.00 Ry     beta=0.70
     Davidson diagonalization with overlap
     ethr =  8.53E-10,  avg # of iterations =  1.0

     negative rho (up, down):  0.538E-02 0.182E-02

     total cpu time spent up to now is     9886.1 secs

     total energy              =   -2024.57838854 Ry
     Harris-Foulkes estimate   =   -2024.57838979 Ry
     estimated scf accuracy    <       0.00000913 Ry

     total magnetization       =    15.00 Bohr mag/cell
     absolute magnetization    =    26.40 Bohr mag/cell

     iteration # 40     ecut=    40.00 Ry     beta=0.70
     Davidson diagonalization with overlap
     ethr =  8.53E-10,  avg # of iterations =  1.0

     negative rho (up, down):  0.538E-02 0.182E-02

     total cpu time spent up to now is    10113.4 secs

     total energy              =   -2024.57838885 Ry
     Harris-Foulkes estimate   =   -2024.57838942 Ry
     estimated scf accuracy    <       0.00000194 Ry

     total magnetization       =    15.00 Bohr mag/cell
     absolute magnetization    =    26.39 Bohr mag/cell

     iteration # 41     ecut=    40.00 Ry     beta=0.70
     Davidson diagonalization with overlap
     ethr =  8.39E-10,  avg # of iterations =  1.1

     negative rho (up, down):  0.538E-02 0.182E-02

     total cpu time spent up to now is    10340.2 secs

     total energy              =   -2024.57838856 Ry
     Harris-Foulkes estimate   =   -2024.57838991 Ry
     estimated scf accuracy    <       0.00000975 Ry

     total magnetization       =    15.00 Bohr mag/cell
     absolute magnetization    =    26.40 Bohr mag/cell

     iteration # 42     ecut=    40.00 Ry     beta=0.70
     Davidson diagonalization with overlap
     ethr =  8.39E-10,  avg # of iterations =  1.1

     negative rho (up, down):  0.538E-02 0.182E-02

     total cpu time spent up to now is    10570.4 secs

     total energy              =   -2024.57838901 Ry
     Harris-Foulkes estimate   =   -2024.57838964 Ry
     estimated scf accuracy    <       0.00000353 Ry

     total magnetization       =    15.00 Bohr mag/cell
     absolute magnetization    =    26.39 Bohr mag/cell

     iteration # 43     ecut=    40.00 Ry     beta=0.70
     Davidson diagonalization with overlap
     ethr =  8.39E-10,  avg # of iterations =  1.0

     negative rho (up, down):  0.538E-02 0.182E-02

     total cpu time spent up to now is    10798.9 secs

     total energy              =   -2024.57838920 Ry
     Harris-Foulkes estimate   =   -2024.57838947 Ry
     estimated scf accuracy    <       0.00000163 Ry

     total magnetization       =    15.00 Bohr mag/cell
     absolute magnetization    =    26.39 Bohr mag/cell

     iteration # 44     ecut=    40.00 Ry     beta=0.70
     Davidson diagonalization with overlap
     ethr =  7.08E-10,  avg # of iterations =  1.0

     negative rho (up, down):  0.538E-02 0.182E-02

     total cpu time spent up to now is    11027.2 secs

     End of self-consistent calculation
 --- enter write_ns ---
 LDA+U parameters:
U( 2)     =  5.00000000
alpha( 2) =  0.00000000
atom    3   Tr[ns(na)] (up, down, total) =   3.66784  0.95083  4.61868
   spin  1
    eigenvalues: 
  0.463  0.504  0.773  0.939  0.989
    eigenvectors:
  0.003  0.215  0.001  0.000  0.781
  0.987  0.013  0.000  0.000  0.000
  0.000  0.000  0.999  0.000  0.001
  0.010  0.772  0.000  0.000  0.218
  0.000  0.000  0.000  0.999  0.000
    occupations:
  0.883 -0.002  0.006 -0.200  0.000
 -0.002  0.464  0.001 -0.004 -0.007
  0.006  0.001  0.773 -0.004 -0.002
 -0.200 -0.004 -0.004  0.609 -0.001
  0.000 -0.007 -0.002 -0.001  0.939
   spin  2
    eigenvalues: 
  0.079  0.095  0.105  0.323  0.348
    eigenvectors:
  0.757  0.000  0.032  0.001  0.209
  0.000  0.002  0.000  0.991  0.007
  0.038  0.002  0.960  0.000  0.000
  0.205  0.000  0.006  0.006  0.783
  0.000  0.996  0.002  0.002  0.000
    occupations:
  0.137 -0.002 -0.002  0.109  0.000
 -0.002  0.323 -0.000 -0.001  0.009
 -0.002 -0.000  0.104  0.006 -0.000
  0.109 -0.001  0.006  0.292 -0.000
  0.000  0.009 -0.000 -0.000  0.096
atomic mag. moment =     2.717010
atom    4   Tr[ns(na)] (up, down, total) =   3.61200  1.01189  4.62389
   spin  1
    eigenvalues: 
  0.491  0.541  0.667  0.923  0.990
    eigenvectors:
  0.003  0.991  0.000  0.002  0.005
  0.000  0.001  0.016  0.982  0.000
  0.000  0.000  0.984  0.016  0.000
  0.000  0.005  0.000  0.000  0.995
  0.997  0.003  0.000  0.000  0.000
    occupations:
  0.543 -0.014 -0.001  0.031  0.003
 -0.014  0.918  0.032  0.002  0.001
 -0.001  0.032  0.671  0.000 -0.003
  0.031  0.002  0.000  0.988 -0.000
  0.003  0.001 -0.003 -0.000  0.491
   spin  2
    eigenvalues: 
  0.084  0.101  0.120  0.344  0.363
    eigenvectors:
  0.004  0.002  0.000  0.003  0.991
  0.004  0.910  0.084  0.000  0.002
  0.001  0.084  0.916  0.000  0.000
  0.992  0.004  0.000  0.000  0.004
  0.000  0.000  0.000  0.997  0.003
    occupations:
  0.362  0.011  0.003 -0.017  0.001
  0.011  0.103 -0.005  0.000 -0.001
  0.003 -0.005  0.118  0.000  0.000
 -0.017  0.000  0.000  0.085  0.000
  0.001 -0.001  0.000  0.000  0.344
atomic mag. moment =     2.600116
atom    9   Tr[ns(na)] (up, down, total) =   3.64563  1.02065  4.66627
   spin  1
    eigenvalues: 
  0.502  0.512  0.740  0.907  0.986
    eigenvectors:
  0.032  0.138  0.000  0.000  0.830
  0.816  0.183  0.000  0.000  0.000
  0.000  0.000  0.976  0.024  0.000
  0.151  0.679  0.000  0.000  0.170
  0.000  0.000  0.024  0.976  0.000
    occupations:
  0.905  0.003 -0.001 -0.179  0.000
  0.003  0.504  0.004  0.003 -0.000
 -0.001  0.004  0.743 -0.001 -0.025
 -0.179  0.003 -0.001  0.591  0.002
  0.000 -0.000 -0.025  0.002  0.903
   spin  2
    eigenvalues: 
  0.094  0.112  0.117  0.344  0.353
    eigenvectors:
  0.831  0.000  0.000  0.001  0.168
  0.000  0.000  0.000  0.995  0.005
  0.000  0.093  0.907  0.000  0.000
  0.169  0.000  0.000  0.004  0.827
  0.000  0.907  0.093  0.000  0.000
    occupations:
  0.138  0.001  0.000  0.097 -0.000
  0.001  0.344 -0.000  0.000  0.000
  0.000 -0.000  0.117  0.000  0.001
  0.097  0.000  0.000  0.309 -0.000
 -0.000  0.000  0.001 -0.000  0.113
atomic mag. moment =     2.624980
atom   10   Tr[ns(na)] (up, down, total) =   3.71596  0.88826  4.60423
   spin  1
    eigenvalues: 
  0.479  0.501  0.827  0.920  0.989
    eigenvectors:
  0.000  0.996  0.000  0.001  0.004
  0.000  0.001  0.000  0.956  0.042
  0.001  0.000  0.999  0.000  0.000
  0.000  0.003  0.000  0.043  0.954
  0.999  0.000  0.001  0.000  0.000
    occupations:
  0.503 -0.016 -0.001  0.027 -0.000
 -0.016  0.922 -0.001 -0.013  0.001
 -0.001 -0.001  0.827  0.000  0.012
  0.027 -0.013  0.000  0.984  0.000
 -0.000  0.001  0.012  0.000  0.479
   spin  2
    eigenvalues: 
  0.077  0.111  0.112  0.266  0.323
    eigenvectors:
  0.008  0.000  0.000  0.992  0.000
  0.001  0.000  0.999  0.000  0.000
  0.000  1.000  0.000  0.000  0.000
  0.991  0.000  0.001  0.008  0.000
  0.000  0.000  0.000  0.000  1.000
    occupations:
  0.264  0.000 -0.000 -0.016 -0.000
  0.000  0.112 -0.000  0.001 -0.000
 -0.000 -0.000  0.111  0.000  0.002
 -0.016  0.001  0.000  0.078  0.000
 -0.000 -0.000  0.002  0.000  0.323
atomic mag. moment =     2.827700
atom   16   Tr[ns(na)] (up, down, total) =   3.66593  0.95299  4.61893
   spin  1
    eigenvalues: 
  0.464  0.506  0.768  0.940  0.989
    eigenvectors:
  0.005  0.213  0.001  0.000  0.781
  0.980  0.019  0.000  0.000  0.000
  0.000  0.000  0.998  0.001  0.001
  0.015  0.767  0.000  0.000  0.218
  0.000  0.000  0.001  0.999  0.000
    occupations:
  0.883  0.004  0.007 -0.200 -0.001
  0.004  0.465 -0.001  0.005 -0.007
  0.007 -0.001  0.768 -0.005  0.005
 -0.200  0.005 -0.005  0.610 -0.000
 -0.001 -0.007  0.005 -0.000  0.940
   spin  2
    eigenvalues: 
  0.080  0.096  0.105  0.324  0.349
    eigenvectors:
  0.757  0.000  0.033  0.001  0.209
  0.000  0.002  0.000  0.992  0.007
  0.038  0.003  0.959  0.000  0.000
  0.205  0.000  0.006  0.006  0.784
  0.000  0.995  0.003  0.002  0.000
    occupations:
  0.137  0.002 -0.002  0.109 -0.000
  0.002  0.324 -0.000  0.001  0.009
 -0.002 -0.000  0.104  0.006  0.000
  0.109  0.001  0.006  0.292  0.000
 -0.000  0.009  0.000  0.000  0.096
atomic mag. moment =     2.712943
atom   17   Tr[ns(na)] (up, down, total) =   3.62863  0.99678  4.62541
   spin  1
    eigenvalues: 
  0.484  0.536  0.700  0.919  0.990
    eigenvectors:
  0.002  0.993  0.000  0.001  0.004
  0.000  0.001  0.018  0.981  0.000
  0.000  0.000  0.982  0.018  0.000
  0.000  0.004  0.000  0.000  0.996
  0.998  0.002  0.000  0.000  0.000
    occupations:
  0.538 -0.013 -0.002  0.030  0.002
 -0.013  0.915  0.029  0.001  0.001
 -0.002  0.029  0.704  0.000  0.003
  0.030  0.001  0.000  0.988 -0.000
  0.002  0.001  0.003 -0.000  0.484
   spin  2
    eigenvalues: 
  0.082  0.099  0.117  0.339  0.360
    eigenvectors:
  0.004  0.002  0.000  0.002  0.992
  0.006  0.899  0.093  0.000  0.002
  0.001  0.092  0.907  0.000  0.000
  0.989  0.007  0.000  0.000  0.004
  0.000  0.000  0.000  0.998  0.002
    occupations:
  0.358  0.013  0.003 -0.017  0.001
  0.013  0.102 -0.005  0.000 -0.000
  0.003 -0.005  0.115  0.000  0.000
 -0.017  0.000  0.000  0.084  0.000
  0.001 -0.000  0.000  0.000  0.339
atomic mag. moment =     2.631852
atom   22   Tr[ns(na)] (up, down, total) =   3.37768  1.40242  4.78010
   spin  1
    eigenvalues: 
  0.568  0.573  0.618  0.759  0.859
    eigenvectors:
  0.415  0.000  0.585  0.000  0.000
  0.001  0.997  0.002  0.000  0.000
  0.000  0.000  0.000  0.001  0.999
  0.584  0.003  0.413  0.000  0.000
  0.000  0.000  0.000  0.999  0.001
    occupations:
  0.597  0.002 -0.001 -0.025  0.001
  0.002  0.573  0.001 -0.001  0.000
 -0.001  0.001  0.859  0.000 -0.003
 -0.025 -0.001  0.000  0.589 -0.001
  0.001  0.000 -0.003 -0.001  0.759
   spin  2
    eigenvalues: 
  0.148  0.193  0.217  0.419  0.426
    eigenvectors:
  0.000  0.000  0.981  0.000  0.019
  0.000  0.000  0.000  0.992  0.008
  1.000  0.000  0.000  0.000  0.000
  0.000  0.000  0.019  0.008  0.973
  0.000  1.000  0.000  0.000  0.000
    occupations:
  0.221 -0.002  0.000  0.029 -0.000
 -0.002  0.419 -0.000 -0.000  0.000
  0.000 -0.000  0.148 -0.000 -0.001
  0.029 -0.000 -0.000  0.422  0.000
 -0.000  0.000 -0.001  0.000  0.193
atomic mag. moment =     1.975258
atom   23   Tr[ns(na)] (up, down, total) =   3.60929  1.00380  4.61309
   spin  1
    eigenvalues: 
  0.481  0.532  0.658  0.954  0.985
    eigenvectors:
  0.000  0.994  0.000  0.000  0.005
  0.000  0.000  0.000  0.952  0.048
  0.005  0.000  0.995  0.000  0.000
  0.000  0.005  0.000  0.048  0.947
  0.995  0.000  0.005  0.000  0.000
    occupations:
  0.534  0.002 -0.002  0.033  0.000
  0.002  0.956  0.002  0.006  0.000
 -0.002  0.002  0.657 -0.001 -0.013
  0.033  0.006 -0.001  0.981 -0.000
  0.000  0.000 -0.013 -0.000  0.482
   spin  2
    eigenvalues: 
  0.082  0.099  0.122  0.342  0.359
    eigenvectors:
  0.003  0.001  0.000  0.000  0.996
  0.005  0.993  0.000  0.000  0.001
  0.000  0.000  1.000  0.000  0.000
  0.992  0.005  0.000  0.000  0.003
  0.000  0.000  0.000  1.000  0.000
    occupations:
  0.358  0.009  0.000 -0.016  0.000
  0.009  0.099 -0.000 -0.002 -0.000
  0.000 -0.000  0.122 -0.000 -0.002
 -0.016 -0.002 -0.000  0.083 -0.000
  0.000 -0.000 -0.002 -0.000  0.342
atomic mag. moment =     2.605494
N of occupied +U levels =  37.1505933
 --- exit write_ns ---

 ------ SPIN UP ------------


          k = 0.0000 0.0000 0.0000 ( 27003 PWs)   bands (ev):

   -75.7397 -75.2067 -75.1239 -75.1201 -75.0190 -74.9972 -74.9018 -74.8782
   -47.1477 -47.0568 -46.9677 -46.7058 -46.4963 -46.4933 -46.4696 -46.4603
   -46.4564 -46.4459 -46.4104 -46.3887 -46.3588 -46.3511 -46.3085 -46.2995
   -46.2792 -46.2683 -46.2602 -46.2580 -46.2216 -46.1998 -46.1885 -46.0617
   -21.1127 -20.6867 -20.2987 -20.2361 -20.0660 -19.9810 -19.8198 -19.6302
   -19.5951 -19.5653 -19.4615 -19.3159 -19.2374 -19.1594 -19.1043 -19.0676
   -19.0282 -18.9496 -18.8467  -9.7707  -9.5403  -9.2449  -9.1579  -8.9576
    -8.8046  -8.4480  -8.4004  -8.2427  -8.0355  -7.9561  -7.9234  -7.8050
    -7.6276  -7.5565  -7.2041  -7.1421  -7.1299  -7.0851  -7.0753  -6.9965
    -6.7510  -6.6589  -6.5245  -6.4590  -6.3638  -6.0643  -5.9868  -5.9318
    -5.6657  -5.6434  -5.6073  -5.5106  -5.4526  -5.3078  -5.2326  -5.1602
    -4.9639  -4.9272  -4.8300  -4.8129  -4.7672  -4.6864  -4.6357  -4.5105
    -4.5024  -4.4728  -4.3776  -4.3489  -4.2415  -4.1533  -4.1219  -4.1096
    -4.0263  -3.9626  -3.8352  -3.7938  -3.7823  -3.6775  -3.5282  -3.5167
    -3.4638  -3.1786  -3.0657  -2.9403  -2.7960  -2.6266  -2.4467  -2.2917
    -2.1605  -2.0122  -1.9500  -1.8894  -1.7510  -1.6453  -1.5224  -1.5084
    -1.2870  -1.1750  -1.0962  -0.8720  -0.2989   0.3917   0.5263   0.9081
     1.2528   1.3834   1.5318   1.5621   1.6960   1.8822   1.9881   2.0110
     2.1671   2.2393   2.3084   2.7184   3.2410   3.3236   3.7761   4.2632
     4.7959   5.5653   6.1434   6.4119   6.7347   6.9807   7.1514   7.2507
     7.2929   7.3233   7.5529   7.6087   7.6999   7.8638   8.0332   8.1229
     8.1875   8.2232   8.3238   8.4950   8.6072   8.6288   8.7597   8.8677
     8.9493   9.2440   9.2941   9.3526   9.4704   9.5544   9.5827   9.7293
     9.9039   9.9544  10.0691  10.0818  10.1765  10.3432  10.5075  10.6036
    10.6793  10.7239  10.9934  11.0923  11.2490  11.3186  11.3890  11.4537
    11.4816  11.4927  11.5517  11.7800  11.7965  11.8628  12.0251  12.0889
    12.0990  12.1445  12.1719  12.2778  12.3540  12.3896  12.4351  12.5174
    12.5703  12.6673  12.7071  12.7799  12.8310  12.9784  13.0163  13.1018
    13.1450  13.1982  13.2239  13.2858  13.3149  13.3488  13.4714  13.5586
    13.6848  13.7626  13.7835  13.9106  13.9619  13.9872  14.1786  14.2653
    14.3150  14.3490  14.4968  14.5512  14.5926  14.6728  14.8129  14.8917
    14.9481  15.0490  15.0650  15.1760  15.2506  15.3138  15.3373  15.5301
    15.5654  15.6208  15.7983  15.8554  16.1345  16.2229  16.2731  16.4053
    16.4069  16.4519  16.6289  16.8253  16.8881  16.9472  17.0015  17.0725
    17.1183  17.1881  17.3791  17.4787  17.6203  17.7026  17.7897  17.8332
    17.9224  18.0056  18.0770  18.1550  18.2911  18.3281  18.5095  18.5647
    18.6923  18.7432  18.8057  18.8295  18.9778  19.0694  19.1591  19.2446
    19.2691  19.3049  19.4318  19.4536  19.4746  19.6473  19.7133  19.7529
    19.8386  19.9065  19.9897  20.0512  20.0807  20.2107  20.2948  20.3419
    20.4000  20.4504  20.5120  20.6249  20.7067  20.7553  20.8980  20.9835
    21.0366  21.0712  21.1660  21.1943  21.2581  21.3408  21.3948  21.4844
    21.5098  21.5299  21.5627  21.5985  21.7320  21.7717

          k = 0.0000 0.2341 0.0000 ( 27088 PWs)   bands (ev):

   -75.7397 -75.2067 -75.1239 -75.1201 -75.0191 -74.9972 -74.9017 -74.8782
   -47.1477 -47.0568 -46.9675 -46.7058 -46.4972 -46.4918 -46.4685 -46.4602
   -46.4564 -46.4452 -46.4113 -46.3903 -46.3581 -46.3504 -46.3083 -46.2995
   -46.2814 -46.2683 -46.2602 -46.2578 -46.2214 -46.1998 -46.1884 -46.0618
   -21.0178 -20.5842 -20.3720 -20.2340 -20.0572 -20.0166 -19.8076 -19.6901
   -19.6170 -19.5906 -19.5143 -19.3000 -19.2059 -19.1966 -19.1430 -19.0904
   -19.0110 -18.9471 -18.8416  -9.6058  -9.3064  -9.2635  -9.1423  -9.0977
    -8.8609  -8.8349  -8.4453  -8.1003  -7.9498  -7.7369  -7.7062  -7.5421
    -7.5003  -7.4264  -7.1221  -7.0753  -6.9938  -6.9470  -6.9381  -6.8024
    -6.7750  -6.6974  -6.5361  -6.4845  -6.3598  -6.2050  -6.1599  -5.9155
    -5.8481  -5.6819  -5.6559  -5.6030  -5.5434  -5.4501  -5.3945  -5.3115
    -5.2958  -5.2607  -5.1830  -5.0057  -4.8822  -4.7927  -4.7374  -4.5776
    -4.5292  -4.4552  -4.3531  -4.2571  -4.1657  -4.0927  -4.0450  -3.9562
    -3.8745  -3.8238  -3.7888  -3.7710  -3.6390  -3.5015  -3.4635  -3.3807
    -3.2505  -3.1796  -3.0770  -2.8346  -2.8249  -2.7032  -2.6109  -2.4665
    -2.4227  -2.3506  -2.0850  -1.8125  -1.6509  -1.5980  -1.4589  -1.3392
    -1.3024  -1.2146  -1.1551  -1.0925  -0.1156   0.4001   0.4091   0.6229
     0.7805   1.2352   1.6529   1.8716   1.9585   1.9790   2.0818   2.1644
     2.2253   2.3392   2.5908   2.6133   3.4527   3.5801   4.0224   4.4831
     5.0080   5.4319   5.6233   5.8782   6.0943   6.3918   6.5636   7.0863
     7.1664   7.3110   7.4480   7.5294   7.7732   7.9838   8.2414   8.3440
     8.3859   8.4401   8.5068   8.6944   8.8170   8.8785   8.9687   9.1470
     9.1897   9.3474   9.4359   9.5284   9.6381   9.7339   9.8441  10.0295
    10.0590  10.1192  10.1617  10.2510  10.2725  10.3085  10.3462  10.4397
    10.4676  10.5988  10.6419  10.7754  10.8317  10.9238  11.0772  11.2115
    11.2746  11.3531  11.4659  11.6055  11.6450  11.6896  11.7642  11.7721
    11.8869  11.9956  12.1592  12.3286  12.3835  12.4536  12.5392  12.6521
    12.7646  12.8407  12.8816  13.0008  13.0390  13.1823  13.2984  13.4020
    13.4456  13.4809  13.5938  13.6808  13.7849  13.8999  13.9957  14.0588
    14.1129  14.1519  14.2354  14.2852  14.3105  14.3790  14.4549  14.4935
    14.5430  14.6224  14.6572  14.7126  14.7841  14.8431  14.9816  15.0080
    15.1193  15.2090  15.2591  15.3285  15.3811  15.4642  15.4973  15.5427
    15.6503  15.6940  15.7253  15.8098  15.8926  15.9569  16.0844  16.1222
    16.1766  16.2534  16.3954  16.4152  16.5431  16.6105  16.6795  16.8194
    16.8839  17.0275  17.1032  17.1658  17.2224  17.3160  17.3433  17.4777
    17.6083  17.6738  17.7095  17.9095  18.0863  18.1082  18.2641  18.3825
    18.4448  18.5357  18.5854  18.7201  18.7605  18.8537  18.9529  19.0621
    19.1036  19.1852  19.2562  19.2933  19.4601  19.5348  19.5716  19.6457
    19.8983  19.9456  19.9979  20.0270  20.1122  20.1719  20.2319  20.2842
    20.3571  20.3903  20.4089  20.4869  20.5415  20.6493  20.6944  20.7635
    20.7768  20.8237  20.9370  20.9856  21.0103  21.0894  21.1625  21.2213
    21.2777  21.3070  21.3717  21.4632  21.5664  21.6269

          k = 0.0000-0.4682 0.0000 ( 27136 PWs)   bands (ev):

   -75.7397 -75.2067 -75.1239 -75.1202 -75.0191 -74.9972 -74.9016 -74.8782
   -47.1477 -47.0568 -46.9673 -46.7058 -46.4974 -46.4910 -46.4674 -46.4599
   -46.4564 -46.4445 -46.4122 -46.3919 -46.3574 -46.3495 -46.3080 -46.2995
   -46.2841 -46.2683 -46.2599 -46.2576 -46.2211 -46.1997 -46.1884 -46.0619
   -20.8784 -20.5304 -20.3597 -20.2284 -20.1726 -20.0401 -19.7992 -19.7326
   -19.6128 -19.6002 -19.5626 -19.3120 -19.2910 -19.1768 -19.1467 -19.0805
   -18.9954 -18.9461 -18.8450  -9.4858  -9.4235  -9.1276  -9.0950  -9.0258
    -8.9198  -8.8689  -8.4497  -7.9592  -7.8075  -7.6244  -7.5823  -7.4388
    -7.3872  -7.3039  -7.1785  -7.0423  -6.9317  -6.8126  -6.7380  -6.6881
    -6.6665  -6.6490  -6.4799  -6.4665  -6.3696  -6.2737  -6.1480  -6.0644
    -5.9556  -5.8740  -5.8334  -5.7577  -5.6963  -5.6639  -5.5503  -5.5305
    -5.4440  -5.4135  -5.2191  -5.1404  -4.9677  -4.9075  -4.8251  -4.5992
    -4.5678  -4.5082  -4.4453  -4.1748  -4.1227  -4.0732  -3.9722  -3.8516
    -3.8318  -3.7655  -3.7348  -3.6395  -3.5893  -3.4780  -3.4462  -3.2571
    -3.1298  -3.0995  -3.0833  -2.9941  -2.9343  -2.7576  -2.6121  -2.5935
    -2.4247  -2.3315  -1.9164  -1.7899  -1.7763  -1.7064  -1.5169  -1.4371
    -1.3691  -1.2085  -1.1919  -0.9965   0.0205   0.0284   0.2122   0.3882
     1.0727   1.3296   1.8336   1.8885   1.9459   2.0411   2.0822   2.1289
     2.2089   2.2415   2.7584   3.0040   3.7883   4.1459   4.4713   4.6084
     4.7573   4.9175   5.2006   5.4327   5.7942   6.0738   6.5036   6.8715
     7.1089   7.4020   7.5465   7.6389   7.7869   7.9551   8.0997   8.2827
     8.3280   8.5854   8.7309   8.9758   9.0004   9.0576   9.1213   9.1614
     9.1934   9.2119   9.4498   9.5280   9.5503   9.6311   9.6480   9.7186
     9.8509   9.9221  10.0329  10.0864  10.2106  10.3383  10.3623  10.4675
    10.7162  10.7953  10.9324  10.9818  11.0314  11.0646  11.1658  11.2273
    11.3941  11.5419  11.5817  11.6740  11.7043  11.8496  12.0053  12.1965
    12.2292  12.2453  12.4211  12.4456  12.4945  12.5234  12.6057  12.7467
    12.8485  12.8972  12.9905  13.0547  13.1973  13.2031  13.2402  13.3576
    13.4526  13.5345  13.5420  13.6721  13.6990  13.7718  13.8045  13.9074
    14.1231  14.1834  14.2181  14.2562  14.4046  14.4723  14.5521  14.6117
    14.6528  14.6721  14.7172  14.7804  14.7993  14.9830  15.0531  15.1014
    15.1975  15.2511  15.2645  15.3128  15.3418  15.4675  15.6159  15.6304
    15.7530  15.8869  15.9418  16.0271  16.0546  16.1011  16.3373  16.4178
    16.4670  16.6211  16.6390  16.7611  16.7857  16.8618  16.8775  16.9360
    17.0073  17.0547  17.0743  17.0961  17.1405  17.4062  17.4560  17.5390
    17.5705  17.6353  17.7285  17.8194  17.9037  18.0019  18.0451  18.0756
    18.2370  18.2789  18.3238  18.4319  18.4451  18.4683  18.5582  18.5803
    18.6480  18.7052  18.7156  18.7937  18.9758  19.0383  19.0738  19.1427
    19.2142  19.2500  19.3369  19.3957  19.6489  19.7109  19.8610  19.9214
    20.0276  20.0921  20.1415  20.1953  20.2626  20.3367  20.4027  20.4204
    20.5600  20.7474  20.7553  20.7944  20.8438  20.8894  20.9424  21.0586
    21.1029  21.1364  21.1854  21.2513  21.2927  21.3243

          k = 0.2500 0.0000 0.0000 ( 27178 PWs)   bands (ev):

   -75.7394 -75.2061 -75.1238 -75.1195 -75.0189 -74.9972 -74.9003 -74.8790
   -47.1452 -47.0566 -46.9677 -46.7059 -46.4913 -46.4784 -46.4682 -46.4596
   -46.4554 -46.4487 -46.3903 -46.3883 -46.3597 -46.3519 -46.3281 -46.3002
   -46.2790 -46.2712 -46.2601 -46.2450 -46.2432 -46.1997 -46.1805 -46.0852
   -20.9835 -20.5749 -20.3379 -20.2124 -20.1145 -19.9695 -19.8275 -19.7232
   -19.7020 -19.5339 -19.4776 -19.2936 -19.2085 -19.1797 -19.1339 -19.0654
   -19.0308 -18.9747 -18.8717  -9.5313  -9.3295  -9.0624  -8.9455  -8.8482
    -8.6529  -8.3726  -8.3307  -8.1267  -8.0849  -8.0679  -7.9599  -7.8671
    -7.6781  -7.6144  -7.5053  -7.3299  -7.2395  -7.1927  -7.1068  -6.9665
    -6.8224  -6.6681  -6.5665  -6.4267  -6.3921  -6.1284  -6.0438  -5.9160
    -5.8039  -5.7010  -5.5695  -5.5245  -5.4584  -5.4424  -5.3787  -5.3299
    -5.2359  -5.1067  -5.0182  -4.9336  -4.8156  -4.7755  -4.6772  -4.6275
    -4.5907  -4.4567  -4.3347  -4.2648  -4.2028  -4.0828  -4.0544  -3.9980
    -3.9104  -3.8525  -3.7819  -3.6235  -3.5688  -3.5264  -3.4631  -3.3418
    -3.1681  -3.1076  -3.0113  -2.8772  -2.7029  -2.6673  -2.4428  -2.3104
    -2.2222  -2.1432  -1.9149  -1.8764  -1.8099  -1.6110  -1.4685  -1.3807
    -1.3611  -1.3052  -1.1354  -0.9835  -0.2093   0.3998   0.6130   1.0065
     1.2289   1.3934   1.4639   1.5295   1.6712   1.7129   1.8010   1.9371
     2.0132   2.0561   2.1954   2.6673   3.5383   3.6297   4.0668   4.5450
     5.0896   5.6757   5.7273   6.0139   6.3074   6.4408   6.7344   6.7876
     7.2288   7.3913   7.4683   7.5463   7.6384   7.8349   7.9152   7.9588
     8.0707   8.3299   8.4038   8.4946   8.7540   8.8679   9.0281   9.1135
     9.2321   9.3709   9.4281   9.5241   9.6328   9.8021   9.9377   9.9498
     9.9996  10.0833  10.1031  10.1808  10.2321  10.2582  10.3843  10.4815
    10.6050  10.6417  10.6772  10.8011  10.9409  11.0234  11.1147  11.2543
    11.3767  11.4149  11.4477  11.5881  11.6685  11.7165  11.8091  11.8537
    11.9969  12.1337  12.1912  12.3466  12.4147  12.5645  12.5819  12.6834
    12.7398  12.8540  12.9348  12.9893  13.0725  13.1133  13.2392  13.2678
    13.3228  13.4508  13.5490  13.5816  13.6892  13.8087  13.8963  14.0289
    14.1134  14.2152  14.3049  14.3848  14.4346  14.4517  14.5547  14.5948
    14.6080  14.6548  14.7104  14.7397  14.8526  14.9013  14.9738  15.1695
    15.2500  15.2928  15.3671  15.4369  15.5788  15.6594  15.7021  15.7350
    15.8460  15.8664  15.9956  16.0270  16.0930  16.2249  16.3236  16.4529
    16.4828  16.5706  16.6043  16.7243  16.9074  16.9315  17.0289  17.1116
    17.1705  17.2088  17.2318  17.3181  17.4431  17.5052  17.5925  17.6106
    17.6712  17.7370  17.8223  17.9114  18.0243  18.0751  18.1097  18.2141
    18.2984  18.3750  18.5008  18.6874  18.7167  18.8614  18.8881  18.9342
    18.9905  19.1220  19.2393  19.2797  19.4520  19.5103  19.6240  19.6563
    19.7018  19.7583  19.7849  19.8394  19.8887  19.9340  20.0649  20.1537
    20.1774  20.2382  20.3680  20.4064  20.4925  20.5298  20.5667  20.6739
    20.7777  20.8810  20.9375  21.0627  21.1285  21.1679  21.2000  21.2649
    21.2970  21.3183  21.3786  21.4539  21.4967  21.5449

          k = 0.2500 0.2341 0.0000 ( 27132 PWs)   bands (ev):

   -75.7394 -75.2061 -75.1239 -75.1195 -75.0190 -74.9971 -74.9002 -74.8790
   -47.1452 -47.0566 -46.9675 -46.7059 -46.4903 -46.4791 -46.4673 -46.4594
   -46.4554 -46.4477 -46.3909 -46.3903 -46.3592 -46.3514 -46.3277 -46.3002
   -46.2808 -46.2712 -46.2610 -46.2446 -46.2426 -46.1997 -46.1804 -46.0852
   -20.8985 -20.4822 -20.3229 -20.2776 -20.0971 -19.9850 -19.7980 -19.7261
   -19.6784 -19.6341 -19.4949 -19.3490 -19.2458 -19.2089 -19.1721 -19.0992
   -19.0012 -18.9604 -18.8652  -9.3921  -9.1080  -9.0626  -8.9372  -8.8783
    -8.7103  -8.6145  -8.3339  -8.0768  -7.9377  -7.8877  -7.8248  -7.7183
    -7.6044  -7.5020  -7.3654  -7.3053  -7.1548  -7.1069  -6.9775  -6.7897
    -6.7259  -6.6236  -6.5386  -6.3908  -6.3237  -6.2439  -6.0283  -5.9961
    -5.9136  -5.8747  -5.8047  -5.7656  -5.7183  -5.6086  -5.5389  -5.4788
    -5.4051  -5.3376  -5.2234  -5.1108  -5.0125  -4.8466  -4.7837  -4.6401
    -4.5588  -4.4808  -4.3960  -4.3155  -4.1765  -4.1012  -3.9983  -3.9329
    -3.8713  -3.7162  -3.5995  -3.5460  -3.4996  -3.3502  -3.2734  -3.1491
    -3.0998  -2.9698  -2.9180  -2.8220  -2.7348  -2.6137  -2.5515  -2.4470
    -2.4117  -2.3081  -2.1073  -1.8008  -1.6821  -1.6061  -1.4410  -1.3886
    -1.3466  -1.3220  -1.2500  -1.1537  -0.0558   0.3882   0.5275   0.7172
     0.8586   1.2326   1.4800   1.6543   1.7353   1.7951   1.8775   2.0273
     2.0883   2.3485   2.5634   2.6406   3.7256   3.8784   4.3064   4.7582
     5.2781   5.6762   5.8693   5.8762   6.0772   6.2614   6.3879   6.5438
     6.7134   6.8744   7.0176   7.3315   7.4415   7.6440   7.7884   7.9484
     8.1069   8.2699   8.4056   8.4716   8.6335   8.8046   8.9566   9.0614
     9.1898   9.2955   9.4434   9.5422   9.6175   9.6990   9.8189   9.9641
    10.0842  10.1467  10.2554  10.3989  10.4340  10.5532  10.6385  10.7080
    10.9084  10.9654  11.0246  11.1698  11.2380  11.3388  11.4104  11.5183
    11.5850  11.6647  11.7396  11.8731  11.9335  12.0113  12.1154  12.1466
    12.2730  12.3418  12.4972  12.5835  12.6253  12.6599  12.7579  12.8215
    12.9202  12.9375  12.9883  13.0504  13.0654  13.2006  13.2542  13.2868
    13.3658  13.5279  13.5776  13.6695  13.7031  13.7786  13.8391  13.9413
    13.9906  14.1691  14.2027  14.2821  14.3430  14.4052  14.5459  14.5820
    14.6864  14.7356  14.7890  14.8361  14.8740  14.9297  15.0812  15.1295
    15.1975  15.3676  15.4137  15.4422  15.5743  15.7019  15.7506  15.8308
    15.8691  15.9731  15.9963  16.0792  16.1478  16.1977  16.2954  16.3413
    16.4225  16.5018  16.5413  16.6365  16.7200  16.8102  16.8661  16.9545
    17.0364  17.0768  17.1222  17.2245  17.3324  17.3965  17.4425  17.4665
    17.5260  17.5732  17.5878  17.6484  17.7570  17.8439  17.9268  17.9953
    18.1063  18.1551  18.1789  18.2627  18.3470  18.4736  18.5133  18.6695
    18.7163  18.7881  18.8204  18.8635  18.8996  19.0112  19.0743  19.1502
    19.2363  19.3662  19.4011  19.4531  19.5087  19.5716  19.6310  19.6859
    19.7315  19.8482  19.8758  20.0444  20.1138  20.1755  20.2571  20.3709
    20.4266  20.4719  20.5291  20.6171  20.7324  20.7585  20.9144  20.9647
    21.0107  21.1307  21.1638  21.1883  21.3269  21.3556

          k = 0.2500-0.4682 0.0000 ( 27150 PWs)   bands (ev):

   -75.7394 -75.2062 -75.1239 -75.1195 -75.0190 -74.9971 -74.9002 -74.8789
   -47.1452 -47.0566 -46.9673 -46.7058 -46.4891 -46.4798 -46.4664 -46.4591
   -46.4554 -46.4467 -46.3925 -46.3919 -46.3579 -46.3502 -46.3273 -46.3002
   -46.2841 -46.2711 -46.2622 -46.2443 -46.2412 -46.1997 -46.1803 -46.0852
   -20.7810 -20.4112 -20.3133 -20.2831 -20.0931 -20.0556 -19.7767 -19.7676
   -19.6600 -19.6332 -19.5307 -19.4109 -19.3154 -19.2784 -19.1834 -19.0808
   -18.9846 -18.9509 -18.8666  -9.2966  -9.1903  -8.8901  -8.8706  -8.8103
    -8.7223  -8.6808  -8.3490  -8.0465  -7.8421  -7.7663  -7.5706  -7.4340
    -7.3940  -7.3130  -7.2374  -7.2042  -7.0639  -7.0026  -6.9446  -6.8792
    -6.6911  -6.6598  -6.5558  -6.5073  -6.4668  -6.3269  -6.2964  -6.2141
    -6.1351  -5.9273  -5.8551  -5.7722  -5.6857  -5.6472  -5.5728  -5.5341
    -5.4745  -5.4604  -5.3972  -5.3487  -5.1816  -5.1105  -4.9422  -4.7975
    -4.6146  -4.4901  -4.3780  -4.3490  -4.2263  -4.0846  -3.9615  -3.8992
    -3.8203  -3.6365  -3.5017  -3.4319  -3.3241  -3.2936  -3.1764  -3.1243
    -2.9954  -2.9425  -2.8468  -2.7849  -2.7398  -2.6260  -2.5303  -2.4947
    -2.4089  -2.3329  -1.9425  -1.8272  -1.7741  -1.7225  -1.5151  -1.4715
    -1.3746  -1.3006  -1.2759  -1.1493   0.0660   0.1494   0.3241   0.3665
     1.0734   1.3321   1.4659   1.5099   1.7216   1.8173   1.8743   2.0906
     2.3013   2.4019   2.7107   2.9040   4.0188   4.4202   4.7495   4.8835
     5.0285   5.1979   5.4644   5.7185   6.0317   6.2526   6.3589   6.5504
     6.7897   6.8843   7.0153   7.1899   7.2341   7.3562   7.4806   7.6866
     7.8200   7.9554   8.1409   8.3641   8.5134   8.6073   8.7040   8.8372
     9.0652   9.1902   9.3851   9.4503   9.6445   9.8387   9.9942  10.0332
    10.0991  10.2508  10.4063  10.5837  10.6565  10.8545  10.9548  11.0618
    11.2308  11.3487  11.4416  11.5009  11.6276  11.6844  11.7996  11.8567
    11.8990  11.9658  12.0320  12.0978  12.1278  12.1766  12.4088  12.5366
    12.5993  12.6635  12.7225  12.7355  12.8038  12.8964  12.9259  12.9732
    13.0141  13.0995  13.1354  13.1937  13.2504  13.3600  13.4176  13.4824
    13.5791  13.6791  13.7061  13.7918  13.8396  13.9549  14.0107  14.0293
    14.0720  14.1130  14.1541  14.2199  14.2678  14.3369  14.4409  14.5383
    14.6286  14.7686  14.8346  14.8849  14.9855  14.9941  15.0228  15.0728
    15.1250  15.1875  15.2268  15.3138  15.3195  15.3683  15.3914  15.4719
    15.5056  15.5990  15.6672  15.8053  15.8453  15.8509  15.9327  15.9816
    16.1589  16.2167  16.2758  16.3630  16.4652  16.5372  16.5939  16.6120
    16.7262  16.7896  16.8693  16.9563  17.0457  17.1075  17.2302  17.3454
    17.4471  17.5577  17.6307  17.7414  17.8211  17.9083  18.0537  18.0891
    18.1625  18.2292  18.2618  18.3101  18.3729  18.4112  18.4730  18.5062
    18.5613  18.6652  18.7040  18.7909  18.8811  18.9155  18.9522  19.0409
    19.1935  19.3005  19.3554  19.3964  19.4206  19.4549  19.5091  19.5372
    19.6561  19.6944  19.7311  19.7837  19.8825  19.8911  19.9619  19.9963
    20.1478  20.1883  20.3077  20.4517  20.5370  20.5992  20.6726  20.7241
    20.7745  20.7961  20.8480  20.8932  20.9570  21.0219

          k =-0.5000 0.0000 0.0000 ( 27158 PWs)   bands (ev):

   -75.7391 -75.2055 -75.1238 -75.1189 -75.0188 -74.9971 -74.8986 -74.8799
   -47.1426 -47.0565 -46.9677 -46.7059 -46.4885 -46.4670 -46.4624 -46.4590
   -46.4521 -46.4458 -46.3880 -46.3647 -46.3555 -46.3549 -46.3530 -46.3013
   -46.2805 -46.2752 -46.2739 -46.2595 -46.2286 -46.2055 -46.1450 -46.1324
   -20.6986 -20.6137 -20.3644 -20.2476 -20.0251 -20.0040 -19.9459 -19.8648
   -19.6330 -19.6034 -19.3937 -19.2514 -19.2430 -19.2235 -19.1386 -19.1289
   -19.0080 -18.9650 -18.9152  -9.0244  -8.9085  -8.8162  -8.7841  -8.6558
    -8.6310  -8.4864  -8.4288  -8.2724  -8.1642  -8.1120  -8.0284  -7.9964
    -7.8386  -7.7449  -7.6653  -7.3139  -7.2760  -7.1495  -7.0558  -6.7997
    -6.7229  -6.6432  -6.4733  -6.4492  -6.3524  -6.3334  -6.2421  -6.1279
    -6.1214  -5.9636  -5.8041  -5.7769  -5.6201  -5.4218  -5.3598  -5.2976
    -5.2807  -5.1726  -5.1322  -5.0125  -5.0070  -4.8963  -4.8255  -4.6968
    -4.5534  -4.3309  -4.1915  -4.1838  -4.1022  -3.9764  -3.9404  -3.8557
    -3.7909  -3.7342  -3.6764  -3.5943  -3.5158  -3.4731  -3.3784  -3.1108
    -3.0077  -2.9104  -2.8418  -2.7580  -2.7423  -2.6685  -2.6257  -2.3543
    -2.2099  -2.1677  -2.0808  -1.9247  -1.7626  -1.5633  -1.4690  -1.3339
    -1.2828  -1.2582  -1.2359  -1.2186  -0.1463   0.4853   0.7476   0.9577
     1.1626   1.2824   1.4699   1.5392   1.5681   1.6304   1.6360   1.7079
     1.7360   2.1233   2.3396   2.4712   4.0511   4.4471   4.4496   4.7250
     4.8908   5.0304   5.3401   5.5387   5.9214   6.1357   6.5722   6.8189
     7.1051   7.3028   7.5724   7.7413   7.8724   7.9722   8.2114   8.3543
[...]
     4.9711   5.1404   5.4193   5.6209   6.0003   6.1878   6.6446   6.8348
     7.1646   7.3009   7.5816   7.7239   7.8851   7.9755   8.2540   8.2925
     8.3392   8.5170   8.6015   8.6379   8.7932   8.8027   8.8384   8.8548
     8.9409   9.0312   9.2422   9.3359   9.4144   9.4597   9.5841   9.7141
     9.8419   9.9385  10.0767  10.2159  10.2721  10.3730  10.4199  10.4569
    10.6196  10.7655  10.8252  11.0168  11.1606  11.2191  11.3339  11.4195
    11.4723  11.5275  11.6481  11.7645  11.8595  11.9513  12.1423  12.2340
    12.3716  12.4481  12.5503  12.6303  12.8175  12.8597  12.9399  12.9604
    13.0139  13.0836  13.0924  13.2935  13.3546  13.4194  13.5913  13.6452
    13.7538  13.7742  13.8633  13.9115  13.9200  14.0334  14.0898  14.2256
    14.3648  14.4340  14.4679  14.5746  14.7432  14.7989  14.8274  14.8716
    14.9085  14.9992  15.0398  15.0639  15.1046  15.1555  15.2411  15.2766
    15.4160  15.4659  15.7469  15.8146  15.9017  15.9479  16.0116  16.0808
    16.1435  16.2650  16.3552  16.5508  16.6004  16.7199  16.7414  16.7724
    16.8354  16.9081  16.9475  17.1276  17.1611  17.2169  17.2938  17.3172
    17.4016  17.4814  17.5250  17.5780  17.6289  17.6441  17.6892  17.7128
    17.8027  17.8179  17.9144  17.9700  17.9938  18.0433  18.1939  18.2446
    18.2779  18.3917  18.4750  18.5780  18.6622  18.6881  18.7894  18.8497
    18.8819  19.0087  19.0792  19.1015  19.1673  19.2256  19.2425  19.3086
    19.3300  19.3980  19.5372  19.6443  19.7730  19.9308  19.9809  20.0392
    20.0560  20.0991  20.2376  20.3449  20.3910  20.3991  20.4734  20.5456
    20.5658  20.6161  20.6498  20.6701  20.7681  20.7836  20.8178  20.9895
    21.0162  21.0637  21.1127  21.1717  21.1792  21.2371

          k =-0.5000 0.2341 0.0000 ( 27132 PWs)   bands (ev):

   -72.5095 -72.4266 -72.4230 -72.3352 -72.3313 -72.3202 -72.2491 -72.2473
   -44.0391 -44.0257 -44.0251 -43.9649 -43.9272 -43.9270 -43.9258 -43.8853
   -43.8659 -43.8138 -43.8079 -43.6705 -43.6653 -43.6423 -43.6253 -43.6199
   -43.6193 -43.6074 -43.5790 -43.5488 -43.4267 -43.4125 -43.3814 -43.3761
   -20.9887 -20.9397 -20.7473 -20.6163 -20.4731 -20.4474 -20.3248 -20.2842
   -20.0711 -20.0421 -19.9922 -19.9377 -19.8557 -19.8395 -19.6012 -19.5955
   -19.5501 -19.3987 -19.3418  -8.4452  -8.4232  -7.9934  -7.8014  -7.7527
    -7.6890  -7.6253  -7.5191  -7.4767  -7.1966  -7.0994  -7.0708  -6.9825
    -6.8752  -6.8360  -6.7651  -6.7074  -6.3272  -6.3026  -6.2324  -6.1702
    -6.0931  -5.9771  -5.9369  -5.8688  -5.6890  -5.6456  -5.5397  -5.4855
    -5.4226  -5.3880  -5.2854  -5.2518  -5.1519  -5.1457  -4.9615  -4.9356
    -4.9090  -4.8051  -4.7864  -4.7077  -4.4870  -4.3186  -4.2605  -4.1991
    -4.1226  -4.0440  -3.9731  -3.9222  -3.8419  -3.7992  -3.7258  -3.6882
    -3.6304  -3.4727  -3.4244  -3.3585   1.5048   1.5998   1.6936   1.7871
     1.8172   1.8690   1.9057   1.9278   1.9489   2.0931   2.1375   2.1581
     2.2153   2.2216   2.2751   2.2875   2.3481   2.4057   2.4563   2.4638
     2.5637   2.6155   2.6977   2.7166   2.7821   2.8175   3.0099   3.0296
     3.0886   3.1511   3.1685   3.2240   3.2349   3.2563   3.3378   3.4244
     3.8396   3.9007   4.0270   4.0902   4.4143   4.6266   4.6344   5.1214
     5.2032   5.3660   5.6258   5.8306   6.1195   6.2625   6.4250   6.5692
     6.7317   6.9656   7.0826   7.1555   7.2370   7.3373   7.5768   7.6840
     7.7704   7.8880   8.2224   8.3543   8.5184   8.6324   8.7533   8.8292
     9.0633   9.2856   9.3126   9.5354   9.6303   9.7127   9.8572   9.9464
    10.2938  10.3820  10.5254  10.5483  10.6918  10.7608  10.8984  10.9428
    11.0116  11.0328  11.2088  11.3368  11.4660  11.5889  11.6429  11.7279
    11.7870  11.8476  11.9491  11.9952  12.2585  12.3855  12.4598  12.5424
    12.6112  12.6506  12.7563  12.8131  12.8615  12.9418  13.0637  13.1476
    13.1787  13.3210  13.4284  13.5186  13.5618  13.6099  13.6759  13.7426
    13.8529  13.9373  14.0614  14.1310  14.1440  14.2471  14.3356  14.4168
    14.4384  14.5029  14.5332  14.5978  14.6921  14.7465  14.8446  14.8746
    14.8915  14.9723  15.0412  15.1544  15.1831  15.2533  15.3086  15.4252
    15.4669  15.5474  15.6708  15.7840  15.8264  15.8420  15.9118  15.9261
    15.9765  16.0393  16.0920  16.1867  16.2090  16.2410  16.2734  16.3012
    16.3482  16.4465  16.5459  16.6189  16.6896  16.7330  16.7907  16.8086
    16.8752  16.9055  16.9714  17.0580  17.1926  17.2194  17.3147  17.3474
    17.3869  17.4133  17.4939  17.5561  17.6589  17.6952  17.8136  17.8750
    17.9280  17.9907  18.0560  18.0813  18.1756  18.3143  18.3355  18.4185
    18.4425  18.5171  18.5685  18.6944  18.9158  18.9625  19.0945  19.1604
    19.2384  19.3672  19.4807  19.5103  19.5669  19.6122  19.7261  19.7711
    19.8696  19.9175  19.9391  19.9642  20.0552  20.0966  20.1170  20.1468
    20.1798  20.2430  20.3836  20.4265  20.5207  20.6797  20.7517  20.8070
    20.8816  20.9243  20.9820  21.0431  21.2497  21.3040

          k =-0.5000-0.4682 0.0000 ( 27168 PWs)   bands (ev):

   -72.5095 -72.4266 -72.4230 -72.3351 -72.3313 -72.3203 -72.2491 -72.2473
   -44.0379 -44.0251 -44.0245 -43.9626 -43.9271 -43.9269 -43.9258 -43.8880
   -43.8590 -43.8174 -43.8155 -43.6705 -43.6653 -43.6425 -43.6255 -43.6202
   -43.6186 -43.6070 -43.5782 -43.5484 -43.4267 -43.4124 -43.3814 -43.3761
   -20.8753 -20.8315 -20.6602 -20.5828 -20.5400 -20.4614 -20.3082 -20.2767
   -20.2177 -20.1365 -20.0270 -19.9865 -19.9400 -19.8774 -19.5707 -19.5653
   -19.5235 -19.3949 -19.3423  -8.4144  -8.3958  -7.9485  -7.7090  -7.6631
    -7.3265  -7.1907  -7.1372  -7.1102  -7.0784  -7.0392  -6.8983  -6.8495
    -6.8327  -6.8241  -6.7315  -6.6253  -6.5652  -6.4823  -6.3704  -6.3222
    -6.2429  -6.1277  -6.0778  -5.9229  -5.8208  -5.8094  -5.7857  -5.7481
    -5.5952  -5.5156  -5.4592  -5.4215  -5.3658  -5.1851  -5.0353  -5.0253
    -4.8977  -4.8630  -4.8486  -4.7113  -4.4440  -4.3938  -4.2495  -4.1363
    -4.0875  -4.0409  -3.9697  -3.8956  -3.8617  -3.8065  -3.7590  -3.6913
    -3.6259  -3.4207  -3.3579  -3.3336   1.4818   1.5994   1.7363   1.7550
     1.8178   1.9559   1.9707   1.9824   2.0000   2.1824   2.2486   2.3302
     2.3521   2.4100   2.4422   2.4548   2.4733   2.4831   2.5521   2.5595
     2.5773   2.5957   2.6315   2.6470   2.6600   2.6825   2.7994   2.8327
     2.8795   2.9196   3.1071   3.1120   3.1162   3.4192   3.4307   3.4470
     3.9110   3.9227   3.9953   4.0058   4.5681   5.0661   5.0743   5.5248
     5.5259   5.7669   5.8110   5.8834   5.9236   6.0117   6.0744   6.1854
     6.3434   6.4883   6.5869   6.7048   6.9094   7.0632   7.2369   7.3749
     7.6024   7.7924   8.0217   8.1938   8.2660   8.4678   8.6552   8.8251
     9.0318   9.2056   9.2828   9.3927   9.4581   9.5311   9.8148  10.0211
    10.0900  10.3541  10.6687  10.8068  10.9695  11.0435  11.1425  11.2273
    11.2897  11.3785  11.4277  11.8533  12.0274  12.2773  12.4020  12.4163
    12.4875  12.5579  12.5942  12.6474  12.8247  12.9938  13.0230  13.0894
    13.1869  13.2503  13.3274  13.3967  13.4689  13.5183  13.5327  13.6258
    13.6346  13.6652  13.7080  13.7336  13.7812  13.8055  13.8234  13.9788
    14.0143  14.0435  14.0703  14.1263  14.1393  14.2568  14.2909  14.3899
    14.4638  14.4771  14.6014  14.6484  14.6567  14.7085  14.7671  14.7885
    14.8052  14.8205  14.8526  14.8635  14.8879  14.9732  15.0962  15.1287
    15.1473  15.2303  15.2344  15.2621  15.3053  15.3412  15.3929  15.4158
    15.5338  15.6209  15.6457  15.7304  15.7659  15.7885  15.8280  15.8672
    15.9224  15.9949  16.0260  16.0683  16.1984  16.3046  16.4068  16.4965
    16.5805  16.6136  16.6808  16.7845  16.7910  16.9305  16.9766  17.0128
    17.0670  17.0792  17.1164  17.1693  17.1948  17.2644  17.2896  17.3846
    17.4866  17.7083  17.7861  17.9144  17.9202  17.9648  18.0262  18.0679
    18.1416  18.2372  18.2671  18.4055  18.5908  18.6963  18.7643  18.8767
    18.8957  18.9541  19.0072  19.0917  19.1489  19.1591  19.2908  19.4080
    19.6371  20.0037  20.0105  20.0841  20.1221  20.2680  20.3243  20.3933
    20.4320  20.4804  20.7514  20.8384  20.8831  20.9667  21.0703  21.1780
    21.3101  21.4625  21.5530  21.5739  21.6676  21.7226

          k =-0.2500 0.2341 0.0000 ( 27132 PWs)   bands (ev):

   -72.5096 -72.4259 -72.4230 -72.3367 -72.3306 -72.3180 -72.2533 -72.2424
   -44.0415 -44.0254 -44.0236 -43.9671 -43.9307 -43.9270 -43.9219 -43.8859
   -43.8657 -43.8142 -43.8074 -43.6808 -43.6711 -43.6649 -43.6592 -43.6486
   -43.6189 -43.6074 -43.5270 -43.5047 -43.4712 -43.4430 -43.3627 -43.3147
   -21.2657 -20.9163 -20.6635 -20.6426 -20.4890 -20.3474 -20.2674 -20.1916
   -20.1568 -20.0480 -19.9783 -19.9078 -19.8379 -19.8261 -19.6284 -19.5871
   -19.5023 -19.4167 -19.3278  -8.5932  -8.4329  -8.1533  -8.0278  -7.8750
    -7.8503  -7.5522  -7.4291  -7.3118  -7.2465  -7.1612  -6.9852  -6.9358
    -6.8821  -6.8262  -6.7831  -6.6118  -6.5621  -6.3625  -6.3192  -6.1724
    -6.0894  -5.9584  -5.8448  -5.7678  -5.7097  -5.6389  -5.5946  -5.4147
    -5.4035  -5.3597  -5.2851  -5.1899  -5.1599  -5.1027  -5.0180  -4.9632
    -4.8424  -4.5607  -4.5220  -4.3648  -4.3476  -4.2761  -4.2536  -4.1908
    -4.1467  -4.0771  -4.0347  -3.9785  -3.9351  -3.8400  -3.7771  -3.7625
    -3.5631  -3.4961  -3.4146  -3.2635   1.4700   1.5745   1.6503   1.7325
     1.7943   1.8197   1.8690   1.8879   1.9621   2.0124   2.0575   2.0883
     2.1473   2.1805   2.2783   2.3186   2.3481   2.4628   2.5017   2.5320
     2.5621   2.6043   2.7293   2.7526   2.7998   2.8676   2.9054   2.9545
     3.0280   3.1194   3.1635   3.3454   3.3936   3.5249   3.5968   3.6141
     3.7036   3.8718   3.9197   3.9664   4.0113   4.2412   4.3924   4.8469
     5.3656   5.6857   5.7948   5.9893   6.2397   6.3396   6.4897   6.6133
     6.7928   6.9097   7.0309   7.3118   7.4698   7.7036   7.8884   7.9639
     8.1229   8.3211   8.4251   8.5693   8.6663   8.8416   8.9461   9.0761
     9.2252   9.2587   9.3671   9.4949   9.5724   9.7321   9.8187  10.0219
    10.1489  10.2057  10.2666  10.3673  10.4547  10.6634  10.6908  10.8229
    10.8653  11.0118  11.0767  11.1749  11.2914  11.3655  11.4537  11.6102
    11.6196  11.7552  11.8118  11.9338  12.0208  12.0994  12.1714  12.2447
    12.3366  12.3870  12.5277  12.6138  12.7328  12.7924  12.8774  12.8984
    12.9426  12.9807  13.0539  13.1300  13.1847  13.2533  13.3272  13.3829
    13.5211  13.6168  13.6814  13.7056  13.8199  13.8753  13.8945  14.0185
    14.1554  14.1810  14.2821  14.3890  14.4509  14.5898  14.6215  14.6871
    14.7480  14.8239  14.8911  14.9683  15.0207  15.1741  15.2645  15.3314
    15.4142  15.4795  15.5636  15.6120  15.6908  15.7652  15.8673  15.9990
    16.0176  16.0929  16.1610  16.2311  16.2995  16.3377  16.4296  16.4672
    16.5289  16.6970  16.7089  16.8179  16.8601  16.9298  17.0230  17.0777
    17.1745  17.1862  17.2861  17.3588  17.4127  17.5038  17.5463  17.6179
    17.7144  17.7573  17.8001  17.8465  17.9177  18.0013  18.0854  18.1541
    18.2452  18.2847  18.3552  18.3982  18.4340  18.6164  18.7160  18.7533
    18.8307  18.8924  18.9527  18.9952  19.0553  19.1890  19.2218  19.3221
    19.3747  19.4195  19.5384  19.6235  19.6785  19.6918  19.7666  19.8837
    19.9140  19.9759  20.1248  20.1686  20.2556  20.3062  20.3984  20.5041
    20.5667  20.6597  20.6956  20.8396  20.8994  20.9443  21.0656  21.1032
    21.1595  21.2404  21.3155  21.3925  21.4240  21.5077

     the spin up/dw Fermi energies are    -2.1727   -2.2805 ev

!    total energy              =   -2024.60591629 Ry
     Harris-Foulkes estimate   =   -2024.60591628 Ry
     estimated scf accuracy    <          7.5E-09 Ry

     The total energy is the sum of the following terms:

     one-electron contribution =  -23960.72447723 Ry
     hartree contribution      =   12000.43828819 Ry
     xc contribution           =    -323.22496028 Ry
     ewald contribution        =   10256.73714184 Ry
     Hubbard energy            =       2.16722769 Ry
     smearing contrib. (-TS)   =       0.00086351 Ry

     total magnetization       =    15.00 Bohr mag/cell
     absolute magnetization    =    28.24 Bohr mag/cell

     convergence has been achieved in  14 iterations

     Forces acting on atoms (Ry/au):


     negative rho (up, down):  0.551E-02 0.184E-02
     atom    1 type  1   force =    -0.00382609   -0.01045583    0.00007275
     atom    2 type  1   force =     0.00004061    0.00429621    0.00019261
     atom    3 type  2   force =     0.02650353    0.00129908    0.00006073
     atom    4 type  2   force =     0.00424789    0.00555435   -0.00045046
     atom    5 type  1   force =     0.00011146    0.00692192   -0.00024149
     atom    6 type  1   force =     0.00137383   -0.00532587   -0.00016494
     atom    7 type  1   force =     0.00156225   -0.00236487    0.00016548
     atom    8 type  1   force =     0.00013358   -0.00001541    0.00079412
     atom    9 type  2   force =     0.00597472    0.00099661   -0.00001915
     atom   10 type  2   force =    -0.00317164   -0.00017069   -0.00016797
     atom   11 type  1   force =    -0.02398701   -0.03624085   -0.00022349
     atom   12 type  1   force =    -0.02347575    0.03602354   -0.00021968
     atom   13 type  1   force =    -0.00097089   -0.00008155    0.00030445
     atom   14 type  1   force =    -0.00567274   -0.01133004    0.00021039
     atom   15 type  1   force =     0.00018775    0.00495767   -0.00031505
     atom   16 type  2   force =    -0.02632938    0.00213095   -0.00000727
     atom   17 type  2   force =     0.00472323    0.00560300   -0.00047962
     atom   18 type  1   force =     0.00000919    0.00670522   -0.00017687
     atom   19 type  1   force =     0.00134027   -0.00557806   -0.00010345
     atom   20 type  1   force =    -0.00113986   -0.00326636    0.00049316
     atom   21 type  1   force =    -0.00279604   -0.00009591    0.00051402
     atom   22 type  2   force =    -0.00324506   -0.00066481    0.00099197
     atom   23 type  2   force =    -0.00021500    0.00060044    0.00094077
     atom   24 type  1   force =     0.02329968   -0.02952845   -0.00057913
     atom   25 type  1   force =     0.02396862    0.02982805   -0.00056600
     atom   26 type  1   force =     0.00007515    0.00006578   -0.00039336
     atom   27 type  3   force =     0.00000008   -0.00002031    0.00001447
     atom   28 type  3   force =     0.00000657    0.00027103   -0.00013471
     atom   29 type  3   force =    -0.00015029   -0.00003352   -0.00033737
     atom   30 type  3   force =    -0.00017365   -0.00003305   -0.00032219
     atom   31 type  1   force =     0.00069814    0.00001325    0.00021018
     atom   32 type  3   force =     0.00089688   -0.00006156   -0.00006288

     Total force =     0.002554     Total SCF correction =     0.000391
     SCF correction compared to forces is large: reduce conv_thr to get better values

     bfgs converged in  21 scf cycles and  20 bfgs steps
     (criteria: energy < 0.10E-03, force < 0.10E-02)

     End of BFGS Geometry Optimization

     Final energy   =   -2024.6059162865 Ry
Begin final coordinates

ATOMIC_POSITIONS (crystal)
O0       0.000000000   0.000000000   0.376476730    0   0   1
O0       0.000000000   0.500000000   0.396810891    0   0   1
Cr1      0.250000000   0.500000000   0.449107873    0   0   1
Cr1      0.000000000   0.000000000   0.449553308    0   0   1
O0       0.250000000   0.800000000   0.449298298    0   0   1
O0       0.250000000   0.200000000   0.449320405    0   0   1
O0       0.000000000   0.500000000   0.496652105    0   0   1
O0       0.000000000   0.000000000   0.523822364    0   0   1
Cr1      0.250000000   0.000000000   0.575558596    0   0   1
Cr1      0.000000000   0.500000000   0.565874331    0   0   1
O0       0.250000000   0.700000000   0.575319084    0   0   1
O0       0.250000000   0.300000000   0.575442781    0   0   1
O0       0.000000000   0.000000000   0.621870462    0   0   1
O0       0.500000000   0.000000000   0.376494591    0   0   1
O0       0.500000000   0.500000000   0.397188350    0   0   1
Cr1      0.750000000   0.500000000   0.449121326    0   0   1
Cr1      0.500000000   0.000000000   0.449896632    0   0   1
O0       0.750000000   0.800000000   0.449320637    0   0   1
O0       0.750000000   0.200000000   0.449297150    0   0   1
O0       0.500000000   0.500000000   0.499739113    0   0   1
O0       0.500000000   0.000000000   0.524392348    0   0   1
Cr1      0.750000000   0.000000000   0.575607803    0   0   1
Cr1      0.500000000   0.500000000   0.577468736    0   0   1
O0       0.750000000   0.700000000   0.574172306    0   0   1
O0       0.750000000   0.300000000   0.574133300    0   0   1
O0       0.500000000   0.000000000   0.622371893    0   0   1
H2      -0.000780354   0.637470931   0.377641964
H2       0.499435821   0.637747826   0.378094121
H2       0.158743918   0.028547868   0.364017399
H2       0.658198477   0.029540021   0.363948038
O0       0.518446986   0.499881624   0.648641503
H2       0.368257575   0.497708057   0.666075562
End final coordinates



     init_run     :    111.90s CPU    117.18s WALL (       1 calls)
     electrons    : 118256.97s CPU 123986.02s WALL (      21 calls)
     update_pot   :    357.26s CPU    370.58s WALL (      20 calls)
     forces       :   4064.42s CPU   4273.88s WALL (      21 calls)

     Called by init_run:
     wfcinit      :     47.03s CPU     51.00s WALL (       1 calls)
     potinit      :      7.55s CPU      7.94s WALL (       1 calls)

     Called by electrons:
     c_bands      :  65652.43s CPU  69101.83s WALL (     518 calls)
     sum_band     :  26826.40s CPU  28009.75s WALL (     518 calls)
     v_of_rho     :   1138.65s CPU   1345.86s WALL (     533 calls)
     newd         :  24844.38s CPU  24936.87s WALL (     533 calls)
     mix_rho      :    192.20s CPU    200.13s WALL (     518 calls)

     Called by c_bands:
     init_us_2    :    140.85s CPU    141.85s WALL (    5500 calls)
     cegterg      :  63930.63s CPU  66046.63s WALL (    2590 calls)

     Called by *egterg:
     h_psi        :  36656.44s CPU  38095.03s WALL (    6934 calls)
     s_psi        :   3916.70s CPU   3967.22s WALL (    7144 calls)
     g_psi        :     85.16s CPU     85.28s WALL (    4339 calls)
     cdiaghg      :   5896.53s CPU   5912.70s WALL (    6799 calls)

     Called by h_psi:
     add_vuspsi   :   3820.39s CPU   3874.95s WALL (    6934 calls)
     vhpsi        :   3512.99s CPU   3599.34s WALL (    6934 calls)

     General routines
     calbec       :   8925.25s CPU   9079.78s WALL (   49708 calls)
     fft          :   1223.25s CPU   1536.74s WALL (   16760 calls)
     ffts         :     14.35s CPU     15.19s WALL (    2102 calls)
     fftw         :  20522.73s CPU  22096.13s WALL ( 4515278 calls)
     interpolate  :    143.99s CPU    146.16s WALL (    2102 calls)
     davcio       :      0.37s CPU     75.77s WALL (    5605 calls)

     Parallel routines
     fft_scatter  :   8083.07s CPU   9926.90s WALL ( 4534140 calls)
     Hubbard U routines
     new_ns       :    811.15s CPU    864.87s WALL (     518 calls)
     vhpsi        :   3512.99s CPU   3599.34s WALL (    6934 calls)
     force_hub    :   1043.45s CPU   1097.86s WALL (      21 calls)

     PWSCF        :     1d   10h23m CPU        1d   12h 3m WALL


   This run was terminated on:  13:44:48   6May2014            

=------------------------------------------------------------------------------=
   JOB DONE.
=------------------------------------------------------------------------------=
---------------------------------------
Running PBS batch system epilogue script
Job id: 340732.audhumbla.fysik.dtu.dk
Username: zhonxu
Groupname: campgst
Jobname: CrO2/Eads-2-layers/OH-U-5.0
Sessionid: 20996
Resources limits: neednodes=2:ppn=8:xeon8,nodes=2:ppn=8:xeon8,walltime=48:00:00
Resources used: cput=576:02:34,mem=17365868kb,vmem=21457216kb,walltime=36:03:17
Queuename: verylong
Accounting:
This job has allocated the following 16 nodes:
a059 a059 a059 a059 a059 a059 a059 a059 a051 a051 a051 a051 a051 a051 a051 a051
Finished epilogue job 340732.audhumbla.fysik.dtu.dk for zhonxu
