
     Program PWSCF v.5.0.2 (svn rev. 9656) starts on  9Feb2014 at  0:33:16 

     This program is part of the open-source Quantum ESPRESSO suite
     for quantum simulation of materials; please cite
         "P. Giannozzi et al., J. Phys.:Condens. Matter 21 395502 (2009);
          URL http://www.quantum-espresso.org", 
     in publications or presentations arising from this work. More details at
     http://www.quantum-espresso.org/quote.php

     Parallel version (MPI), running on    16 processors
     R & G space division:  proc/nbgrp/npool/nimage =      16

     Current dimensions of program PWSCF are:
     Max number of different atomic species (ntypx) = 10
     Max number of k-points (npk) =  40000
     Max angular momentum in pseudopotentials (lmaxx) =  3
     Reading input from NbO2-1-pert.in
Warning: card &IONS ignored
Warning: card / ignored
Warning: card &CELL ignored
Warning: card / ignored

     Subspace diagonalization in iterative solution of the eigenvalue problem:
     a serial algorithm will be used


     Parallelization info
     --------------------
     sticks:   dense  smooth     PW     G-vecs:    dense   smooth      PW
     Min         866     277     77                46024     8324    1231
     Max         867     278     79                46027     8339    1232
     Sum       13865    4437   1237               736407   133305   19699



     bravais-lattice index     =            0
     lattice parameter (alat)  =      18.6705  a.u.
     unit-cell volume          =    3899.7090 (a.u.)^3
     number of atoms/cell      =           48
     number of atomic types    =            3
     number of electrons       =       400.00
     number of Kohn-Sham states=          600
     kinetic-energy cutoff     =      40.0000  Ry
     charge density cutoff     =     500.0000  Ry
     convergence threshold     =      1.0E-06
     mixing beta               =       0.7000
     number of iterations used =            8  plain     mixing
     Exchange-correlation      = SLA  PW   PBE  PBE ( 1 4 3 4 0)
     EXX-fraction              =        0.00

     celldm(1)=  18.670494  celldm(2)=   0.000000  celldm(3)=   0.000000
     celldm(4)=   0.000000  celldm(5)=   0.000000  celldm(6)=   0.000000

     crystal axes: (cart. coord. in units of alat)
               a(1) = (   1.000000   0.000000   0.000000 )  
               a(2) = (   0.000000   1.000000   0.000000 )  
               a(3) = (   0.000000   0.000000   0.599190 )  

     reciprocal axes: (cart. coord. in units 2 pi/alat)
               b(1) = (  1.000000  0.000000  0.000000 )  
               b(2) = (  0.000000  1.000000  0.000000 )  
               b(3) = (  0.000000  0.000000  1.668919 )  


     PseudoPot. # 1 for Nb read from file:
     /home/camp/zhonxu/pseudo/nb_pbe_v1.uspp.F.UPF
     MD5 check sum: 573aab8a2fa660278ed4a62cd769473f
     Pseudo is Ultrasoft + core correction, Zval = 13.0
     Generated by new atomic code, or converted to UPF format
     Using radial grid of  887 points,  6 beta functions with: 
                l(1) =   0
                l(2) =   0
                l(3) =   1
                l(4) =   1
                l(5) =   2
                l(6) =   2
     Q(r) pseudized with  6 coefficients,  rinner =    1.000   1.000   1.000
                                                       1.000   1.000

     PseudoPot. # 2 for Nb read from file:
     /home/camp/zhonxu/pseudo/nb_pbe_v1.uspp.F.UPF
     MD5 check sum: 573aab8a2fa660278ed4a62cd769473f
     Pseudo is Ultrasoft + core correction, Zval = 13.0
     Generated by new atomic code, or converted to UPF format
     Using radial grid of  887 points,  6 beta functions with: 
                l(1) =   0
                l(2) =   0
                l(3) =   1
                l(4) =   1
                l(5) =   2
                l(6) =   2
     Q(r) pseudized with  6 coefficients,  rinner =    1.000   1.000   1.000
                                                       1.000   1.000

     PseudoPot. # 3 for O  read from file:
     /home/camp/zhonxu/pseudo/o_pbe_v1.01.uspp.F.UPF
     MD5 check sum: 2bcb18d16ea4b960afae9ec6d52f22d2
     Pseudo is Ultrasoft + core correction, Zval =  6.0
     Generated by new atomic code, or converted to UPF format
     Using radial grid of  737 points,  5 beta functions with: 
                l(1) =   0
                l(2) =   0
                l(3) =   1
                l(4) =   1
                l(5) =   2
     Q(r) pseudized with  8 coefficients,  rinner =    0.900   0.900   0.900
                                                       0.900   0.900

     atomic species   valence    mass     pseudopotential
        Nb0           13.00    92.90640     Nb( 1.00)
        Nb1           13.00    92.90640     Nb( 1.00)
        O2             6.00    15.99940     O ( 1.00)

     Starting magnetic structure 
     atomic species   magnetization
        Nb0          0.000
        Nb1          0.000
        O2           0.000


     Simplified LDA+U calculation (l_max = 2) with parameters (eV):
     atomic species    L          U    alpha       J0     beta
        Nb0            2     0.0000   0.0000   0.0000   0.0000
        Nb1            2     0.0000   0.0000   0.0000   0.0000
        O2             1     0.0000   0.0000   0.0000   0.0000



      8 Sym. Ops., with inversion, found



   Cartesian axes

     site n.     atom                  positions (alat units)
         1           Nb0 tau(   1) = (   0.0000000   0.0000000   0.0000000  )
         2           Nb1 tau(   2) = (   0.2500000   0.2500000   0.1497976  )
         3           Nb1 tau(   3) = (   0.0000000   0.0000000   0.2995951  )
         4           Nb1 tau(   4) = (   0.2500000   0.2500000   0.4493927  )
         5           Nb1 tau(   5) = (   0.0000000   0.5000000   0.0000000  )
         6           Nb1 tau(   6) = (   0.2500000   0.7500000   0.1497976  )
         7           Nb1 tau(   7) = (   0.0000000   0.5000000   0.2995951  )
         8           Nb1 tau(   8) = (   0.2500000   0.7500000   0.4493927  )
         9           Nb1 tau(   9) = (   0.5000000   0.0000000   0.0000000  )
        10           Nb1 tau(  10) = (   0.7500000   0.2500000   0.1497976  )
        11           Nb1 tau(  11) = (   0.5000000   0.0000000   0.2995951  )
        12           Nb1 tau(  12) = (   0.7500000   0.2500000   0.4493927  )
        13           Nb1 tau(  13) = (   0.5000000   0.5000000   0.0000000  )
        14           Nb1 tau(  14) = (   0.7500000   0.7500000   0.1497976  )
        15           Nb1 tau(  15) = (   0.5000000   0.5000000   0.2995951  )
        16           Nb1 tau(  16) = (   0.7500000   0.7500000   0.4493927  )
        17           O2  tau(  17) = (   0.1450000   0.1450000   0.0000000  )
        18           O2  tau(  18) = (  -0.1450000  -0.1450000   0.0000000  )
        19           O2  tau(  19) = (   0.3950000   0.1050000   0.1497976  )
        20           O2  tau(  20) = (   0.1050000   0.3950000   0.1497976  )
        21           O2  tau(  21) = (   0.1450000   0.1450000   0.2995951  )
        22           O2  tau(  22) = (  -0.1450000  -0.1450000   0.2995951  )
        23           O2  tau(  23) = (   0.3950000   0.1050000   0.4493927  )
        24           O2  tau(  24) = (   0.1050000   0.3950000   0.4493927  )
        25           O2  tau(  25) = (   0.1450000   0.6450000   0.0000000  )
        26           O2  tau(  26) = (  -0.1450000   0.3550000   0.0000000  )
        27           O2  tau(  27) = (   0.3950000   0.6050000   0.1497976  )
        28           O2  tau(  28) = (   0.1050000   0.8950000   0.1497976  )
        29           O2  tau(  29) = (   0.1450000   0.6450000   0.2995951  )
        30           O2  tau(  30) = (  -0.1450000   0.3550000   0.2995951  )
        31           O2  tau(  31) = (   0.3950000   0.6050000   0.4493927  )
        32           O2  tau(  32) = (   0.1050000   0.8950000   0.4493927  )
        33           O2  tau(  33) = (   0.6450000   0.1450000   0.0000000  )
        34           O2  tau(  34) = (   0.3550000  -0.1450000   0.0000000  )
        35           O2  tau(  35) = (   0.8950000   0.1050000   0.1497976  )
        36           O2  tau(  36) = (   0.6050000   0.3950000   0.1497976  )
        37           O2  tau(  37) = (   0.6450000   0.1450000   0.2995951  )
        38           O2  tau(  38) = (   0.3550000  -0.1450000   0.2995951  )
        39           O2  tau(  39) = (   0.8950000   0.1050000   0.4493927  )
        40           O2  tau(  40) = (   0.6050000   0.3950000   0.4493927  )
        41           O2  tau(  41) = (   0.6450000   0.6450000   0.0000000  )
        42           O2  tau(  42) = (   0.3550000   0.3550000   0.0000000  )
        43           O2  tau(  43) = (   0.8950000   0.6050000   0.1497976  )
        44           O2  tau(  44) = (   0.6050000   0.8950000   0.1497976  )
        45           O2  tau(  45) = (   0.6450000   0.6450000   0.2995951  )
        46           O2  tau(  46) = (   0.3550000   0.3550000   0.2995951  )
        47           O2  tau(  47) = (   0.8950000   0.6050000   0.4493927  )
        48           O2  tau(  48) = (   0.6050000   0.8950000   0.4493927  )

     number of k points=    42  Methfessel-Paxton smearing, width (Ry)=  0.0100
                       cart. coord. in units 2pi/alat
        k(    1) = (   0.0000000   0.0000000   0.0000000), wk =   0.0156250
        k(    2) = (   0.0000000   0.0000000   0.4172297), wk =   0.0312500
        k(    3) = (   0.0000000   0.0000000  -0.8344595), wk =   0.0156250
        k(    4) = (   0.0000000   0.2500000   0.0000000), wk =   0.0625000
        k(    5) = (   0.0000000   0.2500000   0.4172297), wk =   0.1250000
        k(    6) = (   0.0000000   0.2500000  -0.8344595), wk =   0.0625000
        k(    7) = (   0.0000000  -0.5000000   0.0000000), wk =   0.0312500
        k(    8) = (   0.0000000  -0.5000000   0.4172297), wk =   0.0625000
        k(    9) = (   0.0000000  -0.5000000  -0.8344595), wk =   0.0312500
        k(   10) = (   0.2500000   0.2500000   0.0000000), wk =   0.0312500
        k(   11) = (   0.2500000   0.2500000   0.4172297), wk =   0.0625000
        k(   12) = (   0.2500000   0.2500000  -0.8344595), wk =   0.0312500
        k(   13) = (   0.2500000  -0.5000000   0.0000000), wk =   0.0625000
        k(   14) = (   0.2500000  -0.5000000   0.4172297), wk =   0.1250000
        k(   15) = (   0.2500000  -0.5000000  -0.8344595), wk =   0.0625000
        k(   16) = (  -0.5000000  -0.5000000   0.0000000), wk =   0.0156250
        k(   17) = (  -0.5000000  -0.5000000   0.4172297), wk =   0.0312500
        k(   18) = (  -0.5000000  -0.5000000  -0.8344595), wk =   0.0156250
        k(   19) = (  -0.2500000   0.2500000   0.0000000), wk =   0.0312500
        k(   20) = (  -0.2500000   0.2500000  -0.4172297), wk =   0.0625000
        k(   21) = (  -0.2500000   0.2500000   0.8344595), wk =   0.0312500
        k(   22) = (   0.0000000   0.0000000   0.0000000), wk =   0.0156250
        k(   23) = (   0.0000000   0.0000000   0.4172297), wk =   0.0312500
        k(   24) = (   0.0000000   0.0000000  -0.8344595), wk =   0.0156250
        k(   25) = (   0.0000000   0.2500000   0.0000000), wk =   0.0625000
        k(   26) = (   0.0000000   0.2500000   0.4172297), wk =   0.1250000
        k(   27) = (   0.0000000   0.2500000  -0.8344595), wk =   0.0625000
        k(   28) = (   0.0000000  -0.5000000   0.0000000), wk =   0.0312500
        k(   29) = (   0.0000000  -0.5000000   0.4172297), wk =   0.0625000
        k(   30) = (   0.0000000  -0.5000000  -0.8344595), wk =   0.0312500
        k(   31) = (   0.2500000   0.2500000   0.0000000), wk =   0.0312500
        k(   32) = (   0.2500000   0.2500000   0.4172297), wk =   0.0625000
        k(   33) = (   0.2500000   0.2500000  -0.8344595), wk =   0.0312500
        k(   34) = (   0.2500000  -0.5000000   0.0000000), wk =   0.0625000
        k(   35) = (   0.2500000  -0.5000000   0.4172297), wk =   0.1250000
        k(   36) = (   0.2500000  -0.5000000  -0.8344595), wk =   0.0625000
        k(   37) = (  -0.5000000  -0.5000000   0.0000000), wk =   0.0156250
        k(   38) = (  -0.5000000  -0.5000000   0.4172297), wk =   0.0312500
        k(   39) = (  -0.5000000  -0.5000000  -0.8344595), wk =   0.0156250
        k(   40) = (  -0.2500000   0.2500000   0.0000000), wk =   0.0312500
        k(   41) = (  -0.2500000   0.2500000  -0.4172297), wk =   0.0625000
        k(   42) = (  -0.2500000   0.2500000   0.8344595), wk =   0.0312500

     Dense  grid:   736407 G-vectors     FFT dimensions: ( 135, 135,  80)

     Smooth grid:   133305 G-vectors     FFT dimensions: (  75,  75,  45)

     Largest allocated arrays     est. size (Mb)     dimensions
        Kohn-Sham Wavefunctions         9.61 Mb     (   1050,  600)
        Atomic wavefunctions            5.38 Mb     (   1050,  336)
        NL pseudopotentials            11.28 Mb     (   1050,  704)
        Each V/rho on FFT grid          2.78 Mb     (  91125,   2)
        Each G-vector array             0.35 Mb     (  46027)
        G-vector shells                 0.13 Mb     (  17055)
     Largest temporary arrays     est. size (Mb)     dimensions
        Auxiliary wavefunctions        38.45 Mb     (   1050, 2400)
        Each subspace H/S matrix       87.89 Mb     (2400,2400)
        Each <psi_i|beta_j> matrix      6.45 Mb     (    704,  600)
        Arrays for rho mixing          11.12 Mb     (  91125,   8)

     Check: negative/imaginary core charge=   -0.000007    0.000000

     Initial potential from superposition of free atoms

     starting charge  399.95622, renormalised to  400.00000
     Number of +U iterations with fixed ns =  0
     Starting occupations:
 --- enter write_ns ---
 LDA+U parameters:
U( 1)     =  0.00000000
alpha( 1) =  0.00000000
U( 2)     =  0.00000000
alpha( 2) =  0.00000000
U( 3)     =  0.00000000
alpha( 3) =  0.00000000
atom    1   Tr[ns(na)] (up, down, total) =   1.50000  1.50000  3.00000
   spin  1
    eigenvalues: 
  0.300  0.300  0.300  0.300  0.300
    eigenvectors:
  1.000  0.000  0.000  0.000  0.000
  0.000  1.000  0.000  0.000  0.000
  0.000  0.000  1.000  0.000  0.000
  0.000  0.000  0.000  1.000  0.000
  0.000  0.000  0.000  0.000  1.000
    occupations:
  0.300  0.000  0.000  0.000  0.000
  0.000  0.300  0.000  0.000  0.000
  0.000  0.000  0.300  0.000  0.000
  0.000  0.000  0.000  0.300  0.000
  0.000  0.000  0.000  0.000  0.300
   spin  2
    eigenvalues: 
  0.300  0.300  0.300  0.300  0.300
    eigenvectors:
  1.000  0.000  0.000  0.000  0.000
  0.000  1.000  0.000  0.000  0.000
  0.000  0.000  1.000  0.000  0.000
  0.000  0.000  0.000  1.000  0.000
  0.000  0.000  0.000  0.000  1.000
    occupations:
  0.300  0.000  0.000  0.000  0.000
  0.000  0.300  0.000  0.000  0.000
  0.000  0.000  0.300  0.000  0.000
  0.000  0.000  0.000  0.300  0.000
  0.000  0.000  0.000  0.000  0.300
atomic mag. moment =     0.000000
atom    2   Tr[ns(na)] (up, down, total) =   1.50000  1.50000  3.00000
   spin  1
    eigenvalues: 
  0.300  0.300  0.300  0.300  0.300
    eigenvectors:
  1.000  0.000  0.000  0.000  0.000
  0.000  1.000  0.000  0.000  0.000
  0.000  0.000  1.000  0.000  0.000
  0.000  0.000  0.000  1.000  0.000
  0.000  0.000  0.000  0.000  1.000
    occupations:
  0.300  0.000  0.000  0.000  0.000
  0.000  0.300  0.000  0.000  0.000
  0.000  0.000  0.300  0.000  0.000
  0.000  0.000  0.000  0.300  0.000
  0.000  0.000  0.000  0.000  0.300
   spin  2
    eigenvalues: 
  0.300  0.300  0.300  0.300  0.300
    eigenvectors:
  1.000  0.000  0.000  0.000  0.000
  0.000  1.000  0.000  0.000  0.000
  0.000  0.000  1.000  0.000  0.000
  0.000  0.000  0.000  1.000  0.000
  0.000  0.000  0.000  0.000  1.000
    occupations:
  0.300  0.000  0.000  0.000  0.000
  0.000  0.300  0.000  0.000  0.000
  0.000  0.000  0.300  0.000  0.000
  0.000  0.000  0.000  0.300  0.000
  0.000  0.000  0.000  0.000  0.300
atomic mag. moment =     0.000000
atom    3   Tr[ns(na)] (up, down, total) =   1.50000  1.50000  3.00000
   spin  1
    eigenvalues: 
  0.300  0.300  0.300  0.300  0.300
    eigenvectors:
  1.000  0.000  0.000  0.000  0.000
  0.000  1.000  0.000  0.000  0.000
  0.000  0.000  1.000  0.000  0.000
  0.000  0.000  0.000  1.000  0.000
  0.000  0.000  0.000  0.000  1.000
    occupations:
  0.300  0.000  0.000  0.000  0.000
  0.000  0.300  0.000  0.000  0.000
  0.000  0.000  0.300  0.000  0.000
  0.000  0.000  0.000  0.300  0.000
  0.000  0.000  0.000  0.000  0.300
   spin  2
    eigenvalues: 
  0.300  0.300  0.300  0.300  0.300
    eigenvectors:
  1.000  0.000  0.000  0.000  0.000
  0.000  1.000  0.000  0.000  0.000
  0.000  0.000  1.000  0.000  0.000
  0.000  0.000  0.000  1.000  0.000
  0.000  0.000  0.000  0.000  1.000
    occupations:
  0.300  0.000  0.000  0.000  0.000
  0.000  0.300  0.000  0.000  0.000
  0.000  0.000  0.300  0.000  0.000
  0.000  0.000  0.000  0.300  0.000
  0.000  0.000  0.000  0.000  0.300
atomic mag. moment =     0.000000
atom    4   Tr[ns(na)] (up, down, total) =   1.50000  1.50000  3.00000
   spin  1
    eigenvalues: 
  0.300  0.300  0.300  0.300  0.300
    eigenvectors:
  1.000  0.000  0.000  0.000  0.000
  0.000  1.000  0.000  0.000  0.000
  0.000  0.000  1.000  0.000  0.000
  0.000  0.000  0.000  1.000  0.000
  0.000  0.000  0.000  0.000  1.000
    occupations:
  0.300  0.000  0.000  0.000  0.000
  0.000  0.300  0.000  0.000  0.000
  0.000  0.000  0.300  0.000  0.000
  0.000  0.000  0.000  0.300  0.000
  0.000  0.000  0.000  0.000  0.300
   spin  2
    eigenvalues: 
  0.300  0.300  0.300  0.300  0.300
    eigenvectors:
  1.000  0.000  0.000  0.000  0.000
  0.000  1.000  0.000  0.000  0.000
  0.000  0.000  1.000  0.000  0.000
  0.000  0.000  0.000  1.000  0.000
  0.000  0.000  0.000  0.000  1.000
    occupations:
  0.300  0.000  0.000  0.000  0.000
  0.000  0.300  0.000  0.000  0.000
  0.000  0.000  0.300  0.000  0.000
  0.000  0.000  0.000  0.300  0.000
  0.000  0.000  0.000  0.000  0.300
atomic mag. moment =     0.000000
atom    5   Tr[ns(na)] (up, down, total) =   1.50000  1.50000  3.00000
   spin  1
    eigenvalues: 
  0.300  0.300  0.300  0.300  0.300
    eigenvectors:
  1.000  0.000  0.000  0.000  0.000
  0.000  1.000  0.000  0.000  0.000
  0.000  0.000  1.000  0.000  0.000
  0.000  0.000  0.000  1.000  0.000
  0.000  0.000  0.000  0.000  1.000
    occupations:
  0.300  0.000  0.000  0.000  0.000
  0.000  0.300  0.000  0.000  0.000
  0.000  0.000  0.300  0.000  0.000
  0.000  0.000  0.000  0.300  0.000
  0.000  0.000  0.000  0.000  0.300
   spin  2
    eigenvalues: 
  0.300  0.300  0.300  0.300  0.300
    eigenvectors:
  1.000  0.000  0.000  0.000  0.000
  0.000  1.000  0.000  0.000  0.000
  0.000  0.000  1.000  0.000  0.000
  0.000  0.000  0.000  1.000  0.000
  0.000  0.000  0.000  0.000  1.000
    occupations:
  0.300  0.000  0.000  0.000  0.000
  0.000  0.300  0.000  0.000  0.000
  0.000  0.000  0.300  0.000  0.000
  0.000  0.000  0.000  0.300  0.000
  0.000  0.000  0.000  0.000  0.300
atomic mag. moment =     0.000000
atom    6   Tr[ns(na)] (up, down, total) =   1.50000  1.50000  3.00000
   spin  1
    eigenvalues: 
  0.300  0.300  0.300  0.300  0.300
    eigenvectors:
  1.000  0.000  0.000  0.000  0.000
  0.000  1.000  0.000  0.000  0.000
  0.000  0.000  1.000  0.000  0.000
  0.000  0.000  0.000  1.000  0.000
  0.000  0.000  0.000  0.000  1.000
    occupations:
  0.300  0.000  0.000  0.000  0.000
  0.000  0.300  0.000  0.000  0.000
  0.000  0.000  0.300  0.000  0.000
  0.000  0.000  0.000  0.300  0.000
  0.000  0.000  0.000  0.000  0.300
   spin  2
    eigenvalues: 
  0.300  0.300  0.300  0.300  0.300
    eigenvectors:
  1.000  0.000  0.000  0.000  0.000
  0.000  1.000  0.000  0.000  0.000
  0.000  0.000  1.000  0.000  0.000
  0.000  0.000  0.000  1.000  0.000
  0.000  0.000  0.000  0.000  1.000
    occupations:
  0.300  0.000  0.000  0.000  0.000
  0.000  0.300  0.000  0.000  0.000
  0.000  0.000  0.300  0.000  0.000
  0.000  0.000  0.000  0.300  0.000
  0.000  0.000  0.000  0.000  0.300
atomic mag. moment =     0.000000
atom    7   Tr[ns(na)] (up, down, total) =   1.50000  1.50000  3.00000
   spin  1
    eigenvalues: 
  0.300  0.300  0.300  0.300  0.300
    eigenvectors:
  1.000  0.000  0.000  0.000  0.000
  0.000  1.000  0.000  0.000  0.000
  0.000  0.000  1.000  0.000  0.000
  0.000  0.000  0.000  1.000  0.000
  0.000  0.000  0.000  0.000  1.000
    occupations:
  0.300  0.000  0.000  0.000  0.000
  0.000  0.300  0.000  0.000  0.000
  0.000  0.000  0.300  0.000  0.000
  0.000  0.000  0.000  0.300  0.000
  0.000  0.000  0.000  0.000  0.300
   spin  2
    eigenvalues: 
  0.300  0.300  0.300  0.300  0.300
    eigenvectors:
  1.000  0.000  0.000  0.000  0.000
  0.000  1.000  0.000  0.000  0.000
  0.000  0.000  1.000  0.000  0.000
  0.000  0.000  0.000  1.000  0.000
  0.000  0.000  0.000  0.000  1.000
    occupations:
  0.300  0.000  0.000  0.000  0.000
  0.000  0.300  0.000  0.000  0.000
  0.000  0.000  0.300  0.000  0.000
  0.000  0.000  0.000  0.300  0.000
  0.000  0.000  0.000  0.000  0.300
atomic mag. moment =     0.000000
atom    8   Tr[ns(na)] (up, down, total) =   1.50000  1.50000  3.00000
   spin  1
    eigenvalues: 
  0.300  0.300  0.300  0.300  0.300
    eigenvectors:
  1.000  0.000  0.000  0.000  0.000
  0.000  1.000  0.000  0.000  0.000
  0.000  0.000  1.000  0.000  0.000
  0.000  0.000  0.000  1.000  0.000
  0.000  0.000  0.000  0.000  1.000
    occupations:
  0.300  0.000  0.000  0.000  0.000
  0.000  0.300  0.000  0.000  0.000
  0.000  0.000  0.300  0.000  0.000
  0.000  0.000  0.000  0.300  0.000
  0.000  0.000  0.000  0.000  0.300
   spin  2
    eigenvalues: 
  0.300  0.300  0.300  0.300  0.300
    eigenvectors:
  1.000  0.000  0.000  0.000  0.000
  0.000  1.000  0.000  0.000  0.000
  0.000  0.000  1.000  0.000  0.000
  0.000  0.000  0.000  1.000  0.000
  0.000  0.000  0.000  0.000  1.000
    occupations:
  0.300  0.000  0.000  0.000  0.000
  0.000  0.300  0.000  0.000  0.000
  0.000  0.000  0.300  0.000  0.000
  0.000  0.000  0.000  0.300  0.000
  0.000  0.000  0.000  0.000  0.300
atomic mag. moment =     0.000000
atom    9   Tr[ns(na)] (up, down, total) =   1.50000  1.50000  3.00000
   spin  1
    eigenvalues: 
  0.300  0.300  0.300  0.300  0.300
    eigenvectors:
  1.000  0.000  0.000  0.000  0.000
  0.000  1.000  0.000  0.000  0.000
  0.000  0.000  1.000  0.000  0.000
  0.000  0.000  0.000  1.000  0.000
  0.000  0.000  0.000  0.000  1.000
    occupations:
  0.300  0.000  0.000  0.000  0.000
  0.000  0.300  0.000  0.000  0.000
  0.000  0.000  0.300  0.000  0.000
  0.000  0.000  0.000  0.300  0.000
  0.000  0.000  0.000  0.000  0.300
   spin  2
    eigenvalues: 
  0.300  0.300  0.300  0.300  0.300
    eigenvectors:
  1.000  0.000  0.000  0.000  0.000
  0.000  1.000  0.000  0.000  0.000
  0.000  0.000  1.000  0.000  0.000
  0.000  0.000  0.000  1.000  0.000
  0.000  0.000  0.000  0.000  1.000
    occupations:
  0.300  0.000  0.000  0.000  0.000
  0.000  0.300  0.000  0.000  0.000
  0.000  0.000  0.300  0.000  0.000
  0.000  0.000  0.000  0.300  0.000
  0.000  0.000  0.000  0.000  0.300
atomic mag. moment =     0.000000
atom   10   Tr[ns(na)] (up, down, total) =   1.50000  1.50000  3.00000
   spin  1
    eigenvalues: 
  0.300  0.300  0.300  0.300  0.300
    eigenvectors:
  1.000  0.000  0.000  0.000  0.000
  0.000  1.000  0.000  0.000  0.000
  0.000  0.000  1.000  0.000  0.000
  0.000  0.000  0.000  1.000  0.000
  0.000  0.000  0.000  0.000  1.000
    occupations:
  0.300  0.000  0.000  0.000  0.000
  0.000  0.300  0.000  0.000  0.000
  0.000  0.000  0.300  0.000  0.000
  0.000  0.000  0.000  0.300  0.000
  0.000  0.000  0.000  0.000  0.300
   spin  2
    eigenvalues: 
  0.300  0.300  0.300  0.300  0.300
    eigenvectors:
  1.000  0.000  0.000  0.000  0.000
  0.000  1.000  0.000  0.000  0.000
  0.000  0.000  1.000  0.000  0.000
  0.000  0.000  0.000  1.000  0.000
  0.000  0.000  0.000  0.000  1.000
    occupations:
  0.300  0.000  0.000  0.000  0.000
  0.000  0.300  0.000  0.000  0.000
  0.000  0.000  0.300  0.000  0.000
  0.000  0.000  0.000  0.300  0.000
  0.000  0.000  0.000  0.000  0.300
atomic mag. moment =     0.000000
atom   11   Tr[ns(na)] (up, down, total) =   1.50000  1.50000  3.00000
   spin  1
    eigenvalues: 
  0.300  0.300  0.300  0.300  0.300
    eigenvectors:
  1.000  0.000  0.000  0.000  0.000
  0.000  1.000  0.000  0.000  0.000
  0.000  0.000  1.000  0.000  0.000
  0.000  0.000  0.000  1.000  0.000
  0.000  0.000  0.000  0.000  1.000
    occupations:
  0.300  0.000  0.000  0.000  0.000
  0.000  0.300  0.000  0.000  0.000
  0.000  0.000  0.300  0.000  0.000
  0.000  0.000  0.000  0.300  0.000
  0.000  0.000  0.000  0.000  0.300
   spin  2
    eigenvalues: 
  0.300  0.300  0.300  0.300  0.300
    eigenvectors:
  1.000  0.000  0.000  0.000  0.000
  0.000  1.000  0.000  0.000  0.000
  0.000  0.000  1.000  0.000  0.000
  0.000  0.000  0.000  1.000  0.000
  0.000  0.000  0.000  0.000  1.000
    occupations:
  0.300  0.000  0.000  0.000  0.000
  0.000  0.300  0.000  0.000  0.000
  0.000  0.000  0.300  0.000  0.000
  0.000  0.000  0.000  0.300  0.000
  0.000  0.000  0.000  0.000  0.300
atomic mag. moment =     0.000000
atom   12   Tr[ns(na)] (up, down, total) =   1.50000  1.50000  3.00000
   spin  1
    eigenvalues: 
  0.300  0.300  0.300  0.300  0.300
    eigenvectors:
  1.000  0.000  0.000  0.000  0.000
  0.000  1.000  0.000  0.000  0.000
  0.000  0.000  1.000  0.000  0.000
  0.000  0.000  0.000  1.000  0.000
  0.000  0.000  0.000  0.000  1.000
    occupations:
  0.300  0.000  0.000  0.000  0.000
  0.000  0.300  0.000  0.000  0.000
  0.000  0.000  0.300  0.000  0.000
  0.000  0.000  0.000  0.300  0.000
  0.000  0.000  0.000  0.000  0.300
   spin  2
    eigenvalues: 
  0.300  0.300  0.300  0.300  0.300
    eigenvectors:
  1.000  0.000  0.000  0.000  0.000
  0.000  1.000  0.000  0.000  0.000
  0.000  0.000  1.000  0.000  0.000
  0.000  0.000  0.000  1.000  0.000
  0.000  0.000  0.000  0.000  1.000
    occupations:
  0.300  0.000  0.000  0.000  0.000
  0.000  0.300  0.000  0.000  0.000
  0.000  0.000  0.300  0.000  0.000
  0.000  0.000  0.000  0.300  0.000
  0.000  0.000  0.000  0.000  0.300
atomic mag. moment =     0.000000
atom   13   Tr[ns(na)] (up, down, total) =   1.50000  1.50000  3.00000
   spin  1
    eigenvalues: 
  0.300  0.300  0.300  0.300  0.300
    eigenvectors:
  1.000  0.000  0.000  0.000  0.000
  0.000  1.000  0.000  0.000  0.000
  0.000  0.000  1.000  0.000  0.000
  0.000  0.000  0.000  1.000  0.000
  0.000  0.000  0.000  0.000  1.000
    occupations:
  0.300  0.000  0.000  0.000  0.000
  0.000  0.300  0.000  0.000  0.000
  0.000  0.000  0.300  0.000  0.000
  0.000  0.000  0.000  0.300  0.000
  0.000  0.000  0.000  0.000  0.300
   spin  2
    eigenvalues: 
  0.300  0.300  0.300  0.300  0.300
    eigenvectors:
  1.000  0.000  0.000  0.000  0.000
  0.000  1.000  0.000  0.000  0.000
  0.000  0.000  1.000  0.000  0.000
  0.000  0.000  0.000  1.000  0.000
  0.000  0.000  0.000  0.000  1.000
    occupations:
  0.300  0.000  0.000  0.000  0.000
  0.000  0.300  0.000  0.000  0.000
  0.000  0.000  0.300  0.000  0.000
  0.000  0.000  0.000  0.300  0.000
  0.000  0.000  0.000  0.000  0.300
atomic mag. moment =     0.000000
atom   14   Tr[ns(na)] (up, down, total) =   1.50000  1.50000  3.00000
   spin  1
    eigenvalues: 
  0.300  0.300  0.300  0.300  0.300
    eigenvectors:
  1.000  0.000  0.000  0.000  0.000
  0.000  1.000  0.000  0.000  0.000
  0.000  0.000  1.000  0.000  0.000
  0.000  0.000  0.000  1.000  0.000
  0.000  0.000  0.000  0.000  1.000
    occupations:
  0.300  0.000  0.000  0.000  0.000
  0.000  0.300  0.000  0.000  0.000
  0.000  0.000  0.300  0.000  0.000
  0.000  0.000  0.000  0.300  0.000
  0.000  0.000  0.000  0.000  0.300
   spin  2
    eigenvalues: 
  0.300  0.300  0.300  0.300  0.300
    eigenvectors:
  1.000  0.000  0.000  0.000  0.000
  0.000  1.000  0.000  0.000  0.000
  0.000  0.000  1.000  0.000  0.000
  0.000  0.000  0.000  1.000  0.000
  0.000  0.000  0.000  0.000  1.000
    occupations:
  0.300  0.000  0.000  0.000  0.000
  0.000  0.300  0.000  0.000  0.000
  0.000  0.000  0.300  0.000  0.000
  0.000  0.000  0.000  0.300  0.000
  0.000  0.000  0.000  0.000  0.300
atomic mag. moment =     0.000000
atom   15   Tr[ns(na)] (up, down, total) =   1.50000  1.50000  3.00000
   spin  1
    eigenvalues: 
  0.300  0.300  0.300  0.300  0.300
    eigenvectors:
  1.000  0.000  0.000  0.000  0.000
  0.000  1.000  0.000  0.000  0.000
  0.000  0.000  1.000  0.000  0.000
  0.000  0.000  0.000  1.000  0.000
  0.000  0.000  0.000  0.000  1.000
    occupations:
  0.300  0.000  0.000  0.000  0.000
  0.000  0.300  0.000  0.000  0.000
  0.000  0.000  0.300  0.000  0.000
  0.000  0.000  0.000  0.300  0.000
  0.000  0.000  0.000  0.000  0.300
   spin  2
    eigenvalues: 
  0.300  0.300  0.300  0.300  0.300
    eigenvectors:
  1.000  0.000  0.000  0.000  0.000
  0.000  1.000  0.000  0.000  0.000
  0.000  0.000  1.000  0.000  0.000
  0.000  0.000  0.000  1.000  0.000
  0.000  0.000  0.000  0.000  1.000
    occupations:
  0.300  0.000  0.000  0.000  0.000
  0.000  0.300  0.000  0.000  0.000
  0.000  0.000  0.300  0.000  0.000
  0.000  0.000  0.000  0.300  0.000
  0.000  0.000  0.000  0.000  0.300
atomic mag. moment =     0.000000
atom   16   Tr[ns(na)] (up, down, total) =   1.50000  1.50000  3.00000
   spin  1
    eigenvalues: 
  0.300  0.300  0.300  0.300  0.300
    eigenvectors:
  1.000  0.000  0.000  0.000  0.000
  0.000  1.000  0.000  0.000  0.000
  0.000  0.000  1.000  0.000  0.000
  0.000  0.000  0.000  1.000  0.000
  0.000  0.000  0.000  0.000  1.000
    occupations:
  0.300  0.000  0.000  0.000  0.000
  0.000  0.300  0.000  0.000  0.000
  0.000  0.000  0.300  0.000  0.000
  0.000  0.000  0.000  0.300  0.000
  0.000  0.000  0.000  0.000  0.300
   spin  2
    eigenvalues: 
  0.300  0.300  0.300  0.300  0.300
    eigenvectors:
  1.000  0.000  0.000  0.000  0.000
  0.000  1.000  0.000  0.000  0.000
  0.000  0.000  1.000  0.000  0.000
  0.000  0.000  0.000  1.000  0.000
  0.000  0.000  0.000  0.000  1.000
    occupations:
  0.300  0.000  0.000  0.000  0.000
  0.000  0.300  0.000  0.000  0.000
  0.000  0.000  0.300  0.000  0.000
  0.000  0.000  0.000  0.300  0.000
  0.000  0.000  0.000  0.000  0.300
atomic mag. moment =     0.000000
atom   17   Tr[ns(na)] (up, down, total) =   2.00000  2.00000  4.00000
   spin  1
    eigenvalues: 
  0.667  0.667  0.667
    eigenvectors:
  1.000  0.000  0.000
  0.000  1.000  0.000
  0.000  0.000  1.000
    occupations:
  0.667  0.000  0.000
  0.000  0.667  0.000
  0.000  0.000  0.667
   spin  2
    eigenvalues: 
  0.667  0.667  0.667
    eigenvectors:
  1.000  0.000  0.000
  0.000  1.000  0.000
  0.000  0.000  1.000
    occupations:
  0.667  0.000  0.000
  0.000  0.667  0.000
  0.000  0.000  0.667
atomic mag. moment =     0.000000
atom   18   Tr[ns(na)] (up, down, total) =   2.00000  2.00000  4.00000
   spin  1
    eigenvalues: 
  0.667  0.667  0.667
    eigenvectors:
  1.000  0.000  0.000
  0.000  1.000  0.000
  0.000  0.000  1.000
    occupations:
  0.667  0.000  0.000
  0.000  0.667  0.000
  0.000  0.000  0.667
   spin  2
    eigenvalues: 
  0.667  0.667  0.667
    eigenvectors:
  1.000  0.000  0.000
  0.000  1.000  0.000
  0.000  0.000  1.000
    occupations:
  0.667  0.000  0.000
  0.000  0.667  0.000
  0.000  0.000  0.667
atomic mag. moment =     0.000000
atom   19   Tr[ns(na)] (up, down, total) =   2.00000  2.00000  4.00000
   spin  1
    eigenvalues: 
  0.667  0.667  0.667
    eigenvectors:
  1.000  0.000  0.000
  0.000  1.000  0.000
  0.000  0.000  1.000
    occupations:
  0.667  0.000  0.000
  0.000  0.667  0.000
  0.000  0.000  0.667
   spin  2
    eigenvalues: 
  0.667  0.667  0.667
    eigenvectors:
  1.000  0.000  0.000
  0.000  1.000  0.000
  0.000  0.000  1.000
    occupations:
  0.667  0.000  0.000
  0.000  0.667  0.000
  0.000  0.000  0.667
atomic mag. moment =     0.000000
atom   20   Tr[ns(na)] (up, down, total) =   2.00000  2.00000  4.00000
   spin  1
    eigenvalues: 
  0.667  0.667  0.667
    eigenvectors:
  1.000  0.000  0.000
  0.000  1.000  0.000
  0.000  0.000  1.000
    occupations:
  0.667  0.000  0.000
  0.000  0.667  0.000
  0.000  0.000  0.667
   spin  2
    eigenvalues: 
  0.667  0.667  0.667
    eigenvectors:
  1.000  0.000  0.000
  0.000  1.000  0.000
  0.000  0.000  1.000
    occupations:
  0.667  0.000  0.000
  0.000  0.667  0.000
  0.000  0.000  0.667
atomic mag. moment =     0.000000
atom   21   Tr[ns(na)] (up, down, total) =   2.00000  2.00000  4.00000
   spin  1
    eigenvalues: 
  0.667  0.667  0.667
    eigenvectors:
  1.000  0.000  0.000
  0.000  1.000  0.000
  0.000  0.000  1.000
    occupations:
  0.667  0.000  0.000
  0.000  0.667  0.000
  0.000  0.000  0.667
   spin  2
    eigenvalues: 
  0.667  0.667  0.667
    eigenvectors:
  1.000  0.000  0.000
  0.000  1.000  0.000
  0.000  0.000  1.000
    occupations:
  0.667  0.000  0.000
  0.000  0.667  0.000
  0.000  0.000  0.667
atomic mag. moment =     0.000000
atom   22   Tr[ns(na)] (up, down, total) =   2.00000  2.00000  4.00000
   spin  1
    eigenvalues: 
  0.667  0.667  0.667
    eigenvectors:
  1.000  0.000  0.000
  0.000  1.000  0.000
  0.000  0.000  1.000
    occupations:
  0.667  0.000  0.000
  0.000  0.667  0.000
  0.000  0.000  0.667
   spin  2
    eigenvalues: 
  0.667  0.667  0.667
    eigenvectors:
  1.000  0.000  0.000
  0.000  1.000  0.000
  0.000  0.000  1.000
    occupations:
  0.667  0.000  0.000
  0.000  0.667  0.000
  0.000  0.000  0.667
atomic mag. moment =     0.000000
atom   23   Tr[ns(na)] (up, down, total) =   2.00000  2.00000  4.00000
   spin  1
    eigenvalues: 
  0.667  0.667  0.667
    eigenvectors:
  1.000  0.000  0.000
  0.000  1.000  0.000
  0.000  0.000  1.000
    occupations:
  0.667  0.000  0.000
  0.000  0.667  0.000
  0.000  0.000  0.667
   spin  2
    eigenvalues: 
  0.667  0.667  0.667
    eigenvectors:
  1.000  0.000  0.000
  0.000  1.000  0.000
  0.000  0.000  1.000
    occupations:
  0.667  0.000  0.000
  0.000  0.667  0.000
  0.000  0.000  0.667
atomic mag. moment =     0.000000
atom   24   Tr[ns(na)] (up, down, total) =   2.00000  2.00000  4.00000
   spin  1
    eigenvalues: 
  0.667  0.667  0.667
    eigenvectors:
  1.000  0.000  0.000
  0.000  1.000  0.000
  0.000  0.000  1.000
    occupations:
  0.667  0.000  0.000
  0.000  0.667  0.000
  0.000  0.000  0.667
   spin  2
    eigenvalues: 
  0.667  0.667  0.667
    eigenvectors:
  1.000  0.000  0.000
  0.000  1.000  0.000
  0.000  0.000  1.000
    occupations:
  0.667  0.000  0.000
  0.000  0.667  0.000
  0.000  0.000  0.667
atomic mag. moment =     0.000000
atom   25   Tr[ns(na)] (up, down, total) =   2.00000  2.00000  4.00000
   spin  1
    eigenvalues: 
  0.667  0.667  0.667
    eigenvectors:
  1.000  0.000  0.000
  0.000  1.000  0.000
  0.000  0.000  1.000
    occupations:
  0.667  0.000  0.000
  0.000  0.667  0.000
  0.000  0.000  0.667
   spin  2
    eigenvalues: 
  0.667  0.667  0.667
    eigenvectors:
  1.000  0.000  0.000
  0.000  1.000  0.000
  0.000  0.000  1.000
    occupations:
  0.667  0.000  0.000
  0.000  0.667  0.000
  0.000  0.000  0.667
atomic mag. moment =     0.000000
atom   26   Tr[ns(na)] (up, down, total) =   2.00000  2.00000  4.00000
   spin  1
    eigenvalues: 
  0.667  0.667  0.667
    eigenvectors:
  1.000  0.000  0.000
  0.000  1.000  0.000
  0.000  0.000  1.000
    occupations:
  0.667  0.000  0.000
  0.000  0.667  0.000
  0.000  0.000  0.667
   spin  2
    eigenvalues: 
  0.667  0.667  0.667
    eigenvectors:
  1.000  0.000  0.000
  0.000  1.000  0.000
  0.000  0.000  1.000
    occupations:
  0.667  0.000  0.000
  0.000  0.667  0.000
  0.000  0.000  0.667
atomic mag. moment =     0.000000
atom   27   Tr[ns(na)] (up, down, total) =   2.00000  2.00000  4.00000
   spin  1
    eigenvalues: 
  0.667  0.667  0.667
    eigenvectors:
  1.000  0.000  0.000
  0.000  1.000  0.000
  0.000  0.000  1.000
    occupations:
  0.667  0.000  0.000
  0.000  0.667  0.000
  0.000  0.000  0.667
   spin  2
    eigenvalues: 
  0.667  0.667  0.667
    eigenvectors:
  1.000  0.000  0.000
  0.000  1.000  0.000
  0.000  0.000  1.000
    occupations:
  0.667  0.000  0.000
  0.000  0.667  0.000
  0.000  0.000  0.667
atomic mag. moment =     0.000000
atom   28   Tr[ns(na)] (up, down, total) =   2.00000  2.00000  4.00000
   spin  1
    eigenvalues: 
  0.667  0.667  0.667
    eigenvectors:
  1.000  0.000  0.000
  0.000  1.000  0.000
  0.000  0.000  1.000
    occupations:
  0.667  0.000  0.000
  0.000  0.667  0.000
  0.000  0.000  0.667
   spin  2
    eigenvalues: 
  0.667  0.667  0.667
    eigenvectors:
  1.000  0.000  0.000
  0.000  1.000  0.000
  0.000  0.000  1.000
    occupations:
  0.667  0.000  0.000
  0.000  0.667  0.000
  0.000  0.000  0.667
atomic mag. moment =     0.000000
atom   29   Tr[ns(na)] (up, down, total) =   2.00000  2.00000  4.00000
   spin  1
    eigenvalues: 
  0.667  0.667  0.667
    eigenvectors:
  1.000  0.000  0.000
  0.000  1.000  0.000
  0.000  0.000  1.000
    occupations:
  0.667  0.000  0.000
  0.000  0.667  0.000
  0.000  0.000  0.667
   spin  2
    eigenvalues: 
  0.667  0.667  0.667
    eigenvectors:
  1.000  0.000  0.000
  0.000  1.000  0.000
  0.000  0.000  1.000
    occupations:
  0.667  0.000  0.000
  0.000  0.667  0.000
  0.000  0.000  0.667
atomic mag. moment =     0.000000
atom   30   Tr[ns(na)] (up, down, total) =   2.00000  2.00000  4.00000
   spin  1
    eigenvalues: 
  0.667  0.667  0.667
    eigenvectors:
  1.000  0.000  0.000
  0.000  1.000  0.000
  0.000  0.000  1.000
    occupations:
  0.667  0.000  0.000
  0.000  0.667  0.000
  0.000  0.000  0.667
   spin  2
    eigenvalues: 
  0.667  0.667  0.667
    eigenvectors:
  1.000  0.000  0.000
  0.000  1.000  0.000
  0.000  0.000  1.000
    occupations:
  0.667  0.000  0.000
  0.000  0.667  0.000
  0.000  0.000  0.667
atomic mag. moment =     0.000000
atom   31   Tr[ns(na)] (up, down, total) =   2.00000  2.00000  4.00000
   spin  1
    eigenvalues: 
  0.667  0.667  0.667
    eigenvectors:
  1.000  0.000  0.000
  0.000  1.000  0.000
  0.000  0.000  1.000
    occupations:
  0.667  0.000  0.000
  0.000  0.667  0.000
  0.000  0.000  0.667
   spin  2
    eigenvalues: 
  0.667  0.667  0.667
    eigenvectors:
  1.000  0.000  0.000
  0.000  1.000  0.000
  0.000  0.000  1.000
    occupations:
  0.667  0.000  0.000
  0.000  0.667  0.000
  0.000  0.000  0.667
atomic mag. moment =     0.000000
atom   32   Tr[ns(na)] (up, down, total) =   2.00000  2.00000  4.00000
   spin  1
    eigenvalues: 
  0.667  0.667  0.667
    eigenvectors:
  1.000  0.000  0.000
  0.000  1.000  0.000
  0.000  0.000  1.000
    occupations:
  0.667  0.000  0.000
  0.000  0.667  0.000
  0.000  0.000  0.667
   spin  2
    eigenvalues: 
  0.667  0.667  0.667
    eigenvectors:
  1.000  0.000  0.000
  0.000  1.000  0.000
  0.000  0.000  1.000
    occupations:
  0.667  0.000  0.000
  0.000  0.667  0.000
  0.000  0.000  0.667
atomic mag. moment =     0.000000
atom   33   Tr[ns(na)] (up, down, total) =   2.00000  2.00000  4.00000
   spin  1
    eigenvalues: 
  0.667  0.667  0.667
    eigenvectors:
  1.000  0.000  0.000
  0.000  1.000  0.000
  0.000  0.000  1.000
    occupations:
  0.667  0.000  0.000
  0.000  0.667  0.000
  0.000  0.000  0.667
   spin  2
    eigenvalues: 
  0.667  0.667  0.667
    eigenvectors:
  1.000  0.000  0.000
  0.000  1.000  0.000
  0.000  0.000  1.000
    occupations:
  0.667  0.000  0.000
  0.000  0.667  0.000
  0.000  0.000  0.667
atomic mag. moment =     0.000000
atom   34   Tr[ns(na)] (up, down, total) =   2.00000  2.00000  4.00000
   spin  1
    eigenvalues: 
  0.667  0.667  0.667
    eigenvectors:
  1.000  0.000  0.000
  0.000  1.000  0.000
  0.000  0.000  1.000
    occupations:
  0.667  0.000  0.000
  0.000  0.667  0.000
  0.000  0.000  0.667
   spin  2
    eigenvalues: 
  0.667  0.667  0.667
    eigenvectors:
  1.000  0.000  0.000
  0.000  1.000  0.000
  0.000  0.000  1.000
    occupations:
  0.667  0.000  0.000
  0.000  0.667  0.000
  0.000  0.000  0.667
atomic mag. moment =     0.000000
atom   35   Tr[ns(na)] (up, down, total) =   2.00000  2.00000  4.00000
   spin  1
    eigenvalues: 
  0.667  0.667  0.667
    eigenvectors:
  1.000  0.000  0.000
  0.000  1.000  0.000
  0.000  0.000  1.000
    occupations:
  0.667  0.000  0.000
  0.000  0.667  0.000
  0.000  0.000  0.667
   spin  2
    eigenvalues: 
  0.667  0.667  0.667
    eigenvectors:
  1.000  0.000  0.000
  0.000  1.000  0.000
  0.000  0.000  1.000
    occupations:
  0.667  0.000  0.000
  0.000  0.667  0.000
  0.000  0.000  0.667
atomic mag. moment =     0.000000
atom   36   Tr[ns(na)] (up, down, total) =   2.00000  2.00000  4.00000
   spin  1
    eigenvalues: 
  0.667  0.667  0.667
    eigenvectors:
  1.000  0.000  0.000
  0.000  1.000  0.000
  0.000  0.000  1.000
    occupations:
  0.667  0.000  0.000
  0.000  0.667  0.000
  0.000  0.000  0.667
   spin  2
    eigenvalues: 
  0.667  0.667  0.667
    eigenvectors:
  1.000  0.000  0.000
  0.000  1.000  0.000
  0.000  0.000  1.000
    occupations:
  0.667  0.000  0.000
  0.000  0.667  0.000
  0.000  0.000  0.667
atomic mag. moment =     0.000000
atom   37   Tr[ns(na)] (up, down, total) =   2.00000  2.00000  4.00000
   spin  1
    eigenvalues: 
  0.667  0.667  0.667
    eigenvectors:
  1.000  0.000  0.000
  0.000  1.000  0.000
  0.000  0.000  1.000
    occupations:
  0.667  0.000  0.000
  0.000  0.667  0.000
  0.000  0.000  0.667
   spin  2
    eigenvalues: 
  0.667  0.667  0.667
    eigenvectors:
  1.000  0.000  0.000
  0.000  1.000  0.000
  0.000  0.000  1.000
    occupations:
  0.667  0.000  0.000
  0.000  0.667  0.000
  0.000  0.000  0.667
atomic mag. moment =     0.000000
atom   38   Tr[ns(na)] (up, down, total) =   2.00000  2.00000  4.00000
   spin  1
    eigenvalues: 
  0.667  0.667  0.667
    eigenvectors:
  1.000  0.000  0.000
  0.000  1.000  0.000
  0.000  0.000  1.000
    occupations:
  0.667  0.000  0.000
  0.000  0.667  0.000
  0.000  0.000  0.667
   spin  2
    eigenvalues: 
  0.667  0.667  0.667
    eigenvectors:
  1.000  0.000  0.000
  0.000  1.000  0.000
  0.000  0.000  1.000
    occupations:
  0.667  0.000  0.000
  0.000  0.667  0.000
  0.000  0.000  0.667
atomic mag. moment =     0.000000
atom   39   Tr[ns(na)] (up, down, total) =   2.00000  2.00000  4.00000
   spin  1
    eigenvalues: 
  0.667  0.667  0.667
    eigenvectors:
  1.000  0.000  0.000
  0.000  1.000  0.000
  0.000  0.000  1.000
    occupations:
  0.667  0.000  0.000
  0.000  0.667  0.000
  0.000  0.000  0.667
   spin  2
    eigenvalues: 
  0.667  0.667  0.667
    eigenvectors:
  1.000  0.000  0.000
  0.000  1.000  0.000
  0.000  0.000  1.000
    occupations:
  0.667  0.000  0.000
  0.000  0.667  0.000
  0.000  0.000  0.667
atomic mag. moment =     0.000000
atom   40   Tr[ns(na)] (up, down, total) =   2.00000  2.00000  4.00000
   spin  1
    eigenvalues: 
  0.667  0.667  0.667
    eigenvectors:
  1.000  0.000  0.000
  0.000  1.000  0.000
  0.000  0.000  1.000
    occupations:
  0.667  0.000  0.000
  0.000  0.667  0.000
  0.000  0.000  0.667
   spin  2
    eigenvalues: 
  0.667  0.667  0.667
    eigenvectors:
  1.000  0.000  0.000
  0.000  1.000  0.000
  0.000  0.000  1.000
    occupations:
  0.667  0.000  0.000
  0.000  0.667  0.000
  0.000  0.000  0.667
atomic mag. moment =     0.000000
atom   41   Tr[ns(na)] (up, down, total) =   2.00000  2.00000  4.00000
   spin  1
    eigenvalues: 
  0.667  0.667  0.667
    eigenvectors:
  1.000  0.000  0.000
  0.000  1.000  0.000
  0.000  0.000  1.000
    occupations:
  0.667  0.000  0.000
  0.000  0.667  0.000
  0.000  0.000  0.667
   spin  2
    eigenvalues: 
  0.667  0.667  0.667
    eigenvectors:
  1.000  0.000  0.000
  0.000  1.000  0.000
  0.000  0.000  1.000
    occupations:
  0.667  0.000  0.000
  0.000  0.667  0.000
  0.000  0.000  0.667
atomic mag. moment =     0.000000
atom   42   Tr[ns(na)] (up, down, total) =   2.00000  2.00000  4.00000
   spin  1
    eigenvalues: 
  0.667  0.667  0.667
    eigenvectors:
  1.000  0.000  0.000
  0.000  1.000  0.000
  0.000  0.000  1.000
    occupations:
  0.667  0.000  0.000
  0.000  0.667  0.000
  0.000  0.000  0.667
   spin  2
    eigenvalues: 
  0.667  0.667  0.667
    eigenvectors:
  1.000  0.000  0.000
  0.000  1.000  0.000
  0.000  0.000  1.000
    occupations:
  0.667  0.000  0.000
  0.000  0.667  0.000
  0.000  0.000  0.667
atomic mag. moment =     0.000000
atom   43   Tr[ns(na)] (up, down, total) =   2.00000  2.00000  4.00000
   spin  1
    eigenvalues: 
  0.667  0.667  0.667
    eigenvectors:
  1.000  0.000  0.000
  0.000  1.000  0.000
  0.000  0.000  1.000
    occupations:
  0.667  0.000  0.000
  0.000  0.667  0.000
  0.000  0.000  0.667
   spin  2
    eigenvalues: 
  0.667  0.667  0.667
    eigenvectors:
  1.000  0.000  0.000
  0.000  1.000  0.000
  0.000  0.000  1.000
    occupations:
  0.667  0.000  0.000
  0.000  0.667  0.000
  0.000  0.000  0.667
atomic mag. moment =     0.000000
atom   44   Tr[ns(na)] (up, down, total) =   2.00000  2.00000  4.00000
   spin  1
    eigenvalues: 
  0.667  0.667  0.667
    eigenvectors:
  1.000  0.000  0.000
  0.000  1.000  0.000
  0.000  0.000  1.000
    occupations:
  0.667  0.000  0.000
  0.000  0.667  0.000
  0.000  0.000  0.667
   spin  2
    eigenvalues: 
  0.667  0.667  0.667
    eigenvectors:
  1.000  0.000  0.000
  0.000  1.000  0.000
  0.000  0.000  1.000
    occupations:
  0.667  0.000  0.000
  0.000  0.667  0.000
  0.000  0.000  0.667
atomic mag. moment =     0.000000
atom   45   Tr[ns(na)] (up, down, total) =   2.00000  2.00000  4.00000
   spin  1
    eigenvalues: 
  0.667  0.667  0.667
    eigenvectors:
  1.000  0.000  0.000
  0.000  1.000  0.000
  0.000  0.000  1.000
    occupations:
  0.667  0.000  0.000
  0.000  0.667  0.000
  0.000  0.000  0.667
   spin  2
    eigenvalues: 
  0.667  0.667  0.667
    eigenvectors:
  1.000  0.000  0.000
  0.000  1.000  0.000
  0.000  0.000  1.000
    occupations:
  0.667  0.000  0.000
  0.000  0.667  0.000
  0.000  0.000  0.667
atomic mag. moment =     0.000000
atom   46   Tr[ns(na)] (up, down, total) =   2.00000  2.00000  4.00000
   spin  1
    eigenvalues: 
  0.667  0.667  0.667
    eigenvectors:
  1.000  0.000  0.000
  0.000  1.000  0.000
  0.000  0.000  1.000
    occupations:
  0.667  0.000  0.000
  0.000  0.667  0.000
  0.000  0.000  0.667
   spin  2
    eigenvalues: 
  0.667  0.667  0.667
    eigenvectors:
  1.000  0.000  0.000
  0.000  1.000  0.000
  0.000  0.000  1.000
    occupations:
  0.667  0.000  0.000
  0.000  0.667  0.000
  0.000  0.000  0.667
atomic mag. moment =     0.000000
atom   47   Tr[ns(na)] (up, down, total) =   2.00000  2.00000  4.00000
   spin  1
    eigenvalues: 
  0.667  0.667  0.667
    eigenvectors:
  1.000  0.000  0.000
  0.000  1.000  0.000
  0.000  0.000  1.000
    occupations:
  0.667  0.000  0.000
  0.000  0.667  0.000
  0.000  0.000  0.667
   spin  2
    eigenvalues: 
  0.667  0.667  0.667
    eigenvectors:
  1.000  0.000  0.000
  0.000  1.000  0.000
  0.000  0.000  1.000
    occupations:
  0.667  0.000  0.000
  0.000  0.667  0.000
  0.000  0.000  0.667
atomic mag. moment =     0.000000
atom   48   Tr[ns(na)] (up, down, total) =   2.00000  2.00000  4.00000
   spin  1
    eigenvalues: 
  0.667  0.667  0.667
    eigenvectors:
  1.000  0.000  0.000
  0.000  1.000  0.000
  0.000  0.000  1.000
    occupations:
  0.667  0.000  0.000
  0.000  0.667  0.000
  0.000  0.000  0.667
   spin  2
    eigenvalues: 
  0.667  0.667  0.667
    eigenvectors:
  1.000  0.000  0.000
  0.000  1.000  0.000
  0.000  0.000  1.000
    occupations:
  0.667  0.000  0.000
  0.000  0.667  0.000
  0.000  0.000  0.667
atomic mag. moment =     0.000000
N of occupied +U levels = 176.0000000
 --- exit write_ns ---
 Atomic wfc used for LDA+U Projector are NOT orthogonalized
     Starting wfc are  336 randomized atomic wfcs

     total cpu time spent up to now is      448.5 secs

     per-process dynamical memory:   100.1 Mb

     Self-consistent Calculation

     iteration #  1     ecut=    40.00 Ry     beta=0.70
     Davidson diagonalization with overlap
     ethr =  1.00E-02,  avg # of iterations =  5.8
 --- enter write_ns ---
 LDA+U parameters:
U( 1)     =  0.00000000
alpha( 1) =  0.00000000
U( 2)     =  0.00000000
alpha( 2) =  0.00000000
U( 3)     =  0.00000000
alpha( 3) =  0.00000000
atom    1   Tr[ns(na)] (up, down, total) =   2.07228  2.07228  4.14457
   spin  1
    eigenvalues: 
  0.277  0.328  0.441  0.474  0.551
    eigenvectors:
  0.000  0.000  0.000  0.135  0.865
  0.000  0.500  0.500  0.000  0.000
  0.000  0.500  0.500  0.000  0.000
  1.000  0.000  0.000  0.000  0.000
  0.000  0.000  0.000  0.865  0.135
    occupations:
  0.541 -0.000 -0.000 -0.000  0.026
 -0.000  0.385 -0.057  0.000  0.000
 -0.000 -0.057  0.385  0.000  0.000
 -0.000  0.000  0.000  0.277 -0.000
  0.026  0.000  0.000 -0.000  0.485
   spin  2
    eigenvalues: 
  0.277  0.328  0.441  0.474  0.551
    eigenvectors:
  0.000  0.000  0.000  0.135  0.865
  0.000  0.500  0.500  0.000  0.000
  0.000  0.500  0.500  0.000  0.000
  1.000  0.000  0.000  0.000  0.000
  0.000  0.000  0.000  0.865  0.135
    occupations:
  0.541 -0.000 -0.000 -0.000  0.026
 -0.000  0.385 -0.057  0.000  0.000
 -0.000 -0.057  0.385  0.000  0.000
 -0.000  0.000  0.000  0.277 -0.000
  0.026  0.000  0.000 -0.000  0.485
atomic mag. moment =     0.000000
atom    2   Tr[ns(na)] (up, down, total) =   2.07228  2.07228  4.14457
   spin  1
    eigenvalues: 
  0.277  0.328  0.441  0.474  0.551
    eigenvectors:
  0.000  0.000  0.000  0.135  0.865
  0.000  0.500  0.500  0.000  0.000
  0.000  0.500  0.500  0.000  0.000
  1.000  0.000  0.000  0.000  0.000
  0.000  0.000  0.000  0.865  0.135
    occupations:
  0.541  0.000  0.000 -0.000 -0.026
  0.000  0.385  0.057  0.000  0.000
  0.000  0.057  0.385 -0.000  0.000
 -0.000  0.000 -0.000  0.277 -0.000
 -0.026  0.000  0.000 -0.000  0.485
   spin  2
    eigenvalues: 
  0.277  0.328  0.441  0.474  0.551
    eigenvectors:
  0.000  0.000  0.000  0.135  0.865
  0.000  0.500  0.500  0.000  0.000
  0.000  0.500  0.500  0.000  0.000
  1.000  0.000  0.000  0.000  0.000
  0.000  0.000  0.000  0.865  0.135
    occupations:
  0.541 -0.000 -0.000 -0.000 -0.026
 -0.000  0.385  0.057 -0.000  0.000
 -0.000  0.057  0.385  0.000  0.000
 -0.000 -0.000  0.000  0.277 -0.000
 -0.026  0.000  0.000 -0.000  0.485
atomic mag. moment =    -0.000000
atom    3   Tr[ns(na)] (up, down, total) =   2.07228  2.07228  4.14457
   spin  1
    eigenvalues: 
  0.277  0.328  0.441  0.474  0.551
    eigenvectors:
  0.000  0.000  0.000  0.135  0.865
  0.000  0.500  0.500  0.000  0.000
  0.000  0.500  0.500  0.000  0.000
  1.000  0.000  0.000  0.000  0.000
  0.000  0.000  0.000  0.865  0.135
    occupations:
  0.541 -0.000 -0.000 -0.000  0.026
 -0.000  0.385 -0.057  0.000  0.000
 -0.000 -0.057  0.385  0.000  0.000
 -0.000  0.000  0.000  0.277 -0.000
  0.026  0.000  0.000 -0.000  0.485
   spin  2
    eigenvalues: 
  0.277  0.328  0.441  0.474  0.551
    eigenvectors:
  0.000  0.000  0.000  0.135  0.865
  0.000  0.500  0.500  0.000  0.000
  0.000  0.500  0.500  0.000  0.000
  1.000  0.000  0.000  0.000  0.000
  0.000  0.000  0.000  0.865  0.135
    occupations:
  0.541 -0.000 -0.000 -0.000  0.026
 -0.000  0.385 -0.057  0.000  0.000
 -0.000 -0.057  0.385  0.000  0.000
 -0.000  0.000  0.000  0.277 -0.000
  0.026  0.000  0.000 -0.000  0.485
atomic mag. moment =     0.000001
atom    4   Tr[ns(na)] (up, down, total) =   2.07228  2.07228  4.14457
   spin  1
    eigenvalues: 
  0.277  0.328  0.441  0.474  0.551
    eigenvectors:
  0.000  0.000  0.000  0.135  0.865
  0.000  0.500  0.500  0.000  0.000
  0.000  0.500  0.500  0.000  0.000
  1.000  0.000  0.000  0.000  0.000
  0.000  0.000  0.000  0.865  0.135
    occupations:
  0.541 -0.000 -0.000 -0.000 -0.026
 -0.000  0.385  0.057 -0.000 -0.000
 -0.000  0.057  0.385  0.000 -0.000
 -0.000 -0.000  0.000  0.277 -0.000
 -0.026 -0.000 -0.000 -0.000  0.485
   spin  2
    eigenvalues: 
  0.277  0.328  0.441  0.474  0.551
    eigenvectors:
  0.000  0.000  0.000  0.135  0.865
  0.000  0.500  0.500  0.000  0.000
  0.000  0.500  0.500  0.000  0.000
  1.000  0.000  0.000  0.000  0.000
  0.000  0.000  0.000  0.865  0.135
    occupations:
  0.541  0.000  0.000 -0.000 -0.026
  0.000  0.385  0.057  0.000 -0.000
  0.000  0.057  0.385 -0.000 -0.000
 -0.000  0.000 -0.000  0.277 -0.000
 -0.026 -0.000 -0.000 -0.000  0.485
atomic mag. moment =    -0.000000
atom    5   Tr[ns(na)] (up, down, total) =   2.07228  2.07228  4.14457
   spin  1
    eigenvalues: 
  0.277  0.328  0.441  0.474  0.551
    eigenvectors:
  0.000  0.000  0.000  0.135  0.865
  0.000  0.500  0.500  0.000  0.000
  0.000  0.500  0.500  0.000  0.000
  1.000  0.000  0.000  0.000  0.000
  0.000  0.000  0.000  0.865  0.135
    occupations:
  0.541 -0.000 -0.000 -0.000  0.026
 -0.000  0.385 -0.057  0.000  0.000
 -0.000 -0.057  0.385  0.000  0.000
 -0.000  0.000  0.000  0.277 -0.000
  0.026  0.000  0.000 -0.000  0.485
   spin  2
    eigenvalues: 
  0.277  0.328  0.441  0.474  0.551
    eigenvectors:
  0.000  0.000  0.000  0.135  0.865
  0.000  0.500  0.500  0.000  0.000
  0.000  0.500  0.500  0.000  0.000
  1.000  0.000  0.000  0.000  0.000
  0.000  0.000  0.000  0.865  0.135
    occupations:
  0.541 -0.000 -0.000 -0.000  0.026
 -0.000  0.385 -0.057  0.000  0.000
 -0.000 -0.057  0.385  0.000  0.000
 -0.000  0.000  0.000  0.277 -0.000
  0.026  0.000  0.000 -0.000  0.485
atomic mag. moment =     0.000000
atom    6   Tr[ns(na)] (up, down, total) =   2.07228  2.07228  4.14456
   spin  1
    eigenvalues: 
  0.277  0.328  0.441  0.474  0.551
    eigenvectors:
  0.000  0.000  0.000  0.135  0.865
  0.000  0.500  0.500  0.000  0.000
  0.000  0.500  0.500  0.000  0.000
  1.000  0.000  0.000  0.000  0.000
  0.000  0.000  0.000  0.865  0.135
    occupations:
  0.541  0.000 -0.000 -0.000 -0.026
  0.000  0.385  0.057  0.000 -0.000
 -0.000  0.057  0.385  0.000  0.000
 -0.000  0.000  0.000  0.277 -0.000
 -0.026 -0.000  0.000 -0.000  0.485
   spin  2
    eigenvalues: 
  0.277  0.328  0.441  0.474  0.551
    eigenvectors:
  0.000  0.000  0.000  0.135  0.865
  0.000  0.500  0.500  0.000  0.000
  0.000  0.500  0.500  0.000  0.000
  1.000  0.000  0.000  0.000  0.000
  0.000  0.000  0.000  0.865  0.135
    occupations:
  0.541 -0.000  0.000 -0.000 -0.026
 -0.000  0.385  0.057  0.000  0.000
  0.000  0.057  0.385  0.000 -0.000
 -0.000  0.000  0.000  0.277 -0.000
 -0.026  0.000 -0.000 -0.000  0.485
atomic mag. moment =     0.000002
atom    7   Tr[ns(na)] (up, down, total) =   2.07228  2.07228  4.14457
   spin  1
    eigenvalues: 
  0.277  0.328  0.441  0.474  0.551
    eigenvectors:
  0.000  0.000  0.000  0.135  0.865
  0.000  0.500  0.500  0.000  0.000
  0.000  0.500  0.500  0.000  0.000
  1.000  0.000  0.000  0.000  0.000
  0.000  0.000  0.000  0.865  0.135
    occupations:
  0.541 -0.000 -0.000  0.000  0.026
 -0.000  0.385 -0.057  0.000  0.000
 -0.000 -0.057  0.385  0.000  0.000
  0.000  0.000  0.000  0.277  0.000
  0.026  0.000  0.000  0.000  0.485
   spin  2
    eigenvalues: 
  0.277  0.328  0.441  0.474  0.551
    eigenvectors:
  0.000  0.000  0.000  0.135  0.865
  0.000  0.500  0.500  0.000  0.000
  0.000  0.500  0.500  0.000  0.000
  1.000  0.000  0.000  0.000  0.000
  0.000  0.000  0.000  0.865  0.135
    occupations:
  0.541 -0.000 -0.000 -0.000  0.026
 -0.000  0.385 -0.057  0.000  0.000
 -0.000 -0.057  0.385  0.000  0.000
 -0.000  0.000  0.000  0.277  0.000
  0.026  0.000  0.000  0.000  0.485
atomic mag. moment =     0.000002
atom    8   Tr[ns(na)] (up, down, total) =   2.07228  2.07228  4.14456
   spin  1
    eigenvalues: 
  0.277  0.328  0.441  0.474  0.551
    eigenvectors:
  0.000  0.000  0.000  0.135  0.865
  0.000  0.500  0.500  0.000  0.000
  0.000  0.500  0.500  0.000  0.000
  1.000  0.000  0.000  0.000  0.000
  0.000  0.000  0.000  0.865  0.135
    occupations:
  0.541 -0.000  0.000 -0.000 -0.026
 -0.000  0.385  0.057 -0.000  0.000
  0.000  0.057  0.385 -0.000 -0.000
 -0.000 -0.000 -0.000  0.277 -0.000
 -0.026  0.000 -0.000 -0.000  0.485
   spin  2
    eigenvalues: 
  0.277  0.328  0.441  0.474  0.551
    eigenvectors:
  0.000  0.000  0.000  0.135  0.865
  0.000  0.500  0.500  0.000  0.000
  0.000  0.500  0.500  0.000  0.000
  1.000  0.000  0.000  0.000  0.000
  0.000  0.000  0.000  0.865  0.135
    occupations:
  0.541  0.000 -0.000 -0.000 -0.026
  0.000  0.385  0.057 -0.000 -0.000
 -0.000  0.057  0.385 -0.000  0.000
 -0.000 -0.000 -0.000  0.277 -0.000
 -0.026 -0.000  0.000 -0.000  0.485
atomic mag. moment =     0.000002
atom    9   Tr[ns(na)] (up, down, total) =   2.07228  2.07228  4.14457
   spin  1
    eigenvalues: 
  0.277  0.328  0.441  0.474  0.551
    eigenvectors:
  0.000  0.000  0.000  0.135  0.865
  0.000  0.500  0.500  0.000  0.000
  0.000  0.500  0.500  0.000  0.000
  1.000  0.000  0.000  0.000  0.000
  0.000  0.000  0.000  0.865  0.135
    occupations:
  0.541 -0.000 -0.000  0.000  0.026
 -0.000  0.385 -0.057  0.000  0.000
 -0.000 -0.057  0.385  0.000  0.000
  0.000  0.000  0.000  0.277  0.000
  0.026  0.000  0.000  0.000  0.485
   spin  2
    eigenvalues: 
  0.277  0.328  0.441  0.474  0.551
    eigenvectors:
  0.000  0.000  0.000  0.135  0.865
  0.000  0.500  0.500  0.000  0.000
  0.000  0.500  0.500  0.000  0.000
  1.000  0.000  0.000  0.000  0.000
  0.000  0.000  0.000  0.865  0.135
    occupations:
  0.541 -0.000 -0.000  0.000  0.026
 -0.000  0.385 -0.057  0.000  0.000
 -0.000 -0.057  0.385  0.000  0.000
  0.000  0.000  0.000  0.277  0.000
  0.026  0.000  0.000  0.000  0.485
atomic mag. moment =     0.000000
atom   10   Tr[ns(na)] (up, down, total) =   2.07228  2.07228  4.14456
   spin  1
    eigenvalues: 
  0.277  0.328  0.441  0.474  0.551
    eigenvectors:
  0.000  0.000  0.000  0.135  0.865
  0.000  0.500  0.500  0.000  0.000
  0.000  0.500  0.500  0.000  0.000
  1.000  0.000  0.000  0.000  0.000
  0.000  0.000  0.000  0.865  0.135
    occupations:
  0.541 -0.000  0.000 -0.000 -0.026
 -0.000  0.385  0.057 -0.000  0.000
  0.000  0.057  0.385 -0.000 -0.000
 -0.000 -0.000 -0.000  0.277 -0.000
 -0.026  0.000 -0.000 -0.000  0.485
   spin  2
    eigenvalues: 
  0.277  0.328  0.441  0.474  0.551
    eigenvectors:
  0.000  0.000  0.000  0.135  0.865
  0.000  0.500  0.500  0.000  0.000
  0.000  0.500  0.500  0.000  0.000
  1.000  0.000  0.000  0.000  0.000
  0.000  0.000  0.000  0.865  0.135
    occupations:
  0.541  0.000 -0.000 -0.000 -0.026
  0.000  0.385  0.057 -0.000 -0.000
 -0.000  0.057  0.385 -0.000  0.000
 -0.000 -0.000 -0.000  0.277 -0.000
 -0.026 -0.000  0.000 -0.000  0.485
atomic mag. moment =     0.000002
atom   11   Tr[ns(na)] (up, down, total) =   2.07228  2.07228  4.14457
   spin  1
    eigenvalues: 
  0.277  0.328  0.441  0.474  0.551
    eigenvectors:
  0.000  0.000  0.000  0.135  0.865
  0.000  0.500  0.500  0.000  0.000
  0.000  0.500  0.500  0.000  0.000
  1.000  0.000  0.000  0.000  0.000
  0.000  0.000  0.000  0.865  0.135
    occupations:
  0.541 -0.000 -0.000 -0.000  0.026
 -0.000  0.385 -0.057  0.000  0.000
 -0.000 -0.057  0.385  0.000  0.000
 -0.000  0.000  0.000  0.277 -0.000
  0.026  0.000  0.000 -0.000  0.485
   spin  2
    eigenvalues: 
  0.277  0.328  0.441  0.474  0.551
    eigenvectors:
  0.000  0.000  0.000  0.135  0.865
  0.000  0.500  0.500  0.000  0.000
  0.000  0.500  0.500  0.000  0.000
  1.000  0.000  0.000  0.000  0.000
  0.000  0.000  0.000  0.865  0.135
    occupations:
  0.541 -0.000 -0.000  0.000  0.026
 -0.000  0.385 -0.057  0.000  0.000
 -0.000 -0.057  0.385  0.000  0.000
  0.000  0.000  0.000  0.277 -0.000
  0.026  0.000  0.000 -0.000  0.485
atomic mag. moment =     0.000002
atom   12   Tr[ns(na)] (up, down, total) =   2.07228  2.07228  4.14456
   spin  1
    eigenvalues: 
  0.277  0.328  0.441  0.474  0.551
    eigenvectors:
  0.000  0.000  0.000  0.135  0.865
  0.000  0.500  0.500  0.000  0.000
  0.000  0.500  0.500  0.000  0.000
  1.000  0.000  0.000  0.000  0.000
  0.000  0.000  0.000  0.865  0.135
    occupations:
  0.541  0.000 -0.000 -0.000 -0.026
  0.000  0.385  0.057  0.000 -0.000
 -0.000  0.057  0.385  0.000  0.000
 -0.000  0.000  0.000  0.277 -0.000
 -0.026 -0.000  0.000 -0.000  0.485
   spin  2
    eigenvalues: 
  0.277  0.328  0.441  0.474  0.551
    eigenvectors:
  0.000  0.000  0.000  0.135  0.865
  0.000  0.500  0.500  0.000  0.000
  0.000  0.500  0.500  0.000  0.000
  1.000  0.000  0.000  0.000  0.000
  0.000  0.000  0.000  0.865  0.135
    occupations:
  0.541 -0.000  0.000 -0.000 -0.026
 -0.000  0.385  0.057  0.000  0.000
  0.000  0.057  0.385  0.000 -0.000
 -0.000  0.000  0.000  0.277 -0.000
 -0.026  0.000 -0.000 -0.000  0.485
atomic mag. moment =     0.000002
atom   13   Tr[ns(na)] (up, down, total) =   2.07228  2.07228  4.14457
   spin  1
    eigenvalues: 
  0.277  0.328  0.441  0.474  0.551
    eigenvectors:
  0.000  0.000  0.000  0.135  0.865
  0.000  0.500  0.500  0.000  0.000
  0.000  0.500  0.500  0.000  0.000
  1.000  0.000  0.000  0.000  0.000
  0.000  0.000  0.000  0.865  0.135
    occupations:
  0.541 -0.000 -0.000 -0.000  0.026
 -0.000  0.385 -0.057  0.000  0.000
 -0.000 -0.057  0.385  0.000  0.000
 -0.000  0.000  0.000  0.277 -0.000
  0.026  0.000  0.000 -0.000  0.485
   spin  2
    eigenvalues: 
  0.277  0.328  0.441  0.474  0.551
    eigenvectors:
  0.000  0.000  0.000  0.135  0.865
  0.000  0.500  0.500  0.000  0.000
  0.000  0.500  0.500  0.000  0.000
  1.000  0.000  0.000  0.000  0.000
  0.000  0.000  0.000  0.865  0.135
    occupations:
  0.541 -0.000 -0.000 -0.000  0.026
 -0.000  0.385 -0.057  0.000  0.000
 -0.000 -0.057  0.385  0.000  0.000
 -0.000  0.000  0.000  0.277 -0.000
  0.026  0.000  0.000 -0.000  0.485
atomic mag. moment =    -0.000001
atom   14   Tr[ns(na)] (up, down, total) =   2.07228  2.07228  4.14457
   spin  1
    eigenvalues: 
  0.277  0.328  0.441  0.474  0.551
    eigenvectors:
  0.000  0.000  0.000  0.135  0.865
  0.000  0.500  0.500  0.000  0.000
  0.000  0.500  0.500  0.000  0.000
  1.000  0.000  0.000  0.000  0.000
  0.000  0.000  0.000  0.865  0.135
    occupations:
  0.541 -0.000 -0.000 -0.000 -0.026
 -0.000  0.385  0.057 -0.000 -0.000
 -0.000  0.057  0.385  0.000 -0.000
 -0.000 -0.000  0.000  0.277 -0.000
 -0.026 -0.000 -0.000 -0.000  0.485
   spin  2
    eigenvalues: 
  0.277  0.328  0.441  0.474  0.551
    eigenvectors:
  0.000  0.000  0.000  0.135  0.865
  0.000  0.500  0.500  0.000  0.000
  0.000  0.500  0.500  0.000  0.000
  1.000  0.000  0.000  0.000  0.000
  0.000  0.000  0.000  0.865  0.135
    occupations:
  0.541  0.000  0.000 -0.000 -0.026
  0.000  0.385  0.057  0.000 -0.000
  0.000  0.057  0.385 -0.000 -0.000
 -0.000  0.000 -0.000  0.277 -0.000
 -0.026 -0.000 -0.000 -0.000  0.485
atomic mag. moment =    -0.000000
atom   15   Tr[ns(na)] (up, down, total) =   2.07228  2.07228  4.14456
   spin  1
    eigenvalues: 
  0.277  0.328  0.441  0.474  0.551
    eigenvectors:
  0.000  0.000  0.000  0.135  0.865
  0.000  0.500  0.500  0.000  0.000
  0.000  0.500  0.500  0.000  0.000
  1.000  0.000  0.000  0.000  0.000
  0.000  0.000  0.000  0.865  0.135
    occupations:
  0.541 -0.000 -0.000 -0.000  0.026
 -0.000  0.385 -0.057  0.000  0.000
 -0.000 -0.057  0.385  0.000  0.000
 -0.000  0.000  0.000  0.277 -0.000
  0.026  0.000  0.000 -0.000  0.485
   spin  2
    eigenvalues: 
  0.277  0.328  0.441  0.474  0.551
    eigenvectors:
  0.000  0.000  0.000  0.135  0.865
  0.000  0.500  0.500  0.000  0.000
  0.000  0.500  0.500  0.000  0.000
  1.000  0.000  0.000  0.000  0.000
  0.000  0.000  0.000  0.865  0.135
    occupations:
  0.541 -0.000 -0.000 -0.000  0.026
 -0.000  0.385 -0.057  0.000  0.000
 -0.000 -0.057  0.385  0.000  0.000
 -0.000  0.000  0.000  0.277 -0.000
  0.026  0.000  0.000 -0.000  0.485
atomic mag. moment =    -0.000002
atom   16   Tr[ns(na)] (up, down, total) =   2.07228  2.07228  4.14457
   spin  1
    eigenvalues: 
  0.277  0.328  0.441  0.474  0.551
    eigenvectors:
  0.000  0.000  0.000  0.135  0.865
  0.000  0.500  0.500  0.000  0.000
  0.000  0.500  0.500  0.000  0.000
  1.000  0.000  0.000  0.000  0.000
  0.000  0.000  0.000  0.865  0.135
    occupations:
  0.541  0.000  0.000 -0.000 -0.026
  0.000  0.385  0.057  0.000  0.000
  0.000  0.057  0.385 -0.000  0.000
 -0.000  0.000 -0.000  0.277 -0.000
 -0.026  0.000  0.000 -0.000  0.485
   spin  2
    eigenvalues: 
  0.277  0.328  0.441  0.474  0.551
    eigenvectors:
  0.000  0.000  0.000  0.135  0.865
  0.000  0.500  0.500  0.000  0.000
  0.000  0.500  0.500  0.000  0.000
  1.000  0.000  0.000  0.000  0.000
  0.000  0.000  0.000  0.865  0.135
    occupations:
  0.541 -0.000 -0.000 -0.000 -0.026
 -0.000  0.385  0.057 -0.000  0.000
 -0.000  0.057  0.385  0.000  0.000
 -0.000 -0.000  0.000  0.277 -0.000
 -0.026  0.000  0.000 -0.000  0.485
atomic mag. moment =    -0.000000
atom   17   Tr[ns(na)] (up, down, total) =   2.92495  2.92495  5.84990
   spin  1
    eigenvalues: 
  0.969  0.975  0.981
    eigenvectors:
  0.000  1.000  0.000
  0.500  0.000  0.500
  0.500  0.000  0.500
    occupations:
  0.975 -0.000 -0.000
 -0.000  0.975 -0.006
 -0.000 -0.006  0.975
   spin  2
    eigenvalues: 
  0.969  0.975  0.981
    eigenvectors:
  0.000  1.000  0.000
  0.500  0.000  0.500
  0.500  0.000  0.500
    occupations:
  0.975 -0.000 -0.000
 -0.000  0.975 -0.006
 -0.000 -0.006  0.975
atomic mag. moment =     0.000001
atom   18   Tr[ns(na)] (up, down, total) =   2.92495  2.92495  5.84990
   spin  1
    eigenvalues: 
  0.969  0.975  0.981
    eigenvectors:
  0.000  1.000  0.000
  0.500  0.000  0.500
  0.500  0.000  0.500
    occupations:
  0.975 -0.000 -0.000
 -0.000  0.975 -0.006
 -0.000 -0.006  0.975
   spin  2
    eigenvalues: 
  0.969  0.975  0.981
    eigenvectors:
  0.000  1.000  0.000
  0.500  0.000  0.500
  0.500  0.000  0.500
    occupations:
  0.975 -0.000 -0.000
 -0.000  0.975 -0.006
 -0.000 -0.006  0.975
atomic mag. moment =     0.000001
atom   19   Tr[ns(na)] (up, down, total) =   2.92495  2.92495  5.84990
   spin  1
    eigenvalues: 
  0.969  0.975  0.981
    eigenvectors:
  0.000  1.000  0.000
  0.500  0.000  0.500
  0.500  0.000  0.500
    occupations:
  0.975 -0.000  0.000
 -0.000  0.975  0.006
  0.000  0.006  0.975
   spin  2
    eigenvalues: 
  0.969  0.975  0.981
    eigenvectors:
  0.000  1.000  0.000
  0.500  0.000  0.500
  0.500  0.000  0.500
    occupations:
  0.975 -0.000  0.000
 -0.000  0.975  0.006
  0.000  0.006  0.975
atomic mag. moment =    -0.000000
atom   20   Tr[ns(na)] (up, down, total) =   2.92495  2.92495  5.84990
   spin  1
    eigenvalues: 
  0.969  0.975  0.981
    eigenvectors:
  0.000  1.000  0.000
  0.500  0.000  0.500
  0.500  0.000  0.500
    occupations:
  0.975  0.000 -0.000
  0.000  0.975  0.006
 -0.000  0.006  0.975
   spin  2
    eigenvalues: 
  0.969  0.975  0.981
    eigenvectors:
  0.000  1.000  0.000
  0.500  0.000  0.500
  0.500  0.000  0.500
    occupations:
  0.975  0.000 -0.000
  0.000  0.975  0.006
 -0.000  0.006  0.975
atomic mag. moment =    -0.000000
atom   21   Tr[ns(na)] (up, down, total) =   2.92495  2.92495  5.84990
   spin  1
    eigenvalues: 
  0.969  0.975  0.981
    eigenvectors:
  0.000  1.000  0.000
  0.500  0.000  0.500
  0.500  0.000  0.500
    occupations:
  0.975 -0.000 -0.000
 -0.000  0.975 -0.006
 -0.000 -0.006  0.975
   spin  2
    eigenvalues: 
  0.969  0.975  0.981
    eigenvectors:
  0.000  1.000  0.000
  0.500  0.000  0.500
  0.500  0.000  0.500
    occupations:
  0.975 -0.000 -0.000
 -0.000  0.975 -0.006
 -0.000 -0.006  0.975
atomic mag. moment =     0.000000
atom   22   Tr[ns(na)] (up, down, total) =   2.92495  2.92495  5.84990
   spin  1
    eigenvalues: 
  0.969  0.975  0.981
    eigenvectors:
  0.000  1.000  0.000
  0.500  0.000  0.500
  0.500  0.000  0.500
    occupations:
  0.975 -0.000 -0.000
 -0.000  0.975 -0.006
 -0.000 -0.006  0.975
   spin  2
    eigenvalues: 
  0.969  0.975  0.981
    eigenvectors:
  0.000  1.000  0.000
  0.500  0.000  0.500
  0.500  0.000  0.500
    occupations:
  0.975 -0.000 -0.000
 -0.000  0.975 -0.006
 -0.000 -0.006  0.975
atomic mag. moment =     0.000000
atom   23   Tr[ns(na)] (up, down, total) =   2.92495  2.92495  5.84990
   spin  1
    eigenvalues: 
  0.969  0.975  0.981
    eigenvectors:
  0.000  1.000  0.000
  0.500  0.000  0.500
  0.500  0.000  0.500
    occupations:
  0.975  0.000 -0.000
  0.000  0.975  0.006
 -0.000  0.006  0.975
   spin  2
    eigenvalues: 
  0.969  0.975  0.981
    eigenvectors:
  0.000  1.000  0.000
  0.500  0.000  0.500
  0.500  0.000  0.500
    occupations:
  0.975  0.000 -0.000
  0.000  0.975  0.006
 -0.000  0.006  0.975
atomic mag. moment =    -0.000000
atom   24   Tr[ns(na)] (up, down, total) =   2.92495  2.92495  5.84990
   spin  1
    eigenvalues: 
  0.969  0.975  0.981
    eigenvectors:
  0.000  1.000  0.000
  0.500  0.000  0.500
  0.500  0.000  0.500
    occupations:
  0.975 -0.000  0.000
 -0.000  0.975  0.006
  0.000  0.006  0.975
   spin  2
    eigenvalues: 
  0.969  0.975  0.981
    eigenvectors:
  0.000  1.000  0.000
  0.500  0.000  0.500
  0.500  0.000  0.500
    occupations:
  0.975 -0.000  0.000
 -0.000  0.975  0.006
  0.000  0.006  0.975
atomic mag. moment =    -0.000000
atom   25   Tr[ns(na)] (up, down, total) =   2.92495  2.92495  5.84990
   spin  1
    eigenvalues: 
  0.969  0.975  0.981
    eigenvectors:
  0.000  1.000  0.000
  0.500  0.000  0.500
  0.500  0.000  0.500
    occupations:
  0.975 -0.000 -0.000
 -0.000  0.975 -0.006
 -0.000 -0.006  0.975
   spin  2
    eigenvalues: 
  0.969  0.975  0.981
    eigenvectors:
  0.000  1.000  0.000
  0.500  0.000  0.500
  0.500  0.000  0.500
    occupations:
  0.975 -0.000 -0.000
 -0.000  0.975 -0.006
 -0.000 -0.006  0.975
atomic mag. moment =     0.000000
atom   26   Tr[ns(na)] (up, down, total) =   2.92495  2.92495  5.84990
   spin  1
    eigenvalues: 
  0.969  0.975  0.981
    eigenvectors:
  0.000  1.000  0.000
  0.500  0.000  0.500
  0.500  0.000  0.500
    occupations:
  0.975 -0.000 -0.000
 -0.000  0.975 -0.006
 -0.000 -0.006  0.975
   spin  2
    eigenvalues: 
  0.969  0.975  0.981
    eigenvectors:
  0.000  1.000  0.000
  0.500  0.000  0.500
  0.500  0.000  0.500
    occupations:
  0.975 -0.000 -0.000
 -0.000  0.975 -0.006
 -0.000 -0.006  0.975
atomic mag. moment =     0.000000
atom   27   Tr[ns(na)] (up, down, total) =   2.92495  2.92495  5.84990
   spin  1
    eigenvalues: 
  0.969  0.975  0.981
    eigenvectors:
  0.000  1.000  0.000
  0.500  0.000  0.500
  0.500  0.000  0.500
    occupations:
  0.975  0.000 -0.000
  0.000  0.975  0.006
 -0.000  0.006  0.975
   spin  2
    eigenvalues: 
  0.969  0.975  0.981
    eigenvectors:
  0.000  1.000  0.000
  0.500  0.000  0.500
  0.500  0.000  0.500
    occupations:
  0.975 -0.000  0.000
 -0.000  0.975  0.006
  0.000  0.006  0.975
atomic mag. moment =    -0.000000
atom   28   Tr[ns(na)] (up, down, total) =   2.92495  2.92495  5.84990
   spin  1
    eigenvalues: 
  0.969  0.975  0.981
    eigenvectors:
  0.000  1.000  0.000
  0.500  0.000  0.500
  0.500  0.000  0.500
    occupations:
  0.975 -0.000  0.000
 -0.000  0.975  0.006
  0.000  0.006  0.975
   spin  2
    eigenvalues: 
  0.969  0.975  0.981
    eigenvectors:
  0.000  1.000  0.000
  0.500  0.000  0.500
  0.500  0.000  0.500
    occupations:
  0.975  0.000 -0.000
  0.000  0.975  0.006
 -0.000  0.006  0.975
atomic mag. moment =    -0.000000
atom   29   Tr[ns(na)] (up, down, total) =   2.92495  2.92495  5.84990
   spin  1
    eigenvalues: 
  0.969  0.975  0.981
    eigenvectors:
  0.000  1.000  0.000
  0.500  0.000  0.500
  0.500  0.000  0.500
    occupations:
  0.975 -0.000 -0.000
 -0.000  0.975 -0.006
 -0.000 -0.006  0.975
   spin  2
    eigenvalues: 
  0.969  0.975  0.981
    eigenvectors:
  0.000  1.000  0.000
  0.500  0.000  0.500
  0.500  0.000  0.500
    occupations:
  0.975 -0.000 -0.000
 -0.000  0.975 -0.006
 -0.000 -0.006  0.975
atomic mag. moment =     0.000000
atom   30   Tr[ns(na)] (up, down, total) =   2.92495  2.92495  5.84990
   spin  1
    eigenvalues: 
  0.969  0.975  0.981
    eigenvectors:
  0.000  1.000  0.000
  0.500  0.000  0.500
  0.500  0.000  0.500
    occupations:
  0.975 -0.000 -0.000
 -0.000  0.975 -0.006
 -0.000 -0.006  0.975
   spin  2
    eigenvalues: 
  0.969  0.975  0.981
    eigenvectors:
  0.000  1.000  0.000
  0.500  0.000  0.500
  0.500  0.000  0.500
    occupations:
  0.975 -0.000 -0.000
 -0.000  0.975 -0.006
 -0.000 -0.006  0.975
atomic mag. moment =     0.000000
atom   31   Tr[ns(na)] (up, down, total) =   2.92495  2.92495  5.84990
   spin  1
    eigenvalues: 
  0.969  0.975  0.981
    eigenvectors:
  0.000  1.000  0.000
  0.500  0.000  0.500
  0.500  0.000  0.500
    occupations:
  0.975 -0.000  0.000
 -0.000  0.975  0.006
  0.000  0.006  0.975
   spin  2
    eigenvalues: 
  0.969  0.975  0.981
    eigenvectors:
  0.000  1.000  0.000
  0.500  0.000  0.500
  0.500  0.000  0.500
    occupations:
  0.975  0.000 -0.000
  0.000  0.975  0.006
 -0.000  0.006  0.975
atomic mag. moment =    -0.000000
atom   32   Tr[ns(na)] (up, down, total) =   2.92495  2.92495  5.84990
   spin  1
    eigenvalues: 
  0.969  0.975  0.981
    eigenvectors:
  0.000  1.000  0.000
  0.500  0.000  0.500
  0.500  0.000  0.500
    occupations:
  0.975  0.000 -0.000
  0.000  0.975  0.006
 -0.000  0.006  0.975
   spin  2
    eigenvalues: 
  0.969  0.975  0.981
    eigenvectors:
  0.000  1.000  0.000
  0.500  0.000  0.500
  0.500  0.000  0.500
    occupations:
  0.975 -0.000  0.000
 -0.000  0.975  0.006
  0.000  0.006  0.975
atomic mag. moment =    -0.000000
atom   33   Tr[ns(na)] (up, down, total) =   2.92495  2.92495  5.84990
   spin  1
    eigenvalues: 
  0.969  0.975  0.981
    eigenvectors:
  0.000  1.000  0.000
  0.500  0.000  0.500
  0.500  0.000  0.500
    occupations:
  0.975 -0.000 -0.000
 -0.000  0.975 -0.006
 -0.000 -0.006  0.975
   spin  2
    eigenvalues: 
  0.969  0.975  0.981
    eigenvectors:
  0.000  1.000  0.000
  0.500  0.000  0.500
  0.500  0.000  0.500
    occupations:
  0.975 -0.000 -0.000
 -0.000  0.975 -0.006
 -0.000 -0.006  0.975
atomic mag. moment =     0.000000
atom   34   Tr[ns(na)] (up, down, total) =   2.92495  2.92495  5.84990
   spin  1
    eigenvalues: 
  0.969  0.975  0.981
    eigenvectors:
  0.000  1.000  0.000
  0.500  0.000  0.500
  0.500  0.000  0.500
    occupations:
  0.975 -0.000 -0.000
 -0.000  0.975 -0.006
 -0.000 -0.006  0.975
   spin  2
    eigenvalues: 
  0.969  0.975  0.981
    eigenvectors:
  0.000  1.000  0.000
  0.500  0.000  0.500
  0.500  0.000  0.500
    occupations:
  0.975 -0.000 -0.000
 -0.000  0.975 -0.006
 -0.000 -0.006  0.975
atomic mag. moment =     0.000000
atom   35   Tr[ns(na)] (up, down, total) =   2.92495  2.92495  5.84990
   spin  1
    eigenvalues: 
  0.969  0.975  0.981
    eigenvectors:
  0.000  1.000  0.000
  0.500  0.000  0.500
  0.500  0.000  0.500
    occupations:
  0.975  0.000 -0.000
  0.000  0.975  0.006
 -0.000  0.006  0.975
   spin  2
    eigenvalues: 
  0.969  0.975  0.981
    eigenvectors:
  0.000  1.000  0.000
  0.500  0.000  0.500
  0.500  0.000  0.500
    occupations:
  0.975 -0.000  0.000
 -0.000  0.975  0.006
  0.000  0.006  0.975
atomic mag. moment =    -0.000000
atom   36   Tr[ns(na)] (up, down, total) =   2.92495  2.92495  5.84990
   spin  1
    eigenvalues: 
  0.969  0.975  0.981
    eigenvectors:
  0.000  1.000  0.000
  0.500  0.000  0.500
  0.500  0.000  0.500
    occupations:
  0.975 -0.000  0.000
 -0.000  0.975  0.006
  0.000  0.006  0.975
   spin  2
    eigenvalues: 
  0.969  0.975  0.981
    eigenvectors:
  0.000  1.000  0.000
  0.500  0.000  0.500
  0.500  0.000  0.500
    occupations:
  0.975  0.000 -0.000
  0.000  0.975  0.006
 -0.000  0.006  0.975
atomic mag. moment =    -0.000000
atom   37   Tr[ns(na)] (up, down, total) =   2.92495  2.92495  5.84990
   spin  1
    eigenvalues: 
  0.969  0.975  0.981
    eigenvectors:
  0.000  1.000  0.000
  0.500  0.000  0.500
  0.500  0.000  0.500
    occupations:
  0.975 -0.000 -0.000
 -0.000  0.975 -0.006
 -0.000 -0.006  0.975
   spin  2
    eigenvalues: 
  0.969  0.975  0.981
    eigenvectors:
  0.000  1.000  0.000
  0.500  0.000  0.500
  0.500  0.000  0.500
    occupations:
  0.975 -0.000 -0.000
 -0.000  0.975 -0.006
 -0.000 -0.006  0.975
atomic mag. moment =     0.000000
atom   38   Tr[ns(na)] (up, down, total) =   2.92495  2.92495  5.84990
   spin  1
    eigenvalues: 
  0.969  0.975  0.981
    eigenvectors:
  0.000  1.000  0.000
  0.500  0.000  0.500
  0.500  0.000  0.500
    occupations:
  0.975 -0.000 -0.000
 -0.000  0.975 -0.006
 -0.000 -0.006  0.975
   spin  2
    eigenvalues: 
  0.969  0.975  0.981
    eigenvectors:
  0.000  1.000  0.000
  0.500  0.000  0.500
  0.500  0.000  0.500
    occupations:
  0.975 -0.000 -0.000
 -0.000  0.975 -0.006
 -0.000 -0.006  0.975
atomic mag. moment =     0.000000
atom   39   Tr[ns(na)] (up, down, total) =   2.92495  2.92495  5.84990
   spin  1
    eigenvalues: 
  0.969  0.975  0.981
    eigenvectors:
  0.000  1.000  0.000
  0.500  0.000  0.500
  0.500  0.000  0.500
    occupations:
  0.975 -0.000  0.000
 -0.000  0.975  0.006
  0.000  0.006  0.975
   spin  2
    eigenvalues: 
  0.969  0.975  0.981
    eigenvectors:
  0.000  1.000  0.000
  0.500  0.000  0.500
  0.500  0.000  0.500
    occupations:
  0.975  0.000 -0.000
  0.000  0.975  0.006
 -0.000  0.006  0.975
atomic mag. moment =    -0.000000
atom   40   Tr[ns(na)] (up, down, total) =   2.92495  2.92495  5.84990
   spin  1
    eigenvalues: 
  0.969  0.975  0.981
    eigenvectors:
  0.000  1.000  0.000
  0.500  0.000  0.500
  0.500  0.000  0.500
    occupations:
  0.975  0.000 -0.000
  0.000  0.975  0.006
 -0.000  0.006  0.975
   spin  2
    eigenvalues: 
  0.969  0.975  0.981
    eigenvectors:
  0.000  1.000  0.000
  0.500  0.000  0.500
  0.500  0.000  0.500
    occupations:
  0.975 -0.000  0.000
 -0.000  0.975  0.006
  0.000  0.006  0.975
atomic mag. moment =    -0.000000
atom   41   Tr[ns(na)] (up, down, total) =   2.92495  2.92495  5.84990
   spin  1
    eigenvalues: 
  0.969  0.975  0.981
    eigenvectors:
  0.000  1.000  0.000
  0.500  0.000  0.500
  0.500  0.000  0.500
    occupations:
  0.975 -0.000 -0.000
 -0.000  0.975 -0.006
 -0.000 -0.006  0.975
   spin  2
    eigenvalues: 
  0.969  0.975  0.981
    eigenvectors:
  0.000  1.000  0.000
  0.500  0.000  0.500
  0.500  0.000  0.500
    occupations:
  0.975 -0.000 -0.000
 -0.000  0.975 -0.006
 -0.000 -0.006  0.975
atomic mag. moment =     0.000000
atom   42   Tr[ns(na)] (up, down, total) =   2.92495  2.92495  5.84990
   spin  1
    eigenvalues: 
  0.969  0.975  0.981
    eigenvectors:
  0.000  1.000  0.000
  0.500  0.000  0.500
  0.500  0.000  0.500
    occupations:
  0.975 -0.000 -0.000
 -0.000  0.975 -0.006
 -0.000 -0.006  0.975
   spin  2
    eigenvalues: 
  0.969  0.975  0.981
    eigenvectors:
  0.000  1.000  0.000
  0.500  0.000  0.500
  0.500  0.000  0.500
    occupations:
  0.975 -0.000 -0.000
 -0.000  0.975 -0.006
 -0.000 -0.006  0.975
atomic mag. moment =     0.000000
atom   43   Tr[ns(na)] (up, down, total) =   2.92495  2.92495  5.84990
   spin  1
    eigenvalues: 
  0.969  0.975  0.981
    eigenvectors:
  0.000  1.000  0.000
  0.500  0.000  0.500
  0.500  0.000  0.500
    occupations:
  0.975 -0.000  0.000
 -0.000  0.975  0.006
  0.000  0.006  0.975
   spin  2
    eigenvalues: 
  0.969  0.975  0.981
    eigenvectors:
  0.000  1.000  0.000
  0.500  0.000  0.500
  0.500  0.000  0.500
    occupations:
  0.975 -0.000  0.000
 -0.000  0.975  0.006
  0.000  0.006  0.975
atomic mag. moment =    -0.000000
atom   44   Tr[ns(na)] (up, down, total) =   2.92495  2.92495  5.84990
   spin  1
    eigenvalues: 
  0.969  0.975  0.981
    eigenvectors:
  0.000  1.000  0.000
  0.500  0.000  0.500
  0.500  0.000  0.500
    occupations:
  0.975  0.000 -0.000
  0.000  0.975  0.006
 -0.000  0.006  0.975
   spin  2
    eigenvalues: 
  0.969  0.975  0.981
    eigenvectors:
  0.000  1.000  0.000
  0.500  0.000  0.500
  0.500  0.000  0.500
    occupations:
  0.975  0.000 -0.000
  0.000  0.975  0.006
 -0.000  0.006  0.975
atomic mag. moment =    -0.000000
atom   45   Tr[ns(na)] (up, down, total) =   2.92495  2.92495  5.84990
   spin  1
    eigenvalues: 
  0.969  0.975  0.981
    eigenvectors:
  0.000  1.000  0.000
  0.500  0.000  0.500
  0.500  0.000  0.500
[...]
    -7.0800  -7.0800  -7.0756  -7.0665  -6.9239  -6.9239  -6.8254  -6.7911
    -6.6140  -6.6140  -6.5131  -6.4707  -6.3421  -6.3092  -6.3092  -6.2921
    -6.1947  -6.1863  -6.1863  -6.1766  -6.1564  -6.1101  -6.0018  -6.0018
     4.3298   4.3405   4.7307   4.7307   4.7312   4.7792   4.9469   4.9469
     5.0688   5.0688   5.1259   5.1833   5.2305   5.2305   5.2335   5.3216
     5.4419   5.4419   5.4902   5.4984   5.4984   5.5924   5.8368   5.9192
     5.9796   5.9796   6.0144   6.0871   6.1365   6.3191   6.3191   6.5470
     6.5673   6.5835   6.5907   6.5907   6.6213   6.6414   6.6414   6.6626
     6.6713   6.6747   6.6979   6.7309   6.7309   7.0009   7.0009   7.1002
     7.1002   7.1125   7.1841   7.1959   7.4892   7.4911   7.5482   7.5546
     7.5546   7.5914   7.6833   7.7069   7.7069   7.9163   7.9163   7.9241
     7.9241   7.9332   8.0311   8.0802   8.2570   8.3471   8.3471   8.3531
     8.3531   8.3820   8.4419   8.4431   8.5755   8.5755   8.6101   8.6269
     8.6449   8.6659   8.6659   8.6701   8.6701   8.7387   8.7678   8.7678
     8.8266   8.8313   8.9789   9.0045   9.0514   9.2604   9.2604   9.6922
    11.4260  11.4702  11.8309  11.8677  11.8677  11.8887  12.1718  12.1718
    12.2747  12.2748  12.4821  12.4821  12.5845  12.9525  13.1051  13.1887
    13.3856  13.4862  13.5042  13.5359  13.6924  13.8401  13.8545  13.8546
    13.8726  13.9570  13.9570  14.1489  14.1489  14.1626  14.2286  14.2286
    14.4178  14.4649  14.5200  14.5200  14.8759  14.9874  14.9874  15.3124
    15.3251  15.3251  15.3343  15.3420  15.3565  15.3566  15.3627  15.7528
    16.0113  16.4796  16.4796  16.6978  16.6978  16.7072  16.8146  16.8267
    16.9052  16.9540  16.9540  17.2713  17.2713  17.3572  17.5524  17.5972
    17.6068  17.6068  17.6147  17.6343  17.6343  17.8873  17.9031  17.9463
    18.0347  18.0465  18.7935  18.8980  18.8980  19.0339  19.0423  19.0423
    19.4725  19.4957  19.4958  19.6008  19.9453  19.9453  20.2444  20.5254
    20.7310  20.9474  21.1318  21.1318  21.3743  21.4125  21.4125  21.5114
    21.6828  21.6828  21.6956  21.7149  21.8027  22.3080  22.4888  22.8558
    22.8558  23.1809  23.1851  23.1851  23.2732  23.2732  23.4485  23.7023
    23.8359  24.0560  24.0560  24.1200  24.2908  24.2908  24.4650  24.4757
    24.4929  24.4929  24.6082  24.6082  24.6155  24.6701  25.1607  25.3476
    25.8831  25.8831  26.1119  26.1518  26.2009  26.2842  26.2843  26.3059
    26.3059  26.3186  26.3706  26.3817  26.7220  27.0028  27.2178  27.2178
    27.2306  27.2306  27.4503  27.6169  27.6169  27.6799  27.9108  27.9918
    28.0515  28.4146  28.8234  28.9029  28.9268  28.9268  28.9622  28.9622
    29.0924  29.0924  29.1850  29.1850  29.4666  29.6179  29.9678  29.9678
    30.0553  30.3302  30.4169  30.4877  30.4877  30.5817  30.5817  30.7039
    30.8950  30.9326  31.1270  31.1946  31.2369  31.2439  31.3478  31.5719
    31.6061  31.6061  31.7229  31.7229  31.7303  32.0771  32.0938  32.2093
    32.2400  32.4571  32.5229  32.5229  32.5340  32.5340  32.5762  32.7048
    32.7048  32.8400  32.8400  33.3091  33.5316  33.5316  33.6032  33.6037
    33.7348  33.7411  33.7945  33.7945  33.8726  33.9267  33.9267  33.9415
    34.3148  34.6966  34.7994  34.9067  34.9067  34.9200  34.9521  35.0848
    35.1641  35.1641  35.4344  35.6826  36.1325  36.1325  36.2001  36.5081
    36.5081  36.6736  36.8404  36.8404  36.8518  36.8564  36.8564  37.0420
    37.0529  37.2056  37.2338  37.2338  37.2778  37.3497  37.3672  37.3801
    37.3801  37.6295  37.6895  37.6895  37.8893  37.8893  38.0210  38.0210
    38.6545  38.6545  38.8404  38.8404  38.9811  38.9831  39.0782  39.1822
    39.4371  39.4823  39.5369  39.6041  39.6383  39.6756  39.7143  39.7143
    39.8272  39.8841  39.9766  39.9766  40.1118  40.1118  40.1771  40.1771
    40.1945  40.2622  40.2743  40.3976  40.4133  40.4202  40.4899  40.5099
    40.5344  40.9196  40.9196  41.0107  41.0355  41.0355  41.5564  41.5564
    41.5836  41.5907  41.5907  41.5944  41.7380  41.7380  41.7791  41.7791
    41.7961  41.7982  41.9269  41.9568  42.0953  42.1874  42.1874  42.1891
    42.2687  42.2687  42.2838  42.4080  42.4080  42.4088  42.4250  42.4250
    42.4415  42.4452  42.6947  42.7796  42.8602  42.9350  42.9604  42.9604
    42.9704  43.0150  43.0793  43.0793  43.1136  43.1721  43.2326  43.3654
    43.3654  43.3820  43.3820  43.5436  43.5436  43.6429  43.6994  43.7046
    43.7808  43.8513  43.8546  43.9763  44.0261  44.0261  44.2364  44.2752
    44.2752  44.4184  44.4220  44.7496  44.7496  44.8287  44.8642  44.8718
    44.9764  44.9764  45.0128  45.1937  45.3208  45.3208  45.4051  45.5809
    45.6221  45.6221  45.6900  45.7205  45.8036  45.8036  45.8672  46.0339
    46.0705  46.0705  46.0942  46.0942  46.1835  46.1835  46.4536  46.6052
    46.6052  46.6470  46.6679  46.6679  46.6894  46.7269  46.7671  46.7671
    47.0087  47.0235  47.1190  47.1190  47.2677  47.3861  47.3870  47.4978
    47.6466  47.7982  47.8807  47.8807  47.9790  48.1127  48.1134  48.1134

          k =-0.2500 0.2500-0.4172 ( 16641 PWs)   bands (ev):

   -44.1300 -44.1261 -44.1261 -44.1244 -44.1221 -44.1204 -44.1204 -44.1165
   -44.0705 -44.0688 -44.0688 -44.0681 -44.0671 -44.0664 -44.0664 -44.0648
   -20.6309 -20.6308 -20.6197 -20.6183 -20.6183 -20.6174 -20.6038 -20.6024
   -20.4676 -20.4595 -20.4482 -20.4437 -20.4437 -20.4393 -20.4207 -20.4207
   -20.3709 -20.3681 -20.3519 -20.3507 -20.3507 -20.3493 -20.3334 -20.3334
   -20.1557 -20.1557 -20.1313 -20.1287 -20.1286 -20.1260 -20.1065 -20.1018
   -20.0158 -20.0041 -20.0041 -20.0019 -20.0017 -20.0017 -19.9986 -19.9985
   -19.9984 -19.9984 -19.9971 -19.9954 -19.9952 -19.9905 -19.9904 -19.9837
    -7.4880  -7.2599  -7.2091  -7.2091  -7.1469  -7.1469  -7.0975  -7.0217
    -7.0114  -7.0081  -7.0081  -6.9595  -6.7914  -6.7914  -6.7262  -6.6904
    -6.6897  -6.6897  -6.6503  -6.6033  -6.4113  -6.3788  -6.3788  -6.3631
    -6.3023  -6.3023  -6.2928  -6.2851  -6.2530  -6.2088  -6.1348  -6.1348
     4.5759   4.5994   4.9376   4.9376   4.9399   4.9910   5.1001   5.1002
     5.1809   5.1993   5.1993   5.2277   5.3151   5.3151   5.3844   5.5223
     5.5255   5.6484   5.6704   5.6704   5.7142   5.7142   5.7246   5.7246
     5.8014   5.8226   5.8416   5.9103   5.9103   6.0094   6.0928   6.1755
     6.2207   6.2538   6.3129   6.4230   6.4230   6.5091   6.5091   6.6910
     6.7578   6.9119   7.0005   7.0136   7.0939   7.0939   7.1446   7.1446
     7.2837   7.3625   7.3625   7.3869   7.3869   7.5404   7.6066   7.6457
     7.6610   7.6812   7.6812   7.7322   7.7523   7.7523   7.7852   7.7878
     7.7878   7.8269   7.9480   7.9480   7.9692   8.0030   8.1911   8.1911
     8.2104   8.2210   8.2210   8.2281   8.2999   8.3364   8.4225   8.4562
     8.5909   8.6049   8.6345   8.6345   8.6650   8.7338   8.8115   8.8827
     8.8827   8.9158   8.9732   8.9732   9.0961   9.2627   9.2627   9.6051
    11.8930  11.8980  12.2634  12.2735  12.2735  12.3182  12.3582  12.3582
    12.5443  12.5443  12.7356  12.7426  12.7643  12.7643  12.8788  13.2175
    13.3580  13.4265  13.4265  13.4600  13.5799  13.6246  13.6696  13.7048
    13.8068  13.8895  13.8895  14.1497  14.1497  14.1970  14.2120  14.2149
    14.2149  14.3734  14.4539  14.4688  14.4688  14.6086  14.6163  14.6163
    14.6329  14.7204  14.7226  14.8378  14.8378  14.9424  14.9424  15.6028
    16.3427  16.3545  16.3545  16.7738  16.7739  16.8126  16.8981  16.9471
    16.9471  16.9721  16.9721  17.0761  17.1288  17.2496  17.4327  17.4328
    17.6282  17.6887  17.7040  17.7172  17.7634  17.7829  17.8937  17.9889
    17.9889  18.0879  18.6344  18.6344  18.7676  18.9633  19.3069  19.3069
    19.3503  19.3503  19.5105  19.9664  20.2038  20.4224  20.4224  20.5840
    20.6313  20.6313  20.8353  21.2259  21.3284  21.4452  21.7706  21.7706
    21.9260  22.2273  22.2273  22.3245  22.5508  22.6231  22.9422  23.1959
    23.1959  23.4346  23.5635  23.5635  23.6417  23.6417  23.8220  23.9210
    24.0410  24.2839  24.2839  24.3929  24.5837  24.5837  24.6562  24.6572
    24.7160  24.7160  24.7315  24.9282  24.9282  25.0647  25.1980  25.2718
    25.6255  25.7312  25.7632  25.7632  25.9818  25.9818  26.1094  26.3454
    26.3454  26.4540  26.5891  26.8460  26.8627  27.0050  27.0050  27.0528
    27.1191  27.3366  27.3366  27.4231  27.7287  27.7287  27.7344  27.8397
    27.9981  28.0357  28.0358  28.3261  28.4367  28.5026  28.5026  28.5793
    28.6886  28.6886  29.4183  29.4183  29.4425  29.4618  29.6272  29.7087
    30.1122  30.3128  30.4220  30.4318  30.4318  30.6278  30.8073  30.8073
    31.0103  31.1898  31.2541  31.2949  31.2950  31.3447  31.3529  31.4513
    31.4513  31.5322  31.6684  31.6874  31.8141  31.8141  32.0547  32.0547
    32.3710  32.4697  32.4697  32.5300  32.7133  32.7133  32.7371  32.9961
    33.0750  33.0750  33.2139  33.2267  33.5343  33.5343  33.7155  33.7155
    33.8601  34.1542  34.2152  34.2152  34.2789  34.4393  34.4881  34.5056
    34.6313  34.6313  34.6515  34.7179  34.7260  34.9562  34.9620  34.9620
    35.2797  35.3038  35.3785  35.8317  35.8317  35.8324  36.0758  36.0758
    36.1295  36.1295  36.1459  36.1960  36.6037  36.6289  36.6289  36.6824
    36.7439  36.8130  37.0499  37.0499  37.1762  37.1909  37.3299  37.3299
    37.3333  37.3333  37.6839  37.7458  37.7458  37.9435  37.9745  38.3108
    38.3916  38.4304  38.4942  38.5574  38.5574  38.5770  38.7475  38.9012
    38.9345  38.9765  38.9765  39.2768  39.2768  39.2957  39.2999  39.4320
    39.4320  39.5703  39.5725  39.6824  39.6824  39.8377  39.9805  39.9805
    40.1310  40.2697  40.2697  40.3507  40.4043  40.7442  40.7442  40.7612
    40.8677  40.8990  40.8990  40.9332  40.9332  41.0427  41.2526  41.2526
    41.2781  41.3797  41.3797  41.6154  41.6460  41.6611  41.6720  41.6728
    41.6728  41.7274  41.7546  41.9213  42.1346  42.1347  42.2543  42.2670
    42.2942  42.4137  42.4298  42.4298  42.4694  42.5013  42.5013  42.6495
    42.6948  42.7025  42.7025  42.8395  43.1120  43.1659  43.1725  43.3158
    43.3282  43.3282  43.3796  43.4668  43.5706  43.6263  43.6538  43.6538
    43.6708  43.6708  43.7770  43.7770  43.9215  44.0256  44.0827  44.1424
    44.2513  44.2831  44.2831  44.3419  44.3419  44.4920  44.4945  44.4945
    44.5007  44.6112  44.6362  44.7182  44.7624  44.7624  44.8594  44.9061
    44.9173  44.9650  45.1140  45.1140  45.2142  45.2142  45.3405  45.3604
    45.4338  45.4338  45.5452  45.5643  45.6546  45.6546  45.7089  45.7259
    45.7259  45.7451  45.9600  46.0214  46.0423  46.2546  46.2546  46.2577
    46.2577  46.3718  46.3718  46.3906  46.3906  46.4524  46.6792  46.7312
    46.7312  46.8540  46.8667  46.8667  46.9818  47.0699  47.3270  47.4191
    47.4912  47.4912  47.7073  47.7073  47.7855  47.8441  48.0385  48.0385

          k =-0.2500 0.2500 0.8345 ( 16644 PWs)   bands (ev):

   -44.1008 -44.1007 -44.0978 -44.0977 -44.0977 -44.0976 -44.0964 -44.0963
   -44.0947 -44.0946 -44.0934 -44.0934 -44.0933 -44.0933 -44.0904 -44.0903
   -20.4295 -20.4295 -20.4294 -20.4294 -20.4251 -20.4251 -20.4223 -20.4223
   -20.4223 -20.4223 -20.4208 -20.4207 -20.4182 -20.4181 -20.4128 -20.4126
   -20.3134 -20.3134 -20.3110 -20.3110 -20.2920 -20.2920 -20.2919 -20.2918
   -20.2897 -20.2896 -20.2866 -20.2865 -20.2700 -20.2700 -20.2699 -20.2699
   -20.0778 -20.0778 -20.0778 -20.0778 -20.0653 -20.0651 -20.0640 -20.0640
   -20.0639 -20.0638 -20.0627 -20.0626 -20.0529 -20.0529 -20.0507 -20.0507
    -7.1501  -7.1500  -7.0253  -7.0253  -7.0252  -7.0252  -6.9561  -6.9560
    -6.8945  -6.8944  -6.8779  -6.8778  -6.8778  -6.8778  -6.7873  -6.7872
    -6.4884  -6.4882  -6.4815  -6.4815  -6.4641  -6.4640  -6.4640  -6.4640
    -6.4559  -6.4559  -6.4558  -6.4557  -6.4487  -6.4485  -6.4411  -6.4411
     5.0918   5.0918   5.1768   5.1768   5.1920   5.1920   5.1920   5.1920
     5.2332   5.2333   5.2457   5.2458   5.2458   5.2458   5.3083   5.3084
     5.6017   5.6017   5.6600   5.6600   5.8572   5.8572   5.8572   5.8572
     5.9014   5.9014   6.1010   6.1010   6.1010   6.1010   6.1276   6.1276
     6.1457   6.1457   6.4843   6.4843   6.4843   6.4843   6.7378   6.7378
     6.7680   6.7680   6.7684   6.7684   6.7684   6.7684   6.9663   6.9663
     6.9663   6.9663   7.1812   7.1813   7.1853   7.1854   7.2334   7.2334
     7.7024   7.7024   7.7025   7.7025   7.8707   7.8707   7.8944   7.8944
     7.8944   7.8944   7.9182   7.9183   8.0173   8.0173   8.0356   8.0357
     8.0530   8.0531   8.1622   8.1622   8.1622   8.1622   8.3902   8.3902
     8.5444   8.5445   8.6340   8.6341   8.8061   8.8061   8.8061   8.8061
     8.9363   8.9363   9.1671   9.1671   9.1672   9.1672   9.3552   9.3552
    12.6436  12.6436  12.7576  12.7576  12.7576  12.7576  12.8691  12.8691
    12.9790  12.9790  13.0513  13.0514  13.1037  13.1037  13.1038  13.1038
    13.1759  13.1760  13.2523  13.2524  13.2913  13.2914  13.2914  13.2914
    13.5417  13.5417  13.5883  13.5883  13.7269  13.7269  13.7375  13.7375
    13.7375  13.7375  14.0796  14.0796  14.2795  14.2795  14.2795  14.2795
    14.3822  14.3823  14.7521  14.7521  14.7521  14.7522  15.1663  15.1663
    16.3618  16.3618  16.3618  16.3618  16.7700  16.7700  16.9121  16.9122
    16.9244  16.9244  16.9244  16.9244  17.2718  17.2719  17.5822  17.5822
    17.6942  17.6942  17.7863  17.7864  17.9274  17.9274  17.9274  17.9274
    18.2781  18.2781  18.6969  18.6969  18.6969  18.6970  18.7393  18.7393
    19.3682  19.3682  20.0225  20.0225  20.0225  20.0225  20.5007  20.5007
    21.0781  21.0781  21.2469  21.2469  21.2469  21.2469  22.3526  22.3527
    22.5123  22.5124  22.7986  22.7986  22.9756  22.9756  23.3137  23.3137
    23.3138  23.3138  23.9801  23.9801  23.9801  23.9801  24.6394  24.6394
    24.7436  24.7436  24.7929  24.7929  24.7929  24.7929  24.8326  24.8326
    24.9208  24.9208  24.9467  24.9467  25.1190  25.1190  25.1190  25.1190
    25.7644  25.7644  25.7644  25.7644  25.7892  25.7892  26.0614  26.0614
    26.1159  26.1159  26.1159  26.1159  26.3763  26.3763  26.7346  26.7346
    26.9678  26.9678  26.9678  26.9678  27.4208  27.4208  27.9160  27.9160
    28.1347  28.1347  28.4181  28.4181  28.4834  28.4835  28.4835  28.4835
    28.6092  28.6092  28.6602  28.6602  29.6721  29.6721  29.6721  29.6721
    29.7663  29.7663  30.2855  30.2855  30.2855  30.2855  30.9419  30.9419
    30.9419  30.9419  31.0542  31.0542  31.4142  31.4143  31.4867  31.4867
    32.1349  32.1349  32.1818  32.1818  32.3882  32.3882  32.3882  32.3882
    32.6564  32.6564  33.0900  33.0900  33.0900  33.0900  33.2280  33.2280
    33.3134  33.3135  33.4503  33.4503  33.6015  33.6015  33.6016  33.6016
    33.9426  33.9426  33.9426  33.9426  34.2534  34.2534  34.2534  34.2534
    34.4898  34.4898  34.8093  34.8093  34.9869  34.9869  35.3161  35.3161
    35.4555  35.4555  35.7123  35.7123  35.7123  35.7123  35.7696  35.7696
    35.8011  35.8011  35.8451  35.8451  35.8451  35.8451  36.1375  36.1375
    36.3542  36.3542  36.7762  36.7762  36.8297  36.8297  36.8298  36.8298
    36.9865  36.9865  37.1697  37.1697  37.1697  37.1697  38.1611  38.1611
    38.2207  38.2207  38.2501  38.2501  38.2904  38.2904  38.5318  38.5318
    38.5318  38.5318  38.6125  38.6125  39.0706  39.0706  39.0706  39.0707
    39.0975  39.0975  39.5991  39.5991  40.3540  40.3540  40.3540  40.3540
    40.4987  40.4987  40.5764  40.5764  40.6163  40.6163  40.6163  40.6163
    40.9378  40.9378  40.9953  40.9953  41.0062  41.0062  41.0062  41.0062
    41.1739  41.1739  41.3929  41.3930  41.6226  41.6226  41.6226  41.6226
    41.6617  41.6617  41.6617  41.6618  41.8698  41.8698  42.0585  42.0585
    42.1970  42.1970  42.1970  42.1970  42.8106  42.8106  43.0101  43.0102
    43.0255  43.0255  43.0522  43.0522  43.2450  43.2450  43.3568  43.3568
    43.3568  43.3569  43.4177  43.4178  43.6294  43.6294  43.9473  43.9473
    43.9473  43.9473  44.1128  44.1128  44.2899  44.2899  44.3346  44.3346
    44.3346  44.3347  44.3977  44.3977  44.3977  44.3977  44.7482  44.7482
    44.8000  44.8000  44.8000  44.8000  44.8003  44.8003  44.8738  44.8738
    45.0858  45.0858  45.1446  45.1446  45.1446  45.1446  45.1712  45.1712
    45.2402  45.2402  45.6795  45.6795  45.6795  45.6795  45.7342  45.7342
    45.8540  45.8540  45.9052  45.9052  45.9052  45.9053  45.9151  45.9151
    46.4017  46.4017  46.4187  46.4187  46.4187  46.4187  46.6247  46.6248
    47.0423  47.0423  47.0423  47.0423  47.0590  47.0590  47.2897  47.2897
    47.2897  47.2897  47.4480  47.4480  47.5033  47.5033  47.8497  47.8497

     the Fermi energy is    12.5578 ev

!    total energy              =   -2922.40012801 Ry
     Harris-Foulkes estimate   =   -2922.40012808 Ry
     estimated scf accuracy    <       0.00000007 Ry

     The total energy is the sum of the following terms:

     one-electron contribution =    -784.88631980 Ry
     hartree contribution      =     606.82085409 Ry
     xc contribution           =    -525.15468110 Ry
     ewald contribution        =   -2219.17932603 Ry
     Hubbard energy            =       0.00000000 Ry
     smearing contrib. (-TS)   =      -0.00065516 Ry

     total magnetization       =     0.00 Bohr mag/cell
     absolute magnetization    =     0.00 Bohr mag/cell

     convergence has been achieved in  14 iterations

     Writing output data file pwscf.save

     init_run     :    315.47s CPU    447.40s WALL (       1 calls)
     electrons    :  21314.55s CPU  25476.72s WALL (       1 calls)

     Called by init_run:
     wfcinit      :    301.19s CPU    431.57s WALL (       1 calls)
     potinit      :      1.54s CPU      2.05s WALL (       1 calls)

     Called by electrons:
     c_bands      :  19904.03s CPU  23237.31s WALL (      14 calls)
     sum_band     :   1219.57s CPU   2021.84s WALL (      14 calls)
     v_of_rho     :      9.24s CPU     14.05s WALL (      15 calls)
     newd         :    187.08s CPU    200.82s WALL (      15 calls)
     mix_rho      :      1.52s CPU      2.70s WALL (      14 calls)

     Called by c_bands:
     init_us_2    :      8.27s CPU      8.67s WALL (    1260 calls)
     cegterg      :  19869.46s CPU  23054.60s WALL (     588 calls)

     Called by *egterg:
     h_psi        :   5066.42s CPU   7526.33s WALL (    1842 calls)
     s_psi        :    508.54s CPU    510.75s WALL (    1884 calls)
     g_psi        :      6.11s CPU      6.17s WALL (    1212 calls)
     cdiaghg      :  11760.99s CPU  11965.56s WALL (    1800 calls)

     Called by h_psi:
     add_vuspsi   :    501.79s CPU    504.27s WALL (    1842 calls)
     vhpsi        :   1134.83s CPU   1432.51s WALL (    1842 calls)

     General routines
     calbec       :   1497.74s CPU   1979.57s WALL (    4902 calls)
     fft          :     15.46s CPU     28.85s WALL (     455 calls)
     ffts         :      0.26s CPU      0.52s WALL (      58 calls)
     fftw         :   3194.90s CPU   5716.76s WALL ( 1932812 calls)
     interpolate  :      1.89s CPU      3.39s WALL (      58 calls)
     davcio       :      3.35s CPU    427.22s WALL (    3696 calls)

     Parallel routines
     fft_scatter  :   2301.29s CPU   4812.22s WALL ( 1933325 calls)
     Hubbard U routines
     new_ns       :    162.79s CPU    456.02s WALL (      14 calls)
     vhpsi        :   1134.83s CPU   1432.51s WALL (    1842 calls)

     PWSCF        :     6h 0m CPU        7h12m WALL


   This run was terminated on:   7:45:23   9Feb2014            

=------------------------------------------------------------------------------=
   JOB DONE.
=------------------------------------------------------------------------------=
---------------------------------------
Running PBS batch system epilogue script
Job id: 266914.audhumbla.fysik.dtu.dk
Username: zhonxu
Groupname: campgst
Jobname: linear-response/NbO2-1-scf
Sessionid: 6443
Resources limits: neednodes=2:ppn=8:xeon8,nodes=2:ppn=8:xeon8,walltime=48:00:00
Resources used: cput=113:34:08,mem=8973180kb,vmem=12361352kb,walltime=07:12:09
Queuename: verylong
Accounting:
This job has allocated the following 16 nodes:
d038 d038 d038 d038 d038 d038 d038 d038 d033 d033 d033 d033 d033 d033 d033 d033
Finished epilogue job 266914.audhumbla.fysik.dtu.dk for zhonxu
