
     Program PWSCF v.5.0.2 (svn rev. 9656) starts on 24Jan2014 at 16:11:24 

     This program is part of the open-source Quantum ESPRESSO suite
     for quantum simulation of materials; please cite
         "P. Giannozzi et al., J. Phys.:Condens. Matter 21 395502 (2009);
          URL http://www.quantum-espresso.org", 
     in publications or presentations arising from this work. More details at
     http://www.quantum-espresso.org/quote.php

     Parallel version (MPI), running on     4 processors
     R & G space division:  proc/nbgrp/npool/nimage =       4

     Current dimensions of program PWSCF are:
     Max number of different atomic species (ntypx) = 10
     Max number of k-points (npk) =  40000
     Max angular momentum in pseudopotentials (lmaxx) =  3
     Reading input from RhO2-v-1.05.in

     Subspace diagonalization in iterative solution of the eigenvalue problem:
     a serial algorithm will be used


     Parallelization info
     --------------------
     sticks:   dense  smooth     PW     G-vecs:    dense   smooth      PW
     Min         787     251     73                21557     3891     637
     Max         788     252     74                21558     3901     640
     Sum        3149    1005    293                86229    15587    2553



     bravais-lattice index     =            0
     lattice parameter (alat)  =       8.9133  a.u.
     unit-cell volume          =     456.3578 (a.u.)^3
     number of atoms/cell      =            6
     number of atomic types    =            2
     number of electrons       =        54.00
     number of Kohn-Sham states=           81
     kinetic-energy cutoff     =      40.0000  Ry
     charge density cutoff     =     500.0000  Ry
     convergence threshold     =      1.0E-06
     mixing beta               =       0.3000
     number of iterations used =            8  plain     mixing
     Exchange-correlation      = SLA  PW   PBE  PBE ( 1 4 3 4 0)
     EXX-fraction              =        0.00
     nstep                     =           50


     celldm(1)=   8.913330  celldm(2)=   0.000000  celldm(3)=   0.000000
     celldm(4)=   0.000000  celldm(5)=   0.000000  celldm(6)=   0.000000

     crystal axes: (cart. coord. in units of alat)
               a(1) = (   1.000000   0.000000   0.000000 )  
               a(2) = (   0.000000   1.000000   0.000000 )  
               a(3) = (   0.000000   0.000000   0.644444 )  

     reciprocal axes: (cart. coord. in units 2 pi/alat)
               b(1) = (  1.000000  0.000000  0.000000 )  
               b(2) = (  0.000000  1.000000  0.000000 )  
               b(3) = (  0.000000  0.000000  1.551724 )  


     PseudoPot. # 1 for Rh read from file:
     /home/camp/zhonxu/pseudo/rh_pbe_v1.uspp.F.UPF
     MD5 check sum: 37b626987ad0dd8ec6bf4cc9ef289918
     Pseudo is Ultrasoft + core correction, Zval = 15.0
     Generated by new atomic code, or converted to UPF format
     Using radial grid of  969 points,  7 beta functions with: 
                l(1) =   0
                l(2) =   0
                l(3) =   1
                l(4) =   1
                l(5) =   2
                l(6) =   2
                l(7) =   2
     Q(r) pseudized with  6 coefficients,  rinner =    1.050   1.050   1.050
                                                       1.050   1.050

     PseudoPot. # 2 for O  read from file:
     /home/camp/zhonxu/pseudo/o_pbe_v1.01.uspp.F.UPF
     MD5 check sum: 2bcb18d16ea4b960afae9ec6d52f22d2
     Pseudo is Ultrasoft + core correction, Zval =  6.0
     Generated by new atomic code, or converted to UPF format
     Using radial grid of  737 points,  5 beta functions with: 
                l(1) =   0
                l(2) =   0
                l(3) =   1
                l(4) =   1
                l(5) =   2
     Q(r) pseudized with  8 coefficients,  rinner =    0.900   0.900   0.900
                                                       0.900   0.900

     atomic species   valence    mass     pseudopotential
        Rh0           15.00   102.90550     Rh( 1.00)
        O1             6.00    15.99940     O ( 1.00)

     Starting magnetic structure 
     atomic species   magnetization
        Rh0          0.000
        O1           0.000

      8 Sym. Ops., with inversion, found
          (note:  8 additional sym.ops. were found but ignored
           their fractional translations are incommensurate with FFT grid)


   Cartesian axes

     site n.     atom                  positions (alat units)
         1           Rh0 tau(   1) = (   0.0000000   0.0000000   0.0000000  )
         2           Rh0 tau(   2) = (   0.5000000   0.5000000   0.3222222  )
         3           O1  tau(   3) = (   0.3050000   0.3050000   0.0000000  )
         4           O1  tau(   4) = (  -0.3050000  -0.3050000   0.0000000  )
         5           O1  tau(   5) = (   0.8050000   0.1950000   0.3222222  )
         6           O1  tau(   6) = (   0.1950000   0.8050000   0.3222222  )

     number of k points=    54  Methfessel-Paxton smearing, width (Ry)=  0.0100
                       cart. coord. in units 2pi/alat
        k(    1) = (   0.0000000   0.0000000   0.0000000), wk =   0.0080000
        k(    2) = (   0.0000000   0.0000000   0.3103448), wk =   0.0160000
        k(    3) = (   0.0000000   0.0000000   0.6206897), wk =   0.0160000
        k(    4) = (   0.0000000   0.2000000   0.0000000), wk =   0.0320000
        k(    5) = (   0.0000000   0.2000000   0.3103448), wk =   0.0640000
        k(    6) = (   0.0000000   0.2000000   0.6206897), wk =   0.0640000
        k(    7) = (   0.0000000   0.4000000   0.0000000), wk =   0.0320000
        k(    8) = (   0.0000000   0.4000000   0.3103448), wk =   0.0640000
        k(    9) = (   0.0000000   0.4000000   0.6206897), wk =   0.0640000
        k(   10) = (   0.2000000   0.2000000   0.0000000), wk =   0.0160000
        k(   11) = (   0.2000000   0.2000000   0.3103448), wk =   0.0320000
        k(   12) = (   0.2000000   0.2000000   0.6206897), wk =   0.0320000
        k(   13) = (   0.2000000   0.4000000   0.0000000), wk =   0.0320000
        k(   14) = (   0.2000000   0.4000000   0.3103448), wk =   0.0640000
        k(   15) = (   0.2000000   0.4000000   0.6206897), wk =   0.0640000
        k(   16) = (   0.4000000   0.4000000   0.0000000), wk =   0.0160000
        k(   17) = (   0.4000000   0.4000000   0.3103448), wk =   0.0320000
        k(   18) = (   0.4000000   0.4000000   0.6206897), wk =   0.0320000
        k(   19) = (  -0.2000000   0.2000000   0.0000000), wk =   0.0160000
        k(   20) = (  -0.2000000   0.2000000  -0.3103448), wk =   0.0320000
        k(   21) = (  -0.2000000   0.2000000  -0.6206897), wk =   0.0320000
        k(   22) = (  -0.2000000   0.4000000   0.0000000), wk =   0.0320000
        k(   23) = (  -0.2000000   0.4000000  -0.3103448), wk =   0.0640000
        k(   24) = (  -0.2000000   0.4000000  -0.6206897), wk =   0.0640000
        k(   25) = (  -0.4000000   0.4000000   0.0000000), wk =   0.0160000
        k(   26) = (  -0.4000000   0.4000000  -0.3103448), wk =   0.0320000
        k(   27) = (  -0.4000000   0.4000000  -0.6206897), wk =   0.0320000
        k(   28) = (   0.0000000   0.0000000   0.0000000), wk =   0.0080000
        k(   29) = (   0.0000000   0.0000000   0.3103448), wk =   0.0160000
        k(   30) = (   0.0000000   0.0000000   0.6206897), wk =   0.0160000
        k(   31) = (   0.0000000   0.2000000   0.0000000), wk =   0.0320000
        k(   32) = (   0.0000000   0.2000000   0.3103448), wk =   0.0640000
        k(   33) = (   0.0000000   0.2000000   0.6206897), wk =   0.0640000
        k(   34) = (   0.0000000   0.4000000   0.0000000), wk =   0.0320000
        k(   35) = (   0.0000000   0.4000000   0.3103448), wk =   0.0640000
        k(   36) = (   0.0000000   0.4000000   0.6206897), wk =   0.0640000
        k(   37) = (   0.2000000   0.2000000   0.0000000), wk =   0.0160000
        k(   38) = (   0.2000000   0.2000000   0.3103448), wk =   0.0320000
        k(   39) = (   0.2000000   0.2000000   0.6206897), wk =   0.0320000
        k(   40) = (   0.2000000   0.4000000   0.0000000), wk =   0.0320000
        k(   41) = (   0.2000000   0.4000000   0.3103448), wk =   0.0640000
        k(   42) = (   0.2000000   0.4000000   0.6206897), wk =   0.0640000
        k(   43) = (   0.4000000   0.4000000   0.0000000), wk =   0.0160000
        k(   44) = (   0.4000000   0.4000000   0.3103448), wk =   0.0320000
        k(   45) = (   0.4000000   0.4000000   0.6206897), wk =   0.0320000
        k(   46) = (  -0.2000000   0.2000000   0.0000000), wk =   0.0160000
        k(   47) = (  -0.2000000   0.2000000  -0.3103448), wk =   0.0320000
        k(   48) = (  -0.2000000   0.2000000  -0.6206897), wk =   0.0320000
        k(   49) = (  -0.2000000   0.4000000   0.0000000), wk =   0.0320000
        k(   50) = (  -0.2000000   0.4000000  -0.3103448), wk =   0.0640000
        k(   51) = (  -0.2000000   0.4000000  -0.6206897), wk =   0.0640000
        k(   52) = (  -0.4000000   0.4000000   0.0000000), wk =   0.0160000
        k(   53) = (  -0.4000000   0.4000000  -0.3103448), wk =   0.0320000
        k(   54) = (  -0.4000000   0.4000000  -0.6206897), wk =   0.0320000

     Dense  grid:    86229 G-vectors     FFT dimensions: (  64,  64,  45)

     Smooth grid:    15587 G-vectors     FFT dimensions: (  36,  36,  24)

     Largest allocated arrays     est. size (Mb)     dimensions
        Kohn-Sham Wavefunctions         0.63 Mb     (    507,   81)
        NL pseudopotentials             0.76 Mb     (    507,   98)
        Each V/rho on FFT grid          1.50 Mb     (  49152,   2)
        Each G-vector array             0.16 Mb     (  21557)
        G-vector shells                 0.16 Mb     (  21557)
     Largest temporary arrays     est. size (Mb)     dimensions
        Auxiliary wavefunctions         2.51 Mb     (    507,  324)
        Each subspace H/S matrix        1.60 Mb     ( 324, 324)
        Each <psi_i|beta_j> matrix      0.12 Mb     (     98,   81)
        Arrays for rho mixing           6.00 Mb     (  49152,   8)

     Check: negative/imaginary core charge=   -0.000005    0.000000

     Initial potential from superposition of free atoms
     Check: negative starting charge=(component1):   -0.080428
     Check: negative starting charge=(component2):   -0.080428

     starting charge   52.99980, renormalised to   54.00000

     negative rho (up, down):  0.819E-01 0.819E-01
     Starting wfc are   40 randomized atomic wfcs

     total cpu time spent up to now is       14.7 secs

     per-process dynamical memory:    66.1 Mb

     Self-consistent Calculation

     iteration #  1     ecut=    40.00 Ry     beta=0.30
     Davidson diagonalization with overlap
     ethr =  1.00E-02,  avg # of iterations =  7.6

     negative rho (up, down):  0.829E-01 0.829E-01

     total cpu time spent up to now is      121.2 secs

     total energy              =    -468.98532460 Ry
     Harris-Foulkes estimate   =    -470.57051951 Ry
     estimated scf accuracy    <       3.43527084 Ry

     total magnetization       =    -0.00 Bohr mag/cell
     absolute magnetization    =     0.00 Bohr mag/cell

     iteration #  2     ecut=    40.00 Ry     beta=0.30
     Davidson diagonalization with overlap
     ethr =  6.36E-03,  avg # of iterations =  1.0

     negative rho (up, down):  0.837E-01 0.837E-01

     total cpu time spent up to now is      150.8 secs

     total energy              =    -469.69872877 Ry
     Harris-Foulkes estimate   =    -469.91147557 Ry
     estimated scf accuracy    <       0.64095524 Ry

     total magnetization       =     0.00 Bohr mag/cell
     absolute magnetization    =     0.00 Bohr mag/cell

     iteration #  3     ecut=    40.00 Ry     beta=0.30
     Davidson diagonalization with overlap
     ethr =  1.19E-03,  avg # of iterations =  1.0

     negative rho (up, down):  0.860E-01 0.860E-01

     total cpu time spent up to now is      180.6 secs

     total energy              =    -469.79339789 Ry
     Harris-Foulkes estimate   =    -469.81429490 Ry
     estimated scf accuracy    <       0.05094449 Ry

     total magnetization       =    -0.00 Bohr mag/cell
     absolute magnetization    =     0.00 Bohr mag/cell

     iteration #  4     ecut=    40.00 Ry     beta=0.30
     Davidson diagonalization with overlap
     ethr =  9.43E-05,  avg # of iterations =  2.7

     negative rho (up, down):  0.856E-01 0.856E-01

     total cpu time spent up to now is      214.6 secs

     total energy              =    -469.78290597 Ry
     Harris-Foulkes estimate   =    -469.82229496 Ry
     estimated scf accuracy    <       0.08146422 Ry

     total magnetization       =    -0.00 Bohr mag/cell
     absolute magnetization    =     0.00 Bohr mag/cell

     iteration #  5     ecut=    40.00 Ry     beta=0.30
     Davidson diagonalization with overlap
     ethr =  9.43E-05,  avg # of iterations =  1.3

     negative rho (up, down):  0.863E-01 0.863E-01

     total cpu time spent up to now is      244.4 secs

     total energy              =    -469.80369045 Ry
     Harris-Foulkes estimate   =    -469.81307376 Ry
     estimated scf accuracy    <       0.03257489 Ry

     total magnetization       =    -0.00 Bohr mag/cell
     absolute magnetization    =     0.00 Bohr mag/cell

     iteration #  6     ecut=    40.00 Ry     beta=0.30
     Davidson diagonalization with overlap
     ethr =  6.03E-05,  avg # of iterations =  1.0

     negative rho (up, down):  0.863E-01 0.863E-01

     total cpu time spent up to now is      273.6 secs

     total energy              =    -469.80780914 Ry
     Harris-Foulkes estimate   =    -469.80790319 Ry
     estimated scf accuracy    <       0.00083628 Ry

     total magnetization       =    -0.00 Bohr mag/cell
     absolute magnetization    =     0.00 Bohr mag/cell

     iteration #  7     ecut=    40.00 Ry     beta=0.30
     Davidson diagonalization with overlap
     ethr =  1.55E-06,  avg # of iterations =  2.0

     negative rho (up, down):  0.863E-01 0.863E-01

     total cpu time spent up to now is      305.5 secs

     total energy              =    -469.80786287 Ry
     Harris-Foulkes estimate   =    -469.80786944 Ry
     estimated scf accuracy    <       0.00002957 Ry

     total magnetization       =    -0.00 Bohr mag/cell
     absolute magnetization    =     0.00 Bohr mag/cell

     iteration #  8     ecut=    40.00 Ry     beta=0.30
     Davidson diagonalization with overlap
     ethr =  5.48E-08,  avg # of iterations =  1.0

     negative rho (up, down):  0.863E-01 0.863E-01

     total cpu time spent up to now is      334.0 secs

     total energy              =    -469.80787144 Ry
     Harris-Foulkes estimate   =    -469.80787942 Ry
     estimated scf accuracy    <       0.00004352 Ry

     total magnetization       =    -0.00 Bohr mag/cell
     absolute magnetization    =     0.00 Bohr mag/cell

     iteration #  9     ecut=    40.00 Ry     beta=0.30
     Davidson diagonalization with overlap
     ethr =  5.48E-08,  avg # of iterations =  1.0

     negative rho (up, down):  0.863E-01 0.863E-01

     total cpu time spent up to now is      362.4 secs

     total energy              =    -469.80787751 Ry
     Harris-Foulkes estimate   =    -469.80787594 Ry
     estimated scf accuracy    <       0.00000136 Ry

     total magnetization       =    -0.00 Bohr mag/cell
     absolute magnetization    =     0.00 Bohr mag/cell

     iteration # 10     ecut=    40.00 Ry     beta=0.30
     Davidson diagonalization with overlap
     ethr =  2.52E-09,  avg # of iterations =  1.0

     negative rho (up, down):  0.863E-01 0.863E-01

     total cpu time spent up to now is      390.7 secs

     End of self-consistent calculation

 ------ SPIN UP ------------


          k = 0.0000 0.0000 0.0000 (  1955 PWs)   bands (ev):

   -36.9966 -36.9963 -36.8761 -36.8758 -36.8362 -36.8270  -8.8061  -7.7921
    -7.1718  -7.1715   2.8305   2.8924   4.2578   4.2736   4.2738   6.7293
     6.7294   7.1703   8.1338   8.2467   8.3886   8.5776   8.5777   8.7312
     8.7978   8.7979   9.6179  10.5688  11.4067  13.9045  13.9046  14.8573
    16.3841  20.5600  20.5600  23.7999  23.9832  24.6442  26.0216  27.3671
    27.3671  28.7454  28.9182  31.3078  32.6318  32.6318  34.0142  34.0142
    34.6055  35.6095  35.9423  35.9423  36.7705  38.4814  38.6781  38.7458
    38.9772  39.0300  40.5637  41.0789  41.0790  41.2020  41.6284  41.6285
    43.5486  43.5487  44.5466  44.8691  47.2139  48.9417  48.9418  49.0472
    49.2664  49.2664  49.4847  50.3076  50.6199  50.6199  50.9960  51.0243
    51.6880

          k = 0.0000 0.0000 0.3103 (  1939 PWs)   bands (ev):

   -36.9926 -36.9924 -36.8802 -36.8736 -36.8693 -36.8691  -8.4938  -7.6384
    -7.3163  -7.3159   3.2197   3.4258   4.3220   4.3222   4.6676   5.9363
     6.6505   7.0525   7.0526   7.3462   7.3465   8.3762   8.8523   9.1475
     9.2391   9.9920   9.9920  11.1045  11.4019  13.3085  13.3086  14.1841
    17.6353  21.8792  21.8792  23.9473  24.0619  24.9570  24.9977  27.0922
    27.0922  27.2501  27.2760  32.1634  32.1635  32.2133  32.9832  33.2893
    33.2893  35.6211  36.2659  37.6773  37.6773  37.9153  38.7758  38.7759
    38.9699  38.9707  39.3226  39.8089  41.6321  42.7355  42.7355  44.1052
    44.6238  45.5457  45.6344  45.6344  46.8608  47.0843  47.6643  47.7624
    47.7625  49.1966  49.1966  49.9566  52.1088  52.4450  52.4450  52.6614
    54.0449

          k = 0.0000 0.0000 0.6207 (  1948 PWs)   bands (ev):

   -36.9866 -36.9863 -36.9527 -36.9493 -36.8582 -36.8580  -7.8474  -7.5437
    -7.5433  -7.4954   3.8433   4.0857   4.7933   4.7935   5.0341   5.4200
     5.8077   5.9364   5.9366   7.3676   7.5664   7.5665   9.0678   9.4186
     9.5846  10.3247  10.7727  10.7728  12.1430  12.7596  12.8886  12.8887
    20.1093  22.4929  24.0191  24.0191  24.4859  24.5490  24.8554  25.5506
    26.1784  26.1784  26.6059  28.6405  31.0787  31.0788  33.4762  33.4763
    34.8473  35.9289  36.1246  37.5762  37.9569  37.9569  38.0032  38.9762
    38.9789  40.1555  40.1556  40.2330  43.0749  43.0750  43.9671  44.7114
    45.5342  45.5342  46.3269  46.4466  46.4466  46.4509  47.4827  48.3565
    49.1582  49.9209  49.9209  50.4367  52.1032  52.1032  52.1378  53.3977
    53.6538

          k = 0.0000 0.2000 0.0000 (  1940 PWs)   bands (ev):

   -36.9960 -36.9956 -36.8766 -36.8764 -36.8346 -36.8276  -8.6917  -7.8165
    -7.2724  -7.2128   3.0434   3.1510   4.2966   4.3036   4.4860   6.2190
     6.2560   7.0157   7.4827   7.7358   8.3384   8.5288   8.8945   9.0036
     9.1908   9.2399   9.7085  11.1354  11.2596  13.7801  13.8077  14.5729
    16.8939  20.3223  20.7736  23.5451  24.0954  24.5300  25.6325  27.6898
    27.8965  29.0901  29.3055  31.1957  31.2415  31.8084  32.8937  34.4308
    34.4705  35.5620  36.0808  36.1037  38.0896  38.2566  38.8611  38.9612
    38.9703  39.8631  39.9330  40.0573  41.0652  41.7990  42.2590  43.0889
    43.8970  44.0543  45.1806  45.4610  46.7586  47.4457  47.8634  48.2808
    48.2877  48.4176  49.4291  49.7432  50.3390  50.4664  52.4778  52.5175
    53.3804

          k = 0.0000 0.2000 0.3103 (  1941 PWs)   bands (ev):

   -36.9927 -36.9923 -36.8798 -36.8746 -36.8695 -36.8687  -8.3968  -7.6395
    -7.4125  -7.3455   3.4142   3.5806   4.3135   4.3234   4.9641   5.7599
     6.1093   6.7252   6.9101   7.2287   7.4020   8.3609   9.1374   9.3194
     9.5733   9.8385  10.0527  10.9537  11.7557  12.8898  13.2627  14.3028
    18.0303  21.4126  22.0335  23.8821  24.2756  24.7193  25.2124  26.6223
    26.7416  27.4109  28.3995  30.8379  30.8869  32.4361  33.2242  33.2979
    34.6397  35.4855  36.3089  36.9132  37.5214  37.9483  38.7098  38.8971
    38.9756  38.9960  40.0486  41.1286  42.3700  42.4199  43.2656  44.1174
    44.2126  44.9169  45.6292  45.8633  46.6602  46.9594  47.5020  47.6245
    47.7683  49.1176  49.8366  50.2975  51.6652  51.8625  52.4764  52.6395
    53.5172

          k = 0.0000 0.2000 0.6207 (  1942 PWs)   bands (ev):

   -36.9874 -36.9871 -36.9512 -36.9493 -36.8583 -36.8577  -7.8505  -7.6529
    -7.5031  -7.4150   3.8590   4.0482   4.3187   4.7305   5.0721   5.5342
     5.8542   6.3581   6.3806   7.2814   7.3177   7.7082   9.1326   9.1935
     9.6182   9.9505  10.8411  10.8481  11.8476  11.8755  13.3716  13.7903
    20.2178  22.2700  23.3008  24.0202  24.5664  24.5735  25.3562  25.3638
    25.8794  26.0654  27.5533  28.0661  30.7073  31.2478  33.4943  33.7694
    34.9127  35.7039  36.5990  37.4734  37.5829  38.0804  38.9130  38.9772
    38.9963  39.8943  39.8967  40.9556  42.4170  43.4554  43.9000  43.9114
    44.9335  45.2071  45.9561  46.9368  47.0398  47.6338  48.0326  48.7351
    49.0403  49.6889  50.4340  50.5616  51.6882  51.8816  52.5618  52.8156
    53.0595

          k = 0.0000 0.4000 0.0000 (  1960 PWs)   bands (ev):

   -36.9956 -36.9953 -36.8780 -36.8777 -36.8325 -36.8297  -8.3848  -8.0136
    -7.3696  -7.3071   3.5540   3.6628   4.3392   4.3467   5.1741   5.4286
     5.4597   6.2739   6.9170   7.1639   8.4283   8.7112   9.0795   9.2795
     9.4010   9.5646  10.1642  10.7467  12.4610  13.5873  13.6179  13.7125
    18.1238  19.4484  21.4690  22.5480  24.5387  24.6838  25.5360  27.0917
    28.4142  29.6883  29.9148  30.4520  30.7435  31.9335  32.2511  33.3159
    35.0863  35.1938  35.8666  36.0106  36.4808  37.2971  38.9754  38.9765
    40.2437  40.3447  41.1598  41.1761  41.9593  42.3883  43.6643  44.1365
    44.8278  45.0622  45.4710  45.7830  46.0013  46.9615  47.0615  47.5161
    47.5892  47.7110  48.8006  49.2349  49.3960  50.2685  51.5760  52.1366
    54.3157

          k = 0.0000 0.4000 0.3103 (  1946 PWs)   bands (ev):

   -36.9923 -36.9920 -36.8787 -36.8767 -36.8694 -36.8689  -8.1357  -7.8071
    -7.4825  -7.4165   3.8888   3.9144   4.2680   4.3740   5.2531   5.4786
     5.9069   6.1240   6.2716   6.7407   7.8796   8.1963   9.3749   9.6065
     9.8985   9.9869  10.2502  10.5865  12.1707  12.3642  13.4626  14.0435
    19.0682  20.3317  22.5612  23.3323  24.6432  24.7403  25.5099  25.9805
    26.5875  27.8738  28.7773  29.5024  30.6766  32.4481  33.3738  33.4350
    35.1003  35.2923  36.1953  36.5594  37.4591  37.5874  38.1413  38.9765
    38.9794  39.9647  40.6574  41.7380  42.4045  42.9783  43.9047  44.6823
    44.9656  45.2343  45.7369  45.8845  46.6664  46.9921  47.5928  47.8056
    48.1078  48.5105  48.7261  50.7006  51.3279  51.9035  52.0760  52.2191
    52.7231

          k = 0.0000 0.4000 0.6207 (  1951 PWs)   bands (ev):

   -36.9888 -36.9886 -36.9496 -36.9486 -36.8583 -36.8581  -7.8326  -7.7657
    -7.4263  -7.3836   3.8860   3.9516   4.0992   4.2826   5.3570   5.7582
     6.1058   6.6509   6.7862   6.8317   7.4247   8.2864   8.5018   9.2182
     9.4382   9.6281  10.9158  10.9269  11.3135  11.4693  14.0676  14.2921
    20.6528  21.4694  23.1185  23.5207  24.6964  24.7689  25.0886  25.3980
    25.9744  26.6740  26.9591  27.8974  30.7817  31.5161  33.8782  34.0933
    35.1977  35.5269  36.9928  37.0103  37.4278  37.5690  38.4734  38.9768
    38.9796  39.5979  41.5861  41.6571  42.2086  43.0408  43.7931  44.0715
    44.6603  45.0372  46.5282  46.6963  47.2386  47.3474  48.8029  48.9752
    49.6849  49.9291  50.8418  50.9070  51.6153  52.0146  52.6847  53.1545
    53.2019

          k = 0.2000 0.2000 0.0000 (  1955 PWs)   bands (ev):

   -36.9967 -36.9952 -36.8780 -36.8757 -36.8340 -36.8283  -8.6009  -7.8623
    -7.3473  -7.2078   2.8604   3.6380   4.2586   4.3486   4.6947   5.4418
     6.5915   6.9202   7.6608   7.8674   7.8681   8.2750   8.5837   9.0139
     9.2951   9.5200   9.9820  11.1451  11.4626  13.6016  13.9005  14.2623
    17.3994  20.5166  20.5959  23.1759  23.9919  24.8068  25.4221  27.1017
    29.1785  29.4490  29.5668  31.1117  31.1279  31.4137  31.8988  33.3893
    33.8280  35.6866  36.6809  36.7032  38.1117  38.5673  38.7743  38.9673
    39.0034  39.6192  40.3420  40.6886  41.0457  41.3976  43.0538  43.6728
    44.0087  44.8873  45.1628  45.4157  46.4667  46.7899  46.9332  47.8402
    48.4107  48.8880  49.5739  49.8436  50.6657  51.2883  51.8191  52.2039
    54.1265

          k = 0.2000 0.2000 0.3103 (  1949 PWs)   bands (ev):

   -36.9931 -36.9920 -36.8796 -36.8751 -36.8693 -36.8692  -8.3183  -7.6674
    -7.4744  -7.3481   3.3107   3.8973   4.1807   4.4130   5.1810   5.5067
     6.1147   6.3916   6.8595   7.3130   7.6092   8.2195   9.0189   9.2198
     9.6412   9.9743  10.2462  10.8602  11.8871  12.7031  13.3244  14.2201
    18.4109  21.5333  21.6321  23.6738  24.3964  24.4331  25.3083  26.3745
    27.1789  28.0430  28.3013  29.5931  31.2042  32.6787  33.1513  33.3775
    34.2321  35.2696  36.5123  37.3593  37.5188  37.7929  38.6428  38.9728
    38.9785  39.4124  40.5912  40.9133  42.5524  42.8042  43.2184  43.7266
    44.4631  45.3996  45.7447  46.3512  46.5408  46.6334  46.7541  47.7520
    47.8627  48.9355  49.2899  50.7149  51.5059  51.8596  52.4928  53.1624
    53.3567

          k = 0.2000 0.2000 0.6207 (  1956 PWs)   bands (ev):

   -36.9885 -36.9870 -36.9515 -36.9489 -36.8585 -36.8583  -7.8473  -7.6163
    -7.5694  -7.3832   3.9249   4.0009   4.3117   4.5235   4.8691   5.7885
     5.8932   6.4266   6.6542   6.9115   7.4083   8.0327   8.9193   9.2442
     9.6322  10.0099  10.4580  11.0394  11.2765  12.6950  12.8899  14.1371
    20.3134  22.2517  22.8331  23.5542  24.2136  24.3114  25.0975  25.9956
    26.1406  26.7023  27.3905  28.4962  30.3240  31.5233  33.4040  33.4942
    34.3148  36.4276  36.7414  37.5525  37.6940  38.3211  38.9740  38.9794
    39.5305  39.7543  40.3817  41.2044  42.2480  42.8947  42.8979  44.1069
    45.0607  45.0755  45.9447  46.8995  46.9357  47.5263  48.0620  49.0971
    49.2112  50.0144  50.2895  50.6992  51.4684  52.1017  52.4695  53.0050
    53.4603

          k = 0.2000 0.4000 0.0000 (  1956 PWs)   bands (ev):

   -36.9966 -36.9952 -36.8776 -36.8765 -36.8323 -36.8298  -8.3596  -8.0625
    -7.3598  -7.2768   3.0896   3.6126   4.2779   4.3340   5.2785   5.5233
     6.0920   6.7051   7.0208   7.4418   7.9588   8.3985   8.8869   9.0113
     9.1943   9.4924  10.4528  10.8750  12.3516  13.4254  13.6004  13.7891
    18.5550  19.7643  21.2610  22.2660  24.3090  24.6944  25.5790  26.6424
    29.4875  30.1494  30.1713  30.5579  30.7950  31.6259  31.9910  32.1677
    33.5716  35.5028  35.8899  36.7729  37.3513  37.6859  38.9751  38.9772
    39.9510  40.2807  40.7868  40.9962  41.7186  42.3516  43.6405  44.4416
    44.8687  44.8705  45.1312  45.6681  46.1276  47.3280  47.6007  47.9339
    48.3047  48.9148  49.1499  49.2757  49.4291  50.7394  50.9147  51.4930
    53.3570

          k = 0.2000 0.4000 0.3103 (  1947 PWs)   bands (ev):

   -36.9930 -36.9920 -36.8785 -36.8766 -36.8693 -36.8690  -8.1102  -7.8495
    -7.4698  -7.4014   3.5010   3.9231   4.1910   4.2750   5.4551   5.6621
     6.0722   6.2859   6.6412   6.9199   7.6573   7.9510   9.3246   9.4277
     9.5868   9.9485  10.3823  10.6122  12.2530  12.6147  13.4007  13.8639
    19.3692  20.5353  22.1408  22.9361  24.4338  24.6606  25.5947  25.9926
    27.1025  27.8615  28.7221  29.5856  30.8223  32.5499  33.2756  33.6070
    34.7067  34.8609  36.3103  36.6863  37.3805  38.0137  38.8806  38.9740
    38.9878  39.8306  40.7646  41.1894  42.3794  43.2160  43.7678  44.0489
    44.9473  45.5460  45.8341  46.3744  46.4865  46.9883  47.2606  47.8450
    48.3172  49.0661  49.2496  50.5017  50.5773  51.0543  51.6591  51.9983
    53.3003

          k = 0.2000 0.4000 0.6207 (  1954 PWs)   bands (ev):

   -36.9887 -36.9879 -36.9503 -36.9489 -36.8585 -36.8583  -7.8072  -7.7157
    -7.4847  -7.4002   3.9149   3.9983   4.1746   4.3876   4.9848   5.5453
     6.0552   6.3688   6.8140   7.1517   7.5902   8.3636   8.6886   9.3734
     9.4314   9.5748  10.6303  10.9113  11.3866  12.0237  13.6821  14.1980
    20.7066  21.5103  22.6453  23.0854  23.9069  24.2170  25.0168  25.7327
    26.5730  27.0058  27.7245  28.8094  30.5265  31.8715  33.4142  33.6996
    34.0081  35.2973  37.1780  37.2878  38.0177  38.9383  38.9641  38.9867
    39.3033  40.4827  41.1641  41.4382  41.8923  42.8291  43.2377  44.1748
    44.6644  44.9086  45.5223  46.4357  47.0279  47.8961  48.1680  48.7614
    49.2567  49.7249  49.9648  50.9266  51.7650  52.1088  52.7487  53.1543
    54.1008

          k = 0.4000 0.4000 0.0000 (  1950 PWs)   bands (ev):

   -36.9974 -36.9966 -36.8765 -36.8756 -36.8312 -36.8304  -8.2855  -8.1740
    -7.3082  -7.2646   2.8659   3.0934   4.2340   4.2651   5.8067   6.3224
     6.3513   7.0424   7.4211   7.5840   7.8053   8.2411   8.2666   8.5925
     8.8392   9.0222  10.8224  10.9679  12.3821  12.8224  13.7860  13.8939
    19.5151  20.3679  20.7690  21.5480  24.2029  24.3727  26.0096  26.5178
    29.7309  30.2196  30.4833  30.7321  31.1139  31.1570  31.3058  31.8929
    34.3381  35.2045  35.6850  36.3468  37.3250  38.3422  38.9756  38.9798
    39.2828  40.2087  40.8461  40.8575  41.2345  41.8875  43.3937  44.2493
    45.2428  45.6653  45.7752  45.9487  47.7173  47.8076  48.1126  48.4559
    48.5822  49.2248  49.3554  49.4383  50.0845  50.2721  50.8750  51.0240
    53.1570

          k = 0.4000 0.4000 0.3103 (  1954 PWs)   bands (ev):

   -36.9935 -36.9929 -36.8775 -36.8769 -36.8693 -36.8692  -8.0405  -7.9436
    -7.4306  -7.3983   3.3216   3.5096   4.1076   4.1619   5.9442   6.1772
     6.2506   6.6227   6.9302   7.1207   7.2750   7.6156   8.9839   9.3823
     9.4830   9.5197  10.5339  10.6048  12.6067  12.8210  13.3357  13.4983
    20.1198  20.9156  21.3982  22.0647  24.5868  24.7138  25.6673  26.0675
    26.7295  27.1810  29.5707  30.3920  31.0981  32.6247  32.7907  32.9326
    35.1492  35.3518  36.3829  36.9468  37.2346  37.3771  38.9698  38.9729
    39.8074  40.0150  40.3932  40.8040  41.8305  42.3137  43.9483  44.1000
    45.4662  45.6818  46.0339  46.6572  47.0778  47.2880  47.9283  48.3291
    48.6103  48.9014  49.9614  50.1239  50.2881  50.5236  50.9365  51.5940
    51.7854

          k = 0.4000 0.4000 0.6207 (  1961 PWs)   bands (ev):

   -36.9877 -36.9872 -36.9511 -36.9503 -36.8587 -36.8586  -7.7244  -7.6104
    -7.5934  -7.4788   3.9880   4.1945   4.3006   4.3550   4.7886   5.1099
     5.8070   6.0402   7.0717   7.2301   7.9710   8.2849   9.3067   9.3361
     9.3991   9.8441  10.2004  10.5861  12.0301  12.8902  12.9074  13.7042
    20.9304  21.4000  22.0377  22.3736  23.8640  23.8642  24.6152  24.9441
    27.6520  27.6677  28.9665  29.4189  31.0421  32.3465  32.8682  33.0471
    33.4662  34.3968  37.3967  37.4145  38.6039  38.9622  38.9803  39.3344
    40.2455  40.6363  41.7414  42.0208  42.2918  43.0316  43.1450  43.8144
    44.3848  44.8474  45.0999  45.9676  46.2484  47.2646  47.4109  48.5011
    48.7573  49.3908  49.4506  50.1711  51.0120  51.6615  52.7288  53.4584
    53.7756

          k =-0.2000 0.2000 0.0000 (  1955 PWs)   bands (ev):

   -36.9965 -36.9955 -36.8778 -36.8760 -36.8340 -36.8283  -8.6008  -7.8624
    -7.3477  -7.2075   2.8607   3.6378   4.2588   4.3485   4.6947   5.4415
     6.5915   6.9199   7.6609   7.8677   7.8684   8.2750   8.5838   9.0138
     9.2951   9.5198   9.9819  11.1452  11.4626  13.6015  13.9007  14.2623
    17.3993  20.5166  20.5959  23.1760  23.9919  24.8067  25.4221  27.1017
    29.1785  29.4490  29.5668  31.1118  31.1278  31.4137  31.8988  33.3893
    33.8280  35.6866  36.6808  36.7033  38.1118  38.5673  38.7743  38.9671
    39.0037  39.6192  40.3421  40.6885  41.0457  41.3976  43.0538  43.6729
    44.0088  44.8873  45.1629  45.4158  46.4666  46.7900  46.9332  47.8402
    48.4107  48.8880  49.5739  49.8437  50.6657  51.2883  51.8191  52.2039
    54.1265

          k =-0.2000 0.2000-0.3103 (  1949 PWs)   bands (ev):

   -36.9929 -36.9922 -36.8796 -36.8750 -36.8694 -36.8691  -8.3183  -7.6676
    -7.4747  -7.3477   3.3109   3.8971   4.1808   4.4128   5.1811   5.5065
     6.1145   6.3917   6.8594   7.3133   7.6093   8.2195   9.0189   9.2198
     9.6412   9.9742  10.2461  10.8603  11.8870  12.7031  13.3245  14.2200
    18.4108  21.5333  21.6321  23.6739  24.3964  24.4331  25.3082  26.3745
    27.1789  28.0430  28.3013  29.5931  31.2042  32.6786  33.1512  33.3775
    34.2321  35.2696  36.5122  37.3593  37.5188  37.7929  38.6428  38.9734
    38.9778  39.4124  40.5913  40.9133  42.5525  42.8042  43.2183  43.7266
    44.4631  45.3996  45.7447  46.3512  46.5408  46.6334  46.7541  47.7519
    47.8628  48.9354  49.2899  50.7150  51.5058  51.8595  52.4927  53.1624
    53.3567

          k =-0.2000 0.2000-0.6207 (  1956 PWs)   bands (ev):

   -36.9887 -36.9867 -36.9517 -36.9487 -36.8587 -36.8581  -7.8475  -7.6163
    -7.5691  -7.3835   3.9248   4.0007   4.3118   4.5236   4.8692   5.7886
     5.8930   6.4268   6.6539   6.9115   7.4083   8.0326   8.9193   9.2442
     9.6323  10.0101  10.4581  11.0393  11.2765  12.6951  12.8900  14.1370
    20.3133  22.2517  22.8332  23.5541  24.2136  24.3114  25.0975  25.9956
    26.1406  26.7024  27.3905  28.4961  30.3240  31.5233  33.4039  33.4943
    34.3149  36.4275  36.7414  37.5525  37.6939  38.3211  38.9746  38.9787
    39.5305  39.7543  40.3817  41.2044  42.2480  42.8947  42.8980  44.1068
    45.0607  45.0755  45.9447  46.8995  46.9356  47.5263  48.0620  49.0971
    49.2112  50.0144  50.2895  50.6992  51.4684  52.1018  52.4694  53.0050
    53.4602

          k =-0.2000 0.4000 0.0000 (  1956 PWs)   bands (ev):

   -36.9964 -36.9954 -36.8774 -36.8767 -36.8323 -36.8298  -8.3595  -8.0627
    -7.3601  -7.2764   3.0898   3.6124   4.2780   4.3339   5.2785   5.5231
     6.0920   6.7053   7.0206   7.4421   7.9589   8.3984   8.8870   9.0115
     9.1943   9.4922  10.4527  10.8752  12.3515  13.4254  13.6002  13.7892
    18.5550  19.7643  21.2610  22.2660  24.3090  24.6944  25.5790  26.6424
    29.4875  30.1494  30.1713  30.5579  30.7950  31.6259  31.9910  32.1677
    33.5716  35.5027  35.8899  36.7730  37.3513  37.6859  38.9745  38.9778
    39.9510  40.2807  40.7868  40.9961  41.7187  42.3516  43.6405  44.4416
    44.8687  44.8706  45.1312  45.6680  46.1276  47.3279  47.6007  47.9339
    48.3047  48.9148  49.1499  49.2756  49.4291  50.7394  50.9147  51.4930
    53.3570

          k =-0.2000 0.4000-0.3103 (  1947 PWs)   bands (ev):

   -36.9927 -36.9923 -36.8785 -36.8766 -36.8693 -36.8690  -8.1100  -7.8498
    -7.4700  -7.4011   3.5012   3.9229   4.1911   4.2748   5.4550   5.6621
     6.0723   6.2857   6.6412   6.9201   7.6574   7.9510   9.3246   9.4277
     9.5868   9.9484  10.3821  10.6123  12.2529  12.6148  13.4007  13.8639
    19.3692  20.5353  22.1408  22.9361  24.4337  24.6607  25.5947  25.9926
    27.1025  27.8615  28.7221  29.5856  30.8223  32.5499  33.2756  33.6070
    34.7067  34.8609  36.3103  36.6863  37.3804  38.0137  38.8805  38.9746
    38.9872  39.8306  40.7646  41.1894  42.3794  43.2160  43.7678  44.0489
    44.9473  45.5460  45.8341  46.3744  46.4864  46.9883  47.2605  47.8450
    48.3172  49.0662  49.2495  50.5017  50.5773  51.0543  51.6591  51.9983
    53.3004

          k =-0.2000 0.4000-0.6207 (  1954 PWs)   bands (ev):

   -36.9889 -36.9877 -36.9505 -36.9487 -36.8587 -36.8581  -7.8074  -7.7155
    -7.4844  -7.4004   3.9147   3.9984   4.1745   4.3878   4.9849   5.5452
     6.0553   6.3686   6.8142   7.1517   7.5902   8.3636   8.6885   9.3733
     9.4315   9.5749  10.6304  10.9111  11.3866  12.0237  13.6822  14.1979
    20.7066  21.5103  22.6453  23.0854  23.9068  24.2171  25.0168  25.7327
    26.5730  27.0058  27.7245  28.8094  30.5265  31.8715  33.4142  33.6997
    34.0081  35.2973  37.1780  37.2878  38.0177  38.9385  38.9635  38.9871
    39.3032  40.4827  41.1641  41.4382  41.8923  42.8291  43.2377  44.1747
    44.6644  44.9086  45.5223  46.4357  47.0278  47.8962  48.1680  48.7614
    49.2567  49.7249  49.9648  50.9266  51.7650  52.1088  52.7487  53.1543
    54.1008

          k =-0.4000 0.4000 0.0000 (  1950 PWs)   bands (ev):

   -36.9972 -36.9968 -36.8762 -36.8758 -36.8312 -36.8304  -8.2852  -8.1742
    -7.3085  -7.2643   2.8661   3.0932   4.2341   4.2650   5.8068   6.3223
     6.3512   7.0426   7.4208   7.5841   7.8056   8.2411   8.2666   8.5927
     8.8391   9.0220  10.8222  10.9681  12.3820  12.8224  13.7859  13.8940
    19.5151  20.3678  20.7690  21.5480  24.2030  24.3727  26.0096  26.5179
    29.7310  30.2196  30.4833  30.7321  31.1139  31.1570  31.3058  31.8929
    34.3381  35.2044  35.6851  36.3467  37.3250  38.3423  38.9750  38.9803
    39.2828  40.2087  40.8461  40.8576  41.2345  41.8876  43.3937  44.2493
    45.2428  45.6652  45.7752  45.9488  47.7173  47.8077  48.1126  48.4559
    48.5822  49.2249  49.3554  49.4384  50.0844  50.2721  50.8749  51.0241
    53.1570

          k =-0.4000 0.4000-0.3103 (  1954 PWs)   bands (ev):

   -36.9933 -36.9931 -36.8777 -36.8767 -36.8694 -36.8691  -8.0402  -7.9440
    -7.4310  -7.3979   3.3219   3.5094   4.1077   4.1618   5.9440   6.1773
     6.2508   6.6226   6.9300   7.1208   7.2750   7.6158   8.9840   9.3822
     9.4830   9.5197  10.5337  10.6049  12.6066  12.8211  13.3358  13.4982
    20.1198  20.9156  21.3982  22.0647  24.5868  24.7139  25.6673  26.0675
    26.7295  27.1810  29.5707  30.3920  31.0980  32.6248  32.7907  32.9326
    35.1493  35.3518  36.3828  36.9467  37.2347  37.3770  38.9701  38.9726
    39.8074  40.0150  40.3932  40.8041  41.8305  42.3137  43.9483  44.1000
    45.4662  45.6819  46.0338  46.6571  47.0778  47.2879  47.9284  48.3291
    48.6103  48.9014  49.9613  50.1239  50.2880  50.5236  50.9364  51.5940
    51.7854

          k =-0.4000 0.4000-0.6207 (  1961 PWs)   bands (ev):

   -36.9879 -36.9869 -36.9513 -36.9501 -36.8588 -36.8585  -7.7247  -7.6100
    -7.5932  -7.4791   3.9878   4.1948   4.3007   4.3549   4.7888   5.1098
     5.8072   6.0400   7.0719   7.2299   7.9708   8.2850   9.3065   9.3360
     9.3992   9.8443  10.2005  10.5860  12.0300  12.8902  12.9076  13.7041
    20.9304  21.4001  22.0377  22.3735  23.8640  23.8642  24.6152  24.9442
    27.6520  27.6677  28.9665  29.4189  31.0421  32.3466  32.8683  33.0470
    33.4662  34.3968  37.3968  37.4143  38.6038  38.9628  38.9797  39.3344
    40.2455  40.6363  41.7415  42.0208  42.2918  43.0316  43.1450  43.8144
    44.3848  44.8475  45.0999  45.9676  46.2484  47.2646  47.4109  48.5011
    48.7574  49.3907  49.4506  50.1711  51.0120  51.6615  52.7288  53.4584
    53.7756

 ------ SPIN DOWN ----------


          k = 0.0000 0.0000 0.0000 (  1955 PWs)   bands (ev):

   -36.9966 -36.9963 -36.8761 -36.8758 -36.8362 -36.8270  -8.8061  -7.7921
    -7.1718  -7.1715   2.8305   2.8924   4.2578   4.2736   4.2738   6.7293
     6.7294   7.1703   8.1338   8.2467   8.3886   8.5776   8.5777   8.7312
     8.7978   8.7978   9.6179  10.5688  11.4067  13.9045  13.9046  14.8573
    16.3841  20.5600  20.5600  23.7999  23.9832  24.6442  26.0216  27.3671
    27.3671  28.7454  28.9182  31.3078  32.6318  32.6318  34.0142  34.0142
    34.6055  35.6095  35.9423  35.9423  36.7705  38.4814  38.6781  38.7458
    38.9772  39.0300  40.5637  41.0789  41.0790  41.2020  41.6284  41.6285
    43.5486  43.5487  44.5466  44.8691  47.2139  48.9417  48.9418  49.0472
    49.2664  49.2664  49.4847  50.3076  50.6199  50.6199  50.9960  51.0243
    51.6880

          k = 0.0000 0.0000 0.3103 (  1939 PWs)   bands (ev):

   -36.9926 -36.9924 -36.8802 -36.8736 -36.8693 -36.8691  -8.4938  -7.6384
    -7.3163  -7.3159   3.2197   3.4258   4.3220   4.3222   4.6676   5.9363
     6.6505   7.0525   7.0526   7.3462   7.3465   8.3762   8.8523   9.1475
     9.2391   9.9920   9.9920  11.1045  11.4019  13.3085  13.3086  14.1841
    17.6353  21.8792  21.8792  23.9473  24.0619  24.9570  24.9977  27.0922
    27.0922  27.2501  27.2760  32.1634  32.1635  32.2133  32.9832  33.2893
    33.2893  35.6211  36.2659  37.6773  37.6773  37.9153  38.7758  38.7759
    38.9699  38.9707  39.3226  39.8089  41.6321  42.7355  42.7355  44.1052
    44.6238  45.5457  45.6344  45.6344  46.8608  47.0843  47.6642  47.7624
    47.7625  49.1966  49.1966  49.9566  52.1088  52.4450  52.4450  52.6614
    54.0449

          k = 0.0000 0.0000 0.6207 (  1948 PWs)   bands (ev):

   -36.9866 -36.9863 -36.9527 -36.9493 -36.8582 -36.8580  -7.8474  -7.5437
    -7.5433  -7.4954   3.8433   4.0857   4.7933   4.7935   5.0341   5.4200
     5.8077   5.9364   5.9366   7.3676   7.5664   7.5665   9.0678   9.4186
     9.5846  10.3247  10.7727  10.7728  12.1430  12.7596  12.8886  12.8887
    20.1093  22.4929  24.0191  24.0191  24.4859  24.5490  24.8554  25.5506
    26.1784  26.1784  26.6059  28.6405  31.0787  31.0788  33.4762  33.4763
    34.8472  35.9289  36.1246  37.5762  37.9569  37.9569  38.0032  38.9762
    38.9789  40.1555  40.1556  40.2330  43.0749  43.0750  43.9671  44.7114
    45.5342  45.5342  46.3269  46.4466  46.4466  46.4509  47.4827  48.3565
    49.1582  49.9209  49.9209  50.4367  52.1032  52.1032  52.1378  53.3977
    53.6538

          k = 0.0000 0.2000 0.0000 (  1940 PWs)   bands (ev):

   -36.9960 -36.9956 -36.8766 -36.8764 -36.8346 -36.8277  -8.6917  -7.8165
    -7.2724  -7.2128   3.0434   3.1510   4.2966   4.3036   4.4860   6.2190
     6.2560   7.0157   7.4827   7.7358   8.3384   8.5288   8.8945   9.0036
     9.1908   9.2399   9.7085  11.1354  11.2596  13.7801  13.8077  14.5729
    16.8939  20.3223  20.7736  23.5451  24.0954  24.5300  25.6325  27.6898
    27.8965  29.0901  29.3055  31.1957  31.2415  31.8084  32.8937  34.4308
    34.4705  35.5620  36.0808  36.1037  38.0896  38.2566  38.8611  38.9612
    38.9703  39.8631  39.9330  40.0573  41.0652  41.7990  42.2590  43.0889
    43.8970  44.0543  45.1806  45.4610  46.7586  47.4457  47.8634  48.2808
    48.2877  48.4176  49.4291  49.7432  50.3390  50.4664  52.4778  52.5175
    53.3804

          k = 0.0000 0.2000 0.3103 (  1941 PWs)   bands (ev):

   -36.9927 -36.9923 -36.8798 -36.8746 -36.8695 -36.8687  -8.3968  -7.6395
    -7.4125  -7.3455   3.4142   3.5806   4.3135   4.3234   4.9641   5.7599
     6.1093   6.7252   6.9101   7.2287   7.4020   8.3609   9.1374   9.3194
     9.5733   9.8385  10.0527  10.9537  11.7557  12.8898  13.2627  14.3028
    18.0303  21.4126  22.0335  23.8821  24.2756  24.7193  25.2124  26.6223
    26.7416  27.4109  28.3995  30.8379  30.8869  32.4361  33.2242  33.2979
    34.6397  35.4855  36.3089  36.9132  37.5214  37.9483  38.7098  38.8971
    38.9756  38.9960  40.0486  41.1286  42.3700  42.4199  43.2656  44.1174
    44.2126  44.9169  45.6292  45.8633  46.6602  46.9594  47.5020  47.6245
    47.7683  49.1176  49.8366  50.2975  51.6652  51.8625  52.4764  52.6395
    53.5172

          k = 0.0000 0.2000 0.6207 (  1942 PWs)   bands (ev):

   -36.9874 -36.9871 -36.9512 -36.9493 -36.8583 -36.8577  -7.8505  -7.6529
    -7.5031  -7.4150   3.8590   4.0482   4.3187   4.7305   5.0721   5.5342
     5.8542   6.3581   6.3806   7.2814   7.3177   7.7082   9.1326   9.1935
     9.6182   9.9505  10.8411  10.8481  11.8476  11.8755  13.3716  13.7903
    20.2178  22.2700  23.3008  24.0202  24.5664  24.5735  25.3562  25.3638
    25.8794  26.0654  27.5533  28.0661  30.7073  31.2478  33.4943  33.7694
    34.9127  35.7039  36.5990  37.4734  37.5829  38.0804  38.9130  38.9772
    38.9963  39.8943  39.8967  40.9556  42.4170  43.4554  43.9000  43.9114
    44.9335  45.2071  45.9561  46.9368  47.0398  47.6338  48.0326  48.7351
    49.0403  49.6889  50.4340  50.5616  51.6882  51.8816  52.5618  52.8156
    53.0595

          k = 0.0000 0.4000 0.0000 (  1960 PWs)   bands (ev):

   -36.9956 -36.9953 -36.8780 -36.8777 -36.8325 -36.8297  -8.3848  -8.0136
    -7.3696  -7.3071   3.5540   3.6628   4.3392   4.3467   5.1741   5.4286
     5.4597   6.2739   6.9170   7.1639   8.4283   8.7112   9.0795   9.2795
     9.4010   9.5646  10.1642  10.7467  12.4610  13.5873  13.6179  13.7125
    18.1238  19.4484  21.4690  22.5480  24.5387  24.6838  25.5360  27.0917
    28.4142  29.6883  29.9148  30.4520  30.7435  31.9335  32.2511  33.3159
    35.0863  35.1938  35.8666  36.0106  36.4808  37.2971  38.9754  38.9765
    40.2437  40.3447  41.1598  41.1761  41.9593  42.3883  43.6643  44.1365
    44.8278  45.0622  45.4710  45.7830  46.0013  46.9615  47.0615  47.5161
    47.5892  47.7110  48.8006  49.2349  49.3960  50.2685  51.5760  52.1366
    54.3157

          k = 0.0000 0.4000 0.3103 (  1946 PWs)   bands (ev):

   -36.9923 -36.9920 -36.8787 -36.8767 -36.8694 -36.8689  -8.1357  -7.8071
    -7.4825  -7.4165   3.8888   3.9144   4.2680   4.3740   5.2531   5.4786
     5.9069   6.1240   6.2716   6.7407   7.8796   8.1963   9.3749   9.6065
     9.8985   9.9869  10.2502  10.5865  12.1707  12.3642  13.4626  14.0435
    19.0682  20.3317  22.5612  23.3323  24.6432  24.7403  25.5099  25.9805
    26.5875  27.8738  28.7773  29.5024  30.6766  32.4481  33.3738  33.4350
    35.1003  35.2923  36.1953  36.5594  37.4591  37.5874  38.1413  38.9765
    38.9794  39.9647  40.6573  41.7380  42.4045  42.9783  43.9047  44.6823
    44.9656  45.2343  45.7369  45.8845  46.6664  46.9921  47.5928  47.8056
    48.1078  48.5105  48.7261  50.7006  51.3279  51.9035  52.0760  52.2191
    52.7231

          k = 0.0000 0.4000 0.6207 (  1951 PWs)   bands (ev):

   -36.9888 -36.9886 -36.9496 -36.9486 -36.8583 -36.8581  -7.8326  -7.7657
    -7.4263  -7.3836   3.8860   3.9516   4.0992   4.2826   5.3570   5.7582
     6.1058   6.6509   6.7862   6.8317   7.4247   8.2864   8.5018   9.2182
     9.4382   9.6281  10.9158  10.9269  11.3135  11.4693  14.0676  14.2921
    20.6528  21.4694  23.1185  23.5207  24.6964  24.7689  25.0886  25.3980
    25.9744  26.6740  26.9591  27.8974  30.7817  31.5161  33.8782  34.0933
    35.1977  35.5269  36.9928  37.0103  37.4278  37.5690  38.4734  38.9768
    38.9796  39.5979  41.5861  41.6571  42.2086  43.0408  43.7931  44.0715
    44.6603  45.0372  46.5282  46.6963  47.2386  47.3474  48.8029  48.9752
    49.6849  49.9291  50.8418  50.9070  51.6153  52.0146  52.6847  53.1545
    53.2019

          k = 0.2000 0.2000 0.0000 (  1955 PWs)   bands (ev):

   -36.9967 -36.9952 -36.8780 -36.8757 -36.8340 -36.8283  -8.6009  -7.8623
    -7.3473  -7.2078   2.8604   3.6380   4.2586   4.3486   4.6947   5.4418
     6.5915   6.9202   7.6608   7.8674   7.8681   8.2750   8.5837   9.0139
     9.2951   9.5200   9.9820  11.1451  11.4626  13.6016  13.9005  14.2623
    17.3993  20.5166  20.5959  23.1759  23.9919  24.8068  25.4221  27.1017
    29.1785  29.4490  29.5668  31.1117  31.1279  31.4137  31.8988  33.3893
    33.8280  35.6866  36.6809  36.7032  38.1117  38.5673  38.7743  38.9673
    39.0034  39.6192  40.3420  40.6886  41.0457  41.3976  43.0538  43.6728
    44.0087  44.8873  45.1628  45.4157  46.4667  46.7899  46.9332  47.8402
    48.4107  48.8880  49.5739  49.8436  50.6657  51.2883  51.8191  52.2039
    54.1265

          k = 0.2000 0.2000 0.3103 (  1949 PWs)   bands (ev):

   -36.9931 -36.9920 -36.8796 -36.8751 -36.8693 -36.8692  -8.3183  -7.6674
    -7.4744  -7.3481   3.3107   3.8973   4.1807   4.4130   5.1810   5.5067
     6.1147   6.3916   6.8595   7.3130   7.6092   8.2195   9.0189   9.2198
     9.6412   9.9743  10.2462  10.8602  11.8871  12.7031  13.3244  14.2201
    18.4109  21.5333  21.6321  23.6738  24.3964  24.4331  25.3083  26.3745
    27.1789  28.0430  28.3013  29.5931  31.2042  32.6787  33.1513  33.3775
    34.2321  35.2696  36.5123  37.3593  37.5188  37.7929  38.6428  38.9728
    38.9785  39.4124  40.5912  40.9133  42.5524  42.8042  43.2184  43.7266
    44.4631  45.3996  45.7447  46.3512  46.5408  46.6334  46.7541  47.7520
    47.8627  48.9355  49.2899  50.7149  51.5059  51.8596  52.4928  53.1623
    53.3567

          k = 0.2000 0.2000 0.6207 (  1956 PWs)   bands (ev):

   -36.9885 -36.9870 -36.9515 -36.9489 -36.8585 -36.8583  -7.8473  -7.6163
    -7.5694  -7.3832   3.9249   4.0009   4.3117   4.5235   4.8690   5.7885
     5.8932   6.4266   6.6542   6.9115   7.4083   8.0327   8.9193   9.2442
     9.6322  10.0099  10.4580  11.0394  11.2765  12.6950  12.8899  14.1371
    20.3134  22.2517  22.8331  23.5542  24.2136  24.3114  25.0975  25.9956
    26.1406  26.7023  27.3905  28.4962  30.3240  31.5233  33.4040  33.4942
    34.3148  36.4276  36.7414  37.5525  37.6940  38.3211  38.9740  38.9794
    39.5305  39.7543  40.3817  41.2044  42.2480  42.8947  42.8979  44.1069
    45.0607  45.0755  45.9447  46.8995  46.9357  47.5263  48.0620  49.0971
    49.2111  50.0144  50.2895  50.6992  51.4684  52.1017  52.4695  53.0050
    53.4602

          k = 0.2000 0.4000 0.0000 (  1956 PWs)   bands (ev):

   -36.9966 -36.9952 -36.8776 -36.8765 -36.8323 -36.8298  -8.3596  -8.0625
    -7.3598  -7.2768   3.0896   3.6126   4.2779   4.3340   5.2785   5.5233
     6.0920   6.7051   7.0208   7.4418   7.9588   8.3985   8.8869   9.0113
     9.1943   9.4924  10.4528  10.8750  12.3516  13.4254  13.6004  13.7891
    18.5550  19.7643  21.2610  22.2660  24.3090  24.6944  25.5790  26.6424
    29.4875  30.1494  30.1713  30.5579  30.7950  31.6259  31.9910  32.1677
    33.5716  35.5028  35.8899  36.7729  37.3513  37.6859  38.9751  38.9772
    39.9510  40.2807  40.7868  40.9962  41.7186  42.3516  43.6405  44.4416
    44.8687  44.8705  45.1312  45.6681  46.1276  47.3280  47.6007  47.9339
    48.3047  48.9148  49.1499  49.2757  49.4291  50.7394  50.9147  51.4930
    53.3570

          k = 0.2000 0.4000 0.3103 (  1947 PWs)   bands (ev):

   -36.9930 -36.9920 -36.8785 -36.8766 -36.8693 -36.8690  -8.1102  -7.8495
    -7.4698  -7.4014   3.5010   3.9231   4.1910   4.2750   5.4551   5.6621
     6.0722   6.2859   6.6412   6.9199   7.6573   7.9510   9.3246   9.4277
     9.5868   9.9485  10.3823  10.6122  12.2530  12.6147  13.4007  13.8639
    19.3692  20.5353  22.1408  22.9361  24.4337  24.6606  25.5947  25.9926
    27.1025  27.8615  28.7221  29.5856  30.8223  32.5499  33.2756  33.6070
    34.7067  34.8609  36.3103  36.6863  37.3805  38.0137  38.8806  38.9740
    38.9878  39.8306  40.7646  41.1894  42.3794  43.2160  43.7678  44.0489
    44.9473  45.5460  45.8341  46.3744  46.4865  46.9883  47.2606  47.8450
    48.3172  49.0661  49.2496  50.5017  50.5773  51.0543  51.6591  51.9983
    53.3003

          k = 0.2000 0.4000 0.6207 (  1954 PWs)   bands (ev):

   -36.9887 -36.9879 -36.9503 -36.9489 -36.8585 -36.8583  -7.8072  -7.7157
    -7.4847  -7.4002   3.9149   3.9983   4.1746   4.3876   4.9848   5.5453
     6.0552   6.3688   6.8140   7.1517   7.5902   8.3636   8.6886   9.3734
     9.4313   9.5748  10.6303  10.9113  11.3866  12.0237  13.6821  14.1980
    20.7066  21.5103  22.6453  23.0854  23.9069  24.2170  25.0168  25.7327
    26.5730  27.0058  27.7245  28.8094  30.5265  31.8715  33.4142  33.6996
    34.0081  35.2973  37.1780  37.2878  38.0177  38.9383  38.9641  38.9867
    39.3033  40.4827  41.1641  41.4382  41.8923  42.8291  43.2377  44.1748
    44.6644  44.9086  45.5223  46.4357  47.0279  47.8961  48.1680  48.7614
    49.2567  49.7249  49.9648  50.9266  51.7650  52.1088  52.7487  53.1543
    54.1008

          k = 0.4000 0.4000 0.0000 (  1950 PWs)   bands (ev):

   -36.9974 -36.9966 -36.8765 -36.8756 -36.8312 -36.8304  -8.2855  -8.1740
    -7.3082  -7.2646   2.8659   3.0934   4.2340   4.2651   5.8067   6.3224
     6.3513   7.0424   7.4211   7.5840   7.8053   8.2411   8.2665   8.5925
     8.8392   9.0222  10.8224  10.9679  12.3820  12.8224  13.7860  13.8939
    19.5151  20.3679  20.7690  21.5480  24.2029  24.3727  26.0096  26.5178
    29.7309  30.2196  30.4833  30.7321  31.1139  31.1570  31.3058  31.8929
    34.3381  35.2045  35.6850  36.3468  37.3250  38.3422  38.9756  38.9798
    39.2828  40.2087  40.8461  40.8575  41.2345  41.8875  43.3937  44.2493
    45.2428  45.6653  45.7752  45.9487  47.7173  47.8076  48.1126  48.4559
    48.5822  49.2248  49.3554  49.4383  50.0845  50.2721  50.8750  51.0240
    53.1570

          k = 0.4000 0.4000 0.3103 (  1954 PWs)   bands (ev):

   -36.9935 -36.9929 -36.8775 -36.8769 -36.8693 -36.8692  -8.0405  -7.9436
    -7.4306  -7.3983   3.3216   3.5096   4.1076   4.1619   5.9442   6.1772
     6.2506   6.6227   6.9302   7.1207   7.2750   7.6156   8.9839   9.3823
     9.4830   9.5197  10.5339  10.6048  12.6067  12.8210  13.3357  13.4983
    20.1198  20.9156  21.3982  22.0647  24.5868  24.7138  25.6673  26.0675
    26.7295  27.1810  29.5707  30.3920  31.0981  32.6247  32.7907  32.9326
    35.1492  35.3518  36.3829  36.9468  37.2346  37.3771  38.9698  38.9729
    39.8074  40.0150  40.3932  40.8040  41.8305  42.3137  43.9483  44.1000
    45.4662  45.6818  46.0339  46.6572  47.0778  47.2880  47.9283  48.3291
    48.6103  48.9014  49.9614  50.1239  50.2881  50.5236  50.9365  51.5940
    51.7854

          k = 0.4000 0.4000 0.6207 (  1961 PWs)   bands (ev):

   -36.9877 -36.9872 -36.9511 -36.9503 -36.8587 -36.8586  -7.7244  -7.6104
    -7.5934  -7.4788   3.9880   4.1945   4.3006   4.3550   4.7886   5.1099
     5.8070   6.0402   7.0717   7.2301   7.9710   8.2849   9.3067   9.3361
     9.3991   9.8441  10.2004  10.5861  12.0301  12.8902  12.9074  13.7042
    20.9304  21.4000  22.0377  22.3736  23.8640  23.8642  24.6152  24.9441
    27.6520  27.6677  28.9665  29.4189  31.0421  32.3465  32.8682  33.0471
    33.4662  34.3968  37.3967  37.4145  38.6039  38.9622  38.9803  39.3344
    40.2455  40.6363  41.7414  42.0208  42.2918  43.0316  43.1450  43.8144
    44.3848  44.8474  45.0999  45.9676  46.2484  47.2646  47.4109  48.5011
    48.7573  49.3908  49.4506  50.1711  51.0120  51.6615  52.7288  53.4584
    53.7756

          k =-0.2000 0.2000 0.0000 (  1955 PWs)   bands (ev):

   -36.9965 -36.9955 -36.8778 -36.8760 -36.8340 -36.8283  -8.6008  -7.8624
    -7.3477  -7.2075   2.8607   3.6378   4.2588   4.3485   4.6947   5.4415
     6.5915   6.9199   7.6609   7.8677   7.8684   8.2750   8.5838   9.0138
     9.2951   9.5198   9.9819  11.1452  11.4626  13.6015  13.9007  14.2623
    17.3993  20.5166  20.5959  23.1760  23.9919  24.8067  25.4221  27.1017
    29.1785  29.4490  29.5668  31.1118  31.1278  31.4137  31.8988  33.3893
    33.8280  35.6866  36.6808  36.7032  38.1118  38.5673  38.7743  38.9671
    39.0037  39.6192  40.3421  40.6885  41.0457  41.3976  43.0538  43.6729
    44.0088  44.8873  45.1629  45.4158  46.4666  46.7900  46.9332  47.8402
    48.4107  48.8880  49.5739  49.8437  50.6657  51.2883  51.8191  52.2039
    54.1264

          k =-0.2000 0.2000-0.3103 (  1949 PWs)   bands (ev):

   -36.9929 -36.9922 -36.8796 -36.8750 -36.8694 -36.8691  -8.3183  -7.6676
    -7.4747  -7.3477   3.3109   3.8971   4.1808   4.4128   5.1811   5.5065
     6.1145   6.3917   6.8594   7.3133   7.6092   8.2195   9.0189   9.2198
     9.6412   9.9742  10.2461  10.8603  11.8870  12.7031  13.3245  14.2200
    18.4108  21.5333  21.6321  23.6739  24.3964  24.4331  25.3082  26.3745
    27.1789  28.0430  28.3013  29.5931  31.2042  32.6786  33.1512  33.3775
    34.2321  35.2696  36.5122  37.3593  37.5188  37.7929  38.6428  38.9734
    38.9778  39.4124  40.5913  40.9133  42.5525  42.8042  43.2183  43.7266
    44.4631  45.3996  45.7447  46.3512  46.5408  46.6334  46.7541  47.7519
    47.8628  48.9354  49.2899  50.7150  51.5058  51.8595  52.4927  53.1624
    53.3567

          k =-0.2000 0.2000-0.6207 (  1956 PWs)   bands (ev):

   -36.9887 -36.9867 -36.9517 -36.9487 -36.8587 -36.8581  -7.8475  -7.6163
    -7.5691  -7.3835   3.9248   4.0007   4.3118   4.5236   4.8692   5.7886
     5.8930   6.4268   6.6539   6.9115   7.4083   8.0326   8.9193   9.2442
     9.6323  10.0101  10.4581  11.0393  11.2765  12.6951  12.8900  14.1370
    20.3133  22.2517  22.8332  23.5541  24.2136  24.3114  25.0975  25.9956
    26.1406  26.7024  27.3905  28.4961  30.3240  31.5233  33.4039  33.4943
    34.3149  36.4275  36.7414  37.5525  37.6939  38.3211  38.9746  38.9787
    39.5305  39.7543  40.3817  41.2044  42.2480  42.8947  42.8980  44.1068
    45.0607  45.0755  45.9447  46.8995  46.9356  47.5263  48.0620  49.0971
    49.2112  50.0144  50.2895  50.6992  51.4684  52.1018  52.4694  53.0050
    53.4602

          k =-0.2000 0.4000 0.0000 (  1956 PWs)   bands (ev):

   -36.9964 -36.9954 -36.8774 -36.8767 -36.8323 -36.8298  -8.3595  -8.0627
    -7.3601  -7.2764   3.0898   3.6124   4.2780   4.3339   5.2785   5.5231
     6.0920   6.7053   7.0206   7.4421   7.9589   8.3984   8.8870   9.0115
     9.1943   9.4922  10.4527  10.8752  12.3515  13.4254  13.6002  13.7892
    18.5550  19.7643  21.2610  22.2660  24.3090  24.6944  25.5790  26.6424
    29.4875  30.1494  30.1713  30.5579  30.7950  31.6259  31.9910  32.1677
    33.5716  35.5027  35.8899  36.7730  37.3513  37.6859  38.9745  38.9778
    39.9510  40.2807  40.7868  40.9961  41.7187  42.3516  43.6405  44.4416
    44.8687  44.8706  45.1312  45.6680  46.1276  47.3279  47.6007  47.9339
    48.3047  48.9148  49.1499  49.2756  49.4291  50.7394  50.9147  51.4930
    53.3570

          k =-0.2000 0.4000-0.3103 (  1947 PWs)   bands (ev):

   -36.9927 -36.9923 -36.8785 -36.8766 -36.8693 -36.8690  -8.1100  -7.8498
    -7.4700  -7.4011   3.5012   3.9229   4.1911   4.2748   5.4550   5.6621
     6.0723   6.2857   6.6412   6.9201   7.6574   7.9510   9.3246   9.4277
     9.5868   9.9484  10.3821  10.6123  12.2529  12.6148  13.4007  13.8639
    19.3692  20.5353  22.1408  22.9361  24.4337  24.6607  25.5947  25.9926
    27.1025  27.8615  28.7221  29.5856  30.8223  32.5499  33.2756  33.6070
    34.7067  34.8609  36.3103  36.6863  37.3804  38.0137  38.8805  38.9746
    38.9872  39.8306  40.7646  41.1894  42.3794  43.2160  43.7678  44.0489
    44.9473  45.5460  45.8341  46.3744  46.4864  46.9883  47.2605  47.8450
    48.3172  49.0662  49.2495  50.5017  50.5773  51.0543  51.6590  51.9983
    53.3004

          k =-0.2000 0.4000-0.6207 (  1954 PWs)   bands (ev):

   -36.9889 -36.9877 -36.9505 -36.9487 -36.8587 -36.8581  -7.8074  -7.7155
    -7.4844  -7.4004   3.9147   3.9984   4.1745   4.3878   4.9849   5.5452
     6.0553   6.3686   6.8142   7.1517   7.5901   8.3636   8.6884   9.3733
     9.4315   9.5749  10.6304  10.9111  11.3866  12.0237  13.6822  14.1979
    20.7066  21.5103  22.6453  23.0854  23.9068  24.2171  25.0168  25.7327
    26.5730  27.0058  27.7245  28.8094  30.5265  31.8715  33.4142  33.6997
    34.0081  35.2973  37.1780  37.2878  38.0177  38.9385  38.9635  38.9871
    39.3032  40.4827  41.1641  41.4382  41.8923  42.8291  43.2377  44.1747
    44.6644  44.9086  45.5223  46.4357  47.0278  47.8962  48.1680  48.7614
    49.2567  49.7249  49.9648  50.9266  51.7650  52.1088  52.7487  53.1543
    54.1008

          k =-0.4000 0.4000 0.0000 (  1950 PWs)   bands (ev):

   -36.9972 -36.9968 -36.8762 -36.8758 -36.8312 -36.8304  -8.2852  -8.1742
    -7.3085  -7.2643   2.8661   3.0932   4.2341   4.2650   5.8067   6.3223
     6.3511   7.0426   7.4208   7.5841   7.8056   8.2411   8.2666   8.5927
     8.8391   9.0220  10.8222  10.9681  12.3820  12.8224  13.7859  13.8940
    19.5151  20.3678  20.7690  21.5480  24.2030  24.3727  26.0096  26.5179
    29.7310  30.2196  30.4833  30.7321  31.1139  31.1570  31.3058  31.8929
    34.3381  35.2044  35.6851  36.3467  37.3250  38.3423  38.9750  38.9803
    39.2828  40.2087  40.8461  40.8576  41.2345  41.8876  43.3937  44.2493
    45.2428  45.6652  45.7752  45.9488  47.7173  47.8077  48.1126  48.4559
    48.5822  49.2249  49.3554  49.4384  50.0844  50.2721  50.8749  51.0241
    53.1570

          k =-0.4000 0.4000-0.3103 (  1954 PWs)   bands (ev):

   -36.9933 -36.9931 -36.8777 -36.8767 -36.8694 -36.8691  -8.0402  -7.9440
    -7.4310  -7.3979   3.3219   3.5094   4.1077   4.1618   5.9440   6.1773
     6.2508   6.6226   6.9300   7.1208   7.2750   7.6158   8.9840   9.3822
     9.4830   9.5197  10.5337  10.6049  12.6066  12.8211  13.3358  13.4982
    20.1198  20.9156  21.3982  22.0647  24.5868  24.7139  25.6673  26.0675
    26.7295  27.1810  29.5707  30.3920  31.0980  32.6248  32.7907  32.9326
    35.1493  35.3518  36.3828  36.9467  37.2347  37.3770  38.9701  38.9726
    39.8074  40.0150  40.3932  40.8041  41.8305  42.3137  43.9483  44.1000
    45.4662  45.6819  46.0338  46.6571  47.0778  47.2879  47.9284  48.3291
    48.6103  48.9014  49.9613  50.1239  50.2880  50.5236  50.9364  51.5940
    51.7854

          k =-0.4000 0.4000-0.6207 (  1961 PWs)   bands (ev):

   -36.9879 -36.9869 -36.9513 -36.9501 -36.8588 -36.8585  -7.7247  -7.6100
    -7.5932  -7.4791   3.9878   4.1948   4.3007   4.3549   4.7888   5.1098
     5.8072   6.0400   7.0719   7.2299   7.9708   8.2850   9.3065   9.3360
     9.3992   9.8443  10.2005  10.5860  12.0300  12.8902  12.9076  13.7041
    20.9304  21.4001  22.0377  22.3735  23.8640  23.8642  24.6152  24.9442
    27.6520  27.6677  28.9665  29.4189  31.0421  32.3466  32.8683  33.0470
    33.4662  34.3968  37.3968  37.4143  38.6038  38.9628  38.9797  39.3344
    40.2455  40.6363  41.7415  42.0208  42.2918  43.0315  43.1450  43.8144
    44.3848  44.8475  45.0999  45.9676  46.2484  47.2646  47.4109  48.5011
    48.7574  49.3907  49.4506  50.1711  51.0120  51.6615  52.7288  53.4584
    53.7756

     the Fermi energy is    10.6383 ev

!    total energy              =    -469.80787891 Ry
     Harris-Foulkes estimate   =    -469.80787758 Ry
     estimated scf accuracy    <       0.00000050 Ry

     The total energy is the sum of the following terms:

     one-electron contribution =    -150.06357410 Ry
     hartree contribution      =     109.35802343 Ry
     xc contribution           =     -86.88233860 Ry
     ewald contribution        =    -342.21957757 Ry
     smearing contrib. (-TS)   =      -0.00041206 Ry

     total magnetization       =    -0.00 Bohr mag/cell
     absolute magnetization    =     0.00 Bohr mag/cell

     convergence has been achieved in  10 iterations

     Forces acting on atoms (Ry/au):


     negative rho (up, down):  0.863E-01 0.863E-01
     atom    1 type  1   force =     0.00000000    0.00000000    0.00000000
     atom    2 type  1   force =     0.00000000    0.00000000    0.00000000
     atom    3 type  2   force =    -0.00143425   -0.00143425    0.00000000
     atom    4 type  2   force =     0.00143425    0.00143425    0.00000000
     atom    5 type  2   force =    -0.00142534    0.00142534   -0.00000000
     atom    6 type  2   force =     0.00142534   -0.00142534   -0.00000000

     Total force =     0.004044     Total SCF correction =     0.000129


     entering subroutine stress ...


     negative rho (up, down):  0.863E-01 0.863E-01
          total   stress  (Ry/bohr**3)                   (kbar)     P= -122.87
  -0.00113697   0.00000066   0.00000000       -167.25      0.10      0.00
   0.00000066  -0.00113697   0.00000000          0.10   -167.25      0.00
   0.00000000   0.00000000  -0.00023191          0.00      0.00    -34.11

     Volume is kept fixed: isostatic pressure set to zero

     BFGS Geometry Optimization

     number of scf cycles    =   1
     number of bfgs steps    =   0

     enthalpy new            =    -469.8078789066 Ry

     new trust radius        =       0.0644484408 bohr
     new conv_thr            =       0.0000010000 Ry

     new unit-cell volume =    456.35781 a.u.^3 (    67.62525 Ang^3 )

CELL_PARAMETERS (alat=  8.91333033)
   0.992513950   0.000016579   0.000000000
   0.000016579   0.992513950   0.000000000
   0.000000000   0.000000000   0.654202568

ATOMIC_POSITIONS (crystal)
Rh0      0.000000000   0.000000000   0.000000000    0   0   0
Rh0      0.500000000   0.500000000   0.500000000    0   0   0
O1       0.304839089   0.304839089   0.000000000    1   1   0
O1      -0.304839089  -0.304839089   0.000000000    1   1   0
O1       0.804840089   0.195159911   0.500000000    1   1   0
O1       0.195159911   0.804840089   0.500000000    1   1   0


     Check: negative starting charge=(component1):   -0.160856
     NEW-OLD atomic charge density approx. for the potential
     NEW k-points:
        k(    1) = (   0.0000000   0.0000000   0.0000000), wk =   0.0080000
        k(    2) = (   0.0000000   0.0000000   0.3057157), wk =   0.0160000
        k(    3) = (   0.0000000   0.0000000   0.6114314), wk =   0.0160000
        k(    4) = (  -0.0000034   0.2015085   0.0000000), wk =   0.0320000
        k(    5) = (  -0.0000034   0.2015085   0.3057157), wk =   0.0640000
        k(    6) = (  -0.0000034   0.2015085   0.6114314), wk =   0.0640000
        k(    7) = (  -0.0000067   0.4030170   0.0000000), wk =   0.0320000
        k(    8) = (  -0.0000067   0.4030170   0.3057157), wk =   0.0640000
        k(    9) = (  -0.0000067   0.4030170   0.6114314), wk =   0.0640000
        k(   10) = (   0.2015051   0.2015051   0.0000000), wk =   0.0160000
        k(   11) = (   0.2015051   0.2015051   0.3057157), wk =   0.0320000
        k(   12) = (   0.2015051   0.2015051   0.6114314), wk =   0.0320000
        k(   13) = (   0.2015018   0.4030136   0.0000000), wk =   0.0320000
        k(   14) = (   0.2015018   0.4030136   0.3057157), wk =   0.0640000
        k(   15) = (   0.2015018   0.4030136   0.6114314), wk =   0.0640000
        k(   16) = (   0.4030103   0.4030103   0.0000000), wk =   0.0160000
        k(   17) = (   0.4030103   0.4030103   0.3057157), wk =   0.0320000
        k(   18) = (   0.4030103   0.4030103   0.6114314), wk =   0.0320000
        k(   19) = (  -0.2015119   0.2015119   0.0000000), wk =   0.0160000
        k(   20) = (  -0.2015119   0.2015119  -0.3057157), wk =   0.0320000
        k(   21) = (  -0.2015119   0.2015119  -0.6114314), wk =   0.0320000
        k(   22) = (  -0.2015152   0.4030204   0.0000000), wk =   0.0320000
        k(   23) = (  -0.2015152   0.4030204  -0.3057157), wk =   0.0640000
        k(   24) = (  -0.2015152   0.4030204  -0.6114314), wk =   0.0640000
        k(   25) = (  -0.4030237   0.4030237   0.0000000), wk =   0.0160000
        k(   26) = (  -0.4030237   0.4030237  -0.3057157), wk =   0.0320000
        k(   27) = (  -0.4030237   0.4030237  -0.6114314), wk =   0.0320000
        k(   28) = (   0.0000000   0.0000000   0.0000000), wk =   0.0080000
        k(   29) = (   0.0000000   0.0000000   0.3057157), wk =   0.0160000
        k(   30) = (   0.0000000   0.0000000   0.6114314), wk =   0.0160000
        k(   31) = (  -0.0000034   0.2015085   0.0000000), wk =   0.0320000
        k(   32) = (  -0.0000034   0.2015085   0.3057157), wk =   0.0640000
        k(   33) = (  -0.0000034   0.2015085   0.6114314), wk =   0.0640000
        k(   34) = (  -0.0000067   0.4030170   0.0000000), wk =   0.0320000
        k(   35) = (  -0.0000067   0.4030170   0.3057157), wk =   0.0640000
        k(   36) = (  -0.0000067   0.4030170   0.6114314), wk =   0.0640000
        k(   37) = (   0.2015051   0.2015051   0.0000000), wk =   0.0160000
        k(   38) = (   0.2015051   0.2015051   0.3057157), wk =   0.0320000
        k(   39) = (   0.2015051   0.2015051   0.6114314), wk =   0.0320000
        k(   40) = (   0.2015018   0.4030136   0.0000000), wk =   0.0320000
        k(   41) = (   0.2015018   0.4030136   0.3057157), wk =   0.0640000
        k(   42) = (   0.2015018   0.4030136   0.6114314), wk =   0.0640000
        k(   43) = (   0.4030103   0.4030103   0.0000000), wk =   0.0160000
        k(   44) = (   0.4030103   0.4030103   0.3057157), wk =   0.0320000
        k(   45) = (   0.4030103   0.4030103   0.6114314), wk =   0.0320000
        k(   46) = (  -0.2015119   0.2015119   0.0000000), wk =   0.0160000
        k(   47) = (  -0.2015119   0.2015119  -0.3057157), wk =   0.0320000
        k(   48) = (  -0.2015119   0.2015119  -0.6114314), wk =   0.0320000
        k(   49) = (  -0.2015152   0.4030204   0.0000000), wk =   0.0320000
        k(   50) = (  -0.2015152   0.4030204  -0.3057157), wk =   0.0640000
        k(   51) = (  -0.2015152   0.4030204  -0.6114314), wk =   0.0640000
        k(   52) = (  -0.4030237   0.4030237   0.0000000), wk =   0.0160000
        k(   53) = (  -0.4030237   0.4030237  -0.3057157), wk =   0.0320000
        k(   54) = (  -0.4030237   0.4030237  -0.6114314), wk =   0.0320000

     Check: negative/imaginary core charge=   -0.000005    0.000000
     Check: negative starting charge=(component1):   -0.161384

     negative rho (up, down):  0.865E-01 0.865E-01

     total cpu time spent up to now is      432.8 secs

     per-process dynamical memory:    68.6 Mb

     Self-consistent Calculation

     iteration #  1     ecut=    40.00 Ry     beta=0.30
     Davidson diagonalization with overlap
     ethr =  1.00E-06,  avg # of iterations =  5.4

     negative rho (up, down):  0.865E-01 0.865E-01

     total cpu time spent up to now is      513.4 secs

     total energy              =    -469.81251199 Ry
     Harris-Foulkes estimate   =    -469.81252063 Ry
     estimated scf accuracy    <       0.00017348 Ry

     total magnetization       =    -0.00 Bohr mag/cell
     absolute magnetization    =     0.00 Bohr mag/cell

     iteration #  2     ecut=    40.00 Ry     beta=0.30
     Davidson diagonalization with overlap
     ethr =  3.21E-07,  avg # of iterations =  1.0

     negative rho (up, down):  0.865E-01 0.865E-01

     total cpu time spent up to now is      542.1 secs

     total energy              =    -469.81252267 Ry
     Harris-Foulkes estimate   =    -469.81251957 Ry
     estimated scf accuracy    <       0.00006732 Ry

     total magnetization       =    -0.00 Bohr mag/cell
     absolute magnetization    =     0.00 Bohr mag/cell

     iteration #  3     ecut=    40.00 Ry     beta=0.30
     Davidson diagonalization with overlap
     ethr =  1.25E-07,  avg # of iterations =  1.0

     negative rho (up, down):  0.865E-01 0.865E-01

     total cpu time spent up to now is      570.0 secs

     total energy              =    -469.81252843 Ry
     Harris-Foulkes estimate   =    -469.81252996 Ry
     estimated scf accuracy    <       0.00003852 Ry

     total magnetization       =    -0.00 Bohr mag/cell
     absolute magnetization    =     0.00 Bohr mag/cell

     iteration #  4     ecut=    40.00 Ry     beta=0.30
     Davidson diagonalization with overlap
     ethr =  7.13E-08,  avg # of iterations =  1.0

     negative rho (up, down):  0.865E-01 0.865E-01

     total cpu time spent up to now is      598.9 secs

     total energy              =    -469.81253167 Ry
     Harris-Foulkes estimate   =    -469.81253571 Ry
     estimated scf accuracy    <       0.00003724 Ry

     total magnetization       =    -0.00 Bohr mag/cell
     absolute magnetization    =     0.00 Bohr mag/cell

     iteration #  5     ecut=    40.00 Ry     beta=0.30
     Davidson diagonalization with overlap
     ethr =  6.90E-08,  avg # of iterations =  1.0

     negative rho (up, down):  0.865E-01 0.865E-01

     total cpu time spent up to now is      627.6 secs

     total energy              =    -469.81253542 Ry
     Harris-Foulkes estimate   =    -469.81253515 Ry
     estimated scf accuracy    <       0.00000501 Ry

     total magnetization       =    -0.00 Bohr mag/cell
     absolute magnetization    =     0.00 Bohr mag/cell

     iteration #  6     ecut=    40.00 Ry     beta=0.30
     Davidson diagonalization with overlap
     ethr =  9.28E-09,  avg # of iterations =  1.0

     negative rho (up, down):  0.865E-01 0.865E-01

     total cpu time spent up to now is      656.4 secs

     total energy              =    -469.81253620 Ry
     Harris-Foulkes estimate   =    -469.81253598 Ry
     estimated scf accuracy    <       0.00000137 Ry

     total magnetization       =    -0.00 Bohr mag/cell
     absolute magnetization    =     0.00 Bohr mag/cell

     iteration #  7     ecut=    40.00 Ry     beta=0.30
     Davidson diagonalization with overlap
     ethr =  2.54E-09,  avg # of iterations =  1.0

     negative rho (up, down):  0.865E-01 0.865E-01

     total cpu time spent up to now is      685.0 secs

     End of self-consistent calculation

 ------ SPIN UP ------------


          k = 0.0000 0.0000 0.0000 (  1955 PWs)   bands (ev):

   -37.0112 -37.0112 -36.8556 -36.8555 -36.8530 -36.8430  -8.7910  -7.7671
    -7.1378  -7.1375   2.8384   2.9134   4.2750   4.2791   4.2796   6.8030
     6.8032   7.0661   8.1962   8.3454   8.3662   8.5349   8.5349   8.7909
     8.8289   8.8290   9.5299  10.6269  11.4026  13.8430  13.8433  14.9228
    16.3627  20.4710  20.4711  23.8816  23.9215  24.7916  26.0621  27.5259
    27.5266  28.3593  28.5434  30.9755  32.8887  32.8893  34.2109  34.2115
    34.4219  35.6859  35.6864  35.9473  36.9014  38.2621  38.3530  38.5221
    38.9578  39.0012  40.4834  40.8130  40.8130  41.1818  41.8528  41.8533
    43.7092  43.7102  44.4618  45.0481  46.5630  49.1148  49.1159  49.1850
    49.1850  49.3134  49.7391  50.4327  50.6860  50.9030  50.9034  51.0332
    51.6796

          k = 0.0000 0.0000 0.3057 (  1939 PWs)   bands (ev):

   -37.0080 -37.0079 -36.8899 -36.8829 -36.8498 -36.8497  -8.4939  -7.6322
    -7.2744  -7.2741   3.1994   3.4163   4.3681   4.3685   4.6706   5.9205
     6.7145   7.1031   7.1034   7.3644   7.3645   8.3761   8.8658   9.1575
     9.2160   9.9757   9.9757  11.1142  11.4278  13.2280  13.2283  14.2394
    17.5766  21.7509  21.7511  23.8625  24.0583  25.0656  25.1562  27.0618
    27.1420  27.2092  27.2099  31.8486  32.2459  32.2463  32.8411  33.5429
    33.5431  35.8767  36.3907  37.5735  37.6937  37.6940  38.6527  38.6527
    38.9496  38.9513  39.3169  39.9136  41.2807  42.8979  42.8986  43.8578
    44.8264  44.8490  45.5738  45.5746  46.7145  47.2494  47.7752  47.7761
    47.9514  49.3068  49.3070  50.1293  51.7247  52.5236  52.5246  52.7449
    53.6109

          k = 0.0000 0.0000 0.6114 (  1948 PWs)   bands (ev):

   -37.0029 -37.0028 -36.9516 -36.9480 -36.8404 -36.8403  -7.8747  -7.5218
    -7.4890  -7.4886   3.8011   4.0617   4.8509   4.8511   5.0597   5.4975
     5.7715   6.0203   6.0203   7.2807   7.6278   7.6280   8.9862   9.4523
     9.5164  10.3734  10.7622  10.7623  12.1940  12.7065  12.7066  12.8448
    20.0222  22.3782  23.8360  23.8361  24.5539  24.6594  24.8955  25.5276
    26.2614  26.2620  26.7440  28.6938  31.2238  31.2245  33.6257  33.6257
    34.5703  36.1012  36.4007  37.7993  37.8488  38.0213  38.0217  38.9561
    38.9585  39.4980  40.2181  40.2189  43.0051  43.0056  43.4865  44.9723
    45.5713  45.5721  46.3740  46.3746  46.5073  46.6466  47.4406  48.2880
    48.6307  49.5726  49.5735  50.3491  52.2194  52.2205  52.2554  53.2482
    53.4990

          k =-0.0000 0.2015 0.0000 (  1940 PWs)   bands (ev):

   -37.0108 -37.0105 -36.8560 -36.8559 -36.8512 -36.8437  -8.6730  -7.7832
    -7.2494  -7.1829   3.0624   3.1847   4.3046   4.3135   4.5064   6.2710
     6.3089   6.9054   7.5495   7.6710   8.3840   8.6161   8.8664   9.0630
     9.1884   9.2762   9.5994  11.1652  11.2942  13.7083  13.7400  14.6383
    16.8904  20.2701  20.7015  23.5098  24.1333  24.6548  25.7497  27.7430
    28.0679  28.7103  28.9367  30.8573  31.3719  31.9043  33.1346  34.1264
    34.6483  35.5996  35.8276  36.2002  38.1787  38.4144  38.6674  38.9470
    38.9491  39.6340  39.7161  40.0327  40.8091  41.9534  42.4314  42.9778
    44.1273  44.1667  45.3208  45.3440  46.2506  47.5761  47.7847  48.1004
    48.6646  48.6706  49.6970  49.9498  49.9751  50.5753  52.4024  52.8059
    52.9669

          k =-0.0000 0.2015 0.3057 (  1941 PWs)   bands (ev):

   -37.0080 -37.0078 -36.8893 -36.8831 -36.8501 -36.8499  -8.3932  -7.6254
    -7.3807  -7.3081   3.4050   3.5871   4.3625   4.3644   4.9802   5.7341
     6.1321   6.7347   6.9150   7.2958   7.4625   8.4382   9.0702   9.3153
     9.5472   9.8070  10.0493  10.9581  11.8130  12.8363  13.1769  14.3330
    17.9874  21.3432  21.9231  23.7498  24.3061  24.8140  25.3529  26.6428
    26.6902  27.2660  28.4947  30.8218  30.9228  32.1066  33.3340  33.5035
    34.6705  35.6878  36.1933  37.0199  37.4243  37.7908  38.6222  38.9082
    38.9554  38.9885  40.0512  41.1502  42.1986  42.4167  43.4122  44.0451
    44.2656  44.9515  45.0551  45.7939  46.5873  47.0537  47.4435  47.7926
    47.8123  49.1977  50.0472  50.4518  51.6379  51.8628  52.3744  52.5746
    53.4936

          k =-0.0000 0.2015 0.6114 (  1942 PWs)   bands (ev):

   -37.0036 -37.0033 -36.9504 -36.9483 -36.8405 -36.8400  -7.8605  -7.6247
    -7.4668  -7.4161   3.8457   4.0481   4.3575   4.7446   5.1660   5.5520
     5.8912   6.3708   6.4454   7.3039   7.3773   7.6748   9.1133   9.2172
     9.4849   9.9711  10.8376  10.8491  11.7959  11.8528  13.2808  13.7511
    20.1479  22.1999  23.1974  23.8526  24.5784  24.6510  25.3173  25.3751
    25.9953  26.1531  27.6618  28.1481  30.8286  31.3302  33.6033  33.8890
    34.7967  35.8709  36.8237  37.2273  37.7710  38.0322  38.9432  38.9568
    39.0401  39.5922  39.9931  40.6379  42.4850  43.2117  43.7462  44.0936
    44.8927  45.2294  45.7384  46.8268  47.1198  47.5628  47.9450  48.7514
    48.8615  49.5163  50.2739  50.5738  51.6811  52.0087  52.5410  52.6759
    53.1769

          k =-0.0000 0.4030 0.0000 (  1960 PWs)   bands (ev):

   -37.0105 -37.0103 -36.8572 -36.8570 -36.8488 -36.8459  -8.3561  -7.9728
    -7.3593  -7.2875   3.6077   3.7305   4.3530   4.3626   5.2019   5.4395
     5.4755   6.3219   6.8042   7.0682   8.4755   8.7874   9.1112   9.3178
     9.4016   9.5798  10.0990  10.7137  12.5464  13.5000  13.5354  13.7889
    18.1357  19.4472  21.4316  22.5278  24.6352  24.7196  25.6639  27.1973
    28.3988  29.5490  29.6971  30.0989  30.3917  31.9205  32.1252  33.5005
    35.2803  35.4188  35.7930  36.1419  36.2402  37.0798  38.9557  38.9566
    40.1731  40.4381  40.8467  40.9061  42.0438  42.5218  43.8831  43.9362
    44.9862  45.1653  45.3927  45.8524  46.1169  46.9299  47.2679  47.2810
    47.2838  48.1251  48.7823  49.1609  49.6267  50.5394  52.0525  52.5257
    53.7986

          k =-0.0000 0.4030 0.3057 (  1946 PWs)   bands (ev):

   -37.0078 -37.0076 -36.8876 -36.8850 -36.8505 -36.8504  -8.1218  -7.7802
    -7.4675  -7.3902   3.9155   3.9570   4.3199   4.4255   5.2317   5.4668
     5.9181   6.0954   6.2432   6.7920   7.9693   8.2980   9.3058   9.5602
     9.8624   9.9422  10.2558  10.5835  12.2156  12.3447  13.4142  14.0506
    19.0484  20.3108  22.4879  23.2627  24.7222  24.7713  25.5596  25.9131
    26.6039  27.8217  28.7463  29.3798  30.7638  32.2977  33.4167  33.4783
    35.2265  35.4128  36.0735  36.5409  37.3293  37.5539  38.0687  38.9567
    38.9594  39.9625  40.6685  41.6940  42.3192  42.8735  43.9451  44.6519
    45.0254  45.1131  45.6376  45.8526  46.7139  46.9157  47.8645  47.9051
    48.1488  48.4185  48.8321  50.7882  51.3484  51.9713  52.3462  52.4609
    52.6234

          k =-0.0000 0.4030 0.6114 (  1951 PWs)   bands (ev):

   -37.0046 -37.0045 -36.9490 -36.9479 -36.8405 -36.8404  -7.8154  -7.7352
    -7.4188  -7.3891   3.9097   3.9773   4.1445   4.3278   5.3702   5.7569
     6.1320   6.7109   6.8020   6.8538   7.4901   8.3169   8.5163   9.2135
     9.3414   9.5020  10.9176  10.9296  11.2686  11.4282  14.0192  14.2554
    20.6188  21.4539  22.9905  23.4037  24.7339  24.7891  25.1846  25.3951
    26.0181  26.6978  27.0073  27.9525  30.9259  31.6439  33.9313  34.1557
    35.1385  35.6143  37.0926  37.1902  37.4373  37.7147  38.1095  38.9543
    38.9596  39.3462  41.5159  41.6862  42.0583  42.6797  43.9424  44.1024
    44.5768  44.9898  46.4686  46.4872  47.2653  47.2848  48.7256  49.1113
    49.5870  49.8142  50.7996  50.9800  51.8618  52.2872  52.6912  52.9270
    53.2668

          k = 0.2015 0.2015 0.0000 (  1955 PWs)   bands (ev):

   -37.0114 -37.0103 -36.8572 -36.8554 -36.8506 -36.8445  -8.5800  -7.8240
    -7.3347  -7.1760   2.8733   3.7021   4.2618   4.3647   4.7180   5.4530
     6.6563   6.8065   7.7488   7.8103   7.8944   8.3390   8.5420   9.0489
     9.3341   9.5320   9.9159  11.1300  11.5310  13.5161  13.8391  14.3301
    17.4059  20.4856  20.5444  23.1533  24.0802  24.7971  25.5562  27.2473
    29.0743  29.2030  29.2508  30.7855  31.2079  31.5183  32.0630  33.5043
    33.5133  35.4507  36.7818  36.8516  37.9125  38.7763  38.7772  38.9451
    38.9899  39.4717  40.3930  40.6380  40.6717  41.5827  43.1615  43.5345
    44.1089  45.0889  45.1500  45.3246  46.5015  46.7352  46.8806  48.0846
    48.4348  49.1399  49.1438  50.0944  50.3235  51.6218  51.7942  52.6139
    53.3321

          k = 0.2015 0.2015 0.3057 (  1949 PWs)   bands (ev):

   -37.0084 -37.0076 -36.8889 -36.8838 -36.8505 -36.8498  -8.3125  -7.6449
    -7.4564  -7.3084   3.2945   3.9340   4.2155   4.4714   5.1980   5.4708
     6.1008   6.4088   6.8978   7.3330   7.6999   8.3079   9.0049   9.1389
     9.6046   9.9456  10.2479  10.8633  11.9437  12.6557  13.2450  14.2425
    18.3795  21.4787  21.5731  23.5993  24.3488  24.4494  25.4410  26.3705
    27.0837  28.0612  28.3580  29.5362  31.3127  32.4008  33.2212  33.4656
    34.2447  35.2684  36.6187  37.1674  37.4609  37.7458  38.6870  38.9530
[...]
    35.2005  35.5191  36.1028  36.5619  37.1363  37.4899  38.0229  38.9498
    38.9526  39.9120  40.6519  41.6410  42.1721  42.7173  43.9074  44.6390
    44.7543  45.1416  45.5697  45.8479  46.6883  46.9232  48.0655  48.0905
    48.4049  48.4315  49.0642  50.8760  51.2771  51.9722  52.4316  52.4940
    52.9485

          k =-0.0000 0.4068 0.6000 (  1952 PWs)   bands (ev):

   -36.9998 -36.9997 -36.9648 -36.9639 -36.8016 -36.8015  -7.7944  -7.6939
    -7.4308  -7.4221   3.9608   4.0127   4.2561   4.4206   5.3759   5.7270
     6.1742   6.7511   6.8175   6.8705   7.5308   8.3460   8.5354   9.2047
     9.2311   9.3254  10.9312  10.9460  11.2291  11.3853  13.9553  14.1897
    20.5519  21.3812  22.8269  23.2333  24.6510  24.9181  25.3394  25.3628
    26.1759  26.7544  27.2286  28.0634  31.1192  31.7824  33.9914  34.2063
    35.0515  35.7358  37.1116  37.3911  37.4023  37.7539  37.9157  38.9399
    38.9529  39.1604  41.0321  41.7945  42.1040  42.1923  44.0212  44.1299
    44.6353  45.0707  46.2026  46.2837  47.1632  47.3687  48.5174  49.1982
    49.5639  49.6222  50.5684  50.9645  51.9729  52.6604  52.6889  52.8830
    52.9558

          k = 0.2034 0.2034 0.0000 (  1937 PWs)   bands (ev):

   -37.0038 -37.0025 -36.8835 -36.8768 -36.8151 -36.8139  -8.5845  -7.8303
    -7.2939  -7.1265   2.8850   3.7317   4.1872   4.2935   4.7743   5.5521
     6.6914   6.7478   7.7259   7.8677   7.8999   8.4564   8.4956   9.0593
     9.4565   9.4844   9.8823  11.1203  11.5823  13.5571  13.8804  14.3387
    17.4143  20.4500  20.4955  23.0806  24.1376  24.8701  25.7999  27.3644
    28.6345  28.8155  29.3550  30.3265  31.3778  31.6462  32.2676  33.0810
    33.6925  35.1209  36.8509  37.1011  37.6008  38.7734  38.9321  38.9830
    39.1122  39.2771  39.8819  40.2432  41.1363  41.8225  43.2470  43.4672
    44.1196  44.8626  45.2445  45.5144  46.0911  46.5762  47.5564  48.3767
    48.5446  48.6086  49.3603  50.0689  50.7508  51.7921  51.9400  52.7900
    53.0768

          k = 0.2034 0.2034 0.3000 (  1944 PWs)   bands (ev):

   -37.0011 -37.0005 -36.9162 -36.9110 -36.8098 -36.8092  -8.3253  -7.6605
    -7.4191  -7.2596   3.2826   3.9780   4.2232   4.4936   5.2407   5.4189
     6.0994   6.4231   6.9181   7.4265   7.7595   8.3644   9.0120   9.0931
     9.6020   9.9084  10.2479  10.8624  11.9981  12.6462  13.2331  14.2130
    18.3501  21.4033  21.4961  23.4251  24.3858  24.4435  25.6723  26.2956
    27.0301  28.0871  28.4299  29.5708  31.4866  32.0188  33.3069  33.5300
    34.3555  35.2093  36.7016  36.9164  37.3470  37.6621  38.7505  38.9460
    38.9534  39.5777  40.6374  40.9697  42.6766  42.7896  42.8619  43.4724
    44.6543  44.6921  45.4442  46.1111  46.5534  47.1049  47.1212  47.6167
    47.8670  49.0835  49.5181  50.9772  51.2158  52.4398  52.5838  52.8887
    53.5069

          k = 0.2034 0.2034 0.6000 (  1948 PWs)   bands (ev):

   -36.9996 -36.9969 -36.9675 -36.9637 -36.8015 -36.8014  -7.8455  -7.6138
    -7.4678  -7.4135   3.9151   4.1284   4.3015   4.5824   5.0260   5.8675
     6.0171   6.4422   6.7037   7.0666   7.4510   8.0133   9.0316   9.0441
     9.3180  10.0826  10.4313  11.0646  11.2160  12.5433  12.7730  14.0235
    20.1920  22.0921  22.7516  23.3427  24.0436  24.0729  25.3541  26.0041
    26.3785  27.0324  27.5396  28.8095  30.6836  31.5480  33.5926  33.7537
    34.5367  35.9794  36.8601  37.7190  38.0057  38.1037  38.9415  38.9481
    39.1367  39.7780  40.4127  40.7845  42.3067  42.8124  42.9016  43.6221
    45.0881  45.1393  46.2594  46.2937  46.5097  47.6519  47.9784  48.4996
    49.0264  49.9717  50.2297  50.3134  51.4417  51.8323  52.7590  53.0682
    53.5246

          k = 0.2034 0.4068 0.0000 (  1944 PWs)   bands (ev):

   -37.0035 -37.0027 -36.8817 -36.8788 -36.8152 -36.8142  -8.3342  -8.0273
    -7.3095  -7.2080   3.1330   3.7034   4.2078   4.2738   5.3675   5.6303
     6.2199   6.8144   6.8768   7.2711   7.9972   8.4920   8.9414   9.0131
     9.3514   9.4513  10.3820  10.8291  12.4748  13.5364  13.5549  13.7604
    18.5707  19.7506  21.2149  22.2355  24.4403  24.7522  25.8291  26.8313
    29.3696  29.5460  29.7949  30.0063  30.2945  31.4170  31.9960  32.2872
    33.9562  35.3382  36.0784  36.2235  37.4465  37.7945  38.9488  38.9519
    39.8750  40.3991  40.4578  40.9841  41.3700  42.7767  43.0918  44.0929
    44.7953  45.3143  45.5853  46.0559  46.6766  46.9485  47.2752  47.6908
    48.5039  48.9298  49.0697  49.5383  50.0195  51.4793  51.9288  52.4636
    52.8913

          k = 0.2034 0.4068 0.3000 (  1948 PWs)   bands (ev):

   -37.0012 -37.0007 -36.9145 -36.9125 -36.8099 -36.8094  -8.1067  -7.8340
    -7.4213  -7.3285   3.5006   4.0061   4.2347   4.3264   5.4087   5.6826
     6.1195   6.2636   6.7343   7.0211   7.7502   8.0721   9.2867   9.3434
     9.5608   9.8770  10.3706  10.6008  12.3293  12.6395  13.3214  13.8453
    19.3257  20.4803  22.0617  22.8781  24.2259  24.5457  25.8171  26.0854
    27.0306  27.8526  28.6619  29.6623  30.9339  32.3144  33.2661  33.6168
    34.7859  34.8835  36.2526  36.5311  37.1136  37.7936  38.9432  38.9469
    39.0844  39.6624  40.5787  41.1964  42.7052  43.1307  43.4082  44.0213
    45.1453  45.4491  45.7387  46.1738  46.5850  46.9446  47.4206  48.0311
    48.5531  48.9840  49.2374  50.3946  50.7261  51.7995  51.8999  52.4419
    53.2824

          k = 0.2034 0.4068 0.6000 (  1950 PWs)   bands (ev):

   -36.9996 -36.9982 -36.9662 -36.9641 -36.8016 -36.8014  -7.7642  -7.6712
    -7.4667  -7.4331   3.9709   4.0512   4.3023   4.4068   5.0714   5.5778
     6.2026   6.4589   6.8417   7.1961   7.6901   8.4697   8.6784   9.1408
     9.2580   9.4946  10.6403  10.9309  11.2967  11.8844  13.5745  14.0887
    20.6408  21.4690  22.5322  23.0368  23.6021  24.0432  25.1445  25.9507
    26.6576  27.1622  27.9086  29.0651  30.8767  32.1148  33.5222  33.8588
    34.1370  35.3335  37.2195  37.3998  37.5530  38.2871  38.9433  38.9472
    39.6834  40.4307  40.7829  41.0227  41.7837  42.5225  43.4238  43.9507
    44.7654  45.3201  45.7160  46.3714  46.9146  47.5935  48.0077  48.5416
    49.1333  49.6953  50.0693  50.7561  51.8457  52.0891  52.5900  53.2823
    53.5349

          k = 0.4068 0.4068 0.0000 (  1940 PWs)   bands (ev):

   -37.0039 -37.0034 -36.8810 -36.8795 -36.8142 -36.8136  -8.2630  -8.1479
    -7.2433  -7.1899   2.8908   3.1375   4.1541   4.1910   5.9088   6.4432
     6.5043   7.2002   7.2457   7.6299   7.6483   8.3446   8.4237   8.5055
     8.9536   9.0031  10.7680  10.9199  12.4732  12.9221  13.7553  13.8724
    19.5135  20.3218  20.8072  21.5617  24.2779  24.4316  26.1442  26.6803
    29.7496  29.7575  29.9797  30.2714  30.3393  31.0727  31.4629  31.6772
    34.7510  34.7979  35.2022  36.8613  37.5220  38.2879  38.9494  38.9540
    39.5807  40.2262  40.6723  41.4765  41.4841  41.7243  42.2876  43.2282
    45.6226  45.9692  46.0160  46.2066  47.7991  48.1168  48.3505  48.5594
    48.7312  48.8354  49.3013  49.7527  50.3624  50.5392  51.5669  51.7845
    52.7573

          k = 0.4068 0.4068 0.3000 (  1957 PWs)   bands (ev):

   -37.0015 -37.0014 -36.9141 -36.9132 -36.8097 -36.8092  -8.0431  -7.9424
    -7.3618  -7.3167   3.2929   3.5086   4.1354   4.1957   5.9389   6.2554
     6.2967   6.7331   7.0430   7.2126   7.2921   7.7058   8.9538   9.3619
     9.4358   9.4852  10.5178  10.5880  12.6537  12.8542  13.2471  13.4407
    20.0789  20.8558  21.4031  22.0708  24.2622  24.4536  25.8549  26.2648
    26.5841  27.1039  29.7328  30.7109  30.9342  32.5901  32.6352  32.8130
    35.1325  35.4199  36.2112  37.0124  37.0516  37.1879  38.9391  38.9467
    39.2776  39.4162  40.5398  41.7188  41.7497  42.8212  43.6756  43.8281
    45.1812  45.7012  45.9944  46.6305  47.1504  47.5274  48.1345  48.2081
    48.9635  48.9927  49.7746  50.2371  50.3111  51.0109  51.2779  51.8121
    51.9483

          k = 0.4068 0.4068 0.6000 (  1976 PWs)   bands (ev):

   -36.9984 -36.9973 -36.9677 -36.9663 -36.8020 -36.8019  -7.6906  -7.6372
    -7.5160  -7.4816   4.0236   4.1013   4.3349   4.3480   4.9201   5.2187
     6.0739   6.2207   7.0976   7.2684   8.0615   8.3847   9.0838   9.1487
     9.3309   9.9134  10.1719  10.6021  11.8827  12.5428  12.9761  13.5925
    20.8952  21.3435  22.1665  22.4789  23.5440  23.5480  24.5246  24.9420
    27.7548  27.8073  29.2814  29.7588  31.3970  32.7732  33.0261  33.0764
    33.5322  34.4455  37.5427  37.5628  37.7836  38.3982  38.9443  38.9524
    39.9459  40.5981  40.8306  41.8510  42.5730  43.0155  43.5900  43.9916
    44.3406  44.6760  45.6870  46.4288  46.8818  47.4462  47.7335  48.5220
    48.5668  49.2253  49.7227  50.1355  50.6518  50.8890  51.9594  52.6201
    53.7765

          k =-0.2034 0.2034 0.0000 (  1937 PWs)   bands (ev):

   -37.0037 -37.0026 -36.8835 -36.8768 -36.8150 -36.8140  -8.5843  -7.8304
    -7.2943  -7.1262   2.8855   3.7314   4.1876   4.2931   4.7744   5.5518
     6.6911   6.7475   7.7261   7.8677   7.9002   8.4564   8.4956   9.0593
     9.4565   9.4845   9.8823  11.1202  11.5823  13.5573  13.8801  14.3388
    17.4144  20.4499  20.4955  23.0808  24.1378  24.8700  25.8000  27.3637
    28.6345  28.8155  29.3558  30.3265  31.3779  31.6464  32.2670  33.0812
    33.6925  35.1204  36.8510  37.1007  37.6007  38.7731  38.9321  38.9830
    39.1121  39.2769  39.8818  40.2435  41.1358  41.8232  43.2475  43.4674
    44.1191  44.8627  45.2455  45.5146  46.0916  46.5766  47.5573  48.3759
    48.5451  48.6084  49.3594  50.0686  50.7501  51.7907  51.9399  52.7904
    53.0775

          k =-0.2034 0.2034-0.3000 (  1944 PWs)   bands (ev):

   -37.0009 -37.0006 -36.9162 -36.9110 -36.8097 -36.8093  -8.3252  -7.6606
    -7.4194  -7.2593   3.2831   3.9777   4.2235   4.4933   5.2408   5.4187
     6.0992   6.4232   6.9178   7.4266   7.7597   8.3644   9.0121   9.0931
     9.6020   9.9085  10.2479  10.8623  11.9982  12.6462  13.2328  14.2132
    18.3502  21.4033  21.4959  23.4253  24.3857  24.4437  25.6724  26.2952
    27.0301  28.0867  28.4304  29.5710  31.4861  32.0190  33.3071  33.5301
    34.3558  35.2092  36.7013  36.9161  37.3466  37.6621  38.7503  38.9461
    38.9533  39.5777  40.6378  40.9699  42.6769  42.7891  42.8620  43.4726
    44.6541  44.6923  45.4445  46.1115  46.5530  47.1056  47.1203  47.6164
    47.8671  49.0838  49.5175  50.9777  51.2162  52.4395  52.5835  52.8894
    53.5068

          k =-0.2034 0.2034-0.6000 (  1948 PWs)   bands (ev):

   -36.9997 -36.9967 -36.9674 -36.9638 -36.8016 -36.8013  -7.8455  -7.6138
    -7.4675  -7.4138   3.9153   4.1282   4.3015   4.5825   5.0262   5.8672
     6.0172   6.4424   6.7035   7.0668   7.4509   8.0131   9.0317   9.0440
     9.3180  10.0825  10.4313  11.0647  11.2162  12.5432  12.7727  14.0238
    20.1920  22.0921  22.7516  23.3426  24.0436  24.0730  25.3544  26.0040
    26.3787  27.0324  27.5391  28.8099  30.6831  31.5483  33.5925  33.7535
    34.5366  35.9795  36.8605  37.7187  38.0061  38.1038  38.9415  38.9482
    39.1372  39.7780  40.4127  40.7837  42.3064  42.8115  42.9023  43.6224
    45.0880  45.1393  46.2585  46.2933  46.5104  47.6519  47.9782  48.4990
    49.0270  49.9717  50.2301  50.3133  51.4420  51.8328  52.7584  53.0685
    53.5258

          k =-0.2034 0.4068 0.0000 (  1944 PWs)   bands (ev):

   -37.0034 -37.0028 -36.8817 -36.8788 -36.8151 -36.8143  -8.3339  -8.0276
    -7.3097  -7.2078   3.1335   3.7030   4.2082   4.2734   5.3676   5.6300
     6.2199   6.8140   6.8770   7.2714   7.9973   8.4920   8.9414   9.0131
     9.3515   9.4514  10.3821  10.8290  12.4747  13.5365  13.5551  13.7602
    18.5709  19.7504  21.2147  22.2357  24.4406  24.7519  25.8294  26.8308
    29.3696  29.5461  29.7949  30.0063  30.2945  31.4171  31.9963  32.2870
    33.9567  35.3378  36.0777  36.2236  37.4467  37.7942  38.9487  38.9519
    39.8747  40.3989  40.4578  40.9844  41.3694  42.7773  43.0919  44.0929
    44.7955  45.3142  45.5861  46.0563  46.6769  46.9491  47.2751  47.6909
    48.5036  48.9291  49.0694  49.5380  50.0194  51.4794  51.9287  52.4638
    52.8904

          k =-0.2034 0.4068-0.3000 (  1948 PWs)   bands (ev):

   -37.0011 -37.0008 -36.9144 -36.9125 -36.8098 -36.8095  -8.1064  -7.8343
    -7.4215  -7.3282   3.5011   4.0057   4.2349   4.3261   5.4085   5.6826
     6.1198   6.2634   6.7341   7.0212   7.7503   8.0721   9.2867   9.3434
     9.5608   9.8771  10.3706  10.6008  12.3295  12.6392  13.3212  13.8454
    19.3258  20.4802  22.0615  22.8784  24.2257  24.5460  25.8170  26.0853
    27.0305  27.8527  28.6620  29.6621  30.9338  32.3146  33.2661  33.6169
    34.7857  34.8839  36.2524  36.5307  37.1131  37.7939  38.9432  38.9470
    39.0843  39.6626  40.5788  41.1963  42.7053  43.1306  43.4083  44.0216
    45.1450  45.4489  45.7392  46.1744  46.5852  46.9443  47.4203  48.0310
    48.5532  48.9838  49.2373  50.3945  50.7264  51.8000  51.9000  52.4417
    53.2824

          k =-0.2034 0.4068-0.6000 (  1950 PWs)   bands (ev):

   -36.9997 -36.9980 -36.9661 -36.9641 -36.8017 -36.8014  -7.7642  -7.6712
    -7.4664  -7.4333   3.9708   4.0514   4.3020   4.4070   5.0716   5.5776
     6.2026   6.4589   6.8420   7.1959   7.6901   8.4696   8.6783   9.1408
     9.2580   9.4945  10.6402  10.9310  11.2969  11.8842  13.5743  14.0889
    20.6408  21.4690  22.5322  23.0369  23.6019  24.0434  25.1445  25.9508
    26.6577  27.1621  27.9086  29.0649  30.8768  32.1148  33.5219  33.8586
    34.1368  35.3339  37.2198  37.3993  37.5536  38.2867  38.9432  38.9473
    39.6835  40.4307  40.7829  41.0226  41.7840  42.5219  43.4238  43.9507
    44.7655  45.3196  45.7160  46.3715  46.9145  47.5933  48.0079  48.5416
    49.1333  49.6948  50.0694  50.7562  51.8462  52.0886  52.5901  53.2829
    53.5359

          k =-0.4068 0.4068 0.0000 (  1940 PWs)   bands (ev):

   -37.0038 -37.0035 -36.8810 -36.8795 -36.8141 -36.8137  -8.2626  -8.1483
    -7.2436  -7.1897   2.8913   3.1370   4.1545   4.1906   5.9089   6.4431
     6.5040   7.2003   7.2453   7.6300   7.6486   8.3446   8.4237   8.5055
     8.9537   9.0032  10.7681  10.9197  12.4731  12.9222  13.7556  13.8721
    19.5137  20.3217  20.8069  21.5619  24.2783  24.4312  26.1448  26.6796
    29.7496  29.7573  29.9798  30.2718  30.3394  31.0727  31.4634  31.6765
    34.7505  34.7990  35.2025  36.8602  37.5215  38.2880  38.9493  38.9541
    39.5801  40.2269  40.6724  41.4763  41.4838  41.7246  42.2878  43.2282
    45.6233  45.9691  46.0158  46.2067  47.7997  48.1181  48.3493  48.5590
    48.7310  48.8358  49.3005  49.7528  50.3624  50.5397  51.5676  51.7841
    52.7561

          k =-0.4068 0.4068-0.3000 (  1957 PWs)   bands (ev):

   -37.0015 -37.0014 -36.9140 -36.9132 -36.8096 -36.8093  -8.0427  -7.9428
    -7.3621  -7.3164   3.2934   3.5080   4.1357   4.1954   5.9386   6.2555
     6.2969   6.7328   7.0429   7.2126   7.2922   7.7059   8.9538   9.3619
     9.4358   9.4853  10.5178  10.5879  12.6539  12.8540  13.2468  13.4409
    20.0791  20.8557  21.4028  22.0710  24.2621  24.4537  25.8550  26.2645
    26.5840  27.1041  29.7329  30.7103  30.9345  32.5900  32.6353  32.8132
    35.1324  35.4207  36.2105  37.0117  37.0518  37.1880  38.9392  38.9466
    39.2774  39.4163  40.5397  41.7185  41.7500  42.8216  43.6762  43.8276
    45.1816  45.7011  45.9940  46.6316  47.1502  47.5264  48.1344  48.2082
    48.9633  48.9925  49.7748  50.2369  50.3115  51.0106  51.2789  51.8126
    51.9478

          k =-0.4068 0.4068-0.6000 (  1976 PWs)   bands (ev):

   -36.9986 -36.9972 -36.9676 -36.9664 -36.8020 -36.8019  -7.6906  -7.6371
    -7.5157  -7.4819   4.0233   4.1018   4.3350   4.3477   4.9202   5.2186
     6.0740   6.2206   7.0980   7.2680   8.0616   8.3846   9.0838   9.1486
     9.3309   9.9132  10.1719  10.6022  11.8829  12.5426  12.9757  13.5927
    20.8951  21.3435  22.1665  22.4789  23.5442  23.5478  24.5245  24.9422
    27.7547  27.8075  29.2813  29.7585  31.3975  32.7733  33.0256  33.0765
    33.5322  34.4456  37.5432  37.5622  37.7835  38.3984  38.9443  38.9524
    39.9459  40.5980  40.8302  41.8512  42.5723  43.0163  43.5911  43.9916
    44.3394  44.6764  45.6865  46.4284  46.8821  47.4462  47.7331  48.5224
    48.5668  49.2247  49.7224  50.1350  50.6523  50.8902  51.9597  52.6198
    53.7772

     the Fermi energy is    10.6361 ev

!    total energy              =    -469.81516862 Ry
     Harris-Foulkes estimate   =    -469.81516822 Ry
     estimated scf accuracy    <          3.4E-09 Ry

     The total energy is the sum of the following terms:

     one-electron contribution =    -147.02649064 Ry
     hartree contribution      =     107.85856155 Ry
     xc contribution           =     -86.84360497 Ry
     ewald contribution        =    -343.80313552 Ry
     smearing contrib. (-TS)   =      -0.00049903 Ry

     total magnetization       =     0.00 Bohr mag/cell
     absolute magnetization    =     0.00 Bohr mag/cell

     convergence has been achieved in  12 iterations

     Forces acting on atoms (Ry/au):


     negative rho (up, down):  0.868E-01 0.868E-01
     atom    1 type  1   force =     0.00000000    0.00000000    0.00000000
     atom    2 type  1   force =     0.00000000    0.00000000    0.00000000
     atom    3 type  2   force =     0.00001834    0.00001834    0.00000000
     atom    4 type  2   force =    -0.00001834   -0.00001834    0.00000000
     atom    5 type  2   force =     0.00002163   -0.00002163    0.00000000
     atom    6 type  2   force =    -0.00002163    0.00002163    0.00000000

     Total force =     0.000057     Total SCF correction =     0.000079
     SCF correction compared to forces is large: reduce conv_thr to get better values


     entering subroutine stress ...


     negative rho (up, down):  0.868E-01 0.868E-01
          total   stress  (Ry/bohr**3)                   (kbar)     P= -141.55
  -0.00097301  -0.00000035   0.00000000       -143.14     -0.05      0.00
  -0.00000035  -0.00097301   0.00000000         -0.05   -143.14      0.00
   0.00000000   0.00000000  -0.00094068          0.00      0.00   -138.38


     init_run     :     27.03s CPU     27.54s WALL (       2 calls)
     electrons    :   1961.72s CPU   2022.85s WALL (       7 calls)
     update_pot   :     23.09s CPU     23.28s WALL (       5 calls)
     forces       :     70.65s CPU     70.80s WALL (       7 calls)
     stress       :    187.01s CPU    187.32s WALL (       7 calls)

     Called by init_run:
     wfcinit      :     16.89s CPU     17.15s WALL (       2 calls)
     potinit      :      1.97s CPU      1.99s WALL (       2 calls)

     Called by electrons:
     c_bands      :   1567.64s CPU   1621.29s WALL (      57 calls)
     sum_band     :    281.44s CPU    284.77s WALL (      57 calls)
     v_of_rho     :     15.03s CPU     15.13s WALL (      61 calls)
     newd         :    107.54s CPU    107.68s WALL (      61 calls)
     mix_rho      :      1.73s CPU      1.74s WALL (      57 calls)

     Called by c_bands:
     init_us_2    :      9.12s CPU      9.20s WALL (    7020 calls)
     cegterg      :   1533.81s CPU   1587.26s WALL (    3078 calls)

     Called by *egterg:
     h_psi        :    755.02s CPU    776.90s WALL (    8447 calls)
     s_psi        :     57.37s CPU     57.49s WALL (    8447 calls)
     g_psi        :      4.21s CPU      4.25s WALL (    5261 calls)
     cdiaghg      :    381.62s CPU    382.39s WALL (    7907 calls)

     Called by h_psi:
     add_vuspsi   :     58.10s CPU     58.42s WALL (    8447 calls)

     General routines
     calbec       :     97.38s CPU    106.52s WALL (   12281 calls)
     fft          :     14.17s CPU     14.24s WALL (    2153 calls)
     ffts         :      0.18s CPU      0.18s WALL (     236 calls)
     fftw         :    585.80s CPU    586.39s WALL ( 1391438 calls)
     interpolate  :      1.80s CPU      1.81s WALL (     236 calls)

     Parallel routines
     fft_scatter  :    208.57s CPU    212.58s WALL ( 1393827 calls)

     PWSCF        : 37m58.83s CPU    39m 1.30s WALL


   This run was terminated on:  16:50:26  24Jan2014            

=------------------------------------------------------------------------------=
   JOB DONE.
=------------------------------------------------------------------------------=
