
     Program PWSCF v.5.0.2 (svn rev. 9656) starts on 10May2014 at 18:24:44 

     This program is part of the open-source Quantum ESPRESSO suite
     for quantum simulation of materials; please cite
         "P. Giannozzi et al., J. Phys.:Condens. Matter 21 395502 (2009);
          URL http://www.quantum-espresso.org", 
     in publications or presentations arising from this work. More details at
     http://www.quantum-espresso.org/quote.php

     Parallel version (MPI), running on    32 processors
     K-points division:     npool     =       4
     R & G space division:  proc/nbgrp/npool/nimage =       8

     Current dimensions of program PWSCF are:
     Max number of different atomic species (ntypx) = 10
     Max number of k-points (npk) =  40000
     Max angular momentum in pseudopotentials (lmaxx) =  3
     Reading input from pwscf.in
Warning: card &CELL ignored
Warning: card / ignored

     Subspace diagonalization in iterative solution of the eigenvalue problem:
     a serial algorithm will be used


     Parallelization info
     --------------------
     sticks:   dense  smooth     PW     G-vecs:    dense   smooth      PW
     Min         637     204     58               204603    37010    5550
     Max         638     205     59               204607    37048    5558
     Sum        5097    1635    467              1636833   296211   44427



     bravais-lattice index     =            0
     lattice parameter (alat)  =      10.9604  a.u.
     unit-cell volume          =    8672.0454 (a.u.)^3
     number of atoms/cell      =           49
     number of atomic types    =            2
     number of electrons       =       422.00 (up: 226.00, down: 196.00)
     number of Kohn-Sham states=          609
     kinetic-energy cutoff     =      40.0000  Ry
     charge density cutoff     =     500.0000  Ry
     convergence threshold     =      1.0E-06
     mixing beta               =       0.3000
     number of iterations used =            8  plain     mixing
     Exchange-correlation      = SLA  PW   PBE  PBE ( 1 4 3 4 0)
     EXX-fraction              =        0.00
     nstep                     =           50


     celldm(1)=  10.960412  celldm(2)=   0.000000  celldm(3)=   0.000000
     celldm(4)=   0.000000  celldm(5)=   0.000000  celldm(6)=   0.000000

     crystal axes: (cart. coord. in units of alat)
               a(1) = (   1.000000   0.000000   0.000000 )  
               a(2) = (   0.000000   1.067975   0.000000 )  
               a(3) = (   0.000000   0.000000   6.167084 )  

     reciprocal axes: (cart. coord. in units 2 pi/alat)
               b(1) = (  1.000000  0.000000  0.000000 )  
               b(2) = (  0.000000  0.936351  0.000000 )  
               b(3) = (  0.000000  0.000000  0.162151 )  


     PseudoPot. # 1 for O  read from file:
     /home/camp/zhonxu/pseudo/o_pbe_v1.01.uspp.F.UPF
     MD5 check sum: 2bcb18d16ea4b960afae9ec6d52f22d2
     Pseudo is Ultrasoft + core correction, Zval =  6.0
     Generated by new atomic code, or converted to UPF format
     Using radial grid of  737 points,  5 beta functions with: 
                l(1) =   0
                l(2) =   0
                l(3) =   1
                l(4) =   1
                l(5) =   2
     Q(r) pseudized with  8 coefficients,  rinner =    0.900   0.900   0.900
                                                       0.900   0.900

     PseudoPot. # 2 for Cr read from file:
     /home/camp/zhonxu/pseudo/cr_pbe_v1.uspp.F.UPF
     MD5 check sum: 68b6f918d1762dccfb11451fe85b0e0e
     Pseudo is Ultrasoft + core correction, Zval = 14.0
     Generated by new atomic code, or converted to UPF format
     Using radial grid of  857 points,  6 beta functions with: 
                l(1) =   0
                l(2) =   0
                l(3) =   1
                l(4) =   1
                l(5) =   2
                l(6) =   2
     Q(r) pseudized with  6 coefficients,  rinner =    1.000   1.000   1.000
                                                       1.000   1.000

     atomic species   valence    mass     pseudopotential
        O0             6.00    15.99940     O ( 1.00)
        Cr1           14.00    51.99600     Cr( 1.00)

     Starting magnetic structure 
     atomic species   magnetization
        O0           0.000
        Cr1          0.600

      4 Sym. Ops. (no inversion) found



   Cartesian axes

     site n.     atom                  positions (alat units)
         1           O0  tau(   1) = (   0.0000000   0.5339875   2.0689949  )
         2           Cr1 tau(   2) = (   0.2500000   0.5339875   2.2825610  )
         3           Cr1 tau(   3) = (   0.0000000   0.0000000   2.2825610  )
         4           O0  tau(   4) = (   0.2500000   0.8543801   2.2825610  )
         5           O0  tau(   5) = (   0.2500000   0.2135950   2.2825610  )
         6           O0  tau(   6) = (   0.0000000   0.5339875   2.4961271  )
         7           O0  tau(   7) = (   0.0000000   0.0000000   2.6029410  )
         8           Cr1 tau(   8) = (   0.2500000   0.0000000   2.8165688  )
         9           Cr1 tau(   9) = (   0.0000000   0.5339875   2.8165688  )
        10           O0  tau(  10) = (   0.2500000   0.7475825   2.8165688  )
        11           O0  tau(  11) = (   0.2500000   0.3203925   2.8165688  )
        12           O0  tau(  12) = (   0.0000000   0.0000000   3.0301349  )
        13           O0  tau(  13) = (   0.0000000   0.5339875   3.1455210  )
        14           Cr1 tau(  14) = (   0.2589800   0.5339875   3.3570520  )
        15           Cr1 tau(  15) = (   0.0000000   0.0000000   3.3665493  )
        16           O0  tau(  16) = (   0.2498800   0.8581180   3.3631574  )
        17           O0  tau(  17) = (   0.2498800   0.2098571   3.3631574  )
        18           O0  tau(  18) = (   0.0000000   0.5339875   3.5722215  )
        19           O0  tau(  19) = (   0.0000000   0.0000000   3.6990168  )
        20           Cr1 tau(  20) = (   0.2457400   0.0000000   3.9332426  )
        21           Cr1 tau(  21) = (   0.0000000   0.5339875   3.8697217  )
        22           O0  tau(  22) = (   0.2479400   0.7357280   3.9308991  )
        23           O0  tau(  23) = (   0.2479400   0.3322470   3.9308991  )
        24           O0  tau(  24) = (   0.0000000   0.0000000   4.1217087  )
        25           O0  tau(  25) = (   0.5000000   0.5339875   2.0689949  )
        26           Cr1 tau(  26) = (   0.7500000   0.5339875   2.2825610  )
        27           Cr1 tau(  27) = (   0.5000000   0.0000000   2.2825610  )
        28           O0  tau(  28) = (   0.7500000   0.8543801   2.2825610  )
        29           O0  tau(  29) = (   0.7500000   0.2135950   2.2825610  )
        30           O0  tau(  30) = (   0.5000000   0.5339875   2.4961271  )
        31           O0  tau(  31) = (   0.5000000   0.0000000   2.6029410  )
        32           Cr1 tau(  32) = (   0.7500000   0.0000000   2.8165688  )
        33           Cr1 tau(  33) = (   0.5000000   0.5339875   2.8165688  )
        34           O0  tau(  34) = (   0.7500000   0.7475825   2.8165688  )
        35           O0  tau(  35) = (   0.7500000   0.3203925   2.8165688  )
        36           O0  tau(  36) = (   0.5000000   0.0000000   3.0301349  )
        37           O0  tau(  37) = (   0.5000000   0.5339875   3.1432392  )
        38           Cr1 tau(  38) = (   0.7410200   0.5339875   3.3570520  )
        39           Cr1 tau(  39) = (   0.5000000   0.0000000   3.3785751  )
        40           O0  tau(  40) = (   0.7501200   0.8581180   3.3631574  )
        41           O0  tau(  41) = (   0.7501200   0.2098571   3.3631574  )
        42           O0  tau(  42) = (   0.5000000   0.5339875   3.5636493  )
        43           O0  tau(  43) = (   0.5000000   0.0000000   3.6946998  )
        44           Cr1 tau(  44) = (   0.7542600   0.0000000   3.9332426  )
        45           Cr1 tau(  45) = (   0.5000000   0.5339875   4.0027457  )
        46           O0  tau(  46) = (   0.7520600   0.7357280   3.9308991  )
        47           O0  tau(  47) = (   0.7520600   0.3322470   3.9308991  )
        48           O0  tau(  48) = (   0.5000000   0.0000000   4.1085728  )
        49           O0  tau(  49) = (   0.5000000   0.5339875   4.2725556  )

     number of k points=    18  Methfessel-Paxton smearing, width (Ry)=  0.0100
                       cart. coord. in units 2pi/alat
        k(    1) = (   0.0000000   0.0000000   0.0000000), wk =   0.0625000
        k(    2) = (   0.0000000   0.2340879   0.0000000), wk =   0.1250000
        k(    3) = (   0.0000000  -0.4681757   0.0000000), wk =   0.0625000
        k(    4) = (   0.2500000   0.0000000   0.0000000), wk =   0.1250000
        k(    5) = (   0.2500000   0.2340879   0.0000000), wk =   0.2500000
        k(    6) = (   0.2500000  -0.4681757   0.0000000), wk =   0.1250000
        k(    7) = (  -0.5000000   0.0000000   0.0000000), wk =   0.0625000
        k(    8) = (  -0.5000000   0.2340879   0.0000000), wk =   0.1250000
        k(    9) = (  -0.5000000  -0.4681757   0.0000000), wk =   0.0625000
        k(   10) = (   0.0000000   0.0000000   0.0000000), wk =   0.0625000
        k(   11) = (   0.0000000   0.2340879   0.0000000), wk =   0.1250000
        k(   12) = (   0.0000000  -0.4681757   0.0000000), wk =   0.0625000
        k(   13) = (   0.2500000   0.0000000   0.0000000), wk =   0.1250000
        k(   14) = (   0.2500000   0.2340879   0.0000000), wk =   0.2500000
        k(   15) = (   0.2500000  -0.4681757   0.0000000), wk =   0.1250000
        k(   16) = (  -0.5000000   0.0000000   0.0000000), wk =   0.0625000
        k(   17) = (  -0.5000000   0.2340879   0.0000000), wk =   0.1250000
        k(   18) = (  -0.5000000  -0.4681757   0.0000000), wk =   0.0625000

     Dense  grid:  1636833 G-vectors     FFT dimensions: (  80,  90, 486)

     Smooth grid:   296211 G-vectors     FFT dimensions: (  45,  48, 288)

     Largest allocated arrays     est. size (Mb)     dimensions
        Kohn-Sham Wavefunctions        43.62 Mb     (   4694,  609)
        NL pseudopotentials            51.35 Mb     (   4694,  717)
        Each V/rho on FFT grid         13.40 Mb     ( 439200,   2)
        Each G-vector array             1.56 Mb     ( 204603)
        G-vector shells                 0.73 Mb     (  95120)
     Largest temporary arrays     est. size (Mb)     dimensions
        Auxiliary wavefunctions       174.48 Mb     (   4694, 2436)
        Each subspace H/S matrix       90.55 Mb     (2436,2436)
        Each <psi_i|beta_j> matrix      6.66 Mb     (    717,  609)
        Arrays for rho mixing          53.61 Mb     ( 439200,   8)

     Check: negative/imaginary core charge=   -0.000015    0.000000

     Initial potential from superposition of free atoms
     Check: negative starting charge=(component1):   -0.002268
     Check: negative starting charge=(component2):   -0.000542

     starting charge  405.99976, renormalised to  422.00000

     negative rho (up, down):  0.236E-02 0.563E-03
     Starting wfc are  292 randomized atomic wfcs

     total cpu time spent up to now is      151.7 secs

     Self-consistent Calculation

     iteration #  1     ecut=    40.00 Ry     beta=0.30
     Davidson diagonalization with overlap
     ethr =  1.00E-02,  avg # of iterations =  5.3

     negative rho (up, down):  0.265E-02 0.906E-03

     total cpu time spent up to now is     1365.6 secs

     total energy              =   -3838.56552982 Ry
     Harris-Foulkes estimate   =   -3874.57320387 Ry
     estimated scf accuracy    <      95.67647807 Ry

     total magnetization       =    30.00 Bohr mag/cell
     absolute magnetization    =    46.83 Bohr mag/cell

     iteration #  2     ecut=    40.00 Ry     beta=0.30
     Davidson diagonalization with overlap
     ethr =  1.00E-02,  avg # of iterations =  5.2

     negative rho (up, down):  0.724E-02 0.764E-02

     total cpu time spent up to now is     2480.0 secs

     total energy              =   -3614.79515512 Ry
     Harris-Foulkes estimate   =   -4291.48295002 Ry
     estimated scf accuracy    <   21011.51633151 Ry

     total magnetization       =    30.00 Bohr mag/cell
     absolute magnetization    =    30.95 Bohr mag/cell

     iteration #  3     ecut=    40.00 Ry     beta=0.30
     Davidson diagonalization with overlap
     ethr =  1.00E-02,  avg # of iterations =  6.0

     negative rho (up, down):  0.108E-01 0.109E-01

     total cpu time spent up to now is     3518.0 secs

     total energy              =   -3862.28012249 Ry
     Harris-Foulkes estimate   =   -3883.45225982 Ry
     estimated scf accuracy    <     298.35454231 Ry

     total magnetization       =    30.00 Bohr mag/cell
     absolute magnetization    =    47.41 Bohr mag/cell

     iteration #  4     ecut=    40.00 Ry     beta=0.30
     Davidson diagonalization with overlap
     ethr =  1.00E-02,  avg # of iterations =  3.6

     negative rho (up, down):  0.123E-01 0.988E-02

     total cpu time spent up to now is     3977.3 secs

     total energy              =   -3869.41699359 Ry
     Harris-Foulkes estimate   =   -3881.83107826 Ry
     estimated scf accuracy    <     226.73448556 Ry

     total magnetization       =    30.00 Bohr mag/cell
     absolute magnetization    =    48.02 Bohr mag/cell

     iteration #  5     ecut=    40.00 Ry     beta=0.30
     Davidson diagonalization with overlap
     ethr =  1.00E-02,  avg # of iterations =  2.1

     negative rho (up, down):  0.951E-02 0.715E-02

     total cpu time spent up to now is     4354.8 secs

     total energy              =   -3877.98750926 Ry
     Harris-Foulkes estimate   =   -3878.62742379 Ry
     estimated scf accuracy    <      24.28679261 Ry

     total magnetization       =    30.00 Bohr mag/cell
     absolute magnetization    =    47.47 Bohr mag/cell

     iteration #  6     ecut=    40.00 Ry     beta=0.30
     Davidson diagonalization with overlap
     ethr =  5.76E-03,  avg # of iterations =  1.1

     negative rho (up, down):  0.566E-02 0.421E-02

     total cpu time spent up to now is     4704.3 secs

     total energy              =   -3879.33579909 Ry
     Harris-Foulkes estimate   =   -3879.80403222 Ry
     estimated scf accuracy    <      12.81860400 Ry

     total magnetization       =    30.00 Bohr mag/cell
     absolute magnetization    =    46.73 Bohr mag/cell

     iteration #  7     ecut=    40.00 Ry     beta=0.30
     Davidson diagonalization with overlap
     ethr =  3.04E-03,  avg # of iterations =  2.0

     negative rho (up, down):  0.613E-02 0.244E-02

     total cpu time spent up to now is     5082.3 secs

     total energy              =   -3879.66515854 Ry
     Harris-Foulkes estimate   =   -3880.97625382 Ry
     estimated scf accuracy    <      19.36977820 Ry

     total magnetization       =    30.00 Bohr mag/cell
     absolute magnetization    =    44.98 Bohr mag/cell

     iteration #  8     ecut=    40.00 Ry     beta=0.30
     Davidson diagonalization with overlap
     ethr =  3.04E-03,  avg # of iterations =  1.2

     negative rho (up, down):  0.507E-02 0.168E-02

     total cpu time spent up to now is     5440.7 secs

     total energy              =   -3880.65667660 Ry
     Harris-Foulkes estimate   =   -3881.00623701 Ry
     estimated scf accuracy    <       6.87041630 Ry

     total magnetization       =    30.00 Bohr mag/cell
     absolute magnetization    =    43.21 Bohr mag/cell

     iteration #  9     ecut=    40.00 Ry     beta=0.30
     Davidson diagonalization with overlap
     ethr =  1.63E-03,  avg # of iterations =  3.4

     negative rho (up, down):  0.526E-02 0.209E-02

     total cpu time spent up to now is     5908.5 secs

     total energy              =   -3880.99063103 Ry
     Harris-Foulkes estimate   =   -3881.11582258 Ry
     estimated scf accuracy    <       2.16857474 Ry

     total magnetization       =    30.00 Bohr mag/cell
     absolute magnetization    =    40.91 Bohr mag/cell

     iteration # 10     ecut=    40.00 Ry     beta=0.30
     Davidson diagonalization with overlap
     ethr =  5.14E-04,  avg # of iterations =  5.6

     negative rho (up, down):  0.498E-02 0.202E-02

     total cpu time spent up to now is     6421.1 secs

     total energy              =   -3881.10511010 Ry
     Harris-Foulkes estimate   =   -3881.16636982 Ry
     estimated scf accuracy    <       0.84989127 Ry

     total magnetization       =    30.00 Bohr mag/cell
     absolute magnetization    =    38.97 Bohr mag/cell

     iteration # 11     ecut=    40.00 Ry     beta=0.30
     Davidson diagonalization with overlap
     ethr =  2.01E-04,  avg # of iterations =  2.3

     negative rho (up, down):  0.485E-02 0.197E-02

     total cpu time spent up to now is     6838.5 secs

     total energy              =   -3881.13718388 Ry
     Harris-Foulkes estimate   =   -3881.15127123 Ry
     estimated scf accuracy    <       0.33623960 Ry

     total magnetization       =    30.00 Bohr mag/cell
     absolute magnetization    =    38.62 Bohr mag/cell

     iteration # 12     ecut=    40.00 Ry     beta=0.30
     Davidson diagonalization with overlap
     ethr =  7.97E-05,  avg # of iterations =  2.6

     negative rho (up, down):  0.485E-02 0.201E-02

     total cpu time spent up to now is     7230.6 secs

     total energy              =   -3881.15107727 Ry
     Harris-Foulkes estimate   =   -3881.15804306 Ry
     estimated scf accuracy    <       0.10713275 Ry

     total magnetization       =    30.00 Bohr mag/cell
     absolute magnetization    =    37.94 Bohr mag/cell

     iteration # 13     ecut=    40.00 Ry     beta=0.30
     Davidson diagonalization with overlap
     ethr =  2.54E-05,  avg # of iterations =  5.7

     negative rho (up, down):  0.508E-02 0.198E-02

     total cpu time spent up to now is     7743.5 secs

     total energy              =   -3881.15014908 Ry
     Harris-Foulkes estimate   =   -3881.17018190 Ry
     estimated scf accuracy    <       0.73802010 Ry

     total magnetization       =    30.00 Bohr mag/cell
     absolute magnetization    =    37.36 Bohr mag/cell

     iteration # 14     ecut=    40.00 Ry     beta=0.30
     Davidson diagonalization with overlap
     ethr =  2.54E-05,  avg # of iterations =  3.8

     negative rho (up, down):  0.522E-02 0.204E-02

     total cpu time spent up to now is     8179.9 secs

     total energy              =   -3881.15718876 Ry
     Harris-Foulkes estimate   =   -3881.16706026 Ry
     estimated scf accuracy    <       0.39664850 Ry

     total magnetization       =    30.00 Bohr mag/cell
     absolute magnetization    =    37.33 Bohr mag/cell

     iteration # 15     ecut=    40.00 Ry     beta=0.30
     Davidson diagonalization with overlap
     ethr =  2.54E-05,  avg # of iterations =  1.1

     negative rho (up, down):  0.497E-02 0.198E-02

     total cpu time spent up to now is     8532.5 secs

     total energy              =   -3881.16691283 Ry
     Harris-Foulkes estimate   =   -3881.16727924 Ry
     estimated scf accuracy    <       0.10434060 Ry

     total magnetization       =    30.00 Bohr mag/cell
     absolute magnetization    =    37.02 Bohr mag/cell

     iteration # 16     ecut=    40.00 Ry     beta=0.30
     Davidson diagonalization with overlap
     ethr =  2.47E-05,  avg # of iterations =  1.0

     negative rho (up, down):  0.534E-02 0.211E-02

     total cpu time spent up to now is     8885.0 secs

     total energy              =   -3881.16997543 Ry
     Harris-Foulkes estimate   =   -3881.17223610 Ry
     estimated scf accuracy    <       0.08711661 Ry

     total magnetization       =    30.00 Bohr mag/cell
     absolute magnetization    =    36.77 Bohr mag/cell

     iteration # 17     ecut=    40.00 Ry     beta=0.30
     Davidson diagonalization with overlap
     ethr =  2.06E-05,  avg # of iterations =  1.9

     negative rho (up, down):  0.543E-02 0.214E-02

     total cpu time spent up to now is     9282.9 secs

     total energy              =   -3881.17195091 Ry
     Harris-Foulkes estimate   =   -3881.17540250 Ry
     estimated scf accuracy    <       0.03445761 Ry

     total magnetization       =    30.00 Bohr mag/cell
     absolute magnetization    =    36.28 Bohr mag/cell

     iteration # 18     ecut=    40.00 Ry     beta=0.30
     Davidson diagonalization with overlap
     ethr =  8.17E-06,  avg # of iterations =  1.9

     negative rho (up, down):  0.611E-02 0.245E-02

     total cpu time spent up to now is     9656.2 secs

     total energy              =   -3881.17461403 Ry
     Harris-Foulkes estimate   =   -3881.17486013 Ry
     estimated scf accuracy    <       0.01793638 Ry

     total magnetization       =    30.00 Bohr mag/cell
     absolute magnetization    =    36.16 Bohr mag/cell

     iteration # 19     ecut=    40.00 Ry     beta=0.30
     Davidson diagonalization with overlap
     ethr =  4.25E-06,  avg # of iterations =  3.9

     negative rho (up, down):  0.654E-02 0.270E-02

     total cpu time spent up to now is    10089.8 secs

     total energy              =   -3881.17576186 Ry
     Harris-Foulkes estimate   =   -3881.17610711 Ry
     estimated scf accuracy    <       0.00788125 Ry

     total magnetization       =    30.00 Bohr mag/cell
     absolute magnetization    =    35.92 Bohr mag/cell

     iteration # 20     ecut=    40.00 Ry     beta=0.30
     Davidson diagonalization with overlap
     ethr =  1.87E-06,  avg # of iterations =  3.1

     negative rho (up, down):  0.669E-02 0.279E-02

     total cpu time spent up to now is    10504.9 secs

     total energy              =   -3881.17632046 Ry
     Harris-Foulkes estimate   =   -3881.17663386 Ry
     estimated scf accuracy    <       0.00656267 Ry

     total magnetization       =    30.00 Bohr mag/cell
     absolute magnetization    =    35.78 Bohr mag/cell

     iteration # 21     ecut=    40.00 Ry     beta=0.30
     Davidson diagonalization with overlap
     ethr =  1.56E-06,  avg # of iterations =  1.0

     negative rho (up, down):  0.712E-02 0.307E-02

     total cpu time spent up to now is    10858.1 secs

     total energy              =   -3881.17682908 Ry
     Harris-Foulkes estimate   =   -3881.17684327 Ry
     estimated scf accuracy    <       0.00398468 Ry

     total magnetization       =    30.00 Bohr mag/cell
     absolute magnetization    =    35.70 Bohr mag/cell

     iteration # 22     ecut=    40.00 Ry     beta=0.30
     Davidson diagonalization with overlap
     ethr =  9.44E-07,  avg # of iterations =  1.0

     negative rho (up, down):  0.697E-02 0.295E-02

     total cpu time spent up to now is    11204.4 secs

     total energy              =   -3881.17716015 Ry
     Harris-Foulkes estimate   =   -3881.17707128 Ry
     estimated scf accuracy    <       0.00192114 Ry

     total magnetization       =    30.00 Bohr mag/cell
     absolute magnetization    =    35.57 Bohr mag/cell

     iteration # 23     ecut=    40.00 Ry     beta=0.30
     Davidson diagonalization with overlap
     ethr =  4.55E-07,  avg # of iterations =  1.0

     negative rho (up, down):  0.709E-02 0.301E-02

     total cpu time spent up to now is    11553.8 secs

     total energy              =   -3881.17724088 Ry
     Harris-Foulkes estimate   =   -3881.17728178 Ry
     estimated scf accuracy    <       0.00093307 Ry

     total magnetization       =    30.00 Bohr mag/cell
     absolute magnetization    =    35.49 Bohr mag/cell

     iteration # 24     ecut=    40.00 Ry     beta=0.30
     Davidson diagonalization with overlap
     ethr =  2.21E-07,  avg # of iterations =  1.0

     negative rho (up, down):  0.699E-02 0.295E-02

     total cpu time spent up to now is    11902.7 secs

     total energy              =   -3881.17726100 Ry
     Harris-Foulkes estimate   =   -3881.17737572 Ry
     estimated scf accuracy    <       0.00409681 Ry

     total magnetization       =    30.00 Bohr mag/cell
     absolute magnetization    =    35.40 Bohr mag/cell

     iteration # 25     ecut=    40.00 Ry     beta=0.30
     Davidson diagonalization with overlap
     ethr =  2.21E-07,  avg # of iterations =  1.0

     negative rho (up, down):  0.692E-02 0.289E-02

     total cpu time spent up to now is    12250.7 secs

     total energy              =   -3881.17728778 Ry
     Harris-Foulkes estimate   =   -3881.17739424 Ry
     estimated scf accuracy    <       0.00492368 Ry

     total magnetization       =    30.00 Bohr mag/cell
     absolute magnetization    =    35.41 Bohr mag/cell

     iteration # 26     ecut=    40.00 Ry     beta=0.30
     Davidson diagonalization with overlap
     ethr =  2.21E-07,  avg # of iterations =  1.0

     negative rho (up, down):  0.673E-02 0.276E-02

     total cpu time spent up to now is    12597.4 secs

     total energy              =   -3881.17735904 Ry
     Harris-Foulkes estimate   =   -3881.17739588 Ry
     estimated scf accuracy    <       0.00068351 Ry

     total magnetization       =    30.00 Bohr mag/cell
     absolute magnetization    =    35.34 Bohr mag/cell

     iteration # 27     ecut=    40.00 Ry     beta=0.30
     Davidson diagonalization with overlap
     ethr =  1.62E-07,  avg # of iterations =  1.0

     negative rho (up, down):  0.667E-02 0.272E-02

     total cpu time spent up to now is    12944.9 secs

     total energy              =   -3881.17737994 Ry
     Harris-Foulkes estimate   =   -3881.17741723 Ry
     estimated scf accuracy    <       0.00102462 Ry

     total magnetization       =    30.00 Bohr mag/cell
     absolute magnetization    =    35.36 Bohr mag/cell

     iteration # 28     ecut=    40.00 Ry     beta=0.30
     Davidson diagonalization with overlap
     ethr =  1.62E-07,  avg # of iterations =  1.0

     negative rho (up, down):  0.657E-02 0.265E-02

     total cpu time spent up to now is    13292.1 secs

     total energy              =   -3881.17740758 Ry
     Harris-Foulkes estimate   =   -3881.17740934 Ry
     estimated scf accuracy    <       0.00019204 Ry

     total magnetization       =    30.00 Bohr mag/cell
     absolute magnetization    =    35.33 Bohr mag/cell

     iteration # 29     ecut=    40.00 Ry     beta=0.30
     Davidson diagonalization with overlap
     ethr =  4.55E-08,  avg # of iterations =  1.0

     negative rho (up, down):  0.647E-02 0.258E-02

     total cpu time spent up to now is    13639.9 secs

     total energy              =   -3881.17741734 Ry
     Harris-Foulkes estimate   =   -3881.17741929 Ry
     estimated scf accuracy    <       0.00017401 Ry

     total magnetization       =    30.00 Bohr mag/cell
     absolute magnetization    =    35.32 Bohr mag/cell

     iteration # 30     ecut=    40.00 Ry     beta=0.30
     Davidson diagonalization with overlap
     ethr =  4.12E-08,  avg # of iterations =  1.0

     negative rho (up, down):  0.639E-02 0.253E-02

     total cpu time spent up to now is    13988.3 secs

     total energy              =   -3881.17742465 Ry
     Harris-Foulkes estimate   =   -3881.17742675 Ry
     estimated scf accuracy    <       0.00009659 Ry

     total magnetization       =    30.00 Bohr mag/cell
     absolute magnetization    =    35.31 Bohr mag/cell

     iteration # 31     ecut=    40.00 Ry     beta=0.30
     Davidson diagonalization with overlap
     ethr =  2.29E-08,  avg # of iterations =  1.0

     negative rho (up, down):  0.632E-02 0.249E-02

     total cpu time spent up to now is    14337.9 secs

     total energy              =   -3881.17743240 Ry
     Harris-Foulkes estimate   =   -3881.17743205 Ry
     estimated scf accuracy    <       0.00004688 Ry

     total magnetization       =    30.00 Bohr mag/cell
     absolute magnetization    =    35.31 Bohr mag/cell

     iteration # 32     ecut=    40.00 Ry     beta=0.30
     Davidson diagonalization with overlap
     ethr =  1.11E-08,  avg # of iterations =  1.0

     negative rho (up, down):  0.625E-02 0.244E-02

     total cpu time spent up to now is    14685.1 secs

     total energy              =   -3881.17743625 Ry
     Harris-Foulkes estimate   =   -3881.17743615 Ry
     estimated scf accuracy    <       0.00006220 Ry

     total magnetization       =    30.00 Bohr mag/cell
     absolute magnetization    =    35.30 Bohr mag/cell

     iteration # 33     ecut=    40.00 Ry     beta=0.30
     Davidson diagonalization with overlap
     ethr =  1.11E-08,  avg # of iterations =  1.0

     negative rho (up, down):  0.621E-02 0.242E-02

     total cpu time spent up to now is    15037.2 secs

     total energy              =   -3881.17744028 Ry
     Harris-Foulkes estimate   =   -3881.17743959 Ry
     estimated scf accuracy    <       0.00003097 Ry

     total magnetization       =    30.00 Bohr mag/cell
     absolute magnetization    =    35.30 Bohr mag/cell

     iteration # 34     ecut=    40.00 Ry     beta=0.30
     Davidson diagonalization with overlap
     ethr =  7.34E-09,  avg # of iterations =  1.0

     negative rho (up, down):  0.616E-02 0.239E-02

     total cpu time spent up to now is    15389.7 secs

     total energy              =   -3881.17744007 Ry
     Harris-Foulkes estimate   =   -3881.17744236 Ry
     estimated scf accuracy    <       0.00002751 Ry

     total magnetization       =    30.00 Bohr mag/cell
     absolute magnetization    =    35.31 Bohr mag/cell

     iteration # 35     ecut=    40.00 Ry     beta=0.30
     Davidson diagonalization with overlap
     ethr =  6.52E-09,  avg # of iterations =  1.0

     negative rho (up, down):  0.619E-02 0.241E-02

     total cpu time spent up to now is    15738.5 secs

     total energy              =   -3881.17743838 Ry
     Harris-Foulkes estimate   =   -3881.17744657 Ry
     estimated scf accuracy    <       0.00053958 Ry

     total magnetization       =    30.00 Bohr mag/cell
     absolute magnetization    =    35.30 Bohr mag/cell

     iteration # 36     ecut=    40.00 Ry     beta=0.30
     Davidson diagonalization with overlap
     ethr =  6.52E-09,  avg # of iterations =  1.0

     negative rho (up, down):  0.617E-02 0.240E-02

     total cpu time spent up to now is    16088.4 secs

     total energy              =   -3881.17744408 Ry
     Harris-Foulkes estimate   =   -3881.17744382 Ry
     estimated scf accuracy    <       0.00001201 Ry

     total magnetization       =    30.00 Bohr mag/cell
     absolute magnetization    =    35.31 Bohr mag/cell

     iteration # 37     ecut=    40.00 Ry     beta=0.30
     Davidson diagonalization with overlap
     ethr =  2.85E-09,  avg # of iterations =  1.0

     negative rho (up, down):  0.615E-02 0.239E-02

     total cpu time spent up to now is    16437.1 secs

     total energy              =   -3881.17744444 Ry
     Harris-Foulkes estimate   =   -3881.17744513 Ry
     estimated scf accuracy    <       0.00001005 Ry

     total magnetization       =    30.00 Bohr mag/cell
     absolute magnetization    =    35.31 Bohr mag/cell

     iteration # 38     ecut=    40.00 Ry     beta=0.30
     Davidson diagonalization with overlap
     ethr =  2.38E-09,  avg # of iterations =  1.0

     negative rho (up, down):  0.616E-02 0.239E-02

     total cpu time spent up to now is    16785.0 secs

     total energy              =   -3881.17744533 Ry
     Harris-Foulkes estimate   =   -3881.17744543 Ry
     estimated scf accuracy    <       0.00001453 Ry

     total magnetization       =    30.00 Bohr mag/cell
     absolute magnetization    =    35.31 Bohr mag/cell

     iteration # 39     ecut=    40.00 Ry     beta=0.30
     Davidson diagonalization with overlap
     ethr =  2.38E-09,  avg # of iterations =  1.0

     negative rho (up, down):  0.615E-02 0.239E-02

     total cpu time spent up to now is    17135.3 secs

     total energy              =   -3881.17744604 Ry
     Harris-Foulkes estimate   =   -3881.17744587 Ry
     estimated scf accuracy    <       0.00000294 Ry

     total magnetization       =    30.00 Bohr mag/cell
     absolute magnetization    =    35.31 Bohr mag/cell

     iteration # 40     ecut=    40.00 Ry     beta=0.30
     Davidson diagonalization with overlap
     ethr =  6.96E-10,  avg # of iterations =  1.0

     negative rho (up, down):  0.615E-02 0.239E-02

     total cpu time spent up to now is    17481.9 secs

     total energy              =   -3881.17744623 Ry
     Harris-Foulkes estimate   =   -3881.17744635 Ry
     estimated scf accuracy    <       0.00000512 Ry

     total magnetization       =    30.00 Bohr mag/cell
     absolute magnetization    =    35.32 Bohr mag/cell

     iteration # 41     ecut=    40.00 Ry     beta=0.30
     Davidson diagonalization with overlap
     ethr =  6.96E-10,  avg # of iterations =  1.0

     negative rho (up, down):  0.616E-02 0.239E-02

     total cpu time spent up to now is    17835.0 secs

     total energy              =   -3881.17744651 Ry
     Harris-Foulkes estimate   =   -3881.17744648 Ry
     estimated scf accuracy    <       0.00000324 Ry

     total magnetization       =    30.00 Bohr mag/cell
     absolute magnetization    =    35.32 Bohr mag/cell

     iteration # 42     ecut=    40.00 Ry     beta=0.30
     Davidson diagonalization with overlap
     ethr =  6.96E-10,  avg # of iterations =  1.0

     negative rho (up, down):  0.617E-02 0.240E-02

     total cpu time spent up to now is    18190.9 secs

     total energy              =   -3881.17744670 Ry
     Harris-Foulkes estimate   =   -3881.17744661 Ry
     estimated scf accuracy    <       0.00000144 Ry

     total magnetization       =    30.00 Bohr mag/cell
     absolute magnetization    =    35.32 Bohr mag/cell

     iteration # 43     ecut=    40.00 Ry     beta=0.30
     Davidson diagonalization with overlap
     ethr =  3.42E-10,  avg # of iterations =  1.0

     negative rho (up, down):  0.617E-02 0.240E-02

     total cpu time spent up to now is    18542.4 secs

     total energy              =   -3881.17744677 Ry
     Harris-Foulkes estimate   =   -3881.17744678 Ry
     estimated scf accuracy    <       0.00000131 Ry

     total magnetization       =    30.00 Bohr mag/cell
     absolute magnetization    =    35.32 Bohr mag/cell

     iteration # 44     ecut=    40.00 Ry     beta=0.30
     Davidson diagonalization with overlap
     ethr =  3.11E-10,  avg # of iterations =  1.0

     negative rho (up, down):  0.619E-02 0.241E-02

     total cpu time spent up to now is    18896.0 secs

     End of self-consistent calculation

 ------ SPIN UP ------------


          k = 0.0000 0.0000 0.0000 ( 36905 PWs)   bands (ev):

   -74.1058 -73.9376 -73.8773 -73.8614 -73.7588 -73.7442 -73.6980 -73.6729
   -73.6564 -73.6508 -73.6466 -73.6425 -73.6363 -73.6230 -73.6124 -73.5952
   -45.6610 -45.4234 -45.3931 -45.3141 -45.3117 -45.2043 -45.1916 -45.1733
   -45.1399 -45.1362 -45.1347 -45.1251 -45.1238 -45.1079 -45.1049 -45.0796
   -45.0678 -45.0662 -45.0631 -45.0592 -45.0580 -45.0516 -45.0417 -45.0411
   -45.0301 -45.0252 -45.0193 -45.0027 -44.9909 -44.9803 -44.9675 -44.9626
   -44.9609 -44.9496 -44.9410 -44.9279 -44.9097 -44.9024 -44.9023 -44.8841
   -44.8771 -44.8750 -44.8592 -44.8463 -44.8327 -44.8317 -44.7994 -44.7893
   -19.9808 -19.7816 -19.5166 -19.2775 -19.0580 -18.8382 -18.6674 -18.5778
   -18.5503 -18.5410 -18.4978 -18.4441 -18.3726 -18.3480 -18.3056 -18.2814
   -18.2577 -18.2094 -18.1810 -18.1532 -18.1070 -18.0988 -18.0913 -18.0353
   -18.0125 -17.9925 -17.9127 -17.9115 -17.7963 -17.6945 -17.5538 -16.9057
   -16.8181  -7.7960  -7.6980  -7.6325  -7.5999  -7.2813  -7.1289  -6.9212
    -6.7968  -6.6855  -6.6356  -6.6007  -6.5946  -6.5837  -6.4734  -6.4581
    -6.4561  -6.4534  -6.3647  -6.3583  -6.2768  -6.2752  -6.2085  -6.1939
    -6.0726  -5.9728  -5.8672  -5.8199  -5.7560  -5.7224  -5.6896  -5.6542
    -5.6186  -5.5685  -5.5616  -5.5027  -5.4730  -5.4309  -5.3300  -5.3044
    -5.2206  -5.1377  -4.9631  -4.9608  -4.7319  -4.5270  -4.5151  -4.4981
    -4.4520  -4.4165  -4.3943  -4.2822  -4.2810  -4.1738  -4.1531  -4.1279
    -4.1251  -4.0571  -3.9521  -3.9062  -3.8466  -3.8462  -3.7612  -3.7168
    -3.7078  -3.6873  -3.5501  -3.5284  -3.5158  -3.4232  -3.3031  -3.2222
    -3.2000  -3.1986  -3.1309  -3.1225  -3.1080  -3.0385  -2.9681  -2.8798
    -2.8218  -2.7187  -2.7125  -2.6752  -2.6465  -2.5613  -2.5010  -2.4680
    -2.3786  -2.2038  -2.1310  -2.0198  -1.9579  -1.9205  -1.9128  -1.8166
    -1.6778  -1.6356  -1.6180  -1.5910  -1.5841  -1.5692  -1.4686  -1.4348
    -1.2966  -1.2740  -1.2286  -1.1686  -1.1614  -1.1470  -1.1248  -1.0832
    -0.9709  -0.8856  -0.8525  -0.8190  -0.7769  -0.7608  -0.7539  -0.7468
    -0.6696  -0.6385  -0.5961  -0.5933  -0.5265  -0.4250  -0.4237  -0.3045
    -0.2369  -0.2195  -0.2115  -0.1234  -0.1217  -0.0408   0.1673   0.2187
     0.2352   0.3975   0.4807   0.5702   0.6257   0.7617   0.7720   0.8068
     0.8170   0.8347   0.8495   0.9081   1.0378   1.0878   1.0910   1.4914
     1.8248   1.9156   2.0083   2.3111   2.4477   2.4684   2.7077   2.7646
     2.8285   2.8301   2.8423   2.8709   2.9100   2.9779   3.0864   3.1552
     3.3644   3.3970   3.5248   3.5767   3.6310   3.6501   3.6610   3.6929
     3.7367   3.7433   3.8910   4.3110   4.7304   5.2851   5.4216   5.7361
     6.1466   6.6520   7.1657   7.7674   7.7703   7.9600   8.6404   8.6752
     8.8545   8.9205   9.0991   9.1533   9.2311   9.3493   9.3984   9.6330
     9.6810   9.7130   9.7942   9.8731   9.8854   9.9770  10.1236  10.1789
    10.1929  10.2205  10.4410  10.5501  10.5832  10.6351  10.6852  10.8063
    10.8258  10.8972  11.0485  11.0905  11.1637  11.1893  11.2285  11.2473
    11.2495  11.2576  11.4513  11.5001  11.7051  11.7320  11.7758  11.7815
    11.8187  11.9491  12.0009  12.0431  12.1125  12.2843  12.3283  12.4942
    12.5451  12.5814  12.6037  12.6629  12.8326  12.9174  12.9407  13.0370
    13.1279  13.1673  13.1969  13.2762  13.4382  13.5378  13.5539  13.6004
    13.6733  13.6899  13.7449  13.7685  13.7744  13.8551  13.8641  13.9070
    13.9092  14.0239  14.0244  14.0342  14.0524  14.1144  14.1337  14.1520
    14.1691  14.3173  14.4134  14.4138  14.4547  14.4708  14.4914  14.5455
    14.5620  14.6106  14.6988  14.7059  14.7723  14.7978  14.8224  14.9394
    14.9688  14.9991  15.0184  15.0391  15.0440  15.1339  15.1903  15.2735
    15.2803  15.3200  15.4258  15.5686  15.6470  15.6847  15.6918  15.7959
    15.8764  15.9226  15.9631  15.9851  16.0275  16.0321  16.1053  16.2060
    16.2982  16.3166  16.3571  16.4266  16.5310  16.5532  16.5843  16.6993
    16.7308  16.7731  16.8513  16.9156  16.9285  17.0199  17.0634  17.1309
    17.1980  17.2504  17.2538  17.4083  17.4189  17.6014  17.6233  17.7287
    17.7391  17.8086  17.8275  17.8569  17.8644  17.9138  18.0472  18.0870
    18.0920  18.1807  18.3939  18.4527  18.4829  18.6093  18.6282  18.7846
    18.8414  18.8896  18.9914  19.0058  19.0492  19.0639  19.1371  19.2049
    19.2334  19.3068  19.3348  19.3665  19.4871  19.5151  19.6220  19.6374
    19.8123  19.8816  19.9469  20.0514  20.1091  20.1177  20.1360  20.1848
    20.2474  20.2757  20.2801  20.3010  20.4869  20.5415  20.6401  20.7758
    20.8887  20.9213  20.9239  20.9982  21.0630  21.0682  21.0809  21.0917
    21.1737  21.3082  21.3282  21.3394  21.3598  21.4205  21.4319  21.4694
    21.4944  21.5794  21.6004  21.6612  21.7135  21.7666  21.7743  21.7946
    21.8286  21.8331  22.0183  22.0419  22.1439  22.1861  22.1996  22.2027
    22.3282  22.3603  22.4696  22.5243  22.5357  22.5758  22.6026  22.6509
    22.6622  22.6676  22.6956  22.7515  22.9686  22.9864  23.0598  23.1567
    23.1742  23.2189  23.2624  23.3703  23.3889  23.4285  23.4552  23.5356
    23.5932  23.6613  23.6729  23.7533  23.8237  23.8777  23.8905  23.9045
    23.9392  24.0007  24.0272  24.0968  24.2206  24.3240  24.3698  24.4680
    24.5043  24.5681  24.6150  24.6601  24.6828  24.7441  24.7444  24.7494
    24.8673  24.8696  24.9412  24.9547  25.0295  25.1280  25.1587  25.1868
    25.2264  25.2645  25.3300  25.3535  25.3924  25.4079  25.4298  25.4883
    25.4962  25.5218  25.5353  25.5489  25.5820  25.6637  25.6691  25.7169
    25.7330  25.7457  25.7901  25.8444  25.8648  25.8714  25.8816  25.9567
    25.9744  26.0627  26.0854  26.0993  26.2064  26.2305  26.2864  26.3246
    26.3590  26.4414  26.4552  26.4641  26.4661  26.5257  26.6061  26.6185
    26.7091

          k = 0.0000 0.2341 0.0000 ( 36988 PWs)   bands (ev):

   -74.1058 -73.9376 -73.8773 -73.8614 -73.7588 -73.7442 -73.6980 -73.6729
   -73.6564 -73.6508 -73.6466 -73.6425 -73.6363 -73.6230 -73.6125 -73.5952
   -45.6610 -45.4234 -45.3937 -45.3169 -45.3078 -45.2052 -45.1895 -45.1718
   -45.1435 -45.1360 -45.1349 -45.1239 -45.1231 -45.1101 -45.1049 -45.0796
   -45.0724 -45.0681 -45.0595 -45.0580 -45.0569 -45.0516 -45.0444 -45.0348
   -45.0299 -45.0255 -45.0170 -45.0025 -44.9910 -44.9803 -44.9648 -44.9630
   -44.9608 -44.9529 -44.9410 -44.9280 -44.9116 -44.9026 -44.9023 -44.8840
   -44.8771 -44.8750 -44.8616 -44.8463 -44.8329 -44.8313 -44.7982 -44.7905
   -19.8594 -19.6626 -19.3988 -19.1852 -19.1451 -18.9657 -18.7181 -18.6122
   -18.5953 -18.5715 -18.5103 -18.4759 -18.4359 -18.4355 -18.3250 -18.3165
   -18.2503 -18.1759 -18.1734 -18.1464 -18.1317 -18.0975 -18.0850 -18.0582
   -18.0392 -18.0127 -17.9059 -17.8787 -17.7921 -17.6856 -17.5571 -16.8942
   -16.8176  -7.5152  -7.3737  -7.3172  -7.3107  -7.2630  -7.0779  -7.0054
    -6.9174  -6.8842  -6.8109  -6.7654  -6.6943  -6.5476  -6.5142  -6.4812
    -6.4159  -6.3003  -6.2553  -6.2412  -6.1824  -6.1525  -6.0766  -5.9616
    -5.9561  -5.9367  -5.8168  -5.7408  -5.6593  -5.6542  -5.6178  -5.5745
    -5.5366  -5.5073  -5.4930  -5.4305  -5.3152  -5.2722  -5.2179  -5.2042
    -5.1340  -5.0027  -4.9055  -4.8924  -4.8389  -4.7497  -4.7240  -4.6762
    -4.6558  -4.5557  -4.5509  -4.4533  -4.4292  -4.3771  -4.3566  -4.3552
    -4.2989  -4.2205  -4.0630  -4.0627  -3.9211  -3.8453  -3.8029  -3.6885
    -3.6690  -3.6571  -3.4833  -3.4798  -3.4087  -3.4038  -3.3666  -3.2847
    -3.2396  -3.2392  -3.2123  -3.1857  -3.1707  -3.1473  -3.0460  -2.9503
    -2.9475  -2.9242  -2.8246  -2.7559  -2.7388  -2.6404  -2.6077  -2.5846
    -2.3730  -2.2726  -2.2416  -2.2118  -2.1762  -2.1318  -1.9808  -1.9583
    -1.8615  -1.7389  -1.5779  -1.4884  -1.3489  -1.2827  -1.2075  -1.1813
    -1.1445  -1.1430  -1.1253  -1.1046  -1.0845  -1.0360  -1.0165  -0.9257
    -0.9190  -0.8516  -0.8482  -0.8402  -0.7901  -0.7643  -0.7642  -0.7551
    -0.7386  -0.7252  -0.6745  -0.6480  -0.6028  -0.5921  -0.5794  -0.5160
    -0.4348  -0.4278  -0.2725  -0.1215  -0.0208   0.0989   0.2294   0.3360
     0.5193   0.5565   0.5625   0.6309   0.6521   0.6722   0.7035   0.7567
     0.7795   0.8570   0.9053   0.9402   0.9828   1.0868   1.2755   1.4085
     1.5658   1.8485   1.9512   1.9675   1.9974   2.1332   2.4949   2.6641
     2.7808   2.9674   3.0770   3.1068   3.1925   3.3483   3.3899   3.4534
     3.4702   3.4901   3.5558   3.5715   3.6864   3.7220   3.7354   3.7701
     3.8952   3.9247   3.9368   4.2015   4.8753   5.5386   5.6622   5.9717
     6.3756   6.8526   7.2888   7.4188   7.5969   7.7146   7.8898   8.0432
     8.0878   8.3042   8.5737   8.8792   8.9723   9.2043   9.2771   9.5783
     9.8261   9.9468  10.0320  10.0818  10.0916  10.1739  10.3067  10.3273
    10.3794  10.4451  10.5361  10.6446  10.7411  10.7474  10.9250  10.9534
    11.0162  11.0801  11.1491  11.1604  11.3203  11.4444  11.5346  11.5525
    11.5951  11.6368  11.6410  11.7225  11.7300  11.8167  11.8587  11.8818
    11.9767  11.9998  12.0241  12.0627  12.0933  12.1154  12.1958  12.3319
    12.3391  12.4005  12.4475  12.5493  12.5537  12.6813  12.7148  12.7385
    12.8424  12.9204  12.9304  12.9815  13.0583  13.1289  13.1937  13.2848
    13.3947  13.4516  13.5144  13.5230  13.6050  13.6758  13.7970  13.8184
    13.8817  13.9150  14.1024  14.1735  14.2137  14.2406  14.2428  14.2819
    14.4079  14.4335  14.5307  14.5958  14.7134  14.7247  14.7560  14.8496
    14.8944  14.9898  15.0114  15.0424  15.0758  15.1303  15.1407  15.2357
    15.2386  15.3251  15.4226  15.4320  15.5164  15.5204  15.6317  15.7005
    15.7372  15.8194  15.8480  15.9243  15.9442  15.9879  16.0227  16.0462
    16.0736  16.1193  16.1221  16.1747  16.1753  16.2455  16.3718  16.3974
    16.4175  16.4569  16.5186  16.5660  16.6107  16.6886  16.7029  16.7906
    16.8766  16.8843  17.0099  17.0129  17.1236  17.1376  17.1665  17.1907
    17.2255  17.2307  17.2624  17.3311  17.3830  17.4736  17.4885  17.5118
    17.6029  17.6224  17.7769  17.8478  17.8507  17.9005  17.9672  17.9901
    18.0096  18.0442  18.0977  18.1489  18.2698  18.3126  18.4174  18.4442
    18.4834  18.5529  18.6092  18.6494  18.6600  18.7601  18.9340  18.9575
    19.0833  19.1347  19.1569  19.1710  19.2716  19.3291  19.3362  19.3518
    19.4537  19.6548  19.6796  19.7089  19.8070  19.8555  19.8687  19.8949
    19.9966  20.1173  20.1623  20.1771  20.2501  20.3312  20.4819  20.5398
    20.5638  20.6499  20.7029  20.8404  20.9305  20.9496  21.0164  21.0696
    21.1555  21.1991  21.2520  21.3038  21.3633  21.3939  21.4125  21.5016
    21.5057  21.5331  21.6704  21.7216  21.7434  21.7629  21.7737  21.8024
    21.8168  21.8704  21.8942  21.9854  22.0347  22.0714  22.1164  22.1547
    22.1785  22.1915  22.2087  22.2737  22.3310  22.3466  22.4443  22.4583
    22.5475  22.5765  22.6527  22.6753  22.6966  22.7761  22.8116  22.8310
    22.8623  22.8883  22.9124  22.9291  23.0558  23.1222  23.1395  23.3186
    23.3488  23.3917  23.4478  23.4671  23.4971  23.5702  23.5841  23.6254
    23.7442  23.8055  23.8299  23.8855  23.8925  23.9812  24.0083  24.0122
    24.1720  24.2373  24.3289  24.3733  24.3895  24.3996  24.4812  24.6125
    24.6565  24.6661  24.7646  24.8401  24.8709  24.9375  24.9417  25.0104
    25.0993  25.1083  25.1287  25.1803  25.1874  25.2527  25.2613  25.3181
    25.3342  25.3480  25.3987  25.4197  25.4572  25.4916  25.4938  25.5164
    25.5989  25.6772  25.6991  25.7245  25.7804  25.7889  25.8070  25.8382
    25.8868  25.9121  25.9404  25.9610  26.0511  26.0563  26.0567  26.1320
    26.1320  26.1441  26.2178  26.2867  26.3100  26.3960  26.4904  26.5100
    26.5681

          k = 0.0000-0.4682 0.0000 ( 37024 PWs)   bands (ev):

   -74.1058 -73.9376 -73.8773 -73.8614 -73.7587 -73.7442 -73.6980 -73.6729
   -73.6564 -73.6507 -73.6466 -73.6425 -73.6363 -73.6230 -73.6125 -73.5952
   -45.6610 -45.4235 -45.3942 -45.3182 -45.3052 -45.2061 -45.1871 -45.1703
   -45.1473 -45.1359 -45.1351 -45.1240 -45.1210 -45.1122 -45.1049 -45.0796
   -45.0770 -45.0683 -45.0580 -45.0556 -45.0545 -45.0513 -45.0470 -45.0301
   -45.0297 -45.0257 -45.0149 -45.0024 -44.9910 -44.9802 -44.9634 -44.9624
   -44.9606 -44.9566 -44.9410 -44.9281 -44.9137 -44.9026 -44.9023 -44.8838
   -44.8770 -44.8750 -44.8640 -44.8464 -44.8330 -44.8309 -44.7963 -44.7923
   -19.6083 -19.5113 -19.3438 -19.2719 -19.1373 -18.9954 -18.8211 -18.7998
   -18.5984 -18.5482 -18.5007 -18.4939 -18.4902 -18.4734 -18.4449 -18.3907
   -18.2164 -18.1928 -18.1661 -18.1448 -18.1108 -18.0986 -18.0877 -18.0764
   -18.0400 -18.0057 -17.8829 -17.8766 -17.7877 -17.6755 -17.5652 -16.8842
   -16.8170  -7.3486  -7.2523  -7.1016  -7.0591  -7.0465  -7.0106  -6.9352
    -6.9014  -6.8515  -6.8397  -6.8124  -6.7457  -6.5169  -6.4964  -6.4096
    -6.3426  -6.1964  -6.0466  -6.0057  -6.0027  -5.9253  -5.8979  -5.8883
    -5.8088  -5.7221  -5.7131  -5.6777  -5.6624  -5.6105  -5.6011  -5.5591
    -5.5542  -5.5462  -5.5303  -5.4579  -5.3720  -5.2928  -5.2042  -5.1906
    -5.1274  -5.0509  -5.0029  -4.9991  -4.9027  -4.8990  -4.8925  -4.8841
    -4.8314  -4.7422  -4.7051  -4.5980  -4.5749  -4.4299  -4.3912  -4.3820
    -4.3510  -4.2035  -4.1791  -4.0658  -4.0528  -3.9715  -3.8723  -3.8663
    -3.7684  -3.7358  -3.6649  -3.6524  -3.6145  -3.5566  -3.4694  -3.4110
    -3.3776  -3.2508  -3.2193  -3.1962  -3.1731  -3.1699  -3.1134  -3.0650
    -2.9867  -2.7070  -2.6827  -2.5896  -2.5680  -2.5407  -2.4836  -2.4614
    -2.4337  -2.4335  -2.3446  -2.2863  -2.2612  -2.1293  -2.1219  -2.0186
    -1.8624  -1.8390  -1.6443  -1.5750  -1.5667  -1.4293  -1.3060  -1.3060
    -1.2477  -1.2192  -1.2051  -1.1194  -1.0376  -0.9521  -0.9306  -0.8936
    -0.8754  -0.8562  -0.8513  -0.8305  -0.8299  -0.7834  -0.7717  -0.7569
    -0.7217  -0.6608  -0.6124  -0.5918  -0.5746  -0.4380  -0.3655  -0.3390
    -0.3264  -0.2974  -0.0658  -0.0533  -0.0133   0.0078   0.1000   0.3183
     0.3443   0.3955   0.5206   0.5958   0.6620   0.6860   0.7888   0.8337
     0.8567   0.8823   0.8911   0.9656   1.0333   1.0672   1.3046   1.3808
     1.5325   1.5519   1.6063   1.6234   2.0124   2.4531   2.6203   2.6907
     2.7910   3.0592   3.1815   3.1929   3.2824   3.2969   3.3671   3.3856
     3.4066   3.4869   3.6011   3.6452   3.7241   3.7393   3.8215   3.8336
     3.9615   4.2520   4.2539   4.3279   5.1587   6.1477   6.2367   6.3243
     6.4535   6.5185   6.7587   6.8590   7.1987   7.3100   7.7499   7.8444
     8.0236   8.3702   8.4220   8.8952   9.0156   9.0237   9.1171   9.1881
     9.6991   9.7951   9.8473   9.9485  10.3265  10.3610  10.5129  10.5595
    10.6044  10.6240  10.6910  10.7465  10.7995  10.8090  10.8556  10.8904
    10.8986  11.0589  11.0975  11.1140  11.1826  11.3015  11.4493  11.4856
    11.4957  11.5022  11.5167  11.6035  11.6104  11.6985  11.7884  11.9087
    11.9783  11.9797  11.9834  12.0516  12.1482  12.2220  12.4118  12.4596
    12.4623  12.5151  12.5560  12.6497  12.6634  12.7166  12.8126  12.9867
    13.1097  13.1323  13.1668  13.2164  13.2801  13.2811  13.4051  13.4109
    13.4999  13.6025  13.7114  13.7646  13.8028  13.8679  13.8941  13.9027
    14.0678  14.0734  14.1190  14.1533  14.2341  14.2417  14.4923  14.5196
    14.5419  14.6211  14.6290  14.6844  14.7358  14.7753  14.8428  14.9014
    15.0082  15.0333  15.0515  15.1248  15.1723  15.1963  15.2176  15.2328
    15.2837  15.4136  15.4347  15.4788  15.5245  15.5358  15.6389  15.6419
    15.7176  15.7484  15.8408  15.8994  15.9884  16.0363  16.0388  16.0763
    16.0959  16.1009  16.1609  16.1772  16.2008  16.2018  16.2627  16.3875
    16.3977  16.4986  16.5997  16.6086  16.7172  16.8269  16.8479  16.8512
    16.8757  16.9905  17.0263  17.0271  17.0534  17.0989  17.1378  17.1783
    17.2301  17.2734  17.3478  17.3658  17.4078  17.4759  17.4809  17.5436
    17.6982  17.7000  17.8013  17.8987  18.0565  18.0838  18.1361  18.2617
    18.3631  18.4212  18.4893  18.5261  18.5315  18.5917  18.6133  18.6770
    18.6967  18.7729  18.8263  18.8395  18.8510  18.8682  18.8742  18.8826
    18.9967  19.0363  19.1444  19.2187  19.2308  19.2508  19.2665  19.3391
    19.3480  19.5146  19.5756  19.6371  19.6693  19.7092  19.7442  19.7870
    19.8038  19.8070  19.9174  19.9412  20.0364  20.1638  20.2212  20.3275
    20.3394  20.3595  20.3726  20.3860  20.4073  20.4608  20.5490  20.5565
    20.6794  20.7391  20.7691  20.8184  20.8402  20.9716  21.0929  21.1031
    21.1203  21.1259  21.1604  21.2225  21.2252  21.2547  21.2638  21.3584
    21.5449  21.5479  21.6585  21.6620  21.8228  21.8300  21.8805  21.8964
    21.9200  21.9267  21.9737  22.0163  22.0450  22.1343  22.2309  22.2318
    22.2376  22.3399  22.4111  22.4746  22.5937  22.6627  22.6931  22.7053
    22.7581  22.8493  22.8691  22.9008  22.9437  22.9463  23.0093  23.0596
    23.0623  23.1247  23.2093  23.2431  23.2805  23.2971  23.3372  23.6207
    23.7013  23.7157  23.8502  23.8540  24.0499  24.0524  24.1099  24.1223
    24.1587  24.1770  24.1789  24.2258  24.2427  24.2903  24.3465  24.3486
    24.4122  24.4132  24.5779  24.6762  24.6824  24.6895  24.7158  24.7174
    24.7505  24.7909  24.8382  24.8924  24.8991  24.9155  25.0265  25.0886
    25.0995  25.1716  25.1838  25.2165  25.2201  25.2665  25.3025  25.3552
    25.4535  25.5496  25.6692  25.6761  25.6845  25.8256  25.8303  25.8415
    25.8502  25.8900  25.8952  25.9937  26.0556  26.0789  26.1212  26.1273
    26.1736  26.1864  26.2646  26.2698  26.3039  26.3451  26.3705  26.3752
    26.4898

          k = 0.2500 0.0000 0.0000 ( 37060 PWs)   bands (ev):

   -74.1057 -73.9377 -73.8751 -73.8636 -73.7566 -73.7463 -73.6975 -73.6710
   -73.6583 -73.6487 -73.6454 -73.6429 -73.6384 -73.6242 -73.6107 -73.5969
   -45.6614 -45.4266 -45.3792 -45.3111 -45.2874 -45.2149 -45.1910 -45.1750
   -45.1530 -45.1395 -45.1301 -45.1226 -45.1105 -45.1104 -45.1091 -45.0772
   -45.0602 -45.0598 -45.0566 -45.0518 -45.0499 -45.0442 -45.0438 -45.0416
   -45.0264 -45.0223 -45.0067 -44.9944 -44.9900 -44.9859 -44.9799 -44.9504
   -44.9482 -44.9432 -44.9389 -44.9217 -44.9087 -44.9069 -44.9040 -44.8985
   -44.8800 -44.8791 -44.8714 -44.8557 -44.8508 -44.8354 -44.8243 -44.8152
   -19.8369 -19.6535 -19.3976 -19.1781 -19.0110 -18.9408 -18.8450 -18.7758
   -18.6817 -18.5425 -18.4776 -18.4575 -18.3804 -18.2992 -18.2750 -18.2557
   -18.2349 -18.1774 -18.1671 -18.1337 -18.1218 -18.1177 -18.0742 -18.0337
   -18.0236 -17.9957 -17.9477 -17.9179 -17.8185 -17.7298 -17.6045 -16.9092
   -16.8487  -7.6063  -7.5317  -7.4857  -7.4688  -7.1387  -6.9741  -6.8035
    -6.7799  -6.7026  -6.6646  -6.6556  -6.5828  -6.5430  -6.5149  -6.4455
    -6.4431  -6.3979  -6.3691  -6.3180  -6.3170  -6.2508  -6.1884  -6.1206
    -6.0526  -6.0478  -5.9919  -5.9577  -5.8807  -5.8638  -5.8391  -5.7237
    -5.6296  -5.6161  -5.5417  -5.4742  -5.3988  -5.2935  -5.2209  -5.2024
    -5.1060  -5.0807  -4.9961  -4.8882  -4.8692  -4.7073  -4.4968  -4.4691
    -4.4197  -4.2926  -4.2208  -4.2038  -4.1600  -4.1545  -4.1206  -4.0419
    -4.0280  -3.9588  -3.9482  -3.9227  -3.8655  -3.8593  -3.8260  -3.8142
    -3.7912  -3.6811  -3.6794  -3.5862  -3.5446  -3.5036  -3.4809  -3.3551
    -3.3375  -3.2882  -3.2853  -3.2115  -3.1720  -3.1145  -3.0417  -3.0156
    -2.9650  -2.9035  -2.8433  -2.8355  -2.7888  -2.7580  -2.6832  -2.5636
    -2.5101  -2.4712  -2.3282  -2.3065  -2.1990  -2.1028  -2.0425  -1.9734
    -1.9049  -1.7364  -1.6638  -1.5552  -1.3918  -1.3205  -1.2776  -1.2264
    -1.1992  -1.1934  -1.1045  -1.0912  -1.0123  -0.9288  -0.9188  -0.8740
    -0.8536  -0.8064  -0.7752  -0.7593  -0.7159  -0.7001  -0.6605  -0.6114
    -0.5761  -0.5595  -0.5290  -0.4402  -0.3789  -0.3452  -0.2651  -0.2086
    -0.1875  -0.0729  -0.0607   0.0379   0.0740   0.0970   0.1612   0.1895
     0.2308   0.3292   0.4003   0.4690   0.4819   0.6594   0.6944   0.7121
     0.7368   0.7949   0.8966   0.9446   0.9566   1.0247   1.2166   1.6513
     1.9233   2.0179   2.1051   2.3001   2.4651   2.5801   2.7002   2.7913
     2.8363   2.8633   2.8682   2.8921   2.9304   2.9692   2.9898   3.0697
     3.1231   3.1309   3.2686   3.3671   3.3925   3.4134   3.4478   3.4859
     3.6167   3.7147   3.8492   4.2182   4.9833   5.5859   5.7093   6.0241
     6.4382   6.7984   6.9384   7.4626   7.8309   7.9219   8.0856   8.2092
     8.3808   8.6471   8.9255   8.9303   9.1190   9.3181   9.3228   9.4418
     9.5477   9.6221   9.6742   9.8088   9.9462  10.0967  10.1598  10.2686
    10.3824  10.4479  10.5480  10.6935  10.7975  10.8017  10.8164  10.9049
    11.0735  11.0896  11.1820  11.3099  11.3785  11.4268  11.4606  11.4973
    11.5080  11.5771  11.6004  11.6423  11.6653  11.7654  11.7999  11.8477
    11.9798  12.0109  12.0603  12.1124  12.2093  12.2705  12.3335  12.3543
    12.3830  12.5030  12.5589  12.5910  12.6687  12.7686  12.8527  12.9069
    12.9832  13.0334  13.1076  13.1120  13.2114  13.2418  13.2702  13.4317
    13.4391  13.4763  13.5424  13.6809  13.7092  13.7877  13.8123  13.9013
    13.9118  14.0016  14.0064  14.0209  14.1443  14.1653  14.2029  14.2566
    14.3485  14.3670  14.4625  14.4738  14.5248  14.5957  14.6031  14.6527
    14.7133  14.7640  14.8096  14.9213  14.9501  14.9987  15.0616  15.1551
    15.1717  15.2257  15.3241  15.3693  15.3921  15.5387  15.6368  15.7879
    15.8062  15.8401  15.9140  15.9231  15.9728  16.0751  16.0768  16.1050
    16.2065  16.2570  16.2631  16.2816  16.3463  16.3913  16.4396  16.4947
    16.5472  16.6421  16.6849  16.7398  16.7558  16.8226  16.8703  16.9329
    16.9447  17.0069  17.0386  17.0835  17.1546  17.1986  17.2122  17.2427
    17.3241  17.3401  17.4343  17.4565  17.5164  17.5505  17.5519  17.7124
    17.7530  17.8035  17.8463  17.8733  17.9525  18.0325  18.0647  18.1186
    18.1850  18.1850  18.2820  18.3105  18.3879  18.4230  18.4405  18.5218
    18.5730  18.6291  18.6492  18.7808  18.9081  18.9207  18.9623  18.9873
    19.0412  19.0943  19.2051  19.2274  19.2602  19.3726  19.4704  19.5013
    19.5216  19.5381  19.6717  19.7585  19.7620  19.8305  19.8343  19.8878
    19.9760  20.0544  20.1122  20.1546  20.2700  20.3656  20.4410  20.5902
    20.5927  20.6235  20.6463  20.8096  20.8460  20.8854  20.8879  20.9338
    20.9512  21.0093  21.1105  21.1145  21.2869  21.3628  21.4033  21.4585
    21.4654  21.5564  21.5577  21.6184  21.6213  21.6423  21.7671  21.7814
    21.8350  21.9079  21.9386  21.9719  22.0716  22.0815  22.1623  22.1905
    22.1910  22.2414  22.3486  22.3823  22.4393  22.5677  22.6135  22.6721
    22.7171  22.7380  22.7484  22.7864  22.9064  22.9253  22.9429  22.9607
    22.9786  23.0057  23.0587  23.1015  23.1494  23.1823  23.2540  23.2575
    23.3391  23.3768  23.4019  23.4077  23.4623  23.4663  23.5226  23.5358
    23.6019  23.6417  23.6691  23.6917  23.7144  23.7750  23.8505  23.8774
    23.8940  23.9440  23.9533  24.0247  24.0511  24.0608  24.0826  24.0940
    24.2310  24.2719  24.3324  24.3972  24.4011  24.4676  24.5577  24.5753
    24.6088  24.6708  24.7150  24.7155  24.7600  24.8030  24.8410  24.9217
    25.0223  25.0449  25.0465  25.1438  25.1482  25.1779  25.1862  25.2214
    25.2716  25.3270  25.3879  25.4122  25.4397  25.4702  25.5270  25.5890
    25.5964  25.6938  25.7320  25.7795  25.8351  25.8587  25.8857  25.9653
    26.0082  26.0786  26.1521  26.2067  26.2350  26.2455  26.4064  26.4198
    26.4379

          k = 0.2500 0.2341 0.0000 ( 37050 PWs)   bands (ev):

   -74.1057 -73.9377 -73.8751 -73.8636 -73.7566 -73.7463 -73.6975 -73.6711
   -73.6583 -73.6487 -73.6454 -73.6430 -73.6384 -73.6242 -73.6107 -73.5969
   -45.6614 -45.4266 -45.3796 -45.3105 -45.2869 -45.2162 -45.1879 -45.1738
   -45.1532 -45.1432 -45.1299 -45.1210 -45.1117 -45.1105 -45.1091 -45.0772
   -45.0598 -45.0577 -45.0555 -45.0548 -45.0515 -45.0496 -45.0456 -45.0297
   -45.0263 -45.0224 -45.0066 -44.9929 -44.9901 -44.9859 -44.9799 -44.9517
   -44.9498 -44.9415 -44.9393 -44.9218 -44.9085 -44.9084 -44.9045 -44.8985
   -44.8803 -44.8791 -44.8714 -44.8579 -44.8508 -44.8353 -44.8230 -44.8162
   -19.7228 -19.5427 -19.2875 -19.1064 -19.0365 -18.9278 -18.8544 -18.7727
   -18.6866 -18.6294 -18.5642 -18.4710 -18.4550 -18.3780 -18.3391 -18.3046
   -18.2646 -18.2313 -18.1614 -18.1525 -18.1361 -18.1215 -18.0760 -18.0725
   -18.0387 -18.0073 -17.9081 -17.8831 -17.8147 -17.7206 -17.6057 -16.9000
   -16.8487  -7.3369  -7.2043  -7.1983  -7.1496  -7.1113  -6.9239  -6.7949
    -6.7134  -6.6902  -6.6184  -6.5475  -6.5052  -6.4923  -6.4905  -6.4647
    -6.4132  -6.4054  -6.3414  -6.3118  -6.2530  -6.2184  -6.1258  -6.0756
    -6.0611  -5.9938  -5.9666  -5.9140  -5.8635  -5.8337  -5.7698  -5.6540
    -5.5816  -5.4988  -5.4381  -5.4103  -5.3410  -5.2540  -5.2201  -5.1694
    -5.1094  -5.0304  -4.9813  -4.9053  -4.7452  -4.7107  -4.6466  -4.5871
    -4.5352  -4.4826  -4.4025  -4.3940  -4.3616  -4.3075  -4.2544  -4.1868
    -4.1557  -4.1186  -4.0908  -4.0449  -4.0214  -3.9467  -3.9437  -3.8925
    -3.8449  -3.8352  -3.8168  -3.7139  -3.6967  -3.6279  -3.5096  -3.4876
    -3.4563  -3.4393  -3.3559  -3.3253  -3.2691  -3.2149  -3.1693  -3.0860
    -3.0422  -2.9822  -2.8968  -2.8620  -2.7817  -2.7303  -2.6005  -2.5676
    -2.4692  -2.4199  -2.3433  -2.2092  -2.1504  -2.1145  -2.0242  -1.9599
    -1.8889  -1.8196  -1.7502  -1.5365  -1.3483  -1.2856  -1.1993  -1.1057
    -1.0476  -1.0090  -0.9900  -0.9798  -0.9356  -0.9089  -0.8788  -0.8406
    -0.8197  -0.7565  -0.7426  -0.6860  -0.6702  -0.6560  -0.6410  -0.6262
    -0.5881  -0.5710  -0.5269  -0.5086  -0.4378  -0.3968  -0.3577  -0.3098
    -0.2566  -0.1110  -0.0734   0.0198   0.1066   0.1315   0.1707   0.2741
     0.4033   0.4306   0.4752   0.4900   0.5181   0.5504   0.6078   0.6384
     0.6877   0.7896   0.8174   0.9112   1.0055   1.1797   1.3883   1.5247
     1.7424   1.9637   2.0587   2.0724   2.1095   2.1640   2.5004   2.6555
     2.7622   2.7671   2.9091   2.9585   3.0493   3.0803   3.1108   3.2382
     3.2590   3.3664   3.4321   3.4401   3.4493   3.5354   3.6769   3.7288
     3.8308   3.8725   3.9354   4.1739   5.1330   5.8288   5.9446   6.2530
     6.6555   6.8972   7.1227   7.5464   7.6945   7.8909   7.9782   8.0856
     8.1721   8.3569   8.3738   8.4752   8.6714   8.8565   8.8883   9.1493
     9.3633   9.5197   9.5947   9.7749   9.8269  10.0012  10.0264  10.1982
    10.3347  10.3858  10.4422  10.5392  10.6068  10.6619  10.7069  10.8269
    10.9799  11.0185  11.0593  11.2132  11.3004  11.3794  11.4205  11.4976
    11.5408  11.5557  11.6280  11.7523  11.8484  11.9465  11.9709  12.0964
    12.1447  12.1664  12.2213  12.3062  12.4385  12.5154  12.5603  12.6997
    12.7723  12.8224  12.8508  12.8894  12.9296  13.0350  13.0891  13.1108
    13.2321  13.2472  13.3363  13.4031  13.4229  13.4782  13.6482  13.6704
    13.6912  13.7702  13.7986  13.8290  13.9303  13.9969  14.0243  14.0697
    14.0985  14.2030  14.2300  14.2918  14.3446  14.4320  14.4809  14.5027
    14.5626  14.6089  14.6220  14.6240  14.6435  14.6839  14.7888  14.8176
    14.8490  14.8848  14.9531  14.9885  15.0620  15.1223  15.1798  15.1885
    15.2277  15.2520  15.3003  15.3564  15.4400  15.4798  15.5335  15.5532
    15.6504  15.7470  15.7976  15.9090  15.9300  15.9391  16.0667  16.1416
    16.1556  16.1941  16.2521  16.3269  16.3369  16.3662  16.4424  16.4610
    16.5147  16.6135  16.6497  16.6663  16.7116  16.7965  16.8015  16.8547
    16.8919  16.9663  16.9825  17.0518  17.0806  17.1481  17.2465  17.2709
    17.3157  17.3553  17.4809  17.5301  17.5585  17.6269  17.6846  17.7200
    17.7412  17.7979  17.8897  17.9467  17.9607  18.0029  18.0188  18.1553
    18.1730  18.2443  18.3468  18.3661  18.3791  18.4229  18.4367  18.5682
    18.5892  18.6161  18.7070  18.7342  18.7754  18.8158  18.8420  18.8641
    18.9768  19.0274  19.0674  19.1190  19.1451  19.1739  19.2162  19.2387
    19.2992  19.3665  19.4178  19.4580  19.5371  19.5834  19.5931  19.6307
    19.7158  19.8478  19.8958  19.9526  19.9813  20.0105  20.0424  20.0857
    20.1087  20.2029  20.3067  20.3139  20.3821  20.4192  20.5168  20.5759
    20.5941  20.6746  20.6831  20.8259  20.8485  20.9338  20.9573  20.9756
    21.0225  21.0455  21.2017  21.2196  21.3129  21.3421  21.3817  21.3957
    21.4627  21.5182  21.6172  21.6244  21.6739  21.7215  21.7824  21.7862
    21.8786  21.9331  21.9417  21.9955  22.1059  22.1348  22.1727  22.2129
    22.2407  22.3139  22.3914  22.4736  22.4938  22.5352  22.6257  22.6764
    22.7394  22.8045  22.8496  22.9007  22.9494  22.9674  22.9961  23.0424
    23.1509  23.1803  23.2507  23.2609  23.3649  23.3978  23.4600  23.5237
    23.6652  23.7083  23.7775  23.8368  23.8606  23.9841  24.0440  24.0529
    24.0950  24.1159  24.2008  24.2548  24.2703  24.3447  24.4102  24.5412
    24.6110  24.6442  24.6566  24.7459  24.7954  24.9011  24.9311  24.9722
    25.0048  25.0313  25.0616  25.0738  25.1113  25.1583  25.2094  25.2689
    25.3190  25.3360  25.3688  25.4289  25.4728  25.5164  25.5286  25.5645
    25.6060  25.6318  25.6670  25.7226  25.7577  25.7793  25.8106  25.8280
    25.8588  25.8814  25.9275  25.9591  26.0084  26.0602  26.1730  26.1824
    26.2449  26.2868  26.3099  26.3437  26.3730  26.3894  26.4547  26.4716
    26.5591

          k = 0.2500-0.4682 0.0000 ( 37058 PWs)   bands (ev):

   -74.1057 -73.9377 -73.8751 -73.8636 -73.7566 -73.7463 -73.6975 -73.6711
   -73.6583 -73.6486 -73.6454 -73.6430 -73.6384 -73.6242 -73.6107 -73.5969
   -45.6614 -45.4267 -45.3800 -45.3100 -45.2864 -45.2175 -45.1843 -45.1724
   -45.1535 -45.1473 -45.1297 -45.1193 -45.1127 -45.1108 -45.1091 -45.0772
   -45.0612 -45.0597 -45.0542 -45.0529 -45.0507 -45.0505 -45.0470 -45.0262
   -45.0241 -45.0226 -45.0066 -44.9915 -44.9901 -44.9859 -44.9799 -44.9546
   -44.9499 -44.9406 -44.9390 -44.9219 -44.9099 -44.9082 -44.9049 -44.8986
   -44.8806 -44.8791 -44.8713 -44.8601 -44.8508 -44.8352 -44.8208 -44.8180
   -19.5013 -19.3859 -19.2450 -19.1503 -19.0542 -18.8925 -18.8200 -18.7316
   -18.7143 -18.6913 -18.6241 -18.5706 -18.5469 -18.4370 -18.4113 -18.3811
   -18.3212 -18.2683 -18.1965 -18.1551 -18.1415 -18.1267 -18.1099 -18.0549
   -18.0192 -17.9968 -17.8867 -17.8704 -17.8094 -17.7098 -17.6121 -16.8918
   -16.8487  -7.2025  -7.0840  -6.8605  -6.7907  -6.7794  -6.7466  -6.7002
    -6.6920  -6.6511  -6.6385  -6.5922  -6.4836  -6.4549  -6.4370  -6.3981
    -6.3377  -6.3007  -6.2573  -6.1348  -6.0754  -6.0266  -5.9931  -5.9705
    -5.9466  -5.9465  -5.8515  -5.8200  -5.8086  -5.8002  -5.7204  -5.6122
    -5.6006  -5.5642  -5.4667  -5.3649  -5.3199  -5.2980  -5.2125  -5.1250
    -5.0943  -5.0604  -5.0197  -5.0175  -4.9150  -4.7762  -4.7634  -4.6882
    -4.6792  -4.6231  -4.6173  -4.5981  -4.5804  -4.5688  -4.4657  -4.4172
    -4.3536  -4.2980  -4.2859  -4.2701  -4.1811  -4.1764  -4.0961  -4.0242
    -3.9797  -3.8948  -3.8871  -3.8390  -3.8068  -3.7301  -3.6863  -3.6173
    -3.5762  -3.4894  -3.4789  -3.3926  -3.3509  -3.2240  -3.1960  -3.0517
    -3.0138  -2.9763  -2.9433  -2.7024  -2.6514  -2.5876  -2.4891  -2.4817
    -2.3907  -2.3717  -2.1613  -2.1358  -2.0437  -2.0344  -1.9919  -1.8921
    -1.8842  -1.8505  -1.7506  -1.7163  -1.4751  -1.4424  -1.3626  -1.2954
    -1.1770  -1.1133  -0.9792  -0.9282  -0.9161  -0.9152  -0.8557  -0.8279
    -0.8128  -0.7919  -0.7405  -0.6395  -0.6232  -0.5856  -0.5686  -0.5420
    -0.5257  -0.5110  -0.3982  -0.3197  -0.2912  -0.2192  -0.2108  -0.1452
    -0.1319  -0.1023  -0.0985  -0.0113   0.0120   0.1680   0.2191   0.2341
     0.2697   0.3040   0.4053   0.4749   0.5211   0.5689   0.5955   0.6655
     0.7528   0.7590   0.7851   0.9573   1.0833   1.1861   1.3436   1.5256
     1.6365   1.6566   1.7020   1.7876   2.1053   2.4182   2.5547   2.6067
     2.7060   2.7702   2.8050   2.8062   2.9179   3.1127   3.1447   3.2718
     3.3063   3.4445   3.5018   3.5035   3.6185   3.7647   3.7992   3.8221
     3.9580   4.1514   4.1561   4.2306   5.3730   6.4183   6.5176   6.6012
     6.7263   6.7974   7.0119   7.0322   7.1353   7.4733   7.5807   8.0283
     8.1063   8.6507   8.6680   8.7012   8.7897   8.8690   8.8730   9.0524
     9.1701   9.2673   9.3366   9.3733   9.5140   9.5459   9.5978   9.8556
    10.0583  10.0949  10.1590  10.2388  10.2820  10.4173  10.4820  10.8292
    10.8532  10.9634  10.9771  11.1237  11.1422  11.2026  11.3690  11.4251
    11.5014  11.7985  11.8840  11.8911  11.9353  12.0958  12.1422  12.1988
    12.2610  12.4679  12.5925  12.7308  12.7818  12.7820  12.8690  12.9225
    13.0504  13.1499  13.1732  13.2291  13.2677  13.3908  13.4159  13.4464
    13.5833  13.5997  13.6049  13.7073  13.7336  13.7705  13.8421  13.8612
    13.8856  13.9665  14.0655  14.1344  14.1476  14.2787  14.3198  14.3431
    14.4111  14.4369  14.4843  14.4859  14.5068  14.5258  14.5965  14.6239
    14.6653  14.7481  14.8219  14.8435  14.9549  14.9595  14.9666  15.0489
    15.0868  15.0893  15.1815  15.2098  15.2114  15.2743  15.3197  15.3346
    15.3799  15.4220  15.4553  15.5247  15.5468  15.6009  15.6352  15.6784
    15.6827  15.7081  15.7846  15.8263  15.9371  16.0104  16.0234  16.0588
    16.0818  16.2100  16.2401  16.2750  16.3350  16.3378  16.3892  16.3915
    16.5443  16.5554  16.5820  16.6531  16.6943  16.7011  16.7541  16.7866
    16.8874  16.9108  17.0028  17.0040  17.0288  17.0490  17.0758  17.0884
    17.1285  17.1369  17.1750  17.2066  17.2575  17.3317  17.3498  17.3836
    17.4466  17.4711  17.4969  17.5720  17.5795  17.6746  17.7258  17.7265
    17.7700  17.8836  17.9595  18.0242  18.0305  18.1952  18.2379  18.2418
    18.2507  18.2961  18.3948  18.4211  18.4559  18.5769  18.6337  18.7673
    18.7885  18.8761  18.8864  18.9135  18.9678  19.0646  19.1784  19.2610
    19.3336  19.3688  19.4665  19.5060  19.5690  19.6941  19.7437  19.7876
    19.8027  19.8728  19.8890  19.9999  20.0031  20.0228  20.0630  20.1437
    20.1505  20.1921  20.2495  20.2943  20.3433  20.4224  20.4515  20.4810
    20.4952  20.5989  20.6520  20.6533  20.6917  20.7616  20.8783  20.9064
    20.9388  20.9556  21.0328  21.1136  21.1563  21.1860  21.2334  21.2541
    21.2953  21.3244  21.3469  21.3862  21.4156  21.4192  21.4789  21.6302
    21.6447  21.7156  21.7312  21.7934  21.8616  21.8762  21.9297  22.0358
    22.0598  22.2485  22.2818  22.2825  22.3626  22.3772  22.4336  22.4886
    22.5439  22.5724  22.5752  22.6130  22.6898  22.7267  22.7682  22.8427
    22.9156  22.9665  23.0170  23.0588  23.1658  23.1912  23.3949  23.4236
    23.4759  23.5296  23.5383  23.6334  23.6553  23.7268  23.7356  23.7924
    23.8108  23.8542  23.8793  23.9256  23.9766  23.9943  24.0843  24.2798
    24.3826  24.3842  24.3883  24.5376  24.5710  24.6141  24.6503  24.6604
    24.7721  24.8898  24.9040  25.0070  25.0283  25.0636  25.0887  25.1387
    25.2259  25.2918  25.3372  25.3388  25.4187  25.4895  25.5558  25.5623
    25.5950  25.6670  25.7713  25.7909  25.8178  25.8845  25.9396  25.9766
    26.1043  26.1741  26.2412  26.3315  26.3915  26.4086  26.4194  26.5132
    26.5286  26.5983  26.6047  26.6936  26.7072  26.7448  26.8154  26.8295
    26.8609

          k =-0.5000 0.0000 0.0000 ( 37062 PWs)   bands (ev):

   -74.1056 -73.9378 -73.8709 -73.8678 -73.7515 -73.7515 -73.6970 -73.6683
   -73.6611 -73.6445 -73.6435 -73.6434 -73.6432 -73.6255 -73.6083 -73.5993
   -45.6618 -45.4284 -45.3648 -45.3104 -45.2332 -45.2275 -45.2071 -45.1903
   -45.1768 -45.1391 -45.1223 -45.1175 -45.1166 -45.1164 -45.0752 -45.0677
   -45.0557 -45.0525 -45.0504 -45.0503 -45.0482 -45.0477 -45.0429 -45.0360
   -45.0154 -45.0131 -45.0086 -44.9991 -44.9901 -44.9800 -44.9692 -44.9517
   -44.9467 -44.9363 -44.9305 -44.9096 -44.9056 -44.9032 -44.8893 -44.8889
   -44.8862 -44.8837 -44.8825 -44.8790 -44.8753 -44.8746 -44.8497 -44.8414
   -19.4987 -19.4325 -19.3470 -19.2463 -19.0917 -19.0887 -18.9275 -18.8452
   -18.7474 -18.6497 -18.5624 -18.4074 -18.2774 -18.2432 -18.2410 -18.2315
   -18.2034 -18.2027 -18.1920 -18.1638 -18.1575 -18.1016 -18.0980 -18.0377
   -18.0333 -18.0320 -17.9243 -17.9024 -17.8176 -17.7894 -17.6719 -16.8987
   -16.8943  -7.2102  -7.1317  -7.1306  -7.1241  -7.1203  -7.1016  -7.0818
    -7.0488  -6.8573  -6.6983  -6.6343  -6.5620  -6.5262  -6.5202  -6.4723
    -6.4366  -6.4225  -6.3925  -6.3539  -6.2975  -6.2905  -6.2735  -6.1697
    -6.1488  -6.0648  -6.0478  -5.8637  -5.8607  -5.7357  -5.7108  -5.5017
    -5.4819  -5.4468  -5.3329  -5.3153  -5.2866  -5.2669  -5.2353  -5.1083
    -5.0220  -4.9223  -4.9096  -4.8793  -4.7657  -4.7307  -4.6405  -4.6139
    -4.5823  -4.5741  -4.5720  -4.5284  -4.4681  -4.4314  -4.3518  -4.2165
    -4.1223  -3.9841  -3.9514  -3.8973  -3.8516  -3.7928  -3.7195  -3.6686
    -3.5895  -3.5352  -3.5182  -3.4918  -3.4881  -3.4751  -3.4370  -3.4183
    -3.3882  -3.3339  -3.3335  -3.2998  -3.2445  -3.2281  -3.2109  -3.2107
    -3.1610  -3.1016  -2.9987  -2.9916  -2.8692  -2.8200  -2.7926  -2.7242
    -2.7126  -2.7028  -2.5326  -2.5227  -2.0981  -2.0949  -2.0918  -2.0874
    -1.8302  -1.6842  -1.5944  -1.5154  -1.4985  -1.3296  -1.2265  -1.2052
    -1.1708  -0.9827  -0.9756  -0.9541  -0.9494  -0.9204  -0.9066  -0.8916
    -0.8481  -0.8428  -0.8032  -0.6461  -0.5481  -0.5212  -0.5069  -0.4864
    -0.4614  -0.4124  -0.3010  -0.2962  -0.2189  -0.1523  -0.1499  -0.0902
    -0.0675   0.0410   0.0840   0.0912   0.0986   0.2051   0.2099   0.2592
     0.2653   0.3066   0.3418   0.3597   0.4200   0.4956   0.5379   0.6024
     0.6380   0.6992   0.7006   0.9208   1.0611   1.0620   1.3429   1.9218
     1.9387   2.2355   2.2897   2.3254   2.3670   2.6116   2.7114   2.7168
     2.7789   2.7816   2.7829   2.8475   2.9589   2.9626   2.9926   2.9983
     3.0364   3.0381   3.0678   3.0907   3.0917   3.1290   3.2099   3.2509
     3.6728   3.6855   3.9161   3.9289   5.7085   5.7113   6.3211   6.4732
     6.5165   6.6115   6.8205   6.9270   7.2295   7.3685   7.7278   7.9163
     8.2864   8.5331   8.8886   9.1165   9.2645   9.4307   9.6665   9.6688
     9.6707   9.7715   9.8547   9.9200  10.2406  10.2487  10.2659  10.3070
    10.3797  10.4404  10.4607  10.4741  10.5037  10.6142  10.7353  10.7960
    10.8444  10.8735  10.9111  11.0863  11.1154  11.1480  11.2291  11.2421
    11.5390  11.5561  11.6142  11.6451  11.6815  11.7146  11.7754  11.9555
    12.2219  12.2457  12.2482  12.2781  12.3316  12.3890  12.4481  12.4820
    12.5409  12.6819  12.7114  12.7517  12.7996  12.8259  12.9201  12.9541
    12.9769  13.0512  13.0712  13.0735  13.2031  13.2091  13.3298  13.3621
    13.6108  13.6562  13.6939  13.7191  13.9177  13.9524  13.9871  14.0609
    14.1273  14.1404  14.1409  14.2324  14.2594  14.3794  14.4587  14.4977
    14.5165  14.5449  14.5600  14.6417  14.6584  14.6844  14.7230  14.7383
    14.8937  14.9677  14.9715  15.2276  15.3208  15.3647  15.3654  15.4149
    15.4160  15.4804  15.6106  15.6541  15.6623  15.6742  15.8760  15.9009
    15.9825  16.0343  16.1193  16.1270  16.1684  16.2297  16.2344  16.2670
    16.3195  16.3604  16.4088  16.4729  16.4731  16.4800  16.5083  16.5453
    16.6339  16.6848  16.6921  16.7101  16.7692  16.8005  16.8510  16.8545
    16.8641  16.8681  16.9148  16.9478  17.0053  17.0457  17.1062  17.2473
    17.2760  17.3118  17.3777  17.4639  17.4848  17.5482  17.6752  17.7114
    17.7322  17.7771  17.7811  17.8112  17.9582  18.0873  18.1486  18.1517
    18.2667  18.3116  18.3413  18.5418  18.7110  18.7163  18.7411  18.8146
    18.8698  18.8794  18.8962  18.9278  19.0678  19.1733  19.1972  19.2212
    19.2907  19.3240  19.3403  19.3560  19.4093  19.4369  19.4487  19.4531
    19.4770  19.5894  19.6430  19.6701  19.6978  19.7400  19.8060  19.8975
    19.8988  19.9167  19.9645  20.0307  20.0514  20.1042  20.1495  20.2785
    20.4376  20.4377  20.4380  20.4773  20.4922  20.5072  20.5433  20.5853
    20.6269  20.6705  20.7705  20.8227  20.9132  20.9186  21.0290  21.0660
    21.1332  21.2291  21.3315  21.3434  21.3680  21.4645  21.5616  21.6451
    21.6623  21.7091  21.7571  21.8054  21.8574  21.8647  21.8930  21.9110
    21.9674  22.1116  22.1419  22.1963  22.1990  22.2066  22.2652  22.2822
    22.2867  22.3280  22.3355  22.5016  22.5523  22.5587  22.5751  22.6169
    22.6792  22.7061  22.7384  22.7413  22.7553  22.7933  22.8291  22.9548
    22.9658  22.9823  23.0135  23.1150  23.1566  23.1578  23.1630  23.2554
    23.2831  23.2946  23.3577  23.3592  23.3783  23.3866  23.4575  23.4582
    23.5444  23.5695  23.5829  23.5889  23.7696  23.8454  23.9374  23.9698
    24.0848  24.1170  24.1305  24.1312  24.1548  24.1991  24.2151  24.2234
    24.2925  24.3126  24.3156  24.4170  24.4928  24.5135  24.5920  24.6180
    24.7076  24.7717  24.7783  24.8648  24.8802  24.9536  25.0490  25.0864
    25.0940  25.1034  25.1687  25.1829  25.1857  25.2905  25.3186  25.3351
    25.3424  25.4164  25.4818  25.4821  25.7291  25.7381  25.8087  25.8280
    25.8987  25.9363  25.9710  26.0250  26.0488  26.0967  26.1048  26.1074
    26.1812

          k =-0.5000 0.2341 0.0000 ( 37064 PWs)   bands (ev):

   -74.1056 -73.9378 -73.8709 -73.8678 -73.7515 -73.7515 -73.6970 -73.6683
   -73.6610 -73.6445 -73.6435 -73.6435 -73.6432 -73.6256 -73.6083 -73.5993
   -45.6618 -45.4285 -45.3651 -45.3095 -45.2335 -45.2289 -45.2071 -45.1859
   -45.1762 -45.1430 -45.1222 -45.1175 -45.1160 -45.1160 -45.0752 -45.0677
   -45.0547 -45.0520 -45.0499 -45.0498 -45.0490 -45.0478 -45.0430 -45.0361
   -45.0153 -45.0131 -45.0089 -44.9969 -44.9901 -44.9799 -44.9696 -44.9518
   -44.9482 -44.9358 -44.9300 -44.9094 -44.9072 -44.9041 -44.8892 -44.8889
   -44.8851 -44.8845 -44.8823 -44.8803 -44.8756 -44.8745 -44.8499 -44.8418
   -19.4230 -19.3339 -19.2562 -19.1458 -19.0024 -18.9995 -18.8729 -18.7719
   -18.7463 -18.7360 -18.6855 -18.5474 -18.4420 -18.4262 -18.3114 -18.2760
   -18.2299 -18.1895 -18.1809 -18.1773 -18.1523 -18.1258 -18.1218 -18.1062
   -18.0670 -17.9974 -17.8814 -17.8667 -17.8204 -17.7789 -17.6688 -16.8952
   -16.8908  -6.9772  -6.9308  -6.8841  -6.8298  -6.8280  -6.7952  -6.7876
    -6.7384  -6.7215  -6.6849  -6.5747  -6.5020  -6.4201  -6.4119  -6.4012
    -6.3913  -6.3617  -6.3520  -6.2978  -6.2839  -6.2664  -6.2130  -6.1790
    -6.1666  -6.0770  -6.0545  -6.0349  -6.0235  -5.6069  -5.5247  -5.4819
    -5.4573  -5.4553  -5.3879  -5.2989  -5.2679  -5.1939  -5.1642  -5.1495
    -5.1178  -5.0301  -4.9721  -4.9457  -4.9180  -4.8990  -4.8529  -4.8129
    -4.8120  -4.7079  -4.6378  -4.6023  -4.5278  -4.4857  -4.3472  -4.2602
    -4.1210  -4.1195  -4.0740  -4.0524  -4.0335  -3.9626  -3.9278  -3.8467
    -3.8295  -3.8200  -3.8178  -3.7481  -3.7354  -3.7213  -3.6947  -3.6615
    -3.6515  -3.5979  -3.5078  -3.3790  -3.3759  -3.2768  -3.1606  -3.0699
    -3.0606  -3.0014  -2.9214  -2.9033  -2.7651  -2.7603  -2.6884  -2.6505
    -2.5068  -2.4977  -2.4598  -2.4590  -2.1413  -2.1308  -2.0633  -2.0600
    -1.8664  -1.7369  -1.6246  -1.5213  -1.3665  -1.3582  -1.3356  -1.2405
    -1.0537  -1.0059  -0.9116  -0.8718  -0.8145  -0.7686  -0.7207  -0.6739
    -0.6297  -0.6253  -0.6068  -0.5589  -0.5361  -0.5179  -0.4990  -0.4657
    -0.4246  -0.4097  -0.3736  -0.1564  -0.1554  -0.1281  -0.1246  -0.0509
    -0.0135  -0.0088   0.0358   0.0424   0.0599   0.1379   0.1762   0.2120
     0.2629   0.3134   0.3146   0.3520   0.3683   0.4160   0.4699   0.4936
     0.5975   0.6210   0.7440   0.7982   1.1913   1.1932   1.4834   1.8697
     2.0354   2.0584   2.1000   2.2990   2.3849   2.3935   2.4194   2.4256
     2.4519   2.4618   2.4937   2.6993   2.8551   2.8642   2.9441   3.0473
     3.0713   3.2129   3.2135   3.2870   3.4697   3.4918   3.6091   3.6602
     3.7847   3.8211   4.0245   4.0353   5.8340   5.8370   6.5275   6.7121
     6.7466   6.8461   7.0378   7.1518   7.4257   7.5784   7.8787   8.0920
     8.2943   8.4870   8.4966   8.6900   8.6945   8.7649   8.7992   8.9260
     9.1593   9.1946   9.2449   9.3779   9.5308   9.6912   9.6962   9.7711
     9.9282  10.1092  10.2647  10.3591  10.4184  10.5174  10.6391  10.7883
    10.9508  11.0991  11.1420  11.1985  11.2272  11.3400  11.3930  11.4477
    11.6945  11.8515  11.8853  12.0263  12.1060  12.1435  12.3020  12.3516
    12.4131  12.4551  12.5551  12.6409  12.6696  12.6932  12.7453  12.7705
    12.8123  12.9952  13.0556  13.0593  13.1408  13.1728  13.2568  13.2693
    13.3512  13.3722  13.4615  13.4940  13.5711  13.6164  13.7683  13.7919
    13.9351  13.9786  14.0383  14.0510  14.0516  14.1356  14.1667  14.1720
    14.2419  14.2670  14.3671  14.3970  14.4655  14.4900  14.5662  14.6143
    14.6267  14.6423  14.6575  14.6948  14.7947  14.9172  14.9604  14.9774
    15.1181  15.2388  15.3106  15.3886  15.5202  15.5236  15.5951  15.5978
    15.6585  15.6732  15.7089  15.7115  15.8390  15.8404  15.9033  15.9140
    15.9427  15.9648  16.0545  16.1151  16.1285  16.1767  16.1843  16.2254
    16.2684  16.3025  16.3330  16.3738  16.4907  16.4962  16.5923  16.6271
    16.6682  16.7519  16.8467  16.8706  16.8755  16.9005  16.9660  16.9712
    17.0037  17.0484  17.0764  17.1137  17.1505  17.1644  17.2455  17.2505
    17.2799  17.3115  17.3296  17.3674  17.3762  17.4920  17.5487  17.5545
    17.6193  17.7151  17.7215  17.7466  17.7634  17.8019  17.8515  17.8610
    17.8948  18.0263  18.1189  18.1362  18.1567  18.1758  18.2309  18.2837
    18.2979  18.3678  18.4327  18.4923  18.5536  18.5814  18.5817  18.7352
    18.7641  18.8200  18.8450  18.8697  18.8765  18.9414  19.0227  19.0731
    19.0775  19.1255  19.1748  19.2044  19.2632  19.2991  19.3344  19.3686
    19.3883  19.4883  19.5373  19.6309  19.6937  19.7133  19.7141  19.8217
    19.8960  19.8979  19.9950  20.1133  20.1364  20.2644  20.2720  20.2789
    20.3395  20.3715  20.3836  20.5530  20.5650  20.5710  20.6018  20.6402
    20.7084  20.8196  20.9366  21.0031  21.1060  21.1629  21.2143  21.2754
    21.3016  21.3669  21.4012  21.5180  21.5240  21.5967  21.6069  21.6270
    21.6878  21.7978  21.7997  21.8776  21.9267  21.9762  21.9924  22.0337
    22.0416  22.1007  22.1228  22.3809  22.4631  22.5136  22.5244  22.5847
    22.5958  22.6308  22.6641  22.7007  22.7825  22.8038  22.8415  22.9073
    23.0110  23.0452  23.1069  23.2159  23.3133  23.3667  23.4713  23.5170
[...]
    -5.1793  -5.1756  -5.1274  -5.0210  -4.9932  -4.9136  -4.9108  -4.8934
    -4.8255  -4.7598  -4.6938  -4.6612  -4.6078  -4.5896  -4.5588  -4.5414
    -4.4957  -4.4848  -4.3493  -4.3065  -4.2631  -4.2138  -3.9901  -3.9622
    -3.8904  -3.8633  -3.8224  -3.7865  -3.7478  -3.7069  -3.6866  -3.6648
    -3.6309  -3.6027  -3.5701  -3.5665  -3.5236  -3.4977  -3.4918  -3.4057
    -3.3085  -3.2976  -3.1577  -3.0933  -3.0551  -2.9119  -2.8924  -2.8214
    -2.7441  -2.7295  -2.6651  -2.5984  -2.5514  -2.5359  -2.4576  -2.4296
    -2.3214  -2.2968  -2.2357  -2.2204  -2.0083  -1.9925  -1.9537  -1.9141
    -1.8068  -1.7009  -1.5923  -1.5778   0.6343   0.7006   0.7064   0.7859
     0.7895   0.9902   1.0631   1.0687   1.0930   1.2070   1.2314   1.3092
     1.3492   1.3633   1.3835   1.4454   1.4566   1.4741   1.5591   1.5695
     1.5801   1.6124   1.6377   1.6781   1.6998   1.7418   1.7611   1.7828
     1.8101   1.8208   1.8255   1.8686   1.8806   1.9078   1.9127   1.9630
     1.9668   1.9885   2.0067   2.0180   2.0548   2.0551   2.1005   2.1261
     2.2270   2.2413   2.3338   2.3651   2.6240   2.6365   2.6792   2.7635
     3.1886   3.2662   3.3072   3.3233   3.5076   3.5459   3.6282   3.6350
     3.6586   3.6997   3.7521   3.7525   3.8528   3.8644   3.9683   4.0425
     4.0655   4.1729   4.2136   4.2945   4.4722   4.5124   4.6600   4.7101
     4.8078   4.8490   5.0834   5.0881   6.1596   6.1624   6.5903   6.7373
     6.7894   6.8798   7.0968   7.2006   7.5039   7.6395   7.9690   8.1492
     8.3551   8.5141   8.5232   8.7047   8.7572   8.8098   8.8270   8.9757
     9.2049   9.2666   9.2931   9.4791   9.6538   9.7679   9.8019   9.8171
    10.0368  10.2145  10.3973  10.4511  10.5009  10.6085  10.7324  10.8685
    11.0988  11.2359  11.2471  11.3336  11.3351  11.4461  11.5105  11.5238
    11.8318  11.9693  12.0047  12.1299  12.2344  12.2630  12.3971  12.4093
    12.5560  12.5666  12.7071  12.7113  12.7135  12.8938  12.9589  12.9759
    13.0223  13.1118  13.1286  13.1894  13.4235  13.4297  13.4807  13.5487
    13.5913  13.6407  13.6888  13.7152  13.9040  13.9196  13.9741  14.0668
    14.1526  14.1601  14.2363  14.3083  14.3199  14.3868  14.4190  14.4258
    14.5563  14.5586  14.6075  14.6786  14.7393  14.7449  14.8134  14.8561
    14.9292  14.9348  14.9490  14.9638  15.0258  15.0443  15.1298  15.1667
    15.2888  15.3788  15.5039  15.6136  15.6478  15.6672  15.7521  15.7524
    15.7899  15.8184  15.8296  15.9046  15.9542  15.9976  16.1419  16.1496
    16.1988  16.2331  16.2478  16.3301  16.3724  16.3916  16.4415  16.4880
    16.5188  16.5506  16.5982  16.6021  16.8489  16.9343  16.9402  16.9661
    17.0430  17.0578  17.1183  17.1457  17.1655  17.2019  17.2393  17.2837
    17.3182  17.3532  17.4947  17.5227  17.5450  17.5718  17.5768  17.5843
    17.5991  17.6106  17.6818  17.7114  17.7303  17.7635  17.8139  17.8158
    17.8643  17.9724  17.9833  17.9981  18.0244  18.1049  18.1242  18.1497
    18.1865  18.2573  18.2801  18.3527  18.3712  18.4109  18.4154  18.4536
    18.4700  18.5264  18.5274  18.5827  18.6541  18.6828  18.7140  18.8526
    18.8824  18.9247  19.0778  19.0949  19.1389  19.1661  19.1707  19.2578
    19.3448  19.3476  19.3752  19.4819  19.4934  19.5260  19.5598  19.6063
    19.6796  19.7852  19.8412  19.8488  19.8826  19.9267  19.9454  19.9528
    20.0464  20.2076  20.2929  20.3508  20.3651  20.4341  20.4798  20.5043
    20.5281  20.6885  20.6941  20.7748  20.8474  20.8910  20.9155  20.9749
    21.0477  21.1315  21.1421  21.1852  21.2859  21.3462  21.3826  21.4553
    21.4743  21.5409  21.5435  21.6110  21.6599  21.6996  21.7086  21.8201
    21.8774  21.9100  21.9446  22.0812  22.0960  22.1381  22.1465  22.2235
    22.2281  22.2405  22.3133  22.5120  22.5863  22.6152  22.6959  22.7732
    22.7878  22.8426  22.8583  22.9191  22.9258  23.0378  23.0726  23.2101
    23.2718  23.3234  23.4178  23.4469  23.4634  23.5718  23.5744  23.6227
    23.7052  23.7124  23.7807  23.8239  23.8247  23.9275  23.9473  24.0494
    24.1800  24.2080  24.3439  24.4323  24.4333  24.4710  24.5028  24.6267
    24.6373  24.6621  24.8312  24.8769  24.9005  24.9155  24.9451  24.9822
    25.0877  25.1402  25.1775  25.1965  25.2268  25.2427  25.2563  25.3258
    25.4101  25.4174  25.5133  25.5644  25.5940  25.6163  25.7015  25.7839
    25.8102  25.8727  25.8927  25.9882  26.0265  26.0496  26.0849  26.2214
    26.2911  26.3053  26.3257  26.3534  26.3738  26.4210  26.5256  26.5283
    26.5484  26.5525  26.5612  26.5721  26.6366  26.6579  26.6890  26.7263
    26.7438

          k =-0.5000-0.4682 0.0000 ( 37080 PWs)   bands (ev):

   -72.7866 -71.8098 -71.8065 -71.7494 -71.6372 -71.6372 -71.4993 -71.4992
   -71.4291 -71.4002 -71.3923 -71.3009 -71.2876 -71.2764 -70.9413 -70.9295
   -44.8997 -43.8490 -43.7202 -43.5059 -43.3104 -43.2786 -43.2128 -43.2128
   -43.1489 -43.1487 -43.1255 -43.1255 -43.0740 -43.0472 -43.0418 -43.0335
   -43.0280 -43.0174 -42.9411 -42.9407 -42.9009 -42.9005 -42.8678 -42.8410
   -42.8258 -42.8256 -42.7845 -42.7832 -42.6801 -42.6713 -42.6711 -42.6636
   -42.6558 -42.6271 -42.6203 -42.5525 -42.5517 -42.5486 -42.5311 -42.5283
   -42.5268 -42.5137 -42.5040 -42.4754 -42.2439 -42.2335 -42.2141 -42.2038
   -19.3738 -19.1460 -19.1229 -19.0988 -19.0006 -18.9344 -18.9239 -18.8807
   -18.8355 -18.8091 -18.7101 -18.6851 -18.5912 -18.5511 -18.5507 -18.5042
   -18.3624 -18.2777 -18.2724 -18.2699 -18.2582 -18.2229 -18.2149 -18.1820
   -18.0966 -18.0635 -17.9458 -17.9307 -17.9275 -17.8945 -17.7638 -17.0920
   -17.0813  -6.6369  -6.4166  -6.4043  -6.3632  -6.2788  -6.2016  -6.0996
    -6.0911  -6.0613  -6.0576  -6.0512  -6.0061  -5.9681  -5.9463  -5.9053
    -5.9018  -5.8970  -5.8408  -5.8377  -5.8235  -5.7394  -5.7138  -5.6663
    -5.6513  -5.6241  -5.6140  -5.5596  -5.5217  -5.4671  -5.4195  -5.2876
    -5.2390  -5.2389  -5.2363  -5.1873  -5.1677  -5.1641  -5.1620  -5.1224
    -5.1030  -5.0781  -4.8691  -4.8344  -4.7311  -4.6282  -4.5961  -4.5614
    -4.4729  -4.4170  -4.4166  -4.3822  -4.3621  -4.3468  -4.2836  -4.2355
    -4.2297  -4.1139  -4.0640  -4.0585  -4.0107  -4.0085  -3.9828  -3.9209
    -3.7343  -3.7320  -3.6954  -3.6774  -3.6297  -3.6174  -3.6158  -3.6117
    -3.3557  -3.2836  -3.2164  -3.2087  -3.0593  -2.9723  -2.9560  -2.8211
    -2.8037  -2.5736  -2.5625  -2.5196  -2.4836  -2.3359  -2.3193  -2.3176
    -2.2527  -2.1534  -2.0949  -2.0817  -1.9336  -1.9272  -1.9168  -1.8595
    -1.8145  -1.7565  -1.6613  -1.6514   0.5938   0.7538   0.8443   0.8511
     0.8587   0.9187   0.9565   0.9715   1.0599   1.0927   1.1617   1.2800
     1.3193   1.3442   1.3484   1.3543   1.5009   1.5165   1.5343   1.5753
     1.5801   1.6737   1.6956   1.7267   1.7498   1.8154   1.8188   1.8529
     1.8802   1.9420   1.9541   1.9607   1.9800   1.9831   1.9925   2.0979
     2.1036   2.1220   2.1474   2.1628   2.1758   2.1774   2.2167   2.2258
     2.2904   2.2969   2.3030   2.3263   2.3289   2.7068   2.7127   2.8532
     2.9769   3.2230   3.2538   3.2559   3.3342   3.3468   3.3721   3.3795
     3.3813   3.4018   3.5713   3.6043   3.8539   3.8965   3.9864   4.0992
     4.0997   4.1939   4.3799   4.5571   4.5580   4.5683   4.8229   4.9363
     4.9440   4.9514   5.0557   5.0968   6.3801   6.3836   7.0354   7.3600
     7.3620   7.4366   7.4539   7.5255   7.5451   7.5765   7.6292   7.7531
     7.8666   7.8961   7.9632   8.1359   8.3155   8.3567   8.4226   8.6396
     8.8824   8.9377   8.9800   9.2258   9.5407   9.5935   9.6128   9.7951
    10.1918  10.2241  10.3060  10.3449  10.4133  10.4309  10.4790  10.5752
    10.9998  11.0482  11.0805  11.1309  11.1852  11.1858  11.2561  11.3663
    11.8838  11.8860  11.9293  12.0472  12.0845  12.1167  12.1480  12.3769
    12.8393  12.8758  12.9208  12.9908  13.3972  13.4147  13.4661  13.4731
    13.6312  13.6618  13.7121  13.7691  13.9566  14.2040  14.2248  14.3202
    14.3802  14.4063  14.4484  14.4608  14.4673  14.4818  14.4819  14.6160
    14.6264  14.6562  14.7491  14.7929  14.8050  14.9245  14.9525  14.9740
    15.0584  15.0722  15.0870  15.1061  15.1331  15.1341  15.1927  15.2023
    15.2881  15.2973  15.3315  15.3326  15.3371  15.3545  15.4034  15.4592
    15.4605  15.4636  15.5362  15.5425  15.5829  15.6094  15.7521  15.7870
    15.8035  15.8397  15.9765  16.0133  16.0469  16.1023  16.1315  16.1374
    16.2246  16.2484  16.2893  16.3372  16.3511  16.3525  16.3575  16.3791
    16.4134  16.4188  16.4611  16.5209  16.5495  16.5812  16.5894  16.6028
    16.6654  16.6858  16.7247  16.7258  16.8245  16.8386  16.8769  16.8858
    16.8954  16.9361  16.9497  17.0163  17.0548  17.0706  17.0735  17.1125
    17.1468  17.1981  17.2075  17.3434  17.4684  17.4856  17.5293  17.5370
    17.6404  17.6410  17.6853  17.7036  17.7141  17.7171  17.7665  17.7679
    17.9070  17.9284  17.9464  18.0405  18.0630  18.1341  18.1426  18.2170
    18.2767  18.3558  18.3882  18.4077  18.4541  18.4553  18.5073  18.5194
    18.5619  18.6091  18.6096  18.7658  18.8134  18.8326  18.9258  18.9403
    18.9656  18.9800  18.9947  19.1788  19.1815  19.2018  19.2955  19.3432
    19.3459  19.3539  19.4562  19.4994  19.6112  19.7015  19.7214  19.7694
    19.8164  19.9316  19.9806  19.9915  20.0983  20.1100  20.1357  20.1641
    20.1719  20.2484  20.2693  20.3190  20.5594  20.5968  20.6053  20.7848
    20.8122  20.8273  20.8419  20.8513  20.9610  20.9844  21.0984  21.1436
    21.2558  21.3136  21.4586  21.6389  21.6559  21.6818  21.7215  21.9288
    22.0134  22.0427  22.0443  22.0584  22.1748  22.2072  22.2506  22.2904
    22.3526  22.4642  22.6085  22.8112  22.8199  22.8726  22.8787  23.0526
    23.1001  23.1125  23.1752  23.3195  23.5607  23.5925  23.6460  23.6764
    23.7303  23.7808  23.8139  23.9118  23.9944  23.9958  24.0885  24.1626
    24.1812  24.1971  24.2160  24.3161  24.3653  24.3839  24.3941  24.4275
    24.4319  24.4374  24.4915  24.5099  24.5125  24.5261  24.5528  24.6003
    24.6959  24.7726  24.8037  24.8985  24.8997  24.9253  24.9483  24.9872
    25.0986  25.1387  25.2151  25.2401  25.3192  25.3210  25.3224  25.3695
    25.4238  25.4696  25.5204  25.6412  25.6414  25.7341  25.7595  25.8124
    25.8285  25.8618  25.9122  25.9148  25.9733  25.9768  26.0172  26.0305
    26.0826  26.0896  26.1933  26.2072  26.2193  26.2400  26.3045  26.3250
    26.3726  26.4185  26.4318  26.4411  26.4472  26.4565  26.5941  26.6351
    26.6492

     the spin up/dw Fermi energies are    -0.0637    0.3578 ev

!    total energy              =   -3881.17746834 Ry
     Harris-Foulkes estimate   =   -3881.17746837 Ry
     estimated scf accuracy    <          8.4E-09 Ry

     The total energy is the sum of the following terms:

     one-electron contribution =  -83050.26721653 Ry
     hartree contribution      =   41571.25266497 Ry
     xc contribution           =    -602.16725313 Ry
     ewald contribution        =   38200.00474709 Ry
     smearing contrib. (-TS)   =      -0.00041074 Ry

     total magnetization       =    30.00 Bohr mag/cell
     absolute magnetization    =    35.34 Bohr mag/cell

     convergence has been achieved in  17 iterations

     Forces acting on atoms (Ry/au):


     negative rho (up, down):  0.619E-02 0.241E-02
     atom    1 type  1   force =     0.00000000    0.00000000    0.07337231
     atom    2 type  2   force =     0.00034311    0.00000000   -0.11964208
     atom    3 type  2   force =     0.00000000    0.00000000    0.08097189
     atom    4 type  1   force =    -0.00028063    0.04250706   -0.03613074
     atom    5 type  1   force =    -0.00028063   -0.04250706   -0.03613074
     atom    6 type  1   force =     0.00000000    0.00000000    0.01256315
     atom    7 type  1   force =     0.00000000    0.00000000   -0.01095447
     atom    8 type  2   force =     0.00677293    0.00000000    0.02293038
     atom    9 type  2   force =     0.00000000    0.00000000    0.01926775
     atom   10 type  1   force =    -0.00004671   -0.01729514    0.00148356
     atom   11 type  1   force =    -0.00004671    0.01729514    0.00148356
     atom   12 type  1   force =     0.00000000    0.00000000    0.00356624
     atom   13 type  1   force =     0.00000000    0.00000000    0.00000657
     atom   14 type  2   force =    -0.00008269    0.00000000   -0.00005887
     atom   15 type  2   force =     0.00000000    0.00000000   -0.00032357
     atom   16 type  1   force =    -0.00008235    0.00000466    0.00002709
     atom   17 type  1   force =    -0.00008235   -0.00000466    0.00002709
     atom   18 type  1   force =     0.00000000    0.00000000    0.00060986
     atom   19 type  1   force =     0.00000000    0.00000000    0.00058563
     atom   20 type  2   force =    -0.00025140    0.00000000    0.00066133
     atom   21 type  2   force =     0.00000000    0.00000000    0.00064822
     atom   22 type  1   force =     0.00001298    0.00018206    0.00029532
     atom   23 type  1   force =     0.00001298   -0.00018206    0.00029532
     atom   24 type  1   force =     0.00000000    0.00000000    0.00070070
     atom   25 type  1   force =     0.00000000    0.00000000    0.07267397
     atom   26 type  2   force =    -0.00034311    0.00000000   -0.11964208
     atom   27 type  2   force =     0.00000000    0.00000000    0.08035870
     atom   28 type  1   force =     0.00028063    0.04250706   -0.03613074
     atom   29 type  1   force =     0.00028063   -0.04250706   -0.03613074
     atom   30 type  1   force =     0.00000000    0.00000000    0.01457435
     atom   31 type  1   force =     0.00000000    0.00000000   -0.01030227
     atom   32 type  2   force =    -0.00677293    0.00000000    0.02293038
     atom   33 type  2   force =     0.00000000    0.00000000   -0.00862056
     atom   34 type  1   force =     0.00004671   -0.01729514    0.00148356
     atom   35 type  1   force =     0.00004671    0.01729514    0.00148356
     atom   36 type  1   force =     0.00000000    0.00000000    0.00088791
     atom   37 type  1   force =     0.00000000    0.00000000   -0.00006352
     atom   38 type  2   force =     0.00008269   -0.00000000   -0.00005887
     atom   39 type  2   force =     0.00000000    0.00000000    0.00047890
     atom   40 type  1   force =     0.00008235    0.00000466    0.00002709
     atom   41 type  1   force =     0.00008235   -0.00000466    0.00002709
     atom   42 type  1   force =     0.00000000    0.00000000   -0.00026673
     atom   43 type  1   force =     0.00000000    0.00000000    0.00028775
     atom   44 type  2   force =     0.00025140    0.00000000    0.00066133
     atom   45 type  2   force =     0.00000000    0.00000000   -0.00068716
     atom   46 type  1   force =    -0.00001298    0.00018206    0.00029532
     atom   47 type  1   force =    -0.00001298   -0.00018206    0.00029532
     atom   48 type  1   force =     0.00000000    0.00000000    0.00010339
     atom   49 type  1   force =     0.00000000    0.00000000   -0.00092141

     Total force =     0.002232     Total SCF correction =     0.000208

     bfgs converged in   3 scf cycles and   2 bfgs steps
     (criteria: energy < 0.10E-03, force < 0.10E-02)

     End of BFGS Geometry Optimization

     Final energy   =   -3881.1774683415 Ry
Begin final coordinates

ATOMIC_POSITIONS (crystal)
O0       0.000000000   0.500000000   0.335490000    0   0   0
Cr1      0.250000000   0.500000000   0.370120000    0   0   0
Cr1      0.000000000   0.000000000   0.370120000    0   0   0
O0       0.250000000   0.800000000   0.370120000    0   0   0
O0       0.250000000   0.200000000   0.370120000    0   0   0
O0       0.000000000   0.500000000   0.404750000    0   0   0
O0       0.000000000   0.000000000   0.422070000    0   0   0
Cr1      0.250000000   0.000000000   0.456710000    0   0   0
Cr1      0.000000000   0.500000000   0.456710000    0   0   0
O0       0.250000000   0.700000000   0.456710000    0   0   0
O0       0.250000000   0.300000000   0.456710000    0   0   0
O0       0.000000000   0.000000000   0.491340000    0   0   0
O0       0.000000000   0.500000000   0.510042205
Cr1      0.258955490   0.500000000   0.544340217
Cr1      0.000000000   0.000000000   0.545870053
O0       0.249846625   0.803487346   0.545339724
O0       0.249846625   0.196512654   0.545339724
O0       0.000000000   0.500000000   0.579276325
O0       0.000000000   0.000000000   0.599820825
Cr1      0.245706145   0.000000000   0.637790280
Cr1      0.000000000   0.500000000   0.627513275
O0       0.247999990   0.688810291   0.637417085
O0       0.247999990   0.311189709   0.637417085
O0       0.000000000   0.000000000   0.668387923
O0       0.500000000   0.500000000   0.335490000    0   0   0
Cr1      0.750000000   0.500000000   0.370120000    0   0   0
Cr1      0.500000000   0.000000000   0.370120000    0   0   0
O0       0.750000000   0.800000000   0.370120000    0   0   0
O0       0.750000000   0.200000000   0.370120000    0   0   0
O0       0.500000000   0.500000000   0.404750000    0   0   0
O0       0.500000000   0.000000000   0.422070000    0   0   0
Cr1      0.750000000   0.000000000   0.456710000    0   0   0
Cr1      0.500000000   0.500000000   0.456710000    0   0   0
O0       0.750000000   0.700000000   0.456710000    0   0   0
O0       0.750000000   0.300000000   0.456710000    0   0   0
O0       0.500000000   0.000000000   0.491340000    0   0   0
O0       0.500000000   0.500000000   0.509669864
Cr1      0.741044510   0.500000000   0.544340217
Cr1      0.500000000   0.000000000   0.547855186
O0       0.750153375   0.803487346   0.545339724
O0       0.750153375   0.196512654   0.545339724
O0       0.500000000   0.500000000   0.577837270
O0       0.500000000   0.000000000   0.599105633
Cr1      0.754293855  -0.000000000   0.637790280
Cr1      0.500000000   0.500000000   0.649012064
O0       0.752000010   0.688810291   0.637417085
O0       0.752000010   0.311189709   0.637417085
O0       0.500000000   0.000000000   0.666235569
O0       0.500000000   0.500000000   0.692753532
End final coordinates



     init_run     :    129.17s CPU    150.44s WALL (       1 calls)
     electrons    :  27086.76s CPU  29259.64s WALL (       3 calls)
     update_pot   :     19.37s CPU     20.29s WALL (       2 calls)
     forces       :    504.39s CPU    506.55s WALL (       3 calls)

     Called by init_run:
     wfcinit      :     82.32s CPU     87.00s WALL (       1 calls)
     potinit      :      3.93s CPU      4.04s WALL (       1 calls)

     Called by electrons:
     c_bands      :  20140.72s CPU  20916.43s WALL (      71 calls)
     sum_band     :   4029.55s CPU   4205.93s WALL (      71 calls)
     v_of_rho     :    106.37s CPU    112.24s WALL (      74 calls)
     newd         :   2729.00s CPU   3947.42s WALL (      74 calls)
     mix_rho      :     13.97s CPU     15.12s WALL (      71 calls)

     Called by c_bands:
     init_us_2    :     13.07s CPU     13.84s WALL (     730 calls)
     cegterg      :  19928.84s CPU  20702.39s WALL (     355 calls)

     Called by *egterg:
     h_psi        :   6298.08s CPU   6893.46s WALL (    1044 calls)
     s_psi        :   1478.42s CPU   1489.36s WALL (    1044 calls)
     g_psi        :     12.33s CPU     12.38s WALL (     684 calls)
     cdiaghg      :   5159.65s CPU   5225.20s WALL (    1029 calls)

     Called by h_psi:
     add_vuspsi   :   1479.18s CPU   1490.66s WALL (    1044 calls)

     General routines
     calbec       :   2244.45s CPU   2259.04s WALL (    1414 calls)
     fft          :    136.41s CPU    143.74s WALL (    2321 calls)
     ffts         :      1.34s CPU      1.54s WALL (     290 calls)
     fftw         :   2935.95s CPU   3663.61s WALL ( 1141013 calls)
     interpolate  :     11.67s CPU     13.33s WALL (     290 calls)

     Parallel routines
     fft_scatter  :    944.02s CPU   1427.81s WALL ( 1143624 calls)

     PWSCF        :     7h43m CPU        8h20m WALL


   This run was terminated on:   2:45:31  11May2014            

=------------------------------------------------------------------------------=
   JOB DONE.
=------------------------------------------------------------------------------=
