
     Program PWSCF v.5.0.2 (svn rev. 9656) starts on  7Apr2014 at 21:18:42 

     This program is part of the open-source Quantum ESPRESSO suite
     for quantum simulation of materials; please cite
         "P. Giannozzi et al., J. Phys.:Condens. Matter 21 395502 (2009);
          URL http://www.quantum-espresso.org", 
     in publications or presentations arising from this work. More details at
     http://www.quantum-espresso.org/quote.php

     Parallel version (MPI), running on    16 processors
     R & G space division:  proc/nbgrp/npool/nimage =      16

     Current dimensions of program PWSCF are:
     Max number of different atomic species (ntypx) = 10
     Max number of k-points (npk) =  40000
     Max angular momentum in pseudopotentials (lmaxx) =  3
     Reading input from pwscf.in
Warning: card &CELL ignored
Warning: card / ignored

     Subspace diagonalization in iterative solution of the eigenvalue problem:
     a serial algorithm will be used


     Parallelization info
     --------------------
     sticks:   dense  smooth     PW     G-vecs:    dense   smooth      PW
     Min         356     114     31                84254    15234    2255
     Max         357     115     32                84261    15271    2270
     Sum        5697    1827    505              1348107   244131   36167



     bravais-lattice index     =            0
     lattice parameter (alat)  =      11.7541  a.u.
     unit-cell volume          =    7139.8207 (a.u.)^3
     number of atoms/cell      =           31
     number of atomic types    =            3
     number of electrons       =       238.00
     number of Kohn-Sham states=          357
     kinetic-energy cutoff     =      40.0000  Ry
     charge density cutoff     =     500.0000  Ry
     convergence threshold     =      1.0E-06
     mixing beta               =       0.3000
     number of iterations used =            8  plain     mixing
     Exchange-correlation      = SLA  PW   PBE  PBE ( 1 4 3 4 0)
     EXX-fraction              =        0.00
     nstep                     =           50


     celldm(1)=  11.754097  celldm(2)=   0.000000  celldm(3)=   0.000000
     celldm(4)=   0.000000  celldm(5)=   0.000000  celldm(6)=   0.000000

     crystal axes: (cart. coord. in units of alat)
               a(1) = (   1.000000   0.000000   0.000000 )  
               a(2) = (   0.000000   1.034513   0.000000 )  
               a(3) = (   0.000000   0.000000   4.249947 )  

     reciprocal axes: (cart. coord. in units 2 pi/alat)
               b(1) = (  1.000000  0.000000  0.000000 )  
               b(2) = (  0.000000  0.966638  0.000000 )  
               b(3) = (  0.000000  0.000000  0.235297 )  


     PseudoPot. # 1 for O  read from file:
     /home/camp/zhonxu/pseudo/o_pbe_v1.01.uspp.F.UPF
     MD5 check sum: 2bcb18d16ea4b960afae9ec6d52f22d2
     Pseudo is Ultrasoft + core correction, Zval =  6.0
     Generated by new atomic code, or converted to UPF format
     Using radial grid of  737 points,  5 beta functions with: 
                l(1) =   0
                l(2) =   0
                l(3) =   1
                l(4) =   1
                l(5) =   2
     Q(r) pseudized with  8 coefficients,  rinner =    0.900   0.900   0.900
                                                       0.900   0.900

     PseudoPot. # 2 for Rh read from file:
     /home/camp/zhonxu/pseudo/rh_pbe_v1.uspp.F.UPF
     MD5 check sum: 37b626987ad0dd8ec6bf4cc9ef289918
     Pseudo is Ultrasoft + core correction, Zval = 15.0
     Generated by new atomic code, or converted to UPF format
     Using radial grid of  969 points,  7 beta functions with: 
                l(1) =   0
                l(2) =   0
                l(3) =   1
                l(4) =   1
                l(5) =   2
                l(6) =   2
                l(7) =   2
     Q(r) pseudized with  6 coefficients,  rinner =    1.050   1.050   1.050
                                                       1.050   1.050

     PseudoPot. # 3 for H  read from file:
     /home/camp/zhonxu/pseudo/h_pbe_v1.uspp.F.UPF
     MD5 check sum: 3408e3ff4ec8b0a4e358431e7e038a48
     Pseudo is Ultrasoft, Zval =  1.0
     Generated by new atomic code, or converted to UPF format
     Using radial grid of  615 points,  2 beta functions with: 
                l(1) =   0
                l(2) =   0
     Q(r) pseudized with  8 coefficients,  rinner =    0.700

     atomic species   valence    mass     pseudopotential
        O0             6.00    15.99940     O ( 1.00)
        Rh1           15.00   102.90550     Rh( 1.00)
        H2             1.00     1.00794     H ( 1.00)

     Starting magnetic structure 
     atomic species   magnetization
        O0           0.000
        Rh1          0.000
        H2           0.000

     No symmetry found



   Cartesian axes

     site n.     atom                  positions (alat units)
         1           O0  tau(   1) = (   0.0000000   0.0000000   1.6092425  )
         2           O0  tau(   2) = (   0.0000000   0.5172566   1.7020614  )
         3           Rh1 tau(   3) = (   0.2500000   0.5172566   1.9209336  )
         4           Rh1 tau(   4) = (   0.0000000   0.0000000   1.9260761  )
         5           O0  tau(   5) = (   0.2500000   0.8379556   1.9243336  )
         6           O0  tau(   6) = (   0.2500000   0.1965575   1.9234411  )
         7           O0  tau(   7) = (   0.0000000   0.5172566   2.1185137  )
         8           O0  tau(   8) = (   0.0000000   0.0000000   2.2473721  )
         9           Rh1 tau(   9) = (   0.2500000   0.0000000   2.4498821  )
        10           Rh1 tau(  10) = (   0.0000000   0.5172566   2.4276124  )
        11           O0  tau(  11) = (   0.2500000   0.7138141   2.4560020  )
        12           O0  tau(  12) = (   0.2500000   0.3206991   2.4560870  )
        13           O0  tau(  13) = (   0.0000000   0.0000000   2.6421072  )
        14           O0  tau(  14) = (   0.5000000   0.0000000   1.6092425  )
        15           O0  tau(  15) = (   0.5000000   0.5172566   1.7020614  )
        16           Rh1 tau(  16) = (   0.7500000   0.5172566   1.9209336  )
        17           Rh1 tau(  17) = (   0.5000000   0.0000000   1.9260761  )
        18           O0  tau(  18) = (   0.7500000   0.8379556   1.9243336  )
        19           O0  tau(  19) = (   0.7500000   0.1965575   1.9234411  )
        20           O0  tau(  20) = (   0.5000000   0.5172566   2.1185137  )
        21           O0  tau(  21) = (   0.5000000   0.0000000   2.2473721  )
        22           Rh1 tau(  22) = (   0.7500000   0.0000000   2.4498821  )
        23           Rh1 tau(  23) = (   0.5000000   0.5172566   2.4276124  )
        24           O0  tau(  24) = (   0.7500000   0.7138141   2.4560020  )
        25           O0  tau(  25) = (   0.7500000   0.3206991   2.4560870  )
        26           O0  tau(  26) = (   0.5000000   0.0000000   2.6421072  )
        27           H2  tau(  27) = (  -0.0000700   0.6610229   1.6318947  )
        28           H2  tau(  28) = (   0.4999300   0.6610125   1.6318947  )
        29           H2  tau(  29) = (   0.1484400   0.0336527   1.5632581  )
        30           H2  tau(  30) = (   0.6484400   0.0336527   1.5632581  )
        31           O0  tau(  31) = (   0.5000300   0.5168428   2.7156313  )

     number of k points=    20  Methfessel-Paxton smearing, width (Ry)=  0.0100
                       cart. coord. in units 2pi/alat
        k(    1) = (   0.0000000   0.0000000   0.0000000), wk =   0.0625000
        k(    2) = (   0.0000000   0.2416596   0.0000000), wk =   0.1250000
        k(    3) = (   0.0000000  -0.4833191   0.0000000), wk =   0.0625000
        k(    4) = (   0.2500000   0.0000000   0.0000000), wk =   0.1250000
        k(    5) = (   0.2500000   0.2416596   0.0000000), wk =   0.1250000
        k(    6) = (   0.2500000  -0.4833191   0.0000000), wk =   0.1250000
        k(    7) = (  -0.5000000   0.0000000   0.0000000), wk =   0.0625000
        k(    8) = (  -0.5000000   0.2416596   0.0000000), wk =   0.1250000
        k(    9) = (  -0.5000000  -0.4833191   0.0000000), wk =   0.0625000
        k(   10) = (  -0.2500000   0.2416596   0.0000000), wk =   0.1250000
        k(   11) = (   0.0000000   0.0000000   0.0000000), wk =   0.0625000
        k(   12) = (   0.0000000   0.2416596   0.0000000), wk =   0.1250000
        k(   13) = (   0.0000000  -0.4833191   0.0000000), wk =   0.0625000
        k(   14) = (   0.2500000   0.0000000   0.0000000), wk =   0.1250000
        k(   15) = (   0.2500000   0.2416596   0.0000000), wk =   0.1250000
        k(   16) = (   0.2500000  -0.4833191   0.0000000), wk =   0.1250000
        k(   17) = (  -0.5000000   0.0000000   0.0000000), wk =   0.0625000
        k(   18) = (  -0.5000000   0.2416596   0.0000000), wk =   0.1250000
        k(   19) = (  -0.5000000  -0.4833191   0.0000000), wk =   0.0625000
        k(   20) = (  -0.2500000   0.2416596   0.0000000), wk =   0.1250000

     Dense  grid:  1348107 G-vectors     FFT dimensions: (  90,  90, 360)

     Smooth grid:   244131 G-vectors     FFT dimensions: (  48,  50, 216)

     Largest allocated arrays     est. size (Mb)     dimensions
        Kohn-Sham Wavefunctions        10.66 Mb     (   1957,  357)
        NL pseudopotentials            13.11 Mb     (   1957,  439)
        Each V/rho on FFT grid          5.69 Mb     ( 186300,   2)
        Each G-vector array             0.64 Mb     (  84258)
        G-vector shells                 0.31 Mb     (  41027)
     Largest temporary arrays     est. size (Mb)     dimensions
        Auxiliary wavefunctions        42.64 Mb     (   1957, 1428)
        Each subspace H/S matrix       31.12 Mb     (1428,1428)
        Each <psi_i|beta_j> matrix      2.39 Mb     (    439,  357)
        Arrays for rho mixing          22.74 Mb     ( 186300,   8)

     Check: negative/imaginary core charge=   -0.000003    0.000000

     Initial potential from superposition of free atoms
     Check: negative starting charge=(component1):   -0.321414
     Check: negative starting charge=(component2):   -0.321414

     starting charge  233.99915, renormalised to  238.00000

     negative rho (up, down):  0.327E+00 0.327E+00
     Starting wfc are  176 randomized atomic wfcs

     total cpu time spent up to now is      159.1 secs

     per-process dynamical memory:   304.3 Mb

     Self-consistent Calculation

     iteration #  1     ecut=    40.00 Ry     beta=0.30
     Davidson diagonalization with overlap
     ethr =  1.00E-02,  avg # of iterations =  6.0

     negative rho (up, down):  0.331E+00 0.331E+00

     total cpu time spent up to now is     1333.3 secs

     total energy              =   -1972.18908524 Ry
     Harris-Foulkes estimate   =   -1983.70739207 Ry
     estimated scf accuracy    <      24.20483761 Ry

     total magnetization       =     0.00 Bohr mag/cell
     absolute magnetization    =     0.01 Bohr mag/cell

     iteration #  2     ecut=    40.00 Ry     beta=0.30
     Davidson diagonalization with overlap
     ethr =  1.00E-02,  avg # of iterations =  3.0

     negative rho (up, down):  0.334E+00 0.334E+00

     total cpu time spent up to now is     1848.5 secs

     total energy              =   -1962.50532520 Ry
     Harris-Foulkes estimate   =   -2000.86966311 Ry
     estimated scf accuracy    <     439.10248655 Ry

     total magnetization       =    -0.00 Bohr mag/cell
     absolute magnetization    =     0.01 Bohr mag/cell

     iteration #  3     ecut=    40.00 Ry     beta=0.30
     Davidson diagonalization with overlap
     ethr =  1.00E-02,  avg # of iterations =  3.1

     negative rho (up, down):  0.336E+00 0.336E+00

     total cpu time spent up to now is     2375.9 secs

     total energy              =   -1976.29441682 Ry
     Harris-Foulkes estimate   =   -1982.46883144 Ry
     estimated scf accuracy    <      63.07833390 Ry

     total magnetization       =     0.00 Bohr mag/cell
     absolute magnetization    =     0.00 Bohr mag/cell

     iteration #  4     ecut=    40.00 Ry     beta=0.30
     Davidson diagonalization with overlap
     ethr =  1.00E-02,  avg # of iterations =  2.0

     negative rho (up, down):  0.338E+00 0.338E+00

     total cpu time spent up to now is     2807.9 secs

     total energy              =   -1980.01436610 Ry
     Harris-Foulkes estimate   =   -1980.94468216 Ry
     estimated scf accuracy    <       5.93783685 Ry

     total magnetization       =     0.00 Bohr mag/cell
     absolute magnetization    =     0.00 Bohr mag/cell

     iteration #  5     ecut=    40.00 Ry     beta=0.30
     Davidson diagonalization with overlap
     ethr =  2.49E-03,  avg # of iterations =  1.3

     negative rho (up, down):  0.339E+00 0.339E+00

     total cpu time spent up to now is     3210.2 secs

     total energy              =   -1980.25092999 Ry
     Harris-Foulkes estimate   =   -1980.51899096 Ry
     estimated scf accuracy    <       3.16368476 Ry

     total magnetization       =     0.00 Bohr mag/cell
     absolute magnetization    =     0.00 Bohr mag/cell

     iteration #  6     ecut=    40.00 Ry     beta=0.30
     Davidson diagonalization with overlap
     ethr =  1.33E-03,  avg # of iterations =  1.0

     negative rho (up, down):  0.340E+00 0.340E+00

     total cpu time spent up to now is     3606.4 secs

     total energy              =   -1980.27754466 Ry
     Harris-Foulkes estimate   =   -1980.44661680 Ry
     estimated scf accuracy    <       1.70064505 Ry

     total magnetization       =     0.00 Bohr mag/cell
     absolute magnetization    =     0.00 Bohr mag/cell

     iteration #  7     ecut=    40.00 Ry     beta=0.30
     Davidson diagonalization with overlap
     ethr =  7.15E-04,  avg # of iterations =  1.2

     negative rho (up, down):  0.341E+00 0.341E+00

     total cpu time spent up to now is     4007.2 secs

     total energy              =   -1980.28705077 Ry
     Harris-Foulkes estimate   =   -1980.37756983 Ry
     estimated scf accuracy    <       1.25762476 Ry

     total magnetization       =     0.00 Bohr mag/cell
     absolute magnetization    =     0.00 Bohr mag/cell

     iteration #  8     ecut=    40.00 Ry     beta=0.30
     Davidson diagonalization with overlap
     ethr =  5.28E-04,  avg # of iterations =  2.4

     negative rho (up, down):  0.342E+00 0.342E+00

     total cpu time spent up to now is     4437.9 secs

     total energy              =   -1980.26128566 Ry
     Harris-Foulkes estimate   =   -1980.32425811 Ry
     estimated scf accuracy    <       0.41988717 Ry

     total magnetization       =     0.00 Bohr mag/cell
     absolute magnetization    =     0.00 Bohr mag/cell

     iteration #  9     ecut=    40.00 Ry     beta=0.30
     Davidson diagonalization with overlap
     ethr =  1.76E-04,  avg # of iterations =  5.0

     negative rho (up, down):  0.343E+00 0.343E+00

     total cpu time spent up to now is     4949.3 secs

     total energy              =   -1980.23625855 Ry
     Harris-Foulkes estimate   =   -1980.31356712 Ry
     estimated scf accuracy    <       1.28106017 Ry

     total magnetization       =     0.00 Bohr mag/cell
     absolute magnetization    =     0.00 Bohr mag/cell

     iteration # 10     ecut=    40.00 Ry     beta=0.30
     Davidson diagonalization with overlap
     ethr =  1.76E-04,  avg # of iterations =  1.0

     negative rho (up, down):  0.344E+00 0.344E+00

     total cpu time spent up to now is     5345.5 secs

     total energy              =   -1980.26750828 Ry
     Harris-Foulkes estimate   =   -1980.27968366 Ry
     estimated scf accuracy    <       0.08322620 Ry

     total magnetization       =     0.00 Bohr mag/cell
     absolute magnetization    =     0.00 Bohr mag/cell

     iteration # 11     ecut=    40.00 Ry     beta=0.30
     Davidson diagonalization with overlap
     ethr =  3.50E-05,  avg # of iterations =  4.0

     negative rho (up, down):  0.344E+00 0.344E+00

     total cpu time spent up to now is     5827.0 secs

     total energy              =   -1980.26610898 Ry
     Harris-Foulkes estimate   =   -1980.28021225 Ry
     estimated scf accuracy    <       0.11777959 Ry

     total magnetization       =     0.00 Bohr mag/cell
     absolute magnetization    =     0.00 Bohr mag/cell

     iteration # 12     ecut=    40.00 Ry     beta=0.30
     Davidson diagonalization with overlap
     ethr =  3.50E-05,  avg # of iterations =  1.9

     negative rho (up, down):  0.344E+00 0.344E+00

     total cpu time spent up to now is     6245.5 secs

     total energy              =   -1980.26456856 Ry
     Harris-Foulkes estimate   =   -1980.27815473 Ry
     estimated scf accuracy    <       0.19569704 Ry

     total magnetization       =     0.00 Bohr mag/cell
     absolute magnetization    =     0.00 Bohr mag/cell

     iteration # 13     ecut=    40.00 Ry     beta=0.30
     Davidson diagonalization with overlap
     ethr =  3.50E-05,  avg # of iterations =  1.6

     negative rho (up, down):  0.345E+00 0.345E+00

     total cpu time spent up to now is     6655.7 secs

     total energy              =   -1980.26761173 Ry
     Harris-Foulkes estimate   =   -1980.27858235 Ry
     estimated scf accuracy    <       0.22195159 Ry

     total magnetization       =     0.00 Bohr mag/cell
     absolute magnetization    =     0.00 Bohr mag/cell

     iteration # 14     ecut=    40.00 Ry     beta=0.30
     Davidson diagonalization with overlap
     ethr =  3.50E-05,  avg # of iterations =  1.0

     negative rho (up, down):  0.346E+00 0.346E+00

     total cpu time spent up to now is     7051.8 secs

     total energy              =   -1980.27257590 Ry
     Harris-Foulkes estimate   =   -1980.27440759 Ry
     estimated scf accuracy    <       0.01480366 Ry

     total magnetization       =     0.00 Bohr mag/cell
     absolute magnetization    =     0.00 Bohr mag/cell

     iteration # 15     ecut=    40.00 Ry     beta=0.30
     Davidson diagonalization with overlap
     ethr =  6.22E-06,  avg # of iterations =  6.0

     negative rho (up, down):  0.346E+00 0.346E+00

     total cpu time spent up to now is     7590.1 secs

     total energy              =   -1980.27330251 Ry
     Harris-Foulkes estimate   =   -1980.27391301 Ry
     estimated scf accuracy    <       0.00740487 Ry

     total magnetization       =     0.00 Bohr mag/cell
     absolute magnetization    =     0.00 Bohr mag/cell

     iteration # 16     ecut=    40.00 Ry     beta=0.30
     Davidson diagonalization with overlap
     ethr =  3.11E-06,  avg # of iterations =  2.5

     negative rho (up, down):  0.346E+00 0.346E+00

     total cpu time spent up to now is     8026.1 secs

     total energy              =   -1980.27329475 Ry
     Harris-Foulkes estimate   =   -1980.27377707 Ry
     estimated scf accuracy    <       0.00327753 Ry

     total magnetization       =     0.00 Bohr mag/cell
     absolute magnetization    =     0.00 Bohr mag/cell

     iteration # 17     ecut=    40.00 Ry     beta=0.30
     Davidson diagonalization with overlap
     c_bands:  1 eigenvalues not converged
     c_bands:  1 eigenvalues not converged
     ethr =  1.38E-06,  avg # of iterations =  4.2

     negative rho (up, down):  0.346E+00 0.346E+00

     total cpu time spent up to now is     8502.6 secs

     total energy              =   -1980.27308323 Ry
     Harris-Foulkes estimate   =   -1980.27407427 Ry
     estimated scf accuracy    <       0.01930577 Ry

     total magnetization       =     0.00 Bohr mag/cell
     absolute magnetization    =     0.00 Bohr mag/cell

     iteration # 18     ecut=    40.00 Ry     beta=0.30
     Davidson diagonalization with overlap
     ethr =  1.38E-06,  avg # of iterations =  1.4

     negative rho (up, down):  0.346E+00 0.346E+00

     total cpu time spent up to now is     8908.0 secs

     total energy              =   -1980.27353936 Ry
     Harris-Foulkes estimate   =   -1980.27363022 Ry
     estimated scf accuracy    <       0.00076961 Ry

     total magnetization       =     0.00 Bohr mag/cell
     absolute magnetization    =     0.00 Bohr mag/cell

     iteration # 19     ecut=    40.00 Ry     beta=0.30
     Davidson diagonalization with overlap
     ethr =  3.23E-07,  avg # of iterations =  1.0

     negative rho (up, down):  0.346E+00 0.346E+00

     total cpu time spent up to now is     9299.4 secs

     total energy              =   -1980.27352987 Ry
     Harris-Foulkes estimate   =   -1980.27369461 Ry
     estimated scf accuracy    <       0.00203711 Ry

     total magnetization       =     0.00 Bohr mag/cell
     absolute magnetization    =     0.00 Bohr mag/cell

     iteration # 20     ecut=    40.00 Ry     beta=0.30
     Davidson diagonalization with overlap
     ethr =  3.23E-07,  avg # of iterations =  1.0

     negative rho (up, down):  0.346E+00 0.346E+00

     total cpu time spent up to now is     9689.8 secs

     total energy              =   -1980.27360929 Ry
     Harris-Foulkes estimate   =   -1980.27362430 Ry
     estimated scf accuracy    <       0.00020159 Ry

     total magnetization       =     0.00 Bohr mag/cell
     absolute magnetization    =     0.00 Bohr mag/cell

     iteration # 21     ecut=    40.00 Ry     beta=0.30
     Davidson diagonalization with overlap
     ethr =  8.47E-08,  avg # of iterations =  1.0

     negative rho (up, down):  0.346E+00 0.346E+00

     total cpu time spent up to now is    10083.9 secs

     total energy              =   -1980.27361511 Ry
     Harris-Foulkes estimate   =   -1980.27362493 Ry
     estimated scf accuracy    <       0.00011418 Ry

     total magnetization       =     0.00 Bohr mag/cell
     absolute magnetization    =     0.01 Bohr mag/cell

     iteration # 22     ecut=    40.00 Ry     beta=0.30
     Davidson diagonalization with overlap
     ethr =  4.80E-08,  avg # of iterations =  1.0

     negative rho (up, down):  0.346E+00 0.346E+00

     total cpu time spent up to now is    10477.7 secs

     total energy              =   -1980.27361915 Ry
     Harris-Foulkes estimate   =   -1980.27362174 Ry
     estimated scf accuracy    <       0.00003687 Ry

     total magnetization       =     0.01 Bohr mag/cell
     absolute magnetization    =     0.01 Bohr mag/cell

     iteration # 23     ecut=    40.00 Ry     beta=0.30
     Davidson diagonalization with overlap
     ethr =  1.55E-08,  avg # of iterations =  1.0

     negative rho (up, down):  0.346E+00 0.346E+00

     total cpu time spent up to now is    10871.1 secs

     total energy              =   -1980.27362077 Ry
     Harris-Foulkes estimate   =   -1980.27362124 Ry
     estimated scf accuracy    <       0.00001546 Ry

     total magnetization       =     0.01 Bohr mag/cell
     absolute magnetization    =     0.01 Bohr mag/cell

     iteration # 24     ecut=    40.00 Ry     beta=0.30
     Davidson diagonalization with overlap
     ethr =  6.50E-09,  avg # of iterations =  1.0

     negative rho (up, down):  0.346E+00 0.346E+00

     total cpu time spent up to now is    11264.5 secs

     total energy              =   -1980.27362218 Ry
     Harris-Foulkes estimate   =   -1980.27362187 Ry
     estimated scf accuracy    <       0.00001193 Ry

     total magnetization       =     0.01 Bohr mag/cell
     absolute magnetization    =     0.02 Bohr mag/cell

     iteration # 25     ecut=    40.00 Ry     beta=0.30
     Davidson diagonalization with overlap
     ethr =  5.01E-09,  avg # of iterations =  1.0

     negative rho (up, down):  0.346E+00 0.346E+00

     total cpu time spent up to now is    11658.0 secs

     total energy              =   -1980.27362303 Ry
     Harris-Foulkes estimate   =   -1980.27362284 Ry
     estimated scf accuracy    <       0.00000788 Ry

     total magnetization       =     0.02 Bohr mag/cell
     absolute magnetization    =     0.03 Bohr mag/cell

     iteration # 26     ecut=    40.00 Ry     beta=0.30
     Davidson diagonalization with overlap
     ethr =  3.31E-09,  avg # of iterations =  1.0

     negative rho (up, down):  0.346E+00 0.346E+00

     total cpu time spent up to now is    12051.2 secs

     total energy              =   -1980.27362232 Ry
     Harris-Foulkes estimate   =   -1980.27362306 Ry
     estimated scf accuracy    <       0.00000714 Ry

     total magnetization       =     0.02 Bohr mag/cell
     absolute magnetization    =     0.03 Bohr mag/cell

     iteration # 27     ecut=    40.00 Ry     beta=0.30
     Davidson diagonalization with overlap
     ethr =  3.00E-09,  avg # of iterations =  1.0

     negative rho (up, down):  0.346E+00 0.346E+00

     total cpu time spent up to now is    12444.7 secs

     total energy              =   -1980.27362142 Ry
     Harris-Foulkes estimate   =   -1980.27362245 Ry
     estimated scf accuracy    <       0.00000752 Ry

     total magnetization       =     0.02 Bohr mag/cell
     absolute magnetization    =     0.02 Bohr mag/cell

     iteration # 28     ecut=    40.00 Ry     beta=0.30
     Davidson diagonalization with overlap
     ethr =  3.00E-09,  avg # of iterations =  1.0

     negative rho (up, down):  0.346E+00 0.346E+00

     total cpu time spent up to now is    12838.6 secs

     total energy              =   -1980.27361898 Ry
     Harris-Foulkes estimate   =   -1980.27362210 Ry
     estimated scf accuracy    <       0.00001792 Ry

     total magnetization       =     0.02 Bohr mag/cell
     absolute magnetization    =     0.02 Bohr mag/cell

     iteration # 29     ecut=    40.00 Ry     beta=0.30
     Davidson diagonalization with overlap
     ethr =  3.00E-09,  avg # of iterations =  1.0

     negative rho (up, down):  0.346E+00 0.346E+00

     total cpu time spent up to now is    13232.1 secs

     total energy              =   -1980.27362001 Ry
     Harris-Foulkes estimate   =   -1980.27362065 Ry
     estimated scf accuracy    <       0.00000387 Ry

     total magnetization       =     0.00 Bohr mag/cell
     absolute magnetization    =     0.00 Bohr mag/cell

     iteration # 30     ecut=    40.00 Ry     beta=0.30
     Davidson diagonalization with overlap
     ethr =  1.63E-09,  avg # of iterations =  1.0

     negative rho (up, down):  0.346E+00 0.346E+00

     total cpu time spent up to now is    13626.0 secs

     total energy              =   -1980.27361987 Ry
     Harris-Foulkes estimate   =   -1980.27362083 Ry
     estimated scf accuracy    <       0.00001424 Ry

     total magnetization       =     0.00 Bohr mag/cell
     absolute magnetization    =     0.00 Bohr mag/cell

     iteration # 31     ecut=    40.00 Ry     beta=0.30
     Davidson diagonalization with overlap
     ethr =  1.63E-09,  avg # of iterations =  1.0

     negative rho (up, down):  0.346E+00 0.346E+00

     total cpu time spent up to now is    14022.5 secs

     total energy              =   -1980.27362007 Ry
     Harris-Foulkes estimate   =   -1980.27362070 Ry
     estimated scf accuracy    <       0.00000692 Ry

     total magnetization       =     0.00 Bohr mag/cell
     absolute magnetization    =     0.00 Bohr mag/cell

     iteration # 32     ecut=    40.00 Ry     beta=0.30
     Davidson diagonalization with overlap
     ethr =  1.63E-09,  avg # of iterations =  1.0

     negative rho (up, down):  0.346E+00 0.346E+00

     total cpu time spent up to now is    14421.3 secs

     total energy              =   -1980.27362029 Ry
     Harris-Foulkes estimate   =   -1980.27362052 Ry
     estimated scf accuracy    <       0.00000184 Ry

     total magnetization       =     0.00 Bohr mag/cell
     absolute magnetization    =     0.00 Bohr mag/cell

     iteration # 33     ecut=    40.00 Ry     beta=0.30
     Davidson diagonalization with overlap
     ethr =  7.74E-10,  avg # of iterations =  1.0

     negative rho (up, down):  0.346E+00 0.346E+00

     total cpu time spent up to now is    14819.3 secs

     total energy              =   -1980.27362033 Ry
     Harris-Foulkes estimate   =   -1980.27362047 Ry
     estimated scf accuracy    <       0.00000184 Ry

     total magnetization       =     0.00 Bohr mag/cell
     absolute magnetization    =     0.00 Bohr mag/cell

     iteration # 34     ecut=    40.00 Ry     beta=0.30
     Davidson diagonalization with overlap
     ethr =  7.74E-10,  avg # of iterations =  1.0

     negative rho (up, down):  0.346E+00 0.346E+00

     total cpu time spent up to now is    15217.5 secs

     total energy              =   -1980.27362029 Ry
     Harris-Foulkes estimate   =   -1980.27362052 Ry
     estimated scf accuracy    <       0.00000462 Ry

     total magnetization       =     0.00 Bohr mag/cell
     absolute magnetization    =     0.00 Bohr mag/cell

     iteration # 35     ecut=    40.00 Ry     beta=0.30
     Davidson diagonalization with overlap
     ethr =  7.74E-10,  avg # of iterations =  1.0

     negative rho (up, down):  0.346E+00 0.346E+00

     total cpu time spent up to now is    15613.8 secs

     End of self-consistent calculation

 ------ SPIN UP ------------


          k = 0.0000 0.0000 0.0000 ( 30479 PWs)   bands (ev):

   -50.5993 -50.2493 -50.1995 -49.7947 -49.7870 -49.7598 -49.7136 -49.7033
   -49.6497 -49.6476 -49.5823 -49.5705 -49.5556 -49.5387 -49.5309 -49.4809
   -49.4764 -49.4471 -49.3677 -49.3536 -49.3519 -49.3501 -49.3245 -49.2550
   -21.8933 -21.4269 -21.3629 -21.2543 -20.9364 -20.8090 -20.6035 -20.4891
   -20.4866 -20.4780 -20.3494 -20.2803 -20.2687 -20.0312 -19.9741 -19.9085
   -19.2347 -19.1004 -18.8583 -10.1909 -10.1458  -9.9400  -9.2500  -9.0509
    -8.9565  -8.9470  -8.8805  -8.8554  -8.8478  -8.7667  -8.5916  -8.5431
    -8.4991  -8.3565  -8.3256  -8.2195  -8.1499  -8.0737  -7.8278  -7.6449
    -7.3917  -7.3010  -7.0813  -6.9342  -6.9093  -6.8697  -6.4602  -6.3489
    -6.1671  -6.1003  -6.0909  -5.9891  -5.7760  -5.6925  -5.6485  -5.6142
    -5.6021  -5.5089  -5.4283  -5.3434  -5.1258  -5.0675  -5.0230  -5.0016
    -4.8706  -4.8214  -4.7585  -4.6048  -4.5474  -4.4585  -4.4082  -4.2197
    -4.2031  -4.0424  -4.0158  -3.9916  -3.9491  -3.8288  -3.7210  -3.6886
    -3.5908  -3.4899  -3.4424  -3.3863  -3.3801  -3.1306  -2.9095  -2.8688
    -2.7476  -2.6835  -2.4714  -2.4165  -2.3883  -2.0991  -1.9763  -1.8699
    -1.8047  -1.6671  -1.5547  -1.4212  -1.3298  -0.6455  -0.1719  -0.1095
    -0.0983   0.0049   0.1839   0.3502   0.5467   0.8250   1.3587   1.3965
     1.4607   1.5761   1.8517   2.3148   2.7701   3.9953   4.1739   4.7043
     4.9486   5.6505   5.8775   5.9188   5.9442   6.6276   6.7476   6.9471
     7.3543   7.6258   7.6609   7.6976   7.7968   7.8420   7.8445   7.8870
     7.9583   8.0885   8.1964   8.2037   8.2265   8.2546   8.3567   8.4577
     8.5261   8.6725   8.7404   8.7457   8.9559   9.0582   9.1416   9.2298
     9.2980   9.4073   9.4994   9.5898   9.7023   9.8885   9.9449  10.0744
    10.2627  10.3477  10.4785  10.5360  10.5528  10.8167  10.8358  11.0147
    11.0415  11.0579  11.1005  11.1101  11.1923  11.3010  11.3665  11.4082
    11.5581  11.5822  11.6488  11.6664  11.7365  11.7631  11.7894  11.9296
    12.0011  12.0427  12.0506  12.1036  12.2127  12.2765  12.3269  12.3740
    12.4459  12.4910  12.5475  12.6597  12.6765  12.7756  12.8088  12.9210
    12.9515  13.0761  13.0893  13.3291  13.3532  13.5886  13.6302  13.6489
    13.6635  13.7540  13.8648  13.9753  14.0316  14.1101  14.2274  14.2746
    14.3648  14.5117  14.5547  14.6523  14.7368  14.8407  15.0014  15.0423
    15.1759  15.2178  15.3705  15.4310  15.5259  15.5450  15.6030  15.6910
    15.7543  15.8581  15.8933  16.1592  16.1745  16.2967  16.3111  16.3937
    16.6470  16.7035  16.7219  16.9130  16.9301  17.0962  17.1064  17.2001
    17.3297  17.3586  17.4355  17.5696  17.6788  17.7655  17.8253  17.9121
    18.0041  18.0710  18.1375  18.2019  18.2430  18.3067  18.3394  18.3808
    18.4964  18.5277  18.6754  18.7737  18.8102  18.8404  18.9617  19.1118
    19.1457  19.2138  19.2535  19.2899  19.3214  19.3854  19.4023  19.4468
    19.4808  19.6454  19.6630  19.7151  19.7276  19.7608  19.8709  19.9553
    19.9835  19.9936  20.1309  20.1911  20.2689  20.2817  20.3030  20.3576
    20.4305  20.5549  20.5788  20.6551  20.8279  20.9388  20.9739  21.0507
    21.1219  21.1367  21.1866  21.3193  21.3364  21.4012  21.4162  21.5050
    21.5877  21.6009  21.6582  21.8150  21.8744  21.9752  21.9837  22.0085
    22.1712  22.2266  22.2460  22.3123  22.3647  22.3726  22.4295  22.4463
    22.4960  22.5173  22.6157  22.6304  22.6988

          k = 0.0000 0.2417 0.0000 ( 30538 PWs)   bands (ev):

   -50.5994 -50.2492 -50.1997 -49.7946 -49.7874 -49.7602 -49.7136 -49.7034
   -49.6499 -49.6474 -49.5811 -49.5706 -49.5554 -49.5383 -49.5312 -49.4827
   -49.4764 -49.4471 -49.3677 -49.3536 -49.3520 -49.3502 -49.3246 -49.2552
   -21.8443 -21.4240 -21.3047 -21.2028 -20.9287 -20.8112 -20.6924 -20.5642
   -20.5390 -20.3908 -20.2963 -20.2743 -20.2679 -20.1290 -19.9923 -19.9744
   -19.2316 -19.0953 -18.8605 -10.0074  -9.7818  -9.7082  -9.4050  -9.0694
    -8.9854  -8.9252  -8.9028  -8.8790  -8.8241  -8.6835  -8.5466  -8.5304
    -8.4918  -8.4759  -8.3269  -8.2984  -8.0734  -7.9498  -7.5654  -7.4088
    -7.3350  -7.2544  -7.0880  -6.8905  -6.8227  -6.7850  -6.7677  -6.5756
    -6.5384  -6.3311  -6.1368  -6.1207  -5.9110  -5.8982  -5.8617  -5.6479
    -5.5874  -5.5316  -5.4882  -5.4628  -5.3772  -5.2300  -5.1542  -4.9965
    -4.9257  -4.8767  -4.7822  -4.6718  -4.5033  -4.4370  -4.2640  -4.2084
    -4.1141  -3.9932  -3.9056  -3.7189  -3.6678  -3.6280  -3.6061  -3.5567
    -3.4887  -3.4753  -3.4012  -3.3967  -3.3655  -3.3046  -3.2477  -3.0996
    -2.9380  -2.7029  -2.4715  -2.4420  -2.1291  -2.0289  -1.9319  -1.8171
    -1.7996  -1.6323  -1.5610  -1.4558  -1.3159  -0.9935  -0.9206  -0.3641
    -0.1383   0.1098   0.5948   0.8220   1.1438   1.2184   1.2819   1.3880
     1.4300   1.4974   1.8533   2.1685   3.0711   4.2704   4.3942   4.8639
     5.0708   5.1794   5.9858   6.0315   6.0920   6.2170   6.4151   6.7298
     6.7541   6.9239   7.0740   7.4363   7.4901   7.5522   7.7161   8.0208
     8.0246   8.2855   8.3373   8.3388   8.3982   8.4369   8.5747   8.7114
     8.7352   8.7987   8.9973   9.0434   9.1166   9.2731   9.3710   9.4279
     9.5784   9.6027   9.6457   9.7157   9.8716   9.9805  10.0036  10.1191
    10.1687  10.2199  10.3518  10.4112  10.4615  10.5315  10.6047  10.6413
    10.7349  10.7925  10.8857  10.9119  11.1495  11.2419  11.2789  11.2992
    11.3202  11.4379  11.5197  11.6349  11.6779  11.7596  11.8770  11.8912
    12.0266  12.0736  12.2605  12.2741  12.4213  12.4840  12.5864  12.7065
    12.7268  12.7703  12.8139  12.8371  13.0659  13.0962  13.1824  13.2505
    13.4215  13.4443  13.5500  13.6912  13.7384  13.7405  13.7923  13.9684
    14.0033  14.0230  14.1104  14.1312  14.1848  14.3121  14.3951  14.4209
    14.4491  14.5759  14.7083  14.7167  14.8159  14.8602  14.8722  15.0714
    15.1699  15.2820  15.3107  15.4698  15.5230  15.5568  15.7468  15.7519
    15.7697  15.8528  15.9104  15.9939  16.0130  16.0564  16.2405  16.3546
    16.4026  16.5315  16.5538  16.6231  16.6505  16.7571  16.8623  16.9212
    16.9576  17.0977  17.1482  17.2155  17.3719  17.4773  17.4966  17.5770
    17.6530  17.7248  17.8104  17.9831  18.0225  18.1085  18.1757  18.2807
    18.3385  18.3859  18.4324  18.4850  18.5659  18.7377  18.7898  18.8467
    18.8935  19.0138  19.0725  19.1541  19.1744  19.3212  19.3920  19.4175
    19.4485  19.5094  19.5386  19.5725  19.6249  19.6729  19.7380  19.7523
    19.8634  19.9466  19.9752  20.0397  20.0549  20.0671  20.0821  20.1995
    20.3184  20.3585  20.3740  20.4958  20.5386  20.5801  20.6399  20.6965
    20.8184  20.9208  20.9476  21.0277  21.0760  21.0917  21.1545  21.1922
    21.2267  21.2545  21.3091  21.3735  21.4147  21.5021  21.6743  21.7081
    21.7925  21.8387  21.8703  21.8977  21.9439  22.0046  22.0862  22.1904
    22.2112  22.2494  22.3035  22.3161  22.4512

          k = 0.0000-0.4833 0.0000 ( 30492 PWs)   bands (ev):

   -50.5994 -50.2490 -50.1997 -49.7945 -49.7875 -49.7605 -49.7135 -49.7034
   -49.6498 -49.6471 -49.5797 -49.5705 -49.5550 -49.5378 -49.5314 -49.4846
   -49.4762 -49.4468 -49.3677 -49.3535 -49.3519 -49.3501 -49.3245 -49.2553
   -21.7924 -21.4217 -21.2500 -21.1254 -20.9033 -20.7721 -20.7456 -20.6787
   -20.6114 -20.3438 -20.3054 -20.2638 -20.2451 -20.2261 -20.0577 -19.9748
   -19.2284 -19.0907 -18.8633  -9.9787  -9.5276  -9.2700  -9.1554  -9.1192
    -9.0519  -8.9189  -8.8717  -8.8468  -8.7827  -8.5648  -8.5433  -8.5013
    -8.4766  -8.3841  -8.3296  -8.2943  -8.1151  -7.6740  -7.5904  -7.5596
    -7.4119  -7.3954  -7.3130  -7.2809  -6.7746  -6.6998  -6.6933  -6.6050
    -6.5412  -6.4093  -6.2934  -6.2580  -6.1936  -6.0928  -5.9961  -5.9632
    -5.6842  -5.5505  -5.5335  -5.4462  -5.4060  -5.2254  -4.9378  -4.8843
    -4.8323  -4.8185  -4.7452  -4.6251  -4.4715  -4.4285  -4.4047  -4.2252
    -4.0404  -4.0156  -3.9556  -3.9265  -3.8953  -3.7202  -3.7016  -3.5119
    -3.4939  -3.4780  -3.3815  -3.2573  -3.1680  -3.0571  -3.0026  -2.9950
    -2.9561  -2.6678  -2.4848  -2.4112  -2.3261  -2.0973  -2.0513  -1.8526
    -1.7133  -1.6212  -1.5187  -1.5135  -1.3650  -1.3553  -1.1955  -0.1417
    -0.1099   0.4312   0.7070   0.8208   0.9968   1.1841   1.3851   1.5456
     1.6775   1.8544   1.8574   1.8748   3.6078   4.2034   4.8501   5.0308
     5.1425   5.3674   5.5647   5.7529   5.8037   5.9901   6.2714   6.4956
     6.5660   6.6799   7.0146   7.0505   7.1377   7.5056   7.8974   7.9843
     8.0952   8.3970   8.4275   8.5107   8.5557   8.5698   8.8482   8.9379
     8.9473   8.9708   9.0592   9.0660   9.0951   9.1695   9.2603   9.3275
     9.3327   9.5043   9.5272   9.5886   9.6260   9.7301   9.9214  10.0003
    10.1597  10.2029  10.2916  10.3150  10.4570  10.5039  10.5434  10.7231
    10.8739  10.9102  11.0768  11.1712  11.2113  11.3182  11.3797  11.4300
    11.4820  11.7391  11.8068  11.8245  11.8826  12.0593  12.1186  12.1947
    12.2734  12.2806  12.4275  12.5189  12.5749  12.6954  12.7111  12.7448
    12.8236  12.9511  12.9998  13.0291  13.0923  13.1280  13.2118  13.2349
    13.2636  13.4082  13.4634  13.5375  13.5928  13.6371  13.7032  13.7551
    13.8937  13.9594  14.0935  14.2114  14.2664  14.3646  14.4253  14.5792
    14.6363  14.8418  15.0232  15.0442  15.0802  15.0998  15.2333  15.2413
    15.2495  15.3669  15.4609  15.5462  15.6069  15.8005  15.8262  15.8616
    16.0456  16.0925  16.1408  16.1455  16.3059  16.3285  16.3397  16.3662
    16.4798  16.5150  16.5430  16.5953  16.6395  16.7286  16.7875  16.8227
    16.9168  16.9970  17.0477  17.0652  17.1864  17.2449  17.2940  17.3121
    17.3765  17.5208  17.5616  17.5780  17.6565  17.7635  17.8509  17.8794
    17.9217  17.9566  18.0239  18.1717  18.1870  18.2551  18.2735  18.3592
    18.3701  18.4292  18.4333  18.5160  18.6634  18.6846  18.8160  18.8722
    18.9694  19.1800  19.3703  19.3985  19.4250  19.5170  19.5898  19.6271
    19.6454  19.7186  19.7569  19.8457  20.0210  20.0484  20.1963  20.2199
    20.2745  20.3182  20.4497  20.4966  20.5087  20.5329  20.5551  20.6143
    20.6327  20.7151  20.7354  20.7760  20.8487  20.8557  20.9036  20.9230
    20.9617  21.0050  21.1666  21.2567  21.2691  21.3088  21.3393  21.3792
    21.4534  21.4870  21.5347  21.6058  21.6246  21.6530  21.6922  21.7544
    21.7942  21.9258  22.1370  22.2523  22.2687

          k = 0.2500 0.0000 0.0000 ( 30502 PWs)   bands (ev):

   -50.5993 -50.2493 -50.1973 -49.7936 -49.7882 -49.7444 -49.7129 -49.7035
   -49.6616 -49.6337 -49.5825 -49.5705 -49.5576 -49.5545 -49.5340 -49.4802
   -49.4769 -49.4321 -49.3651 -49.3626 -49.3527 -49.3507 -49.3322 -49.2550
   -21.7989 -21.4446 -21.2881 -21.1604 -21.0028 -20.8348 -20.6909 -20.5994
   -20.4260 -20.4249 -20.2875 -20.2608 -20.2342 -20.1004 -20.0057 -19.9757
   -19.2638 -19.1502 -18.8578 -10.0204  -9.9760  -9.7872  -9.3572  -9.0846
    -8.9949  -8.9628  -8.8733  -8.8637  -8.8331  -8.7908  -8.7276  -8.5656
    -8.4035  -8.2905  -8.2275  -8.1112  -8.0539  -7.8553  -7.7330  -7.6732
    -7.4704  -7.3416  -7.0923  -6.8970  -6.7913  -6.6634  -6.5400  -6.4803
    -6.3040  -6.2217  -6.2098  -6.1913  -6.0475  -5.9992  -5.8366  -5.7270
    -5.6467  -5.5976  -5.4393  -5.3430  -5.3062  -5.2230  -5.0972  -5.0631
    -4.9983  -4.9674  -4.8607  -4.8133  -4.7704  -4.6265  -4.3737  -4.2247
    -4.0750  -3.9882  -3.8970  -3.8268  -3.7415  -3.7304  -3.6652  -3.5782
    -3.5352  -3.2650  -3.1872  -3.1037  -3.0291  -2.9901  -2.8740  -2.6967
    -2.6612  -2.5498  -2.5310  -2.3433  -2.2041  -2.1845  -2.0445  -2.0297
    -1.8613  -1.7677  -1.5871  -1.4509  -1.3666  -0.5017  -0.0751  -0.0287
     0.0259   0.1477   0.2092   0.3444   0.5380   0.6274   1.1159   1.2409
     1.2563   1.4073   1.5663   2.2059   3.1146   4.3096   4.4306   4.9481
     5.0155   5.2110   5.8996   6.0567   6.2056   6.2653   6.6026   6.7460
     7.0239   7.1211   7.3447   7.3794   7.5860   7.7999   7.8803   7.9491
     7.9819   8.1017   8.1428   8.1966   8.3184   8.4215   8.5004   8.5689
     8.7266   8.8036   8.8900   9.0698   9.1811   9.2346   9.3217   9.4292
     9.5232   9.6732   9.7671   9.7945   9.9139   9.9950  10.0502  10.1000
    10.1916  10.2513  10.3217  10.3942  10.4277  10.4907  10.5928  10.7540
    10.7762  10.8229  10.8883  10.9594  11.0379  11.1542  11.2078  11.2932
    11.3247  11.3664  11.4076  11.4878  11.5684  11.6986  11.7347  11.8843
    11.9376  12.0420  12.1574  12.2281  12.3902  12.5106  12.5510  12.5908
    12.6860  12.7754  12.8537  12.8840  12.9809  13.1097  13.2071  13.2891
    13.4325  13.5189  13.5585  13.7279  13.8046  13.8553  13.8754  13.9829
    14.0201  14.0677  14.1433  14.1752  14.2121  14.3184  14.4133  14.4717
    14.5223  14.5613  14.6344  14.7132  14.7543  14.9308  15.0906  15.1622
    15.2446  15.2807  15.3826  15.4822  15.5246  15.5946  15.6573  15.7771
    15.8255  15.9427  16.0052  16.0494  16.0926  16.1243  16.1957  16.2284
    16.2990  16.4187  16.5240  16.5691  16.6418  16.7950  16.8617  17.0454
    17.0844  17.1327  17.2854  17.3167  17.3900  17.4280  17.6400  17.7032
    17.7814  17.8511  17.8714  18.0210  18.0577  18.1205  18.2258  18.2794
    18.4822  18.5396  18.5655  18.7107  18.8212  18.9458  18.9748  19.0183
    19.0447  19.0915  19.1191  19.1541  19.2351  19.2906  19.3122  19.3972
    19.4194  19.4325  19.5484  19.5706  19.6147  19.6741  19.6977  19.7687
    19.7872  19.8517  19.9034  19.9578  19.9944  20.1109  20.1754  20.2123
    20.2409  20.3028  20.3825  20.4109  20.4511  20.4722  20.5728  20.6575
    20.6917  20.7489  20.8040  20.8696  20.9011  20.9223  20.9480  21.0880
    21.1464  21.2311  21.2797  21.3054  21.3272  21.3507  21.4977  21.5484
    21.5596  21.6103  21.6822  21.7097  21.7889  21.8631  21.9368  21.9998
    22.0196  22.0920  22.1727  22.2240  22.2845

          k = 0.2500 0.2417 0.0000 ( 30481 PWs)   bands (ev):

   -50.5994 -50.2491 -50.1974 -49.7935 -49.7883 -49.7445 -49.7129 -49.7035
   -49.6617 -49.6337 -49.5812 -49.5705 -49.5569 -49.5544 -49.5339 -49.4819
   -49.4770 -49.4319 -49.3651 -49.3626 -49.3527 -49.3507 -49.3322 -49.2551
   -21.7589 -21.4416 -21.2299 -21.1101 -20.9826 -20.8300 -20.6791 -20.5909
   -20.4738 -20.4623 -20.3119 -20.2640 -20.2440 -20.1887 -20.0467 -20.0062
   -19.2617 -19.1461 -18.8587  -9.8568  -9.6255  -9.5507  -9.3937  -9.0158
    -8.9372  -8.9164  -8.8786  -8.8592  -8.7800  -8.7382  -8.6969  -8.6274
    -8.4115  -8.2500  -8.1948  -8.0766  -8.0359  -7.7806  -7.7236  -7.5639
    -7.5005  -7.3607  -7.1304  -6.9357  -6.8651  -6.7077  -6.5975  -6.4998
    -6.4667  -6.3839  -6.3621  -6.3238  -6.2257  -6.0706  -6.0067  -5.9789
    -5.8892  -5.7204  -5.6413  -5.5693  -5.4191  -5.2573  -5.1950  -5.1212
    -4.9584  -4.9147  -4.8849  -4.7268  -4.6349  -4.5183  -4.3636  -4.1669
    -4.0048  -3.8706  -3.8000  -3.7813  -3.6195  -3.5096  -3.4733  -3.3840
    -3.3440  -3.2130  -3.1981  -3.1563  -3.1137  -3.0660  -2.9855  -2.8906
    -2.8452  -2.6665  -2.4234  -2.1918  -2.1744  -2.1049  -2.0211  -1.9429
    -1.8638  -1.7821  -1.6689  -1.6003  -1.2005  -0.7572  -0.6938  -0.2729
    -0.0142   0.1185   0.4326   0.5808   0.8864   1.0507   1.0901   1.2597
     1.3201   1.5033   1.5529   2.1210   3.3946   4.5646   4.6467   5.0926
     5.1838   5.3302   5.4629   6.1673   6.2587   6.4219   6.4641   6.6555
     6.7755   6.9117   7.0176   7.1981   7.2333   7.3636   7.4895   7.7217
     7.7931   7.8260   8.0138   8.0754   8.2633   8.3320   8.4580   8.5440
     8.6995   8.7516   8.8775   8.9821   9.2103   9.3605   9.4113   9.4998
     9.6220   9.6490   9.7159   9.7853   9.8859  10.0692  10.2044  10.2713
    10.3103  10.4155  10.5052  10.6049  10.6781  10.7651  10.8209  10.8905
    10.9384  10.9740  11.0756  11.1985  11.2730  11.4058  11.4419  11.5871
    11.6042  11.6925  11.7602  11.8217  11.8683  11.8988  11.9743  12.0797
    12.1713  12.3031  12.3418  12.4372  12.5879  12.6591  12.7249  12.7690
    12.7876  12.8273  12.8633  12.9331  12.9824  13.0409  13.1065  13.1844
    13.3340  13.3844  13.4492  13.5707  13.6104  13.7376  13.8121  13.8765
    13.9428  14.0368  14.0542  14.1957  14.2489  14.3622  14.4181  14.5181
    14.5588  14.5921  14.7410  14.8861  14.9833  15.1041  15.1562  15.2538
    15.3965  15.4133  15.5145  15.5532  15.6285  15.6979  15.7905  15.8202
    15.9071  16.0059  16.0300  16.0622  16.1047  16.1668  16.2189  16.3013
    16.4290  16.4419  16.4765  16.5124  16.5639  16.6547  16.7060  16.7662
    16.8250  16.9097  16.9637  17.0405  17.1629  17.2773  17.3017  17.3591
    17.4340  17.5047  17.5574  17.6143  17.6529  17.7960  17.8306  17.8790
    17.8993  18.0264  18.1469  18.1749  18.2399  18.3201  18.3590  18.4137
    18.4604  18.5680  18.6691  18.6921  18.7277  18.7944  18.9082  18.9638
    19.0683  19.0923  19.1290  19.1655  19.2268  19.2818  19.3708  19.4825
    19.5518  19.5907  19.6480  19.7578  19.8450  19.8882  20.0450  20.1135
    20.1407  20.2049  20.3257  20.4009  20.4570  20.5660  20.6049  20.6463
    20.6799  20.7023  20.8352  20.8829  20.9374  20.9774  21.0391  21.1598
    21.1946  21.2857  21.3256  21.3897  21.4763  21.5777  21.6535  21.7349
    21.7566  21.8357  21.8904  21.9147  21.9748  22.0362  22.0876  22.1057
    22.2538  22.2758  22.3837  22.4318  22.4979

          k = 0.2500-0.4833 0.0000 ( 30510 PWs)   bands (ev):

   -50.5993 -50.2491 -50.1975 -49.7935 -49.7886 -49.7450 -49.7128 -49.7035
   -49.6615 -49.6338 -49.5803 -49.5705 -49.5563 -49.5543 -49.5339 -49.4834
   -49.4774 -49.4318 -49.3651 -49.3625 -49.3527 -49.3507 -49.3321 -49.2554
   -21.7183 -21.4385 -21.1431 -21.0877 -20.9468 -20.7563 -20.6562 -20.6109
   -20.5946 -20.4933 -20.3400 -20.3232 -20.2648 -20.2296 -20.0943 -20.0067
   -19.2596 -19.1423 -18.8600  -9.8269  -9.4151  -9.1143  -8.9728  -8.9307
    -8.9098  -8.8982  -8.8416  -8.8287  -8.8077  -8.6991  -8.6297  -8.6110
    -8.4895  -8.3097  -8.1318  -8.0876  -7.9663  -7.7063  -7.6614  -7.5355
    -7.4353  -7.3502  -7.1836  -7.1296  -7.1037  -7.0251  -6.7922  -6.7435
    -6.6170  -6.5596  -6.4884  -6.4320  -6.3014  -6.2399  -6.1938  -6.1403
    -5.9918  -5.9544  -5.7505  -5.4919  -5.3471  -5.2617  -5.1747  -5.0877
    -4.9826  -4.7846  -4.7165  -4.6460  -4.5849  -4.3465  -4.2957  -4.1598
    -4.1144  -3.9333  -3.7489  -3.7122  -3.5971  -3.5308  -3.4369  -3.4059
    -3.3450  -3.3139  -3.2145  -3.1460  -3.0440  -3.0019  -2.8634  -2.7458
    -2.6223  -2.5689  -2.4570  -2.3781  -2.1517  -2.1389  -2.1124  -1.8736
    -1.8690  -1.7225  -1.7081  -1.6117  -1.2090  -1.1717  -1.0462  -0.1354
     0.0141   0.3354   0.3978   0.5500   0.6523   1.0611   1.3420   1.4052
     1.5455   1.6123   1.7790   1.8916   3.8822   4.4812   5.0669   5.2806
     5.4020   5.4623   5.6339   5.8117   6.0197   6.0928   6.2745   6.2877
     6.6981   6.8037   6.9648   7.1053   7.2721   7.3317   7.4073   7.5460
     7.6013   7.8390   7.9250   8.0005   8.0254   8.2182   8.2706   8.2946
     8.3887   8.6116   8.7173   8.7989   8.9943   9.1179   9.3879   9.4369
     9.5059   9.7025   9.9033   9.9991  10.0092  10.1498  10.3771  10.4394
    10.5753  10.5851  10.7687  10.8194  10.9518  10.9932  11.0756  11.1084
    11.2470  11.2991  11.4177  11.4978  11.5536  11.5911  11.6908  11.7738
    11.7849  11.8250  11.9864  12.0811  12.1497  12.2101  12.2691  12.3793
    12.3952  12.4821  12.5243  12.5371  12.6093  12.6881  12.7302  12.8201
    12.9112  12.9994  13.0928  13.1432  13.2330  13.2601  13.3521  13.3849
    13.4205  13.4829  13.5334  13.6067  13.6408  13.7926  13.8131  13.8608
    14.0175  14.1265  14.2847  14.3015  14.3494  14.3583  14.4423  14.4811
    14.5116  14.5665  14.6317  14.7233  14.7496  14.8866  14.9309  14.9807
    15.0229  15.1058  15.1279  15.2820  15.3519  15.4057  15.4488  15.5075
    15.5862  15.7178  15.8426  15.9175  15.9851  16.0315  16.1320  16.1639
    16.2240  16.3374  16.3574  16.5078  16.5706  16.6246  16.6538  16.7215
    16.8147  16.9160  16.9271  16.9834  17.1104  17.1544  17.2455  17.2655
    17.2793  17.3838  17.4155  17.4254  17.4764  17.6029  17.6475  17.6786
    17.8473  17.9096  17.9478  18.0447  18.0952  18.1224  18.2621  18.3608
    18.3772  18.4582  18.5125  18.5497  18.6177  18.6534  18.6903  18.7219
    18.7894  18.9180  18.9358  19.0087  19.0846  19.1153  19.1716  19.2031
    19.3736  19.4073  19.4276  19.6254  19.6463  19.6797  19.7203  19.7877
    19.8715  19.9289  19.9420  19.9853  20.0646  20.1878  20.3155  20.3407
    20.4838  20.5955  20.6444  20.6997  20.7694  20.8125  20.9177  20.9644
    21.0708  21.1049  21.1492  21.2087  21.2350  21.3046  21.4197  21.4716
    21.6278  21.7062  21.8211  21.8934  21.9642  21.9838  22.0208  22.1251
    22.1826  22.2429  22.3153  22.4352  22.4933

          k =-0.5000 0.0000 0.0000 ( 30524 PWs)   bands (ev):

   -50.5993 -50.2492 -50.1951 -49.7914 -49.7904 -49.7178 -49.7141 -49.6989
   -49.6901 -49.5946 -49.5941 -49.5820 -49.5704 -49.5597 -49.5367 -49.4795
   -49.4774 -49.3970 -49.3947 -49.3596 -49.3582 -49.3453 -49.3411 -49.2550
   -21.6076 -21.5604 -21.1782 -21.0969 -20.9299 -20.8933 -20.8307 -20.7722
   -20.3225 -20.3079 -20.2651 -20.2634 -20.1394 -20.1293 -20.1175 -20.1018
   -19.2787 -19.2162 -18.8570  -9.6496  -9.6073  -9.5387  -9.4827  -9.4413
    -9.4263  -9.0218  -8.9305  -8.7654  -8.7582  -8.7322  -8.6720  -8.6051
    -8.5802  -8.1161  -8.0674  -7.9985  -7.9576  -7.6877  -7.5809  -7.2933
    -7.2613  -7.1385  -7.1302  -7.1028  -7.0542  -6.7702  -6.7597  -6.6468
    -6.5837  -6.4427  -6.2848  -6.1455  -6.1339  -6.0398  -5.9586  -5.8774
    -5.8322  -5.7592  -5.7087  -5.5204  -5.4145  -5.4007  -5.3290  -5.1962
    -5.0782  -4.9578  -4.8861  -4.8280  -4.5575  -4.4427  -4.2892  -4.1081
    -4.0810  -4.0373  -3.8796  -3.8285  -3.6243  -3.6190  -3.5935  -3.5409
    -3.4173  -3.1744  -3.0601  -2.9348  -2.8314  -2.7694  -2.6951  -2.6512
    -2.6104  -2.4675  -2.2898  -2.2415  -2.1628  -2.1601  -2.1140  -2.0356
    -1.9580  -1.9486  -1.7252  -1.7212  -1.1945  -0.2236  -0.0425  -0.0052
     0.1571   0.3046   0.4155   0.5782   0.5868   0.6059   0.6107   0.6990
     0.7000   1.4348   1.5133   2.0174   3.9357   3.9423   4.9448   5.1229
     5.1279   5.4556   5.6192   5.8326   5.9501   6.0211   6.5073   6.5386
     6.6990   6.8837   6.9459   7.2174   7.6608   7.7935   7.8347   8.1631
     8.1927   8.2128   8.5178   8.5906   8.6569   8.7559   8.7691   8.8503
     8.8640   8.9090   9.0372   9.1509   9.1736   9.2444   9.2992   9.3044
     9.3494   9.4038   9.4114   9.5327   9.6372   9.6759   9.7933   9.8925
     9.9438  10.0508  10.0570  10.1894  10.2146  10.2326  10.4623  10.6241
    10.8445  10.8678  10.9083  11.0624  11.1351  11.3402  11.4343  11.5765
    11.5859  11.6148  11.6529  11.6814  11.8251  11.8371  11.9976  12.0703
    12.2620  12.3574  12.4534  12.5095  12.6601  12.7153  12.8123  12.8573
    12.9928  13.0155  13.0603  13.0899  13.1219  13.2050  13.2308  13.2731
    13.4269  13.5040  13.5710  13.5993  13.7242  13.8255  13.8757  13.8926
    13.9565  14.0541  14.0969  14.1101  14.1782  14.2668  14.3982  14.6118
    14.6541  14.6928  14.8228  14.8814  14.9752  15.0311  15.1066  15.1652
    15.1922  15.2424  15.4194  15.5318  15.8710  15.8972  15.9334  16.0954
    16.1121  16.1532  16.2100  16.2178  16.3515  16.3702  16.4361  16.4396
    16.5363  16.5540  16.6667  16.6735  16.7462  16.7751  16.7974  16.8575
    16.8744  16.9189  16.9358  17.0333  17.2289  17.2534  17.3840  17.4574
    17.5402  17.6971  17.7051  17.7675  17.8846  17.9160  18.0852  18.1408
    18.1625  18.2565  18.2824  18.3480  18.4555  18.4884  18.5120  18.5473
    18.6242  18.7423  18.8052  18.8503  18.8866  18.9895  19.0972  19.1228
    19.1807  19.1928  19.2070  19.2183  19.3643  19.4274  19.4341  19.5722
    19.6940  19.7115  19.7249  19.8460  19.8561  19.8937  19.9372  19.9496
    20.0396  20.1736  20.2128  20.2656  20.2886  20.3105  20.3548  20.3840
    20.4387  20.4762  20.5141  20.5478  20.6481  20.6730  20.8378  20.8829
    20.9005  20.9100  20.9636  21.0220  21.0406  21.1154  21.1693  21.1887
    21.2295  21.2496  21.2728  21.3513  21.4004  21.4205  21.5422  21.5745
    21.7772  21.7984  21.8641  21.9169  22.0747

          k =-0.5000 0.2417 0.0000 ( 30500 PWs)   bands (ev):

   -50.5993 -50.2491 -50.1952 -49.7912 -49.7906 -49.7179 -49.7142 -49.6990
   -49.6903 -49.5946 -49.5941 -49.5811 -49.5704 -49.5585 -49.5366 -49.4803
   -49.4783 -49.3969 -49.3946 -49.3596 -49.3582 -49.3453 -49.3410 -49.2552
   -21.5909 -21.5429 -21.1400 -21.0437 -20.8889 -20.8459 -20.7753 -20.7425
   -20.4012 -20.3919 -20.3111 -20.3022 -20.2230 -20.2218 -20.0970 -20.0859
   -19.2749 -19.2146 -18.8568  -9.5515  -9.5088  -9.2605  -9.2494  -9.2276
    -9.2013  -8.9937  -8.9304  -8.7796  -8.7655  -8.5988  -8.5624  -8.4883
    -8.4684  -8.1795  -8.1237  -8.0362  -7.9800  -7.6699  -7.5649  -7.4790
    -7.4249  -7.3064  -7.2836  -7.1682  -7.0971  -6.8455  -6.7734  -6.7096
    -6.6695  -6.5264  -6.4380  -6.2905  -6.1873  -6.1059  -6.0780  -6.0357
    -5.9747  -5.8994  -5.8570  -5.7640  -5.7094  -5.4107  -5.2269  -5.1186
    -5.0608  -4.9950  -4.9039  -4.7967  -4.6762  -4.4577  -4.2320  -4.1490
    -4.0406  -3.9956  -3.6298  -3.6059  -3.5040  -3.4672  -3.2669  -3.2474
    -3.1861  -3.1575  -3.1109  -3.0156  -2.9607  -2.8993  -2.7892  -2.6889
    -2.4745  -2.4380  -2.2535  -2.2412  -2.1629  -2.1325  -2.0980  -2.0660
    -2.0226  -1.9610  -1.8506  -1.7736  -1.0707  -0.2634  -0.2546  -0.1160
    -0.0704   0.0647   0.1701   0.3618   0.3993   0.8222   0.9009   1.1041
     1.1415   1.4336   1.5769   2.0306   4.1567   4.1700   5.1113   5.3287
     5.3378   5.6670   5.7499   5.8897   6.0334   6.1879   6.2417   6.2841
     6.7819   6.9204   6.9653   7.1594   7.1786   7.2918   7.3493   7.5372
     7.7002   7.8321   7.9142   7.9437   8.0200   8.2801   8.3552   8.5264
     8.5601   8.7609   8.8032   8.9228   8.9799   9.0953   9.4620   9.5475
     9.5933   9.8246   9.8391   9.9418   9.9756  10.0524  10.1679  10.3312
    10.4028  10.4289  10.5398  10.7811  10.8050  10.9077  10.9558  11.0206
    11.0672  11.1913  11.2473  11.3201  11.4123  11.4301  11.5877  11.7076
    11.7571  11.8472  11.9232  11.9695  12.0500  12.1405  12.1742  12.2298
    12.4539  12.5141  12.5656  12.6297  12.6772  12.8496  12.9858  13.0029
    13.0929  13.1084  13.1811  13.2352  13.2649  13.3284  13.3678  13.4107
    13.5188  13.6040  13.6831  13.7572  13.7704  13.9311  13.9771  14.0496
    14.1054  14.1230  14.1744  14.2894  14.3155  14.3931  14.4093  14.4344
    14.5742  14.6078  14.7415  14.8355  14.9109  14.9373  14.9557  15.0242
    15.0683  15.1050  15.2855  15.3219  15.3893  15.4064  15.5031  15.5544
    15.5826  15.6380  15.8833  15.9137  16.0224  16.0928  16.1745  16.2398
    16.2701  16.3261  16.3755  16.4181  16.4473  16.5061  16.5703  16.5926
    16.6860  16.7564  16.7817  16.8443  16.9385  17.0186  17.0502  17.1259
    17.1906  17.2948  17.3198  17.3287  17.5137  17.5575  17.6947  17.7268
    17.8330  17.8613  17.9151  17.9630  18.0435  18.1230  18.3430  18.4112
    18.4745  18.5192  18.5668  18.5973  18.6936  18.7061  18.7599  18.8819
    18.9321  19.0003  19.0338  19.0907  19.1093  19.1544  19.1782  19.3236
    19.3947  19.4377  19.5298  19.5446  19.5886  19.6648  19.7843  19.8101
    19.8901  19.9364  20.1363  20.1876  20.2571  20.3021  20.3289  20.3662
    20.4568  20.6351  20.6721  20.7460  20.8118  20.8571  20.8957  21.0335
    21.0503  21.2453  21.2713  21.3909  21.4376  21.5000  21.5399  21.5677
    21.6508  21.6993  21.7239  21.8204  21.8728  21.9511  22.0726  22.1222
    22.1832  22.2293  22.2663  22.3584  22.3931

          k =-0.5000-0.4833 0.0000 ( 30496 PWs)   bands (ev):

   -50.5993 -50.2490 -50.1953 -49.7915 -49.7906 -49.7180 -49.7142 -49.6991
   -49.6905 -49.5945 -49.5940 -49.5804 -49.5704 -49.5575 -49.5364 -49.4813
   -49.4792 -49.3968 -49.3945 -49.3596 -49.3582 -49.3453 -49.3410 -49.2554
   -21.5749 -21.5262 -21.0951 -20.9581 -20.8553 -20.8505 -20.6057 -20.5757
   -20.5161 -20.5140 -20.4843 -20.4744 -20.2441 -20.2368 -20.0958 -20.0840
   -19.2713 -19.2131 -18.8569  -9.5101  -9.4708  -9.0553  -8.9663  -8.8781
    -8.8293  -8.8140  -8.8123  -8.7893  -8.6892  -8.4257  -8.4122  -8.3336
    -8.2682  -8.2150  -8.1872  -8.1693  -8.1647  -7.9001  -7.8608  -7.5796
    -7.5339  -7.3362  -7.3068  -7.2046  -7.0534  -6.9166  -6.7840  -6.7616
    -6.7098  -6.6829  -6.6655  -6.6456  -6.6138  -6.4424  -6.3732  -6.3034
    -6.2667  -6.0544  -5.9576  -5.5909  -5.4895  -5.4095  -5.2507  -5.0428
    -4.9650  -4.9247  -4.8234  -4.6935  -4.6559  -4.5263  -4.1538  -4.0647
    -3.8191  -3.7421  -3.6115  -3.5994  -3.5601  -3.4367  -3.3460  -3.2713
    -3.2086  -3.1741  -3.1227  -2.8705  -2.8419  -2.8017  -2.7554  -2.4801
    -2.3974  -2.3680  -2.2422  -2.1955  -2.1853  -2.1276  -2.1154  -2.0768
    -2.0493  -1.9629  -1.9004  -1.8453  -0.9899  -0.6414  -0.5332  -0.4615
    -0.3221  -0.0408   0.2181   0.4224   0.4275   1.1057   1.1412   1.1702
     1.3315   1.6045   1.6691   1.8980   4.5450   4.5530   5.2144   5.2169
     5.3762   5.9959   5.9991   6.1455   6.1460   6.3082   6.3617   6.4459
     6.5062   6.7061   6.7296   6.8163   6.8658   6.8798   7.0427   7.0857
     7.4376   7.4907   7.5134   7.6887   7.7079   7.9008   7.9969   8.1518
     8.4116   8.8260   8.9047   9.0119   9.0988   9.1094   9.2114   9.2837
     9.3207   9.4666  10.0296  10.1595  10.1683  10.3750  10.3809  10.7005
    10.7378  10.8404  10.9173  10.9264  10.9786  11.0161  11.1774  11.2091
    11.3468  11.3901  11.6370  11.7755  11.8228  11.9354  12.1196  12.1859
    12.2586  12.3413  12.4332  12.4362  12.5058  12.6010  12.6286  12.6707
    12.7449  12.7585  12.8111  13.0506  13.0854  13.2103  13.2242  13.2402
    13.3042  13.3131  13.4441  13.4496  13.5957  13.6656  13.6771  13.7274
    13.7331  13.7545  13.8174  13.8402  13.8638  13.8862  13.9540  13.9857
    14.0721  14.1563  14.1752  14.1897  14.2186  14.2389  14.3046  14.3358
    14.4103  14.4370  14.4398  14.5165  14.6110  14.6321  14.6866  14.7276
    14.8636  14.9493  15.0240  15.0904  15.0980  15.1331  15.2106  15.2325
    15.2701  15.3191  15.3515  15.3755  15.4152  15.4321  15.6390  15.6682
    15.7353  15.7875  15.8018  15.8384  15.9485  15.9685  16.0394  16.1156
    16.2062  16.2499  16.4500  16.4883  16.6053  16.6096  16.6549  16.7068
    16.9539  16.9642  16.9811  17.0252  17.1623  17.2092  17.3164  17.3687
    17.5969  17.6742  17.7050  17.7889  17.9520  18.0063  18.0296  18.0428
    18.1368  18.1681  18.2843  18.3475  18.5113  18.6226  18.6615  18.7952
    18.8884  19.1399  19.2224  19.2792  19.3362  19.4085  19.5198  19.5751
    19.6035  19.6247  19.7809  20.0396  20.0691  20.0911  20.1553  20.1742
    20.1764  20.3238  20.5851  20.5995  20.6351  20.7203  20.7297  20.7826
    20.7972  20.9075  21.0884  21.1348  21.1864  21.2553  21.2654  21.3033
    21.3280  21.3658  21.4027  21.4962  21.5013  21.5444  21.5652  21.6416
    21.6586  21.6704  21.7041  21.7123  21.7215  21.7911  21.8760  21.9699
    21.9761  22.0906  22.1200  22.2346  22.2552

          k =-0.2500 0.2417 0.0000 ( 30481 PWs)   bands (ev):

   -50.5994 -50.2491 -50.1974 -49.7935 -49.7883 -49.7447 -49.7129 -49.7035
   -49.6614 -49.6337 -49.5815 -49.5705 -49.5568 -49.5545 -49.5339 -49.4816
   -49.4772 -49.4319 -49.3651 -49.3626 -49.3527 -49.3507 -49.3322 -49.2551
   -21.7591 -21.4415 -21.2296 -21.1101 -20.9825 -20.8301 -20.6779 -20.5914
   -20.4738 -20.4655 -20.3119 -20.2629 -20.2416 -20.1900 -20.0469 -20.0061
   -19.2617 -19.1461 -18.8587  -9.8566  -9.6245  -9.5500  -9.3919  -9.0217
    -8.9512  -8.9159  -8.8830  -8.8529  -8.7789  -8.7358  -8.6860  -8.6216
    -8.3846  -8.2984  -8.2115  -8.0772  -8.0267  -7.8035  -7.6893  -7.5655
    -7.4524  -7.3538  -7.1338  -6.9409  -6.8645  -6.7119  -6.6176  -6.5397
    -6.4993  -6.3942  -6.3404  -6.2581  -6.2374  -6.0795  -6.0039  -5.9857
    -5.8918  -5.6974  -5.6467  -5.5378  -5.4369  -5.2854  -5.1713  -5.1294
    -5.0575  -4.8786  -4.8069  -4.7501  -4.6450  -4.5411  -4.3338  -4.1665
    -4.0055  -3.8765  -3.8099  -3.6927  -3.6111  -3.5049  -3.4859  -3.4114
    -3.3800  -3.2619  -3.1693  -3.1477  -3.1163  -3.0679  -3.0115  -2.8856
    -2.8348  -2.6324  -2.4324  -2.1846  -2.1736  -2.1082  -2.0289  -1.9459
    -1.8633  -1.7735  -1.6716  -1.6012  -1.2011  -0.7604  -0.6939  -0.2723
    -0.0138   0.1203   0.4326   0.5810   0.8806   1.0576   1.0873   1.2638
     1.3190   1.4995   1.5537   2.1218   3.3903   4.5660   4.6478   5.1107
     5.2031   5.3377   5.4588   6.1700   6.2537   6.3743   6.4736   6.6518
     6.7474   6.9056   7.0192   7.2038   7.2340   7.3692   7.4808   7.7167
     7.8022   7.8266   8.0236   8.1043   8.2401   8.3009   8.4608   8.5730
     8.6980   8.7413   8.8979   8.9677   9.2253   9.3612   9.4316   9.4840
     9.6418   9.6531   9.7209   9.7849   9.8759  10.0682  10.1670  10.2676
    10.3110  10.3914  10.5060  10.6076  10.6752  10.7702  10.8278  10.8756
    10.9409  11.0229  11.0848  11.1956  11.2931  11.4024  11.4708  11.5755
    11.6030  11.6928  11.7467  11.8298  11.8696  11.9015  11.9981  12.0965
    12.1861  12.2946  12.3417  12.4289  12.5773  12.6550  12.7144  12.7699
    12.7981  12.8361  12.8819  12.9249  12.9980  13.0302  13.1022  13.1815
    13.3185  13.3787  13.4389  13.5666  13.6195  13.7290  13.8317  13.8714
    13.9532  14.0112  14.0444  14.1591  14.2537  14.3392  14.4331  14.5187
    14.5494  14.5880  14.7180  14.8744  15.0021  15.0609  15.2113  15.2542
    15.3785  15.4094  15.4931  15.5294  15.5724  15.6804  15.7326  15.8089
    15.9332  16.0086  16.0449  16.0707  16.1087  16.1713  16.2248  16.3202
    16.4092  16.4499  16.4652  16.5238  16.5496  16.6425  16.6905  16.7688
    16.8240  16.9305  17.0038  17.0705  17.1450  17.2811  17.3235  17.3515
    17.4385  17.5038  17.5754  17.6219  17.6703  17.7924  17.8620  17.8877
    17.9140  18.0265  18.1428  18.1714  18.2266  18.3177  18.3591  18.4324
    18.4907  18.5817  18.6555  18.6675  18.7559  18.8780  18.9269  18.9894
    19.0407  19.0842  19.1269  19.1649  19.2101  19.2807  19.3881  19.4993
    19.5546  19.5687  19.6283  19.7870  19.7959  19.8864  20.0132  20.1164
    20.1959  20.2597  20.3051  20.3392  20.4739  20.5629  20.6196  20.6566
    20.6782  20.7391  20.8143  20.8749  20.9117  20.9925  21.0515  21.1608
    21.2331  21.2971  21.3380  21.3822  21.4620  21.5478  21.6887  21.7310
    21.7867  21.8451  21.8758  21.8984  21.9743  22.0323  22.0796  22.1593
    22.2140  22.2910  22.3652  22.4237  22.4840

 ------ SPIN DOWN ----------


          k = 0.0000 0.0000 0.0000 ( 30479 PWs)   bands (ev):

   -50.5995 -50.2494 -50.1996 -49.7947 -49.7870 -49.7597 -49.7136 -49.7033
   -49.6497 -49.6476 -49.5823 -49.5705 -49.5556 -49.5387 -49.5309 -49.4809
   -49.4764 -49.4471 -49.3677 -49.3536 -49.3519 -49.3500 -49.3245 -49.2549
   -21.8933 -21.4270 -21.3629 -21.2543 -20.9364 -20.8090 -20.6035 -20.4891
   -20.4866 -20.4780 -20.3493 -20.2803 -20.2686 -20.0312 -19.9741 -19.9085
   -19.2347 -19.1004 -18.8587 -10.1909 -10.1458  -9.9400  -9.2500  -9.0509
    -8.9565  -8.9470  -8.8805  -8.8554  -8.8478  -8.7667  -8.5916  -8.5431
    -8.4991  -8.3565  -8.3256  -8.2195  -8.1499  -8.0737  -7.8278  -7.6449
    -7.3917  -7.3010  -7.0813  -6.9342  -6.9093  -6.8697  -6.4602  -6.3489
    -6.1671  -6.1003  -6.0909  -5.9891  -5.7760  -5.6925  -5.6485  -5.6141
    -5.6021  -5.5089  -5.4283  -5.3434  -5.1258  -5.0675  -5.0230  -5.0016
    -4.8706  -4.8214  -4.7585  -4.6048  -4.5474  -4.4585  -4.4083  -4.2197
    -4.2031  -4.0424  -4.0158  -3.9916  -3.9491  -3.8288  -3.7210  -3.6886
    -3.5908  -3.4899  -3.4424  -3.3863  -3.3801  -3.1305  -2.9095  -2.8688
    -2.7476  -2.6835  -2.4714  -2.4166  -2.3883  -2.0993  -1.9763  -1.8700
    -1.8048  -1.6671  -1.5547  -1.4212  -1.3298  -0.6455  -0.1719  -0.1095
    -0.0983   0.0049   0.1839   0.3502   0.5467   0.8250   1.3587   1.3965
     1.4607   1.5761   1.8517   2.3148   2.7701   3.9953   4.1739   4.7043
     4.9486   5.6505   5.8775   5.9188   5.9442   6.6276   6.7476   6.9471
     7.3543   7.6258   7.6609   7.6976   7.7968   7.8420   7.8445   7.8870
     7.9583   8.0885   8.1964   8.2037   8.2265   8.2546   8.3567   8.4577
     8.5261   8.6725   8.7404   8.7457   8.9559   9.0582   9.1416   9.2298
     9.2980   9.4073   9.4994   9.5898   9.7023   9.8884   9.9449  10.0744
    10.2627  10.3477  10.4785  10.5360  10.5528  10.8167  10.8358  11.0146
    11.0415  11.0579  11.1005  11.1101  11.1923  11.3010  11.3665  11.4082
    11.5581  11.5822  11.6488  11.6663  11.7365  11.7631  11.7894  11.9296
    12.0011  12.0427  12.0506  12.1036  12.2127  12.2765  12.3269  12.3740
    12.4459  12.4910  12.5475  12.6597  12.6765  12.7756  12.8088  12.9210
    12.9515  13.0761  13.0893  13.3291  13.3532  13.5886  13.6302  13.6489
    13.6635  13.7540  13.8648  13.9753  14.0316  14.1101  14.2274  14.2746
    14.3648  14.5117  14.5547  14.6523  14.7368  14.8407  15.0014  15.0423
    15.1759  15.2178  15.3705  15.4310  15.5259  15.5450  15.6030  15.6910
    15.7543  15.8581  15.8933  16.1592  16.1744  16.2967  16.3111  16.3936
    16.6470  16.7035  16.7218  16.9130  16.9301  17.0962  17.1064  17.2001
    17.3297  17.3586  17.4355  17.5695  17.6788  17.7655  17.8253  17.9121
    18.0041  18.0709  18.1375  18.2019  18.2430  18.3067  18.3394  18.3808
    18.4964  18.5277  18.6754  18.7737  18.8102  18.8404  18.9617  19.1118
    19.1457  19.2138  19.2535  19.2899  19.3214  19.3853  19.4023  19.4468
    19.4808  19.6454  19.6630  19.7151  19.7276  19.7608  19.8709  19.9553
    19.9835  19.9936  20.1309  20.1911  20.2689  20.2817  20.3030  20.3576
    20.4305  20.5549  20.5788  20.6551  20.8279  20.9388  20.9739  21.0507
    21.1219  21.1367  21.1866  21.3193  21.3364  21.4012  21.4162  21.5050
    21.5877  21.6009  21.6582  21.8150  21.8744  21.9752  21.9837  22.0085
    22.1712  22.2266  22.2460  22.3123  22.3647  22.3726  22.4296  22.4463
    22.4960  22.5173  22.6158  22.6304  22.6985

          k = 0.0000 0.2417 0.0000 ( 30538 PWs)   bands (ev):

   -50.5995 -50.2493 -50.1998 -49.7946 -49.7874 -49.7602 -49.7136 -49.7034
   -49.6499 -49.6474 -49.5811 -49.5706 -49.5554 -49.5383 -49.5312 -49.4827
   -49.4764 -49.4471 -49.3677 -49.3536 -49.3520 -49.3502 -49.3245 -49.2552
   -21.8443 -21.4240 -21.3047 -21.2028 -20.9287 -20.8111 -20.6923 -20.5642
   -20.5390 -20.3908 -20.2962 -20.2742 -20.2679 -20.1290 -19.9923 -19.9744
   -19.2316 -19.0953 -18.8609 -10.0074  -9.7818  -9.7082  -9.4050  -9.0694
    -8.9854  -8.9252  -8.9028  -8.8790  -8.8242  -8.6835  -8.5466  -8.5305
    -8.4918  -8.4759  -8.3269  -8.2984  -8.0734  -7.9498  -7.5654  -7.4088
    -7.3350  -7.2544  -7.0880  -6.8905  -6.8227  -6.7850  -6.7677  -6.5756
    -6.5384  -6.3311  -6.1368  -6.1208  -5.9110  -5.8982  -5.8617  -5.6479
    -5.5874  -5.5316  -5.4882  -5.4628  -5.3773  -5.2300  -5.1542  -4.9965
    -4.9257  -4.8767  -4.7822  -4.6718  -4.5033  -4.4370  -4.2640  -4.2084
    -4.1141  -3.9932  -3.9056  -3.7189  -3.6678  -3.6280  -3.6061  -3.5566
    -3.4887  -3.4753  -3.4012  -3.3967  -3.3655  -3.3046  -3.2477  -3.0995
    -2.9380  -2.7029  -2.4715  -2.4420  -2.1297  -2.0289  -1.9319  -1.8171
    -1.7997  -1.6323  -1.5610  -1.4558  -1.3159  -0.9935  -0.9206  -0.3642
    -0.1383   0.1098   0.5948   0.8220   1.1438   1.2184   1.2819   1.3880
     1.4300   1.4974   1.8533   2.1684   3.0711   4.2704   4.3942   4.8639
     5.0708   5.1794   5.9858   6.0315   6.0920   6.2170   6.4151   6.7298
     6.7541   6.9239   7.0740   7.4363   7.4901   7.5522   7.7161   8.0208
     8.0246   8.2855   8.3373   8.3388   8.3982   8.4369   8.5747   8.7114
     8.7352   8.7987   8.9973   9.0434   9.1166   9.2731   9.3710   9.4279
     9.5784   9.6027   9.6457   9.7157   9.8716   9.9804  10.0036  10.1191
    10.1687  10.2199  10.3518  10.4112  10.4615  10.5315  10.6047  10.6413
    10.7349  10.7925  10.8857  10.9119  11.1495  11.2419  11.2789  11.2992
    11.3202  11.4379  11.5197  11.6349  11.6779  11.7596  11.8770  11.8912
    12.0266  12.0736  12.2605  12.2741  12.4213  12.4840  12.5864  12.7064
    12.7268  12.7703  12.8139  12.8371  13.0659  13.0962  13.1824  13.2505
    13.4215  13.4443  13.5500  13.6912  13.7384  13.7405  13.7923  13.9684
    14.0033  14.0230  14.1104  14.1312  14.1848  14.3121  14.3951  14.4209
    14.4491  14.5759  14.7083  14.7167  14.8159  14.8602  14.8722  15.0714
    15.1699  15.2820  15.3107  15.4698  15.5230  15.5567  15.7468  15.7519
    15.7697  15.8528  15.9104  15.9939  16.0130  16.0564  16.2405  16.3546
    16.4026  16.5315  16.5538  16.6231  16.6505  16.7571  16.8623  16.9212
    16.9576  17.0977  17.1482  17.2155  17.3719  17.4773  17.4965  17.5770
    17.6530  17.7248  17.8104  17.9831  18.0224  18.1085  18.1757  18.2807
    18.3385  18.3859  18.4324  18.4850  18.5659  18.7377  18.7898  18.8467
    18.8935  19.0138  19.0725  19.1541  19.1744  19.3212  19.3919  19.4175
    19.4485  19.5094  19.5386  19.5725  19.6249  19.6729  19.7380  19.7523
    19.8634  19.9466  19.9752  20.0397  20.0549  20.0671  20.0821  20.1995
    20.3184  20.3585  20.3740  20.4958  20.5386  20.5801  20.6399  20.6965
    20.8184  20.9208  20.9476  21.0277  21.0760  21.0917  21.1545  21.1922
    21.2267  21.2545  21.3091  21.3735  21.4147  21.5021  21.6743  21.7081
    21.7925  21.8387  21.8703  21.8977  21.9439  22.0046  22.0862  22.1904
    22.2112  22.2494  22.3035  22.3161  22.4512

          k = 0.0000-0.4833 0.0000 ( 30492 PWs)   bands (ev):

   -50.5995 -50.2491 -50.1998 -49.7945 -49.7875 -49.7605 -49.7135 -49.7033
   -49.6498 -49.6471 -49.5797 -49.5705 -49.5550 -49.5378 -49.5314 -49.4846
   -49.4762 -49.4468 -49.3676 -49.3535 -49.3519 -49.3501 -49.3245 -49.2553
   -21.7924 -21.4217 -21.2500 -21.1254 -20.9033 -20.7721 -20.7456 -20.6787
   -20.6114 -20.3438 -20.3054 -20.2638 -20.2451 -20.2261 -20.0576 -19.9748
   -19.2284 -19.0907 -18.8637  -9.9787  -9.5276  -9.2700  -9.1554  -9.1192
    -9.0519  -8.9189  -8.8717  -8.8467  -8.7827  -8.5648  -8.5433  -8.5013
    -8.4766  -8.3842  -8.3296  -8.2943  -8.1151  -7.6741  -7.5904  -7.5596
    -7.4120  -7.3954  -7.3130  -7.2809  -6.7746  -6.6998  -6.6933  -6.6050
    -6.5412  -6.4093  -6.2934  -6.2580  -6.1936  -6.0928  -5.9961  -5.9632
    -5.6842  -5.5506  -5.5335  -5.4462  -5.4060  -5.2254  -4.9378  -4.8843
    -4.8323  -4.8186  -4.7452  -4.6251  -4.4715  -4.4285  -4.4047  -4.2252
    -4.0404  -4.0156  -3.9556  -3.9265  -3.8953  -3.7202  -3.7016  -3.5119
    -3.4939  -3.4780  -3.3815  -3.2573  -3.1680  -3.0571  -3.0026  -2.9950
    -2.9561  -2.6678  -2.4848  -2.4112  -2.3261  -2.0978  -2.0513  -1.8527
    -1.7132  -1.6212  -1.5187  -1.5135  -1.3651  -1.3554  -1.1955  -0.1417
    -0.1099   0.4312   0.7070   0.8208   0.9967   1.1841   1.3851   1.5456
     1.6775   1.8544   1.8574   1.8747   3.6078   4.2034   4.8501   5.0308
     5.1425   5.3674   5.5647   5.7529   5.8037   5.9901   6.2714   6.4956
     6.5660   6.6799   7.0146   7.0505   7.1377   7.5056   7.8974   7.9843
     8.0952   8.3970   8.4275   8.5107   8.5557   8.5698   8.8482   8.9379
     8.9473   8.9708   9.0593   9.0660   9.0951   9.1695   9.2603   9.3274
     9.3327   9.5043   9.5272   9.5886   9.6260   9.7301   9.9214  10.0003
    10.1597  10.2029  10.2916  10.3150  10.4570  10.5039  10.5434  10.7231
    10.8739  10.9102  11.0768  11.1712  11.2113  11.3182  11.3797  11.4300
    11.4820  11.7390  11.8068  11.8245  11.8826  12.0593  12.1186  12.1947
    12.2734  12.2806  12.4275  12.5189  12.5749  12.6954  12.7111  12.7448
    12.8236  12.9511  12.9998  13.0291  13.0923  13.1280  13.2118  13.2349
    13.2636  13.4082  13.4634  13.5375  13.5928  13.6371  13.7032  13.7551
    13.8937  13.9594  14.0935  14.2114  14.2664  14.3646  14.4253  14.5792
    14.6363  14.8418  15.0232  15.0441  15.0802  15.0998  15.2333  15.2413
    15.2495  15.3669  15.4609  15.5461  15.6069  15.8005  15.8262  15.8616
    16.0456  16.0925  16.1408  16.1455  16.3059  16.3285  16.3397  16.3662
    16.4798  16.5150  16.5430  16.5953  16.6395  16.7286  16.7875  16.8227
    16.9168  16.9970  17.0477  17.0652  17.1865  17.2449  17.2940  17.3121
    17.3765  17.5208  17.5616  17.5780  17.6565  17.7635  17.8509  17.8794
    17.9217  17.9566  18.0239  18.1717  18.1870  18.2551  18.2735  18.3592
    18.3701  18.4292  18.4333  18.5160  18.6634  18.6846  18.8160  18.8722
    18.9694  19.1800  19.3703  19.3985  19.4250  19.5170  19.5898  19.6271
    19.6454  19.7186  19.7569  19.8457  20.0210  20.0484  20.1963  20.2199
    20.2745  20.3182  20.4497  20.4966  20.5087  20.5329  20.5551  20.6143
    20.6327  20.7151  20.7354  20.7760  20.8487  20.8557  20.9036  20.9230
    20.9617  21.0050  21.1666  21.2567  21.2692  21.3088  21.3393  21.3792
    21.4534  21.4870  21.5347  21.6058  21.6246  21.6530  21.6922  21.7544
    21.7942  21.9258  22.1370  22.2523  22.2688

          k = 0.2500 0.0000 0.0000 ( 30502 PWs)   bands (ev):

   -50.5994 -50.2493 -50.1974 -49.7935 -49.7882 -49.7444 -49.7129 -49.7035
   -49.6616 -49.6337 -49.5825 -49.5705 -49.5575 -49.5545 -49.5340 -49.4802
   -49.4769 -49.4321 -49.3651 -49.3626 -49.3527 -49.3507 -49.3322 -49.2550
   -21.7989 -21.4446 -21.2881 -21.1604 -21.0028 -20.8348 -20.6909 -20.5994
   -20.4260 -20.4249 -20.2875 -20.2608 -20.2342 -20.1004 -20.0056 -19.9757
   -19.2638 -19.1502 -18.8582 -10.0204  -9.9760  -9.7872  -9.3572  -9.0846
    -8.9949  -8.9628  -8.8733  -8.8637  -8.8332  -8.7909  -8.7276  -8.5657
    -8.4035  -8.2905  -8.2275  -8.1112  -8.0539  -7.8554  -7.7330  -7.6732
    -7.4704  -7.3416  -7.0923  -6.8971  -6.7914  -6.6634  -6.5400  -6.4803
    -6.3040  -6.2217  -6.2098  -6.1913  -6.0475  -5.9992  -5.8366  -5.7270
    -5.6468  -5.5976  -5.4393  -5.3430  -5.3062  -5.2230  -5.0972  -5.0631
    -4.9984  -4.9673  -4.8607  -4.8133  -4.7704  -4.6265  -4.3738  -4.2248
    -4.0750  -3.9882  -3.8970  -3.8268  -3.7415  -3.7304  -3.6652  -3.5782
    -3.5352  -3.2650  -3.1873  -3.1037  -3.0291  -2.9901  -2.8740  -2.6967
    -2.6612  -2.5498  -2.5310  -2.3433  -2.2043  -2.1845  -2.0447  -2.0298
    -1.8613  -1.7677  -1.5871  -1.4509  -1.3666  -0.5017  -0.0751  -0.0287
     0.0259   0.1477   0.2092   0.3444   0.5380   0.6273   1.1159   1.2409
     1.2563   1.4073   1.5663   2.2059   3.1146   4.3095   4.4306   4.9481
     5.0155   5.2110   5.8996   6.0567   6.2056   6.2653   6.6026   6.7460
     7.0239   7.1211   7.3447   7.3794   7.5860   7.7999   7.8803   7.9491
     7.9819   8.1017   8.1428   8.1965   8.3184   8.4215   8.5004   8.5689
     8.7266   8.8036   8.8900   9.0698   9.1811   9.2346   9.3217   9.4292
     9.5232   9.6732   9.7671   9.7944   9.9139   9.9950  10.0502  10.1000
    10.1915  10.2513  10.3216  10.3942  10.4276  10.4907  10.5928  10.7540
    10.7762  10.8229  10.8883  10.9594  11.0379  11.1542  11.2078  11.2932
    11.3247  11.3664  11.4076  11.4878  11.5684  11.6986  11.7347  11.8843
    11.9376  12.0420  12.1574  12.2281  12.3902  12.5106  12.5510  12.5908
    12.6860  12.7754  12.8536  12.8840  12.9809  13.1097  13.2071  13.2891
    13.4325  13.5189  13.5585  13.7279  13.8046  13.8553  13.8754  13.9829
    14.0201  14.0677  14.1433  14.1752  14.2121  14.3184  14.4133  14.4717
    14.5223  14.5613  14.6344  14.7132  14.7543  14.9308  15.0906  15.1622
    15.2446  15.2807  15.3826  15.4822  15.5246  15.5946  15.6573  15.7771
    15.8255  15.9427  16.0051  16.0494  16.0926  16.1243  16.1957  16.2284
    16.2990  16.4187  16.5240  16.5691  16.6418  16.7950  16.8617  17.0454
    17.0844  17.1327  17.2854  17.3167  17.3900  17.4280  17.6400  17.7032
    17.7814  17.8511  17.8714  18.0209  18.0577  18.1205  18.2258  18.2794
    18.4822  18.5396  18.5655  18.7107  18.8212  18.9458  18.9748  19.0182
    19.0447  19.0915  19.1191  19.1541  19.2351  19.2906  19.3122  19.3972
    19.4193  19.4325  19.5484  19.5706  19.6147  19.6741  19.6977  19.7687
    19.7872  19.8517  19.9034  19.9578  19.9943  20.1109  20.1754  20.2123
    20.2409  20.3028  20.3825  20.4109  20.4511  20.4722  20.5728  20.6574
    20.6917  20.7489  20.8040  20.8696  20.9012  20.9223  20.9480  21.0880
    21.1464  21.2311  21.2797  21.3054  21.3272  21.3507  21.4977  21.5484
    21.5596  21.6103  21.6822  21.7097  21.7889  21.8631  21.9368  21.9998
    22.0196  22.0920  22.1727  22.2243  22.2844

          k = 0.2500 0.2417 0.0000 ( 30481 PWs)   bands (ev):

   -50.5995 -50.2491 -50.1975 -49.7935 -49.7883 -49.7445 -49.7129 -49.7035
   -49.6617 -49.6337 -49.5812 -49.5705 -49.5569 -49.5544 -49.5339 -49.4819
   -49.4770 -49.4319 -49.3651 -49.3626 -49.3527 -49.3507 -49.3322 -49.2551
   -21.7589 -21.4417 -21.2299 -21.1101 -20.9826 -20.8300 -20.6791 -20.5909
   -20.4738 -20.4623 -20.3119 -20.2640 -20.2440 -20.1887 -20.0467 -20.0062
   -19.2617 -19.1461 -18.8590  -9.8568  -9.6255  -9.5507  -9.3937  -9.0158
    -8.9372  -8.9164  -8.8786  -8.8592  -8.7800  -8.7382  -8.6969  -8.6274
    -8.4115  -8.2500  -8.1948  -8.0766  -8.0359  -7.7806  -7.7236  -7.5639
    -7.5005  -7.3607  -7.1304  -6.9357  -6.8652  -6.7077  -6.5975  -6.4998
    -6.4667  -6.3839  -6.3621  -6.3238  -6.2257  -6.0706  -6.0067  -5.9789
    -5.8892  -5.7204  -5.6413  -5.5693  -5.4191  -5.2573  -5.1950  -5.1213
    -4.9584  -4.9147  -4.8849  -4.7268  -4.6349  -4.5184  -4.3636  -4.1669
    -4.0048  -3.8706  -3.8000  -3.7813  -3.6196  -3.5096  -3.4733  -3.3840
    -3.3440  -3.2130  -3.1981  -3.1563  -3.1137  -3.0660  -2.9855  -2.8906
    -2.8452  -2.6665  -2.4234  -2.1918  -2.1745  -2.1051  -2.0211  -1.9429
    -1.8640  -1.7821  -1.6689  -1.6002  -1.2005  -0.7572  -0.6938  -0.2729
    -0.0142   0.1185   0.4326   0.5808   0.8864   1.0507   1.0901   1.2597
     1.3201   1.5033   1.5529   2.1209   3.3946   4.5646   4.6467   5.0926
     5.1838   5.3302   5.4629   6.1673   6.2587   6.4219   6.4641   6.6555
     6.7755   6.9117   7.0176   7.1981   7.2333   7.3636   7.4895   7.7217
     7.7931   7.8260   8.0138   8.0754   8.2633   8.3320   8.4580   8.5440
     8.6995   8.7516   8.8775   8.9821   9.2103   9.3605   9.4113   9.4998
     9.6220   9.6490   9.7159   9.7853   9.8859  10.0692  10.2044  10.2713
    10.3103  10.4155  10.5052  10.6049  10.6781  10.7651  10.8209  10.8905
    10.9384  10.9740  11.0756  11.1985  11.2730  11.4058  11.4419  11.5871
    11.6042  11.6925  11.7602  11.8217  11.8683  11.8988  11.9742  12.0797
    12.1713  12.3031  12.3418  12.4372  12.5879  12.6591  12.7249  12.7690
    12.7876  12.8273  12.8633  12.9331  12.9824  13.0409  13.1065  13.1844
    13.3340  13.3844  13.4492  13.5707  13.6104  13.7376  13.8121  13.8765
    13.9428  14.0368  14.0542  14.1957  14.2489  14.3622  14.4181  14.5181
    14.5588  14.5921  14.7410  14.8861  14.9833  15.1041  15.1561  15.2538
    15.3965  15.4133  15.5145  15.5532  15.6285  15.6979  15.7905  15.8202
    15.9071  16.0059  16.0300  16.0622  16.1047  16.1668  16.2189  16.3013
    16.4290  16.4419  16.4765  16.5124  16.5639  16.6547  16.7060  16.7662
    16.8250  16.9097  16.9637  17.0405  17.1629  17.2773  17.3017  17.3591
    17.4340  17.5047  17.5574  17.6143  17.6529  17.7960  17.8306  17.8790
    17.8993  18.0264  18.1469  18.1749  18.2399  18.3201  18.3590  18.4137
    18.4604  18.5680  18.6691  18.6921  18.7277  18.7944  18.9082  18.9638
    19.0683  19.0923  19.1290  19.1655  19.2268  19.2818  19.3708  19.4825
    19.5517  19.5907  19.6480  19.7578  19.8450  19.8882  20.0450  20.1135
    20.1407  20.2049  20.3257  20.4009  20.4570  20.5660  20.6049  20.6463
    20.6799  20.7023  20.8352  20.8829  20.9374  20.9774  21.0391  21.1598
    21.1946  21.2857  21.3256  21.3897  21.4763  21.5777  21.6535  21.7349
[...]
     Harris-Foulkes estimate   =   -1980.30969794 Ry
     estimated scf accuracy    <       0.00014787 Ry

     total magnetization       =    -0.14 Bohr mag/cell
     absolute magnetization    =     0.22 Bohr mag/cell

     iteration # 70     ecut=    40.00 Ry     beta=0.30
     Davidson diagonalization with overlap
     ethr =  4.67E-09,  avg # of iterations =  1.0

     negative rho (up, down):  0.347E+00 0.347E+00

     total cpu time spent up to now is    84731.9 secs

     total energy              =   -1980.30967227 Ry
     Harris-Foulkes estimate   =   -1980.30969593 Ry
     estimated scf accuracy    <       0.00015173 Ry

     total magnetization       =    -0.14 Bohr mag/cell
     absolute magnetization    =     0.22 Bohr mag/cell

     iteration # 71     ecut=    40.00 Ry     beta=0.30
     Davidson diagonalization with overlap
     ethr =  4.67E-09,  avg # of iterations =  2.0

     negative rho (up, down):  0.347E+00 0.347E+00

     total cpu time spent up to now is    85163.6 secs

     total energy              =   -1980.30959204 Ry
     Harris-Foulkes estimate   =   -1980.30968402 Ry
     estimated scf accuracy    <       0.00027000 Ry

     total magnetization       =    -0.13 Bohr mag/cell
     absolute magnetization    =     0.21 Bohr mag/cell

     iteration # 72     ecut=    40.00 Ry     beta=0.30
     Davidson diagonalization with overlap
     ethr =  4.67E-09,  avg # of iterations =  2.5

     negative rho (up, down):  0.347E+00 0.347E+00

     total cpu time spent up to now is    85628.9 secs

     total energy              =   -1980.30962783 Ry
     Harris-Foulkes estimate   =   -1980.30966075 Ry
     estimated scf accuracy    <       0.00028099 Ry

     total magnetization       =    -0.11 Bohr mag/cell
     absolute magnetization    =     0.17 Bohr mag/cell

     iteration # 73     ecut=    40.00 Ry     beta=0.30
     Davidson diagonalization with overlap
     ethr =  4.67E-09,  avg # of iterations =  2.7

     negative rho (up, down):  0.347E+00 0.347E+00

     total cpu time spent up to now is    86115.5 secs

     total energy              =   -1980.30965108 Ry
     Harris-Foulkes estimate   =   -1980.30980020 Ry
     estimated scf accuracy    <       0.00440729 Ry

     total magnetization       =    -0.12 Bohr mag/cell
     absolute magnetization    =     0.20 Bohr mag/cell

     iteration # 74     ecut=    40.00 Ry     beta=0.30
     Davidson diagonalization with overlap
     ethr =  4.67E-09,  avg # of iterations =  2.2

     negative rho (up, down):  0.347E+00 0.347E+00

     total cpu time spent up to now is    86568.8 secs

     total energy              =   -1980.30975282 Ry
     Harris-Foulkes estimate   =   -1980.30975226 Ry
     estimated scf accuracy    <       0.00015134 Ry

     total magnetization       =    -0.10 Bohr mag/cell
     absolute magnetization    =     0.22 Bohr mag/cell

     iteration # 75     ecut=    40.00 Ry     beta=0.30
     Davidson diagonalization with overlap
     ethr =  4.67E-09,  avg # of iterations =  1.0

     negative rho (up, down):  0.347E+00 0.347E+00

     total cpu time spent up to now is    86972.5 secs

     total energy              =   -1980.30970747 Ry
     Harris-Foulkes estimate   =   -1980.30975364 Ry
     estimated scf accuracy    <       0.00010900 Ry

     total magnetization       =    -0.11 Bohr mag/cell
     absolute magnetization    =     0.22 Bohr mag/cell

     iteration # 76     ecut=    40.00 Ry     beta=0.30
     Davidson diagonalization with overlap
     ethr =  4.67E-09,  avg # of iterations =  2.0

     negative rho (up, down):  0.347E+00 0.347E+00

     total cpu time spent up to now is    87401.6 secs

     total energy              =   -1980.30966841 Ry
     Harris-Foulkes estimate   =   -1980.30972116 Ry
     estimated scf accuracy    <       0.00027336 Ry

     total magnetization       =    -0.09 Bohr mag/cell
     absolute magnetization    =     0.19 Bohr mag/cell

     iteration # 77     ecut=    40.00 Ry     beta=0.30
     Davidson diagonalization with overlap
     ethr =  4.67E-09,  avg # of iterations =  2.5

     negative rho (up, down):  0.347E+00 0.347E+00

     total cpu time spent up to now is    87866.0 secs

     total energy              =   -1980.30976221 Ry
     Harris-Foulkes estimate   =   -1980.30976176 Ry
     estimated scf accuracy    <       0.00018928 Ry

     total magnetization       =    -0.15 Bohr mag/cell
     absolute magnetization    =     0.24 Bohr mag/cell

     iteration # 78     ecut=    40.00 Ry     beta=0.30
     Davidson diagonalization with overlap
     ethr =  4.67E-09,  avg # of iterations =  1.0

     negative rho (up, down):  0.347E+00 0.347E+00

     total cpu time spent up to now is    88266.5 secs

     total energy              =   -1980.30975867 Ry
     Harris-Foulkes estimate   =   -1980.30976243 Ry
     estimated scf accuracy    <       0.00018439 Ry

     total magnetization       =    -0.15 Bohr mag/cell
     absolute magnetization    =     0.24 Bohr mag/cell

     iteration # 79     ecut=    40.00 Ry     beta=0.30
     Davidson diagonalization with overlap
     ethr =  4.67E-09,  avg # of iterations =  2.0

     negative rho (up, down):  0.347E+00 0.347E+00

     total cpu time spent up to now is    88694.4 secs

     total energy              =   -1980.30975170 Ry
     Harris-Foulkes estimate   =   -1980.30976159 Ry
     estimated scf accuracy    <       0.00019672 Ry

     total magnetization       =    -0.15 Bohr mag/cell
     absolute magnetization    =     0.23 Bohr mag/cell

     iteration # 80     ecut=    40.00 Ry     beta=0.30
     Davidson diagonalization with overlap
     ethr =  4.67E-09,  avg # of iterations =  2.0

     negative rho (up, down):  0.347E+00 0.347E+00

     total cpu time spent up to now is    89126.9 secs

     total energy              =   -1980.30978398 Ry
     Harris-Foulkes estimate   =   -1980.30976813 Ry
     estimated scf accuracy    <       0.00026311 Ry

     total magnetization       =    -0.13 Bohr mag/cell
     absolute magnetization    =     0.22 Bohr mag/cell

     iteration # 81     ecut=    40.00 Ry     beta=0.30
     Davidson diagonalization with overlap
     ethr =  4.67E-09,  avg # of iterations =  2.0

     negative rho (up, down):  0.347E+00 0.347E+00

     total cpu time spent up to now is    89568.4 secs

     total energy              =   -1980.30983203 Ry
     Harris-Foulkes estimate   =   -1980.30982204 Ry
     estimated scf accuracy    <       0.00051145 Ry

     total magnetization       =    -0.13 Bohr mag/cell
     absolute magnetization    =     0.25 Bohr mag/cell

     iteration # 82     ecut=    40.00 Ry     beta=0.30
     Davidson diagonalization with overlap
     ethr =  4.67E-09,  avg # of iterations =  2.4

     negative rho (up, down):  0.347E+00 0.347E+00

     total cpu time spent up to now is    90030.5 secs

     total energy              =   -1980.30989092 Ry
     Harris-Foulkes estimate   =   -1980.30989871 Ry
     estimated scf accuracy    <       0.00017456 Ry

     total magnetization       =    -0.11 Bohr mag/cell
     absolute magnetization    =     0.29 Bohr mag/cell

     iteration # 83     ecut=    40.00 Ry     beta=0.30
     Davidson diagonalization with overlap
     ethr =  4.67E-09,  avg # of iterations =  1.5

     negative rho (up, down):  0.347E+00 0.347E+00

     total cpu time spent up to now is    90444.5 secs

     total energy              =   -1980.30986204 Ry
     Harris-Foulkes estimate   =   -1980.30990025 Ry
     estimated scf accuracy    <       0.00044765 Ry

     total magnetization       =    -0.12 Bohr mag/cell
     absolute magnetization    =     0.29 Bohr mag/cell

     iteration # 84     ecut=    40.00 Ry     beta=0.30
     Davidson diagonalization with overlap
     ethr =  4.67E-09,  avg # of iterations =  2.0

     negative rho (up, down):  0.347E+00 0.347E+00

     total cpu time spent up to now is    90876.7 secs

     total energy              =   -1980.30989557 Ry
     Harris-Foulkes estimate   =   -1980.30988098 Ry
     estimated scf accuracy    <       0.00031806 Ry

     total magnetization       =    -0.13 Bohr mag/cell
     absolute magnetization    =     0.28 Bohr mag/cell

     iteration # 85     ecut=    40.00 Ry     beta=0.30
     Davidson diagonalization with overlap
     ethr =  4.67E-09,  avg # of iterations =  2.0

     negative rho (up, down):  0.347E+00 0.347E+00

     total cpu time spent up to now is    91303.8 secs

     total energy              =   -1980.30994064 Ry
     Harris-Foulkes estimate   =   -1980.30990676 Ry
     estimated scf accuracy    <       0.00025183 Ry

     total magnetization       =    -0.13 Bohr mag/cell
     absolute magnetization    =     0.29 Bohr mag/cell

     iteration # 86     ecut=    40.00 Ry     beta=0.30
     Davidson diagonalization with overlap
     ethr =  4.67E-09,  avg # of iterations =  2.0

     negative rho (up, down):  0.347E+00 0.347E+00

     total cpu time spent up to now is    91746.3 secs

     total energy              =   -1980.30988251 Ry
     Harris-Foulkes estimate   =   -1980.30999301 Ry
     estimated scf accuracy    <       0.00090386 Ry

     total magnetization       =    -0.14 Bohr mag/cell
     absolute magnetization    =     0.32 Bohr mag/cell

     iteration # 87     ecut=    40.00 Ry     beta=0.30
     Davidson diagonalization with overlap
     ethr =  4.67E-09,  avg # of iterations =  2.1

     negative rho (up, down):  0.347E+00 0.347E+00

     total cpu time spent up to now is    92190.3 secs

     total energy              =   -1980.30988478 Ry
     Harris-Foulkes estimate   =   -1980.30993779 Ry
     estimated scf accuracy    <       0.00018117 Ry

     total magnetization       =    -0.17 Bohr mag/cell
     absolute magnetization    =     0.31 Bohr mag/cell

     iteration # 88     ecut=    40.00 Ry     beta=0.30
     Davidson diagonalization with overlap
     ethr =  4.67E-09,  avg # of iterations =  2.0

     negative rho (up, down):  0.347E+00 0.347E+00

     total cpu time spent up to now is    92620.2 secs

     total energy              =   -1980.30983083 Ry
     Harris-Foulkes estimate   =   -1980.30990219 Ry
     estimated scf accuracy    <       0.00033657 Ry

     total magnetization       =    -0.14 Bohr mag/cell
     absolute magnetization    =     0.29 Bohr mag/cell

     iteration # 89     ecut=    40.00 Ry     beta=0.30
     Davidson diagonalization with overlap
     ethr =  4.67E-09,  avg # of iterations =  2.0

     negative rho (up, down):  0.347E+00 0.347E+00

     total cpu time spent up to now is    93072.3 secs

     total energy              =   -1980.30990170 Ry
     Harris-Foulkes estimate   =   -1980.30989214 Ry
     estimated scf accuracy    <       0.00038508 Ry

     total magnetization       =    -0.10 Bohr mag/cell
     absolute magnetization    =     0.29 Bohr mag/cell

     iteration # 90     ecut=    40.00 Ry     beta=0.30
     Davidson diagonalization with overlap
     ethr =  4.67E-09,  avg # of iterations =  2.0

     negative rho (up, down):  0.347E+00 0.347E+00

     total cpu time spent up to now is    93532.2 secs

     total energy              =   -1980.30995192 Ry
     Harris-Foulkes estimate   =   -1980.30996374 Ry
     estimated scf accuracy    <       0.00058667 Ry

     total magnetization       =    -0.09 Bohr mag/cell
     absolute magnetization    =     0.31 Bohr mag/cell

     iteration # 91     ecut=    40.00 Ry     beta=0.30
     Davidson diagonalization with overlap
     ethr =  4.67E-09,  avg # of iterations =  2.0

     negative rho (up, down):  0.347E+00 0.347E+00

     total cpu time spent up to now is    93973.2 secs

     total energy              =   -1980.30996470 Ry
     Harris-Foulkes estimate   =   -1980.31000342 Ry
     estimated scf accuracy    <       0.00076144 Ry

     total magnetization       =    -0.10 Bohr mag/cell
     absolute magnetization    =     0.33 Bohr mag/cell

     iteration # 92     ecut=    40.00 Ry     beta=0.30
     Davidson diagonalization with overlap
     ethr =  4.67E-09,  avg # of iterations =  2.0

     negative rho (up, down):  0.347E+00 0.347E+00

     total cpu time spent up to now is    94409.0 secs

     total energy              =   -1980.31001917 Ry
     Harris-Foulkes estimate   =   -1980.31000507 Ry
     estimated scf accuracy    <       0.00013134 Ry

     total magnetization       =    -0.07 Bohr mag/cell
     absolute magnetization    =     0.34 Bohr mag/cell

     iteration # 93     ecut=    40.00 Ry     beta=0.30
     Davidson diagonalization with overlap
     ethr =  4.67E-09,  avg # of iterations =  2.0

     negative rho (up, down):  0.347E+00 0.347E+00

     total cpu time spent up to now is    94835.7 secs

     total energy              =   -1980.31006068 Ry
     Harris-Foulkes estimate   =   -1980.31003242 Ry
     estimated scf accuracy    <       0.00065213 Ry

     total magnetization       =    -0.08 Bohr mag/cell
     absolute magnetization    =     0.35 Bohr mag/cell

     iteration # 94     ecut=    40.00 Ry     beta=0.30
     Davidson diagonalization with overlap
     ethr =  4.67E-09,  avg # of iterations =  2.0

     negative rho (up, down):  0.347E+00 0.347E+00

     total cpu time spent up to now is    95264.0 secs

     total energy              =   -1980.31009580 Ry
     Harris-Foulkes estimate   =   -1980.31008376 Ry
     estimated scf accuracy    <       0.00026286 Ry

     total magnetization       =    -0.09 Bohr mag/cell
     absolute magnetization    =     0.37 Bohr mag/cell

     iteration # 95     ecut=    40.00 Ry     beta=0.30
     Davidson diagonalization with overlap
     ethr =  4.67E-09,  avg # of iterations =  2.0

     negative rho (up, down):  0.347E+00 0.347E+00

     total cpu time spent up to now is    95688.1 secs

     total energy              =   -1980.30971548 Ry
     Harris-Foulkes estimate   =   -1980.31009878 Ry
     estimated scf accuracy    <       0.00016437 Ry

     total magnetization       =    -0.09 Bohr mag/cell
     absolute magnetization    =     0.37 Bohr mag/cell

     iteration # 96     ecut=    40.00 Ry     beta=0.30
     Davidson diagonalization with overlap
     ethr =  4.67E-09,  avg # of iterations =  3.0

     negative rho (up, down):  0.347E+00 0.347E+00

     total cpu time spent up to now is    96185.6 secs

     total energy              =   -1980.30972688 Ry
     Harris-Foulkes estimate   =   -1980.30986945 Ry
     estimated scf accuracy    <       0.00074769 Ry

     total magnetization       =    -0.07 Bohr mag/cell
     absolute magnetization    =     0.27 Bohr mag/cell

     iteration # 97     ecut=    40.00 Ry     beta=0.30
     Davidson diagonalization with overlap
     ethr =  4.67E-09,  avg # of iterations =  2.3

     negative rho (up, down):  0.347E+00 0.347E+00

     total cpu time spent up to now is    96644.2 secs

     total energy              =   -1980.30965967 Ry
     Harris-Foulkes estimate   =   -1980.30981028 Ry
     estimated scf accuracy    <       0.00021654 Ry

     total magnetization       =    -0.01 Bohr mag/cell
     absolute magnetization    =     0.25 Bohr mag/cell

     iteration # 98     ecut=    40.00 Ry     beta=0.30
     Davidson diagonalization with overlap
     ethr =  4.67E-09,  avg # of iterations =  2.5

     negative rho (up, down):  0.347E+00 0.347E+00

     total cpu time spent up to now is    97118.6 secs

     total energy              =   -1980.30967550 Ry
     Harris-Foulkes estimate   =   -1980.30974394 Ry
     estimated scf accuracy    <       0.00031655 Ry

     total magnetization       =     0.04 Bohr mag/cell
     absolute magnetization    =     0.21 Bohr mag/cell

     iteration # 99     ecut=    40.00 Ry     beta=0.30
     Davidson diagonalization with overlap
     ethr =  4.67E-09,  avg # of iterations =  2.0

     negative rho (up, down):  0.347E+00 0.347E+00

     total cpu time spent up to now is    97560.4 secs

     total energy              =   -1980.30970686 Ry
     Harris-Foulkes estimate   =   -1980.30970627 Ry
     estimated scf accuracy    <       0.00015422 Ry

     total magnetization       =     0.06 Bohr mag/cell
     absolute magnetization    =     0.19 Bohr mag/cell

     iteration #100     ecut=    40.00 Ry     beta=0.30
     Davidson diagonalization with overlap
     ethr =  4.67E-09,  avg # of iterations =  1.0

     negative rho (up, down):  0.347E+00 0.347E+00

     total cpu time spent up to now is    97964.7 secs

     total energy              =   -1980.30971412 Ry
     Harris-Foulkes estimate   =   -1980.30971028 Ry
     estimated scf accuracy    <       0.00011875 Ry

     total magnetization       =     0.06 Bohr mag/cell
     absolute magnetization    =     0.19 Bohr mag/cell

     End of self-consistent calculation

     convergence NOT achieved after 100 iterations: stopping

     init_run     :    116.06s CPU    156.92s WALL (       1 calls)
     electrons    :  73175.50s CPU  97403.58s WALL (       4 calls)
     update_pot   :     20.32s CPU     24.15s WALL (       3 calls)
     forces       :    248.91s CPU    277.86s WALL (       3 calls)

     Called by init_run:
     wfcinit      :     87.15s CPU    120.51s WALL (       1 calls)
     potinit      :      3.08s CPU      4.10s WALL (       1 calls)

     Called by electrons:
     c_bands      :  55027.03s CPU  72983.54s WALL (     228 calls)
     sum_band     :  12369.02s CPU  17312.18s WALL (     228 calls)
     v_of_rho     :    273.22s CPU    430.63s WALL (     232 calls)
     newd         :   5461.55s CPU   6447.68s WALL (     232 calls)
     mix_rho      :     54.73s CPU     92.06s WALL (     228 calls)

     Called by c_bands:
     init_us_2    :     79.42s CPU     79.93s WALL (    9200 calls)
     cegterg      :  54661.87s CPU  72616.79s WALL (    4560 calls)

     Called by *egterg:
     h_psi        :  30062.82s CPU  45742.31s WALL (   11710 calls)
     s_psi        :   2187.64s CPU   2189.37s WALL (   11710 calls)
     g_psi        :     42.92s CPU     42.97s WALL (    7130 calls)
     cdiaghg      :  11452.56s CPU  11867.25s WALL (   11630 calls)

     Called by h_psi:
     add_vuspsi   :   2212.76s CPU   2222.66s WALL (   11710 calls)

     General routines
     calbec       :   3586.31s CPU   3958.53s WALL (   16330 calls)
     fft          :   1232.60s CPU   2410.54s WALL (    7213 calls)
     ffts         :      8.40s CPU     15.87s WALL (     920 calls)
     fftw         :  27496.14s CPU  46739.07s WALL ( 8331430 calls)
     interpolate  :     58.58s CPU    104.15s WALL (     920 calls)
     davcio       :      0.00s CPU      0.16s WALL (      20 calls)

     Parallel routines
     fft_scatter  :  21579.58s CPU  41954.50s WALL ( 8339563 calls)

     PWSCF        :     0d   20h27m CPU        1d    3h13m WALL


   This run was terminated on:   0:31:52   9Apr2014            

=------------------------------------------------------------------------------=
   JOB DONE.
=------------------------------------------------------------------------------=
STOP 1
STOP 1
STOP 1
STOP 1
STOP 1
STOP 1
STOP 1
STOP 1
STOP 1
STOP 1
STOP 1
STOP 1
STOP 1
STOP 1
STOP 1
STOP 1
--------------------------------------------------------------------------
mpirun noticed that the job aborted, but has no info as to the process
that caused that situation.
--------------------------------------------------------------------------
---------------------------------------
Running PBS batch system epilogue script
Job id: 329697.audhumbla.fysik.dtu.dk
Username: zhonxu
Groupname: campgst
Jobname: RhO2/Eads-2-layers/O-relax-surf
Sessionid: 29354
Resources limits: neednodes=2:ppn=8:xeon8,nodes=2:ppn=8:xeon8,walltime=48:00:00
Resources used: cput=435:05:55,mem=10119460kb,vmem=13551456kb,walltime=27:13:47
Queuename: verylong
Accounting:
This job has allocated the following 16 nodes:
b069 b069 b069 b069 b069 b069 b069 b069 b030 b030 b030 b030 b030 b030 b030 b030
Finished epilogue job 329697.audhumbla.fysik.dtu.dk for zhonxu
