
     Program PWSCF v.5.0.2 (svn rev. 9656) starts on 20Apr2014 at  4:40:41 

     This program is part of the open-source Quantum ESPRESSO suite
     for quantum simulation of materials; please cite
         "P. Giannozzi et al., J. Phys.:Condens. Matter 21 395502 (2009);
          URL http://www.quantum-espresso.org", 
     in publications or presentations arising from this work. More details at
     http://www.quantum-espresso.org/quote.php

     Parallel version (MPI), running on    32 processors
     R & G space division:  proc/nbgrp/npool/nimage =      32

     Current dimensions of program PWSCF are:
     Max number of different atomic species (ntypx) = 10
     Max number of k-points (npk) =  40000
     Max angular momentum in pseudopotentials (lmaxx) =  3
     Reading input from pwscf.in
Warning: card &CELL ignored
Warning: card / ignored

     Subspace diagonalization in iterative solution of the eigenvalue problem:
     a serial algorithm will be used


     Parallelization info
     --------------------
     sticks:   dense  smooth     PW     G-vecs:    dense   smooth      PW
     Min         183      58     16                61593    11120    1642
     Max         184      59     17                61610    11203    1661
     Sum        5871    1877    527              1971213   357049   52865



     bravais-lattice index     =            0
     lattice parameter (alat)  =      11.1872  a.u.
     unit-cell volume          =   10442.1272 (a.u.)^3
     number of atoms/cell      =           49
     number of atomic types    =            2
     number of electrons       =       406.00
     number of Kohn-Sham states=          609
     kinetic-energy cutoff     =      40.0000  Ry
     charge density cutoff     =     500.0000  Ry
     convergence threshold     =      1.0E-06
     mixing beta               =       0.3000
     number of iterations used =            8  plain     mixing
     Exchange-correlation      = SLA  PW   PBE  PBE ( 1 4 3 4 0)
     EXX-fraction              =        0.00
     nstep                     =           50


     celldm(1)=  11.187179  celldm(2)=   0.000000  celldm(3)=   0.000000
     celldm(4)=   0.000000  celldm(5)=   0.000000  celldm(6)=   0.000000

     crystal axes: (cart. coord. in units of alat)
               a(1) = (   1.000000   0.000000   0.000000 )  
               a(2) = (   0.000000   1.180104   0.000000 )  
               a(3) = (   0.000000   0.000000   6.319854 )  

     reciprocal axes: (cart. coord. in units 2 pi/alat)
               b(1) = (  1.000000  0.000000  0.000000 )  
               b(2) = (  0.000000  0.847383  0.000000 )  
               b(3) = (  0.000000  0.000000  0.158232 )  


     PseudoPot. # 1 for O  read from file:
     /home/camp/zhonxu/pseudo/o_pbe_v1.01.uspp.F.UPF
     MD5 check sum: 2bcb18d16ea4b960afae9ec6d52f22d2
     Pseudo is Ultrasoft + core correction, Zval =  6.0
     Generated by new atomic code, or converted to UPF format
     Using radial grid of  737 points,  5 beta functions with: 
                l(1) =   0
                l(2) =   0
                l(3) =   1
                l(4) =   1
                l(5) =   2
     Q(r) pseudized with  8 coefficients,  rinner =    0.900   0.900   0.900
                                                       0.900   0.900

     PseudoPot. # 2 for Nb read from file:
     /home/camp/zhonxu/pseudo/nb_pbe_v1.uspp.F.UPF
     MD5 check sum: 573aab8a2fa660278ed4a62cd769473f
     Pseudo is Ultrasoft + core correction, Zval = 13.0
     Generated by new atomic code, or converted to UPF format
     Using radial grid of  887 points,  6 beta functions with: 
                l(1) =   0
                l(2) =   0
                l(3) =   1
                l(4) =   1
                l(5) =   2
                l(6) =   2
     Q(r) pseudized with  6 coefficients,  rinner =    1.000   1.000   1.000
                                                       1.000   1.000

     atomic species   valence    mass     pseudopotential
        O0             6.00    15.99940     O ( 1.00)
        Nb1           13.00    92.90640     Nb( 1.00)

      4 Sym. Ops. (no inversion) found



   Cartesian axes

     site n.     atom                  positions (alat units)
         1           O0  tau(   1) = (   0.0000000   0.5900519   2.0270298  )
         2           Nb1 tau(   2) = (   0.2500000   0.5900519   2.2748313  )
         3           Nb1 tau(   3) = (   0.0000000   0.0000000   2.2748313  )
         4           O0  tau(   4) = (   0.2500000   0.9322821   2.2748313  )
         5           O0  tau(   5) = (   0.2500000   0.2478218   2.2748313  )
         6           O0  tau(   6) = (   0.0000000   0.5900519   2.5226959  )
         7           O0  tau(   7) = (   0.0000000   0.0000000   2.6170513  )
         8           Nb1 tau(   8) = (   0.2500000   0.0000000   2.8649160  )
         9           Nb1 tau(   9) = (   0.0000000   0.5900519   2.8649160  )
        10           O0  tau(  10) = (   0.2500000   0.8378738   2.8649160  )
        11           O0  tau(  11) = (   0.2500000   0.3422301   2.8649160  )
        12           O0  tau(  12) = (   0.0000000   0.0000000   3.1127175  )
        13           O0  tau(  13) = (   0.0000000   0.5900519   3.2016378  )
        14           Nb1 tau(  14) = (   0.2500000   0.5900519   3.4436882  )
        15           Nb1 tau(  15) = (   0.0000000   0.0000000   3.4612574  )
        16           O0  tau(  16) = (   0.2500000   0.9310784   3.4611310  )
        17           O0  tau(  17) = (   0.2500000   0.2490255   3.4611310  )
        18           O0  tau(  18) = (   0.0000000   0.5900519   3.6989471  )
        19           O0  tau(  19) = (   0.0000000   0.0000000   3.8174443  )
        20           Nb1 tau(  20) = (   0.2500000   0.0000000   4.0701753  )
        21           Nb1 tau(  21) = (   0.0000000   0.5900519   4.0169621  )
        22           O0  tau(  22) = (   0.2500000   0.8262851   4.0818038  )
        23           O0  tau(  23) = (   0.2500000   0.3538187   4.0818038  )
        24           O0  tau(  24) = (   0.0000000   0.0000000   4.2711466  )
        25           O0  tau(  25) = (   0.5000000   0.5900519   2.0270298  )
        26           Nb1 tau(  26) = (   0.7500000   0.5900519   2.2748313  )
        27           Nb1 tau(  27) = (   0.5000000   0.0000000   2.2748313  )
        28           O0  tau(  28) = (   0.7500000   0.9322821   2.2748313  )
        29           O0  tau(  29) = (   0.7500000   0.2478218   2.2748313  )
        30           O0  tau(  30) = (   0.5000000   0.5900519   2.5226959  )
        31           O0  tau(  31) = (   0.5000000   0.0000000   2.6170513  )
        32           Nb1 tau(  32) = (   0.7500000   0.0000000   2.8649160  )
        33           Nb1 tau(  33) = (   0.5000000   0.5900519   2.8649160  )
        34           O0  tau(  34) = (   0.7500000   0.8378738   2.8649160  )
        35           O0  tau(  35) = (   0.7500000   0.3422301   2.8649160  )
        36           O0  tau(  36) = (   0.5000000   0.0000000   3.1127175  )
        37           O0  tau(  37) = (   0.5000000   0.5900519   3.2016378  )
        38           Nb1 tau(  38) = (   0.7500000   0.5900519   3.4436882  )
        39           Nb1 tau(  39) = (   0.5000000   0.0000000   3.4612574  )
        40           O0  tau(  40) = (   0.7500000   0.9310784   3.4611310  )
        41           O0  tau(  41) = (   0.7500000   0.2490255   3.4611310  )
        42           O0  tau(  42) = (   0.5000000   0.5900519   3.6989471  )
        43           O0  tau(  43) = (   0.5000000   0.0000000   3.8174443  )
        44           Nb1 tau(  44) = (   0.7500000   0.0000000   4.0701753  )
        45           Nb1 tau(  45) = (   0.5000000   0.5900519   4.0169621  )
        46           O0  tau(  46) = (   0.7500000   0.8262851   4.0818038  )
        47           O0  tau(  47) = (   0.7500000   0.3538187   4.0818038  )
        48           O0  tau(  48) = (   0.5000000   0.0000000   4.2711466  )
        49           O0  tau(  49) = (   0.5000000   0.5900519   4.3205047  )

     number of k points=     9  Methfessel-Paxton smearing, width (Ry)=  0.0100
                       cart. coord. in units 2pi/alat
        k(    1) = (   0.0000000   0.0000000   0.0000000), wk =   0.1250000
        k(    2) = (   0.0000000   0.2118458   0.0000000), wk =   0.2500000
        k(    3) = (   0.0000000  -0.4236915   0.0000000), wk =   0.1250000
        k(    4) = (   0.2500000   0.0000000   0.0000000), wk =   0.2500000
        k(    5) = (   0.2500000   0.2118458   0.0000000), wk =   0.5000000
        k(    6) = (   0.2500000  -0.4236915   0.0000000), wk =   0.2500000
        k(    7) = (  -0.5000000   0.0000000   0.0000000), wk =   0.1250000
        k(    8) = (  -0.5000000   0.2118458   0.0000000), wk =   0.2500000
        k(    9) = (  -0.5000000  -0.4236915   0.0000000), wk =   0.1250000

     Dense  grid:  1971213 G-vectors     FFT dimensions: (  80,  96, 512)

     Smooth grid:   357049 G-vectors     FFT dimensions: (  45,  54, 288)

     Largest allocated arrays     est. size (Mb)     dimensions
        Kohn-Sham Wavefunctions        13.24 Mb     (   1425,  609)
        NL pseudopotentials            15.59 Mb     (   1425,  717)
        Each V/rho on FFT grid          1.88 Mb     ( 122880)
        Each G-vector array             0.47 Mb     (  61610)
        G-vector shells                 0.23 Mb     (  30437)
     Largest temporary arrays     est. size (Mb)     dimensions
        Auxiliary wavefunctions        52.97 Mb     (   1425, 2436)
        Each subspace H/S matrix       90.55 Mb     (2436,2436)
        Each <psi_i|beta_j> matrix      6.66 Mb     (    717,  609)
        Arrays for rho mixing          15.00 Mb     ( 122880,   8)

     Check: negative/imaginary core charge=   -0.000004    0.000000

     Initial potential from superposition of free atoms
     Check: negative starting charge=   -0.005529

     starting charge  405.95622, renormalised to  406.00000

     negative rho (up, down):  0.553E-02 0.000E+00
     Starting wfc are  340 randomized atomic wfcs

     total cpu time spent up to now is       79.2 secs

     Self-consistent Calculation

     iteration #  1     ecut=    40.00 Ry     beta=0.30
     Davidson diagonalization with overlap
     ethr =  1.00E-02,  avg # of iterations =  6.4

     negative rho (up, down):  0.497E-02 0.000E+00

     total cpu time spent up to now is     1464.7 secs

     total energy              =   -2949.09536785 Ry
     Harris-Foulkes estimate   =   -2961.11870007 Ry
     estimated scf accuracy    <      26.90404906 Ry

     iteration #  2     ecut=    40.00 Ry     beta=0.30
     Davidson diagonalization with overlap
     ethr =  6.63E-03,  avg # of iterations =  1.1

     negative rho (up, down):  0.635E-02 0.000E+00

     total cpu time spent up to now is     1674.5 secs

     total energy              =   -2945.12364555 Ry
     Harris-Foulkes estimate   =   -2955.04511906 Ry
     estimated scf accuracy    <      45.59423700 Ry

     iteration #  3     ecut=    40.00 Ry     beta=0.30
     Davidson diagonalization with overlap
     ethr =  6.63E-03,  avg # of iterations =  3.7

     negative rho (up, down):  0.758E-02 0.000E+00

     total cpu time spent up to now is     2101.4 secs

     total energy              =   -2916.94835267 Ry
     Harris-Foulkes estimate   =   -2981.20816736 Ry
     estimated scf accuracy    <    2789.80056934 Ry

     iteration #  4     ecut=    40.00 Ry     beta=0.30
     Davidson diagonalization with overlap
     ethr =  6.63E-03,  avg # of iterations =  3.2

     negative rho (up, down):  0.749E-02 0.000E+00

     total cpu time spent up to now is     2483.2 secs

     total energy              =   -2951.61842426 Ry
     Harris-Foulkes estimate   =   -2957.73615829 Ry
     estimated scf accuracy    <      77.69929911 Ry

     iteration #  5     ecut=    40.00 Ry     beta=0.30
     Davidson diagonalization with overlap
     ethr =  6.63E-03,  avg # of iterations =  2.6

     negative rho (up, down):  0.747E-02 0.000E+00

     total cpu time spent up to now is     2772.3 secs

     total energy              =   -2953.66632762 Ry
     Harris-Foulkes estimate   =   -2955.88775912 Ry
     estimated scf accuracy    <      20.13284989 Ry

     iteration #  6     ecut=    40.00 Ry     beta=0.30
     Davidson diagonalization with overlap
     ethr =  4.96E-03,  avg # of iterations =  1.8

     negative rho (up, down):  0.777E-02 0.000E+00

     total cpu time spent up to now is     3016.9 secs

     total energy              =   -2954.21453283 Ry
     Harris-Foulkes estimate   =   -2954.80250404 Ry
     estimated scf accuracy    <       9.17838518 Ry

     iteration #  7     ecut=    40.00 Ry     beta=0.30
     Davidson diagonalization with overlap
     ethr =  2.26E-03,  avg # of iterations =  1.0

     negative rho (up, down):  0.831E-02 0.000E+00

     total cpu time spent up to now is     3222.2 secs

     total energy              =   -2954.35537097 Ry
     Harris-Foulkes estimate   =   -2954.44628595 Ry
     estimated scf accuracy    <       1.98490331 Ry

     iteration #  8     ecut=    40.00 Ry     beta=0.30
     Davidson diagonalization with overlap
     ethr =  4.89E-04,  avg # of iterations =  2.0

     negative rho (up, down):  0.772E-02 0.000E+00

     total cpu time spent up to now is     3476.9 secs

     total energy              =   -2954.22833540 Ry
     Harris-Foulkes estimate   =   -2954.37305827 Ry
     estimated scf accuracy    <       1.58179039 Ry

     iteration #  9     ecut=    40.00 Ry     beta=0.30
     Davidson diagonalization with overlap
     ethr =  3.90E-04,  avg # of iterations =  1.9

     negative rho (up, down):  0.515E-02 0.000E+00

     total cpu time spent up to now is     3728.3 secs

     total energy              =   -2954.01367185 Ry
     Harris-Foulkes estimate   =   -2954.26119724 Ry
     estimated scf accuracy    <       1.12926481 Ry

     iteration # 10     ecut=    40.00 Ry     beta=0.30
     Davidson diagonalization with overlap
     ethr =  2.78E-04,  avg # of iterations =  3.2

     negative rho (up, down):  0.459E-02 0.000E+00

     total cpu time spent up to now is     4046.2 secs

     total energy              =   -2954.11086255 Ry
     Harris-Foulkes estimate   =   -2954.13640057 Ry
     estimated scf accuracy    <       0.62578607 Ry

     iteration # 11     ecut=    40.00 Ry     beta=0.30
     Davidson diagonalization with overlap
     ethr =  1.54E-04,  avg # of iterations =  5.3

     negative rho (up, down):  0.447E-02 0.000E+00

     total cpu time spent up to now is     4461.6 secs

     total energy              =   -2954.10112415 Ry
     Harris-Foulkes estimate   =   -2954.12606062 Ry
     estimated scf accuracy    <       0.11565561 Ry

     iteration # 12     ecut=    40.00 Ry     beta=0.30
     Davidson diagonalization with overlap
     ethr =  2.85E-05,  avg # of iterations =  7.2

     negative rho (up, down):  0.422E-02 0.000E+00

     total cpu time spent up to now is     5005.4 secs

     total energy              =   -2954.11180232 Ry
     Harris-Foulkes estimate   =   -2954.12340353 Ry
     estimated scf accuracy    <       0.09857093 Ry

     iteration # 13     ecut=    40.00 Ry     beta=0.30
     Davidson diagonalization with overlap
     ethr =  2.43E-05,  avg # of iterations =  1.9

     negative rho (up, down):  0.505E-02 0.000E+00

     total cpu time spent up to now is     5256.5 secs

     total energy              =   -2954.11415736 Ry
     Harris-Foulkes estimate   =   -2954.11721912 Ry
     estimated scf accuracy    <       0.01944532 Ry

     iteration # 14     ecut=    40.00 Ry     beta=0.30
     Davidson diagonalization with overlap
     ethr =  4.79E-06,  avg # of iterations =  7.8

     negative rho (up, down):  0.511E-02 0.000E+00

     total cpu time spent up to now is     5867.3 secs

     total energy              =   -2954.11581035 Ry
     Harris-Foulkes estimate   =   -2954.11716721 Ry
     estimated scf accuracy    <       0.02044357 Ry

     iteration # 15     ecut=    40.00 Ry     beta=0.30
     Davidson diagonalization with overlap
     ethr =  4.79E-06,  avg # of iterations =  1.0

     negative rho (up, down):  0.508E-02 0.000E+00

     total cpu time spent up to now is     6075.2 secs

     total energy              =   -2954.11571393 Ry
     Harris-Foulkes estimate   =   -2954.11666297 Ry
     estimated scf accuracy    <       0.00819061 Ry

     iteration # 16     ecut=    40.00 Ry     beta=0.30
     Davidson diagonalization with overlap
     ethr =  2.02E-06,  avg # of iterations =  1.1

     negative rho (up, down):  0.513E-02 0.000E+00

     total cpu time spent up to now is     6287.4 secs

     total energy              =   -2954.11600133 Ry
     Harris-Foulkes estimate   =   -2954.11641667 Ry
     estimated scf accuracy    <       0.01112192 Ry

     iteration # 17     ecut=    40.00 Ry     beta=0.30
     Davidson diagonalization with overlap
     ethr =  2.02E-06,  avg # of iterations =  2.1

     negative rho (up, down):  0.516E-02 0.000E+00

     total cpu time spent up to now is     6547.0 secs

     total energy              =   -2954.11601321 Ry
     Harris-Foulkes estimate   =   -2954.11657245 Ry
     estimated scf accuracy    <       0.01208015 Ry

     iteration # 18     ecut=    40.00 Ry     beta=0.30
     Davidson diagonalization with overlap
     ethr =  2.02E-06,  avg # of iterations =  1.0

     negative rho (up, down):  0.520E-02 0.000E+00

     total cpu time spent up to now is     6753.3 secs

     total energy              =   -2954.11627406 Ry
     Harris-Foulkes estimate   =   -2954.11632806 Ry
     estimated scf accuracy    <       0.00055845 Ry

     iteration # 19     ecut=    40.00 Ry     beta=0.30
     Davidson diagonalization with overlap
     ethr =  1.38E-07,  avg # of iterations =  1.0

     negative rho (up, down):  0.513E-02 0.000E+00

     total cpu time spent up to now is     6961.3 secs

     total energy              =   -2954.11629926 Ry
     Harris-Foulkes estimate   =   -2954.11632294 Ry
     estimated scf accuracy    <       0.00065723 Ry

     iteration # 20     ecut=    40.00 Ry     beta=0.30
     Davidson diagonalization with overlap
     ethr =  1.38E-07,  avg # of iterations =  1.0

     negative rho (up, down):  0.507E-02 0.000E+00

     total cpu time spent up to now is     7168.9 secs

     total energy              =   -2954.11631168 Ry
     Harris-Foulkes estimate   =   -2954.11632076 Ry
     estimated scf accuracy    <       0.00012493 Ry

     iteration # 21     ecut=    40.00 Ry     beta=0.30
     Davidson diagonalization with overlap
     ethr =  3.08E-08,  avg # of iterations =  1.0

     negative rho (up, down):  0.499E-02 0.000E+00

     total cpu time spent up to now is     7376.1 secs

     total energy              =   -2954.11631839 Ry
     Harris-Foulkes estimate   =   -2954.11632047 Ry
     estimated scf accuracy    <       0.00004821 Ry

     iteration # 22     ecut=    40.00 Ry     beta=0.30
     Davidson diagonalization with overlap
     ethr =  1.19E-08,  avg # of iterations =  1.0

     negative rho (up, down):  0.496E-02 0.000E+00

     total cpu time spent up to now is     7584.3 secs

     total energy              =   -2954.11632044 Ry
     Harris-Foulkes estimate   =   -2954.11632323 Ry
     estimated scf accuracy    <       0.00004204 Ry

     iteration # 23     ecut=    40.00 Ry     beta=0.30
     Davidson diagonalization with overlap
     ethr =  1.04E-08,  avg # of iterations =  1.0

     negative rho (up, down):  0.490E-02 0.000E+00

     total cpu time spent up to now is     7792.5 secs

     total energy              =   -2954.11632198 Ry
     Harris-Foulkes estimate   =   -2954.11632263 Ry
     estimated scf accuracy    <       0.00000489 Ry

     iteration # 24     ecut=    40.00 Ry     beta=0.30
     Davidson diagonalization with overlap
     ethr =  1.20E-09,  avg # of iterations =  2.0

     negative rho (up, down):  0.489E-02 0.000E+00

     total cpu time spent up to now is     8049.7 secs

     total energy              =   -2954.11632197 Ry
     Harris-Foulkes estimate   =   -2954.11632254 Ry
     estimated scf accuracy    <       0.00000588 Ry

     iteration # 25     ecut=    40.00 Ry     beta=0.30
     Davidson diagonalization with overlap
     ethr =  1.20E-09,  avg # of iterations =  1.0

     negative rho (up, down):  0.487E-02 0.000E+00

     total cpu time spent up to now is     8256.7 secs

     total energy              =   -2954.11632214 Ry
     Harris-Foulkes estimate   =   -2954.11632252 Ry
     estimated scf accuracy    <       0.00000381 Ry

     iteration # 26     ecut=    40.00 Ry     beta=0.30
     Davidson diagonalization with overlap
     ethr =  9.38E-10,  avg # of iterations =  1.0

     negative rho (up, down):  0.484E-02 0.000E+00

     total cpu time spent up to now is     8464.7 secs

     total energy              =   -2954.11632218 Ry
     Harris-Foulkes estimate   =   -2954.11632254 Ry
     estimated scf accuracy    <       0.00001116 Ry

     iteration # 27     ecut=    40.00 Ry     beta=0.30
     Davidson diagonalization with overlap
     ethr =  9.38E-10,  avg # of iterations =  1.0

     negative rho (up, down):  0.482E-02 0.000E+00

     total cpu time spent up to now is     8669.6 secs

     End of self-consistent calculation

          k = 0.0000 0.0000 0.0000 ( 44615 PWs)   bands (ev):

   -55.9908 -55.9021 -55.5319 -55.4558 -55.3907 -55.3799 -55.3777 -55.3732
   -55.3647 -55.3264 -55.3021 -55.3016 -55.2910 -55.2895 -55.2477 -54.3279
   -32.8700 -32.1897 -32.0654 -32.0516 -32.0009 -31.9658 -31.9649 -31.9572
   -31.9471 -31.9248 -31.9025 -31.8921 -31.8447 -31.8037 -31.7498 -31.7253
   -31.7148 -31.6931 -31.6628 -31.6224 -31.6196 -31.5875 -31.5844 -31.5565
   -31.5486 -31.5277 -31.5055 -31.4634 -31.4252 -31.4145 -31.3872 -31.3489
   -31.3234 -31.2564 -31.2510 -31.2418 -31.2384 -31.2275 -31.1977 -31.1608
   -31.1450 -31.1148 -31.0966 -31.0875 -31.0300 -30.8126 -30.5236 -30.4996
   -19.0416 -18.8331 -18.7416 -18.6884 -18.6157 -18.5691 -18.4263 -18.3936
   -18.3025 -18.2868 -18.2058 -18.1378 -18.1056 -18.1051 -18.0518 -17.8843
   -17.8199 -17.8136 -17.7889 -17.7324 -17.7134 -17.6872 -17.5496 -17.4611
   -17.4535 -17.3808 -17.3728 -17.3138 -17.1447 -17.1225 -16.2267 -16.1028
   -14.5068  -6.9549  -6.9293  -6.9122  -6.8185  -6.6161  -6.5230  -6.4281
    -6.1359  -6.1152  -6.1111  -6.0968  -5.9150  -5.8515  -5.7612  -5.7526
    -5.6955  -5.6530  -5.6322  -5.6033  -5.5299  -5.4981  -5.4940  -5.4526
    -5.3060  -5.1527  -5.1416  -5.1222  -5.0853  -5.0555  -5.0044  -4.9375
    -4.8862  -4.7459  -4.7290  -4.7183  -4.7089  -4.6698  -4.6498  -4.6323
    -4.6030  -4.5549  -4.4929  -4.4731  -4.4144  -4.4064  -4.3146  -4.2721
    -4.2613  -4.0190  -3.9213  -3.8836  -3.8278  -3.7268  -3.7225  -3.7046
    -3.6973  -3.6109  -3.6017  -3.4522  -3.3690  -3.3243  -3.3120  -3.2386
    -3.1681  -3.0652  -3.0617  -3.0452  -3.0201  -2.9556  -2.9169  -2.9095
    -2.8968  -2.8074  -2.7487  -2.7311  -2.6887  -2.6779  -2.6500  -2.6258
    -2.5567  -2.5189  -2.4795  -2.4646  -2.4232  -2.3308  -2.3079  -2.2322
    -2.2160  -2.2142  -2.1460  -1.9491  -1.9449  -1.7014  -1.4745  -1.3601
    -1.2747  -0.3734   0.1377   0.1583   0.1867   0.1997   0.2374   0.3812
     0.4667   0.6384   1.2027   1.2498   1.4271   1.6071   1.6323   1.7112
     1.7882   1.9002   1.9279   1.9327   2.1011   2.1314   2.1731   2.2359
     2.2782   2.2832   2.2872   2.2951   2.3058   2.3760   2.4353   2.4559
     2.5471   2.6462   2.6889   2.8886   3.0673   3.1070   3.1989   3.2096
     3.3141   3.4435   3.6950   3.9132   3.9582   4.0164   4.0492   4.0861
     4.0861   4.1418   4.1613   4.2004   4.2799   4.4457   4.6950   4.8414
     4.8794   5.0663   5.1867   5.4361   5.6528   5.7483   5.8487   6.0497
     6.0913   6.2620   6.2626   6.2746   6.2857   6.3535   6.4268   6.4857
     6.5611   6.6032   6.6070   6.6445   6.6500   6.6506   6.6626   6.7416
     6.7590   6.7930   6.8020   6.8643   6.9593   6.9677   7.4904   7.4943
     7.5380   7.7149   7.7685   7.9781   8.0180   8.5017   8.5108   8.7209
     8.7324   8.7780   8.8398   9.0193   9.0624   9.1571   9.2364   9.3008
     9.3654   9.4431   9.5625   9.5653   9.6656   9.6715   9.7708   9.8188
     9.8195   9.8354   9.9883  10.1110  10.1168  10.1672  10.2166  10.2642
    10.3305  10.3874  10.4351  10.5117  10.5159  10.5442  10.6362  10.6581
    10.7212  10.8033  10.8314  10.8705  11.0284  11.1568  11.2169  11.2653
    11.2791  11.3366  11.4527  11.4739  11.5004  11.5083  11.7528  11.8667
    11.8785  11.9425  12.0503  12.0858  12.1551  12.1662  12.2859  12.3281
    12.3559  12.4432  12.4544  12.5719  12.5818  12.6185  12.7427  12.8168
    12.9614  12.9923  13.0762  13.0922  13.1118  13.1909  13.2520  13.2763
    13.3184  13.3436  13.4800  13.4883  13.4903  13.5108  13.5167  13.5693
    13.6035  13.7295  13.8484  13.8532  13.8576  13.8782  13.8953  13.9909
    14.0422  14.0840  14.1523  14.1944  14.2672  14.3053  14.3485  14.3577
    14.4410  14.5183  14.5336  14.6019  14.6433  14.6651  14.7110  14.7409
    14.7800  14.8215  14.8961  14.9207  14.9883  15.0486  15.0653  15.0690
    15.1478  15.2377  15.2515  15.2901  15.3784  15.4012  15.4113  15.5764
    15.6414  15.6645  15.6776  15.8278  15.8696  15.9735  15.9921  16.0514
    16.0984  16.1262  16.1544  16.2919  16.3267  16.3398  16.3886  16.4225
    16.4740  16.5425  16.5546  16.6666  16.6946  16.7212  16.8041  16.8581
    16.9361  16.9611  17.0778  17.2084  17.2804  17.3600  17.4455  17.4705
    17.4907  17.5333  17.5501  17.6267  17.7239  17.7691  17.8554  18.0021
    18.0502  18.0861  18.1254  18.1471  18.1841  18.2570  18.3243  18.3567
    18.4203  18.4963  18.5597  18.5632  18.6491  18.7319  18.7568  18.7734
    18.8075  18.8592  18.8638  18.8774  18.9151  18.9875  19.0661  19.1683
    19.2651  19.2658  19.2881  19.3271  19.3639  19.3769  19.3815  19.4326
    19.4429  19.5466  19.5642  19.5997  19.6394  19.6653  19.6733  19.7327
    19.7777  19.8021  19.8399  19.9143  19.9245  19.9449  19.9885  20.1117
    20.1572  20.1640  20.3247  20.4031  20.4131  20.4685  20.4817  20.4915
    20.5380  20.6555  20.6732  20.6734  20.7033  20.7266  20.7661  20.7769
    20.7841  20.9665  20.9875  21.0570  21.0642  21.1738  21.2267  21.2400
    21.3041  21.3368  21.3509  21.3746  21.4302  21.5066  21.5615  21.7336
    21.7669  21.8003  21.8303  21.8675  21.8825  21.8947  21.9246  21.9726
    22.0154  22.0576  22.0655  22.1297  22.1558  22.1685  22.1878  22.3062
    22.4365  22.5532  22.5615  22.6276  22.6407  22.6880  22.7227  22.7432
    22.7578  22.7701  22.7942  22.9029  22.9038  22.9326  22.9529  22.9714
    22.9876  23.0414  23.1250  23.1402  23.1465  23.1733  23.2120  23.2877
    23.2969  23.3262  23.3279  23.4017  23.4123  23.4167  23.4444  23.4951
    23.5154  23.5538  23.5884  23.6403  23.6999  23.7098  23.7119  23.7215
    23.7435  23.7854  23.8107  23.8452  23.8599  23.8909  23.9564  24.0286
    24.0341  24.0512  24.1270  24.1434  24.1506  24.2305  24.2806  24.3111
    24.3771  24.3807  24.4142  24.4410  24.5038  24.5126  24.6232  24.6300
    24.6689

          k = 0.0000 0.2118 0.0000 ( 44633 PWs)   bands (ev):

   -55.9908 -55.9021 -55.5319 -55.4557 -55.3898 -55.3807 -55.3777 -55.3720
   -55.3660 -55.3265 -55.3021 -55.3017 -55.2910 -55.2895 -55.2477 -54.3279
   -32.8702 -32.1897 -32.0658 -32.0525 -31.9936 -31.9744 -31.9663 -31.9558
   -31.9557 -31.9272 -31.9240 -31.9051 -31.8445 -31.7818 -31.7496 -31.6980
   -31.6915 -31.6670 -31.6629 -31.6222 -31.6196 -31.5729 -31.5718 -31.5487
   -31.5454 -31.5277 -31.5133 -31.4637 -31.4252 -31.4164 -31.4149 -31.3779
   -31.3492 -31.2564 -31.2510 -31.2418 -31.2380 -31.2272 -31.1971 -31.1603
   -31.1439 -31.1121 -31.0988 -31.0890 -31.0303 -30.8125 -30.5231 -30.5018
   -18.9899 -18.7487 -18.6613 -18.6225 -18.5359 -18.4914 -18.4237 -18.4050
   -18.3837 -18.3816 -18.3272 -18.2927 -18.2612 -18.1498 -18.0882 -17.9766
   -17.8845 -17.7138 -17.7042 -17.6408 -17.6208 -17.5581 -17.5502 -17.5100
   -17.5022 -17.4317 -17.3147 -17.2874 -17.1722 -17.1225 -16.2260 -16.1027
   -14.5064  -6.8675  -6.6188  -6.5360  -6.5266  -6.4874  -6.4296  -6.2570
    -6.2170  -6.1728  -6.1176  -6.1013  -6.0784  -6.0053  -5.9432  -5.9316
    -5.9188  -5.8239  -5.7717  -5.7681  -5.7240  -5.7071  -5.6399  -5.5299
    -5.4617  -5.3097  -5.2874  -5.0793  -4.9782  -4.8937  -4.8365  -4.7946
    -4.7217  -4.6631  -4.6550  -4.6511  -4.6477  -4.6281  -4.5949  -4.5552
    -4.4508  -4.4313  -4.3583  -4.3072  -4.2899  -4.2707  -4.2226  -4.0822
    -4.0588  -4.0094  -3.9943  -3.9534  -3.9268  -3.8515  -3.8356  -3.7917
    -3.7495  -3.6869  -3.6515  -3.4820  -3.4455  -3.4287  -3.2975  -3.2592
    -3.1541  -3.1531  -3.0985  -3.0355  -3.0116  -2.9357  -2.9248  -2.9144
    -2.8976  -2.8589  -2.8367  -2.7565  -2.7400  -2.7375  -2.6854  -2.6808
    -2.6226  -2.6017  -2.5879  -2.5844  -2.4694  -2.4507  -2.4168  -2.3058
    -2.2769  -2.2368  -2.1691  -2.0820  -1.9294  -1.7967  -1.4898  -1.4106
    -1.3958  -0.3570   0.0675   0.1421   0.3694   0.4878   0.5485   0.6127
     0.6329   1.0127   1.0129   1.1054   1.2176   1.2546   1.2889   1.4055
     1.5582   1.7080   1.9066   1.9468   2.1082   2.1563   2.2789   2.2988
     2.4725   2.5287   2.5589   2.5737   2.6144   2.6352   2.6907   2.7688
     2.8314   2.8470   2.8520   2.9918   3.0355   3.0617   3.1812   3.2122
     3.2580   3.3329   3.4601   3.7818   3.9601   4.0376   4.0699   4.0767
     4.1097   4.1275   4.1789   4.2111   4.2259   4.3376   4.7092   4.9985
     5.2583   5.2953   5.3606   5.4900   5.6039   5.6663   5.6743   5.7139
     5.7271   5.8751   5.9146   6.1728   6.2347   6.2527   6.2742   6.2933
     6.3651   6.3754   6.3786   6.4617   6.6107   6.6320   6.6528   6.7572
     6.9635   7.1265   7.3149   7.4294   7.4943   7.5226   7.5708   7.6203
     7.6877   7.7049   7.7899   7.8131   7.9077   8.0513   8.0571   8.2278
     8.3231   8.4623   8.4647   8.6480   8.7030   8.8754   8.9029   8.9883
     9.1649   9.3932   9.6557   9.7024   9.7581   9.7875   9.8592   9.9988
    10.0454  10.1409  10.2222  10.2867  10.2878  10.3214  10.4175  10.4469
    10.5499  10.5857  10.6793  10.7522  10.7595  10.7940  10.9324  10.9627
    10.9769  11.0530  11.1012  11.1805  11.2473  11.2794  11.2803  11.3405
    11.3884  11.4940  11.5239  11.6224  11.6701  11.7738  11.8876  11.9618
    11.9973  12.0931  12.1060  12.1537  12.2083  12.2341  12.2648  12.2871
    12.3014  12.3363  12.3490  12.5019  12.5575  12.5943  12.6126  12.6426
    12.7421  12.7528  12.7975  12.8269  12.8649  12.9241  13.0111  13.0423
    13.0716  13.0761  13.1078  13.1293  13.1820  13.2881  13.4418  13.4544
    13.5352  13.5370  13.5848  13.6823  13.7409  13.7914  13.8539  14.0067
    14.0788  14.1927  14.2799  14.2855  14.3272  14.4221  14.4968  14.5685
    14.5856  14.7004  14.7193  14.7465  14.8217  14.8648  14.9073  14.9506
    14.9643  15.0235  15.0523  15.1083  15.2138  15.2309  15.2971  15.3489
    15.3656  15.4226  15.4324  15.4712  15.4797  15.5417  15.5743  15.6368
    15.6877  15.7291  15.7376  15.7571  15.8640  15.9340  15.9843  15.9952
    16.0344  16.0897  16.1406  16.1724  16.1941  16.2597  16.3260  16.3746
    16.4511  16.4655  16.6020  16.6112  16.6623  16.7058  16.7382  16.8329
    16.8807  16.9181  17.0157  17.0321  17.0943  17.1890  17.2161  17.2446
    17.3654  17.3978  17.4028  17.4183  17.6125  17.6983  17.7221  17.7753
    17.7802  17.7976  17.8445  17.8910  17.9556  18.0089  18.0668  18.1093
    18.1542  18.2451  18.3002  18.4109  18.4141  18.4242  18.4536  18.5437
    18.6131  18.6680  18.7169  18.7630  18.8462  18.8792  18.8964  18.9744
    19.0084  19.0561  19.1841  19.2211  19.2913  19.3455  19.3533  19.4009
    19.5278  19.5413  19.5485  19.5773  19.6440  19.6850  19.7402  19.7787
    19.8019  19.8204  19.8399  19.8688  19.9694  19.9952  20.0549  20.0885
    20.0919  20.1413  20.2005  20.2353  20.3784  20.4369  20.4568  20.5243
    20.5395  20.5699  20.5744  20.6706  20.7273  20.7283  20.7513  20.7822
    20.8134  20.9085  20.9532  21.0019  21.0767  21.0809  21.1039  21.1583
    21.1644  21.2432  21.2477  21.3324  21.3398  21.4256  21.4543  21.5040
    21.5244  21.5778  21.6412  21.6632  21.7001  21.7781  21.7931  21.8231
    21.8409  21.8949  21.9743  21.9926  22.0202  22.0815  22.1056  22.1861
    22.2362  22.2745  22.3926  22.4017  22.4085  22.4944  22.5220  22.5512
    22.6006  22.6369  22.6809  22.7216  22.7754  22.8237  22.9113  22.9214
    22.9632  22.9887  23.0754  23.1574  23.2200  23.2260  23.2309  23.2516
    23.3036  23.3583  23.3822  23.4515  23.4584  23.4798  23.5237  23.5529
    23.6263  23.6653  23.6803  23.7344  23.7653  23.8075  23.8410  23.9038
    23.9454  23.9481  24.0608  24.1199  24.1496  24.1581  24.1605  24.2603
    24.2996  24.3350  24.4119  24.4281  24.4607  24.4689  24.5008  24.5195
    24.6007  24.6102  24.6675  24.7314  24.7690  24.8046  24.8335  24.9036
    24.9501

          k = 0.0000-0.4237 0.0000 ( 44606 PWs)   bands (ev):

   -55.9908 -55.9021 -55.5319 -55.4557 -55.3888 -55.3817 -55.3777 -55.3697
   -55.3683 -55.3265 -55.3021 -55.3017 -55.2910 -55.2895 -55.2477 -54.3279
   -32.8703 -32.1896 -32.0663 -32.0532 -31.9870 -31.9835 -31.9668 -31.9648
   -31.9535 -31.9404 -31.9283 -31.9170 -31.8444 -31.7650 -31.7494 -31.6652
   -31.6638 -31.6613 -31.6344 -31.6220 -31.6196 -31.5599 -31.5594 -31.5487
   -31.5349 -31.5277 -31.5215 -31.4656 -31.4525 -31.4232 -31.4163 -31.4136
   -31.3790 -31.2564 -31.2510 -31.2419 -31.2375 -31.2270 -31.1965 -31.1597
   -31.1428 -31.1074 -31.1029 -31.0907 -31.0305 -30.8124 -30.5226 -30.5039
   -18.9511 -18.6729 -18.6515 -18.5542 -18.5344 -18.5257 -18.4770 -18.4231
   -18.4035 -18.2939 -18.2819 -18.2351 -18.1534 -18.1405 -18.0954 -18.0185
   -17.9466 -17.9156 -17.8565 -17.8406 -17.7023 -17.6808 -17.5510 -17.4932
   -17.3264 -17.3171 -17.3127 -17.2480 -17.1225 -17.0318 -16.2255 -16.1025
   -14.5059  -6.8577  -6.6007  -6.4347  -6.4116  -6.3191  -6.2543  -6.1777
    -6.1568  -6.1564  -6.1508  -6.1373  -6.0615  -6.0355  -5.8668  -5.8614
    -5.8256  -5.7860  -5.7819  -5.7646  -5.7113  -5.6829  -5.5308  -5.4737
    -5.4628  -5.3400  -5.2552  -5.0574  -5.0174  -4.9956  -4.9922  -4.9612
    -4.9512  -4.9159  -4.9135  -4.8576  -4.6501  -4.6288  -4.5652  -4.5320
    -4.5126  -4.4318  -4.4038  -4.2834  -4.2693  -4.2662  -4.2389  -4.2101
    -4.1987  -3.9920  -3.9504  -3.8903  -3.8877  -3.7248  -3.7132  -3.6680
    -3.6151  -3.6001  -3.5402  -3.4168  -3.4064  -3.3931  -3.2630  -3.2504
    -3.2202  -3.1915  -3.1786  -3.1723  -3.0348  -3.0235  -2.9591  -2.9117
    -2.8908  -2.8900  -2.8747  -2.8638  -2.8474  -2.8194  -2.8008  -2.7063
    -2.6790  -2.6289  -2.6108  -2.5512  -2.5020  -2.3739  -2.3626  -2.3491
    -2.2666  -2.2160  -2.1580  -2.1065  -2.0111  -1.8986  -1.5762  -1.5006
    -1.4141  -0.3446  -0.0201   0.1550   0.3770   0.5028   0.6408   0.8432
     0.9151   0.9266   0.9382   0.9949   1.0150   1.1270   1.2556   1.3658
     1.4060   1.7328   1.8808   1.9570   2.2791   2.2887   2.3732   2.4459
     2.5381   2.5728   2.5828   2.6859   2.7561   2.8453   2.9521   2.9811
     2.9846   2.9916   3.0046   3.0391   3.1045   3.1692   3.2227   3.2699
     3.2868   3.2880   3.3671   3.6445   3.8478   3.9588   4.0617   4.0822
     4.1060   4.1065   4.1778   4.1955   4.2222   4.3851   4.6223   5.1854
     5.2094   5.2472   5.2560   5.2993   5.3783   5.3815   5.7718   5.7873
     5.8653   5.9277   6.0324   6.0427   6.1702   6.2664   6.2692   6.2848
     6.3221   6.3305   6.5302   6.6322   6.7003   6.7115   6.7360   6.7678
     6.9781   7.0586   7.1538   7.3202   7.3612   7.4898   7.4942   7.6394
     7.6583   7.6587   7.7835   7.7880   7.8506   7.8631   7.9976   8.1805
     8.2281   8.2479   8.3296   8.3852   8.4797   8.5484   8.9879   9.0381
     9.0792   9.2167   9.3984   9.5120   9.7674   9.8091   9.8754  10.0435
    10.1268  10.1275  10.1881  10.2311  10.3404  10.5552  10.5797  10.5807
    10.8202  10.9666  11.0474  11.0522  11.0822  11.0932  11.1264  11.2762
    11.2984  11.3118  11.3368  11.3458  11.4814  11.5165  11.5689  11.6232
    11.6839  11.7050  11.7251  11.7300  11.7970  11.8352  11.8709  11.8946
    11.9044  11.9680  11.9954  12.1441  12.1552  12.1610  12.1795  12.1956
    12.2167  12.2964  12.4329  12.4710  12.4793  12.5569  12.6354  12.6383
    12.7372  12.7458  12.8058  12.8252  12.8516  12.8754  12.9037  13.0327
    13.0607  13.1013  13.1117  13.2097  13.2154  13.2669  13.3654  13.3822
    13.4034  13.4077  13.4591  13.5577  13.5595  13.6970  13.7794  13.7824
    14.0436  14.0866  14.1256  14.1567  14.1573  14.2644  14.2679  14.3958
    14.5346  14.6332  14.6726  14.6900  14.7050  14.7472  14.7476  14.7877
    14.8169  14.9127  14.9417  15.0285  15.0586  15.1781  15.2756  15.2802
    15.2956  15.3153  15.3777  15.4520  15.5184  15.5231  15.6391  15.6491
    15.7698  15.8082  15.8090  15.8620  15.8936  15.9520  15.9791  15.9998
    16.0818  16.2182  16.2364  16.2373  16.3741  16.4268  16.4363  16.5584
    16.6324  16.7389  16.7849  16.8167  16.8800  16.9934  17.0526  17.1095
    17.1291  17.2388  17.2774  17.3088  17.3530  17.3992  17.4068  17.5082
    17.5307  17.5639  17.5669  17.6267  17.6653  17.6836  17.7001  17.7036
    17.7327  17.7955  17.8118  17.8345  17.9586  17.9853  17.9887  18.0311
    18.0945  18.1018  18.1086  18.1437  18.1967  18.2293  18.3687  18.4617
    18.4929  18.5027  18.5151  18.5285  18.5553  18.5920  18.5993  18.6434
    18.6750  18.8939  18.9358  19.0523  19.0524  19.0640  19.0893  19.1100
    19.1305  19.1458  19.1985  19.2249  19.2254  19.2712  19.2757  19.2796
    19.2874  19.3090  19.5126  19.5775  19.6129  19.6642  19.7825  19.7914
    19.9325  19.9430  19.9799  19.9914  19.9914  20.0265  20.0824  20.0875
    20.2172  20.2638  20.2755  20.3910  20.5249  20.5307  20.6579  20.7810
    20.8201  20.8559  20.9458  20.9842  21.0246  21.0252  21.0591  21.1097
    21.1985  21.2000  21.2208  21.2922  21.2989  21.3755  21.3908  21.4029
    21.4265  21.4491  21.4523  21.5744  21.6295  21.6449  21.7357  21.7465
    21.7953  21.8051  21.9359  21.9431  21.9563  22.0735  22.1184  22.2217
    22.3179  22.3239  22.3398  22.4003  22.5493  22.5511  22.6009  22.6775
    22.7204  22.7389  22.7839  22.9218  22.9432  23.0154  23.0161  23.0480
    23.0656  23.1124  23.1494  23.1666  23.2951  23.4018  23.4221  23.5136
    23.5561  23.5566  23.6496  23.6662  23.7550  23.8237  23.8683  23.8888
    23.8920  23.9276  23.9418  23.9956  24.0912  24.1490  24.1778  24.2013
    24.2177  24.2679  24.3079  24.3163  24.3320  24.3497  24.4963  24.5131
    24.5476  24.5847  24.5911  24.6113  24.6364  24.6501  24.6921  24.7296
    24.7436  24.7892  24.8092  24.8415  24.9166  24.9540  24.9554  24.9575
    25.0516

          k = 0.2500 0.0000 0.0000 ( 44619 PWs)   bands (ev):

   -55.9780 -55.9152 -55.5313 -55.4445 -55.3893 -55.3803 -55.3688 -55.3616
   -55.3537 -55.3150 -55.3146 -55.3111 -55.3035 -55.3000 -55.2593 -54.3287
   -32.7336 -32.1680 -32.0112 -31.9928 -31.9866 -31.9678 -31.9506 -31.9168
   -31.8821 -31.8520 -31.8452 -31.8230 -31.7734 -31.7347 -31.7308 -31.7036
   -31.6951 -31.6720 -31.6451 -31.6312 -31.6136 -31.6051 -31.6038 -31.5753
   -31.5619 -31.5359 -31.5014 -31.4355 -31.4021 -31.3924 -31.3686 -31.3552
   -31.3290 -31.3017 -31.2921 -31.2796 -31.2723 -31.2700 -31.2611 -31.2460
   -31.2288 -31.2219 -31.2203 -31.1866 -31.1642 -30.8112 -30.6127 -30.5056
   -18.9017 -18.7077 -18.6197 -18.5512 -18.5012 -18.4101 -18.3302 -18.3096
   -18.2559 -18.1866 -18.1379 -18.0416 -18.0374 -18.0089 -17.9553 -17.9514
   -17.9453 -17.8929 -17.8688 -17.7797 -17.7645 -17.6929 -17.6563 -17.5586
   -17.5479 -17.5194 -17.4711 -17.4538 -17.2983 -17.2371 -16.2520 -16.1655
   -14.5069  -6.7289  -6.6711  -6.6557  -6.5759  -6.4198  -6.2743  -6.2056
    -6.1622  -5.9528  -5.9468  -5.9258  -5.8326  -5.8155  -5.7984  -5.7570
    -5.6532  -5.6092  -5.6005  -5.5712  -5.4975  -5.4490  -5.4433  -5.3922
    -5.3891  -5.3715  -5.3224  -5.2929  -5.2169  -5.1816  -5.1171  -5.0677
    -5.0540  -5.0153  -4.9391  -4.9139  -4.9058  -4.6669  -4.6460  -4.5302
    -4.4819  -4.4146  -4.3556  -4.3471  -4.2914  -4.2210  -4.1749  -4.0832
    -4.0593  -4.0159  -3.9684  -3.9025  -3.8216  -3.8214  -3.6933  -3.6842
    -3.6226  -3.5109  -3.4298  -3.3829  -3.3762  -3.2820  -3.2375  -3.2157
    -3.1820  -3.1636  -3.1247  -3.1244  -3.0847  -3.0815  -3.0501  -3.0000
    -2.9738  -2.9323  -2.8943  -2.8542  -2.8371  -2.8250  -2.8004  -2.7788
    -2.6952  -2.6148  -2.5801  -2.5578  -2.5207  -2.4952  -2.4409  -2.4265
    -2.4148  -2.3465  -2.1716  -2.0546  -1.7735  -1.7584  -1.5939  -1.4095
    -1.3092  -0.3470   0.0625   0.1533   0.5991   0.6341   0.6864   0.7943
     0.8814   0.9894   1.2556   1.4011   1.5588   1.5983   1.6246   1.6417
     1.7666   1.8987   1.9818   2.0137   2.0197   2.0770   2.0858   2.1230
     2.1366   2.2775   2.2800   2.3933   2.4021   2.4205   2.4931   2.5008
     2.5238   2.7106   2.7771   2.8500   2.8939   2.9095   3.0299   3.0787
     3.1347   3.2039   3.2259   3.2806   3.2955   3.3477   3.4370   3.5603
     3.5790   3.6899   3.8770   3.9877   4.2841   4.3141   4.7969   5.0071
     5.2414   5.3836   5.4114   5.6031   5.7274   5.8278   5.9347   6.1273
     6.1733   6.2735   6.2933   6.3249   6.3976   6.4275   6.4474   6.4669
     6.4893   6.5144   6.5147   6.5766   6.5868   6.6463   6.6488   6.6682
     6.7361   6.7729   6.8001   6.8501   6.9393   7.1696   7.3427   7.4285
     7.5817   7.8085   7.8714   8.1327   8.2197   8.2665   8.4975   8.6423
     8.7353   8.8113   8.9040   8.9411   9.0672   9.1401   9.1778   9.2413
     9.3655   9.3864   9.5259   9.5759   9.6463   9.6498   9.7325   9.7423
     9.8707   9.8809   9.9370  10.0200  10.0305  10.0937  10.1586  10.2987
    10.3280  10.4243  10.4973  10.5199  10.5598  10.5850  10.6987  10.7795
    10.8907  10.9520  10.9998  11.0816  11.1314  11.2979  11.3532  11.4301
    11.4864  11.4922  11.5686  11.6270  11.6344  11.7828  11.8124  11.8255
    11.9068  11.9986  12.0698  12.1073  12.1673  12.3912  12.4361  12.4694
    12.5176  12.5546  12.5590  12.5764  12.6142  12.6468  12.6617  12.6810
    12.7535  12.8108  12.8353  12.9264  12.9463  13.0422  13.0545  13.1046
    13.2581  13.3302  13.3763  13.4254  13.4465  13.4677  13.5353  13.6015
    13.6243  13.6296  13.7168  13.7602  13.8695  13.9072  13.9867  14.0598
    14.0939  14.2118  14.2291  14.3233  14.3552  14.4566  14.5243  14.6166
    14.6875  14.7406  14.7501  14.8251  14.8605  14.8991  15.0035  15.0802
    15.1180  15.1443  15.2745  15.3486  15.4114  15.4901  15.5179  15.5488
    15.5523  15.5804  15.6243  15.6362  15.6779  15.7121  15.7596  15.8992
    15.9442  15.9506  15.9887  16.0727  16.0739  16.1235  16.1551  16.1846
    16.2524  16.2802  16.3380  16.4346  16.4705  16.4802  16.5231  16.6291
    16.7379  16.7627  16.7759  16.8148  16.8931  16.9014  16.9732  16.9804
    17.0820  17.1524  17.1732  17.1996  17.2673  17.3205  17.3834  17.4982
    17.6476  17.6642  17.6872  17.7065  17.8228  17.9123  17.9486  18.0200
    18.0710  18.1136  18.1604  18.2272  18.3591  18.4370  18.4599  18.4870
    18.5088  18.5411  18.5423  18.5876  18.6385  18.7162  18.7592  18.7637
    18.8191  18.8902  18.9496  18.9848  19.0545  19.0709  19.1364  19.1475
    19.1530  19.1679  19.2945  19.2965  19.3761  19.3762  19.4023  19.4709
    19.5027  19.5069  19.5314  19.5323  19.6174  19.6202  19.6518  19.6979
    19.8226  19.8388  19.8965  19.9025  19.9110  19.9144  19.9983  20.0078
    20.0227  20.1379  20.1797  20.2002  20.2391  20.2487  20.3427  20.3702
    20.4222  20.4228  20.4886  20.5478  20.5922  20.6268  20.6736  20.7129
    20.7605  20.7897  20.8277  20.8530  20.9195  20.9505  21.0247  21.0771
    21.0894  21.1433  21.1747  21.1974  21.2368  21.3135  21.3319  21.3985
    21.4014  21.4571  21.4997  21.5239  21.5845  21.6344  21.6671  21.6803
    21.7008  21.7634  21.7856  21.8886  21.9067  21.9677  21.9949  22.0198
    22.0613  22.1060  22.2013  22.2071  22.2301  22.2554  22.2928  22.3201
    22.3841  22.4025  22.4411  22.4853  22.5190  22.6283  22.6342  22.6755
    22.7190  22.7228  22.8151  22.8620  22.8863  22.8915  22.9061  22.9636
    23.0280  23.0586  23.0659  23.0792  23.1505  23.1509  23.1588  23.1822
    23.2219  23.3026  23.3509  23.3598  23.4117  23.4301  23.4559  23.5858
    23.5892  23.5991  23.6345  23.6653  23.6793  23.7406  23.7499  23.7639
    23.7791  23.8041  23.8107  23.9371  23.9641  23.9868  24.0704  24.0862
    24.1796  24.2272  24.2457  24.2979  24.3471  24.3776  24.4492  24.5044
    24.5631

          k = 0.2500 0.2118 0.0000 ( 44587 PWs)   bands (ev):

   -55.9780 -55.9152 -55.5313 -55.4444 -55.3893 -55.3796 -55.3694 -55.3605
   -55.3548 -55.3151 -55.3142 -55.3116 -55.3031 -55.3004 -55.2593 -54.3287
   -32.7337 -32.1679 -32.0134 -31.9929 -31.9782 -31.9679 -31.9510 -31.9263
   -31.8824 -31.8598 -31.8503 -31.8379 -31.7927 -31.7345 -31.7194 -31.6816
   -31.6767 -31.6513 -31.6452 -31.6313 -31.6135 -31.5836 -31.5814 -31.5619
   -31.5581 -31.5359 -31.5088 -31.4358 -31.4023 -31.3941 -31.3929 -31.3568
   -31.3549 -31.3220 -31.2918 -31.2795 -31.2717 -31.2700 -31.2644 -31.2422
   -31.2291 -31.2252 -31.2196 -31.1895 -31.1626 -30.8111 -30.6117 -30.5080
   -18.8634 -18.6409 -18.5290 -18.5028 -18.4179 -18.3543 -18.3464 -18.3358
   -18.3066 -18.3015 -18.2590 -18.2080 -18.1791 -18.1113 -17.9862 -17.9029
   -17.8930 -17.7897 -17.7830 -17.7115 -17.6903 -17.6877 -17.6295 -17.6196
   -17.5952 -17.5386 -17.4543 -17.3646 -17.3273 -17.2689 -16.2516 -16.1657
   -14.5062  -6.6538  -6.4267  -6.3307  -6.3212  -6.2928  -6.2045  -6.1854
    -6.1055  -6.0365  -6.0318  -6.0144  -5.9344  -5.9052  -5.8368  -5.7992
    -5.7830  -5.7720  -5.7507  -5.6734  -5.5862  -5.5443  -5.4696  -5.4179
    -5.3897  -5.3647  -5.3502  -5.3033  -5.2368  -5.2052  -5.1343  -5.0432
    -4.9803  -4.8944  -4.8714  -4.7575  -4.6672  -4.6140  -4.5850  -4.5397
    -4.4820  -4.4383  -4.3527  -4.2355  -4.2195  -4.1799  -4.1559  -4.0535
    -3.9552  -3.8766  -3.8390  -3.8314  -3.7987  -3.7623  -3.7382  -3.7247
    -3.6086  -3.5526  -3.5276  -3.5260  -3.4716  -3.4636  -3.4491  -3.3881
    -3.3567  -3.3350  -3.3220  -3.2991  -3.2229  -3.1746  -3.1501  -3.1166
    -3.0606  -3.0079  -2.9624  -2.9099  -2.8914  -2.8453  -2.7999  -2.6894
    -2.6408  -2.6124  -2.5789  -2.5448  -2.4754  -2.4585  -2.4360  -2.3743
    -2.3643  -2.3282  -2.2103  -2.0386  -1.8400  -1.7517  -1.5871  -1.4171
    -1.3920  -0.3450   0.0018   0.1664   0.7609   0.8355   0.9643   1.0293
     1.0495   1.0588   1.2178   1.2746   1.3350   1.4076   1.5021   1.5916
     1.6558   1.7503   1.9261   1.9683   2.0421   2.1281   2.1831   2.2328
     2.3093   2.3981   2.4293   2.4739   2.5125   2.5938   2.6765   2.7318
     2.7754   2.7856   2.8869   2.9176   2.9385   3.0171   3.0679   3.0813
     3.1406   3.2489   3.2960   3.3280   3.3510   3.3949   3.4060   3.5852
     3.5972   3.6965   3.7298   4.0424   4.1261   4.3896   4.7134   5.2068
     5.3911   5.4996   5.5425   5.6011   5.6242   5.6520   5.6937   5.7211
     5.8096   5.8565   5.9244   6.0094   6.0857   6.1816   6.2805   6.3100
     6.4208   6.4575   6.4840   6.5439   6.6185   6.6829   6.7359   6.8876
     6.9680   7.0402   7.1842   7.2180   7.2893   7.4102   7.5125   7.5560
     7.6395   7.7849   7.9371   8.0295   8.0963   8.1855   8.3280   8.4150
     8.5499   8.6020   8.6478   8.7349   8.8034   8.9318   8.9955   9.0450
     9.0706   9.1323   9.2700   9.3668   9.4615   9.5190   9.5698   9.6602
     9.7024   9.8931  10.0783  10.0871  10.1483  10.2171  10.2839  10.4161
    10.4980  10.5424  10.6032  10.7032  10.7598  10.7941  10.8655  10.8785
    11.0020  11.0765  11.1169  11.1880  11.2273  11.3186  11.3686  11.4045
    11.4918  11.5087  11.5831  11.6599  11.6898  11.8279  11.8550  11.9548
    12.0092  12.1482  12.1848  12.3186  12.3789  12.4966  12.5277  12.6327
    12.7184  12.7382  12.7423  12.7497  12.8497  12.9272  12.9726  12.9960
    13.0511  13.0960  13.1156  13.1513  13.2217  13.2326  13.2758  13.3100
    13.3397  13.3711  13.4182  13.4658  13.5134  13.5802  13.6359  13.6725
    13.7208  13.7677  13.8093  13.8249  13.8387  13.9565  14.0397  14.1022
    14.1993  14.2409  14.3311  14.3824  14.3911  14.4476  14.4867  14.5230
    14.5916  14.6635  14.7134  14.8466  14.8748  14.8940  14.9407  14.9595
    15.0347  15.0672  15.1039  15.1422  15.2314  15.2851  15.3496  15.3797
    15.4136  15.4350  15.4949  15.5332  15.5910  15.7079  15.7446  15.7731
    15.7811  15.8049  15.9136  15.9601  15.9884  16.0203  16.0586  16.0768
    16.1094  16.1916  16.2286  16.2614  16.3589  16.4382  16.4528  16.5112
    16.5998  16.6249  16.7028  16.7560  16.8214  16.8497  16.9316  16.9824
    16.9952  17.0553  17.1258  17.1610  17.2309  17.2695  17.3080  17.3633
    17.4506  17.5323  17.5509  17.5998  17.6089  17.7231  17.7451  17.7722
    17.8715  17.8769  17.9467  18.0194  18.0875  18.0953  18.1135  18.1211
    18.2333  18.2953  18.3322  18.3636  18.3875  18.3978  18.4614  18.4850
    18.5600  18.6145  18.6863  18.7090  18.8238  18.8894  18.8998  18.9918
    19.0165  19.0918  19.2030  19.2112  19.2659  19.3007  19.3384  19.3542
    19.4355  19.4545  19.4624  19.4825  19.5757  19.6234  19.6724  19.6916
    19.7163  19.7366  19.7550  19.8438  19.8990  19.9465  19.9929  20.0575
    20.0925  20.0969  20.1481  20.1786  20.2433  20.3237  20.3483  20.3800
    20.4173  20.4529  20.5087  20.5231  20.6240  20.6447  20.6545  20.7183
    20.7780  20.8426  20.8663  20.8933  20.9419  20.9748  21.0124  21.0342
    21.0862  21.1187  21.2049  21.2293  21.2526  21.3074  21.3906  21.4050
    21.5102  21.5314  21.5354  21.5857  21.6424  21.7228  21.7844  21.8005
    21.8474  21.8991  21.9143  21.9753  22.0037  22.0265  22.0777  22.0847
    22.1328  22.1697  22.2245  22.2344  22.2788  22.3162  22.3284  22.3734
    22.4357  22.4964  22.5080  22.5122  22.5823  22.5981  22.6857  22.7142
    22.7154  22.7277  22.7604  22.8154  22.8613  22.9060  22.9427  22.9777
    22.9931  23.0358  23.0752  23.0807  23.1091  23.1661  23.1922  23.2278
    23.3408  23.4003  23.4210  23.4338  23.4765  23.4875  23.5956  23.6150
    23.6590  23.7302  23.7859  23.8170  23.8409  23.8649  23.8983  23.9748
    24.0070  24.0439  24.0572  24.0851  24.1345  24.1760  24.2116  24.2307
    24.2618  24.2849  24.3158  24.3870  24.4162  24.4526  24.5289  24.5472
    24.5660

          k = 0.2500-0.4237 0.0000 ( 44580 PWs)   bands (ev):

   -55.9779 -55.9152 -55.5313 -55.4443 -55.3892 -55.3789 -55.3701 -55.3585
   -55.3569 -55.3151 -55.3135 -55.3122 -55.3024 -55.3011 -55.2593 -54.3287
   -32.7339 -32.1679 -32.0148 -31.9929 -31.9711 -31.9679 -31.9514 -31.9343
   -31.8827 -31.8703 -31.8523 -31.8503 -31.8085 -31.7343 -31.7088 -31.6561
   -31.6552 -31.6449 -31.6313 -31.6267 -31.6134 -31.5650 -31.5622 -31.5607
   -31.5418 -31.5359 -31.5165 -31.4370 -31.4244 -31.4005 -31.3937 -31.3840
   -31.3637 -31.3391 -31.2916 -31.2795 -31.2721 -31.2700 -31.2669 -31.2363
   -31.2325 -31.2288 -31.2193 -31.1926 -31.1613 -30.8111 -30.6106 -30.5106
   -18.8354 -18.5766 -18.5100 -18.4692 -18.4569 -18.3931 -18.3692 -18.3653
   -18.3169 -18.1825 -18.1580 -18.1402 -18.0996 -18.0591 -18.0244 -18.0114
   -17.9983 -17.9346 -17.8876 -17.8308 -17.7554 -17.7528 -17.6777 -17.5719
   -17.4649 -17.4535 -17.4483 -17.3853 -17.3078 -17.1640 -16.2513 -16.1660
   -14.5056  -6.6409  -6.4103  -6.2327  -6.2087  -6.1665  -6.1437  -6.1060
    -6.0858  -5.9845  -5.9503  -5.9248  -5.8828  -5.8486  -5.8274  -5.7981
    -5.6297  -5.6195  -5.6096  -5.5837  -5.5691  -5.5563  -5.5274  -5.5261
    -5.4665  -5.4544  -5.4378  -5.4134  -5.3178  -5.3170  -5.2432  -5.0949
    -5.0585  -4.9658  -4.8779  -4.8675  -4.7842  -4.7162  -4.4693  -4.4215
    -4.3536  -4.3107  -4.3095  -4.1147  -4.1083  -4.0266  -3.9831  -3.9710
    -3.9493  -3.9265  -3.9121  -3.8641  -3.8619  -3.8069  -3.8036  -3.7580
    -3.7454  -3.7445  -3.7046  -3.6236  -3.6208  -3.5925  -3.5469  -3.5201
    -3.5094  -3.4348  -3.4027  -3.3785  -3.3613  -3.3346  -3.2239  -3.1615
    -3.0840  -3.0375  -3.0180  -2.8978  -2.8886  -2.8808  -2.7617  -2.7073
    -2.5575  -2.5427  -2.5396  -2.4944  -2.4499  -2.3844  -2.3295  -2.2907
    -2.2761  -2.2436  -2.1529  -2.0977  -2.0575  -1.7408  -1.5811  -1.5286
    -1.3740  -0.3473  -0.0495   0.1870   0.7669   0.8425   0.8528   1.0467
     1.1248   1.1781   1.2053   1.2902   1.3002   1.3490   1.3659   1.5915
     1.7187   1.8635   1.9730   2.0123   2.0260   2.1352   2.2261   2.2552
     2.4657   2.5476   2.5825   2.6120   2.6864   2.7765   2.7884   2.8038
     2.8284   2.9013   2.9470   2.9812   2.9933   3.1137   3.1544   3.2047
     3.2282   3.2830   3.2864   3.3794   3.4812   3.5225   3.5678   3.5785
     3.6118   3.7862   3.7881   3.7998   4.1371   4.4812   4.6419   5.0530
     5.0927   5.1240   5.1528   5.4153   5.4737   5.5308   5.5601   5.5863
     5.6959   5.7152   5.7166   5.9836   5.9918   6.1358   6.1669   6.4299
     6.4812   6.5379   6.6470   6.6538   6.6974   6.8976   6.9797   7.0355
     7.0662   7.2214   7.3445   7.3798   7.4045   7.4503   7.5198   7.6271
     7.6762   7.7962   7.8266   7.8613   7.9591   8.0598   8.0601   8.0886
     8.1931   8.2298   8.5672   8.6222   8.8492   8.8652   8.8695   9.0226
     9.1178   9.1976   9.2822   9.3533   9.4188   9.4858   9.5046   9.5699
     9.6144   9.7482   9.7794   9.8589   9.9734  10.0231  10.1230  10.2452
    10.3654  10.4930  10.5508  10.5793  10.6054  10.7312  10.8994  10.9166
    11.0483  11.2330  11.4349  11.4367  11.4687  11.4853  11.5856  11.6058
    11.8249  11.9658  12.0016  12.0798  12.1337  12.1749  12.2072  12.2355
    12.2436  12.2611  12.3417  12.4273  12.5071  12.5092  12.7208  12.7542
    12.8230  12.8326  12.9108  12.9175  12.9479  12.9580  13.0447  13.0796
    13.0938  13.2121  13.2195  13.2384  13.2953  13.3298  13.3640  13.4000
    13.4401  13.4855  13.5415  13.6048  13.6426  13.6541  13.7351  13.8071
    13.8517  13.9151  13.9619  13.9841  14.0231  14.0467  14.0887  14.1498
    14.2041  14.2877  14.3519  14.3808  14.4478  14.4930  14.5386  14.5957
    14.6568  14.6964  14.7001  14.7473  14.7687  14.8797  14.8814  14.9397
    14.9409  14.9891  15.0901  15.1564  15.1571  15.2326  15.2515  15.2824
    15.3794  15.4377  15.4793  15.4930  15.4962  15.5274  15.5937  15.6426
    15.6524  15.7198  15.7528  15.7713  15.8100  15.8882  15.8885  15.9837
    16.0590  16.1082  16.1262  16.1622  16.1678  16.2013  16.2594  16.2912
    16.3484  16.3736  16.4555  16.4740  16.5399  16.6084  16.6592  16.7019
    16.7042  16.7302  16.8208  16.8596  16.8876  17.0243  17.0509  17.1046
    17.1533  17.2161  17.2552  17.3756  17.3961  17.4203  17.5008  17.5054
    17.5739  17.6762  17.8401  17.8602  17.9098  17.9614  18.0395  18.0469
    18.0806  18.0889  18.1961  18.2129  18.3253  18.4896  18.5387  18.6268
    18.6450  18.6701  18.7899  18.8273  18.8736  18.9657  19.0380  19.0541
    19.1105  19.1299  19.2358  19.2795  19.3195  19.3357  19.4066  19.4589
    19.5294  19.5923  19.6279  19.6607  19.7264  19.7356  19.7829  19.8694
    19.8794  19.8910  19.9188  19.9329  19.9951  20.0057  20.0883  20.1178
    20.1608  20.1652  20.2220  20.2521  20.2594  20.3137  20.3598  20.3611
    20.4044  20.4728  20.5043  20.5177  20.5675  20.5721  20.5872  20.6371
    20.6466  20.6500  20.6655  20.7926  20.7980  20.8396  20.8634  20.9145
    20.9334  20.9885  21.0496  21.1209  21.1863  21.1895  21.2092  21.2270
    21.2539  21.2617  21.2765  21.3457  21.3817  21.3904  21.4228  21.4586
    21.5238  21.5299  21.6008  21.6536  21.6594  21.6684  21.7009  21.8603
    21.8637  21.9626  21.9717  22.0535  22.0794  22.1857  22.1961  22.2425
    22.2684  22.3487  22.4573  22.4945  22.5085  22.5790  22.5878  22.5985
    22.6615  22.6991  22.7088  22.7760  22.8157  22.8353  22.8871  22.9756
    23.0353  23.0901  23.1435  23.1458  23.2256  23.2404  23.2641  23.2731
    23.2973  23.3513  23.3885  23.4276  23.5046  23.5409  23.5806  23.6664
    23.7701  23.8353  23.8679  23.9099  24.0794  24.1016  24.1658  24.2403
    24.2542  24.2618  24.3075  24.3389  24.3484  24.4159  24.4745  24.5038
    24.6553  24.7146  24.7748  24.7851  24.8092  24.8359  24.8526  24.8844
    24.9695

          k =-0.5000 0.0000 0.0000 ( 44618 PWs)   bands (ev):

   -55.9468 -55.9467 -55.5307 -55.4170 -55.4170 -55.3646 -55.3421 -55.3421
   -55.3364 -55.3311 -55.3279 -55.3266 -55.3236 -55.2892 -55.2853 -54.3295
   -32.3959 -32.3927 -32.0502 -32.0486 -31.9975 -31.9563 -31.9472 -31.7263
   -31.7202 -31.6544 -31.6507 -31.6492 -31.6488 -31.6474 -31.6434 -31.6404
   -31.6231 -31.6220 -31.6215 -31.6210 -31.6092 -31.5766 -31.5706 -31.5701
   -31.5548 -31.5516 -31.5407 -31.5217 -31.5142 -31.5070 -31.4973 -31.4773
   -31.4766 -31.3647 -31.3567 -31.3434 -31.3408 -31.3335 -31.3329 -31.3324
   -31.3009 -31.2836 -31.2716 -31.2489 -31.2434 -30.8098 -30.7156 -30.5115
   -18.6636 -18.5166 -18.5093 -18.3403 -18.3118 -18.2917 -18.2616 -18.2027
   -18.2005 -18.0970 -18.0850 -18.0813 -18.0348 -18.0199 -17.8913 -17.8787
   -17.8784 -17.8364 -17.7967 -17.7966 -17.7774 -17.7770 -17.7579 -17.7309
   -17.7102 -17.7101 -17.6825 -17.6721 -17.4644 -17.4621 -16.2552 -16.2544
   -14.5069  -6.2766  -6.2709  -6.2192  -6.1199  -6.0984  -6.0651  -6.0406
    -6.0387  -6.0315  -6.0260  -6.0079  -5.8150  -5.7520  -5.7511  -5.7305
    -5.7218  -5.6882  -5.6625  -5.6621  -5.6084  -5.5604  -5.5065  -5.4840
    -5.4343  -5.4276  -5.3413  -5.3190  -5.2971  -5.2780  -5.2624  -5.1957
    -5.0356  -4.7987  -4.7898  -4.7720  -4.7496  -4.6265  -4.6136  -4.4398
    -4.4303  -4.2681  -4.2665  -4.2206  -4.2198  -4.1658  -4.1486  -4.1206
    -4.0779  -4.0629  -4.0365  -4.0167  -3.9967  -3.7173  -3.6924  -3.6401
    -3.6366  -3.6200  -3.5731  -3.5731  -3.4404  -3.4177  -3.4174  -3.3312
    -3.3103  -3.2756  -3.2698  -3.2011  -3.1975  -3.1944  -3.1896  -3.0920
    -3.0708  -3.0556  -3.0239  -2.9804  -2.9684  -2.9655  -2.8431  -2.7980
    -2.7868  -2.7279  -2.6936  -2.6628  -2.6473  -2.6382  -2.5783  -2.3854
    -2.3827  -2.0764  -2.0590  -1.9729  -1.9391  -1.5910  -1.5908  -1.4044
    -1.4036  -0.3340  -0.0096   0.1642   1.3804   1.4008   1.4419   1.4761
     1.4896   1.5364   1.6278   1.6329   1.6528   1.6563   1.6779   1.7141
     1.7506   1.7624   1.7980   1.8182   1.8587   1.8934   1.9010   1.9775
     1.9977   2.0032   2.1228   2.1264   2.1506   2.1986   2.2834   2.2887
     2.4663   2.5569   2.5597   2.5748   2.5881   2.6539   2.6562   2.7981
     2.8091   2.8444   2.8967   3.0106   3.0538   3.1577   3.1583   3.3163
     3.4196   3.5417   3.8017   3.8682   3.8823   4.4305   4.7630   5.3653
     5.3849   5.4687   5.5641   5.8688   5.8877   5.9441   5.9907   6.1635
     6.1669   6.1770   6.2853   6.2882   6.2930   6.3029   6.3642   6.3668
     6.4423   6.4436   6.5048   6.5525   6.5972   6.6131   6.6411   6.8001
     6.8230   7.0816   7.1077   7.2419   7.2462   7.3059   7.3169   7.5287
     7.5721   7.6431   7.7156   7.8315   7.8682   8.0987   8.1642   8.1886
     8.2551   8.6043   8.7225   8.8110   8.8552   8.9661   8.9663   9.2947
     9.3156   9.4983   9.6280   9.7276   9.7689   9.9439   9.9510   9.9542
    10.0544  10.1673  10.2271  10.2594  10.3817  10.4167  10.4312  10.4471
    10.5466  10.6234  10.6603  10.7395  10.7819  10.8092  10.8146  10.9113
    10.9422  10.9493  11.0043  11.0238  11.0414  11.1793  11.2292  11.2853
    11.3277  11.4500  11.4575  11.4621  11.5462  11.6131  11.6798  11.6822
    11.7013  11.7644  11.7883  12.0340  12.0474  12.1285  12.1483  12.2174
    12.2521  12.3832  12.5297  12.6381  12.6683  12.7838  12.7991  12.9425
    13.1260  13.1390  13.1899  13.2136  13.2562  13.3009  13.3212  13.3559
    13.3604  13.4205  13.4432  13.4869  13.4957  13.5681  13.5804  13.5869
    13.5987  13.6806  13.7708  13.9554  14.2042  14.2153  14.2287  14.2672
    14.2719  14.3480  14.3615  14.4853  14.5055  14.6537  14.6685  14.7390
    14.7615  14.7780  14.9155  14.9505  15.0133  15.1397  15.1481  15.2311
    15.2560  15.3220  15.3398  15.4146  15.4199  15.4232  15.4421  15.5762
    15.5863  15.6300  15.6848  15.7283  15.8104  16.0305  16.0370  16.0765
    16.1538  16.2461  16.2868  16.2956  16.2995  16.3545  16.3551  16.4046
    16.4374  16.5576  16.6299  16.6426  16.6443  16.7529  16.8057  16.8301
    16.8305  16.9375  16.9404  16.9625  17.0431  17.0987  17.1839  17.1997
    17.2402  17.3119  17.4182  17.4312  17.5343  17.6761  17.6831  17.7135
    17.7693  17.8062  17.9027  17.9445  18.0071  18.0500  18.0794  18.0831
    18.1853  18.2461  18.3543  18.3563  18.3996  18.5804  18.6003  18.6266
    18.6476  18.6793  18.6806  18.7733  18.7746  18.8463  18.9932  19.0078
    19.0462  19.0744  19.0962  19.1135  19.1689  19.1893  19.2175  19.2317
    19.2525  19.3072  19.3329  19.4069  19.4117  19.4387  19.4448  19.4604
    19.4700  19.4782  19.5027  19.5578  19.5853  19.6028  19.6385  19.6447
    19.6585  19.8078  19.8100  19.8445  19.9256  19.9432  19.9551  19.9804
    20.0128  20.0296  20.0448  20.0793  20.1626  20.1834  20.2035  20.2290
    20.2299  20.2530  20.3311  20.3491  20.3706  20.4479  20.4737  20.5248
    20.6062  20.6101  20.6584  20.6903  20.7050  20.7678  20.7845  20.8633
    20.8711  20.8798  20.9051  20.9153  20.9156  20.9431  20.9556  20.9875
    21.0134  21.0580  21.1214  21.1422  21.2077  21.2232  21.2807  21.2807
    21.4508  21.5002  21.5005  21.5281  21.5589  21.5931  21.6481  21.7534
    21.7715  21.8054  21.8070  21.8889  21.9093  21.9356  21.9598  21.9783
    21.9784  22.0184  22.0343  22.0741  22.1453  22.2523  22.2784  22.3087
    22.3562  22.3985  22.4055  22.4078  22.5105  22.5248  22.5608  22.6225
    22.6286  22.6983  22.7322  22.9385  22.9972  22.9986  23.0364  23.0893
    23.1325  23.1725  23.2110  23.2333  23.2530  23.2716  23.2910  23.3804
    23.3913  23.4094  23.4859  23.5214  23.6081  23.6182  23.6273  23.6971
    23.7540  23.7670  23.7777  23.7824  23.8158  23.8560  23.9422  23.9527
    23.9953  24.0136  24.0541  24.0763  24.1705  24.1770  24.1865  24.2107
    24.2244

          k =-0.5000 0.2118 0.0000 ( 44616 PWs)   bands (ev):

   -55.9467 -55.9467 -55.5307 -55.4169 -55.4169 -55.3644 -55.3423 -55.3418
   -55.3358 -55.3305 -55.3285 -55.3267 -55.3244 -55.2893 -55.2853 -54.3295
   -32.3960 -32.3927 -32.0502 -32.0485 -31.9996 -31.9504 -31.9492 -31.7264
   -31.7203 -31.6574 -31.6568 -31.6521 -31.6520 -31.6442 -31.6428 -31.6379
   -31.6361 -31.6359 -31.6212 -31.6207 -31.6090 -31.5763 -31.5702 -31.5693
   -31.5277 -31.5253 -31.5225 -31.5163 -31.5076 -31.5058 -31.5037 -31.4642
   -31.4635 -31.3650 -31.3572 -31.3464 -31.3433 -31.3404 -31.3336 -31.3325
   -31.3134 -31.2967 -31.2843 -31.2604 -31.2548 -30.8097 -30.7137 -30.5144
   -18.6586 -18.4962 -18.4909 -18.3161 -18.2933 -18.2797 -18.2511 -18.2208
   -18.2155 -18.1077 -18.1004 -18.0874 -18.0596 -18.0457 -17.8859 -17.8806
   -17.8803 -17.8416 -17.7938 -17.7936 -17.7674 -17.7667 -17.7542 -17.7310
   -17.7095 -17.7089 -17.6831 -17.6747 -17.4762 -17.4690 -16.2555 -16.2547
   -14.5061  -6.2542  -6.2389  -6.2104  -6.0982  -6.0960  -6.0888  -6.0858
    -6.0714  -6.0637  -6.0434  -6.0332  -5.8176  -5.7667  -5.7524  -5.6570
    -5.6333  -5.5292  -5.5088  -5.4748  -5.4335  -5.4089  -5.3935  -5.3811
    -5.3796  -5.3094  -5.3029  -5.2426  -5.2081  -5.1789  -5.0811  -4.9784
    -4.9738  -4.8860  -4.8834  -4.6496  -4.6338  -4.6289  -4.6157  -4.5712
    -4.5667  -4.5360  -4.5326  -4.4623  -4.4569  -4.3356  -4.3283  -4.2460
    -4.2231  -4.1547  -4.1272  -3.9970  -3.9603  -3.9415  -3.8732  -3.8667
    -3.8025  -3.6680  -3.6144  -3.5598  -3.5436  -3.4512  -3.4455  -3.3952
    -3.3921  -3.3804  -3.3734  -3.2729  -3.2720  -3.2316  -3.2185  -3.1444
    -3.1382  -3.0290  -2.9925  -2.9599  -2.8972  -2.8396  -2.8336  -2.7328
    -2.7309  -2.6845  -2.6285  -2.5526  -2.5180  -2.5144  -2.4317  -2.4180
    -2.3398  -2.1166  -2.1112  -2.0031  -2.0030  -1.5763  -1.5762  -1.4241
    -1.4234  -0.3368  -0.0281   0.1836   1.3041   1.3205   1.3714   1.3922
     1.5766   1.5826   1.6227   1.6505   1.6597   1.6896   1.7590   1.7664
     1.8238   1.8753   1.9466   1.9603   1.9904   2.0014   2.0073   2.0290
     2.0569   2.0785   2.0888   2.1484   2.2531   2.3203   2.4155   2.4230
     2.5140   2.5566   2.5572   2.5892   2.6323   2.7887   2.7960   2.8878
     2.9660   3.0030   3.0468   3.0648   3.1857   3.2095   3.2383   3.2542
     3.3708   3.4462   3.7702   3.7705   3.8796   4.5397   4.7052   5.3938
     5.4419   5.4643   5.5607   5.5931   5.6100   5.6290   5.6472   5.6492
     5.6842   5.6867   5.7727   6.1266   6.2091   6.3573   6.3919   6.4939
     6.4983   6.5670   6.5882   6.5902   6.6642   6.8948   6.9013   6.9343
     6.9593   7.1628   7.1772   7.3784   7.3908   7.4050   7.4667   7.5854
     7.6460   7.7685   7.7714   7.9842   7.9952   8.1794   8.2114   8.3031
     8.3486   8.4439   8.4875   8.7361   8.8762   8.8842   8.9498   9.0004
     9.1155   9.1619   9.1886   9.3232   9.3303   9.3387   9.4467   9.4875
     9.5804   9.7289   9.7573   9.8223   9.9560  10.0381  10.0430  10.2175
    10.3737  10.4876  10.5152  10.6596  10.6956  10.9877  11.0175  11.0375
    11.1173  11.2310  11.3190  11.4149  11.4288  11.4461  11.5579  11.6460
    11.6625  11.8415  11.8883  11.9322  11.9450  12.0803  12.0817  12.2051
    12.2316  12.2320  12.2375  12.2551  12.4069  12.4297  12.4398  12.5189
    12.5557  12.6739  12.8472  12.9394  12.9608  13.0020  13.0052  13.0415
    13.1688  13.2857  13.3673  13.4037  13.4184  13.4512  13.4632  13.5132
    13.5183  13.5466  13.5725  13.6392  13.7011  13.7425  13.7718  13.7941
    13.8273  13.8611  13.8677  13.8798  13.9341  14.0598  14.1683  14.2225
    14.2759  14.3176  14.4488  14.5482  14.5884  14.6104  14.6207  14.7047
    14.7078  14.7322  14.7971  14.8267  14.8816  14.9060  14.9574  14.9864
    15.0136  15.1414  15.2026  15.2755  15.3321  15.4247  15.5111  15.6573
    15.6882  15.7306  15.7865  15.7976  15.8716  15.8919  15.9866  16.0309
    16.1249  16.2263  16.2630  16.3083  16.3218  16.4574  16.5288  16.5372
    16.5615  16.5772  16.6561  16.6710  16.6843  16.7160  16.7418  16.8439
    16.8558  16.8886  16.8937  16.9067  16.9490  16.9778  17.0157  17.0817
    17.1106  17.1404  17.1493  17.1564  17.2411  17.2851  17.3046  17.3873
    17.4223  17.4381  17.5699  17.5814  17.6067  17.6154  17.6596  17.7013
    17.7643  17.8110  17.8500  17.8917  17.9532  17.9824  18.0345  18.0543
    18.0736  18.1282  18.1297  18.2133  18.2632  18.2903  18.3935  18.4340
    18.4660  18.4997  18.5256  18.5389  18.6444  18.6822  18.7180  18.7560
    18.7927  18.8150  18.8306  18.9401  19.0197  19.0263  19.1432  19.2330
    19.2623  19.2881  19.3425  19.4338  19.4788  19.5731  19.6161  19.6292
    19.6501  19.7606  19.7981  19.8014  19.8172  19.9019  19.9772  19.9981
    20.0636  20.1158  20.1219  20.2349  20.2646  20.3133  20.3200  20.3993
    20.4580  20.4732  20.5032  20.5448  20.5762  20.5789  20.7288  20.7416
    20.7835  20.7938  20.8161  20.8259  20.8336  20.9398  20.9554  20.9934
    21.0136  21.0167  21.0355  21.1574  21.1908  21.2434  21.2841  21.3597
    21.3752  21.4220  21.4557  21.5266  21.5966  21.6299  21.6639  21.6972
    21.7025  21.7742  21.7906  21.8344  21.8710  21.9700  22.0045  22.0234
    22.0424  22.0756  22.1097  22.1512  22.1623  22.1942  22.2177  22.3081
    22.3541  22.3673  22.3952  22.4403  22.4507  22.5145  22.5263  22.5476
    22.5779  22.6961  22.7077  22.7181  22.7315  22.8149  22.8378  22.8996
    22.9001  22.9139  23.0345  23.1068  23.1086  23.1602  23.1980  23.2271
    23.2545  23.2623  23.2894  23.2908  23.3302  23.3904  23.4218  23.4260
    23.4435  23.5103  23.5437  23.5514  23.5576  23.6408  23.6798  23.7163
    23.7567  23.7814  23.8727  23.8824  23.9272  23.9825  24.0074  24.0492
    24.1202  24.2027  24.2345  24.2357  24.2659  24.2830  24.3502  24.3981
    24.4167

          k =-0.5000-0.4237 0.0000 ( 44696 PWs)   bands (ev):

   -55.9467 -55.9467 -55.5307 -55.4169 -55.4169 -55.3641 -55.3425 -55.3415
   -55.3352 -55.3298 -55.3292 -55.3264 -55.3257 -55.2893 -55.2854 -54.3295
   -32.3962 -32.3928 -32.0503 -32.0484 -32.0013 -31.9537 -31.9423 -31.7264
   -31.7203 -31.6622 -31.6583 -31.6528 -31.6527 -31.6471 -31.6462 -31.6438
   -31.6428 -31.6325 -31.6218 -31.6211 -31.6089 -31.5764 -31.5713 -31.5701
   -31.5172 -31.5117 -31.5095 -31.5028 -31.5009 -31.5004 -31.4859 -31.4494
   -31.4487 -31.3655 -31.3653 -31.3552 -31.3434 -31.3404 -31.3338 -31.3325
   -31.3278 -31.3120 -31.2991 -31.2735 -31.2677 -30.8097 -30.7118 -30.5173
   -18.6537 -18.4727 -18.4695 -18.2836 -18.2630 -18.2600 -18.2582 -18.2484
   -18.2174 -18.1375 -18.1283 -18.0834 -18.0797 -18.0722 -17.8842 -17.8826
   -17.8769 -17.8467 -17.7911 -17.7908 -17.7606 -17.7585 -17.7473 -17.7287
   -17.7098 -17.7095 -17.6834 -17.6774 -17.4913 -17.4738 -16.2558 -16.2550
   -14.5053  -6.2437  -6.2180  -6.2032  -6.0781  -6.0657  -6.0448  -6.0440
    -6.0305  -6.0302  -5.9969  -5.9960  -5.7999  -5.7758  -5.7753  -5.5963
    -5.5326  -5.4854  -5.4511  -5.4331  -5.4170  -5.3769  -5.3545  -5.2955
    -5.2851  -5.1364  -5.1270  -5.0984  -5.0812  -5.0278  -5.0150  -5.0129
    -4.9908  -4.7943  -4.7685  -4.7639  -4.7459  -4.6808  -4.6697  -4.6611
    -4.6498  -4.5850  -4.5802  -4.5711  -4.5479  -4.4075  -4.3437  -4.2500
    -4.2097  -4.2090  -4.1759  -4.1655  -4.1120  -4.0930  -4.0563  -3.8296
    -3.8288  -3.7982  -3.7746  -3.6747  -3.6095  -3.5859  -3.5801  -3.5228
    -3.5223  -3.5015  -3.4797  -3.4363  -3.3996  -3.3709  -3.3696  -3.3113
    -3.2970  -2.9865  -2.9242  -2.9166  -2.8887  -2.7883  -2.7845  -2.6052
    -2.5988  -2.5938  -2.5642  -2.4216  -2.4097  -2.3124  -2.3073  -2.2983
    -2.2234  -2.2122  -2.1813  -2.1560  -2.0587  -1.5579  -1.5578  -1.4387
    -1.4381  -0.3399  -0.0582   0.2134   1.2394   1.3120   1.3156   1.4053
     1.4741   1.5115   1.5399   1.6016   1.6768   1.6881   1.6968   1.7002
     1.7601   1.7737   1.9512   1.9574   2.0405   2.0425   2.1539   2.2071
     2.3258   2.3292   2.3922   2.4203   2.4660   2.4929   2.5147   2.5694
     2.6326   2.6468   2.6559   2.6651   2.8352   2.8754   2.9716   2.9989
     3.0256   3.0562   3.1352   3.1998   3.2042   3.2936   3.3624   3.3946
     3.4135   3.5815   3.5929   3.6131   3.9837   4.6146   4.6482   5.0410
     5.0522   5.1145   5.1190   5.1199   5.1377   5.1379   5.3242   5.5262
     5.5410   5.5514   5.7047   6.2211   6.3230   6.3739   6.3766   6.5782
     6.5857   6.6470   6.6475   6.7095   6.7165   7.0347   7.0475   7.0925
     7.1135   7.2969   7.3020   7.4363   7.4408   7.7527   7.7553   7.7864
     7.7890   7.8776   7.8778   8.1461   8.1461   8.1778   8.2371   8.3178
     8.3825   8.4079   8.4591   8.5466   8.5490   8.5541   8.6611   8.7429
     8.8465   8.8800   8.9384   8.9822   9.0141   9.0638   9.1314   9.3895
     9.4425   9.4568   9.5641   9.6662   9.6691   9.7442   9.8434  10.1209
    10.1366  10.1607  10.2884  10.5682  10.5746  10.6235  10.6723  10.9584
    11.2841  11.3405  11.4101  11.4821  11.4982  11.6673  11.7532  11.9635
    12.1892  12.2148  12.3444  12.3497  12.4348  12.4827  12.5329  12.6009
    12.6057  12.6103  12.6167  12.7375  12.7403  12.8432  12.8544  12.9215
    13.0313  13.0587  13.0754  13.1348  13.1482  13.3512  13.3774  13.3778
    13.4682  13.4913  13.5677  13.5716  13.6130  13.6134  13.6736  13.7202
    13.8374  13.8764  13.9175  13.9248  13.9788  13.9861  14.0201  14.0528
    14.0569  14.0573  14.0581  14.1595  14.1664  14.2468  14.2552  14.2641
    14.2934  14.3092  14.3294  14.4047  14.4275  14.4319  14.4969  14.4988
    14.5625  14.6592  14.7020  14.7363  14.7699  14.8004  14.8553  14.8967
    14.9081  14.9993  15.0981  15.1243  15.1780  15.1876  15.3606  15.3816
    15.4342  15.5423  15.5613  15.6362  15.6578  15.6843  15.6953  15.7126
    15.7378  15.9244  15.9839  16.0190  16.1369  16.1398  16.1923  16.2949
    16.3621  16.3683  16.3930  16.4024  16.4104  16.4872  16.5585  16.5645
    16.5653  16.6401  16.6415  16.7576  16.7792  16.7966  16.8104  16.8239
    16.8374  16.8524  16.9429  16.9950  17.0322  17.0987  17.1843  17.2094
    17.2161  17.2185  17.3411  17.4060  17.4104  17.4140  17.4405  17.5291
    17.5558  17.5738  17.6379  17.7521  17.7921  17.8508  17.9640  17.9667
    17.9925  18.0538  18.0744  18.0966  18.1366  18.1428  18.2308  18.2791
    18.3824  18.3840  18.4877  18.4882  18.6114  18.6654  18.7503  18.7515
    18.7589  18.8090  18.8441  18.8482  18.9051  18.9335  18.9590  19.0500
    19.0608  19.1125  19.1946  19.2207  19.2305  19.3667  19.4201  19.4610
    19.4847  19.5135  19.5557  19.5765  19.5846  19.6353  19.6491  19.7717
    19.8470  19.8692  19.8887  19.8956  20.2108  20.2230  20.2617  20.2883
    20.3580  20.4042  20.4574  20.4808  20.5340  20.6078  20.7028  20.8001
    20.8713  20.8876  20.9420  20.9778  20.9821  21.0028  21.1854  21.2071
    21.2582  21.2635  21.3061  21.3569  21.3580  21.3703  21.4629  21.5594
    21.5662  21.5691  21.6680  21.7355  21.8084  21.8097  21.8186  21.8696
    21.9424  22.0168  22.0983  22.1154  22.1225  22.1505  22.1575  22.1776
    22.1970  22.2400  22.3076  22.3078  22.3096  22.3967  22.3972  22.3979
    22.4171  22.4294  22.5030  22.5248  22.6153  22.6218  22.6401  22.7477
    22.7704  22.8018  22.8032  22.8155  22.9269  22.9364  22.9368  22.9755
    23.0644  23.0773  23.1015  23.1048  23.1179  23.1268  23.1988  23.2244
    23.2249  23.3006  23.3845  23.3859  23.3997  23.4163  23.4298  23.4528
    23.6009  23.6531  23.6621  23.7608  23.7854  23.7916  23.8036  23.8097
    23.8185  23.8334  23.9198  23.9680  24.0990  24.1005  24.1032  24.1855
    24.2161  24.2491  24.2912  24.3124  24.3438  24.3566  24.4413  24.4477
    24.4516

     the Fermi energy is     1.3301 ev

!    total energy              =   -2954.11632178 Ry
     Harris-Foulkes estimate   =   -2954.11632238 Ry
     estimated scf accuracy    <       0.00000064 Ry

     The total energy is the sum of the following terms:

     one-electron contribution =  -65238.49831147 Ry
     hartree contribution      =   32671.88389953 Ry
     xc contribution           =    -531.69815296 Ry
     ewald contribution        =   30144.19867572 Ry
     smearing contrib. (-TS)   =      -0.00243260 Ry

     convergence has been achieved in  27 iterations

     Forces acting on atoms (Ry/au):


     negative rho (up, down):  0.482E-02 0.000E+00
     atom    1 type  1   force =     0.00000000    0.00000000    0.14485586
     atom    2 type  2   force =     0.00031979    0.00000000   -0.15072377
     atom    3 type  2   force =     0.00000000    0.00000000    0.07777433
     atom    4 type  1   force =     0.00000103    0.01785400   -0.01265458
     atom    5 type  1   force =     0.00000103   -0.01785400   -0.01265458
     atom    6 type  1   force =     0.00000000    0.00000000   -0.02221723
     atom    7 type  1   force =     0.00000000    0.00000000   -0.03328154
     atom    8 type  2   force =     0.00024722    0.00000000   -0.00097437
     atom    9 type  2   force =     0.00000000    0.00000000   -0.01482129
     atom   10 type  1   force =     0.00006048   -0.00245730   -0.00026394
     atom   11 type  1   force =     0.00006048    0.00245730   -0.00026394
     atom   12 type  1   force =     0.00000000    0.00000000    0.02141275
     atom   13 type  1   force =     0.00000000    0.00000000    0.00204095
     atom   14 type  2   force =     0.01746000    0.00000000    0.01742290
     atom   15 type  2   force =     0.00000000    0.00000000    0.00033660
     atom   16 type  1   force =    -0.00310025   -0.00238360   -0.00173852
     atom   17 type  1   force =    -0.00310025    0.00238360   -0.00173852
     atom   18 type  1   force =     0.00000000    0.00000000    0.00378168
     atom   19 type  1   force =     0.00000000    0.00000000   -0.00464843
     atom   20 type  2   force =     0.00751656    0.00000000    0.02196046
     atom   21 type  2   force =     0.00000000    0.00000000    0.03959199
     atom   22 type  1   force =    -0.07094929    0.04421739   -0.05628532
     atom   23 type  1   force =    -0.07094929   -0.04421739   -0.05628532
     atom   24 type  1   force =     0.00000000    0.00000000   -0.01304692
     atom   25 type  1   force =     0.00000000    0.00000000    0.14492854
     atom   26 type  2   force =    -0.00031979    0.00000000   -0.15072377
     atom   27 type  2   force =     0.00000000    0.00000000    0.07716364
     atom   28 type  1   force =    -0.00000103    0.01785400   -0.01265458
     atom   29 type  1   force =    -0.00000103   -0.01785400   -0.01265458
     atom   30 type  1   force =     0.00000000    0.00000000   -0.02259394
     atom   31 type  1   force =     0.00000000    0.00000000   -0.03241580
     atom   32 type  2   force =    -0.00024722    0.00000000   -0.00097437
     atom   33 type  2   force =     0.00000000    0.00000000   -0.01562828
     atom   34 type  1   force =    -0.00006048   -0.00245730   -0.00026394
     atom   35 type  1   force =    -0.00006048    0.00245730   -0.00026394
     atom   36 type  1   force =     0.00000000    0.00000000    0.02144782
     atom   37 type  1   force =     0.00000000    0.00000000    0.00046784
     atom   38 type  2   force =    -0.01746000    0.00000000    0.01742290
     atom   39 type  2   force =     0.00000000    0.00000000    0.00215872
     atom   40 type  1   force =     0.00310025   -0.00238360   -0.00173852
     atom   41 type  1   force =     0.00310025    0.00238360   -0.00173852
     atom   42 type  1   force =     0.00000000    0.00000000   -0.17752538
     atom   43 type  1   force =     0.00000000    0.00000000   -0.00495741
     atom   44 type  2   force =    -0.00751656    0.00000000    0.02196046
     atom   45 type  2   force =     0.00000000    0.00000000    0.32914806
     atom   46 type  1   force =     0.07094929    0.04421739   -0.05628532
     atom   47 type  1   force =     0.07094929   -0.04421739   -0.05628532
     atom   48 type  1   force =     0.00000000    0.00000000   -0.01563462
     atom   49 type  1   force =     0.00000000    0.00000000    0.00006110

     Total force =     0.430001     Total SCF correction =     0.003078

     BFGS Geometry Optimization

     number of scf cycles    =   1
     number of bfgs steps    =   0

     energy   new            =   -2954.1163217814 Ry

     new trust radius        =       0.3291480554 bohr
     new conv_thr            =       0.0000010000 Ry


ATOMIC_POSITIONS (crystal)
O0       0.000000000   0.500000000   0.320740000    0   0   0
Nb1      0.250000000   0.500000000   0.359950000    0   0   0
Nb1      0.000000000   0.000000000   0.359950000    0   0   0
O0       0.250000000   0.790000000   0.359950000    0   0   0
O0       0.250000000   0.210000000   0.359950000    0   0   0
O0       0.000000000   0.500000000   0.399170000    0   0   0
O0       0.000000000   0.000000000   0.414100000    0   0   0
Nb1      0.250000000   0.000000000   0.453320000    0   0   0
Nb1      0.000000000   0.500000000   0.453320000    0   0   0
O0       0.250000000   0.710000000   0.453320000    0   0   0
O0       0.250000000   0.290000000   0.453320000    0   0   0
O0       0.000000000   0.000000000   0.492530000    0   0   0
O0       0.000000000   0.500000000   0.506628867
Nb1      0.251560715   0.500000000   0.545146430
Nb1      0.000000000   0.000000000   0.547684761
O0       0.249722875   0.788799452   0.547635410
O0       0.249722875   0.211200548   0.547635410
O0       0.000000000   0.500000000   0.585343488
O0       0.000000000   0.000000000   0.603974253
Nb1      0.250671891   0.000000000   0.644340609
Nb1      0.000000000   0.500000000   0.636169989
O0       0.243657982   0.703529287   0.645073900
O0       0.243657982   0.296470713   0.645073900
O0       0.000000000   0.000000000   0.675645464
O0       0.500000000   0.500000000   0.320740000    0   0   0
Nb1      0.750000000   0.500000000   0.359950000    0   0   0
Nb1      0.500000000   0.000000000   0.359950000    0   0   0
O0       0.750000000   0.790000000   0.359950000    0   0   0
O0       0.750000000   0.210000000   0.359950000    0   0   0
O0       0.500000000   0.500000000   0.399170000    0   0   0
O0       0.500000000   0.000000000   0.414100000    0   0   0
Nb1      0.750000000   0.000000000   0.453320000    0   0   0
[...]
    -4.7592  -4.6978  -4.6444  -4.5599  -4.5475  -4.4726  -4.4416  -4.3855
    -4.3497  -4.3308  -4.3183  -4.3013  -4.2886  -4.2595  -4.2500  -4.2004
    -4.1279  -4.0067  -3.9840  -3.8864  -3.8654  -3.7906  -3.7038  -3.6742
    -3.5067  -3.4526  -3.3893  -3.3558  -3.3212  -3.3202  -3.2982  -3.2288
    -3.2099  -3.1859  -3.1507  -3.1340  -3.1115  -3.0872  -3.0281  -3.0168
    -2.9169  -2.8745  -2.8698  -2.7928  -2.7360  -2.6877  -2.6635  -2.6337
    -2.6323  -2.6020  -2.5265  -2.4140  -2.3802  -2.2912  -2.2741  -2.1391
    -2.1307  -2.1089  -1.9911  -1.8537  -1.6875  -1.6207  -1.5851  -1.5700
    -1.4179  -1.4086  -1.2713  -1.2706   1.2134   1.4532   1.5174   1.5713
     1.5868   1.7400   1.7849   1.7980   1.8764   1.9191   1.9329   1.9648
     1.9763   2.0629   2.0739   2.1558   2.1576   2.2065   2.2151   2.2575
     2.2757   2.3372   2.3806   2.4675   2.5431   2.5635   2.5950   2.6462
     2.6587   2.7117   2.7119   2.8113   2.9279   3.0117   3.0126   3.1150
     3.1852   3.2091   3.2888   3.2904   3.3684   3.4077   3.5363   3.5615
     3.6013   3.8363   3.9676   4.0311   4.2284   4.4661   4.7251   5.4834
     5.5276   5.5934   5.6651   5.6934   5.7464   5.7952   5.8082   5.8500
     5.8644   5.9253   5.9404   6.2114   6.4628   6.4821   6.6169   6.6441
     6.6670   6.6985   6.7701   6.7754   6.9647   7.0009   7.0523   7.0554
     7.1635   7.2335   7.2781   7.4043   7.4384   7.4562   7.5395   7.6952
     7.7638   7.7672   7.9288   7.9372   7.9985   8.1597   8.3283   8.3868
     8.4258   8.4870   8.5168   8.6440   8.6677   8.9428   8.9475   9.0172
     9.0637   9.1519   9.1755   9.2177   9.3256   9.3560   9.4896   9.5053
     9.6654   9.7685   9.8315   9.8403   9.9502   9.9766   9.9951  10.0898
    10.4786  10.4976  10.5470  10.6083  10.6461  10.7988  11.1247  11.1261
    11.1851  11.2271  11.3394  11.3526  11.4665  11.4676  11.5535  11.6320
    11.8654  11.9273  11.9578  11.9949  12.0167  12.1294  12.1353  12.1764
    12.2067  12.2123  12.2702  12.2837  12.3908  12.3989  12.4856  12.5413
    12.5941  12.6291  12.9122  13.0076  13.0280  13.0314  13.0601  13.1022
    13.1982  13.2589  13.3072  13.4431  13.4951  13.5620  13.5983  13.6292
    13.6299  13.7869  13.7884  13.8173  13.8247  13.8355  13.8642  13.9157
    13.9320  13.9623  14.0072  14.0133  14.1025  14.1390  14.2231  14.2755
    14.3739  14.3783  14.4266  14.5313  14.6054  14.6357  14.6887  14.8040
    14.8375  14.8562  14.8886  14.9141  14.9265  14.9718  15.0423  15.0786
    15.1455  15.1793  15.3344  15.3556  15.3644  15.4487  15.5665  15.5693
    15.5964  15.6724  15.7259  15.7550  15.8110  15.8432  15.9480  16.0196
    16.0834  16.1140  16.2002  16.2099  16.2646  16.3066  16.4079  16.4116
    16.4559  16.5449  16.5793  16.5964  16.6672  16.6830  16.7361  16.7429
    16.7809  16.8009  16.8456  16.9037  16.9435  16.9717  17.0242  17.0763
    17.1008  17.1305  17.1733  17.2176  17.2686  17.3295  17.3387  17.3711
    17.4275  17.4602  17.5302  17.5880  17.6050  17.6074  17.6341  17.6394
    17.6495  17.6618  17.8266  17.8403  17.9024  17.9215  17.9261  18.0082
    18.0434  18.0755  18.1275  18.1426  18.1789  18.2862  18.2869  18.3448
    18.3772  18.4417  18.4599  18.5231  18.5381  18.5913  18.6382  18.6654
    18.7263  18.7351  18.7984  18.8242  18.8246  18.9803  19.0812  19.1240
    19.2061  19.2222  19.2384  19.3334  19.3573  19.5437  19.5906  19.6589
    19.6713  19.7406  19.7542  19.7743  19.8304  19.8434  19.8743  19.9676
    20.0590  20.0884  20.1251  20.2085  20.2305  20.2995  20.2998  20.4137
    20.4247  20.5397  20.5510  20.5625  20.6112  20.6434  20.6942  20.7246
    20.7442  20.8220  20.8351  20.8640  20.8913  20.9407  20.9568  21.0133
    21.0511  21.1186  21.1202  21.1550  21.1770  21.2131  21.3995  21.4142
    21.4363  21.4815  21.4931  21.5511  21.5793  21.6031  21.6352  21.7149
    21.7595  21.7762  21.7891  21.8554  21.8865  21.9070  22.0030  22.0553
    22.0679  22.1099  22.1916  22.2109  22.2479  22.2832  22.2954  22.3626
    22.3872  22.3959  22.4300  22.4682  22.4904  22.5292  22.5805  22.5807
    22.6663  22.7108  22.7355  22.7825  22.8126  22.8480  22.8755  22.8957
    22.9568  22.9814  23.0276  23.0466  23.1414  23.1746  23.2060  23.2198
    23.2262  23.2578  23.3169  23.3350  23.3825  23.3929  23.3953  23.4230
    23.4432  23.4505  23.4664  23.5651  23.5756  23.6759  23.7028  23.7649
    23.8201  23.8597  23.8875  23.9296  24.0007  24.0675  24.0705  24.1103
    24.1537  24.1902  24.2717  24.3006  24.3841  24.3963  24.4319  24.4588
    24.5354

          k =-0.5000-0.4237 0.0000 ( 44696 PWs)   bands (ev):

   -55.8076 -55.8041 -55.4858 -55.3160 -55.2866 -55.2621 -55.2620 -55.2023
   -55.1849 -55.1849 -55.1661 -55.1157 -55.1115 -54.7689 -54.7267 -54.6437
   -32.2991 -32.2894 -31.9805 -31.9300 -31.9049 -31.8627 -31.8429 -31.6675
   -31.5943 -31.5558 -31.5467 -31.5407 -31.5397 -31.5251 -31.5155 -31.4972
   -31.4964 -31.4947 -31.4894 -31.4830 -31.4669 -31.4545 -31.4498 -31.3698
   -31.3681 -31.3474 -31.3314 -31.3046 -31.2891 -31.2779 -31.2721 -31.2640
   -31.2247 -31.2038 -31.2024 -31.1916 -31.1851 -31.1840 -31.1720 -31.1425
   -31.1009 -31.1003 -31.0741 -30.9640 -30.8202 -30.7999 -30.6302 -30.3990
   -18.3634 -18.2151 -18.1488 -18.1370 -18.1253 -18.0993 -18.0801 -18.0659
   -18.0578 -18.0294 -17.9698 -17.9663 -17.9377 -17.9141 -17.9119 -17.8012
   -17.7631 -17.7343 -17.7005 -17.6620 -17.6581 -17.6545 -17.6253 -17.6249
   -17.6023 -17.5533 -17.5101 -17.5097 -17.0520 -16.8900 -16.1058 -16.1052
   -15.6707  -6.3089  -6.1008  -6.0809  -6.0373  -5.9562  -5.8672  -5.8652
    -5.8081  -5.8058  -5.7728  -5.6502  -5.6480  -5.5881  -5.5703  -5.5063
    -5.5062  -5.4329  -5.3332  -5.3209  -5.2477  -5.1414  -5.1355  -5.0874
    -5.0496  -5.0010  -4.9863  -4.9407  -4.9061  -4.8576  -4.8362  -4.8358
    -4.6466  -4.6320  -4.6281  -4.6116  -4.5892  -4.5322  -4.5295  -4.5178
    -4.5103  -4.4868  -4.4445  -4.4364  -4.4046  -4.2038  -4.1854  -4.1214
    -4.0383  -4.0331  -3.9760  -3.9463  -3.9061  -3.8393  -3.8251  -3.6323
    -3.5846  -3.5582  -3.5039  -3.4904  -3.4148  -3.4146  -3.4090  -3.3962
    -3.3694  -3.3129  -3.2424  -3.2082  -3.1953  -3.1353  -3.1318  -3.1130
    -3.0769  -2.9843  -2.8357  -2.7627  -2.7424  -2.6951  -2.6770  -2.5770
    -2.5661  -2.5230  -2.4347  -2.3773  -2.3318  -2.2582  -2.2223  -2.1025
    -2.0828  -2.0027  -1.9437  -1.9373  -1.6741  -1.5926  -1.5826  -1.5421
    -1.3990  -1.3896  -1.2870  -1.2863   1.2265   1.4621   1.4882   1.5006
     1.6481   1.6772   1.6988   1.7782   1.8052   1.8154   1.8323   1.9563
     1.9782   2.0098   2.0760   2.2057   2.2174   2.3052   2.4496   2.4891
     2.4996   2.5590   2.6439   2.6495   2.6534   2.7187   2.7207   2.7344
     2.7728   2.7890   2.8494   2.9701   3.0616   3.1204   3.1518   3.1777
     3.2389   3.3508   3.3543   3.3704   3.4930   3.5229   3.5728   3.5883
     3.6249   3.7134   3.9340   4.0671   4.3327   4.4033   4.7656   4.9073
     5.0747   5.1127   5.2790   5.2946   5.3016   5.3046   5.4633   5.7428
     5.7567   5.7684   5.9446   6.2824   6.5384   6.5578   6.6547   6.7797
     6.7873   6.8129   6.8380   6.8433   6.9865   7.1845   7.2002   7.3107
     7.3529   7.5206   7.5513   7.5524   7.5810   7.7085   7.7696   7.8374
     7.8459   7.9103   7.9124   7.9920   8.0939   8.1309   8.1358   8.2087
     8.2614   8.3276   8.4158   8.5400   8.5920   8.6213   8.6395   8.8308
     8.9266   8.9907   9.0351   9.0558   9.0840   9.0911   9.1063   9.2600
     9.5800   9.6027   9.7032   9.7095   9.7228   9.7649   9.7671   9.8104
    10.2195  10.3233  10.3890  10.4839  10.4964  10.5274  10.6403  10.7570
    11.1705  11.2379  11.3465  11.5403  11.5785  11.6912  11.7370  11.8322
    12.2502  12.3040  12.4868  12.4944  12.5789  12.5905  12.6724  12.6829
    12.6935  12.7481  12.7782  12.7974  12.8582  12.8644  12.9745  13.0040
    13.0608  13.0961  13.1845  13.2108  13.2355  13.2689  13.5094  13.5371
    13.5605  13.6117  13.6265  13.7185  13.7315  13.7572  13.8365  13.8423
    13.8948  13.9008  13.9311  13.9562  14.0247  14.0695  14.0824  14.0897
    14.0916  14.1467  14.2081  14.2111  14.2869  14.2874  14.3014  14.3491
    14.3776  14.3852  14.4019  14.4610  14.5113  14.5294  14.5869  14.5898
    14.6199  14.6300  14.7031  14.7124  14.8019  14.8476  14.8597  14.9295
    14.9529  15.0325  15.0761  15.1025  15.1803  15.2029  15.2466  15.2812
    15.3745  15.3767  15.4391  15.5411  15.5570  15.5927  15.6284  15.6689
    15.7521  15.7957  15.8370  15.9542  16.1566  16.2169  16.2251  16.3095
    16.3488  16.4019  16.4153  16.4304  16.4526  16.4531  16.4655  16.5081
    16.5221  16.5363  16.6036  16.6234  16.7094  16.7339  16.7686  16.7845
    16.8527  16.8838  16.9791  17.0058  17.0212  17.0418  17.0918  17.1397
    17.2195  17.2436  17.2437  17.2690  17.2950  17.3498  17.3533  17.4348
    17.4433  17.5196  17.5402  17.7012  17.7416  17.7963  17.8075  17.8130
    17.9850  18.0329  18.1059  18.1213  18.1454  18.1500  18.1776  18.1962
    18.1979  18.3097  18.4886  18.5733  18.6373  18.6421  18.6603  18.6781
    18.7115  18.7224  18.7540  18.8078  18.9405  19.0046  19.0308  19.0561
    19.0563  19.0582  19.1449  19.1956  19.2177  19.3126  19.3300  19.4068
    19.4471  19.4588  19.5063  19.5663  19.5746  19.6449  19.7029  19.7122
    19.7821  19.8574  19.9318  19.9321  20.0899  20.0903  20.1098  20.2301
    20.2307  20.2723  20.3092  20.4750  20.6632  20.6669  20.6943  20.7605
    20.8663  20.8702  20.8939  21.0100  21.0343  21.1183  21.1347  21.1930
    21.2216  21.2511  21.2560  21.2721  21.3265  21.4829  21.5395  21.5609
    21.6813  21.7148  21.7152  21.7559  21.7905  21.8662  21.9761  22.0226
    22.1207  22.1430  22.1863  22.1863  22.2216  22.2562  22.2939  22.2946
    22.3976  22.4043  22.4447  22.4643  22.4692  22.4695  22.5035  22.5677
    22.5864  22.5966  22.5969  22.6008  22.6576  22.7320  22.7398  22.7598
    22.7859  22.8119  22.8286  22.9060  22.9090  22.9390  22.9427  22.9496
    23.0417  23.0500  23.0703  23.0893  23.1064  23.1137  23.1277  23.1732
    23.1984  23.2418  23.2736  23.3402  23.3703  23.5177  23.5389  23.5516
    23.5716  23.5815  23.6989  23.7656  23.7993  23.8601  23.8623  23.8914
    23.9109  23.9403  23.9544  23.9982  24.0411  24.0726  24.0995  24.1201
    24.1607  24.2371  24.2535  24.3467  24.4242  24.4831  24.4988  24.5460
    24.5543

     the Fermi energy is     1.5053 ev

!    total energy              =   -2954.32117281 Ry
     Harris-Foulkes estimate   =   -2954.32117281 Ry
     estimated scf accuracy    <          7.2E-09 Ry

     The total energy is the sum of the following terms:

     one-electron contribution =  -65121.12398586 Ry
     hartree contribution      =   32615.17945193 Ry
     xc contribution           =    -531.76069952 Ry
     ewald contribution        =   30083.38618239 Ry
     smearing contrib. (-TS)   =      -0.00212174 Ry

     convergence has been achieved in  11 iterations

     Forces acting on atoms (Ry/au):


     negative rho (up, down):  0.472E-02 0.000E+00
     atom    1 type  1   force =     0.00000000    0.00000000    0.14525065
     atom    2 type  2   force =     0.00254815    0.00000000   -0.15149054
     atom    3 type  2   force =     0.00000000    0.00000000    0.07805956
     atom    4 type  1   force =     0.00028930    0.01569273   -0.01230224
     atom    5 type  1   force =     0.00028930   -0.01569273   -0.01230224
     atom    6 type  1   force =     0.00000000    0.00000000   -0.02570409
     atom    7 type  1   force =     0.00000000    0.00000000   -0.03296700
     atom    8 type  2   force =     0.00008850    0.00000000   -0.00797957
     atom    9 type  2   force =     0.00000000    0.00000000    0.06055591
     atom   10 type  1   force =     0.00164381    0.00174949   -0.00461524
     atom   11 type  1   force =     0.00164381   -0.00174949   -0.00461524
     atom   12 type  1   force =     0.00000000    0.00000000    0.00923534
     atom   13 type  1   force =     0.00000000    0.00000000    0.00036383
     atom   14 type  2   force =    -0.00021831    0.00000000   -0.00038954
     atom   15 type  2   force =     0.00000000    0.00000000   -0.00020441
     atom   16 type  1   force =     0.00009672    0.00027360   -0.00013355
     atom   17 type  1   force =     0.00009672   -0.00027360   -0.00013355
     atom   18 type  1   force =     0.00000000    0.00000000    0.00007271
     atom   19 type  1   force =     0.00000000    0.00000000    0.00021355
     atom   20 type  2   force =     0.00006686    0.00000000    0.00029746
     atom   21 type  2   force =     0.00000000    0.00000000    0.00058079
     atom   22 type  1   force =    -0.00021555    0.00002925    0.00020920
     atom   23 type  1   force =    -0.00021555   -0.00002925    0.00020920
     atom   24 type  1   force =     0.00000000    0.00000000    0.00044552
     atom   25 type  1   force =     0.00000000    0.00000000    0.14487990
     atom   26 type  2   force =    -0.00254815    0.00000000   -0.15149054
     atom   27 type  2   force =     0.00000000    0.00000000    0.07603862
     atom   28 type  1   force =    -0.00028930    0.01569273   -0.01230224
     atom   29 type  1   force =    -0.00028930   -0.01569273   -0.01230224
     atom   30 type  1   force =     0.00000000    0.00000000   -0.02690923
     atom   31 type  1   force =     0.00000000    0.00000000   -0.03273325
     atom   32 type  2   force =    -0.00008850    0.00000000   -0.00797957
     atom   33 type  2   force =     0.00000000    0.00000000   -0.03291058
     atom   34 type  1   force =    -0.00164381    0.00174949   -0.00461524
     atom   35 type  1   force =    -0.00164381   -0.00174949   -0.00461524
     atom   36 type  1   force =     0.00000000    0.00000000    0.02045721
     atom   37 type  1   force =     0.00000000    0.00000000   -0.00039881
     atom   38 type  2   force =     0.00021831    0.00000000   -0.00038954
     atom   39 type  2   force =     0.00000000    0.00000000    0.00001818
     atom   40 type  1   force =    -0.00009672    0.00027360   -0.00013355
     atom   41 type  1   force =    -0.00009672   -0.00027360   -0.00013355
     atom   42 type  1   force =     0.00000000    0.00000000    0.00046038
     atom   43 type  1   force =     0.00000000    0.00000000    0.00019601
     atom   44 type  2   force =    -0.00006686    0.00000000    0.00029746
     atom   45 type  2   force =     0.00000000    0.00000000    0.00073266
     atom   46 type  1   force =     0.00021555    0.00002925    0.00020920
     atom   47 type  1   force =     0.00021555   -0.00002925    0.00020920
     atom   48 type  1   force =     0.00000000    0.00000000    0.00053743
     atom   49 type  1   force =     0.00000000    0.00000000    0.00022085

     Total force =     0.001845     Total SCF correction =     0.000194
     SCF correction compared to forces is large: reduce conv_thr to get better values

     bfgs converged in  19 scf cycles and  18 bfgs steps
     (criteria: energy < 0.10E-03, force < 0.10E-02)

     End of BFGS Geometry Optimization

     Final energy   =   -2954.3211728104 Ry
Begin final coordinates

ATOMIC_POSITIONS (crystal)
O0       0.000000000   0.500000000   0.320740000    0   0   0
Nb1      0.250000000   0.500000000   0.359950000    0   0   0
Nb1      0.000000000   0.000000000   0.359950000    0   0   0
O0       0.250000000   0.790000000   0.359950000    0   0   0
O0       0.250000000   0.210000000   0.359950000    0   0   0
O0       0.000000000   0.500000000   0.399170000    0   0   0
O0       0.000000000   0.000000000   0.414100000    0   0   0
Nb1      0.250000000   0.000000000   0.453320000    0   0   0
Nb1      0.000000000   0.500000000   0.453320000    0   0   0
O0       0.250000000   0.710000000   0.453320000    0   0   0
O0       0.250000000   0.290000000   0.453320000    0   0   0
O0       0.000000000   0.000000000   0.492530000    0   0   0
O0       0.000000000   0.500000000   0.506803656
Nb1      0.277717372   0.500000000   0.546371060
Nb1      0.000000000   0.000000000   0.546415262
O0       0.244065451   0.790898420   0.547260967
O0       0.244065451   0.209101580   0.547260967
O0       0.000000000   0.500000000   0.583442116
O0       0.000000000   0.000000000   0.602873216
Nb1      0.249079451   0.000000000   0.642003331
Nb1      0.000000000   0.500000000   0.632873534
O0       0.239183501   0.702734213   0.641690416
O0       0.239183501   0.297265787   0.641690416
O0       0.000000000   0.000000000   0.673879189
O0       0.500000000   0.500000000   0.320740000    0   0   0
Nb1      0.750000000   0.500000000   0.359950000    0   0   0
Nb1      0.500000000   0.000000000   0.359950000    0   0   0
O0       0.750000000   0.790000000   0.359950000    0   0   0
O0       0.750000000   0.210000000   0.359950000    0   0   0
O0       0.500000000   0.500000000   0.399170000    0   0   0
O0       0.500000000   0.000000000   0.414100000    0   0   0
Nb1      0.750000000   0.000000000   0.453320000    0   0   0
Nb1      0.500000000   0.500000000   0.453320000    0   0   0
O0       0.750000000   0.710000000   0.453320000    0   0   0
O0       0.750000000   0.290000000   0.453320000    0   0   0
O0       0.500000000   0.000000000   0.492530000    0   0   0
O0       0.500000000   0.500000000   0.505268611
Nb1      0.722282628   0.500000000   0.546371060
Nb1      0.500000000   0.000000000   0.546947362
O0       0.755934549   0.790898420   0.547260967
O0       0.755934549   0.209101580   0.547260967
O0       0.500000000   0.500000000   0.587216901
O0       0.500000000   0.000000000   0.602470572
Nb1      0.750920549   0.000000000   0.642003331
Nb1      0.500000000   0.500000000   0.650248401
O0       0.760816499   0.702734213   0.641690416
O0       0.760816499   0.297265787   0.641690416
O0       0.500000000   0.000000000   0.673606580
O0       0.500000000   0.500000000   0.696127366
End final coordinates



     init_run     :     71.36s CPU     78.55s WALL (       1 calls)
     electrons    :  92268.70s CPU  96337.03s WALL (      19 calls)
     update_pot   :     88.90s CPU    101.17s WALL (      18 calls)
     forces       :    850.11s CPU    862.46s WALL (      19 calls)

     Called by init_run:
     wfcinit      :     55.16s CPU     57.18s WALL (       1 calls)
     potinit      :      3.61s CPU      3.90s WALL (       1 calls)

     Called by electrons:
     c_bands      :  83355.35s CPU  85456.19s WALL (     314 calls)
     sum_band     :   5389.80s CPU   5726.40s WALL (     314 calls)
     v_of_rho     :    485.09s CPU    564.70s WALL (     330 calls)
     newd         :   2844.49s CPU   4343.62s WALL (     330 calls)
     mix_rho      :    143.39s CPU    155.42s WALL (     314 calls)

     Called by c_bands:
     init_us_2    :     37.75s CPU     39.72s WALL (    5832 calls)
     cegterg      :  83160.27s CPU  85252.47s WALL (    2826 calls)

     Called by *egterg:
     h_psi        :  15325.13s CPU  16293.64s WALL (    9034 calls)
     s_psi        :   3605.89s CPU   3659.99s WALL (    9034 calls)
     g_psi        :     29.30s CPU     29.39s WALL (    6199 calls)
     cdiaghg      :  46376.17s CPU  46913.34s WALL (    8836 calls)

     Called by h_psi:
     add_vuspsi   :   3621.81s CPU   3686.70s WALL (    9034 calls)

     General routines
     calbec       :   5660.87s CPU   5725.43s WALL (   12031 calls)
     fft          :    907.44s CPU   1040.82s WALL (    5443 calls)
     ffts         :     44.49s CPU     50.78s WALL (     644 calls)
     fftw         :   7937.13s CPU   9034.19s WALL ( 9020982 calls)
     interpolate  :    132.83s CPU    157.22s WALL (     644 calls)

     Parallel routines
     fft_scatter  :   4373.33s CPU   5181.80s WALL ( 9027069 calls)

     PWSCF        :     1d    1h57m CPU        1d    3h 7m WALL


   This run was terminated on:   7:47:45  21Apr2014            

=------------------------------------------------------------------------------=
   JOB DONE.
=------------------------------------------------------------------------------=
