ScientificPython/2.8-dl160g6-numpy-1.7.1-1(15):ERROR:151: Module 'ScientificPython/2.8-dl160g6-numpy-1.7.1-1' depends on one of the module(s) 'numpy/1.7.1-dl160g6-gfortran-internal-1'
ScientificPython/2.8-dl160g6-numpy-1.7.1-1(15):ERROR:102: Tcl command execution failed: prereq numpy/1.7.1-dl160g6-gfortran-internal-1


     Program PWSCF v.5.0.2 (svn rev. 9656) starts on 13May2014 at  0: 0:30 

     This program is part of the open-source Quantum ESPRESSO suite
     for quantum simulation of materials; please cite
         "P. Giannozzi et al., J. Phys.:Condens. Matter 21 395502 (2009);
          URL http://www.quantum-espresso.org", 
     in publications or presentations arising from this work. More details at
     http://www.quantum-espresso.org/quote.php

     Parallel version (MPI), running on    16 processors
     K-points division:     npool     =       4
     R & G space division:  proc/nbgrp/npool/nimage =       4

     Current dimensions of program PWSCF are:
     Max number of different atomic species (ntypx) = 10
     Max number of k-points (npk) =  40000
     Max angular momentum in pseudopotentials (lmaxx) =  3
     Reading input from pwscf.in
Warning: card &CELL ignored
Warning: card / ignored

     Subspace diagonalization in iterative solution of the eigenvalue problem:
     a serial algorithm will be used


     Parallelization info
     --------------------
     sticks:   dense  smooth     PW     G-vecs:    dense   smooth      PW
     Min        1244     397    112               291872    52833    7934
     Max        1245     398    113               291883    52857    7939
     Sum        4979    1589    451              1167509   211387   31747



     bravais-lattice index     =            0
     lattice parameter (alat)  =      10.7336  a.u.
     unit-cell volume          =    6184.1966 (a.u.)^3
     number of atoms/cell      =           31
     number of atomic types    =            3
     number of electrons       =       238.00 (up: 130.00, down: 108.00)
     number of Kohn-Sham states=          345
     kinetic-energy cutoff     =      40.0000  Ry
     charge density cutoff     =     500.0000  Ry
     convergence threshold     =      1.0E-06
     mixing beta               =       0.7000
     number of iterations used =            8  plain     mixing
     Exchange-correlation      = SLA  PW   PBE  PBE ( 1 4 3 4 0)
     EXX-fraction              =        0.00
     nstep                     =           50


     celldm(1)=  10.733644  celldm(2)=   0.000000  celldm(3)=   0.000000
     celldm(4)=   0.000000  celldm(5)=   0.000000  celldm(6)=   0.000000

     crystal axes: (cart. coord. in units of alat)
               a(1) = (   1.000000   0.000000   0.000000 )  
               a(2) = (   0.000000   1.085558   0.000000 )  
               a(3) = (   0.000000   0.000000   4.606685 )  

     reciprocal axes: (cart. coord. in units 2 pi/alat)
               b(1) = (  1.000000  0.000000  0.000000 )  
               b(2) = (  0.000000  0.921185  0.000000 )  
               b(3) = (  0.000000  0.000000  0.217076 )  


     PseudoPot. # 1 for O  read from file:
     /home/camp/zhonxu/pseudo/o_pbe_v1.01.uspp.F.UPF
     MD5 check sum: 2bcb18d16ea4b960afae9ec6d52f22d2
     Pseudo is Ultrasoft + core correction, Zval =  6.0
     Generated by new atomic code, or converted to UPF format
     Using radial grid of  737 points,  5 beta functions with: 
                l(1) =   0
                l(2) =   0
                l(3) =   1
                l(4) =   1
                l(5) =   2
     Q(r) pseudized with  8 coefficients,  rinner =    0.900   0.900   0.900
                                                       0.900   0.900

     PseudoPot. # 2 for Mn read from file:
     /home/camp/zhonxu/pseudo/mn_pbe_v1.uspp.F.UPF
     MD5 check sum: 5fd7c7b5c956fd19902447332617373a
     Pseudo is Ultrasoft + core correction, Zval = 15.0
     Generated by new atomic code, or converted to UPF format
     Using radial grid of  859 points,  6 beta functions with: 
                l(1) =   0
                l(2) =   0
                l(3) =   1
                l(4) =   1
                l(5) =   2
                l(6) =   2
     Q(r) pseudized with  6 coefficients,  rinner =    1.150   1.150   1.150
                                                       1.150   1.150

     PseudoPot. # 3 for H  read from file:
     /home/camp/zhonxu/pseudo/h_pbe_v1.uspp.F.UPF
     MD5 check sum: 3408e3ff4ec8b0a4e358431e7e038a48
     Pseudo is Ultrasoft, Zval =  1.0
     Generated by new atomic code, or converted to UPF format
     Using radial grid of  615 points,  2 beta functions with: 
                l(1) =   0
                l(2) =   0
     Q(r) pseudized with  8 coefficients,  rinner =    0.700

     atomic species   valence    mass     pseudopotential
        O0             6.00    15.99940     O ( 1.00)
        Mn1           15.00    54.93800     Mn( 1.00)
        H2             1.00     1.00794     H ( 1.00)

     Starting magnetic structure 
     atomic species   magnetization
        O0           0.000
        Mn1          0.600
        H2           0.000


     Simplified LDA+U calculation (l_max = 2) with parameters (eV):
     atomic species    L          U    alpha       J0     beta
        Mn1            2     5.5000   0.0000   0.0000   0.0000



     No symmetry found



   Cartesian axes

     site n.     atom                  positions (alat units)
         1           O0  tau(   1) = (   0.0000000   0.0000000   1.7399910  )
         2           O0  tau(   2) = (   0.0000000   0.5427791   1.8336449  )
         3           Mn1 tau(   3) = (   0.2500000   0.5427791   2.0703364  )
         4           Mn1 tau(   4) = (   0.0000000   0.0000000   2.0664668  )
         5           O0  tau(   5) = (   0.2500000   0.8684466   2.0675263  )
         6           O0  tau(   6) = (   0.2500000   0.2171117   2.0713959  )
         7           O0  tau(   7) = (   0.0000000   0.5427791   2.2853304  )
         8           O0  tau(   8) = (   0.0000000   0.0000000   2.4130738  )
         9           Mn1 tau(   9) = (   0.2500000   0.0000000   2.6404597  )
        10           Mn1 tau(  10) = (   0.0000000   0.5427791   2.6100556  )
        11           O0  tau(  11) = (   0.2500000   0.7598908   2.6550169  )
        12           O0  tau(  12) = (   0.2500000   0.3256675   2.6553393  )
        13           O0  tau(  13) = (   0.0000000   0.0000000   2.8422786  )
        14           O0  tau(  14) = (   0.5000000   0.0000000   1.7417876  )
        15           O0  tau(  15) = (   0.5000000   0.5427791   1.8324472  )
        16           Mn1 tau(  16) = (   0.7500000   0.5427791   2.0703364  )
        17           Mn1 tau(  17) = (   0.5000000   0.0000000   2.0689544  )
        18           O0  tau(  18) = (   0.7500000   0.8684466   2.0673421  )
        19           O0  tau(  19) = (   0.7500000   0.2171117   2.0716263  )
        20           O0  tau(  20) = (   0.5000000   0.5427791   2.2770384  )
        21           O0  tau(  21) = (   0.5000000   0.0000000   2.4133962  )
        22           Mn1 tau(  22) = (   0.7500000   0.0000000   2.6405058  )
        23           Mn1 tau(  23) = (   0.5000000   0.5427791   2.7093297  )
        24           O0  tau(  24) = (   0.7500000   0.7598908   2.6549708  )
        25           O0  tau(  25) = (   0.7500000   0.3256675   2.6552472  )
        26           O0  tau(  26) = (   0.5000000   0.0000000   2.8420483  )
        27           H2  tau(  27) = (   0.0000300   0.7005108   1.7564369  )
        28           H2  tau(  28) = (   0.5000400   0.7015529   1.7568515  )
        29           H2  tau(  29) = (   0.1610500   0.0407627   1.6853097  )
        30           H2  tau(  30) = (   0.6609300   0.0408604   1.6868759  )
        31           O0  tau(  31) = (   0.5000700   0.5432134   2.9889094  )

     number of k points=    20  Methfessel-Paxton smearing, width (Ry)=  0.0100
                       cart. coord. in units 2pi/alat
        k(    1) = (   0.0000000   0.0000000   0.0000000), wk =   0.0625000
        k(    2) = (   0.0000000   0.2302962   0.0000000), wk =   0.1250000
        k(    3) = (   0.0000000  -0.4605925   0.0000000), wk =   0.0625000
        k(    4) = (   0.2500000   0.0000000   0.0000000), wk =   0.1250000
        k(    5) = (   0.2500000   0.2302962   0.0000000), wk =   0.1250000
        k(    6) = (   0.2500000  -0.4605925   0.0000000), wk =   0.1250000
        k(    7) = (  -0.5000000   0.0000000   0.0000000), wk =   0.0625000
        k(    8) = (  -0.5000000   0.2302962   0.0000000), wk =   0.1250000
        k(    9) = (  -0.5000000  -0.4605925   0.0000000), wk =   0.0625000
        k(   10) = (  -0.2500000   0.2302962   0.0000000), wk =   0.1250000
        k(   11) = (   0.0000000   0.0000000   0.0000000), wk =   0.0625000
        k(   12) = (   0.0000000   0.2302962   0.0000000), wk =   0.1250000
        k(   13) = (   0.0000000  -0.4605925   0.0000000), wk =   0.0625000
        k(   14) = (   0.2500000   0.0000000   0.0000000), wk =   0.1250000
        k(   15) = (   0.2500000   0.2302962   0.0000000), wk =   0.1250000
        k(   16) = (   0.2500000  -0.4605925   0.0000000), wk =   0.1250000
        k(   17) = (  -0.5000000   0.0000000   0.0000000), wk =   0.0625000
        k(   18) = (  -0.5000000   0.2302962   0.0000000), wk =   0.1250000
        k(   19) = (  -0.5000000  -0.4605925   0.0000000), wk =   0.0625000
        k(   20) = (  -0.2500000   0.2302962   0.0000000), wk =   0.1250000

     Dense  grid:  1167509 G-vectors     FFT dimensions: (  80,  90, 360)

     Smooth grid:   211387 G-vectors     FFT dimensions: (  45,  48, 200)

     Largest allocated arrays     est. size (Mb)     dimensions
        Kohn-Sham Wavefunctions        34.96 Mb     (   6641,  345)
        Atomic wavefunctions           18.65 Mb     (   6641,  184)
        NL pseudopotentials            40.43 Mb     (   6641,  399)
        Each V/rho on FFT grid         19.78 Mb     ( 648000,   2)
        Each G-vector array             2.23 Mb     ( 291883)
        G-vector shells                 0.97 Mb     ( 127585)
     Largest temporary arrays     est. size (Mb)     dimensions
        Auxiliary wavefunctions       139.84 Mb     (   6641, 1380)
        Each subspace H/S matrix       29.06 Mb     (1380,1380)
        Each <psi_i|beta_j> matrix      2.10 Mb     (    399,  345)
        Arrays for rho mixing          79.10 Mb     ( 648000,   8)

     Check: negative/imaginary core charge=   -0.000022    0.000000

     Initial potential from superposition of free atoms
     Check: negative starting charge=(component1):   -0.000737
     Check: negative starting charge=(component2):   -0.000364

     starting charge  229.99987, renormalised to  238.00000

     negative rho (up, down):  0.762E-03 0.377E-03
     Number of +U iterations with fixed ns =  0
     Starting occupations:
 --- enter write_ns ---
 LDA+U parameters:
U( 2)     =  5.50000000
alpha( 2) =  0.00000000
atom    3   Tr[ns(na)] (up, down, total) =   5.00000  0.00000  5.00000
   spin  1
    eigenvalues: 
  1.000  1.000  1.000  1.000  1.000
    eigenvectors:
  1.000  0.000  0.000  0.000  0.000
  0.000  1.000  0.000  0.000  0.000
  0.000  0.000  1.000  0.000  0.000
  0.000  0.000  0.000  1.000  0.000
  0.000  0.000  0.000  0.000  1.000
    occupations:
  1.000  0.000  0.000  0.000  0.000
  0.000  1.000  0.000  0.000  0.000
  0.000  0.000  1.000  0.000  0.000
  0.000  0.000  0.000  1.000  0.000
  0.000  0.000  0.000  0.000  1.000
   spin  2
    eigenvalues: 
  0.000  0.000  0.000  0.000  0.000
    eigenvectors:
  1.000  0.000  0.000  0.000  0.000
  0.000  1.000  0.000  0.000  0.000
  0.000  0.000  1.000  0.000  0.000
  0.000  0.000  0.000  1.000  0.000
  0.000  0.000  0.000  0.000  1.000
    occupations:
  0.000  0.000  0.000  0.000  0.000
  0.000  0.000  0.000  0.000  0.000
  0.000  0.000  0.000  0.000  0.000
  0.000  0.000  0.000  0.000  0.000
  0.000  0.000  0.000  0.000  0.000
atomic mag. moment =     5.000000
atom    4   Tr[ns(na)] (up, down, total) =   5.00000  0.00000  5.00000
   spin  1
    eigenvalues: 
  1.000  1.000  1.000  1.000  1.000
    eigenvectors:
  1.000  0.000  0.000  0.000  0.000
  0.000  1.000  0.000  0.000  0.000
  0.000  0.000  1.000  0.000  0.000
  0.000  0.000  0.000  1.000  0.000
  0.000  0.000  0.000  0.000  1.000
    occupations:
  1.000  0.000  0.000  0.000  0.000
  0.000  1.000  0.000  0.000  0.000
  0.000  0.000  1.000  0.000  0.000
  0.000  0.000  0.000  1.000  0.000
  0.000  0.000  0.000  0.000  1.000
   spin  2
    eigenvalues: 
  0.000  0.000  0.000  0.000  0.000
    eigenvectors:
  1.000  0.000  0.000  0.000  0.000
  0.000  1.000  0.000  0.000  0.000
  0.000  0.000  1.000  0.000  0.000
  0.000  0.000  0.000  1.000  0.000
  0.000  0.000  0.000  0.000  1.000
    occupations:
  0.000  0.000  0.000  0.000  0.000
  0.000  0.000  0.000  0.000  0.000
  0.000  0.000  0.000  0.000  0.000
  0.000  0.000  0.000  0.000  0.000
  0.000  0.000  0.000  0.000  0.000
atomic mag. moment =     5.000000
atom    9   Tr[ns(na)] (up, down, total) =   5.00000  0.00000  5.00000
   spin  1
    eigenvalues: 
  1.000  1.000  1.000  1.000  1.000
    eigenvectors:
  1.000  0.000  0.000  0.000  0.000
  0.000  1.000  0.000  0.000  0.000
  0.000  0.000  1.000  0.000  0.000
  0.000  0.000  0.000  1.000  0.000
  0.000  0.000  0.000  0.000  1.000
    occupations:
  1.000  0.000  0.000  0.000  0.000
  0.000  1.000  0.000  0.000  0.000
  0.000  0.000  1.000  0.000  0.000
  0.000  0.000  0.000  1.000  0.000
  0.000  0.000  0.000  0.000  1.000
   spin  2
    eigenvalues: 
  0.000  0.000  0.000  0.000  0.000
    eigenvectors:
  1.000  0.000  0.000  0.000  0.000
  0.000  1.000  0.000  0.000  0.000
  0.000  0.000  1.000  0.000  0.000
  0.000  0.000  0.000  1.000  0.000
  0.000  0.000  0.000  0.000  1.000
    occupations:
  0.000  0.000  0.000  0.000  0.000
  0.000  0.000  0.000  0.000  0.000
  0.000  0.000  0.000  0.000  0.000
  0.000  0.000  0.000  0.000  0.000
  0.000  0.000  0.000  0.000  0.000
atomic mag. moment =     5.000000
atom   10   Tr[ns(na)] (up, down, total) =   5.00000  0.00000  5.00000
   spin  1
    eigenvalues: 
  1.000  1.000  1.000  1.000  1.000
    eigenvectors:
  1.000  0.000  0.000  0.000  0.000
  0.000  1.000  0.000  0.000  0.000
  0.000  0.000  1.000  0.000  0.000
  0.000  0.000  0.000  1.000  0.000
  0.000  0.000  0.000  0.000  1.000
    occupations:
  1.000  0.000  0.000  0.000  0.000
  0.000  1.000  0.000  0.000  0.000
  0.000  0.000  1.000  0.000  0.000
  0.000  0.000  0.000  1.000  0.000
  0.000  0.000  0.000  0.000  1.000
   spin  2
    eigenvalues: 
  0.000  0.000  0.000  0.000  0.000
    eigenvectors:
  1.000  0.000  0.000  0.000  0.000
  0.000  1.000  0.000  0.000  0.000
  0.000  0.000  1.000  0.000  0.000
  0.000  0.000  0.000  1.000  0.000
  0.000  0.000  0.000  0.000  1.000
    occupations:
  0.000  0.000  0.000  0.000  0.000
  0.000  0.000  0.000  0.000  0.000
  0.000  0.000  0.000  0.000  0.000
  0.000  0.000  0.000  0.000  0.000
  0.000  0.000  0.000  0.000  0.000
atomic mag. moment =     5.000000
atom   16   Tr[ns(na)] (up, down, total) =   5.00000  0.00000  5.00000
   spin  1
    eigenvalues: 
  1.000  1.000  1.000  1.000  1.000
    eigenvectors:
  1.000  0.000  0.000  0.000  0.000
  0.000  1.000  0.000  0.000  0.000
  0.000  0.000  1.000  0.000  0.000
  0.000  0.000  0.000  1.000  0.000
  0.000  0.000  0.000  0.000  1.000
    occupations:
  1.000  0.000  0.000  0.000  0.000
  0.000  1.000  0.000  0.000  0.000
  0.000  0.000  1.000  0.000  0.000
  0.000  0.000  0.000  1.000  0.000
  0.000  0.000  0.000  0.000  1.000
   spin  2
    eigenvalues: 
  0.000  0.000  0.000  0.000  0.000
    eigenvectors:
  1.000  0.000  0.000  0.000  0.000
  0.000  1.000  0.000  0.000  0.000
  0.000  0.000  1.000  0.000  0.000
  0.000  0.000  0.000  1.000  0.000
  0.000  0.000  0.000  0.000  1.000
    occupations:
  0.000  0.000  0.000  0.000  0.000
  0.000  0.000  0.000  0.000  0.000
  0.000  0.000  0.000  0.000  0.000
  0.000  0.000  0.000  0.000  0.000
  0.000  0.000  0.000  0.000  0.000
atomic mag. moment =     5.000000
atom   17   Tr[ns(na)] (up, down, total) =   5.00000  0.00000  5.00000
   spin  1
    eigenvalues: 
  1.000  1.000  1.000  1.000  1.000
    eigenvectors:
  1.000  0.000  0.000  0.000  0.000
  0.000  1.000  0.000  0.000  0.000
  0.000  0.000  1.000  0.000  0.000
  0.000  0.000  0.000  1.000  0.000
  0.000  0.000  0.000  0.000  1.000
    occupations:
  1.000  0.000  0.000  0.000  0.000
  0.000  1.000  0.000  0.000  0.000
  0.000  0.000  1.000  0.000  0.000
  0.000  0.000  0.000  1.000  0.000
  0.000  0.000  0.000  0.000  1.000
   spin  2
    eigenvalues: 
  0.000  0.000  0.000  0.000  0.000
    eigenvectors:
  1.000  0.000  0.000  0.000  0.000
  0.000  1.000  0.000  0.000  0.000
  0.000  0.000  1.000  0.000  0.000
  0.000  0.000  0.000  1.000  0.000
  0.000  0.000  0.000  0.000  1.000
    occupations:
  0.000  0.000  0.000  0.000  0.000
  0.000  0.000  0.000  0.000  0.000
  0.000  0.000  0.000  0.000  0.000
  0.000  0.000  0.000  0.000  0.000
  0.000  0.000  0.000  0.000  0.000
atomic mag. moment =     5.000000
atom   22   Tr[ns(na)] (up, down, total) =   5.00000  0.00000  5.00000
   spin  1
    eigenvalues: 
  1.000  1.000  1.000  1.000  1.000
    eigenvectors:
  1.000  0.000  0.000  0.000  0.000
  0.000  1.000  0.000  0.000  0.000
  0.000  0.000  1.000  0.000  0.000
  0.000  0.000  0.000  1.000  0.000
  0.000  0.000  0.000  0.000  1.000
    occupations:
  1.000  0.000  0.000  0.000  0.000
  0.000  1.000  0.000  0.000  0.000
  0.000  0.000  1.000  0.000  0.000
  0.000  0.000  0.000  1.000  0.000
  0.000  0.000  0.000  0.000  1.000
   spin  2
    eigenvalues: 
  0.000  0.000  0.000  0.000  0.000
    eigenvectors:
  1.000  0.000  0.000  0.000  0.000
  0.000  1.000  0.000  0.000  0.000
  0.000  0.000  1.000  0.000  0.000
  0.000  0.000  0.000  1.000  0.000
  0.000  0.000  0.000  0.000  1.000
    occupations:
  0.000  0.000  0.000  0.000  0.000
  0.000  0.000  0.000  0.000  0.000
  0.000  0.000  0.000  0.000  0.000
  0.000  0.000  0.000  0.000  0.000
  0.000  0.000  0.000  0.000  0.000
atomic mag. moment =     5.000000
atom   23   Tr[ns(na)] (up, down, total) =   5.00000  0.00000  5.00000
   spin  1
    eigenvalues: 
  1.000  1.000  1.000  1.000  1.000
    eigenvectors:
  1.000  0.000  0.000  0.000  0.000
  0.000  1.000  0.000  0.000  0.000
  0.000  0.000  1.000  0.000  0.000
  0.000  0.000  0.000  1.000  0.000
  0.000  0.000  0.000  0.000  1.000
    occupations:
  1.000  0.000  0.000  0.000  0.000
  0.000  1.000  0.000  0.000  0.000
  0.000  0.000  1.000  0.000  0.000
  0.000  0.000  0.000  1.000  0.000
  0.000  0.000  0.000  0.000  1.000
   spin  2
    eigenvalues: 
  0.000  0.000  0.000  0.000  0.000
    eigenvectors:
  1.000  0.000  0.000  0.000  0.000
  0.000  1.000  0.000  0.000  0.000
  0.000  0.000  1.000  0.000  0.000
  0.000  0.000  0.000  1.000  0.000
  0.000  0.000  0.000  0.000  1.000
    occupations:
  0.000  0.000  0.000  0.000  0.000
  0.000  0.000  0.000  0.000  0.000
  0.000  0.000  0.000  0.000  0.000
  0.000  0.000  0.000  0.000  0.000
  0.000  0.000  0.000  0.000  0.000
atomic mag. moment =     5.000000
N of occupied +U levels =  40.0000000
 --- exit write_ns ---
 Atomic wfc used for LDA+U Projector are NOT orthogonalized
     Starting wfc are  184 randomized atomic wfcs

     total cpu time spent up to now is      121.4 secs

     per-process dynamical memory:   417.7 Mb

     Self-consistent Calculation

     iteration #  1     ecut=    40.00 Ry     beta=0.70
     Davidson diagonalization with overlap
     ethr =  1.00E-02,  avg # of iterations =  5.5
 --- enter write_ns ---
 LDA+U parameters:
U( 2)     =  5.50000000
alpha( 2) =  0.00000000
atom    3   Tr[ns(na)] (up, down, total) =   4.32962  0.49230  4.82193
   spin  1
    eigenvalues: 
  0.687  0.749  0.932  0.979  0.983
    eigenvectors:
  0.268  0.004  0.024  0.496  0.209
  0.014  0.984  0.000  0.001  0.001
  0.002  0.000  0.948  0.048  0.002
  0.715  0.011  0.022  0.183  0.069
  0.000  0.002  0.007  0.273  0.719
    occupations:
  0.900  0.004  0.014 -0.129 -0.004
  0.004  0.748 -0.003  0.006 -0.009
  0.014 -0.003  0.934  0.005  0.004
 -0.129  0.006  0.005  0.767 -0.002
 -0.004 -0.009  0.004 -0.002  0.981
   spin  2
    eigenvalues: 
  0.048  0.052  0.054  0.162  0.176
    eigenvectors:
  0.383  0.334  0.097  0.018  0.168
  0.000  0.000  0.001  0.921  0.078
  0.487  0.201  0.311  0.000  0.000
  0.089  0.075  0.022  0.060  0.754
  0.041  0.389  0.569  0.001  0.000
    occupations:
  0.074  0.000 -0.002  0.048  0.000
  0.000  0.163  0.000 -0.004  0.003
 -0.002  0.000  0.051  0.001 -0.001
  0.048 -0.004  0.001  0.152 -0.000
  0.000  0.003 -0.001 -0.000  0.053
atomic mag. moment =     3.837323
atom    4   Tr[ns(na)] (up, down, total) =   4.24363  0.49954  4.74317
   spin  1
    eigenvalues: 
  0.640  0.759  0.923  0.939  0.982
    eigenvectors:
  0.000  0.983  0.014  0.001  0.002
  0.000  0.014  0.984  0.000  0.002
  0.000  0.001  0.001  0.996  0.003
  0.000  0.002  0.001  0.003  0.994
  1.000  0.000  0.000  0.000  0.000
    occupations:
  0.762  0.019  0.005  0.010  0.000
  0.019  0.921 -0.000 -0.003  0.003
  0.005 -0.000  0.939 -0.003  0.000
  0.010 -0.003 -0.003  0.981 -0.000
  0.000  0.003  0.000 -0.000  0.640
   spin  2
    eigenvalues: 
  0.048  0.053  0.059  0.165  0.174
    eigenvectors:
  0.009  0.001  0.000  0.000  0.991
  0.014  0.769  0.216  0.000  0.001
  0.004  0.212  0.784  0.000  0.000
  0.973  0.019  0.000  0.000  0.008
  0.000  0.000  0.000  1.000  0.000
    occupations:
  0.173  0.004  0.002 -0.011  0.000
  0.004  0.055 -0.002  0.000 -0.001
  0.002 -0.002  0.058  0.000  0.000
 -0.011  0.000  0.000  0.049  0.000
  0.000 -0.001  0.000  0.000  0.165
atomic mag. moment =     3.744091
atom    9   Tr[ns(na)] (up, down, total) =   4.53164  0.54815  5.07978
   spin  1
    eigenvalues: 
  0.759  0.777  0.994  0.998  1.004
    eigenvectors:
  0.140  0.016  0.844  0.000  0.000
  0.100  0.900  0.000  0.000  0.000
  0.000  0.000  0.000  0.114  0.886
  0.760  0.084  0.156  0.000  0.000
  0.000  0.000  0.000  0.886  0.114
    occupations:
  0.958  0.002 -0.000 -0.084  0.000
  0.002  0.775  0.000  0.005  0.000
 -0.000  0.000  1.003 -0.000  0.002
 -0.084  0.005 -0.000  0.797  0.000
  0.000  0.000  0.002  0.000  0.998
   spin  2
    eigenvalues: 
  0.057  0.062  0.065  0.181  0.183
    eigenvectors:
  0.000  0.855  0.000  0.145  0.000
  0.000  0.000  0.000  0.000  1.000
  0.998  0.000  0.002  0.000  0.000
  0.000  0.145  0.000  0.855  0.000
  0.002  0.000  0.998  0.000  0.000
    occupations:
  0.079  0.000  0.000  0.042 -0.000
  0.000  0.183  0.000 -0.000 -0.000
  0.000  0.000  0.057  0.000  0.000
  0.042 -0.000  0.000  0.164 -0.000
 -0.000 -0.000  0.000 -0.000  0.065
atomic mag. moment =     3.983491
atom   10   Tr[ns(na)] (up, down, total) =   4.91078  0.42113  5.33191
   spin  1
    eigenvalues: 
  0.924  0.984  0.998  1.000  1.005
    eigenvectors:
  0.000  0.857  0.142  0.000  0.002
  0.000  0.000  0.000  1.000  0.000
  0.000  0.001  0.001  0.000  0.998
  0.000  0.142  0.857  0.000  0.000
  1.000  0.000  0.000  0.000  0.000
    occupations:
  0.986 -0.000  0.001  0.005  0.000
 -0.000  1.000  0.000  0.000 -0.000
  0.001  0.000  1.005 -0.000 -0.000
  0.005  0.000 -0.000  0.996 -0.000
  0.000 -0.000 -0.000 -0.000  0.924
   spin  2
    eigenvalues: 
  0.046  0.048  0.053  0.115  0.159
    eigenvectors:
  0.019  0.000  0.000  0.981  0.000
  0.000  0.000  1.000  0.000  0.000
  0.000  1.000  0.000  0.000  0.000
  0.981  0.000  0.000  0.019  0.000
  0.000  0.000  0.000  0.000  1.000
    occupations:
  0.114  0.000 -0.000 -0.010 -0.000
  0.000  0.053 -0.000 -0.000  0.000
 -0.000 -0.000  0.048 -0.000 -0.000
 -0.010 -0.000 -0.000  0.047  0.000
 -0.000  0.000 -0.000  0.000  0.159
atomic mag. moment =     4.489646
atom   16   Tr[ns(na)] (up, down, total) =   4.33046  0.49230  4.82276
   spin  1
    eigenvalues: 
  0.687  0.749  0.932  0.979  0.984
    eigenvectors:
  0.269  0.003  0.024  0.499  0.205
  0.011  0.987  0.000  0.001  0.001
  0.002  0.000  0.948  0.048  0.002
  0.718  0.008  0.023  0.184  0.068
  0.000  0.002  0.005  0.269  0.724
    occupations:
  0.900 -0.004  0.014 -0.129  0.004
 -0.004  0.748  0.002 -0.006 -0.010
  0.014  0.002  0.934  0.005 -0.003
 -0.129 -0.006  0.005  0.767  0.002
  0.004 -0.010 -0.003  0.002  0.982
   spin  2
    eigenvalues: 
  0.048  0.052  0.054  0.162  0.176
    eigenvectors:
  0.386  0.331  0.097  0.018  0.168
  0.000  0.000  0.001  0.921  0.078
  0.485  0.206  0.309  0.000  0.000
  0.090  0.075  0.022  0.060  0.754
  0.039  0.388  0.572  0.001  0.000
    occupations:
  0.074 -0.000 -0.002  0.048 -0.000
 -0.000  0.163 -0.000  0.004  0.003
 -0.002 -0.000  0.051  0.001  0.001
  0.048  0.004  0.001  0.152  0.000
 -0.000  0.003  0.001  0.000  0.053
atomic mag. moment =     3.838161
atom   17   Tr[ns(na)] (up, down, total) =   4.24050  0.49874  4.73924
   spin  1
    eigenvalues: 
  0.639  0.757  0.924  0.940  0.981
    eigenvectors:
  0.000  0.984  0.013  0.001  0.002
  0.000  0.013  0.983  0.002  0.002
  0.000  0.001  0.002  0.995  0.002
  0.000  0.002  0.002  0.002  0.994
  1.000  0.000  0.000  0.000  0.000
    occupations:
  0.760  0.019  0.005  0.010  0.000
  0.019  0.922  0.000 -0.003  0.003
  0.005  0.000  0.939 -0.002  0.000
  0.010 -0.003 -0.002  0.981 -0.000
  0.000  0.003  0.000 -0.000  0.639
   spin  2
    eigenvalues: 
  0.048  0.053  0.059  0.164  0.174
    eigenvectors:
  0.009  0.001  0.000  0.000  0.991
  0.013  0.758  0.228  0.000  0.001
  0.004  0.224  0.772  0.000  0.000
  0.974  0.018  0.000  0.000  0.008
  0.000  0.000  0.000  1.000  0.000
    occupations:
  0.173  0.004  0.002 -0.011  0.000
  0.004  0.055 -0.002  0.000 -0.001
  0.002 -0.002  0.058  0.000  0.000
 -0.011  0.000  0.000  0.049  0.000
  0.000 -0.001  0.000  0.000  0.164
atomic mag. moment =     3.741753
atom   22   Tr[ns(na)] (up, down, total) =   4.53015  0.54820  5.07835
   spin  1
    eigenvalues: 
  0.760  0.775  0.994  0.998  1.004
    eigenvectors:
  0.150  0.005  0.845  0.000  0.000
  0.041  0.959  0.000  0.000  0.000
  0.000  0.000  0.000  0.113  0.887
  0.810  0.035  0.155  0.000  0.000
  0.000  0.000  0.000  0.887  0.113
    occupations:
  0.958  0.002 -0.000 -0.084  0.000
  0.002  0.774  0.000  0.002  0.000
 -0.000  0.000  1.003 -0.000 -0.002
 -0.084  0.002 -0.000  0.797  0.000
  0.000  0.000 -0.002  0.000  0.998
   spin  2
    eigenvalues: 
  0.057  0.062  0.065  0.181  0.183
    eigenvectors:
  0.000  0.855  0.000  0.145  0.000
  0.000  0.000  0.000  0.000  1.000
  0.998  0.000  0.002  0.000  0.000
  0.000  0.145  0.000  0.855  0.000
  0.002  0.000  0.998  0.000  0.000
    occupations:
  0.079 -0.000  0.000  0.042  0.000
 -0.000  0.183 -0.000  0.000 -0.000
  0.000 -0.000  0.057  0.000 -0.000
  0.042  0.000  0.000  0.164 -0.000
  0.000 -0.000 -0.000 -0.000  0.065
atomic mag. moment =     3.981958
atom   23   Tr[ns(na)] (up, down, total) =   4.66137  0.59657  5.25794
   spin  1
    eigenvalues: 
  0.756  0.911  0.995  0.995  1.004
    eigenvectors:
  0.999  0.000  0.000  0.001  0.000
  0.000  0.000  1.000  0.000  0.000
  0.000  0.000  0.000  0.000  1.000
  0.001  0.000  0.000  0.999  0.000
  0.000  1.000  0.000  0.000  0.000
    occupations:
  0.756  0.000  0.001  0.006  0.000
  0.000  0.995  0.000  0.000  0.000
  0.001  0.000  1.004 -0.000 -0.000
  0.006  0.000 -0.000  0.995 -0.000
  0.000  0.000 -0.000 -0.000  0.911
   spin  2
    eigenvalues: 
  0.043  0.096  0.103  0.149  0.206
    eigenvectors:
  0.004  0.000  0.000  0.000  0.996
  0.000  0.000  1.000  0.000  0.000
  0.000  1.000  0.000  0.000  0.000
  0.996  0.000  0.000  0.000  0.004
  0.000  0.000  0.000  1.000  0.000
    occupations:
  0.206 -0.000 -0.000 -0.010 -0.000
 -0.000  0.103 -0.000 -0.000 -0.000
 -0.000 -0.000  0.096  0.000 -0.000
 -0.010 -0.000  0.000  0.043  0.000
 -0.000 -0.000 -0.000  0.000  0.149
atomic mag. moment =     4.064808
N of occupied +U levels =  39.8750809
 --- exit write_ns ---

     negative rho (up, down):  0.101E-02 0.108E-02

     total cpu time spent up to now is      587.7 secs

     total energy              =   -2298.18676883 Ry
     Harris-Foulkes estimate   =   -2316.53580352 Ry
     estimated scf accuracy    <      30.48760280 Ry

     total magnetization       =    22.00 Bohr mag/cell
     absolute magnetization    =    41.49 Bohr mag/cell

     iteration #  2     ecut=    40.00 Ry     beta=0.70
     Davidson diagonalization with overlap
     ethr =  1.00E-02,  avg # of iterations =  6.8

     negative rho (up, down):  0.816E-02 0.393E-02

     total cpu time spent up to now is     1046.8 secs

     total energy              =   -2166.62643802 Ry
     Harris-Foulkes estimate   =   -2581.24057232 Ry
     estimated scf accuracy    <    5055.08382018 Ry

     total magnetization       =    22.00 Bohr mag/cell
     absolute magnetization    =    22.40 Bohr mag/cell

     iteration #  3     ecut=    40.00 Ry     beta=0.70
     Davidson diagonalization with overlap
     ethr =  1.00E-02,  avg # of iterations =  5.9

     negative rho (up, down):  0.688E-02 0.474E-02

     total cpu time spent up to now is     1535.1 secs

     total energy              =   -2310.80338651 Ry
     Harris-Foulkes estimate   =   -2322.73597831 Ry
     estimated scf accuracy    <      48.97714939 Ry

     total magnetization       =    22.00 Bohr mag/cell
     absolute magnetization    =    33.63 Bohr mag/cell

     iteration #  4     ecut=    40.00 Ry     beta=0.70
     Davidson diagonalization with overlap
     ethr =  1.00E-02,  avg # of iterations =  3.3

     negative rho (up, down):  0.459E-02 0.253E-02

     total cpu time spent up to now is     1781.4 secs

     total energy              =   -2316.43198314 Ry
     Harris-Foulkes estimate   =   -2321.17499307 Ry
     estimated scf accuracy    <      19.29472096 Ry

     total magnetization       =    22.00 Bohr mag/cell
     absolute magnetization    =    36.43 Bohr mag/cell

     iteration #  5     ecut=    40.00 Ry     beta=0.70
     Davidson diagonalization with overlap
     ethr =  8.11E-03,  avg # of iterations =  2.5

     negative rho (up, down):  0.476E-02 0.214E-02

     total cpu time spent up to now is     2017.2 secs

     total energy              =   -2317.39873456 Ry
     Harris-Foulkes estimate   =   -2319.78796711 Ry
     estimated scf accuracy    <      10.36378205 Ry

     total magnetization       =    22.00 Bohr mag/cell
     absolute magnetization    =    35.59 Bohr mag/cell

     iteration #  6     ecut=    40.00 Ry     beta=0.70
     Davidson diagonalization with overlap
     ethr =  4.35E-03,  avg # of iterations =  3.0

     negative rho (up, down):  0.359E-02 0.177E-02

     total cpu time spent up to now is     2266.6 secs

     total energy              =   -2318.09291525 Ry
     Harris-Foulkes estimate   =   -2319.37099745 Ry
     estimated scf accuracy    <       8.16010492 Ry

     total magnetization       =    22.00 Bohr mag/cell
     absolute magnetization    =    33.58 Bohr mag/cell

     iteration #  7     ecut=    40.00 Ry     beta=0.70
     Davidson diagonalization with overlap
     ethr =  3.43E-03,  avg # of iterations =  1.0

     negative rho (up, down):  0.232E-02 0.186E-02

     total cpu time spent up to now is     2492.0 secs

     total energy              =   -2318.36062367 Ry
     Harris-Foulkes estimate   =   -2318.97640458 Ry
     estimated scf accuracy    <       3.28083147 Ry

     total magnetization       =    22.00 Bohr mag/cell
     absolute magnetization    =    35.38 Bohr mag/cell

     iteration #  8     ecut=    40.00 Ry     beta=0.70
     Davidson diagonalization with overlap
     ethr =  1.38E-03,  avg # of iterations =  1.1

     negative rho (up, down):  0.348E-02 0.154E-02

     total cpu time spent up to now is     2707.5 secs

     total energy              =   -2318.65431922 Ry
     Harris-Foulkes estimate   =   -2318.85192596 Ry
     estimated scf accuracy    <       1.21910621 Ry

     total magnetization       =    22.00 Bohr mag/cell
     absolute magnetization    =    33.74 Bohr mag/cell

     iteration #  9     ecut=    40.00 Ry     beta=0.70
     Davidson diagonalization with overlap
     ethr =  5.12E-04,  avg # of iterations =  4.5

     negative rho (up, down):  0.292E-02 0.128E-02

     total cpu time spent up to now is     2952.7 secs

     total energy              =   -2318.72765435 Ry
     Harris-Foulkes estimate   =   -2318.82138791 Ry
     estimated scf accuracy    <       1.30778497 Ry

     total magnetization       =    22.00 Bohr mag/cell
     absolute magnetization    =    33.65 Bohr mag/cell

     iteration # 10     ecut=    40.00 Ry     beta=0.70
     Davidson diagonalization with overlap
     ethr =  5.12E-04,  avg # of iterations =  1.0

     negative rho (up, down):  0.251E-02 0.122E-02

     total cpu time spent up to now is     3165.7 secs

     total energy              =   -2318.72701564 Ry
     Harris-Foulkes estimate   =   -2318.76209291 Ry
     estimated scf accuracy    <       0.30654810 Ry

     total magnetization       =    22.00 Bohr mag/cell
     absolute magnetization    =    33.40 Bohr mag/cell

     iteration # 11     ecut=    40.00 Ry     beta=0.70
     Davidson diagonalization with overlap
     ethr =  1.29E-04,  avg # of iterations =  5.7

     negative rho (up, down):  0.169E-02 0.118E-02

     total cpu time spent up to now is     3415.2 secs

     total energy              =   -2318.71341867 Ry
     Harris-Foulkes estimate   =   -2318.77472874 Ry
     estimated scf accuracy    <       0.52062169 Ry

     total magnetization       =    22.00 Bohr mag/cell
     absolute magnetization    =    33.69 Bohr mag/cell

     iteration # 12     ecut=    40.00 Ry     beta=0.70
     Davidson diagonalization with overlap
     ethr =  1.29E-04,  avg # of iterations =  6.0

     negative rho (up, down):  0.156E-02 0.119E-02

     total cpu time spent up to now is     3688.3 secs

     total energy              =   -2318.72000077 Ry
     Harris-Foulkes estimate   =   -2318.76225013 Ry
     estimated scf accuracy    <       0.22204007 Ry

     total magnetization       =    22.00 Bohr mag/cell
     absolute magnetization    =    33.11 Bohr mag/cell

     iteration # 13     ecut=    40.00 Ry     beta=0.70
     Davidson diagonalization with overlap
     ethr =  9.33E-05,  avg # of iterations =  2.9

     negative rho (up, down):  0.158E-02 0.124E-02

     total cpu time spent up to now is     3914.9 secs

     total energy              =   -2318.73395253 Ry
     Harris-Foulkes estimate   =   -2318.75838784 Ry
     estimated scf accuracy    <       0.15707673 Ry

     total magnetization       =    22.00 Bohr mag/cell
     absolute magnetization    =    33.22 Bohr mag/cell

     iteration # 14     ecut=    40.00 Ry     beta=0.70
     Davidson diagonalization with overlap
     ethr =  6.60E-05,  avg # of iterations =  1.1

     negative rho (up, down):  0.159E-02 0.124E-02

     total cpu time spent up to now is     4130.9 secs

     total energy              =   -2318.74251417 Ry
     Harris-Foulkes estimate   =   -2318.75211945 Ry
     estimated scf accuracy    <       0.06868933 Ry

     total magnetization       =    22.00 Bohr mag/cell
     absolute magnetization    =    33.00 Bohr mag/cell

     iteration # 15     ecut=    40.00 Ry     beta=0.70
     Davidson diagonalization with overlap
     ethr =  2.89E-05,  avg # of iterations =  1.8

     negative rho (up, down):  0.155E-02 0.127E-02

     total cpu time spent up to now is     4375.7 secs

     total energy              =   -2318.74527944 Ry
     Harris-Foulkes estimate   =   -2318.74960033 Ry
     estimated scf accuracy    <       0.02873721 Ry

     total magnetization       =    22.00 Bohr mag/cell
     absolute magnetization    =    33.00 Bohr mag/cell

     iteration # 16     ecut=    40.00 Ry     beta=0.70
     Davidson diagonalization with overlap
     ethr =  1.21E-05,  avg # of iterations =  2.6

     negative rho (up, down):  0.154E-02 0.133E-02

     total cpu time spent up to now is     4617.1 secs

     total energy              =   -2318.74750885 Ry
     Harris-Foulkes estimate   =   -2318.74923205 Ry
     estimated scf accuracy    <       0.02888582 Ry

     total magnetization       =    22.00 Bohr mag/cell
     absolute magnetization    =    33.07 Bohr mag/cell

     iteration # 17     ecut=    40.00 Ry     beta=0.70
     Davidson diagonalization with overlap
     ethr =  1.21E-05,  avg # of iterations =  1.4

     negative rho (up, down):  0.175E-02 0.140E-02

     total cpu time spent up to now is     4843.2 secs

     total energy              =   -2318.74750287 Ry
     Harris-Foulkes estimate   =   -2318.74970989 Ry
     estimated scf accuracy    <       0.01700635 Ry

     total magnetization       =    22.00 Bohr mag/cell
     absolute magnetization    =    32.97 Bohr mag/cell

     iteration # 18     ecut=    40.00 Ry     beta=0.70
     Davidson diagonalization with overlap
     ethr =  7.15E-06,  avg # of iterations =  3.1

     negative rho (up, down):  0.207E-02 0.153E-02

     total cpu time spent up to now is     5097.8 secs

     total energy              =   -2318.74851488 Ry
     Harris-Foulkes estimate   =   -2318.74895318 Ry
     estimated scf accuracy    <       0.00409894 Ry

     total magnetization       =    22.00 Bohr mag/cell
     absolute magnetization    =    32.91 Bohr mag/cell

     iteration # 19     ecut=    40.00 Ry     beta=0.70
     Davidson diagonalization with overlap
     ethr =  1.72E-06,  avg # of iterations =  4.7

     negative rho (up, down):  0.227E-02 0.158E-02

     total cpu time spent up to now is     5353.0 secs

     total energy              =   -2318.74868203 Ry
     Harris-Foulkes estimate   =   -2318.74913316 Ry
     estimated scf accuracy    <       0.00379487 Ry

     total magnetization       =    22.00 Bohr mag/cell
     absolute magnetization    =    32.84 Bohr mag/cell

     iteration # 20     ecut=    40.00 Ry     beta=0.70
     Davidson diagonalization with overlap
     ethr =  1.59E-06,  avg # of iterations =  1.1

     negative rho (up, down):  0.212E-02 0.154E-02

     total cpu time spent up to now is     5580.7 secs

     total energy              =   -2318.74884674 Ry
     Harris-Foulkes estimate   =   -2318.74937823 Ry
     estimated scf accuracy    <       0.00541658 Ry

     total magnetization       =    22.00 Bohr mag/cell
     absolute magnetization    =    32.83 Bohr mag/cell

     iteration # 21     ecut=    40.00 Ry     beta=0.70
     Davidson diagonalization with overlap
     ethr =  1.59E-06,  avg # of iterations =  1.0

     negative rho (up, down):  0.205E-02 0.151E-02

     total cpu time spent up to now is     5802.5 secs

     total energy              =   -2318.74904842 Ry
     Harris-Foulkes estimate   =   -2318.74950330 Ry
     estimated scf accuracy    <       0.00485825 Ry

     total magnetization       =    22.00 Bohr mag/cell
     absolute magnetization    =    32.78 Bohr mag/cell

     iteration # 22     ecut=    40.00 Ry     beta=0.70
     Davidson diagonalization with overlap
     ethr =  1.59E-06,  avg # of iterations =  1.0

     negative rho (up, down):  0.199E-02 0.150E-02

     total cpu time spent up to now is     6023.8 secs

     total energy              =   -2318.74919495 Ry
     Harris-Foulkes estimate   =   -2318.74931210 Ry
     estimated scf accuracy    <       0.00085710 Ry

     total magnetization       =    22.00 Bohr mag/cell
     absolute magnetization    =    32.77 Bohr mag/cell

     iteration # 23     ecut=    40.00 Ry     beta=0.70
     Davidson diagonalization with overlap
     ethr =  3.60E-07,  avg # of iterations =  1.0

     negative rho (up, down):  0.192E-02 0.148E-02

     total cpu time spent up to now is     6244.8 secs

     total energy              =   -2318.74907218 Ry
     Harris-Foulkes estimate   =   -2318.74945202 Ry
     estimated scf accuracy    <       0.00247383 Ry

     total magnetization       =    22.00 Bohr mag/cell
     absolute magnetization    =    32.76 Bohr mag/cell

     iteration # 24     ecut=    40.00 Ry     beta=0.70
     Davidson diagonalization with overlap
     ethr =  3.60E-07,  avg # of iterations =  1.6

     negative rho (up, down):  0.190E-02 0.147E-02

     total cpu time spent up to now is     6477.4 secs

     total energy              =   -2318.74897595 Ry
     Harris-Foulkes estimate   =   -2318.74961872 Ry
     estimated scf accuracy    <       0.00428913 Ry

     total magnetization       =    22.00 Bohr mag/cell
     absolute magnetization    =    32.77 Bohr mag/cell

     iteration # 25     ecut=    40.00 Ry     beta=0.70
     Davidson diagonalization with overlap
     ethr =  3.60E-07,  avg # of iterations =  1.0

     negative rho (up, down):  0.188E-02 0.146E-02

     total cpu time spent up to now is     6708.9 secs

     total energy              =   -2318.74930308 Ry
     Harris-Foulkes estimate   =   -2318.74936962 Ry
     estimated scf accuracy    <       0.00059202 Ry

     total magnetization       =    22.00 Bohr mag/cell
     absolute magnetization    =    32.75 Bohr mag/cell

     iteration # 26     ecut=    40.00 Ry     beta=0.70
     Davidson diagonalization with overlap
     ethr =  2.49E-07,  avg # of iterations =  1.0

     negative rho (up, down):  0.187E-02 0.146E-02

     total cpu time spent up to now is     6940.4 secs

     total energy              =   -2318.74924660 Ry
     Harris-Foulkes estimate   =   -2318.74950699 Ry
     estimated scf accuracy    <       0.00308271 Ry

     total magnetization       =    22.00 Bohr mag/cell
     absolute magnetization    =    32.71 Bohr mag/cell

     iteration # 27     ecut=    40.00 Ry     beta=0.70
     Davidson diagonalization with overlap
     ethr =  2.49E-07,  avg # of iterations =  1.0

     negative rho (up, down):  0.187E-02 0.146E-02

     total cpu time spent up to now is     7168.9 secs

     total energy              =   -2318.74929837 Ry
     Harris-Foulkes estimate   =   -2318.74942067 Ry
     estimated scf accuracy    <       0.00039588 Ry

     total magnetization       =    22.00 Bohr mag/cell
     absolute magnetization    =    32.72 Bohr mag/cell

     iteration # 28     ecut=    40.00 Ry     beta=0.70
     Davidson diagonalization with overlap
     ethr =  1.66E-07,  avg # of iterations =  1.1

     negative rho (up, down):  0.184E-02 0.145E-02

     total cpu time spent up to now is     7397.9 secs

     total energy              =   -2318.74935228 Ry
     Harris-Foulkes estimate   =   -2318.74939852 Ry
     estimated scf accuracy    <       0.00053232 Ry

     total magnetization       =    22.00 Bohr mag/cell
     absolute magnetization    =    32.73 Bohr mag/cell

     iteration # 29     ecut=    40.00 Ry     beta=0.70
     Davidson diagonalization with overlap
     ethr =  1.66E-07,  avg # of iterations =  1.5

     negative rho (up, down):  0.184E-02 0.145E-02

     total cpu time spent up to now is     7631.7 secs

     total energy              =   -2318.74936643 Ry
     Harris-Foulkes estimate   =   -2318.74942245 Ry
     estimated scf accuracy    <       0.00031563 Ry

     total magnetization       =    22.00 Bohr mag/cell
     absolute magnetization    =    32.73 Bohr mag/cell

     iteration # 30     ecut=    40.00 Ry     beta=0.70
     Davidson diagonalization with overlap
     ethr =  1.33E-07,  avg # of iterations =  1.1

     negative rho (up, down):  0.184E-02 0.145E-02

     total cpu time spent up to now is     7859.7 secs

     total energy              =   -2318.74936464 Ry
     Harris-Foulkes estimate   =   -2318.74943063 Ry
     estimated scf accuracy    <       0.00061360 Ry

     total magnetization       =    22.00 Bohr mag/cell
     absolute magnetization    =    32.71 Bohr mag/cell

     iteration # 31     ecut=    40.00 Ry     beta=0.70
     Davidson diagonalization with overlap
     ethr =  1.33E-07,  avg # of iterations =  1.0

     negative rho (up, down):  0.184E-02 0.145E-02

     total cpu time spent up to now is     8088.3 secs

     total energy              =   -2318.74936930 Ry
     Harris-Foulkes estimate   =   -2318.74943857 Ry
     estimated scf accuracy    <       0.00061673 Ry

     total magnetization       =    22.00 Bohr mag/cell
     absolute magnetization    =    32.70 Bohr mag/cell

     iteration # 32     ecut=    40.00 Ry     beta=0.70
     Davidson diagonalization with overlap
     ethr =  1.33E-07,  avg # of iterations =  1.0

     negative rho (up, down):  0.183E-02 0.144E-02

     total cpu time spent up to now is     8316.4 secs

     total energy              =   -2318.74940393 Ry
     Harris-Foulkes estimate   =   -2318.74941102 Ry
     estimated scf accuracy    <       0.00011055 Ry

     total magnetization       =    22.00 Bohr mag/cell
     absolute magnetization    =    32.71 Bohr mag/cell

     iteration # 33     ecut=    40.00 Ry     beta=0.70
     Davidson diagonalization with overlap
     ethr =  4.64E-08,  avg # of iterations =  1.5

     negative rho (up, down):  0.183E-02 0.144E-02

     total cpu time spent up to now is     8550.4 secs

     total energy              =   -2318.74941407 Ry
     Harris-Foulkes estimate   =   -2318.74942695 Ry
     estimated scf accuracy    <       0.00017527 Ry

     total magnetization       =    22.00 Bohr mag/cell
     absolute magnetization    =    32.70 Bohr mag/cell

     iteration # 34     ecut=    40.00 Ry     beta=0.70
     Davidson diagonalization with overlap
     ethr =  4.64E-08,  avg # of iterations =  1.1

     negative rho (up, down):  0.184E-02 0.144E-02

     total cpu time spent up to now is     8779.1 secs

     total energy              =   -2318.74940905 Ry
     Harris-Foulkes estimate   =   -2318.74942848 Ry
     estimated scf accuracy    <       0.00005761 Ry

     total magnetization       =    22.00 Bohr mag/cell
     absolute magnetization    =    32.70 Bohr mag/cell

     iteration # 35     ecut=    40.00 Ry     beta=0.70
     Davidson diagonalization with overlap
     ethr =  2.42E-08,  avg # of iterations =  1.6

     negative rho (up, down):  0.183E-02 0.144E-02

     total cpu time spent up to now is     9014.9 secs

     total energy              =   -2318.74938751 Ry
     Harris-Foulkes estimate   =   -2318.74945606 Ry
     estimated scf accuracy    <       0.00050414 Ry

     total magnetization       =    22.00 Bohr mag/cell
     absolute magnetization    =    32.70 Bohr mag/cell

     iteration # 36     ecut=    40.00 Ry     beta=0.70
     Davidson diagonalization with overlap
     ethr =  2.42E-08,  avg # of iterations =  1.4

     negative rho (up, down):  0.183E-02 0.144E-02

     total cpu time spent up to now is     9248.6 secs

     total energy              =   -2318.74942136 Ry
     Harris-Foulkes estimate   =   -2318.74942963 Ry
     estimated scf accuracy    <       0.00006637 Ry

     total magnetization       =    22.00 Bohr mag/cell
     absolute magnetization    =    32.70 Bohr mag/cell

     iteration # 37     ecut=    40.00 Ry     beta=0.70
     Davidson diagonalization with overlap
     ethr =  2.42E-08,  avg # of iterations =  1.0

     negative rho (up, down):  0.183E-02 0.144E-02

     total cpu time spent up to now is     9479.2 secs

     total energy              =   -2318.74942102 Ry
     Harris-Foulkes estimate   =   -2318.74942827 Ry
     estimated scf accuracy    <       0.00004041 Ry

     total magnetization       =    22.00 Bohr mag/cell
     absolute magnetization    =    32.70 Bohr mag/cell

     iteration # 38     ecut=    40.00 Ry     beta=0.70
     Davidson diagonalization with overlap
     ethr =  1.70E-08,  avg # of iterations =  1.1

     negative rho (up, down):  0.183E-02 0.144E-02

     total cpu time spent up to now is     9710.6 secs

     total energy              =   -2318.74941544 Ry
     Harris-Foulkes estimate   =   -2318.74944063 Ry
     estimated scf accuracy    <       0.00017174 Ry

     total magnetization       =    22.00 Bohr mag/cell
     absolute magnetization    =    32.70 Bohr mag/cell

     iteration # 39     ecut=    40.00 Ry     beta=0.70
     Davidson diagonalization with overlap
     ethr =  1.70E-08,  avg # of iterations =  1.0

     negative rho (up, down):  0.183E-02 0.144E-02

     total cpu time spent up to now is     9939.3 secs

     total energy              =   -2318.74942810 Ry
     Harris-Foulkes estimate   =   -2318.74942998 Ry
     estimated scf accuracy    <       0.00002185 Ry

     total magnetization       =    22.00 Bohr mag/cell
     absolute magnetization    =    32.69 Bohr mag/cell

     iteration # 40     ecut=    40.00 Ry     beta=0.70
     Davidson diagonalization with overlap
     ethr =  9.18E-09,  avg # of iterations =  1.4

     negative rho (up, down):  0.183E-02 0.144E-02

     total cpu time spent up to now is    10170.7 secs

     total energy              =   -2318.74942618 Ry
     Harris-Foulkes estimate   =   -2318.74943125 Ry
     estimated scf accuracy    <       0.00002567 Ry

     total magnetization       =    22.00 Bohr mag/cell
     absolute magnetization    =    32.69 Bohr mag/cell

     iteration # 41     ecut=    40.00 Ry     beta=0.70
     Davidson diagonalization with overlap
     ethr =  9.18E-09,  avg # of iterations =  1.1

     negative rho (up, down):  0.183E-02 0.144E-02

     total cpu time spent up to now is    10400.1 secs

     total energy              =   -2318.74942495 Ry
     Harris-Foulkes estimate   =   -2318.74943277 Ry
     estimated scf accuracy    <       0.00009660 Ry

     total magnetization       =    22.00 Bohr mag/cell
     absolute magnetization    =    32.69 Bohr mag/cell

     iteration # 42     ecut=    40.00 Ry     beta=0.70
     Davidson diagonalization with overlap
     ethr =  9.18E-09,  avg # of iterations =  1.0

     negative rho (up, down):  0.183E-02 0.144E-02

     total cpu time spent up to now is    10629.1 secs

     total energy              =   -2318.74942667 Ry
     Harris-Foulkes estimate   =   -2318.74943093 Ry
     estimated scf accuracy    <       0.00002553 Ry

     total magnetization       =    22.00 Bohr mag/cell
     absolute magnetization    =    32.69 Bohr mag/cell

     iteration # 43     ecut=    40.00 Ry     beta=0.70
     Davidson diagonalization with overlap
     ethr =  9.18E-09,  avg # of iterations =  1.0

     negative rho (up, down):  0.183E-02 0.144E-02

     total cpu time spent up to now is    10858.6 secs

     total energy              =   -2318.74942390 Ry
     Harris-Foulkes estimate   =   -2318.74943415 Ry
     estimated scf accuracy    <       0.00008298 Ry

     total magnetization       =    22.00 Bohr mag/cell
     absolute magnetization    =    32.69 Bohr mag/cell

     iteration # 44     ecut=    40.00 Ry     beta=0.70
     Davidson diagonalization with overlap
     ethr =  9.18E-09,  avg # of iterations =  1.0

     negative rho (up, down):  0.183E-02 0.144E-02

     total cpu time spent up to now is    11087.8 secs

     total energy              =   -2318.74942928 Ry
     Harris-Foulkes estimate   =   -2318.74943104 Ry
     estimated scf accuracy    <       0.00001841 Ry

     total magnetization       =    22.00 Bohr mag/cell
     absolute magnetization    =    32.69 Bohr mag/cell

     iteration # 45     ecut=    40.00 Ry     beta=0.70
     Davidson diagonalization with overlap
     ethr =  7.73E-09,  avg # of iterations =  1.0

     negative rho (up, down):  0.183E-02 0.144E-02

     total cpu time spent up to now is    11316.5 secs

     total energy              =   -2318.74942969 Ry
     Harris-Foulkes estimate   =   -2318.74943087 Ry
     estimated scf accuracy    <       0.00000638 Ry

     total magnetization       =    22.00 Bohr mag/cell
     absolute magnetization    =    32.69 Bohr mag/cell

     iteration # 46     ecut=    40.00 Ry     beta=0.70
     Davidson diagonalization with overlap
     ethr =  2.68E-09,  avg # of iterations =  1.0

     negative rho (up, down):  0.183E-02 0.144E-02

     total cpu time spent up to now is    11546.1 secs

     total energy              =   -2318.74942910 Ry
     Harris-Foulkes estimate   =   -2318.74943160 Ry
     estimated scf accuracy    <       0.00001523 Ry

     total magnetization       =    22.00 Bohr mag/cell
     absolute magnetization    =    32.69 Bohr mag/cell

     iteration # 47     ecut=    40.00 Ry     beta=0.70
     Davidson diagonalization with overlap
     ethr =  2.68E-09,  avg # of iterations =  1.0

     negative rho (up, down):  0.183E-02 0.144E-02

     total cpu time spent up to now is    11775.4 secs

     total energy              =   -2318.74943057 Ry
     Harris-Foulkes estimate   =   -2318.74943056 Ry
     estimated scf accuracy    <       0.00000250 Ry

     total magnetization       =    22.00 Bohr mag/cell
     absolute magnetization    =    32.69 Bohr mag/cell

     iteration # 48     ecut=    40.00 Ry     beta=0.70
     Davidson diagonalization with overlap
     ethr =  1.05E-09,  avg # of iterations =  2.0

     negative rho (up, down):  0.183E-02 0.144E-02

     total cpu time spent up to now is    12017.5 secs

     total energy              =   -2318.74943022 Ry
     Harris-Foulkes estimate   =   -2318.74943117 Ry
     estimated scf accuracy    <       0.00000195 Ry

     total magnetization       =    22.00 Bohr mag/cell
     absolute magnetization    =    32.69 Bohr mag/cell

     iteration # 49     ecut=    40.00 Ry     beta=0.70
     Davidson diagonalization with overlap
     ethr =  8.21E-10,  avg # of iterations =  1.7

     negative rho (up, down):  0.183E-02 0.144E-02

     total cpu time spent up to now is    12245.8 secs

     total energy              =   -2318.74943035 Ry
     Harris-Foulkes estimate   =   -2318.74943109 Ry
     estimated scf accuracy    <       0.00000617 Ry

     total magnetization       =    22.00 Bohr mag/cell
     absolute magnetization    =    32.69 Bohr mag/cell

     iteration # 50     ecut=    40.00 Ry     beta=0.70
     Davidson diagonalization with overlap
     ethr =  8.21E-10,  avg # of iterations =  1.1

     negative rho (up, down):  0.183E-02 0.144E-02

     total cpu time spent up to now is    12478.3 secs

     total energy              =   -2318.74943082 Ry
     Harris-Foulkes estimate   =   -2318.74943091 Ry
     estimated scf accuracy    <       0.00000227 Ry

     total magnetization       =    22.00 Bohr mag/cell
     absolute magnetization    =    32.69 Bohr mag/cell

     iteration # 51     ecut=    40.00 Ry     beta=0.70
     Davidson diagonalization with overlap
     ethr =  8.21E-10,  avg # of iterations =  1.8

     negative rho (up, down):  0.183E-02 0.144E-02

     total cpu time spent up to now is    12715.3 secs

     total energy              =   -2318.74943081 Ry
     Harris-Foulkes estimate   =   -2318.74943120 Ry
     estimated scf accuracy    <       0.00000377 Ry

     total magnetization       =    22.00 Bohr mag/cell
     absolute magnetization    =    32.69 Bohr mag/cell

     iteration # 52     ecut=    40.00 Ry     beta=0.70
     Davidson diagonalization with overlap
     ethr =  8.21E-10,  avg # of iterations =  1.0

     negative rho (up, down):  0.183E-02 0.144E-02

     total cpu time spent up to now is    12944.1 secs

     total energy              =   -2318.74943067 Ry
     Harris-Foulkes estimate   =   -2318.74943149 Ry
     estimated scf accuracy    <       0.00000595 Ry

     total magnetization       =    22.00 Bohr mag/cell
     absolute magnetization    =    32.69 Bohr mag/cell

     iteration # 53     ecut=    40.00 Ry     beta=0.70
     Davidson diagonalization with overlap
     ethr =  8.21E-10,  avg # of iterations =  1.5

     negative rho (up, down):  0.183E-02 0.144E-02

     total cpu time spent up to now is    13172.7 secs

     End of self-consistent calculation
 --- enter write_ns ---
 LDA+U parameters:
U( 2)     =  5.50000000
alpha( 2) =  0.00000000
atom    3   Tr[ns(na)] (up, down, total) =   4.37822  1.02665  5.40487
   spin  1
    eigenvalues: 
  0.686  0.696  0.997  0.998  1.001
    eigenvectors:
  0.200  0.022  0.165  0.569  0.045
  0.062  0.936  0.000  0.002  0.000
  0.000  0.000  0.138  0.002  0.860
  0.738  0.041  0.050  0.161  0.009
  0.000  0.001  0.647  0.266  0.087
    occupations:
  0.929 -0.008 -0.003 -0.129 -0.000
 -0.008  0.696 -0.001  0.007 -0.008
 -0.003 -0.001  1.001 -0.004  0.001
 -0.129  0.007 -0.004  0.755  0.000
 -0.000 -0.008  0.001  0.000  0.998
   spin  2
    eigenvalues: 
  0.088  0.106  0.121  0.342  0.369
    eigenvectors:
  0.793  0.001  0.007  0.102  0.097
  0.002  0.001  0.000  0.566  0.431
  0.010  0.160  0.830  0.000  0.000
  0.196  0.000  0.001  0.331  0.471
  0.000  0.837  0.161  0.001  0.001
    occupations:
  0.142  0.003 -0.001  0.106  0.001
  0.003  0.353  0.001 -0.017  0.010
 -0.001  0.001  0.119  0.004 -0.005
  0.106 -0.017  0.004  0.305 -0.001
  0.001  0.010 -0.005 -0.001  0.109
atomic mag. moment =     3.351573
atom    4   Tr[ns(na)] (up, down, total) =   4.37194  1.02120  5.39315
   spin  1
    eigenvalues: 
  0.664  0.702  0.997  1.004  1.004
    eigenvectors:
  0.000  0.998  0.001  0.001  0.000
  0.000  0.001  0.000  0.767  0.231
  0.000  0.000  0.000  0.231  0.769
  0.000  0.001  0.999  0.000  0.000
  1.000  0.000  0.000  0.000  0.000
    occupations:
  0.703 -0.010 -0.004  0.007 -0.000
 -0.010  1.004 -0.000  0.000 -0.000
 -0.004 -0.000  1.004 -0.000  0.000
  0.007  0.000 -0.000  0.997  0.000
 -0.000 -0.000  0.000  0.000  0.664
   spin  2
    eigenvalues: 
  0.080  0.106  0.121  0.356  0.359
    eigenvectors:
  0.004  0.002  0.000  0.003  0.991
  0.001  0.850  0.146  0.000  0.002
  0.000  0.145  0.854  0.000  0.000
  0.995  0.002  0.000  0.000  0.003
  0.000  0.000  0.000  0.997  0.003
    occupations:
  0.357  0.012  0.004 -0.016 -0.000
  0.012  0.109 -0.005  0.000 -0.002
  0.004 -0.005  0.119  0.000  0.000
 -0.016  0.000  0.000  0.081 -0.000
 -0.000 -0.002  0.000 -0.000  0.356
atomic mag. moment =     3.350741
atom    9   Tr[ns(na)] (up, down, total) =   4.35250  1.09221  5.44471
   spin  1
    eigenvalues: 
  0.692  0.704  0.972  0.985  0.999
    eigenvectors:
  0.006  0.169  0.000  0.000  0.825
  0.968  0.032  0.000  0.000  0.000
  0.000  0.000  0.007  0.992  0.000
  0.026  0.799  0.000  0.000  0.175
  0.000  0.000  0.993  0.007  0.000
    occupations:
  0.947 -0.001 -0.000 -0.112  0.000
 -0.001  0.693  0.000 -0.002 -0.000
 -0.000  0.000  0.985  0.000  0.001
 -0.112 -0.002  0.000  0.755  0.000
  0.000 -0.000  0.001  0.000  0.972
   spin  2
    eigenvalues: 
  0.108  0.116  0.120  0.362  0.386
    eigenvectors:
  0.842  0.000  0.000  0.156  0.002
  0.000  0.000  0.000  0.010  0.990
  0.000  0.945  0.055  0.000  0.000
  0.158  0.000  0.000  0.834  0.009
  0.000  0.055  0.945  0.000  0.000
    occupations:
  0.148 -0.001  0.000  0.093 -0.000
 -0.001  0.386 -0.000 -0.002 -0.000
  0.000 -0.000  0.116  0.000  0.001
  0.093 -0.002  0.000  0.323 -0.000
 -0.000 -0.000  0.001 -0.000  0.120
atomic mag. moment =     3.260289
atom   10   Tr[ns(na)] (up, down, total) =   4.58008  0.75665  5.33673
   spin  1
    eigenvalues: 
  0.706  0.880  0.995  0.996  1.002
    eigenvectors:
  0.000  0.975  0.000  0.025  0.000
  0.000  0.000  1.000  0.000  0.000
  0.000  0.000  0.000  0.000  1.000
  0.000  0.025  0.000  0.975  0.000
  1.000  0.000  0.000  0.000  0.000
    occupations:
  0.883 -0.000  0.000  0.018  0.000
 -0.000  0.995  0.000  0.000 -0.000
  0.000  0.000  1.002 -0.000 -0.000
  0.018  0.000 -0.000  0.994 -0.000
  0.000 -0.000 -0.000 -0.000  0.706
   spin  2
    eigenvalues: 
  0.067  0.093  0.094  0.195  0.307
    eigenvectors:
  0.015  0.000  0.000  0.985  0.000
  0.000  0.000  1.000  0.000  0.000
  0.000  1.000  0.000  0.000  0.000
  0.985  0.000  0.000  0.015  0.000
  0.000  0.000  0.000  0.000  1.000
    occupations:
  0.193  0.000 -0.000 -0.015 -0.000
  0.000  0.094 -0.000 -0.000  0.000
 -0.000 -0.000  0.093  0.000 -0.000
 -0.015 -0.000  0.000  0.069  0.000
 -0.000  0.000 -0.000  0.000  0.307
atomic mag. moment =     3.823428
atom   16   Tr[ns(na)] (up, down, total) =   4.37817  1.02676  5.40493
   spin  1
    eigenvalues: 
  0.686  0.696  0.997  0.998  1.001
    eigenvectors:
  0.201  0.020  0.138  0.600  0.041
  0.056  0.942  0.000  0.002  0.000
  0.000  0.000  0.132  0.004  0.864
  0.742  0.037  0.041  0.171  0.008
  0.000  0.001  0.688  0.225  0.087
    occupations:
  0.929  0.008 -0.003 -0.129  0.000
  0.008  0.696  0.001 -0.007 -0.008
 -0.003  0.001  1.001 -0.004 -0.001
 -0.129 -0.007 -0.004  0.755  0.000
  0.000 -0.008 -0.001  0.000  0.998
   spin  2
    eigenvalues: 
  0.088  0.106  0.121  0.342  0.369
    eigenvectors:
  0.793  0.001  0.007  0.101  0.097
  0.002  0.001  0.000  0.567  0.430
  0.009  0.161  0.830  0.000  0.000
  0.196  0.000  0.001  0.331  0.472
  0.000  0.837  0.162  0.001  0.001
    occupations:
  0.142 -0.004 -0.001  0.106 -0.001
 -0.004  0.353 -0.000  0.016  0.010
 -0.001 -0.000  0.119  0.004  0.005
  0.106  0.016  0.004  0.305  0.001
 -0.001  0.010  0.005  0.001  0.109
atomic mag. moment =     3.351409
atom   17   Tr[ns(na)] (up, down, total) =   4.36876  1.02298  5.39173
   spin  1
    eigenvalues: 
  0.663  0.702  0.997  1.003  1.004
    eigenvectors:
  0.000  0.998  0.001  0.000  0.001
  0.000  0.001  0.000  0.005  0.993
  0.000  0.000  0.000  0.994  0.006
  0.000  0.001  0.999  0.000  0.000
  1.000  0.000  0.000  0.000  0.000
    occupations:
  0.702 -0.010 -0.004  0.007 -0.000
 -0.010  1.004 -0.000  0.000 -0.000
 -0.004 -0.000  1.003  0.000  0.000
  0.007  0.000  0.000  0.997  0.000
 -0.000 -0.000  0.000  0.000  0.663
   spin  2
    eigenvalues: 
  0.080  0.107  0.120  0.356  0.360
    eigenvectors:
  0.003  0.002  0.000  0.002  0.992
  0.001  0.845  0.151  0.000  0.002
  0.000  0.151  0.849  0.000  0.000
  0.995  0.002  0.000  0.000  0.003
  0.000  0.000  0.000  0.998  0.002
    occupations:
  0.359  0.012  0.004 -0.016 -0.000
  0.012  0.109 -0.005  0.000 -0.002
  0.004 -0.005  0.118  0.000  0.000
 -0.016  0.000  0.000  0.081 -0.000
 -0.000 -0.002  0.000 -0.000  0.356
atomic mag. moment =     3.345777
atom   22   Tr[ns(na)] (up, down, total) =   4.35247  1.09230  5.44476
   spin  1
    eigenvalues: 
  0.692  0.705  0.972  0.985  0.999
    eigenvectors:
  0.010  0.165  0.000  0.000  0.825
  0.944  0.056  0.000  0.000  0.000
  0.000  0.000  0.008  0.992  0.000
  0.046  0.779  0.000  0.000  0.174
  0.000  0.000  0.992  0.008  0.000
    occupations:
  0.947  0.001  0.000 -0.112 -0.000
  0.001  0.693  0.000  0.003 -0.000
  0.000  0.000  0.985  0.000 -0.001
 -0.112  0.003  0.000  0.755  0.000
 -0.000 -0.000 -0.001  0.000  0.972
   spin  2
    eigenvalues: 
  0.108  0.116  0.120  0.362  0.386
    eigenvectors:
  0.843  0.000  0.000  0.156  0.001
  0.000  0.000  0.000  0.010  0.990
  0.000  0.942  0.058  0.000  0.000
  0.157  0.000  0.000  0.834  0.008
  0.000  0.058  0.942  0.000  0.000
    occupations:
  0.148  0.001  0.000  0.093 -0.000
  0.001  0.386 -0.000  0.002 -0.000
  0.000 -0.000  0.116  0.000 -0.001
  0.093  0.002  0.000  0.323  0.000
 -0.000 -0.000 -0.001  0.000  0.120
atomic mag. moment =     3.260168
atom   23   Tr[ns(na)] (up, down, total) =   4.27991  1.26037  5.54029
   spin  1
    eigenvalues: 
  0.710  0.731  0.894  0.946  0.999
    eigenvectors:
  0.999  0.000  0.000  0.000  0.001
  0.000  0.000  0.000  1.000  0.000
  0.000  0.000  1.000  0.000  0.000
  0.001  0.000  0.000  0.000  0.999
  0.000  1.000  0.000  0.000  0.000
    occupations:
  0.711  0.000  0.000  0.010  0.000
  0.000  0.946  0.000 -0.000  0.000
  0.000  0.000  0.894 -0.000  0.000
  0.010 -0.000 -0.000  0.999  0.000
  0.000  0.000  0.000  0.000  0.731
   spin  2
    eigenvalues: 
  0.074  0.198  0.233  0.338  0.417
    eigenvectors:
  0.002  0.000  0.000  0.000  0.998
  0.000  0.000  1.000  0.000  0.000
  0.000  1.000  0.000  0.000  0.000
  0.998  0.000  0.000  0.000  0.002
  0.000  0.000  0.000  1.000  0.000
    occupations:
  0.417 -0.000 -0.001 -0.014 -0.000
 -0.000  0.233 -0.000 -0.000 -0.000
 -0.001 -0.000  0.198  0.000 -0.000
 -0.014 -0.000  0.000  0.075 -0.000
 -0.000 -0.000 -0.000 -0.000  0.338
atomic mag. moment =     3.019541
N of occupied +U levels =  43.3611642
 --- exit write_ns ---

 ------ SPIN UP ------------


          k = 0.0000 0.0000 0.0000 ( 26393 PWs)   bands (ev):

   -84.5369 -84.5056 -84.4954 -84.3830 -84.3417 -84.2682 -84.2576 -84.0979
   -53.3133 -53.2892 -53.2232 -53.1830 -53.1821 -53.1741 -53.1706 -53.1614
   -53.1378 -53.1121 -53.0728 -53.0566 -53.0349 -53.0290 -52.9853 -52.9763
   -52.9483 -52.9114 -52.9072 -52.8798 -52.8609 -52.8504 -52.7701 -52.7690
   -21.9101 -21.3048 -21.2386 -21.0175 -20.4314 -20.2385 -20.2056 -20.1912
   -20.0740 -20.0152 -19.9494 -19.8411 -19.7576 -19.6958 -19.5451 -19.4996
   -19.3860 -19.2665 -19.0021 -11.1217 -10.8507 -10.7458 -10.4606 -10.2804
   -10.0984  -9.9629  -9.9549  -9.6216  -9.3148  -9.2291  -9.2138  -9.1234
    -9.0915  -8.9729  -8.9417  -8.7175  -8.6081  -8.4800  -8.4614  -8.4204
    -8.3832  -8.3446  -8.1950  -8.1108  -8.1048  -8.0883  -8.0032  -7.9801
    -7.8581  -7.6008  -7.5207  -7.4536  -7.4336  -7.2315  -7.2257  -7.2201
    -7.1667  -7.0239  -6.9749  -6.8313  -6.4162  -6.2652  -6.1830  -6.1310
    -6.0310  -5.8500  -5.5941  -5.5155  -5.4995  -5.4013  -5.3996  -5.2142
    -5.0979  -5.0263  -4.9892  -4.8559  -4.6306  -4.5438  -4.4314  -4.2902
    -4.1090  -3.8057  -3.6404  -3.4369  -3.3988  -3.3395  -3.1908  -3.1631
    -3.0499  -3.0330  -2.9531  -2.8404  -2.8298  -2.7917  -2.7080  -2.5517
    -2.5002  -2.4099  -2.2767  -2.1125  -1.8880  -1.6121  -1.2316  -1.2119
    -1.1834  -0.8753  -0.7063  -0.6444  -0.3210  -0.1102  -0.0384   0.0574
     0.3116   0.4239   0.6124   0.7063   3.0374   3.7751   3.9060   4.4021
     4.8358   5.5939   6.0852   6.2437   6.6342   7.0607   7.1232   7.1995
     7.3451   7.6308   7.7375   7.8327   7.9542   8.1904   8.2416   8.2639
     8.3188   8.3838   8.5172   8.5316   8.6344   8.9306   8.9656   9.0094
     9.0380   9.1782   9.3446   9.3789   9.4639   9.5062   9.6197   9.7005
     9.8442   9.9533  10.0399  10.2767  10.3048  10.3757  10.5374  10.5480
    10.6857  10.7571  10.9783  11.0090  11.0659  11.1070  11.3006  11.3712
    11.5473  11.6017  11.6761  11.8297  11.8810  12.0547  12.1734  12.2409
    12.2567  12.3311  12.3429  12.3652  12.4032  12.4537  12.5535  12.6011
    12.6477  12.7148  12.8142  12.8434  12.8914  12.9713  13.0172  13.1241
    13.1736  13.2124  13.2794  13.2826  13.3775  13.4897  13.5736  13.6218
    13.7534  13.8219  13.8560  13.9235  13.9575  13.9742  14.1696  14.1977
    14.2689  14.2821  14.3835  14.4285  14.6039  14.6652  14.7490  14.8261
    14.8922  14.9029  15.1891  15.1960  15.2748  15.3098  15.3428  15.3504
    15.5276  15.7722  15.8123  15.8548  15.9482  16.0896  16.2003  16.3111
    16.3946  16.5508  16.5753  16.6540  16.7171  16.7769  17.0618  17.1575
    17.1783  17.2920  17.4194  17.4783  17.5872  17.6967  17.7309  17.8343
    17.9604  18.1440  18.2092  18.2461  18.3059  18.3841  18.4590  18.6404
    18.7063  18.8431  18.9168  18.9970  19.0406  19.1414  19.2184  19.3540
    19.4762  19.5402  19.5743  19.5851  19.6828  19.7378  19.7755  19.8755
    19.9289  19.9633  20.0401  20.0639  20.1706  20.2612  20.3650  20.3730
    20.4634  20.5787  20.6986  20.7830  20.9557  20.9666  21.1366  21.1908
    21.2823  21.3070  21.3518  21.4215  21.4749  21.5037  21.5989  21.6267
    21.7341  21.8393  22.0409  22.1409  22.2163  22.2463  22.3353  22.3862
    22.3977  22.4284  22.4616  22.5703  22.6105  22.6120  22.7040  22.7995
    22.8666

          k = 0.0000 0.2303 0.0000 ( 26455 PWs)   bands (ev):

   -84.5369 -84.5055 -84.4954 -84.3830 -84.3417 -84.2681 -84.2576 -84.0979
   -53.3133 -53.2893 -53.2230 -53.1850 -53.1819 -53.1732 -53.1708 -53.1595
   -53.1377 -53.1122 -53.0736 -53.0567 -53.0348 -53.0291 -52.9854 -52.9761
   -52.9483 -52.9115 -52.9072 -52.8798 -52.8609 -52.8504 -52.7701 -52.7693
   -21.8419 -21.2402 -21.1906 -21.0016 -20.4572 -20.3033 -20.2892 -20.2541
   -20.1942 -19.9483 -19.9117 -19.8486 -19.8178 -19.6968 -19.5267 -19.4918
   -19.3793 -19.2684 -18.9948 -10.9096 -10.7144 -10.6636 -10.5647 -10.3231
   -10.3017  -9.9939  -9.8981  -9.6654  -9.2595  -9.1490  -9.0816  -8.8987
    -8.8111  -8.7857  -8.7410  -8.7060  -8.5951  -8.5204  -8.4697  -8.4302
    -8.3826  -8.3459  -8.3347  -8.1404  -8.0648  -8.0271  -7.9997  -7.9514
    -7.8072  -7.7965  -7.6900  -7.5991  -7.4940  -7.4352  -7.3981  -7.3036
    -7.2304  -7.0297  -6.8102  -6.7760  -6.4764  -6.2562  -6.1863  -6.1435
    -5.9605  -5.8384  -5.7361  -5.6550  -5.5418  -5.4713  -5.4371  -5.2605
    -5.1402  -5.0374  -4.7411  -4.6800  -4.5832  -4.4277  -4.3118  -4.2288
    -4.0390  -3.8267  -3.7423  -3.5638  -3.4946  -3.3861  -3.3433  -3.3103
    -3.2089  -3.1626  -2.9731  -2.9283  -2.7786  -2.6848  -2.6419  -2.6205
    -2.4998  -2.4020  -2.3417  -2.1497  -2.1431  -2.0421  -2.0232  -1.1604
    -1.1282  -1.0219  -0.3860  -0.1786  -0.0905  -0.0725   0.1949   0.4324
     0.4570   0.5350   0.5741   0.7142   3.3087   4.0220   4.1719   4.6302
     5.0477   5.2764   5.7988   6.0095   6.2595   6.4087   6.6854   6.8294
     7.1736   7.3482   7.4258   7.5574   8.0037   8.1274   8.3091   8.4696
     8.5294   8.6135   8.7091   8.7395   8.8630   9.0284   9.0804   9.2189
     9.2507   9.5813   9.6320   9.6919   9.7585   9.8550   9.8829   9.9129
    10.0087  10.1340  10.1760  10.2631  10.3468  10.4910  10.5180  10.5465
    10.6214  10.7290  10.8627  10.8929  10.9595  11.0096  11.0484  11.1289
    11.2519  11.4267  11.4702  11.5485  11.5780  11.5954  11.7397  11.8535
    11.9628  12.0472  12.1036  12.3811  12.4160  12.5955  12.6292  12.6604
    12.7613  12.8010  12.8825  12.9694  13.0716  13.1418  13.2165  13.3349
    13.4188  13.4769  13.5976  13.6684  13.6870  13.8267  13.8527  13.9769
    14.0516  14.1282  14.2587  14.3379  14.3558  14.3712  14.4110  14.4519
    14.5497  14.5903  14.6296  14.7170  14.7510  14.7787  14.9445  15.0177
    15.0730  15.0918  15.2218  15.3426  15.3776  15.4192  15.4674  15.4711
    15.5592  15.6661  15.8553  15.8850  15.9318  16.0345  16.0886  16.1957
    16.2642  16.3330  16.4099  16.5088  16.5941  16.6582  16.7751  16.8479
    16.9740  17.1222  17.1686  17.3074  17.3944  17.4621  17.4977  17.5985
    17.6611  17.7605  17.7935  17.8491  18.0809  18.0964  18.3239  18.4664
    18.5872  18.7446  18.7829  18.8256  18.8957  18.9727  18.9984  19.1033
    19.1972  19.2456  19.3237  19.3862  19.4616  19.4981  19.5313  19.6055
    19.8923  19.9574  20.1083  20.1809  20.2714  20.3120  20.3573  20.3898
    20.5087  20.5207  20.5398  20.6555  20.7016  20.7834  20.8573  20.9842
    21.0305  21.0752  21.0995  21.1693  21.2168  21.3224  21.3653  21.4497
    21.4701  21.6022  21.7228  21.7615  21.8908  21.9229  21.9639  22.0508
    22.2612  22.2823  22.3644  22.4802  22.5203  22.5608  22.6417  22.7214
    22.7656

          k = 0.0000-0.4606 0.0000 ( 26364 PWs)   bands (ev):

   -84.5369 -84.5054 -84.4954 -84.3830 -84.3418 -84.2681 -84.2576 -84.0979
   -53.3133 -53.2892 -53.2227 -53.1864 -53.1817 -53.1722 -53.1707 -53.1578
   -53.1376 -53.1121 -53.0744 -53.0566 -53.0347 -53.0292 -52.9854 -52.9759
   -52.9482 -52.9114 -52.9072 -52.8797 -52.8608 -52.8502 -52.7701 -52.7694
   -21.7632 -21.2318 -21.1134 -20.8303 -20.6668 -20.4202 -20.3568 -20.2914
   -20.1917 -19.9680 -19.9225 -19.8804 -19.7901 -19.6777 -19.5161 -19.4850
   -19.3747 -19.2707 -18.9901 -10.8698 -10.7889 -10.5313 -10.4533 -10.3574
   -10.2146  -9.9885  -9.7071  -9.5908  -9.3091  -9.0450  -9.0222  -8.8130
    -8.7929  -8.7622  -8.7454  -8.6396  -8.5339  -8.5303  -8.4408  -8.4236
    -8.3291  -8.2934  -8.2055  -8.1316  -8.0982  -8.0108  -7.9887  -7.9705
    -7.9271  -7.8054  -7.7144  -7.6932  -7.6670  -7.5366  -7.4725  -7.3575
    -7.3505  -7.2596  -6.6216  -6.5477  -6.4818  -6.2998  -6.1947  -6.1726
    -6.0912  -6.0503  -5.9161  -5.7319  -5.5671  -5.4803  -5.4701  -5.2168
    -5.1572  -4.9292  -4.6191  -4.5751  -4.4849  -4.2623  -4.2388  -3.9497
    -3.8691  -3.8662  -3.7681  -3.6742  -3.6451  -3.5960  -3.4687  -3.4247
    -3.3280  -3.1899  -3.0071  -2.9734  -2.8358  -2.8272  -2.8103  -2.7196
    -2.7182  -2.4924  -2.3658  -2.3115  -2.2477  -2.2268  -2.1310  -1.1093
    -1.0151  -0.6295  -0.2204  -0.1962  -0.1842   0.0519   0.0922   0.3137
     0.5007   0.7131   0.9558   1.0111   3.8646   4.2542   4.6639   4.7591
     4.8572   5.0830   5.3147   5.5478   5.8540   6.1553   6.5363   6.9470
     7.0567   7.1401   7.4980   7.7082   7.7651   7.9298   7.9821   8.2138
     8.6444   8.9926   9.0105   9.1420   9.2017   9.2426   9.2583   9.3304
     9.3325   9.3873   9.5107   9.5739   9.6099   9.7428   9.8125   9.8727
     9.9528   9.9720  10.1496  10.1678  10.1977  10.3462  10.4750  10.6566
    10.6954  10.7489  10.7944  10.9138  11.0251  11.0835  11.2794  11.3319
    11.4281  11.4440  11.6342  11.7379  11.8199  12.1154  12.2055  12.2524
    12.2954  12.3631  12.5336  12.5507  12.5739  12.5851  12.6571  12.7883
    12.8636  12.9087  12.9753  13.1137  13.1282  13.1968  13.2126  13.2585
    13.3099  13.4554  13.4751  13.5628  13.6140  13.6758  13.7613  13.9665
    13.9768  14.0450  14.0577  14.1276  14.2366  14.2748  14.3510  14.4431
    14.4641  14.4948  14.5620  14.6093  14.6619  14.7240  14.8177  14.8399
    14.9201  15.0419  15.1792  15.1989  15.2294  15.5171  15.7826  15.7962
    15.8766  15.9419  15.9902  16.0657  16.1826  16.2156  16.3858  16.4819
    16.6508  16.7259  16.7831  16.8466  16.9877  17.0245  17.1199  17.1640
    17.2702  17.2953  17.4104  17.4613  17.4783  17.5462  17.6902  17.7312
    17.8195  17.8342  17.8844  17.9251  17.9674  18.0430  18.0669  18.1533
    18.3813  18.4228  18.5193  18.5502  18.5871  18.6470  18.6616  18.6689
    18.7022  18.7732  18.7949  18.9314  18.9980  19.1119  19.1809  19.2692
    19.2886  19.5638  19.6250  19.6386  19.6881  19.9446  19.9768  20.0310
    20.1385  20.1494  20.1634  20.1962  20.2269  20.3897  20.4924  20.5480
    20.6676  20.7030  20.8475  20.8949  20.9853  21.0736  21.1096  21.1714
    21.2592  21.3681  21.4173  21.4985  21.5402  21.6525  21.7406  21.8378
    21.9047  21.9919  22.1498  22.3263  22.3672  22.4362  22.4832  22.7135
    22.7704

          k = 0.2500 0.0000 0.0000 ( 26392 PWs)   bands (ev):

   -84.5367 -84.5038 -84.4965 -84.3823 -84.3417 -84.2663 -84.2588 -84.0977
   -53.3134 -53.2733 -53.2231 -53.1974 -53.1724 -53.1676 -53.1665 -53.1637
   -53.1347 -53.1170 -53.0775 -53.0679 -53.0300 -53.0173 -52.9840 -52.9777
   -52.9480 -52.9302 -52.9074 -52.8770 -52.8637 -52.8541 -52.7699 -52.7691
   -21.7924 -21.3047 -21.1756 -20.9239 -20.5290 -20.3693 -20.3257 -20.1475
   -19.9831 -19.9685 -19.9164 -19.8669 -19.7931 -19.7348 -19.5346 -19.4974
   -19.4070 -19.3120 -19.0643 -10.8757 -10.6758 -10.5587 -10.3595 -10.0353
    -9.9398  -9.8506  -9.7662  -9.6082  -9.5376  -9.4372  -9.3609  -9.2120
    -9.1792  -9.0114  -8.9539  -8.8183  -8.6863  -8.6237  -8.5738  -8.4378
    -8.4213  -8.3201  -8.2730  -8.1897  -8.1498  -8.0396  -7.9594  -7.8687
    -7.8531  -7.5983  -7.5810  -7.5411  -7.4311  -7.3315  -7.2947  -7.2820
    -7.2465  -7.1480  -7.0596  -6.9218  -6.5707  -6.3743  -6.2406  -6.0442
    -6.0120  -5.9489  -5.7608  -5.5082  -5.2912  -5.2100  -5.0873  -5.0171
    -4.9838  -4.8340  -4.7699  -4.7286  -4.6003  -4.4999  -4.4221  -4.2197
    -4.0482  -3.9210  -3.7062  -3.4814  -3.4613  -3.2648  -3.1787  -3.1118
    -3.0633  -3.0204  -2.9848  -2.9369  -2.8406  -2.7380  -2.6360  -2.6276
    -2.6174  -2.4727  -2.4246  -2.3058  -1.9312  -1.4150  -1.2172  -1.1466
    -1.0249  -0.8309  -0.6810  -0.6579  -0.4784  -0.2557  -0.1862  -0.0225
     0.0134   0.2613   0.3843   0.6463   3.3606   4.0715   4.2330   4.7029
     5.1584   5.4570   5.8451   6.3379   6.3677   6.6196   6.6371   6.9351
     7.2871   7.3735   7.5291   7.6640   7.9323   8.0063   8.0176   8.0999
     8.2610   8.4596   8.5684   8.5956   8.8022   8.8517   9.0581   9.2042
     9.3373   9.4669   9.5757   9.6536   9.7325   9.7630   9.8045   9.9912
    10.0553  10.1250  10.1828  10.2472  10.3500  10.4573  10.5596  10.6304
    10.6992  10.7568  10.8610  10.9165  11.0039  11.0811  11.1260  11.2054
    11.3567  11.4231  11.4660  11.5550  11.5737  11.6074  11.7698  11.8274
    11.9531  12.1393  12.2451  12.3614  12.4470  12.4849  12.5324  12.5621
    12.6769  12.7378  12.8323  12.9305  13.1261  13.1508  13.1940  13.2538
    13.4033  13.4153  13.5310  13.6033  13.7456  13.7952  13.8777  13.9788
    14.0558  14.0872  14.1364  14.2718  14.3159  14.3325  14.3978  14.5237
    14.5862  14.6588  14.7916  14.8317  14.9642  15.1052  15.1411  15.1571
    15.2142  15.2709  15.4544  15.4988  15.6035  15.6983  15.7375  15.8044
    15.8539  15.8932  16.0245  16.0431  16.0694  16.1050  16.2643  16.4433
    16.4942  16.6207  16.6398  16.7002  16.7332  16.9176  16.9960  17.0730
    17.2365  17.3414  17.3876  17.4719  17.5800  17.6018  17.7760  17.8665
    17.8970  17.9970  18.0093  18.1128  18.1481  18.1770  18.3839  18.4086
    18.4729  18.6828  18.7408  18.9177  18.9349  18.9888  19.0690  19.1049
    19.2538  19.3616  19.3706  19.4883  19.5896  19.7183  19.7422  19.7951
    19.8264  19.9072  19.9677  20.0032  20.0755  20.1974  20.3109  20.3462
    20.4170  20.5125  20.5390  20.6178  20.6783  20.7555  20.7914  20.8155
    20.9141  20.9623  21.0912  21.1900  21.2885  21.3259  21.4028  21.4720
    21.5218  21.5950  21.6887  21.7467  21.8235  21.8748  21.8868  21.9640
    22.0233  22.0715  22.1062  22.1385  22.2135  22.2471  22.2825  22.3331
    22.3587

          k = 0.2500 0.2303 0.0000 ( 26396 PWs)   bands (ev):

   -84.5367 -84.5037 -84.4965 -84.3824 -84.3418 -84.2663 -84.2588 -84.0977
   -53.3134 -53.2734 -53.2229 -53.1973 -53.1719 -53.1709 -53.1677 -53.1587
   -53.1347 -53.1171 -53.0781 -53.0680 -53.0302 -53.0173 -52.9841 -52.9775
   -52.9481 -52.9301 -52.9075 -52.8770 -52.8637 -52.8539 -52.7700 -52.7693
   -21.7361 -21.2977 -21.0755 -20.8863 -20.5138 -20.3642 -20.3162 -20.2005
   -20.1425 -20.0664 -19.9701 -19.8732 -19.8182 -19.7019 -19.5175 -19.4916
   -19.3969 -19.3141 -19.0587 -10.6917 -10.5150 -10.4523 -10.4200 -10.1265
   -10.0689  -9.8415  -9.7364  -9.5265  -9.4264  -9.3067  -9.2671  -9.1378
    -9.0724  -8.9644  -8.7849  -8.7730  -8.6355  -8.5884  -8.5364  -8.4051
    -8.3738  -8.2655  -8.2352  -8.1810  -8.1288  -8.0553  -8.0338  -7.9496
    -7.8397  -7.7813  -7.7079  -7.6358  -7.5852  -7.5208  -7.4816  -7.4083
    -7.3569  -7.2532  -7.1234  -6.9005  -6.4957  -6.2955  -6.1868  -5.9618
    -5.9419  -5.8522  -5.6881  -5.5035  -5.4546  -5.3495  -5.2939  -5.2020
    -4.9087  -4.8205  -4.6801  -4.6028  -4.5311  -4.4360  -4.3639  -4.1687
    -4.0848  -3.9054  -3.7094  -3.5534  -3.4612  -3.4094  -3.2891  -3.2206
    -3.1820  -3.0776  -2.9644  -2.9491  -2.8070  -2.7737  -2.6895  -2.6286
    -2.5662  -2.5169  -2.3582  -2.3331  -2.0608  -1.8831  -1.7494  -1.1359
    -1.0521  -0.9745  -0.6644  -0.4835  -0.2536  -0.1993   0.0767   0.1947
     0.2958   0.4962   0.5510   0.6473   3.6176   4.3163   4.4790   4.9198
     5.3267   5.5810   5.6525   6.0562   6.3006   6.5375   6.5835   6.7258
     6.8521   6.9937   7.1134   7.4001   7.5159   7.7041   7.8677   8.0082
     8.3059   8.4084   8.5359   8.6250   8.7964   8.8593   8.9622   9.1096
     9.1431   9.2531   9.4031   9.5254   9.6010   9.7976   9.9178  10.0397
    10.1512  10.1949  10.3010  10.3920  10.5436  10.5813  10.6688  10.8598
    10.8893  11.0637  11.1349  11.1931  11.2929  11.3973  11.4219  11.4554
    11.6187  11.6857  11.7410  11.7949  11.9307  12.0212  12.1848  12.2650
    12.3153  12.4155  12.5151  12.5691  12.5839  12.7126  12.7748  12.9104
    12.9343  12.9664  13.0320  13.1166  13.1483  13.2595  13.2854  13.3814
    13.4193  13.5101  13.5631  13.6540  13.7317  13.7975  13.8290  13.9148
    14.0033  14.0273  14.1033  14.1131  14.2112  14.2757  14.3711  14.4150
    14.5268  14.6397  14.6994  14.7457  14.8138  14.8591  14.9484  15.0448
    15.2038  15.2803  15.3679  15.4223  15.5056  15.6018  15.7401  15.7987
    15.8895  15.9706  16.0578  16.1597  16.2343  16.2827  16.3521  16.4061
[...]
    16.5910  16.6028  16.7344  16.7892  16.8294  16.9272  16.9361  17.0207
    17.0547  17.1171  17.1342  17.2509  17.2807  17.3175  17.3929  17.4781
    17.7413  17.8776  18.0590  18.0711  18.1742  18.2190  18.2441  18.3236
    18.3548  18.4498  18.4749  18.5346  18.6734  18.6940  18.7398  18.8184
    18.9823  19.1110  19.3377  19.3736  19.4267  19.5029  19.5842  19.7497
    20.1571  20.2623  20.2708  20.4145  20.4438  20.4859  20.6410  20.7351
    20.7453  20.7762  20.8184  20.8330  20.8807  20.9888  21.2952  21.4767
    21.5171  21.7177  21.8123  21.8648  21.9155  21.9380  22.0100  22.0712
    22.1348  22.2923  22.3103  22.3916  22.5315  22.6646  22.6831  22.7420
    22.7988

          k =-0.2500 0.2303 0.0000 ( 26396 PWs)   bands (ev):

   -80.4461 -80.4382 -80.3421 -80.3050 -80.2969 -80.2673 -80.2567 -79.4928
   -49.3371 -49.2818 -49.2764 -49.2463 -49.2453 -49.2414 -49.1918 -49.1774
   -49.1638 -49.1629 -49.1535 -49.1439 -49.1406 -49.1031 -49.0910 -49.0846
   -49.0438 -48.9977 -48.9796 -48.8924 -48.8837 -48.5983 -48.4975 -47.8849
   -21.8349 -21.5107 -21.3382 -21.0267 -20.8230 -20.6903 -20.4726 -20.4206
   -20.3570 -20.2983 -20.1555 -20.1333 -19.9936 -19.9524 -19.9261 -19.8106
   -19.7993 -19.6524 -19.6269  -9.1641  -8.9000  -8.5782  -8.4542  -8.3935
    -8.1454  -8.0321  -7.9060  -7.6099  -7.4679  -7.4078  -7.2757  -7.2542
    -7.1440  -7.0631  -7.0490  -6.9095  -6.7770  -6.7567  -6.6204  -6.5176
    -6.4901  -6.4059  -6.3436  -6.2359  -6.1983  -5.9985  -5.9480  -5.9280
    -5.8361  -5.7606  -5.6147  -5.5806  -5.4998  -5.3435  -5.3242  -5.1642
    -5.0910  -4.9783  -4.8891  -4.8060  -4.7252  -4.6348  -4.5730  -4.4811
    -4.4527  -4.3279  -4.1972  -4.1445  -4.0625  -3.9284  -3.7832  -3.7556
    -3.6515  -3.3427  -3.3132  -3.0020   0.8587   0.8939   0.9027   0.9443
     0.9709   0.9928   1.0292   1.1040   1.1845   1.1948   1.2699   1.3231
     1.3724   1.4511   1.4839   1.5239   1.6157   1.6470   1.6717   1.7383
     1.8088   1.8386   1.9259   1.9375   1.9950   2.0405   2.1182   2.1795
     2.2177   2.2894   2.3745   2.4341   2.5010   2.5896   2.6687   2.7189
     2.7832   2.9822   3.1050   3.1699   3.7167   4.3722   4.6033   5.0562
     5.4941   5.6926   5.7660   6.2587   6.3808   6.5858   6.6368   6.6939
     6.8507   6.9997   7.1119   7.4000   7.5523   7.7425   7.9042   8.0575
     8.3891   8.4715   8.5165   8.6192   8.6500   8.7169   8.8899   9.0900
     9.2063   9.3449   9.4558   9.5350   9.6283   9.9039   9.9761  10.0959
    10.1632  10.2240  10.3394  10.4885  10.6111  10.6850  10.7677  10.8841
    10.9889  11.0726  11.1866  11.2717  11.3464  11.4028  11.5828  11.6389
    11.6759  11.7756  11.7997  11.9410  11.9958  12.1350  12.2270  12.3147
    12.4301  12.5231  12.5848  12.6142  12.7088  12.8293  12.9528  12.9746
    13.0615  13.1067  13.1503  13.2247  13.2929  13.3261  13.4427  13.5353
    13.5919  13.6219  13.6790  13.7511  13.7964  13.8345  13.9039  14.0532
    14.1502  14.2060  14.2397  14.2881  14.3273  14.4153  14.5379  14.5673
    14.6955  14.7726  14.8148  14.9427  15.0202  15.0874  15.1474  15.2165
    15.2961  15.4306  15.4707  15.6712  15.7120  15.8514  15.9347  15.9895
    16.1082  16.1733  16.3019  16.3263  16.3994  16.5146  16.5519  16.5992
    16.6464  16.7339  16.7954  16.8978  17.0191  17.0904  17.1483  17.2119
    17.2631  17.3699  17.4438  17.5132  17.5783  17.6287  17.7250  17.7824
    17.8523  17.9398  17.9533  18.0996  18.1658  18.2256  18.3336  18.3877
    18.4366  18.5627  18.6184  18.7140  18.7769  18.8212  18.8712  18.9838
    19.0973  19.1267  19.1403  19.2475  19.2851  19.3458  19.4062  19.5038
    19.6721  19.7393  19.7913  19.9271  19.9444  20.0232  20.0771  20.1359
    20.1949  20.2582  20.3055  20.3423  20.4103  20.4417  20.5825  20.6452
    20.8070  20.9222  20.9740  21.0160  21.1140  21.1715  21.1981  21.2404
    21.3539  21.4271  21.5190  21.5561  21.6174  21.7175  21.7776  21.8269
    21.9310  22.0444  22.1239  22.2167  22.2850  22.3678  22.4169  22.4777
    22.5505

     the spin up/dw Fermi energies are    -2.5088   -0.3897 ev

!    total energy              =   -2318.81036255 Ry
     Harris-Foulkes estimate   =   -2318.81036255 Ry
     estimated scf accuracy    <          9.4E-09 Ry

     The total energy is the sum of the following terms:

     one-electron contribution =  -26126.08293159 Ry
     hartree contribution      =   13080.32628117 Ry
     xc contribution           =    -348.78198646 Ry
     ewald contribution        =   11073.97136549 Ry
     Hubbard energy            =       1.75672541 Ry
     smearing contrib. (-TS)   =       0.00018343 Ry

     total magnetization       =    22.00 Bohr mag/cell
     absolute magnetization    =    35.30 Bohr mag/cell

     convergence has been achieved in  20 iterations

     Forces acting on atoms (Ry/au):


     negative rho (up, down):  0.183E-02 0.143E-02
     atom    1 type  1   force =    -0.00562190   -0.01391388    0.00012327
     atom    2 type  1   force =     0.00043064    0.00828010   -0.00024435
     atom    3 type  2   force =     0.00073744    0.00170771   -0.00046420
     atom    4 type  2   force =     0.00714688    0.01179539   -0.00075963
     atom    5 type  1   force =     0.00211970    0.01168876    0.00028906
     atom    6 type  1   force =    -0.00091457   -0.01809748    0.00034361
     atom    7 type  1   force =     0.00005357    0.00170944   -0.00118019
     atom    8 type  1   force =    -0.00146095   -0.00300527   -0.00041281
     atom    9 type  2   force =     0.00736103    0.00062185    0.00033934
     atom   10 type  2   force =    -0.00010539   -0.00109203   -0.00010440
     atom   11 type  1   force =    -0.00510811   -0.02193623    0.00019086
     atom   12 type  1   force =    -0.00487520    0.02254706    0.00026051
     atom   13 type  1   force =    -0.00042643   -0.00044485    0.00030227
     atom   14 type  1   force =    -0.00524822   -0.01337040    0.00029074
     atom   15 type  1   force =     0.00044795    0.00758792    0.00011872
     atom   16 type  2   force =    -0.00230205    0.00168039   -0.00045490
     atom   17 type  2   force =     0.00701412    0.01187721   -0.00049070
     atom   18 type  1   force =     0.00119808    0.01169640    0.00030890
     atom   19 type  1   force =    -0.00286153   -0.01806732    0.00030964
     atom   20 type  1   force =     0.00002828    0.00236080   -0.00059830
     atom   21 type  1   force =    -0.00146637   -0.00268948   -0.00037529
     atom   22 type  2   force =    -0.00588303    0.00076083    0.00034864
     atom   23 type  2   force =     0.00000788   -0.00147920   -0.00002813
     atom   24 type  1   force =     0.00513951   -0.02190723    0.00019068
     atom   25 type  1   force =     0.00504818    0.02262029    0.00026117
     atom   26 type  1   force =    -0.00043512   -0.00061023    0.00008649
     atom   27 type  3   force =    -0.00002738   -0.00003721   -0.00013421
     atom   28 type  3   force =    -0.00001947   -0.00019567   -0.00010281
     atom   29 type  3   force =     0.00006912   -0.00008313    0.00057962
     atom   30 type  3   force =    -0.00003524   -0.00008344    0.00048896
     atom   31 type  1   force =    -0.00001140    0.00007891    0.00051743

     Total force =     0.002316     Total SCF correction =     0.000308
     SCF correction compared to forces is large: reduce conv_thr to get better values

     number of scf cycles    =  28
     number of bfgs steps    =  27

     energy   old            =   -2318.8103497108 Ry
     energy   new            =   -2318.8103625477 Ry

     CASE: energy  _new < energy  _old

     new trust radius        =       0.0042870641 bohr
     new conv_thr            =       0.0000000100 Ry


ATOMIC_POSITIONS (crystal)
O0       0.000000000   0.000000000   0.374275739    0   0   1
O0       0.000000000   0.500000000   0.395144262    0   0   1
Mn1      0.250000000   0.500000000   0.447756538    0   0   1
Mn1      0.000000000   0.000000000   0.447533693    0   0   1
O0       0.250000000   0.800000000   0.446264949    0   0   1
O0       0.250000000   0.200000000   0.449655961    0   0   1
O0       0.000000000   0.500000000   0.494936632    0   0   1
O0       0.000000000   0.000000000   0.525704718    0   0   1
Mn1      0.250000000   0.000000000   0.574934112    0   0   1
Mn1      0.000000000   0.500000000   0.572971908    0   0   1
O0       0.250000000   0.700000000   0.581870859    0   0   1
O0       0.250000000   0.300000000   0.582241998    0   0   1
O0       0.000000000   0.000000000   0.623019022    0   0   1
O0       0.500000000   0.000000000   0.374103121    0   0   1
O0       0.500000000   0.500000000   0.394967988    0   0   1
Mn1      0.750000000   0.500000000   0.447749672    0   0   1
Mn1      0.500000000   0.000000000   0.447254453    0   0   1
O0       0.750000000   0.800000000   0.446266005    0   0   1
O0       0.750000000   0.200000000   0.449676792    0   0   1
O0       0.500000000   0.500000000   0.497269875    0   0   1
O0       0.500000000   0.000000000   0.525836609    0   0   1
Mn1      0.750000000   0.000000000   0.574933285    0   0   1
Mn1      0.500000000   0.500000000   0.573290966    0   0   1
O0       0.750000000   0.700000000   0.581885015    0   0   1
O0       0.750000000   0.300000000   0.582239580    0   0   1
O0       0.500000000   0.000000000   0.623587756    0   0   1
H2       0.000520546   0.648142253   0.379599080
H2       0.500558049   0.647243162   0.379149563
H2       0.161318443   0.042585494   0.363545832
H2       0.661213261   0.043186032   0.363425206
O0       0.499853072   0.500817197   0.646068812


     Check: negative starting charge=(component1):   -0.001054
     NEW-OLD atomic charge density approx. for the potential

     Check: negative/imaginary core charge=   -0.000023    0.000000
     Check: negative starting charge=(component1):   -0.001054

     negative rho (up, down):  0.196E-02 0.157E-02
 Atomic wfc used for LDA+U Projector are NOT orthogonalized

     total cpu time spent up to now is   172287.3 secs

     per-process dynamical memory:   467.3 Mb

     Self-consistent Calculation

     iteration #  1     ecut=    40.00 Ry     beta=0.70
     Davidson diagonalization with overlap
     ethr =  1.00E-06,  avg # of iterations =  3.0
 --- enter write_ns ---
 LDA+U parameters:
U( 2)     =  5.50000000
alpha( 2) =  0.00000000
atom    3   Tr[ns(na)] (up, down, total) =   4.40496  0.96980  5.37477
   spin  1
    eigenvalues: 
  0.687  0.714  0.999  1.001  1.004
    eigenvectors:
  0.212  0.034  0.001  0.697  0.056
  0.189  0.809  0.001  0.001  0.000
  0.000  0.000  0.002  0.070  0.928
  0.599  0.156  0.000  0.229  0.015
  0.000  0.001  0.996  0.002  0.001
    occupations:
  0.925  0.015 -0.002 -0.133  0.001
  0.015  0.710  0.000  0.004 -0.008
 -0.002  0.000  1.004 -0.003  0.000
 -0.133  0.004 -0.003  0.768  0.001
  0.001 -0.008  0.000  0.001  0.999
   spin  2
    eigenvalues: 
  0.078  0.099  0.114  0.328  0.350
    eigenvectors:
  0.777  0.000  0.003  0.013  0.207
  0.000  0.002  0.000  0.953  0.045
  0.003  0.022  0.974  0.000  0.000
  0.219  0.000  0.001  0.032  0.748
  0.000  0.976  0.022  0.002  0.000
    occupations:
  0.138 -0.002 -0.002  0.112 -0.000
 -0.002  0.328  0.000  0.006  0.009
 -0.002  0.000  0.114  0.000  0.002
  0.112  0.006  0.000  0.290  0.000
 -0.000  0.009  0.002  0.000  0.100
atomic mag. moment =     3.435158
atom    4   Tr[ns(na)] (up, down, total) =   4.41070  0.95621  5.36690
   spin  1
    eigenvalues: 
  0.674  0.733  0.996  1.004  1.004
    eigenvectors:
  0.000  0.998  0.001  0.002  0.000
  0.000  0.001  0.000  0.794  0.205
  0.000  0.000  0.000  0.204  0.795
  0.000  0.001  0.999  0.000  0.000
  1.000  0.000  0.000  0.000  0.000
    occupations:
  0.733 -0.009 -0.006  0.006 -0.001
 -0.009  1.004 -0.000  0.000  0.002
 -0.006 -0.000  1.004  0.000 -0.000
  0.006  0.000  0.000  0.996  0.000
 -0.001  0.002 -0.000  0.000  0.674
   spin  2
    eigenvalues: 
  0.080  0.098  0.107  0.319  0.352
    eigenvectors:
  0.005  0.002  0.000  0.993  0.000
  0.002  0.685  0.310  0.002  0.001
  0.003  0.307  0.689  0.001  0.000
  0.990  0.006  0.000  0.004  0.000
  0.000  0.000  0.000  0.000  0.999
    occupations:
  0.318  0.009  0.006 -0.015  0.000
  0.009  0.102 -0.004  0.000 -0.007
  0.006 -0.004  0.105  0.001  0.000
 -0.015  0.000  0.001  0.081 -0.000
  0.000 -0.007  0.000 -0.000  0.351
atomic mag. moment =     3.454490
atom    9   Tr[ns(na)] (up, down, total) =   4.39082  1.01242  5.40324
   spin  1
    eigenvalues: 
  0.698  0.718  0.984  0.992  0.999
    eigenvectors:
  0.225  0.000  0.000  0.000  0.775
  0.000  1.000  0.000  0.000  0.000
  0.000  0.000  0.054  0.946  0.000
  0.775  0.000  0.000  0.000  0.225
  0.000  0.000  0.946  0.054  0.000
    occupations:
  0.932  0.002 -0.000 -0.126  0.000
  0.002  0.718 -0.000 -0.001  0.000
 -0.000 -0.000  0.991 -0.000 -0.002
 -0.126 -0.001 -0.000  0.766  0.000
  0.000  0.000 -0.002  0.000  0.984
   spin  2
    eigenvalues: 
  0.092  0.106  0.108  0.346  0.361
    eigenvectors:
  0.808  0.000  0.000  0.187  0.004
  0.000  0.000  0.000  0.027  0.973
  0.000  0.022  0.978  0.000  0.000
  0.192  0.000  0.000  0.786  0.023
  0.000  0.978  0.022  0.000  0.000
    occupations:
  0.141 -0.000  0.000  0.100  0.000
 -0.000  0.360 -0.000  0.003 -0.000
  0.000 -0.000  0.108  0.000 -0.000
  0.100  0.003  0.000  0.298 -0.000
  0.000 -0.000 -0.000 -0.000  0.106
atomic mag. moment =     3.378392
atom   10   Tr[ns(na)] (up, down, total) =   4.62720  0.66926  5.29646
   spin  1
    eigenvalues: 
  0.671  0.968  0.994  0.996  0.998
    eigenvectors:
  0.000  0.974  0.000  0.026  0.000
  0.000  0.000  1.000  0.000  0.000
  0.000  0.000  0.000  0.000  0.999
  0.000  0.026  0.000  0.973  0.000
  1.000  0.000  0.000  0.000  0.000
    occupations:
  0.969  0.000  0.000  0.005  0.000
  0.000  0.994  0.000  0.000 -0.001
  0.000  0.000  0.998  0.000 -0.000
  0.005  0.000  0.000  0.996 -0.000
  0.000 -0.001 -0.000 -0.000  0.671
   spin  2
    eigenvalues: 
  0.069  0.070  0.080  0.141  0.309
    eigenvectors:
  0.033  0.000  0.000  0.967  0.000
  0.000  0.000  1.000  0.000  0.000
  0.007  0.993  0.000  0.000  0.000
  0.960  0.007  0.000  0.033  0.000
  0.000  0.000  0.000  0.000  1.000
    occupations:
  0.139  0.000 -0.000 -0.013 -0.000
  0.000  0.080  0.000 -0.000  0.001
 -0.000  0.000  0.070 -0.000  0.000
 -0.013 -0.000 -0.000  0.071 -0.000
 -0.000  0.001  0.000 -0.000  0.309
atomic mag. moment =     3.957935
atom   16   Tr[ns(na)] (up, down, total) =   4.40474  0.96994  5.37469
   spin  1
    eigenvalues: 
  0.687  0.714  0.999  1.001  1.004
    eigenvectors:
  0.214  0.033  0.000  0.704  0.050
  0.180  0.818  0.001  0.001  0.000
  0.000  0.000  0.000  0.063  0.937
  0.606  0.149  0.000  0.232  0.013
  0.000  0.001  0.999  0.000  0.000
    occupations:
  0.924 -0.015 -0.002 -0.133 -0.000
 -0.015  0.710 -0.001 -0.004 -0.008
 -0.002 -0.001  1.004 -0.003 -0.000
 -0.133 -0.004 -0.003  0.768 -0.000
 -0.000 -0.008 -0.000 -0.000  0.999
   spin  2
    eigenvalues: 
  0.078  0.099  0.114  0.328  0.350
    eigenvectors:
  0.777  0.000  0.003  0.014  0.207
  0.000  0.002  0.000  0.950  0.048
  0.004  0.025  0.972  0.000  0.000
  0.219  0.000  0.001  0.034  0.745
  0.000  0.974  0.025  0.002  0.000
    occupations:
  0.138  0.002 -0.002  0.112  0.000
  0.002  0.328  0.000 -0.006  0.009
 -0.002  0.000  0.114  0.000 -0.002
  0.112 -0.006  0.000  0.290 -0.001
  0.000  0.009 -0.002 -0.001  0.100
atomic mag. moment =     3.434799
atom   17   Tr[ns(na)] (up, down, total) =   4.41209  0.95459  5.36669
   spin  1
    eigenvalues: 
  0.674  0.732  0.996  1.004  1.005
    eigenvectors:
  0.000  0.998  0.001  0.001  0.000
  0.000  0.001  0.000  0.961  0.038
  0.000  0.000  0.000  0.038  0.962
  0.000  0.001  0.999  0.000  0.000
  1.000  0.000  0.000  0.000  0.000
    occupations:
  0.733 -0.009 -0.006  0.006 -0.001
 -0.009  1.004 -0.000  0.000  0.002
 -0.006 -0.000  1.005  0.000 -0.000
  0.006  0.000  0.000  0.996 -0.000
 -0.001  0.002 -0.000 -0.000  0.675
   spin  2
    eigenvalues: 
  0.080  0.098  0.107  0.318  0.352
    eigenvectors:
  0.005  0.002  0.000  0.993  0.000
  0.003  0.672  0.323  0.002  0.001
  0.003  0.320  0.676  0.001  0.000
  0.989  0.006  0.000  0.004  0.000
  0.000  0.000  0.000  0.000  0.999
    occupations:
  0.316  0.010  0.006 -0.015  0.000
  0.010  0.102 -0.004  0.000 -0.007
  0.006 -0.004  0.104  0.001  0.000
 -0.015  0.000  0.001  0.081 -0.000
  0.000 -0.007  0.000 -0.000  0.352
atomic mag. moment =     3.457502
atom   22   Tr[ns(na)] (up, down, total) =   4.39085  1.01234  5.40319
   spin  1
    eigenvalues: 
  0.698  0.718  0.984  0.992  0.999
    eigenvectors:
  0.224  0.000  0.000  0.000  0.775
  0.001  0.999  0.000  0.000  0.000
  0.000  0.000  0.053  0.947  0.000
  0.775  0.001  0.000  0.000  0.225
  0.000  0.000  0.947  0.053  0.000
    occupations:
  0.932 -0.001 -0.000 -0.126 -0.000
 -0.001  0.718  0.000  0.001  0.000
 -0.000  0.000  0.991 -0.000  0.002
 -0.126  0.001 -0.000  0.766 -0.000
 -0.000  0.000  0.002 -0.000  0.984
   spin  2
    eigenvalues: 
  0.092  0.106  0.108  0.346  0.361
    eigenvectors:
  0.808  0.000  0.000  0.187  0.005
  0.000  0.000  0.000  0.028  0.972
  0.000  0.018  0.982  0.000  0.000
  0.192  0.000  0.000  0.785  0.023
  0.000  0.982  0.018  0.000  0.000
    occupations:
  0.140  0.000  0.000  0.100 -0.000
  0.000  0.360 -0.000 -0.003 -0.000
  0.000 -0.000  0.108  0.000  0.000
  0.100 -0.003  0.000  0.298  0.000
 -0.000 -0.000  0.000  0.000  0.106
atomic mag. moment =     3.378515
atom   23   Tr[ns(na)] (up, down, total) =   4.45810  0.90396  5.36206
   spin  1
    eigenvalues: 
  0.704  0.756  0.997  1.000  1.001
    eigenvectors:
  0.000  0.999  0.000  0.001  0.000
  0.000  0.000  0.000  0.000  1.000
  0.000  0.000  1.000  0.000  0.000
  0.000  0.001  0.000  0.999  0.000
  1.000  0.000  0.000  0.000  0.000
    occupations:
  0.757 -0.000  0.001  0.007  0.000
 -0.000  1.001 -0.000  0.000 -0.001
  0.001 -0.000  0.997 -0.000  0.000
  0.007  0.000 -0.000  0.999  0.000
  0.000 -0.001  0.000  0.000  0.704
   spin  2
    eigenvalues: 
  0.076  0.093  0.098  0.302  0.334
    eigenvectors:
  0.005  0.000  0.000  0.995  0.000
  0.000  0.000  1.000  0.000  0.000
  0.000  1.000  0.000  0.000  0.000
  0.995  0.000  0.000  0.005  0.000
  0.000  0.000  0.000  0.000  1.000
    occupations:
  0.301  0.000 -0.001 -0.015  0.000
  0.000  0.098 -0.000  0.000  0.001
 -0.001 -0.000  0.093 -0.000 -0.000
 -0.015  0.000 -0.000  0.078 -0.000
  0.000  0.001 -0.000 -0.000  0.334
atomic mag. moment =     3.554137
N of occupied +U levels =  42.9479984
 --- exit write_ns ---

     Threshold (ethr) on eigenvalues was too large:
     Diagonalizing with lowered threshold

     Davidson diagonalization with overlap
     ethr =  1.45E-08,  avg # of iterations =  1.9

     negative rho (up, down):  0.474E-02 0.451E-02

     total cpu time spent up to now is   172783.6 secs

     total energy              =   -2318.81022657 Ry
     Harris-Foulkes estimate   =   -2318.81017976 Ry
     estimated scf accuracy    <       0.00003488 Ry

     total magnetization       =    22.00 Bohr mag/cell
     absolute magnetization    =    35.30 Bohr mag/cell

     iteration #  2     ecut=    40.00 Ry     beta=0.70
     Davidson diagonalization with overlap
=>> PBS: job killed: walltime 172816 exceeded limit 172800
mpirun: killing job...

---------------------------------------
Running PBS batch system epilogue script
Job id: 351122.audhumbla.fysik.dtu.dk
Username: zhonxu
Groupname: campgst
Jobname: MnO2/Eads-2-layers/O-U-5.5
Sessionid: 9113
Resources limits: neednodes=2:ppn=8:xeon8,nodes=2:ppn=8:xeon8,walltime=48:00:00
Resources used: cput=767:21:02,mem=17403508kb,vmem=21513232kb,walltime=48:00:17
Queuename: verylong
Accounting:
This job has allocated the following 16 nodes:
c022 c022 c022 c022 c022 c022 c022 c022 c020 c020 c020 c020 c020 c020 c020 c020
Finished epilogue job 351122.audhumbla.fysik.dtu.dk for zhonxu
