
     Program PWSCF v.5.0.2 (svn rev. 9656) starts on 26May2014 at  4:33: 7 

     This program is part of the open-source Quantum ESPRESSO suite
     for quantum simulation of materials; please cite
         "P. Giannozzi et al., J. Phys.:Condens. Matter 21 395502 (2009);
          URL http://www.quantum-espresso.org", 
     in publications or presentations arising from this work. More details at
     http://www.quantum-espresso.org/quote.php

     Parallel version (MPI), running on    16 processors
     K-points division:     npool     =       4
     R & G space division:  proc/nbgrp/npool/nimage =       4

     Current dimensions of program PWSCF are:
     Max number of different atomic species (ntypx) = 10
     Max number of k-points (npk) =  40000
     Max angular momentum in pseudopotentials (lmaxx) =  3
     Reading input from pwscf.in
Warning: card &CELL ignored
Warning: card / ignored

     Subspace diagonalization in iterative solution of the eigenvalue problem:
     a serial algorithm will be used


     Parallelization info
     --------------------
     sticks:   dense  smooth     PW     G-vecs:    dense   smooth      PW
     Min        1244     397    112               291872    52833    7934
     Max        1245     398    113               291883    52857    7939
     Sum        4979    1589    451              1167509   211387   31747



     bravais-lattice index     =            0
     lattice parameter (alat)  =      10.7336  a.u.
     unit-cell volume          =    6184.1966 (a.u.)^3
     number of atoms/cell      =           31
     number of atomic types    =            3
     number of electrons       =       238.00 (up: 130.00, down: 108.00)
     number of Kohn-Sham states=          345
     kinetic-energy cutoff     =      40.0000  Ry
     charge density cutoff     =     500.0000  Ry
     convergence threshold     =      1.0E-06
     mixing beta               =       0.2000
     number of iterations used =            8  plain     mixing
     Exchange-correlation      = SLA  PW   PBE  PBE ( 1 4 3 4 0)
     EXX-fraction              =        0.00
     nstep                     =           50


     celldm(1)=  10.733644  celldm(2)=   0.000000  celldm(3)=   0.000000
     celldm(4)=   0.000000  celldm(5)=   0.000000  celldm(6)=   0.000000

     crystal axes: (cart. coord. in units of alat)
               a(1) = (   1.000000   0.000000   0.000000 )  
               a(2) = (   0.000000   1.085558   0.000000 )  
               a(3) = (   0.000000   0.000000   4.606685 )  

     reciprocal axes: (cart. coord. in units 2 pi/alat)
               b(1) = (  1.000000  0.000000  0.000000 )  
               b(2) = (  0.000000  0.921185  0.000000 )  
               b(3) = (  0.000000  0.000000  0.217076 )  


     PseudoPot. # 1 for O  read from file:
     /home/camp/zhonxu/pseudo/o_pbe_v1.01.uspp.F.UPF
     MD5 check sum: 2bcb18d16ea4b960afae9ec6d52f22d2
     Pseudo is Ultrasoft + core correction, Zval =  6.0
     Generated by new atomic code, or converted to UPF format
     Using radial grid of  737 points,  5 beta functions with: 
                l(1) =   0
                l(2) =   0
                l(3) =   1
                l(4) =   1
                l(5) =   2
     Q(r) pseudized with  8 coefficients,  rinner =    0.900   0.900   0.900
                                                       0.900   0.900

     PseudoPot. # 2 for Mn read from file:
     /home/camp/zhonxu/pseudo/mn_pbe_v1.uspp.F.UPF
     MD5 check sum: 5fd7c7b5c956fd19902447332617373a
     Pseudo is Ultrasoft + core correction, Zval = 15.0
     Generated by new atomic code, or converted to UPF format
     Using radial grid of  859 points,  6 beta functions with: 
                l(1) =   0
                l(2) =   0
                l(3) =   1
                l(4) =   1
                l(5) =   2
                l(6) =   2
     Q(r) pseudized with  6 coefficients,  rinner =    1.150   1.150   1.150
                                                       1.150   1.150

     PseudoPot. # 3 for H  read from file:
     /home/camp/zhonxu/pseudo/h_pbe_v1.uspp.F.UPF
     MD5 check sum: 3408e3ff4ec8b0a4e358431e7e038a48
     Pseudo is Ultrasoft, Zval =  1.0
     Generated by new atomic code, or converted to UPF format
     Using radial grid of  615 points,  2 beta functions with: 
                l(1) =   0
                l(2) =   0
     Q(r) pseudized with  8 coefficients,  rinner =    0.700

     atomic species   valence    mass     pseudopotential
        O0             6.00    15.99940     O ( 1.00)
        Mn1           15.00    54.93800     Mn( 1.00)
        H2             1.00     1.00794     H ( 1.00)

     Starting magnetic structure 
     atomic species   magnetization
        O0           0.000
        Mn1          0.600
        H2           0.000


     Simplified LDA+U calculation (l_max = 2) with parameters (eV):
     atomic species    L          U    alpha       J0     beta
        Mn1            2     5.5000   0.0000   0.0000   0.0000



     No symmetry found



   Cartesian axes

     site n.     atom                  positions (alat units)
         1           O0  tau(   1) = (   0.0000000   0.0000000   1.7236373  )
         2           O0  tau(   2) = (   0.0000000   0.5427791   1.8210226  )
         3           Mn1 tau(   3) = (   0.2500000   0.5427791   2.0632882  )
         4           Mn1 tau(   4) = (   0.0000000   0.0000000   2.0607084  )
         5           O0  tau(   5) = (   0.2500000   0.8684466   2.0553647  )
         6           O0  tau(   6) = (   0.2500000   0.2171117   2.0707510  )
         7           O0  tau(   7) = (   0.0000000   0.5427791   2.2805855  )
         8           O0  tau(   8) = (   0.0000000   0.0000000   2.4205366  )
         9           Mn1 tau(   9) = (   0.2500000   0.0000000   2.6471855  )
        10           Mn1 tau(  10) = (   0.0000000   0.5427791   2.6400451  )
        11           O0  tau(  11) = (   0.2500000   0.7598908   2.6817817  )
        12           O0  tau(  12) = (   0.2500000   0.3256675   2.6834401  )
        13           O0  tau(  13) = (   0.0000000   0.0000000   2.8684446  )
        14           O0  tau(  14) = (   0.5000000   0.0000000   1.7229463  )
        15           O0  tau(  15) = (   0.5000000   0.5427791   1.8201473  )
        16           Mn1 tau(  16) = (   0.7500000   0.5427791   2.0632421  )
        17           Mn1 tau(  17) = (   0.5000000   0.0000000   2.0594186  )
        18           O0  tau(  18) = (   0.7500000   0.8684466   2.0553647  )
        19           O0  tau(  19) = (   0.7500000   0.2171117   2.0708431  )
        20           O0  tau(  20) = (   0.5000000   0.5427791   2.2912730  )
        21           O0  tau(  21) = (   0.5000000   0.0000000   2.4209512  )
        22           Mn1 tau(  22) = (   0.7500000   0.0000000   2.6471855  )
        23           Mn1 tau(  23) = (   0.5000000   0.5427791   2.6411968  )
        24           O0  tau(  24) = (   0.7500000   0.7598908   2.6818738  )
        25           O0  tau(  25) = (   0.7500000   0.3256675   2.6833480  )
        26           O0  tau(  26) = (   0.5000000   0.0000000   2.8713468  )
        27           H2  tau(  27) = (   0.0005300   0.7037457   1.7496651  )
        28           H2  tau(  28) = (   0.5005200   0.7029207   1.7478684  )
        29           H2  tau(  29) = (   0.1612200   0.0466573   1.6743918  )
        30           H2  tau(  30) = (   0.6612600   0.0471349   1.6742076  )
        31           O0  tau(  31) = (   0.4999000   0.5434848   2.9780376  )

     number of k points=    20  Methfessel-Paxton smearing, width (Ry)=  0.0100
                       cart. coord. in units 2pi/alat
        k(    1) = (   0.0000000   0.0000000   0.0000000), wk =   0.0625000
        k(    2) = (   0.0000000   0.2302962   0.0000000), wk =   0.1250000
        k(    3) = (   0.0000000  -0.4605925   0.0000000), wk =   0.0625000
        k(    4) = (   0.2500000   0.0000000   0.0000000), wk =   0.1250000
        k(    5) = (   0.2500000   0.2302962   0.0000000), wk =   0.1250000
        k(    6) = (   0.2500000  -0.4605925   0.0000000), wk =   0.1250000
        k(    7) = (  -0.5000000   0.0000000   0.0000000), wk =   0.0625000
        k(    8) = (  -0.5000000   0.2302962   0.0000000), wk =   0.1250000
        k(    9) = (  -0.5000000  -0.4605925   0.0000000), wk =   0.0625000
        k(   10) = (  -0.2500000   0.2302962   0.0000000), wk =   0.1250000
        k(   11) = (   0.0000000   0.0000000   0.0000000), wk =   0.0625000
        k(   12) = (   0.0000000   0.2302962   0.0000000), wk =   0.1250000
        k(   13) = (   0.0000000  -0.4605925   0.0000000), wk =   0.0625000
        k(   14) = (   0.2500000   0.0000000   0.0000000), wk =   0.1250000
        k(   15) = (   0.2500000   0.2302962   0.0000000), wk =   0.1250000
        k(   16) = (   0.2500000  -0.4605925   0.0000000), wk =   0.1250000
        k(   17) = (  -0.5000000   0.0000000   0.0000000), wk =   0.0625000
        k(   18) = (  -0.5000000   0.2302962   0.0000000), wk =   0.1250000
        k(   19) = (  -0.5000000  -0.4605925   0.0000000), wk =   0.0625000
        k(   20) = (  -0.2500000   0.2302962   0.0000000), wk =   0.1250000

     Dense  grid:  1167509 G-vectors     FFT dimensions: (  80,  90, 360)

     Smooth grid:   211387 G-vectors     FFT dimensions: (  45,  48, 200)

     Largest allocated arrays     est. size (Mb)     dimensions
        Kohn-Sham Wavefunctions        34.96 Mb     (   6641,  345)
        Atomic wavefunctions           18.65 Mb     (   6641,  184)
        NL pseudopotentials            40.43 Mb     (   6641,  399)
        Each V/rho on FFT grid         19.78 Mb     ( 648000,   2)
        Each G-vector array             2.23 Mb     ( 291883)
        G-vector shells                 0.97 Mb     ( 127585)
     Largest temporary arrays     est. size (Mb)     dimensions
        Auxiliary wavefunctions       139.84 Mb     (   6641, 1380)
        Each subspace H/S matrix       29.06 Mb     (1380,1380)
        Each <psi_i|beta_j> matrix      2.10 Mb     (    399,  345)
        Arrays for rho mixing          79.10 Mb     ( 648000,   8)

     Check: negative/imaginary core charge=   -0.000023    0.000000

     Initial potential from superposition of free atoms
     Check: negative starting charge=(component1):   -0.000742
     Check: negative starting charge=(component2):   -0.000363

     starting charge  229.99987, renormalised to  238.00000

     negative rho (up, down):  0.768E-03 0.376E-03
     Number of +U iterations with fixed ns =  0
     Starting occupations:
 --- enter write_ns ---
 LDA+U parameters:
U( 2)     =  5.50000000
alpha( 2) =  0.00000000
atom    3   Tr[ns(na)] (up, down, total) =   5.00000  0.00000  5.00000
   spin  1
    eigenvalues: 
  1.000  1.000  1.000  1.000  1.000
    eigenvectors:
  1.000  0.000  0.000  0.000  0.000
  0.000  1.000  0.000  0.000  0.000
  0.000  0.000  1.000  0.000  0.000
  0.000  0.000  0.000  1.000  0.000
  0.000  0.000  0.000  0.000  1.000
    occupations:
  1.000  0.000  0.000  0.000  0.000
  0.000  1.000  0.000  0.000  0.000
  0.000  0.000  1.000  0.000  0.000
  0.000  0.000  0.000  1.000  0.000
  0.000  0.000  0.000  0.000  1.000
   spin  2
    eigenvalues: 
  0.000  0.000  0.000  0.000  0.000
    eigenvectors:
  1.000  0.000  0.000  0.000  0.000
  0.000  1.000  0.000  0.000  0.000
  0.000  0.000  1.000  0.000  0.000
  0.000  0.000  0.000  1.000  0.000
  0.000  0.000  0.000  0.000  1.000
    occupations:
  0.000  0.000  0.000  0.000  0.000
  0.000  0.000  0.000  0.000  0.000
  0.000  0.000  0.000  0.000  0.000
  0.000  0.000  0.000  0.000  0.000
  0.000  0.000  0.000  0.000  0.000
atomic mag. moment =     5.000000
atom    4   Tr[ns(na)] (up, down, total) =   5.00000  0.00000  5.00000
   spin  1
    eigenvalues: 
  1.000  1.000  1.000  1.000  1.000
    eigenvectors:
  1.000  0.000  0.000  0.000  0.000
  0.000  1.000  0.000  0.000  0.000
  0.000  0.000  1.000  0.000  0.000
  0.000  0.000  0.000  1.000  0.000
  0.000  0.000  0.000  0.000  1.000
    occupations:
  1.000  0.000  0.000  0.000  0.000
  0.000  1.000  0.000  0.000  0.000
  0.000  0.000  1.000  0.000  0.000
  0.000  0.000  0.000  1.000  0.000
  0.000  0.000  0.000  0.000  1.000
   spin  2
    eigenvalues: 
  0.000  0.000  0.000  0.000  0.000
    eigenvectors:
  1.000  0.000  0.000  0.000  0.000
  0.000  1.000  0.000  0.000  0.000
  0.000  0.000  1.000  0.000  0.000
  0.000  0.000  0.000  1.000  0.000
  0.000  0.000  0.000  0.000  1.000
    occupations:
  0.000  0.000  0.000  0.000  0.000
  0.000  0.000  0.000  0.000  0.000
  0.000  0.000  0.000  0.000  0.000
  0.000  0.000  0.000  0.000  0.000
  0.000  0.000  0.000  0.000  0.000
atomic mag. moment =     5.000000
atom    9   Tr[ns(na)] (up, down, total) =   5.00000  0.00000  5.00000
   spin  1
    eigenvalues: 
  1.000  1.000  1.000  1.000  1.000
    eigenvectors:
  1.000  0.000  0.000  0.000  0.000
  0.000  1.000  0.000  0.000  0.000
  0.000  0.000  1.000  0.000  0.000
  0.000  0.000  0.000  1.000  0.000
  0.000  0.000  0.000  0.000  1.000
    occupations:
  1.000  0.000  0.000  0.000  0.000
  0.000  1.000  0.000  0.000  0.000
  0.000  0.000  1.000  0.000  0.000
  0.000  0.000  0.000  1.000  0.000
  0.000  0.000  0.000  0.000  1.000
   spin  2
    eigenvalues: 
  0.000  0.000  0.000  0.000  0.000
    eigenvectors:
  1.000  0.000  0.000  0.000  0.000
  0.000  1.000  0.000  0.000  0.000
  0.000  0.000  1.000  0.000  0.000
  0.000  0.000  0.000  1.000  0.000
  0.000  0.000  0.000  0.000  1.000
    occupations:
  0.000  0.000  0.000  0.000  0.000
  0.000  0.000  0.000  0.000  0.000
  0.000  0.000  0.000  0.000  0.000
  0.000  0.000  0.000  0.000  0.000
  0.000  0.000  0.000  0.000  0.000
atomic mag. moment =     5.000000
atom   10   Tr[ns(na)] (up, down, total) =   5.00000  0.00000  5.00000
   spin  1
    eigenvalues: 
  1.000  1.000  1.000  1.000  1.000
    eigenvectors:
  1.000  0.000  0.000  0.000  0.000
  0.000  1.000  0.000  0.000  0.000
  0.000  0.000  1.000  0.000  0.000
  0.000  0.000  0.000  1.000  0.000
  0.000  0.000  0.000  0.000  1.000
    occupations:
  1.000  0.000  0.000  0.000  0.000
  0.000  1.000  0.000  0.000  0.000
  0.000  0.000  1.000  0.000  0.000
  0.000  0.000  0.000  1.000  0.000
  0.000  0.000  0.000  0.000  1.000
   spin  2
    eigenvalues: 
  0.000  0.000  0.000  0.000  0.000
    eigenvectors:
  1.000  0.000  0.000  0.000  0.000
  0.000  1.000  0.000  0.000  0.000
  0.000  0.000  1.000  0.000  0.000
  0.000  0.000  0.000  1.000  0.000
  0.000  0.000  0.000  0.000  1.000
    occupations:
  0.000  0.000  0.000  0.000  0.000
  0.000  0.000  0.000  0.000  0.000
  0.000  0.000  0.000  0.000  0.000
  0.000  0.000  0.000  0.000  0.000
  0.000  0.000  0.000  0.000  0.000
atomic mag. moment =     5.000000
atom   16   Tr[ns(na)] (up, down, total) =   5.00000  0.00000  5.00000
   spin  1
    eigenvalues: 
  1.000  1.000  1.000  1.000  1.000
    eigenvectors:
  1.000  0.000  0.000  0.000  0.000
  0.000  1.000  0.000  0.000  0.000
  0.000  0.000  1.000  0.000  0.000
  0.000  0.000  0.000  1.000  0.000
  0.000  0.000  0.000  0.000  1.000
    occupations:
  1.000  0.000  0.000  0.000  0.000
  0.000  1.000  0.000  0.000  0.000
  0.000  0.000  1.000  0.000  0.000
  0.000  0.000  0.000  1.000  0.000
  0.000  0.000  0.000  0.000  1.000
   spin  2
    eigenvalues: 
  0.000  0.000  0.000  0.000  0.000
    eigenvectors:
  1.000  0.000  0.000  0.000  0.000
  0.000  1.000  0.000  0.000  0.000
  0.000  0.000  1.000  0.000  0.000
  0.000  0.000  0.000  1.000  0.000
  0.000  0.000  0.000  0.000  1.000
    occupations:
  0.000  0.000  0.000  0.000  0.000
  0.000  0.000  0.000  0.000  0.000
  0.000  0.000  0.000  0.000  0.000
  0.000  0.000  0.000  0.000  0.000
  0.000  0.000  0.000  0.000  0.000
atomic mag. moment =     5.000000
atom   17   Tr[ns(na)] (up, down, total) =   5.00000  0.00000  5.00000
   spin  1
    eigenvalues: 
  1.000  1.000  1.000  1.000  1.000
    eigenvectors:
  1.000  0.000  0.000  0.000  0.000
  0.000  1.000  0.000  0.000  0.000
  0.000  0.000  1.000  0.000  0.000
  0.000  0.000  0.000  1.000  0.000
  0.000  0.000  0.000  0.000  1.000
    occupations:
  1.000  0.000  0.000  0.000  0.000
  0.000  1.000  0.000  0.000  0.000
  0.000  0.000  1.000  0.000  0.000
  0.000  0.000  0.000  1.000  0.000
  0.000  0.000  0.000  0.000  1.000
   spin  2
    eigenvalues: 
  0.000  0.000  0.000  0.000  0.000
    eigenvectors:
  1.000  0.000  0.000  0.000  0.000
  0.000  1.000  0.000  0.000  0.000
  0.000  0.000  1.000  0.000  0.000
  0.000  0.000  0.000  1.000  0.000
  0.000  0.000  0.000  0.000  1.000
    occupations:
  0.000  0.000  0.000  0.000  0.000
  0.000  0.000  0.000  0.000  0.000
  0.000  0.000  0.000  0.000  0.000
  0.000  0.000  0.000  0.000  0.000
  0.000  0.000  0.000  0.000  0.000
atomic mag. moment =     5.000000
atom   22   Tr[ns(na)] (up, down, total) =   5.00000  0.00000  5.00000
   spin  1
    eigenvalues: 
  1.000  1.000  1.000  1.000  1.000
    eigenvectors:
  1.000  0.000  0.000  0.000  0.000
  0.000  1.000  0.000  0.000  0.000
  0.000  0.000  1.000  0.000  0.000
  0.000  0.000  0.000  1.000  0.000
  0.000  0.000  0.000  0.000  1.000
    occupations:
  1.000  0.000  0.000  0.000  0.000
  0.000  1.000  0.000  0.000  0.000
  0.000  0.000  1.000  0.000  0.000
  0.000  0.000  0.000  1.000  0.000
  0.000  0.000  0.000  0.000  1.000
   spin  2
    eigenvalues: 
  0.000  0.000  0.000  0.000  0.000
    eigenvectors:
  1.000  0.000  0.000  0.000  0.000
  0.000  1.000  0.000  0.000  0.000
  0.000  0.000  1.000  0.000  0.000
  0.000  0.000  0.000  1.000  0.000
  0.000  0.000  0.000  0.000  1.000
    occupations:
  0.000  0.000  0.000  0.000  0.000
  0.000  0.000  0.000  0.000  0.000
  0.000  0.000  0.000  0.000  0.000
  0.000  0.000  0.000  0.000  0.000
  0.000  0.000  0.000  0.000  0.000
atomic mag. moment =     5.000000
atom   23   Tr[ns(na)] (up, down, total) =   5.00000  0.00000  5.00000
   spin  1
    eigenvalues: 
  1.000  1.000  1.000  1.000  1.000
    eigenvectors:
  1.000  0.000  0.000  0.000  0.000
  0.000  1.000  0.000  0.000  0.000
  0.000  0.000  1.000  0.000  0.000
  0.000  0.000  0.000  1.000  0.000
  0.000  0.000  0.000  0.000  1.000
    occupations:
  1.000  0.000  0.000  0.000  0.000
  0.000  1.000  0.000  0.000  0.000
  0.000  0.000  1.000  0.000  0.000
  0.000  0.000  0.000  1.000  0.000
  0.000  0.000  0.000  0.000  1.000
   spin  2
    eigenvalues: 
  0.000  0.000  0.000  0.000  0.000
    eigenvectors:
  1.000  0.000  0.000  0.000  0.000
  0.000  1.000  0.000  0.000  0.000
  0.000  0.000  1.000  0.000  0.000
  0.000  0.000  0.000  1.000  0.000
  0.000  0.000  0.000  0.000  1.000
    occupations:
  0.000  0.000  0.000  0.000  0.000
  0.000  0.000  0.000  0.000  0.000
  0.000  0.000  0.000  0.000  0.000
  0.000  0.000  0.000  0.000  0.000
  0.000  0.000  0.000  0.000  0.000
atomic mag. moment =     5.000000
N of occupied +U levels =  40.0000000
 --- exit write_ns ---
 Atomic wfc used for LDA+U Projector are NOT orthogonalized
     Starting wfc are  184 randomized atomic wfcs

     total cpu time spent up to now is      119.4 secs

     per-process dynamical memory:   417.7 Mb

     Self-consistent Calculation

     iteration #  1     ecut=    40.00 Ry     beta=0.20
     Davidson diagonalization with overlap
     ethr =  1.00E-02,  avg # of iterations =  5.5
 --- enter write_ns ---
 LDA+U parameters:
U( 2)     =  5.50000000
alpha( 2) =  0.00000000
atom    3   Tr[ns(na)] (up, down, total) =   4.49370  0.46739  4.96108
   spin  1
    eigenvalues: 
  0.736  0.783  0.988  0.990  0.997
    eigenvectors:
  0.240  0.003  0.003  0.754  0.000
  0.006  0.989  0.004  0.000  0.000
  0.000  0.000  0.000  0.000  0.999
  0.753  0.004  0.001  0.242  0.000
  0.000  0.004  0.991  0.004  0.000
    occupations:
  0.928  0.001 -0.003 -0.108  0.000
  0.001  0.784  0.000 -0.005 -0.014
 -0.003  0.000  0.997 -0.005 -0.000
 -0.108 -0.005 -0.005  0.798 -0.000
  0.000 -0.014 -0.000 -0.000  0.987
   spin  2
    eigenvalues: 
  0.046  0.049  0.051  0.151  0.170
    eigenvectors:
  0.644  0.068  0.083  0.003  0.202
  0.000  0.000  0.000  0.988  0.011
  0.193  0.235  0.572  0.000  0.000
  0.159  0.020  0.026  0.008  0.787
  0.004  0.677  0.318  0.001  0.000
    occupations:
  0.072 -0.000 -0.003  0.050 -0.000
 -0.000  0.151 -0.000  0.002  0.003
 -0.003 -0.000  0.049 -0.001  0.001
  0.050  0.002 -0.001  0.145  0.000
 -0.000  0.003  0.001  0.000  0.050
atomic mag. moment =     4.026311
atom    4   Tr[ns(na)] (up, down, total) =   4.42713  0.47251  4.89964
   spin  1
    eigenvalues: 
  0.666  0.808  0.980  0.984  0.989
    eigenvectors:
  0.000  0.990  0.008  0.000  0.002
  0.000  0.003  0.802  0.002  0.192
  0.000  0.000  0.000  0.995  0.005
  0.000  0.006  0.190  0.003  0.801
  1.000  0.000  0.000  0.000  0.000
    occupations:
  0.810  0.010  0.003  0.014 -0.000
  0.010  0.981 -0.000 -0.004  0.003
  0.003 -0.000  0.984 -0.001  0.000
  0.014 -0.004 -0.001  0.986 -0.000
 -0.000  0.003  0.000 -0.000  0.666
   spin  2
    eigenvalues: 
  0.047  0.049  0.054  0.158  0.164
    eigenvectors:
  0.011  0.001  0.000  0.988  0.000
  0.201  0.464  0.333  0.001  0.001
  0.124  0.210  0.666  0.001  0.000
  0.663  0.325  0.001  0.010  0.000
  0.000  0.001  0.000  0.000  0.999
    occupations:
  0.157  0.004  0.003 -0.011  0.000
  0.004  0.051 -0.002  0.000 -0.004
  0.003 -0.002  0.052  0.000  0.000
 -0.011  0.000  0.000  0.049  0.000
  0.000 -0.004  0.000  0.000  0.164
atomic mag. moment =     3.954624
atom    9   Tr[ns(na)] (up, down, total) =   4.55717  0.51711  5.07428
   spin  1
    eigenvalues: 
  0.778  0.785  0.995  0.997  1.003
    eigenvectors:
  0.000  0.173  0.827  0.000  0.000
  1.000  0.000  0.000  0.000  0.000
  0.000  0.000  0.000  0.014  0.986
  0.000  0.827  0.173  0.000  0.000
  0.000  0.000  0.000  0.986  0.014
    occupations:
  0.958  0.001 -0.000 -0.079  0.000
  0.001  0.778  0.000 -0.000  0.000
 -0.000  0.000  1.003 -0.001  0.001
 -0.079 -0.000 -0.001  0.821  0.000
  0.000  0.000  0.001  0.000  0.997
   spin  2
    eigenvalues: 
  0.056  0.056  0.060  0.171  0.173
    eigenvectors:
  0.010  0.819  0.000  0.008  0.164
  0.000  0.000  0.000  0.957  0.043
  0.974  0.012  0.015  0.000  0.000
  0.002  0.169  0.000  0.035  0.794
  0.014  0.000  0.985  0.000  0.000
    occupations:
  0.077 -0.000  0.000  0.044  0.000
 -0.000  0.171 -0.000  0.001 -0.000
  0.000 -0.000  0.056  0.000 -0.000
  0.044  0.001  0.000  0.153  0.000
  0.000 -0.000 -0.000  0.000  0.060
atomic mag. moment =     4.040064
atom   10   Tr[ns(na)] (up, down, total) =   4.91059  0.37990  5.29049
   spin  1
    eigenvalues: 
  0.913  0.993  1.000  1.001  1.004
    eigenvectors:
  0.000  0.494  0.506  0.000  0.000
  0.000  0.000  0.000  1.000  0.000
  0.000  0.000  0.000  0.000  1.000
  0.000  0.506  0.494  0.000  0.000
  1.000  0.000  0.000  0.000  0.000
    occupations:
  0.996 -0.000 -0.000  0.004  0.000
 -0.000  1.001  0.000  0.000 -0.000
 -0.000  0.000  1.004 -0.000 -0.000
  0.004  0.000 -0.000  0.996 -0.000
  0.000 -0.000 -0.000 -0.000  0.913
   spin  2
    eigenvalues: 
  0.038  0.045  0.047  0.087  0.162
    eigenvectors:
  0.000  0.000  0.057  0.943  0.000
  0.000  1.000  0.000  0.000  0.000
  1.000  0.000  0.000  0.000  0.000
  0.000  0.000  0.943  0.057  0.000
  0.000  0.000  0.000  0.000  1.000
    occupations:
  0.085  0.000 -0.000 -0.009 -0.000
  0.000  0.045 -0.000  0.000  0.000
 -0.000 -0.000  0.038 -0.000  0.000
 -0.009  0.000 -0.000  0.049  0.000
 -0.000  0.000  0.000  0.000  0.162
atomic mag. moment =     4.530687
atom   16   Tr[ns(na)] (up, down, total) =   4.49351  0.46736  4.96087
   spin  1
    eigenvalues: 
  0.736  0.783  0.988  0.989  0.997
    eigenvectors:
  0.240  0.003  0.002  0.755  0.000
  0.007  0.989  0.004  0.000  0.000
  0.000  0.000  0.006  0.000  0.994
  0.753  0.004  0.001  0.242  0.000
  0.000  0.004  0.987  0.003  0.006
    occupations:
  0.928 -0.001 -0.003 -0.108 -0.000
 -0.001  0.784 -0.000  0.005 -0.014
 -0.003 -0.000  0.997 -0.005 -0.001
 -0.108  0.005 -0.005  0.798 -0.000
 -0.000 -0.014 -0.001 -0.000  0.987
   spin  2
    eigenvalues: 
  0.046  0.049  0.051  0.151  0.170
    eigenvectors:
  0.642  0.073  0.080  0.003  0.202
  0.000  0.000  0.000  0.988  0.012
  0.195  0.250  0.555  0.000  0.000
  0.159  0.021  0.025  0.008  0.787
  0.004  0.656  0.339  0.001  0.000
    occupations:
  0.072  0.000 -0.003  0.050  0.000
  0.000  0.151  0.000 -0.002  0.003
 -0.003  0.000  0.049 -0.001 -0.001
  0.050 -0.002 -0.001  0.145 -0.000
  0.000  0.003 -0.001 -0.000  0.050
atomic mag. moment =     4.026153
atom   17   Tr[ns(na)] (up, down, total) =   4.42706  0.47220  4.89925
   spin  1
    eigenvalues: 
  0.667  0.808  0.980  0.983  0.989
    eigenvectors:
  0.000  0.990  0.008  0.000  0.002
  0.000  0.004  0.800  0.005  0.192
  0.000  0.000  0.002  0.993  0.004
  0.000  0.006  0.190  0.002  0.802
  1.000  0.000  0.000  0.000  0.000
    occupations:
  0.810  0.010  0.003  0.014 -0.000
  0.010  0.981 -0.000 -0.005  0.004
  0.003 -0.000  0.983 -0.001  0.000
  0.014 -0.005 -0.001  0.986 -0.000
 -0.000  0.004  0.000 -0.000  0.667
   spin  2
    eigenvalues: 
  0.047  0.049  0.054  0.158  0.164
    eigenvectors:
  0.012  0.001  0.000  0.988  0.000
  0.195  0.474  0.329  0.001  0.001
  0.117  0.213  0.669  0.001  0.000
  0.677  0.312  0.001  0.010  0.000
  0.000  0.001  0.000  0.000  0.999
    occupations:
  0.157  0.004  0.003 -0.011  0.000
  0.004  0.051 -0.002  0.000 -0.004
  0.003 -0.002  0.052  0.000  0.000
 -0.011  0.000  0.000  0.049  0.000
  0.000 -0.004  0.000  0.000  0.164
atomic mag. moment =     3.954864
atom   22   Tr[ns(na)] (up, down, total) =   4.55692  0.51710  5.07403
   spin  1
    eigenvalues: 
  0.777  0.786  0.995  0.997  1.003
    eigenvectors:
  0.017  0.156  0.827  0.000  0.000
  0.898  0.102  0.000  0.000  0.000
  0.000  0.000  0.000  0.014  0.986
  0.085  0.742  0.173  0.000  0.000
  0.000  0.000  0.000  0.986  0.014
    occupations:
  0.958  0.000 -0.000 -0.079 -0.000
  0.000  0.778  0.000  0.003  0.000
 -0.000  0.000  1.003 -0.000 -0.001
 -0.079  0.003 -0.000  0.821 -0.000
 -0.000  0.000 -0.001 -0.000  0.997
   spin  2
    eigenvalues: 
  0.056  0.056  0.060  0.171  0.173
    eigenvectors:
  0.008  0.820  0.000  0.008  0.164
  0.000  0.000  0.000  0.957  0.043
  0.976  0.010  0.014  0.000  0.000
  0.002  0.170  0.000  0.035  0.793
  0.014  0.000  0.986  0.000  0.000
    occupations:
  0.077  0.000  0.000  0.044 -0.000
  0.000  0.171 -0.000 -0.001 -0.000
  0.000 -0.000  0.056  0.000  0.000
  0.044 -0.001  0.000  0.153 -0.000
 -0.000 -0.000  0.000 -0.000  0.060
atomic mag. moment =     4.039820
atom   23   Tr[ns(na)] (up, down, total) =   4.69954  0.48832  5.18786
   spin  1
    eigenvalues: 
  0.846  0.873  0.992  0.993  0.996
    eigenvectors:
  0.999  0.000  0.000  0.000  0.001
  0.000  0.000  1.000  0.000  0.000
  0.000  0.000  0.000  1.000  0.000
  0.001  0.000  0.000  0.000  0.999
  0.000  1.000  0.000  0.000  0.000
    occupations:
  0.847 -0.000  0.001  0.005 -0.000
 -0.000  0.992  0.000  0.000 -0.001
  0.001  0.000  0.993 -0.000 -0.000
  0.005  0.000 -0.000  0.996 -0.000
 -0.000 -0.001 -0.000 -0.000  0.873
   spin  2
    eigenvalues: 
  0.046  0.055  0.060  0.159  0.169
    eigenvectors:
  0.009  0.000  0.000  0.000  0.991
  0.000  0.000  1.000  0.000  0.000
  0.000  1.000  0.000  0.000  0.000
  0.991  0.000  0.000  0.000  0.009
  0.000  0.000  0.000  1.000  0.000
    occupations:
  0.168  0.000 -0.000 -0.012  0.000
  0.000  0.060 -0.000  0.000  0.000
 -0.000 -0.000  0.055  0.000  0.000
 -0.012  0.000  0.000  0.047 -0.000
  0.000  0.000  0.000 -0.000  0.159
atomic mag. moment =     4.211215
N of occupied +U levels =  40.3474926
 --- exit write_ns ---

     negative rho (up, down):  0.686E-03 0.467E-03

     total cpu time spent up to now is      581.8 secs

     total energy              =   -2312.44348361 Ry
     Harris-Foulkes estimate   =   -2316.55551577 Ry
     estimated scf accuracy    <      21.78517375 Ry

     total magnetization       =    22.00 Bohr mag/cell
     absolute magnetization    =    43.89 Bohr mag/cell

     iteration #  2     ecut=    40.00 Ry     beta=0.20
     Davidson diagonalization with overlap
     ethr =  9.15E-03,  avg # of iterations =  3.0

     negative rho (up, down):  0.286E-02 0.144E-02

     total cpu time spent up to now is      833.0 secs

     total energy              =   -2310.49126799 Ry
     Harris-Foulkes estimate   =   -2320.41934120 Ry
     estimated scf accuracy    <     102.84844977 Ry

     total magnetization       =    22.00 Bohr mag/cell
     absolute magnetization    =    43.30 Bohr mag/cell

     iteration #  3     ecut=    40.00 Ry     beta=0.20
     Davidson diagonalization with overlap
     ethr =  9.15E-03,  avg # of iterations =  2.8

     negative rho (up, down):  0.395E-02 0.219E-02

     total cpu time spent up to now is     1073.0 secs

     total energy              =   -2316.44419521 Ry
     Harris-Foulkes estimate   =   -2317.80838256 Ry
     estimated scf accuracy    <      20.56449734 Ry

     total magnetization       =    22.00 Bohr mag/cell
     absolute magnetization    =    40.20 Bohr mag/cell

     iteration #  4     ecut=    40.00 Ry     beta=0.20
     Davidson diagonalization with overlap
     ethr =  8.64E-03,  avg # of iterations =  1.0

     negative rho (up, down):  0.229E-02 0.136E-02

     total cpu time spent up to now is     1295.6 secs

     total energy              =   -2317.55231159 Ry
     Harris-Foulkes estimate   =   -2317.07012599 Ry
     estimated scf accuracy    <       3.50553061 Ry

     total magnetization       =    22.00 Bohr mag/cell
     absolute magnetization    =    40.79 Bohr mag/cell

     iteration #  5     ecut=    40.00 Ry     beta=0.20
     Davidson diagonalization with overlap
     ethr =  1.47E-03,  avg # of iterations =  2.2

     negative rho (up, down):  0.276E-02 0.930E-03

     total cpu time spent up to now is     1533.0 secs

     total energy              =   -2318.21579216 Ry
     Harris-Foulkes estimate   =   -2317.89438725 Ry
     estimated scf accuracy    <       5.61245988 Ry

     total magnetization       =    22.00 Bohr mag/cell
     absolute magnetization    =    41.58 Bohr mag/cell

     iteration #  6     ecut=    40.00 Ry     beta=0.20
     Davidson diagonalization with overlap
     ethr =  1.47E-03,  avg # of iterations =  2.0

     negative rho (up, down):  0.238E-02 0.932E-03

     total cpu time spent up to now is     1772.0 secs

     total energy              =   -2318.44596071 Ry
     Harris-Foulkes estimate   =   -2318.46850295 Ry
     estimated scf accuracy    <       1.34379032 Ry

     total magnetization       =    22.00 Bohr mag/cell
     absolute magnetization    =    40.91 Bohr mag/cell

     iteration #  7     ecut=    40.00 Ry     beta=0.20
     Davidson diagonalization with overlap
     ethr =  5.65E-04,  avg # of iterations =  1.6

     negative rho (up, down):  0.640E-02 0.294E-02

     total cpu time spent up to now is     2008.4 secs

     total energy              =   -2318.71421722 Ry
     Harris-Foulkes estimate   =   -2318.52884192 Ry
     estimated scf accuracy    <       0.58961189 Ry

     total magnetization       =    22.00 Bohr mag/cell
     absolute magnetization    =    39.38 Bohr mag/cell

     iteration #  8     ecut=    40.00 Ry     beta=0.20
     Davidson diagonalization with overlap
     ethr =  2.48E-04,  avg # of iterations =  3.3

     negative rho (up, down):  0.609E-02 0.304E-02

     total cpu time spent up to now is     2271.2 secs

     total energy              =   -2318.75697501 Ry
     Harris-Foulkes estimate   =   -2318.78078518 Ry
     estimated scf accuracy    <       0.45442246 Ry

     total magnetization       =    22.00 Bohr mag/cell
     absolute magnetization    =    38.28 Bohr mag/cell

     iteration #  9     ecut=    40.00 Ry     beta=0.20
     Davidson diagonalization with overlap
     ethr =  1.91E-04,  avg # of iterations =  1.6

     negative rho (up, down):  0.548E-02 0.277E-02

     total cpu time spent up to now is     2493.5 secs

     total energy              =   -2318.77679536 Ry
     Harris-Foulkes estimate   =   -2318.78035407 Ry
     estimated scf accuracy    <       0.08295850 Ry

     total magnetization       =    22.00 Bohr mag/cell
     absolute magnetization    =    38.01 Bohr mag/cell

     iteration # 10     ecut=    40.00 Ry     beta=0.20
     Davidson diagonalization with overlap
     ethr =  3.49E-05,  avg # of iterations =  7.3

     negative rho (up, down):  0.464E-02 0.251E-02

     total cpu time spent up to now is     2760.8 secs

     total energy              =   -2318.78401438 Ry
     Harris-Foulkes estimate   =   -2318.78724557 Ry
     estimated scf accuracy    <       0.06024536 Ry

     total magnetization       =    22.00 Bohr mag/cell
     absolute magnetization    =    37.72 Bohr mag/cell

     iteration # 11     ecut=    40.00 Ry     beta=0.20
     Davidson diagonalization with overlap
     ethr =  2.53E-05,  avg # of iterations =  1.9

     negative rho (up, down):  0.401E-02 0.228E-02

     total cpu time spent up to now is     2994.6 secs

     total energy              =   -2318.79211942 Ry
     Harris-Foulkes estimate   =   -2318.78919544 Ry
     estimated scf accuracy    <       0.02332453 Ry

     total magnetization       =    22.00 Bohr mag/cell
     absolute magnetization    =    37.44 Bohr mag/cell

     iteration # 12     ecut=    40.00 Ry     beta=0.20
     Davidson diagonalization with overlap
     ethr =  9.80E-06,  avg # of iterations =  5.2

     negative rho (up, down):  0.341E-02 0.202E-02

     total cpu time spent up to now is     3248.0 secs

     total energy              =   -2318.79654636 Ry
     Harris-Foulkes estimate   =   -2318.79383261 Ry
     estimated scf accuracy    <       0.01434662 Ry

     total magnetization       =    22.00 Bohr mag/cell
     absolute magnetization    =    37.12 Bohr mag/cell

     iteration # 13     ecut=    40.00 Ry     beta=0.20
     Davidson diagonalization with overlap
     ethr =  6.03E-06,  avg # of iterations =  1.0

     negative rho (up, down):  0.313E-02 0.190E-02

     total cpu time spent up to now is     3467.5 secs

     total energy              =   -2318.80115959 Ry
     Harris-Foulkes estimate   =   -2318.79751589 Ry
     estimated scf accuracy    <       0.01278807 Ry

     total magnetization       =    22.00 Bohr mag/cell
     absolute magnetization    =    37.00 Bohr mag/cell

     iteration # 14     ecut=    40.00 Ry     beta=0.20
     Davidson diagonalization with overlap
     ethr =  5.37E-06,  avg # of iterations =  1.7

     negative rho (up, down):  0.330E-02 0.195E-02

     total cpu time spent up to now is     3690.8 secs

     total energy              =   -2318.80534045 Ry
     Harris-Foulkes estimate   =   -2318.80189300 Ry
     estimated scf accuracy    <       0.00500343 Ry

     total magnetization       =    22.00 Bohr mag/cell
     absolute magnetization    =    36.66 Bohr mag/cell

     iteration # 15     ecut=    40.00 Ry     beta=0.20
     Davidson diagonalization with overlap
     ethr =  2.10E-06,  avg # of iterations =  7.7

     negative rho (up, down):  0.363E-02 0.211E-02

     total cpu time spent up to now is     3971.0 secs

     total energy              =   -2318.80773509 Ry
     Harris-Foulkes estimate   =   -2318.80667035 Ry
     estimated scf accuracy    <       0.00332145 Ry

     total magnetization       =    22.00 Bohr mag/cell
     absolute magnetization    =    36.26 Bohr mag/cell

     iteration # 16     ecut=    40.00 Ry     beta=0.20
     Davidson diagonalization with overlap
     ethr =  1.40E-06,  avg # of iterations =  1.0

     negative rho (up, down):  0.340E-02 0.203E-02

     total cpu time spent up to now is     4202.5 secs

     total energy              =   -2318.80932362 Ry
     Harris-Foulkes estimate   =   -2318.80911368 Ry
     estimated scf accuracy    <       0.00090672 Ry

     total magnetization       =    22.00 Bohr mag/cell
     absolute magnetization    =    35.76 Bohr mag/cell

     iteration # 17     ecut=    40.00 Ry     beta=0.20
     Davidson diagonalization with overlap
     ethr =  3.81E-07,  avg # of iterations =  1.0

     negative rho (up, down):  0.303E-02 0.188E-02

     total cpu time spent up to now is     4433.1 secs

     total energy              =   -2318.80967854 Ry
     Harris-Foulkes estimate   =   -2318.80955623 Ry
     estimated scf accuracy    <       0.00032044 Ry

     total magnetization       =    22.00 Bohr mag/cell
     absolute magnetization    =    35.58 Bohr mag/cell

     iteration # 18     ecut=    40.00 Ry     beta=0.20
     Davidson diagonalization with overlap
     ethr =  1.35E-07,  avg # of iterations =  1.0

     negative rho (up, down):  0.272E-02 0.173E-02

     total cpu time spent up to now is     4677.1 secs

     total energy              =   -2318.80981732 Ry
     Harris-Foulkes estimate   =   -2318.80972267 Ry
     estimated scf accuracy    <       0.00031163 Ry

     total magnetization       =    22.00 Bohr mag/cell
     absolute magnetization    =    35.50 Bohr mag/cell

     iteration # 19     ecut=    40.00 Ry     beta=0.20
     Davidson diagonalization with overlap
     ethr =  1.31E-07,  avg # of iterations =  1.0

     negative rho (up, down):  0.245E-02 0.164E-02

     total cpu time spent up to now is     4907.0 secs

     total energy              =   -2318.80988345 Ry
     Harris-Foulkes estimate   =   -2318.80984150 Ry
     estimated scf accuracy    <       0.00015738 Ry

     total magnetization       =    22.00 Bohr mag/cell
     absolute magnetization    =    35.45 Bohr mag/cell

     iteration # 20     ecut=    40.00 Ry     beta=0.20
     Davidson diagonalization with overlap
     ethr =  6.61E-08,  avg # of iterations =  1.0

     negative rho (up, down):  0.228E-02 0.158E-02

     total cpu time spent up to now is     5123.2 secs

     total energy              =   -2318.80993229 Ry
     Harris-Foulkes estimate   =   -2318.80989416 Ry
     estimated scf accuracy    <       0.00012876 Ry

     total magnetization       =    22.00 Bohr mag/cell
     absolute magnetization    =    35.42 Bohr mag/cell

     iteration # 21     ecut=    40.00 Ry     beta=0.20
     Davidson diagonalization with overlap
     ethr =  5.41E-08,  avg # of iterations =  1.4

     negative rho (up, down):  0.212E-02 0.152E-02

     total cpu time spent up to now is     5340.5 secs

     total energy              =   -2318.80997947 Ry
     Harris-Foulkes estimate   =   -2318.80994455 Ry
     estimated scf accuracy    <       0.00011487 Ry

     total magnetization       =    22.00 Bohr mag/cell
     absolute magnetization    =    35.38 Bohr mag/cell

     iteration # 22     ecut=    40.00 Ry     beta=0.20
     Davidson diagonalization with overlap
     ethr =  4.83E-08,  avg # of iterations =  2.0

     negative rho (up, down):  0.203E-02 0.149E-02

     total cpu time spent up to now is     5574.3 secs

     total energy              =   -2318.81000822 Ry
     Harris-Foulkes estimate   =   -2318.80998656 Ry
     estimated scf accuracy    <       0.00009369 Ry

     total magnetization       =    22.00 Bohr mag/cell
     absolute magnetization    =    35.37 Bohr mag/cell

     iteration # 23     ecut=    40.00 Ry     beta=0.20
     Davidson diagonalization with overlap
     ethr =  3.94E-08,  avg # of iterations =  1.5

     negative rho (up, down):  0.193E-02 0.147E-02

     total cpu time spent up to now is     5805.9 secs

     total energy              =   -2318.81001751 Ry
     Harris-Foulkes estimate   =   -2318.81001602 Ry
     estimated scf accuracy    <       0.00007421 Ry

     total magnetization       =    22.00 Bohr mag/cell
     absolute magnetization    =    35.36 Bohr mag/cell

     iteration # 24     ecut=    40.00 Ry     beta=0.20
     Davidson diagonalization with overlap
     ethr =  3.12E-08,  avg # of iterations =  1.0

     negative rho (up, down):  0.190E-02 0.145E-02

     total cpu time spent up to now is     6034.6 secs

     total energy              =   -2318.81004507 Ry
     Harris-Foulkes estimate   =   -2318.81002055 Ry
     estimated scf accuracy    <       0.00007246 Ry

     total magnetization       =    22.00 Bohr mag/cell
     absolute magnetization    =    35.37 Bohr mag/cell

     iteration # 25     ecut=    40.00 Ry     beta=0.20
     Davidson diagonalization with overlap
     ethr =  3.04E-08,  avg # of iterations =  2.0

     negative rho (up, down):  0.186E-02 0.145E-02

     total cpu time spent up to now is     6266.9 secs

     total energy              =   -2318.81007412 Ry
     Harris-Foulkes estimate   =   -2318.81005394 Ry
     estimated scf accuracy    <       0.00006343 Ry

     total magnetization       =    22.00 Bohr mag/cell
     absolute magnetization    =    35.35 Bohr mag/cell

     iteration # 26     ecut=    40.00 Ry     beta=0.20
     Davidson diagonalization with overlap
     ethr =  2.67E-08,  avg # of iterations =  2.0

     negative rho (up, down):  0.184E-02 0.144E-02

     total cpu time spent up to now is     6493.4 secs

     total energy              =   -2318.81010168 Ry
     Harris-Foulkes estimate   =   -2318.81007933 Ry
     estimated scf accuracy    <       0.00005497 Ry

     total magnetization       =    22.00 Bohr mag/cell
     absolute magnetization    =    35.36 Bohr mag/cell

     iteration # 27     ecut=    40.00 Ry     beta=0.20
     Davidson diagonalization with overlap
     ethr =  2.31E-08,  avg # of iterations =  2.0

     negative rho (up, down):  0.183E-02 0.144E-02

     total cpu time spent up to now is     6723.4 secs

     total energy              =   -2318.81009424 Ry
     Harris-Foulkes estimate   =   -2318.81011046 Ry
     estimated scf accuracy    <       0.00006152 Ry

     total magnetization       =    22.00 Bohr mag/cell
     absolute magnetization    =    35.36 Bohr mag/cell

     iteration # 28     ecut=    40.00 Ry     beta=0.20
     Davidson diagonalization with overlap
     ethr =  2.31E-08,  avg # of iterations =  1.5

     negative rho (up, down):  0.182E-02 0.144E-02

     total cpu time spent up to now is     6948.3 secs

     total energy              =   -2318.81010482 Ry
     Harris-Foulkes estimate   =   -2318.81009606 Ry
     estimated scf accuracy    <       0.00006256 Ry

     total magnetization       =    22.00 Bohr mag/cell
     absolute magnetization    =    35.37 Bohr mag/cell

     iteration # 29     ecut=    40.00 Ry     beta=0.20
     Davidson diagonalization with overlap
     ethr =  2.31E-08,  avg # of iterations =  1.1

     negative rho (up, down):  0.182E-02 0.144E-02

     total cpu time spent up to now is     7165.8 secs

     total energy              =   -2318.81013573 Ry
     Harris-Foulkes estimate   =   -2318.81010569 Ry
     estimated scf accuracy    <       0.00005881 Ry

     total magnetization       =    22.00 Bohr mag/cell
     absolute magnetization    =    35.37 Bohr mag/cell

     iteration # 30     ecut=    40.00 Ry     beta=0.20
     Davidson diagonalization with overlap
     ethr =  2.31E-08,  avg # of iterations =  2.0

     negative rho (up, down):  0.184E-02 0.144E-02

     total cpu time spent up to now is     7397.1 secs

     total energy              =   -2318.81009397 Ry
     Harris-Foulkes estimate   =   -2318.81016970 Ry
     estimated scf accuracy    <       0.00006903 Ry

     total magnetization       =    22.00 Bohr mag/cell
     absolute magnetization    =    35.35 Bohr mag/cell

     iteration # 31     ecut=    40.00 Ry     beta=0.20
     Davidson diagonalization with overlap
     ethr =  2.31E-08,  avg # of iterations =  2.8

     negative rho (up, down):  0.185E-02 0.144E-02

     total cpu time spent up to now is     7635.4 secs

     total energy              =   -2318.81027126 Ry
     Harris-Foulkes estimate   =   -2318.81027818 Ry
     estimated scf accuracy    <       0.00005036 Ry

     total magnetization       =    22.00 Bohr mag/cell
     absolute magnetization    =    35.33 Bohr mag/cell

     iteration # 32     ecut=    40.00 Ry     beta=0.20
     Davidson diagonalization with overlap
     ethr =  2.12E-08,  avg # of iterations =  2.0

     negative rho (up, down):  0.183E-02 0.144E-02

     total cpu time spent up to now is     7865.8 secs

     total energy              =   -2318.81027968 Ry
     Harris-Foulkes estimate   =   -2318.81029062 Ry
     estimated scf accuracy    <       0.00001611 Ry

     total magnetization       =    22.00 Bohr mag/cell
     absolute magnetization    =    35.32 Bohr mag/cell

     iteration # 33     ecut=    40.00 Ry     beta=0.20
     Davidson diagonalization with overlap
     ethr =  6.77E-09,  avg # of iterations =  2.0

     negative rho (up, down):  0.183E-02 0.144E-02

     total cpu time spent up to now is     8097.8 secs

     total energy              =   -2318.81028782 Ry
     Harris-Foulkes estimate   =   -2318.81028721 Ry
     estimated scf accuracy    <       0.00001025 Ry

     total magnetization       =    22.00 Bohr mag/cell
     absolute magnetization    =    35.33 Bohr mag/cell

     iteration # 34     ecut=    40.00 Ry     beta=0.20
     Davidson diagonalization with overlap
     ethr =  4.31E-09,  avg # of iterations =  2.0

     negative rho (up, down):  0.183E-02 0.144E-02

     total cpu time spent up to now is     8328.5 secs

     total energy              =   -2318.81029179 Ry
     Harris-Foulkes estimate   =   -2318.81029124 Ry
     estimated scf accuracy    <       0.00000530 Ry

     total magnetization       =    22.00 Bohr mag/cell
     absolute magnetization    =    35.34 Bohr mag/cell

     iteration # 35     ecut=    40.00 Ry     beta=0.20
     Davidson diagonalization with overlap
     ethr =  2.23E-09,  avg # of iterations =  2.0

     negative rho (up, down):  0.182E-02 0.144E-02

     total cpu time spent up to now is     8552.6 secs

     total energy              =   -2318.81029297 Ry
     Harris-Foulkes estimate   =   -2318.81029266 Ry
     estimated scf accuracy    <       0.00000228 Ry

     total magnetization       =    22.00 Bohr mag/cell
     absolute magnetization    =    35.33 Bohr mag/cell

     iteration # 36     ecut=    40.00 Ry     beta=0.20
     Davidson diagonalization with overlap
     ethr =  9.57E-10,  avg # of iterations =  1.5

     negative rho (up, down):  0.182E-02 0.143E-02

     total cpu time spent up to now is     8775.1 secs

     total energy              =   -2318.81029232 Ry
     Harris-Foulkes estimate   =   -2318.81029309 Ry
     estimated scf accuracy    <       0.00000123 Ry

     total magnetization       =    22.00 Bohr mag/cell
     absolute magnetization    =    35.33 Bohr mag/cell

     iteration # 37     ecut=    40.00 Ry     beta=0.20
     Davidson diagonalization with overlap
     ethr =  5.17E-10,  avg # of iterations =  2.2

     negative rho (up, down):  0.182E-02 0.143E-02

     total cpu time spent up to now is     9007.7 secs

     total energy              =   -2318.81029073 Ry
     Harris-Foulkes estimate   =   -2318.81029386 Ry
     estimated scf accuracy    <       0.00000141 Ry

     total magnetization       =    22.00 Bohr mag/cell
     absolute magnetization    =    35.33 Bohr mag/cell

     iteration # 38     ecut=    40.00 Ry     beta=0.20
     Davidson diagonalization with overlap
     ethr =  5.17E-10,  avg # of iterations =  2.5

     negative rho (up, down):  0.182E-02 0.143E-02

     total cpu time spent up to now is     9243.7 secs

     total energy              =   -2318.81029098 Ry
     Harris-Foulkes estimate   =   -2318.81029318 Ry
     estimated scf accuracy    <       0.00000111 Ry

     total magnetization       =    22.00 Bohr mag/cell
     absolute magnetization    =    35.33 Bohr mag/cell

     iteration # 39     ecut=    40.00 Ry     beta=0.20
     Davidson diagonalization with overlap
     ethr =  4.67E-10,  avg # of iterations =  2.9

     negative rho (up, down):  0.182E-02 0.143E-02

     total cpu time spent up to now is     9481.2 secs

     End of self-consistent calculation
 --- enter write_ns ---
 LDA+U parameters:
U( 2)     =  5.50000000
alpha( 2) =  0.00000000
atom    3   Tr[ns(na)] (up, down, total) =   4.40420  0.97069  5.37489
   spin  1
    eigenvalues: 
  0.687  0.714  0.999  1.001  1.004
    eigenvectors:
  0.213  0.034  0.001  0.696  0.057
  0.186  0.812  0.001  0.001  0.000
  0.000  0.000  0.002  0.071  0.927
  0.601  0.154  0.000  0.229  0.015
  0.000  0.001  0.996  0.003  0.001
    occupations:
  0.925  0.015 -0.002 -0.133  0.001
  0.015  0.710  0.000  0.004 -0.008
 -0.002  0.000  1.004 -0.003  0.000
 -0.133  0.004 -0.003  0.768  0.001
  0.001 -0.008  0.000  0.001  0.999
   spin  2
    eigenvalues: 
  0.079  0.099  0.115  0.328  0.351
    eigenvectors:
  0.777  0.000  0.003  0.014  0.207
  0.000  0.002  0.000  0.951  0.047
  0.003  0.022  0.975  0.000  0.000
  0.219  0.000  0.001  0.034  0.746
  0.000  0.976  0.022  0.002  0.000
    occupations:
  0.138 -0.002 -0.002  0.112 -0.000
 -0.002  0.328  0.000  0.006  0.009
 -0.002  0.000  0.114  0.000  0.002
  0.112  0.006  0.000  0.290  0.000
 -0.000  0.009  0.002  0.000  0.100
atomic mag. moment =     3.433514
atom    4   Tr[ns(na)] (up, down, total) =   4.40920  0.95837  5.36757
   spin  1
    eigenvalues: 
  0.673  0.731  0.996  1.004  1.004
    eigenvectors:
  0.000  0.998  0.001  0.001  0.000
  0.000  0.001  0.000  0.834  0.165
  0.000  0.000  0.000  0.164  0.835
  0.000  0.001  0.999  0.000  0.000
  1.000  0.000  0.000  0.000  0.000
    occupations:
  0.732 -0.009 -0.006  0.006 -0.001
 -0.009  1.004 -0.000  0.000  0.002
 -0.006 -0.000  1.004  0.000 -0.000
  0.006  0.000  0.000  0.996  0.000
 -0.001  0.002 -0.000  0.000  0.673
   spin  2
    eigenvalues: 
  0.080  0.098  0.108  0.320  0.352
    eigenvectors:
  0.005  0.002  0.000  0.993  0.000
  0.002  0.690  0.305  0.002  0.001
  0.003  0.302  0.694  0.001  0.000
  0.990  0.006  0.000  0.004  0.000
  0.000  0.000  0.000  0.000  0.999
    occupations:
  0.319  0.010  0.006 -0.015  0.000
  0.010  0.102 -0.004  0.000 -0.007
  0.006 -0.004  0.105  0.001  0.000
 -0.015  0.000  0.001  0.081 -0.000
  0.000 -0.007  0.000 -0.000  0.352
atomic mag. moment =     3.450828
atom    9   Tr[ns(na)] (up, down, total) =   4.39214  1.01056  5.40269
   spin  1
    eigenvalues: 
  0.699  0.718  0.984  0.992  0.999
    eigenvectors:
  0.224  0.000  0.000  0.000  0.776
  0.000  1.000  0.000  0.000  0.000
  0.000  0.000  0.063  0.937  0.000
  0.776  0.000  0.000  0.000  0.224
  0.000  0.000  0.937  0.063  0.000
    occupations:
  0.932  0.002 -0.000 -0.125  0.000
  0.002  0.718 -0.000 -0.001  0.000
 -0.000 -0.000  0.991 -0.001 -0.002
 -0.125 -0.001 -0.001  0.766  0.000
  0.000  0.000 -0.002  0.000  0.984
   spin  2
    eigenvalues: 
  0.092  0.105  0.108  0.345  0.361
    eigenvectors:
  0.809  0.000  0.000  0.187  0.004
  0.000  0.000  0.000  0.025  0.975
  0.000  0.019  0.981  0.000  0.000
  0.191  0.000  0.000  0.788  0.021
  0.000  0.981  0.019  0.000  0.000
    occupations:
  0.140 -0.000  0.000  0.100  0.000
 -0.000  0.360 -0.000  0.003 -0.000
  0.000 -0.000  0.108  0.000 -0.000
  0.100  0.003  0.000  0.297 -0.000
  0.000 -0.000 -0.000 -0.000  0.105
atomic mag. moment =     3.381577
atom   10   Tr[ns(na)] (up, down, total) =   4.62869  0.66831  5.29699
   spin  1
    eigenvalues: 
  0.672  0.968  0.994  0.996  0.998
    eigenvectors:
  0.000  0.973  0.000  0.026  0.000
  0.000  0.000  1.000  0.000  0.000
  0.000  0.000  0.000  0.000  1.000
  0.000  0.027  0.000  0.973  0.000
  1.000  0.000  0.000  0.000  0.000
    occupations:
  0.968  0.000  0.000  0.005  0.000
  0.000  0.994  0.000  0.000 -0.001
  0.000  0.000  0.998  0.000 -0.000
  0.005  0.000  0.000  0.996 -0.000
  0.000 -0.001 -0.000 -0.000  0.672
   spin  2
    eigenvalues: 
  0.069  0.070  0.080  0.141  0.309
    eigenvectors:
  0.033  0.000  0.000  0.967  0.000
  0.000  0.000  1.000  0.000  0.000
  0.006  0.994  0.000  0.000  0.000
  0.961  0.006  0.000  0.033  0.000
  0.000  0.000  0.000  0.000  1.000
    occupations:
  0.139  0.000 -0.000 -0.013 -0.000
  0.000  0.080  0.000 -0.000  0.001
 -0.000  0.000  0.070 -0.000  0.000
 -0.013 -0.000 -0.000  0.071 -0.000
 -0.000  0.001  0.000 -0.000  0.309
atomic mag. moment =     3.960380
atom   16   Tr[ns(na)] (up, down, total) =   4.40399  0.97080  5.37479
   spin  1
    eigenvalues: 
  0.687  0.714  0.999  1.001  1.004
    eigenvectors:
  0.215  0.032  0.000  0.703  0.050
  0.177  0.821  0.001  0.001  0.000
  0.000  0.000  0.000  0.064  0.936
  0.608  0.147  0.000  0.232  0.013
  0.000  0.001  0.999  0.000  0.000
    occupations:
  0.924 -0.015 -0.002 -0.133 -0.000
 -0.015  0.710 -0.001 -0.003 -0.008
 -0.002 -0.001  1.004 -0.003 -0.000
 -0.133 -0.003 -0.003  0.768 -0.000
 -0.000 -0.008 -0.000 -0.000  0.999
   spin  2
    eigenvalues: 
  0.079  0.099  0.115  0.328  0.351
    eigenvectors:
  0.777  0.000  0.003  0.014  0.206
  0.000  0.002  0.000  0.948  0.050
  0.003  0.025  0.972  0.000  0.000
  0.219  0.000  0.001  0.036  0.744
  0.000  0.974  0.025  0.002  0.000
    occupations:
  0.138  0.002 -0.002  0.112  0.000
  0.002  0.328  0.000 -0.006  0.009
 -0.002  0.000  0.114  0.000 -0.002
  0.112 -0.006  0.000  0.290 -0.001
  0.000  0.009 -0.002 -0.001  0.100
atomic mag. moment =     3.433191
atom   17   Tr[ns(na)] (up, down, total) =   4.41013  0.95745  5.36758
   spin  1
    eigenvalues: 
  0.674  0.731  0.996  1.004  1.005
    eigenvectors:
  0.000  0.998  0.000  0.001  0.000
  0.000  0.001  0.000  0.969  0.030
  0.000  0.000  0.000  0.030  0.969
  0.000  0.000  0.999  0.000  0.000
  1.000  0.000  0.000  0.000  0.000
    occupations:
  0.732 -0.009 -0.006  0.006 -0.001
 -0.009  1.004 -0.000  0.000  0.002
 -0.006 -0.000  1.005  0.000 -0.000
  0.006  0.000  0.000  0.996 -0.000
 -0.001  0.002 -0.000 -0.000  0.674
   spin  2
    eigenvalues: 
  0.080  0.098  0.108  0.319  0.352
    eigenvectors:
  0.005  0.002  0.000  0.993  0.000
  0.003  0.681  0.314  0.002  0.001
  0.003  0.311  0.685  0.001  0.000
  0.990  0.006  0.000  0.004  0.000
  0.000  0.000  0.000  0.000  0.999
    occupations:
  0.318  0.010  0.006 -0.015  0.000
  0.010  0.102 -0.004  0.000 -0.007
  0.006 -0.004  0.105  0.001  0.000
 -0.015  0.000  0.001  0.081 -0.000
  0.000 -0.007  0.000 -0.000  0.352
atomic mag. moment =     3.452689
atom   22   Tr[ns(na)] (up, down, total) =   4.39217  1.01049  5.40266
   spin  1
    eigenvalues: 
  0.699  0.718  0.984  0.992  0.999
    eigenvectors:
  0.223  0.001  0.000  0.000  0.776
  0.001  0.999  0.000  0.000  0.000
  0.000  0.000  0.063  0.937  0.000
  0.775  0.001  0.000  0.000  0.224
  0.000  0.000  0.937  0.063  0.000
    occupations:
  0.932 -0.001 -0.000 -0.125 -0.000
 -0.001  0.718  0.000  0.002  0.000
 -0.000  0.000  0.991 -0.000  0.002
 -0.125  0.002 -0.000  0.766 -0.000
 -0.000  0.000  0.002 -0.000  0.984
   spin  2
    eigenvalues: 
  0.092  0.105  0.108  0.345  0.360
    eigenvectors:
  0.809  0.000  0.000  0.187  0.004
  0.000  0.000  0.000  0.025  0.975
  0.000  0.015  0.985  0.000  0.000
  0.191  0.000  0.000  0.788  0.021
  0.000  0.985  0.015  0.000  0.000
    occupations:
  0.140  0.000  0.000  0.100 -0.000
  0.000  0.360 -0.000 -0.003 -0.000
  0.000 -0.000  0.108  0.000  0.000
  0.100 -0.003  0.000  0.297  0.000
 -0.000 -0.000  0.000  0.000  0.105
atomic mag. moment =     3.381677
atom   23   Tr[ns(na)] (up, down, total) =   4.46208  0.89819  5.36027
   spin  1
    eigenvalues: 
  0.706  0.758  0.997  1.000  1.001
    eigenvectors:
  0.000  0.999  0.000  0.001  0.000
  0.000  0.000  0.000  0.000  1.000
  0.000  0.000  1.000  0.000  0.000
  0.000  0.001  0.000  0.999  0.000
  1.000  0.000  0.000  0.000  0.000
    occupations:
  0.759 -0.000  0.001  0.007 -0.000
 -0.000  1.001 -0.000  0.000 -0.001
  0.001 -0.000  0.997 -0.000  0.000
  0.007  0.000 -0.000  0.999  0.000
 -0.000 -0.001  0.000  0.000  0.706
   spin  2
    eigenvalues: 
  0.076  0.093  0.097  0.299  0.333
    eigenvectors:
  0.005  0.000  0.000  0.995  0.000
  0.000  0.000  1.000  0.000  0.000
  0.000  1.000  0.000  0.000  0.000
  0.995  0.000  0.000  0.005  0.000
  0.000  0.000  0.000  0.000  1.000
    occupations:
  0.298  0.000 -0.001 -0.015  0.000
  0.000  0.097 -0.000  0.000  0.001
 -0.001 -0.000  0.093 -0.000 -0.000
 -0.015  0.000 -0.000  0.077 -0.000
  0.000  0.001 -0.000 -0.000  0.333
atomic mag. moment =     3.563894
N of occupied +U levels =  42.9474440
 --- exit write_ns ---

 ------ SPIN UP ------------


          k = 0.0000 0.0000 0.0000 ( 26393 PWs)   bands (ev):

   -84.6385 -84.6163 -84.6065 -84.4543 -84.4434 -84.4026 -84.3927 -84.1988
   -53.3898 -53.3683 -53.3122 -53.2851 -53.2774 -53.2663 -53.2662 -53.2529
   -53.2397 -53.2199 -53.1443 -53.1379 -53.1305 -53.1239 -53.1221 -53.1137
   -53.0256 -53.0245 -53.0159 -53.0101 -52.9932 -52.9643 -52.9117 -52.8053
   -21.8442 -21.4189 -21.2044 -21.0190 -20.3416 -20.2573 -20.2157 -20.1374
   -20.0640 -19.9215 -19.8949 -19.8814 -19.7662 -19.7366 -19.6821 -19.4223
   -18.9549 -18.8616 -18.2252 -11.1786 -11.1028 -10.6767 -10.4003 -10.1513
   -10.0570  -9.9603  -9.9243  -9.9135  -9.3702  -9.3495  -9.2304  -9.1710
    -9.0571  -8.9522  -8.9372  -8.6669  -8.5991  -8.5028  -8.4482  -8.4261
    -8.3372  -8.2775  -8.2313  -8.1741  -8.1535  -8.0568  -7.9266  -7.8754
    -7.7818  -7.6855  -7.6284  -7.5867  -7.4449  -7.3222  -7.3169  -7.2081
    -7.1643  -7.0665  -6.9317  -6.8816  -6.4797  -6.3776  -6.1099  -6.0594
    -6.0227  -5.8900  -5.8596  -5.6274  -5.5394  -5.4681  -5.4549  -5.3006
    -5.1628  -5.0302  -4.9728  -4.8722  -4.6721  -4.5092  -4.4722  -4.4325
    -4.2852  -3.7523  -3.6971  -3.6611  -3.4158  -3.4125  -3.3998  -3.3529
    -3.3062  -3.2302  -3.0853  -2.9661  -2.9008  -2.8174  -2.7403  -2.6314
    -2.5183  -2.4888  -2.2781  -2.1830  -2.1532  -1.8192  -1.6373  -1.4539
    -1.0628  -1.0393  -0.8874  -0.7938  -0.6087  -0.5418  -0.4727  -0.0900
     0.0142   0.1985   0.2266   0.2474   3.0897   3.8194   3.9470   4.4684
     4.8290   5.6530   5.9873   6.2536   6.6499   6.8507   7.1587   7.3241
     7.3313   7.6829   7.7866   7.8951   7.9937   8.1853   8.2551   8.2957
     8.3596   8.4412   8.4819   8.6120   8.6617   8.6679   8.8174   8.8664
     8.9605   8.9687   9.0826   9.1206   9.2041   9.4081   9.5054   9.6241
     9.7336   9.9079   9.9330   9.9377  10.0725  10.2053  10.2225  10.5314
    10.6305  10.7588  10.8750  10.9414  10.9678  11.2780  11.3255  11.4069
    11.4574  11.6361  11.7459  11.7706  11.7941  12.0021  12.1332  12.2112
    12.2194  12.2434  12.2790  12.3988  12.4356  12.4772  12.5441  12.5541
    12.6319  12.6951  12.7474  12.7923  12.8343  12.8392  12.8987  12.9477
    12.9973  13.0543  13.1036  13.1555  13.2197  13.2981  13.3523  13.5024
    13.6156  13.6769  13.7118  13.8689  13.9376  13.9558  13.9926  14.0384
    14.1156  14.2110  14.3525  14.4485  14.5818  14.6289  14.6699  14.8327
    14.8523  14.9164  15.1168  15.2903  15.2974  15.3127  15.3683  15.3872
    15.4355  15.4517  15.6368  15.8124  15.9814  15.9920  16.1394  16.2230
    16.2546  16.3910  16.4004  16.6484  16.7010  16.7728  16.8921  17.0589
    17.1431  17.2143  17.3190  17.4154  17.5053  17.5793  17.6123  17.9468
    17.9769  18.0455  18.1190  18.2169  18.2557  18.3147  18.3656  18.5515
    18.5621  18.6819  18.9010  18.9108  19.0127  19.1636  19.1804  19.2490
    19.3207  19.3711  19.5120  19.5412  19.5716  19.5825  19.6781  19.8465
    19.9496  19.9991  20.0714  20.0997  20.1706  20.2049  20.3134  20.3512
    20.5380  20.6635  20.7417  20.8696  20.9085  20.9454  21.0706  21.1321
    21.1619  21.2493  21.2914  21.3420  21.4816  21.5611  21.5830  21.7324
    21.8195  21.8986  22.0841  22.1249  22.1826  22.2742  22.3122  22.3370
    22.4331  22.4595  22.5128  22.5812  22.5915  22.6221  22.6555  22.7157
    22.8881

          k = 0.0000 0.2303 0.0000 ( 26455 PWs)   bands (ev):

   -84.6385 -84.6162 -84.6065 -84.4543 -84.4434 -84.4025 -84.3927 -84.1988
   -53.3899 -53.3684 -53.3119 -53.2852 -53.2768 -53.2686 -53.2662 -53.2503
   -53.2396 -53.2200 -53.1452 -53.1379 -53.1307 -53.1236 -53.1223 -53.1135
   -53.0256 -53.0246 -53.0160 -53.0101 -52.9932 -52.9643 -52.9119 -52.8053
   -21.7728 -21.2907 -21.1950 -21.0224 -20.4002 -20.3548 -20.2950 -20.2181
   -20.0757 -20.0078 -19.9724 -19.7593 -19.7324 -19.7007 -19.6863 -19.4297
   -18.9515 -18.8427 -18.2251 -10.9321 -10.8903 -10.6741 -10.6085 -10.3514
   -10.1943  -9.9663  -9.8838  -9.8556  -9.2260  -9.1563  -8.9791  -8.9271
    -8.8888  -8.8067  -8.7877  -8.6758  -8.6060  -8.5282  -8.4824  -8.4700
    -8.4113  -8.3571  -8.2832  -8.2241  -8.1593  -8.0504  -7.9472  -7.8786
    -7.7765  -7.7332  -7.7157  -7.6881  -7.5784  -7.4425  -7.3890  -7.3414
    -7.2592  -7.0345  -6.8770  -6.6924  -6.5011  -6.3562  -6.1314  -6.0396
    -5.9614  -5.8956  -5.8272  -5.7358  -5.6680  -5.5891  -5.5338  -5.4655
    -5.2258  -5.1455  -4.7549  -4.6701  -4.6364  -4.4730  -4.4507  -4.2248
    -4.1099  -3.8710  -3.8055  -3.7766  -3.6056  -3.5277  -3.4097  -3.3469
    -3.3242  -3.2447  -3.2336  -3.0448  -2.9238  -2.8358  -2.8183  -2.7187
    -2.5990  -2.4433  -2.2814  -2.2464  -2.1930  -1.9419  -1.8493  -1.7265
    -1.3957  -1.2971  -0.7546  -0.5695  -0.4944  -0.2172   0.0436   0.1011
     0.1857   0.2004   0.2357   0.3510   3.3759   4.0693   4.2246   4.7038
     5.0844   5.3266   5.8654   6.0565   6.2265   6.3216   6.6874   6.8636
     7.0584   7.3804   7.4593   7.5145   7.8598   8.0587   8.1208   8.4050
     8.5238   8.5880   8.6736   8.7864   8.8166   8.9065   9.0671   9.1472
     9.2312   9.2571   9.3975   9.5809   9.6991   9.7185   9.7840   9.8899
     9.9926  10.0444  10.1085  10.1522  10.3029  10.3427  10.4982  10.5651
    10.6045  10.7144  10.8343  10.8445  10.8834  10.9686  11.0199  11.0718
    11.0974  11.1952  11.4354  11.4707  11.6004  11.7131  11.7550  11.8990
    11.9668  12.0172  12.0744  12.1030  12.3012  12.4416  12.5238  12.6305
    12.6711  12.7228  12.8282  12.8537  12.8765  13.0336  13.0666  13.1240
    13.2106  13.2266  13.3651  13.4818  13.5168  13.6812  13.7037  13.7898
    13.8949  13.9938  14.0234  14.1084  14.1193  14.2910  14.3737  14.4115
    14.5227  14.5817  14.6710  14.7045  14.7299  14.7663  14.8716  14.9221
    15.0576  15.1266  15.1549  15.2534  15.3193  15.3296  15.4204  15.4991
    15.6111  15.6541  15.6924  15.8658  15.9076  15.9407  16.0847  16.1708
    16.2462  16.3500  16.4392  16.4609  16.5105  16.6952  16.7682  16.8539
    16.9419  17.1288  17.2183  17.3000  17.3800  17.4677  17.5217  17.5660
    17.6806  17.7346  17.7961  17.9244  18.0303  18.1674  18.2720  18.3051
    18.4653  18.5988  18.6702  18.7514  18.8391  18.9117  18.9542  19.0085
    19.0226  19.0893  19.2645  19.3098  19.3347  19.4142  19.4646  19.5074
    19.8846  19.9581  19.9969  20.0683  20.1139  20.2522  20.3577  20.3915
    20.4296  20.5504  20.5866  20.6019  20.6871  20.7127  20.7713  20.9235
    21.0208  21.1025  21.1490  21.1738  21.2799  21.3371  21.4426  21.4724
    21.6082  21.6454  21.7478  21.8230  21.9935  22.0289  22.0795  22.0993
    22.1557  22.3330  22.3633  22.4137  22.4461  22.5253  22.5430  22.5550
    22.5815

          k = 0.0000-0.4606 0.0000 ( 26364 PWs)   bands (ev):

   -84.6385 -84.6162 -84.6065 -84.4542 -84.4435 -84.4025 -84.3927 -84.1988
   -53.3898 -53.3684 -53.3115 -53.2852 -53.2760 -53.2704 -53.2662 -53.2482
   -53.2395 -53.2198 -53.1459 -53.1377 -53.1308 -53.1233 -53.1224 -53.1133
   -53.0256 -53.0245 -53.0159 -53.0100 -52.9931 -52.9641 -52.9120 -52.8052
   -21.6912 -21.1862 -21.0678 -21.0376 -20.6051 -20.4426 -20.4168 -20.2374
   -20.1333 -20.0332 -19.9151 -19.7423 -19.7064 -19.7002 -19.6613 -19.4373
   -18.9480 -18.8263 -18.2257 -10.8538 -10.7212 -10.6727 -10.5420 -10.4538
   -10.2354  -9.9416  -9.8279  -9.5975  -9.2403  -9.1256  -9.0091  -8.9430
    -8.7956  -8.7451  -8.7377  -8.6470  -8.5432  -8.4910  -8.3881  -8.3604
    -8.2964  -8.2766  -8.2419  -8.2337  -8.1887  -8.0932  -8.0345  -7.9438
    -7.8835  -7.8309  -7.7271  -7.6456  -7.6350  -7.5056  -7.4936  -7.4084
    -7.3689  -7.3133  -6.6208  -6.5509  -6.4851  -6.3179  -6.2412  -6.1678
    -6.1174  -6.0795  -5.9277  -5.7780  -5.6164  -5.6115  -5.5827  -5.4241
    -5.2151  -5.1394  -4.7309  -4.5590  -4.5449  -4.4724  -4.1655  -4.1625
    -4.0415  -3.8933  -3.7902  -3.7390  -3.6834  -3.6802  -3.5508  -3.4989
    -3.4013  -3.2397  -3.2249  -3.1075  -3.0535  -2.9461  -2.9299  -2.8682
    -2.6510  -2.5584  -2.3883  -2.3124  -2.2645  -2.2186  -2.0714  -1.5085
    -1.3451  -1.0432  -0.6489  -0.5769  -0.3289  -0.1999  -0.0257  -0.0175
     0.0744   0.2052   0.7233   0.7509   3.9684   4.3128   4.7432   4.8156
     4.9144   5.1300   5.3832   5.6079   5.8853   6.1958   6.5759   6.8031
     7.0168   7.1128   7.1202   7.5198   7.7158   7.9284   8.0169   8.1653
     8.4068   8.9914   9.0322   9.0569   9.1461   9.2416   9.2609   9.3233
     9.3754   9.4113   9.4770   9.5727   9.6219   9.6271   9.6572   9.6826
     9.8202   9.9654  10.0085  10.0587  10.0996  10.2158  10.4780  10.5427
    10.6773  10.7204  10.7757  10.7998  10.8929  11.1277  11.3240  11.3435
    11.3586  11.4696  11.5375  11.7089  11.8474  11.8981  11.9937  12.0408
    12.2423  12.2859  12.4099  12.4778  12.4952  12.5917  12.6025  12.6206
    12.7153  12.7349  12.8122  12.9040  13.0076  13.0264  13.1397  13.2243
    13.2290  13.2879  13.3668  13.3920  13.4251  13.6161  13.6251  13.7072
    13.7500  13.8338  13.8431  13.9704  14.0367  14.1244  14.1261  14.2054
    14.2523  14.3318  14.4201  14.4967  14.5154  14.5977  14.7350  14.8013
    14.8342  15.0434  15.2562  15.3412  15.3584  15.6846  15.6874  15.7185
    15.8711  15.8841  15.9833  16.1019  16.1724  16.2936  16.4226  16.5428
    16.6266  16.6736  16.7522  16.8366  17.0028  17.1382  17.1894  17.2061
    17.3265  17.3765  17.4440  17.4965  17.5036  17.5404  17.6828  17.7624
    17.7777  17.8096  17.8525  17.8759  17.9439  18.0422  18.0463  18.0618
    18.1195  18.3408  18.4028  18.4064  18.5363  18.6047  18.6818  18.7428
    18.7650  18.8604  18.8943  18.9504  19.1126  19.1433  19.1574  19.1813
    19.3017  19.3507  19.4135  19.5663  19.6658  19.7845  19.8364  19.9588
    20.0062  20.0547  20.0819  20.1816  20.2517  20.2976  20.3727  20.5408
    20.5519  20.6617  20.7152  20.8967  20.9589  21.1007  21.1435  21.2540
    21.2631  21.3607  21.5598  21.6317  21.6613  21.7453  21.7554  21.8864
    21.9003  22.0332  22.0673  22.0856  22.1074  22.3198  22.3391  22.4724
    22.5786

          k = 0.2500 0.0000 0.0000 ( 26392 PWs)   bands (ev):

   -84.6381 -84.6145 -84.6076 -84.4526 -84.4445 -84.4008 -84.3938 -84.1985
   -53.3746 -53.3646 -53.3120 -53.3003 -53.2759 -53.2681 -53.2661 -53.2371
   -53.2360 -53.2234 -53.1539 -53.1365 -53.1262 -53.1218 -53.1209 -53.1149
   -53.0418 -53.0241 -53.0173 -53.0076 -52.9957 -52.9693 -52.9118 -52.8053
   -21.7343 -21.2905 -21.2525 -20.9398 -20.5361 -20.4203 -20.1457 -20.1013
   -20.0268 -19.9267 -19.8742 -19.8251 -19.7810 -19.7650 -19.7313 -19.4430
   -18.9970 -18.9066 -18.2215 -10.9313 -10.8639 -10.4846 -10.3045  -9.9312
    -9.9065  -9.8753  -9.8593  -9.7091  -9.5278  -9.4886  -9.3032  -9.2732
    -9.1535  -9.0673  -8.9605  -8.9070  -8.6653  -8.6464  -8.4846  -8.4498
    -8.4203  -8.3622  -8.3290  -8.1774  -8.1173  -8.0902  -8.0374  -7.9574
    -7.8791  -7.7801  -7.6327  -7.5136  -7.4665  -7.3887  -7.3259  -7.2823
    -7.2339  -7.1505  -7.0351  -6.8441  -6.6035  -6.4400  -6.1682  -6.0970
    -6.0321  -5.9130  -5.8324  -5.4999  -5.3186  -5.2461  -5.1394  -5.0613
    -4.9874  -4.9370  -4.8104  -4.7587  -4.6553  -4.5821  -4.5230  -4.3050
    -4.2105  -3.9206  -3.7186  -3.6487  -3.4867  -3.4223  -3.3704  -3.3444
    -3.2901  -3.2735  -3.0727  -3.0201  -2.9071  -2.8191  -2.7721  -2.6656
    -2.5963  -2.5686  -2.5475  -2.3408  -1.9902  -1.8314  -1.5054  -1.4810
    -1.0309  -0.9915  -0.8866  -0.7999  -0.7627  -0.5837  -0.3918  -0.2664
    -0.2157  -0.0869  -0.0544   0.2484   3.4235   4.1169   4.2805   4.7705
     5.1703   5.5377   5.9156   6.2867   6.4019   6.5330   6.6905   6.9274
     7.2025   7.4577   7.5502   7.6116   7.9842   8.0437   8.0746   8.1569
     8.1721   8.3182   8.4819   8.6137   8.6346   8.8177   9.0372   9.0774
     9.1627   9.3072   9.4137   9.4751   9.5738   9.6973   9.7527   9.8198
     9.8993  10.0573  10.1773  10.2694  10.3300  10.3896  10.4170  10.4914
    10.6523  10.7285  10.7751  10.8155  10.8668  11.0073  11.1155  11.1574
    11.2592  11.3200  11.4467  11.4732  11.5517  11.6087  11.7716  11.8588
    11.9499  12.0337  12.1092  12.1941  12.2726  12.3999  12.4611  12.4878
    12.6042  12.6358  12.7325  12.8026  12.8188  12.9799  13.0320  13.1050
    13.1815  13.2406  13.4328  13.4495  13.5133  13.5657  13.6683  13.7716
    13.9540  14.0046  14.0177  14.1374  14.1849  14.2915  14.3494  14.4948
    14.6803  14.7104  14.8202  14.8377  14.9018  15.0572  15.0990  15.1956
    15.2345  15.3064  15.3340  15.3904  15.5025  15.5931  15.6249  15.7106
    15.8128  15.8869  15.9529  16.0174  16.0928  16.1320  16.2224  16.2696
    16.4614  16.4732  16.5289  16.6646  16.7520  16.7868  16.8968  17.0235
    17.0767  17.2028  17.3558  17.4203  17.4358  17.5346  17.6128  17.8265
    17.9088  18.0873  18.1206  18.1504  18.1717  18.1947  18.3039  18.4305
    18.5158  18.6720  18.7435  18.8253  18.9464  18.9798  19.0306  19.1238
    19.2182  19.2972  19.3269  19.4961  19.6259  19.6806  19.7501  19.8125
    19.8702  19.8843  19.9838  20.0502  20.0625  20.1415  20.2073  20.3093
    20.3522  20.4452  20.5249  20.6126  20.6968  20.7101  20.7834  20.8125
    20.8868  20.9111  20.9779  21.1625  21.2149  21.2743  21.3677  21.4202
    21.5098  21.5928  21.6965  21.7634  21.7927  21.8392  21.8786  21.9202
    22.0199  22.0361  22.1160  22.1327  22.1549  22.1791  22.2578  22.2803
    22.3153

          k = 0.2500 0.2303 0.0000 ( 26396 PWs)   bands (ev):

   -84.6381 -84.6145 -84.6076 -84.4526 -84.4445 -84.4008 -84.3938 -84.1985
   -53.3746 -53.3647 -53.3117 -53.3003 -53.2753 -53.2689 -53.2662 -53.2371
   -53.2349 -53.2233 -53.1542 -53.1370 -53.1261 -53.1218 -53.1210 -53.1148
   -53.0417 -53.0242 -53.0174 -53.0077 -52.9957 -52.9691 -52.9119 -52.8053
   -21.6773 -21.2533 -21.1565 -20.9199 -20.4987 -20.4039 -20.2504 -20.1689
   -20.1469 -20.0776 -19.9865 -19.7706 -19.7438 -19.7231 -19.6816 -19.4473
   -18.9958 -18.8907 -18.2188 -10.7031 -10.6532 -10.4819 -10.3956 -10.1654
    -9.9843  -9.8169  -9.7464  -9.6686  -9.3878  -9.3406  -9.1903  -9.1416
    -9.0622  -8.9825  -8.9222  -8.7158  -8.6397  -8.5762  -8.5120  -8.4877
    -8.4430  -8.3677  -8.2608  -8.2169  -8.1672  -8.0719  -8.0218  -7.9540
    -7.9404  -7.8506  -7.7834  -7.6258  -7.6067  -7.5739  -7.4758  -7.4017
    -7.3219  -7.2407  -7.1585  -6.8789  -6.5762  -6.3125  -6.1310  -5.9793
    -5.9121  -5.9071  -5.6396  -5.5156  -5.4786  -5.3914  -5.3496  -5.2112
    -4.9861  -4.9379  -4.7763  -4.6853  -4.6560  -4.4909  -4.4163  -4.2285
    -4.2190  -3.9245  -3.7246  -3.7089  -3.6136  -3.5498  -3.4414  -3.3604
    -3.3084  -3.2507  -3.1339  -3.0077  -2.9265  -2.8858  -2.8287  -2.7606
    -2.6268  -2.5432  -2.4540  -2.3685  -2.0094  -1.9350  -1.6815  -1.6115
    -1.3686  -1.2639  -0.9413  -0.8250  -0.5244  -0.4757  -0.1734  -0.1267
    -0.1075   0.2168   0.2708   0.3108   3.6926   4.3646   4.5365   4.9947
     5.3826   5.6317   5.7395   6.1205   6.3494   6.5397   6.6043   6.6366
     6.8649   6.9878   7.1642   7.3343   7.5706   7.6743   7.8278   8.0101
     8.2222   8.3328   8.3962   8.4885   8.6372   8.6721   8.8641   8.9927
     9.1495   9.2270   9.2723   9.3935   9.4404   9.7743   9.9016  10.0020
    10.0819  10.2275  10.2556  10.3238  10.3750  10.4575  10.6119  10.7014
    10.8278  10.9046  10.9650  11.1398  11.2439  11.2589  11.3252  11.4219
    11.5293  11.6407  11.7229  11.8197  11.8795  11.9299  12.1024  12.1808
    12.2685  12.3217  12.4249  12.4549  12.5439  12.6051  12.6889  12.7457
    12.7689  12.8900  12.9440  12.9912  13.0204  13.1126  13.1604  13.2107
    13.2402  13.3627  13.4547  13.5123  13.5531  13.6336  13.6459  13.6929
    13.8333  13.8560  13.9543  14.0350  14.0990  14.1842  14.2355  14.3432
    14.4030  14.4933  14.6026  14.7263  14.8059  14.9049  14.9809  15.1027
    15.1669  15.1946  15.2837  15.3839  15.4637  15.5852  15.6655  15.7385
    15.7595  15.8378  15.9820  16.0421  16.2030  16.3053  16.3427  16.3768
    16.4410  16.5253  16.5736  16.6046  16.7127  16.7457  16.8666  17.0332
    17.1553  17.1826  17.2654  17.3362  17.3636  17.4167  17.5158  17.6229
    17.7147  17.8013  17.8525  17.9553  18.0281  18.1026  18.1750  18.2627
    18.3511  18.4310  18.4638  18.5559  18.6275  18.6678  18.6942  18.7774
    18.8830  18.9368  18.9838  19.0722  19.1316  19.2289  19.2619  19.3023
    19.3789  19.5073  19.5313  19.5881  19.6623  19.7290  19.8785  19.9426
    20.0231  20.1077  20.1480  20.1964  20.2747  20.3195  20.4394  20.4894
    20.6181  20.7205  20.7890  20.8554  20.8793  20.9657  21.0236  21.0902
    21.1879  21.3119  21.3778  21.4028  21.4834  21.5876  21.6508  21.7525
    21.8207  21.8415  21.9368  22.0488  22.1043  22.1828  22.2872  22.3421
    22.3991

          k = 0.2500-0.4606 0.0000 ( 26462 PWs)   bands (ev):

   -84.6382 -84.6145 -84.6076 -84.4525 -84.4445 -84.4007 -84.3938 -84.1985
   -53.3747 -53.3648 -53.3115 -53.3003 -53.2747 -53.2698 -53.2662 -53.2371
   -53.2341 -53.2233 -53.1542 -53.1379 -53.1261 -53.1218 -53.1211 -53.1148
   -53.0417 -53.0242 -53.0174 -53.0077 -52.9958 -52.9691 -52.9122 -52.8054
   -21.6162 -21.2398 -20.9312 -20.9080 -20.5439 -20.4413 -20.3900 -20.2568
   -20.1994 -20.1361 -20.0610 -19.7610 -19.7262 -19.7107 -19.6413 -19.4516
   -18.9946 -18.8768 -18.2168 -10.6116 -10.5180 -10.4318 -10.3080 -10.2228
   -10.0366  -9.7663  -9.6611  -9.5108  -9.2274  -9.1662  -9.0806  -8.9913
    -8.9181  -8.8546  -8.7802  -8.7592  -8.6970  -8.6376  -8.6046  -8.5595
    -8.4402  -8.4043  -8.3342  -8.3080  -8.2827  -8.2582  -8.1790  -8.0795
    -7.9802  -7.9584  -7.8412  -7.7345  -7.5755  -7.4234  -7.4136  -7.2597
    -7.2352  -7.1170  -7.0820  -7.0388  -6.7502  -6.5211  -6.1461  -6.0425
    -5.9810  -5.8771  -5.8075  -5.7599  -5.7290  -5.4373  -5.2875  -5.2345
    -4.8403  -4.7750  -4.7071  -4.6515  -4.4737  -4.4456  -4.3081  -4.2828
    -4.0499  -3.8991  -3.8144  -3.7670  -3.6566  -3.5997  -3.4418  -3.3956
    -3.2805  -3.2545  -3.1808  -3.1136  -3.0744  -2.9308  -2.8809  -2.7531
    -2.6696  -2.4876  -2.3655  -2.3608  -2.3312  -2.2884  -1.9946  -1.5421
    -1.3170  -0.9780  -0.9593  -0.7807  -0.7240  -0.5753  -0.1562  -0.0654
     0.1093   0.1894   0.6374   0.6518   4.2544   4.6110   5.0087   5.1064
     5.1962   5.4262   5.6555   5.9099   6.1039   6.1630   6.5084   6.7275
     6.8444   7.1086   7.3385   7.3426   7.4485   7.4571   7.5688   7.6903
     7.8040   8.0464   8.2101   8.2771   8.4443   8.5146   8.6179   8.7791
     8.9121   9.0343   9.2428   9.3889   9.5032   9.6025   9.6336   9.7656
    10.0726  10.1503  10.4225  10.5548  10.6279  10.6791  10.9979  11.1689
    11.2244  11.2547  11.3975  11.5544  11.5642  11.7013  11.7724  11.8714
    11.9545  12.0201  12.1159  12.1467  12.2470  12.2867  12.3141  12.3859
    12.4879  12.5253  12.5584  12.6634  12.6758  12.7887  12.8779  12.9447
    12.9692  13.0417  13.0565  13.1263  13.1519  13.2191  13.2710  13.3750
    13.3996  13.4462  13.5489  13.6186  13.6395  13.7060  13.8298  13.8624
    13.8955  13.9508  14.0038  14.0398  14.1353  14.1662  14.3249  14.4136
    14.4482  14.4749  14.6071  14.6297  14.6850  14.7728  14.8780  14.9454
    15.0008  15.1820  15.2331  15.2512  15.2629  15.3254  15.3713  15.4752
    15.5262  15.6515  15.7229  15.7430  15.7974  15.8403  15.9676  16.0330
    16.2213  16.2764  16.3769  16.4188  16.4642  16.4838  16.5816  16.6309
    16.8485  16.9013  17.0516  17.0710  17.1496  17.2588  17.3212  17.4713
    17.4998  17.5981  17.7026  17.8130  17.8572  17.9282  18.0016  18.0756
    18.2205  18.3241  18.3914  18.4730  18.5552  18.6605  18.6720  18.7646
    18.8902  19.0093  19.0628  19.1196  19.1296  19.1848  19.2300  19.3410
    19.3501  19.6130  19.6978  19.7240  19.7467  19.7945  19.8313  19.8822
    19.9642  19.9785  20.0363  20.0589  20.1129  20.1258  20.2210  20.3205
    20.3706  20.4525  20.5760  20.6099  20.6445  20.7795  20.9252  20.9616
    21.0484  21.0801  21.1399  21.2229  21.2752  21.3230  21.3482  21.4460
    21.4908  21.5230  21.6419  21.6904  21.9558  22.0223  22.0940  22.1821
    22.2559

          k =-0.5000 0.0000 0.0000 ( 26466 PWs)   bands (ev):

   -84.6377 -84.6113 -84.6102 -84.4500 -84.4464 -84.3972 -84.3968 -84.1982
   -53.3609 -53.3384 -53.3369 -53.3120 -53.2728 -53.2716 -53.2661 -53.2316
   -53.2296 -53.1971 -53.1926 -53.1340 -53.1303 -53.1187 -53.1174 -53.0826
   -53.0821 -53.0213 -53.0202 -53.0020 -53.0014 -52.9743 -52.9119 -52.8054
   -21.5405 -21.4003 -20.9448 -20.9256 -20.7285 -20.7043 -20.0221 -20.0046
   -19.9748 -19.9638 -19.9239 -19.9218 -19.7948 -19.7535 -19.5906 -19.5885
   -18.9946 -18.9931 -18.2173 -10.2812 -10.2776 -10.2581 -10.2504 -10.1927
   -10.0994  -9.6989  -9.6957  -9.6635  -9.6292  -9.5219  -9.4572  -9.4101
    -9.4011  -9.2404  -8.9805  -8.8755  -8.8546  -8.8018  -8.7357  -8.5770
    -8.4230  -8.2647  -8.1429  -8.1384  -8.1168  -8.0610  -7.9729  -7.9680
    -7.8679  -7.8337  -7.8214  -7.6770  -7.6177  -7.4172  -7.4150  -7.2972
    -7.2688  -7.2624  -7.1293  -6.7412  -6.7318  -6.4994  -6.4032  -6.1932
    -6.1155  -5.6410  -5.5517  -5.4432  -5.4143  -5.1525  -5.0464  -4.9315
    -4.8621  -4.7860  -4.7595  -4.5648  -4.5292  -4.3101  -4.2662  -4.1502
    -4.1376  -3.9310  -3.8035  -3.7321  -3.6730  -3.4955  -3.4171  -3.4047
    -3.2998  -3.1219  -3.1014  -3.0229  -2.8909  -2.8813  -2.7857  -2.7675
    -2.7624  -2.6219  -2.6153  -2.5841  -1.8358  -1.7858  -1.5452  -1.4985
    -1.1949  -0.9705  -0.8444  -0.7870  -0.6804  -0.5899  -0.5653  -0.5388
    -0.4673  -0.2186  -0.0202   0.0570   4.2822   4.2934   4.9178   4.9983
     5.0564   5.3061   5.5311   5.7842   6.0268   6.2956   6.6348   7.0010
     7.0765   7.1722   7.3095   7.5236   7.7768   8.3025   8.3259   8.3719
     8.3861   8.6169   8.8459   8.8642   8.9763   8.9900   9.0192   9.1228
     9.1537   9.3005   9.3988   9.4601   9.5062   9.5937   9.6694   9.7323
     9.7648   9.8339   9.9075  10.0904  10.1734  10.2681  10.2848  10.3434
    10.4104  10.4976  10.5175  10.5911  10.6702  10.9159  11.1628  11.1782
    11.2308  11.2869  11.3225  11.7411  11.8602  11.8945  11.9547  11.9679
    12.0776  12.1530  12.2564  12.2729  12.3359  12.4861  12.5134  12.6358
    12.6916  12.8707  12.9769  13.0798  13.1116  13.1582  13.3949  13.4397
    13.4706  13.5172  13.5670  13.6532  13.6877  13.8962  13.9581  14.0228
    14.1252  14.1339  14.1733  14.2050  14.3668  14.4424  14.4597  14.5241
    14.5452  14.5876  14.7709  14.8494  14.9391  15.0953  15.1387  15.1536
    15.2819  15.3369  15.4745  15.5798  15.6369  15.7326  15.8328  15.9178
    15.9452  16.0105  16.0943  16.2126  16.2346  16.2719  16.3184  16.4848
    16.5580  16.6317  16.8921  16.9272  17.0551  17.0919  17.2059  17.3279
    17.4118  17.5287  17.7705  17.8346  17.9602  17.9636  18.0256  18.0367
    18.2251  18.2585  18.3259  18.3667  18.3924  18.4619  18.4768  18.4879
    18.5155  18.5728  18.6285  18.6923  18.7159  18.8787  18.9375  18.9811
    19.0144  19.0992  19.1081  19.1398  19.1953  19.2478  19.3264  19.4275
    19.4508  19.6312  19.6624  19.8819  19.9134  20.0007  20.0271  20.2775
    20.3197  20.3584  20.3899  20.4666  20.5095  20.5462  20.6460  20.6638
    20.6775  20.7056  20.7186  20.7465  20.7877  20.9541  21.0022  21.0119
    21.0373  21.0544  21.0801  21.1276  21.1578  21.2151  21.2816  21.3052
    21.3349  21.3515  21.4059  21.5606  21.5713  21.6637  21.6748  21.6957
    21.7892

          k =-0.5000 0.2303 0.0000 ( 26450 PWs)   bands (ev):

   -84.6378 -84.6113 -84.6102 -84.4500 -84.4465 -84.3972 -84.3967 -84.1982
   -53.3609 -53.3384 -53.3369 -53.3117 -53.2726 -53.2713 -53.2661 -53.2316
   -53.2297 -53.1968 -53.1924 -53.1344 -53.1306 -53.1183 -53.1177 -53.0826
   -53.0820 -53.0214 -53.0202 -53.0020 -53.0015 -52.9742 -52.9121 -52.8054
   -21.5178 -21.3703 -20.8411 -20.8220 -20.6593 -20.6434 -20.1996 -20.1954
[...]
     8.4760   8.5638   8.8361   8.8730   8.9248   8.9896   8.9943   9.0827
     9.1601   9.2821   9.4078   9.4589   9.5518   9.6734   9.7251   9.7803
     9.8274  10.0616  10.2495  10.3197  10.3604  10.4191  10.4594  10.5269
    10.5746  10.6392  10.7095  10.7832  10.9871  11.0076  11.2952  11.3149
    11.3695  11.4341  11.4961  11.9142  11.9816  12.0209  12.1233  12.2953
    12.3213  12.3311  12.4516  12.6207  12.6684  12.8159  12.8245  12.9732
    13.0218  13.0918  13.2089  13.2441  13.4255  13.5900  13.7468  13.7532
    13.8153  13.8547  13.8706  13.9827  13.9878  14.1387  14.1474  14.1908
    14.3294  14.3409  14.4017  14.5992  14.6801  14.7535  14.8782  14.9094
    14.9270  14.9869  14.9940  15.0318  15.2103  15.2260  15.3434  15.3614
    15.4044  15.5410  15.6919  15.8717  15.8834  15.9828  16.0351  16.1651
    16.1822  16.3234  16.4410  16.5403  16.5860  16.5882  16.7421  16.8002
    16.8558  16.8750  17.0534  17.0638  17.1789  17.2212  17.4115  17.5468
    17.6130  17.7301  17.8830  17.8865  18.0238  18.0302  18.0867  18.1433
    18.2945  18.3135  18.3211  18.4508  18.4544  18.4854  18.6176  18.7027
    18.7383  18.8503  18.9168  18.9707  19.0094  19.0442  19.0534  19.0992
    19.1265  19.2069  19.2357  19.3180  19.3732  19.4025  19.4501  19.5646
    19.6371  19.6903  19.9346  19.9809  20.0393  20.1039  20.1159  20.3438
    20.3903  20.4188  20.5447  20.5783  20.6172  20.6961  20.7239  20.7368
    20.7874  20.8274  20.9333  20.9717  21.0158  21.0503  21.0918  21.1027
    21.1340  21.2097  21.2156  21.2718  21.2931  21.4079  21.4510  21.4550
    21.5889  21.6097  21.6461  21.7301  21.7420  21.7756  21.8424  21.8824
    21.9236

          k =-0.5000 0.2303 0.0000 ( 26450 PWs)   bands (ev):

   -80.4461 -80.4446 -80.3375 -80.3014 -80.3008 -80.2690 -80.2633 -79.4894
   -49.2961 -49.2939 -49.2788 -49.2780 -49.2366 -49.1998 -49.1932 -49.1723
   -49.1634 -49.1589 -49.1561 -49.1506 -49.1430 -49.1410 -49.1002 -49.0948
   -49.0380 -48.9897 -48.9887 -48.8947 -48.8910 -48.5981 -48.4937 -47.8823
   -21.6918 -21.4887 -21.2998 -21.0892 -20.7787 -20.7776 -20.6042 -20.4873
   -20.3080 -20.2471 -20.2253 -20.0648 -20.0591 -19.9793 -19.9356 -19.8035
   -19.7960 -19.6679 -19.6361  -9.0579  -8.9212  -8.3256  -8.3165  -8.2822
    -8.2619  -7.7568  -7.7286  -7.5926  -7.5840  -7.4495  -7.3850  -7.2418
    -7.1976  -7.0759  -7.0380  -6.7676  -6.7258  -6.6593  -6.5539  -6.5317
    -6.4688  -6.3670  -6.2331  -6.2004  -6.1444  -6.0558  -6.0346  -5.9654
    -5.9390  -5.9145  -5.6998  -5.6313  -5.5464  -5.5236  -5.4484  -5.2961
    -5.2793  -5.1669  -5.0396  -4.9522  -4.8446  -4.6518  -4.5637  -4.5046
    -4.3768  -4.2985  -4.2098  -4.2050  -4.0253  -3.9715  -3.7107  -3.6680
    -3.6032  -3.5118  -3.1212  -3.1124   0.8250   0.8505   0.9821   1.0164
     1.0792   1.0990   1.1474   1.1578   1.2136   1.2310   1.2973   1.3602
     1.3749   1.4051   1.4392   1.4442   1.5907   1.6133   1.6278   1.7132
     1.7315   1.8809   1.9125   1.9251   2.0007   2.0138   2.1038   2.1152
     2.1846   2.2111   2.3204   2.3540   2.4768   2.4915   2.5845   2.5960
     2.9151   2.9466   2.9917   3.0916   4.5355   4.5524   5.2117   5.2459
     5.3745   5.5273   5.8061   5.9649   6.2126   6.3158   6.5416   6.6833
     7.0018   7.1817   7.2204   7.3736   7.3880   7.5280   7.5419   7.5828
     7.7969   7.9233   8.1539   8.3813   8.4709   8.6307   8.7387   9.1086
     9.1578   9.2155   9.2501   9.4356   9.6394   9.8450  10.0178  10.3123
    10.3441  10.5720  10.5811  10.6631  10.7037  10.8984  10.9432  11.0188
    11.0882  11.1774  11.2559  11.3560  11.5203  11.5265  11.6316  11.6662
    11.7075  11.7768  11.8724  12.1653  12.2300  12.2542  12.3530  12.3806
    12.5256  12.5538  12.7226  12.7742  12.8484  12.9644  13.0629  13.0877
    13.2573  13.3407  13.4182  13.4677  13.6579  13.6796  13.8094  13.8179
    13.8627  13.9481  14.0477  14.1153  14.2169  14.2963  14.3803  14.4240
    14.4608  14.4970  14.5940  14.6722  14.7362  14.7421  14.8445  14.8898
    14.9141  15.1086  15.1377  15.2005  15.2211  15.2735  15.3988  15.4478
    15.5044  15.5655  15.6571  15.7006  15.8331  15.8774  16.0250  16.0732
    16.1780  16.2213  16.2657  16.2964  16.3336  16.3642  16.4517  16.5693
    16.5841  16.6712  16.7165  16.7447  16.9202  16.9476  16.9719  17.0051
    17.0699  17.1637  17.1988  17.2907  17.3370  17.3875  17.4895  17.6027
    17.6275  17.7024  17.7244  17.7508  17.7929  17.8386  17.9088  17.9868
    18.0548  18.0902  18.2179  18.2305  18.3009  18.3124  18.6004  18.6271
    18.7126  18.7661  18.8814  19.0188  19.1683  19.2142  19.3478  19.4240
    19.4668  19.6009  19.6429  19.6754  19.7472  19.8433  19.9505  20.0321
    20.0839  20.1635  20.2834  20.2872  20.3054  20.3282  20.4177  20.4437
    20.5029  20.5630  20.5927  20.6723  20.7085  20.8872  21.0374  21.1713
    21.2077  21.3494  21.3666  21.4722  21.4996  21.5952  21.6224  21.6786
    21.7196  21.8686  21.9000  21.9506  22.0282  22.1856  22.1985  22.2884
    22.3439

          k =-0.5000-0.4606 0.0000 ( 26416 PWs)   bands (ev):

   -80.4461 -80.4446 -80.3375 -80.3014 -80.3008 -80.2690 -80.2633 -79.4894
   -49.2961 -49.2939 -49.2787 -49.2780 -49.2373 -49.1992 -49.1927 -49.1642
   -49.1624 -49.1593 -49.1588 -49.1559 -49.1430 -49.1405 -49.1008 -49.0954
   -49.0380 -48.9897 -48.9887 -48.8946 -48.8910 -48.5980 -48.4938 -47.8823
   -21.6654 -21.4446 -21.1578 -20.8668 -20.8546 -20.8256 -20.7005 -20.6951
   -20.3482 -20.3432 -20.2671 -20.0897 -20.0803 -19.9302 -19.8829 -19.7830
   -19.7755 -19.6646 -19.6322  -9.0281  -8.8860  -7.8930  -7.8869  -7.8590
    -7.8489  -7.7030  -7.6931  -7.5803  -7.5217  -7.3537  -7.3263  -7.2723
    -7.2447  -6.9822  -6.9642  -6.9313  -6.8352  -6.8108  -6.7194  -6.6950
    -6.5634  -6.5366  -6.4958  -6.3877  -6.3286  -6.3020  -6.2259  -6.1002
    -6.0683  -6.0278  -5.7845  -5.7248  -5.5798  -5.4992  -5.4295  -5.3518
    -5.2023  -5.1725  -5.0392  -4.9218  -4.8761  -4.8096  -4.6294  -4.5107
    -4.3945  -4.3815  -4.1471  -4.1234  -4.0234  -3.9258  -3.8271  -3.6719
    -3.4933  -3.4783  -3.0693  -3.0638   0.9066   0.9073   0.9736   1.0809
     1.0911   1.1704   1.1999   1.2963   1.3070   1.3474   1.3863   1.4199
     1.4572   1.4641   1.5062   1.5259   1.5431   1.5509   1.6936   1.6944
     1.7224   1.7917   1.8209   1.8879   1.9023   1.9523   2.0041   2.0165
     2.0835   2.2205   2.3077   2.4078   2.4848   2.5014   2.5225   2.5521
     2.9382   2.9709   2.9866   3.0760   5.0212   5.0473   5.4367   5.4420
     5.7549   5.9512   5.9624   6.0279   6.0469   6.2304   6.2554   6.3168
     6.4916   6.6762   6.7418   6.8375   7.0480   7.2383   7.3662   7.4941
     7.7583   8.0273   8.0511   8.1050   8.2131   8.3601   8.4371   8.4818
     8.7040   9.0305   9.2598   9.4024   9.4203   9.8587   9.9776  10.1157
    10.2915  10.4614  10.6472  10.7708  10.8542  11.0524  11.1960  11.3215
    11.4941  11.5337  11.8728  11.9027  12.2168  12.2917  12.3469  12.3717
    12.3990  12.5229  12.5570  12.6332  12.7078  12.7319  12.9263  12.9477
    13.0889  13.1077  13.1692  13.2469  13.4458  13.5415  13.5896  13.6175
    13.6746  13.7160  13.7579  13.7999  13.8092  13.8612  13.9124  13.9369
    14.0298  14.0420  14.1123  14.1268  14.2562  14.3213  14.3260  14.3722
    14.4871  14.5171  14.5470  14.6888  14.8279  14.9030  14.9127  14.9252
    15.0476  15.0668  15.1029  15.1244  15.1673  15.2023  15.2946  15.3060
    15.3148  15.3719  15.4965  15.5180  15.5377  15.5646  15.6019  15.6831
    15.7105  15.7444  15.7691  15.8050  15.8622  15.9043  16.0436  16.0501
    16.0951  16.1075  16.1919  16.2147  16.2629  16.4317  16.5562  16.5834
    16.5882  16.6025  16.7344  16.7875  16.8272  16.9293  16.9387  17.0207
    17.0568  17.1214  17.1349  17.2511  17.2822  17.3192  17.3945  17.4795
    17.7413  17.8774  18.0600  18.0731  18.1770  18.2209  18.2461  18.3251
    18.3567  18.4530  18.4747  18.5358  18.6749  18.6939  18.7387  18.8183
    18.9849  19.1132  19.3410  19.3773  19.4307  19.5060  19.5881  19.7520
    20.1606  20.2593  20.2683  20.4165  20.4455  20.4870  20.6431  20.7393
    20.7487  20.7765  20.8213  20.8365  20.8810  20.9916  21.2980  21.4767
    21.5141  21.7207  21.8142  21.8637  21.9159  21.9360  22.0076  22.0544
    22.1211  22.2859  22.3015  22.3818  22.5276  22.6670  22.6843  22.7343
    22.7954

          k =-0.2500 0.2303 0.0000 ( 26396 PWs)   bands (ev):

   -80.4491 -80.4411 -80.3372 -80.3049 -80.2968 -80.2710 -80.2608 -79.4891
   -49.3398 -49.2848 -49.2793 -49.2490 -49.2445 -49.2412 -49.1934 -49.1745
   -49.1671 -49.1604 -49.1499 -49.1473 -49.1441 -49.1066 -49.0927 -49.0882
   -49.0381 -48.9983 -48.9801 -48.8970 -48.8887 -48.5939 -48.4935 -47.8824
   -21.8418 -21.5123 -21.3474 -21.0297 -20.8248 -20.6934 -20.4742 -20.4213
   -20.3585 -20.2993 -20.1576 -20.1347 -19.9963 -19.9560 -19.9358 -19.8118
   -19.7970 -19.6576 -19.6291  -9.1685  -8.9077  -8.5749  -8.4553  -8.3987
    -8.1422  -8.0334  -7.9083  -7.6126  -7.4722  -7.4068  -7.2766  -7.2522
    -7.1449  -7.0639  -7.0510  -6.9087  -6.7818  -6.7597  -6.6213  -6.5200
    -6.4946  -6.4066  -6.3517  -6.2397  -6.2025  -5.9987  -5.9455  -5.9297
    -5.8374  -5.7614  -5.6157  -5.5818  -5.5009  -5.3465  -5.3245  -5.1668
    -5.0936  -4.9809  -4.8921  -4.8119  -4.7282  -4.6397  -4.5764  -4.4854
    -4.4558  -4.3335  -4.1982  -4.1497  -4.0672  -3.9307  -3.7862  -3.7569
    -3.6569  -3.3456  -3.3187  -3.0050   0.8573   0.8914   0.8994   0.9434
     0.9689   0.9915   1.0307   1.1056   1.1839   1.1932   1.2682   1.3203
     1.3721   1.4486   1.4811   1.5237   1.6156   1.6453   1.6734   1.7370
     1.8085   1.8378   1.9236   1.9377   1.9932   2.0374   2.1158   2.1810
     2.2141   2.2885   2.3755   2.4315   2.5017   2.5871   2.6682   2.7203
     2.7813   2.9799   3.1002   3.1640   3.7214   4.3732   4.6027   5.0573
     5.4967   5.6940   5.7716   6.2602   6.3817   6.5851   6.6385   6.6838
     6.8493   6.9996   7.1124   7.3995   7.5514   7.7386   7.9049   8.0565
     8.3875   8.4681   8.5075   8.6029   8.6481   8.7150   8.8905   9.0916
     9.2066   9.3444   9.4530   9.5359   9.6273   9.9051   9.9752  10.0903
    10.1646  10.2224  10.3398  10.4895  10.6130  10.6823  10.7671  10.8848
    10.9861  11.0701  11.1863  11.2715  11.3450  11.4006  11.5845  11.6394
    11.6743  11.7754  11.7970  11.9408  11.9973  12.1327  12.2219  12.3142
    12.4297  12.5209  12.5855  12.6134  12.7113  12.8288  12.9536  12.9731
    13.0626  13.1043  13.1500  13.2245  13.2918  13.3267  13.4457  13.5355
    13.5931  13.6216  13.6739  13.7468  13.7950  13.8261  13.9049  14.0545
    14.1527  14.2075  14.2381  14.2893  14.3300  14.4182  14.5393  14.5685
    14.6943  14.7717  14.8140  14.9436  15.0222  15.0861  15.1463  15.2174
    15.2993  15.4310  15.4702  15.6692  15.7114  15.8510  15.9361  15.9894
    16.1069  16.1736  16.3019  16.3263  16.3969  16.5181  16.5551  16.6001
    16.6486  16.7343  16.7965  16.8963  17.0179  17.0911  17.1501  17.2124
    17.2611  17.3714  17.4429  17.5131  17.5767  17.6257  17.7254  17.7859
    17.8548  17.9411  17.9554  18.1032  18.1646  18.2269  18.3345  18.3889
    18.4384  18.5638  18.6210  18.7149  18.7776  18.8258  18.8744  18.9841
    19.0986  19.1288  19.1435  19.2485  19.2859  19.3463  19.4055  19.5049
    19.6736  19.7405  19.7857  19.9274  19.9455  20.0242  20.0764  20.1352
    20.1908  20.2575  20.3040  20.3421  20.4094  20.4430  20.5837  20.6451
    20.8068  20.9230  20.9695  21.0164  21.1146  21.1690  21.1973  21.2436
    21.3527  21.4285  21.5195  21.5561  21.6168  21.7147  21.7732  21.8273
    21.9307  22.0428  22.1194  22.2147  22.2842  22.3635  22.4065  22.4792
    22.5500

     the spin up/dw Fermi energies are    -2.5115   -0.3933 ev

!    total energy              =   -2318.81032986 Ry
     Harris-Foulkes estimate   =   -2318.81032518 Ry
     estimated scf accuracy    <          7.9E-09 Ry

     The total energy is the sum of the following terms:

     one-electron contribution =  -26123.13446697 Ry
     hartree contribution      =   13078.83645542 Ry
     xc contribution           =    -348.78388461 Ry
     ewald contribution        =   11072.51493390 Ry
     Hubbard energy            =       1.75645315 Ry
     smearing contrib. (-TS)   =       0.00017924 Ry

     total magnetization       =    22.00 Bohr mag/cell
     absolute magnetization    =    35.31 Bohr mag/cell

     convergence has been achieved in  14 iterations

     Forces acting on atoms (Ry/au):


     negative rho (up, down):  0.182E-02 0.143E-02
     atom    1 type  1   force =    -0.00550627   -0.01388712    0.00013754
     atom    2 type  1   force =     0.00042682    0.00816276   -0.00042664
     atom    3 type  2   force =     0.00085661    0.00150058   -0.00014965
     atom    4 type  2   force =     0.00702791    0.01200516    0.00025073
     atom    5 type  1   force =     0.00211761    0.01165343    0.00013135
     atom    6 type  1   force =    -0.00094256   -0.01813599    0.00021379
     atom    7 type  1   force =     0.00005318    0.00169509   -0.00043606
     atom    8 type  1   force =    -0.00145275   -0.00301082    0.00030999
     atom    9 type  2   force =     0.00716634    0.00061453    0.00059779
     atom   10 type  2   force =    -0.00008794   -0.00105961   -0.00013637
     atom   11 type  1   force =    -0.00518646   -0.02136562   -0.00043965
     atom   12 type  1   force =    -0.00496011    0.02194415   -0.00040056
     atom   13 type  1   force =    -0.00042657   -0.00042796    0.00058531
     atom   14 type  1   force =    -0.00509250   -0.01334704    0.00015230
     atom   15 type  1   force =     0.00042393    0.00752534   -0.00040050
     atom   16 type  2   force =    -0.00241294    0.00147109   -0.00014076
     atom   17 type  2   force =     0.00684229    0.01208435    0.00037692
     atom   18 type  1   force =     0.00120981    0.01166462    0.00013737
     atom   19 type  1   force =    -0.00286634   -0.01810258    0.00019338
     atom   20 type  1   force =     0.00002549    0.00232043    0.00007598
     atom   21 type  1   force =    -0.00145559   -0.00269464    0.00027738
     atom   22 type  2   force =    -0.00569793    0.00076108    0.00059683
     atom   23 type  2   force =    -0.00001069   -0.00143089    0.00021074
     atom   24 type  1   force =     0.00520421   -0.02133320   -0.00043582
     atom   25 type  1   force =     0.00514731    0.02200167   -0.00038371
     atom   26 type  1   force =    -0.00043003   -0.00058001    0.00041095
     atom   27 type  3   force =    -0.00000891    0.00015854   -0.00065338
     atom   28 type  3   force =     0.00001013   -0.00000130   -0.00067096
     atom   29 type  3   force =     0.00005648   -0.00014651    0.00011100
     atom   30 type  3   force =    -0.00001876   -0.00011053   -0.00006043
     atom   31 type  1   force =    -0.00001176    0.00007102   -0.00003486

     Total force =     0.002015     Total SCF correction =     0.000149


     entering subroutine stress ...


     negative rho (up, down):  0.182E-02 0.143E-02
          total   stress  (Ry/bohr**3)                   (kbar)     P=   30.83
   0.00033997  -0.00000259   0.00000429         50.01     -0.38      0.63
  -0.00000259   0.00033411   0.00000558         -0.38     49.15      0.82
   0.00000429   0.00000558  -0.00004536          0.63      0.82     -6.67


     bfgs converged in   3 scf cycles and   2 bfgs steps
     (criteria: energy < 0.10E-03, force < 0.10E-02)

     End of BFGS Geometry Optimization

     Final energy   =   -2318.8103298611 Ry
Begin final coordinates

ATOMIC_POSITIONS (crystal)
O0       0.000000000   0.000000000   0.374164957    0   0   1
O0       0.000000000   0.500000000   0.395257945    0   0   1
Mn1      0.250000000   0.500000000   0.447844726    0   0   1
Mn1      0.000000000   0.000000000   0.447354969    0   0   1
O0       0.250000000   0.800000000   0.446180416    0   0   1
O0       0.250000000   0.200000000   0.449524674    0   0   1
O0       0.000000000   0.500000000   0.495047091    0   0   1
O0       0.000000000   0.000000000   0.525481234    0   0   1
Mn1      0.250000000   0.000000000   0.574657376    0   0   1
Mn1      0.000000000   0.500000000   0.573093480    0   0   1
O0       0.250000000   0.700000000   0.582110406    0   0   1
O0       0.250000000   0.300000000   0.582474405    0   0   1
O0       0.000000000   0.000000000   0.622743097    0   0   1
O0       0.500000000   0.000000000   0.374014855    0   0   1
O0       0.500000000   0.500000000   0.395089989    0   0   1
Mn1      0.750000000   0.500000000   0.447837711    0   0   1
Mn1      0.500000000   0.000000000   0.447084001    0   0   1
O0       0.750000000   0.800000000   0.446181052    0   0   1
O0       0.750000000   0.200000000   0.449543027    0   0   1
O0       0.500000000   0.500000000   0.497339961    0   0   1
O0       0.500000000   0.000000000   0.525610265    0   0   1
Mn1      0.750000000   0.000000000   0.574656875    0   0   1
Mn1      0.500000000   0.500000000   0.573481423    0   0   1
O0       0.750000000   0.700000000   0.582132446    0   0   1
O0       0.750000000   0.300000000   0.582454178    0   0   1
O0       0.500000000   0.000000000   0.623320403    0   0   1
H2       0.000526693   0.648224903   0.379776059
H2       0.500523582   0.647432915   0.379380106
H2       0.161243998   0.042932415   0.363478021
H2       0.661255876   0.043383074   0.363421930
O0       0.499895801   0.500669602   0.646372923
End final coordinates



     init_run     :    112.63s CPU    114.56s WALL (       1 calls)
     electrons    :  13979.81s CPU  14502.24s WALL (       3 calls)
     update_pot   :     34.95s CPU     36.10s WALL (       2 calls)
     forces       :    598.02s CPU    605.57s WALL (       3 calls)
     stress       :   2981.12s CPU   3125.16s WALL (       3 calls)

     Called by init_run:
     wfcinit      :     50.55s CPU     51.85s WALL (       1 calls)
     potinit      :      7.63s CPU      8.02s WALL (       1 calls)

     Called by electrons:
     c_bands      :   7900.89s CPU   8207.57s WALL (      61 calls)
     sum_band     :   3140.93s CPU   3255.19s WALL (      61 calls)
     v_of_rho     :    128.44s CPU    143.10s WALL (      63 calls)
     newd         :   2856.59s CPU   2864.78s WALL (      63 calls)
     mix_rho      :     22.22s CPU     22.51s WALL (      61 calls)

     Called by c_bands:
     init_us_2    :     24.57s CPU     24.76s WALL (     810 calls)
     cegterg      :   7672.18s CPU   7839.49s WALL (     305 calls)

     Called by *egterg:
     h_psi        :   4407.43s CPU   4490.11s WALL (     917 calls)
     s_psi        :    551.64s CPU    557.91s WALL (    1082 calls)
     g_psi        :      9.68s CPU      9.68s WALL (     607 calls)
     cdiaghg      :    810.66s CPU    812.94s WALL (     897 calls)

     Called by h_psi:
     add_vuspsi   :    444.25s CPU    450.14s WALL (     917 calls)
     vhpsi        :    494.35s CPU    499.39s WALL (     917 calls)

     General routines
     calbec       :   1294.94s CPU   1309.01s WALL (    7109 calls)
     fft          :    143.95s CPU    175.32s WALL (    2063 calls)
     ffts         :      1.67s CPU      1.74s WALL (     248 calls)
     fftw         :   2412.60s CPU   2493.34s WALL (  543245 calls)
     interpolate  :     17.17s CPU     17.49s WALL (     248 calls)
     davcio       :      0.04s CPU     13.24s WALL (     945 calls)

     Parallel routines
     fft_scatter  :    876.60s CPU    986.11s WALL (  545556 calls)
     Hubbard U routines
     new_ns       :    107.97s CPU    113.97s WALL (      61 calls)
     vhpsi        :    494.35s CPU    499.39s WALL (     917 calls)
     force_hub    :    152.68s CPU    156.75s WALL (       3 calls)
     stres_hub    :   1566.00s CPU   1619.96s WALL (       3 calls)

     PWSCF        :     4h56m CPU        5h 8m WALL


   This run was terminated on:   9:41:19  26May2014            

=------------------------------------------------------------------------------=
   JOB DONE.
=------------------------------------------------------------------------------=
