
     Program PWSCF v.5.0.2 (svn rev. 9656) starts on  4May2014 at  9:52:13 

     This program is part of the open-source Quantum ESPRESSO suite
     for quantum simulation of materials; please cite
         "P. Giannozzi et al., J. Phys.:Condens. Matter 21 395502 (2009);
          URL http://www.quantum-espresso.org", 
     in publications or presentations arising from this work. More details at
     http://www.quantum-espresso.org/quote.php

     Parallel version (MPI), running on    16 processors
     K-points division:     npool     =       4
     R & G space division:  proc/nbgrp/npool/nimage =       4

     Current dimensions of program PWSCF are:
     Max number of different atomic species (ntypx) = 10
     Max number of k-points (npk) =  40000
     Max angular momentum in pseudopotentials (lmaxx) =  3
     Reading input from pwscf.in
Warning: card &CELL ignored
Warning: card / ignored

     Subspace diagonalization in iterative solution of the eigenvalue problem:
     a serial algorithm will be used


     Parallelization info
     --------------------
     sticks:   dense  smooth     PW     G-vecs:    dense   smooth      PW
     Min        1244     397    112               291872    52833    7934
     Max        1245     398    113               291883    52857    7939
     Sum        4979    1589    451              1167509   211387   31747



     bravais-lattice index     =            0
     lattice parameter (alat)  =      10.7336  a.u.
     unit-cell volume          =    6184.1966 (a.u.)^3
     number of atoms/cell      =           31
     number of atomic types    =            3
     number of electrons       =       238.00 (up: 130.00, down: 108.00)
     number of Kohn-Sham states=          345
     kinetic-energy cutoff     =      40.0000  Ry
     charge density cutoff     =     500.0000  Ry
     convergence threshold     =      1.0E-06
     mixing beta               =       0.7000
     number of iterations used =            8  plain     mixing
     Exchange-correlation      = SLA  PW   PBE  PBE ( 1 4 3 4 0)
     EXX-fraction              =        0.00
     nstep                     =           50


     celldm(1)=  10.733644  celldm(2)=   0.000000  celldm(3)=   0.000000
     celldm(4)=   0.000000  celldm(5)=   0.000000  celldm(6)=   0.000000

     crystal axes: (cart. coord. in units of alat)
               a(1) = (   1.000000   0.000000   0.000000 )  
               a(2) = (   0.000000   1.085558   0.000000 )  
               a(3) = (   0.000000   0.000000   4.606685 )  

     reciprocal axes: (cart. coord. in units 2 pi/alat)
               b(1) = (  1.000000  0.000000  0.000000 )  
               b(2) = (  0.000000  0.921185  0.000000 )  
               b(3) = (  0.000000  0.000000  0.217076 )  


     PseudoPot. # 1 for O  read from file:
     /home/camp/zhonxu/pseudo/o_pbe_v1.01.uspp.F.UPF
     MD5 check sum: 2bcb18d16ea4b960afae9ec6d52f22d2
     Pseudo is Ultrasoft + core correction, Zval =  6.0
     Generated by new atomic code, or converted to UPF format
     Using radial grid of  737 points,  5 beta functions with: 
                l(1) =   0
                l(2) =   0
                l(3) =   1
                l(4) =   1
                l(5) =   2
     Q(r) pseudized with  8 coefficients,  rinner =    0.900   0.900   0.900
                                                       0.900   0.900

     PseudoPot. # 2 for Mn read from file:
     /home/camp/zhonxu/pseudo/mn_pbe_v1.uspp.F.UPF
     MD5 check sum: 5fd7c7b5c956fd19902447332617373a
     Pseudo is Ultrasoft + core correction, Zval = 15.0
     Generated by new atomic code, or converted to UPF format
     Using radial grid of  859 points,  6 beta functions with: 
                l(1) =   0
                l(2) =   0
                l(3) =   1
                l(4) =   1
                l(5) =   2
                l(6) =   2
     Q(r) pseudized with  6 coefficients,  rinner =    1.150   1.150   1.150
                                                       1.150   1.150

     PseudoPot. # 3 for H  read from file:
     /home/camp/zhonxu/pseudo/h_pbe_v1.uspp.F.UPF
     MD5 check sum: 3408e3ff4ec8b0a4e358431e7e038a48
     Pseudo is Ultrasoft, Zval =  1.0
     Generated by new atomic code, or converted to UPF format
     Using radial grid of  615 points,  2 beta functions with: 
                l(1) =   0
                l(2) =   0
     Q(r) pseudized with  8 coefficients,  rinner =    0.700

     atomic species   valence    mass     pseudopotential
        O0             6.00    15.99940     O ( 1.00)
        Mn1           15.00    54.93800     Mn( 1.00)
        H2             1.00     1.00794     H ( 1.00)

     Starting magnetic structure 
     atomic species   magnetization
        O0           0.000
        Mn1          0.600
        H2           0.000


     Simplified LDA+U calculation (l_max = 2) with parameters (eV):
     atomic species    L          U    alpha       J0     beta
        Mn1            2     3.0000   0.0000   0.0000   0.0000



     No symmetry found



   Cartesian axes

     site n.     atom                  positions (alat units)
         1           O0  tau(   1) = (   0.0000000   0.0000000   1.7399910  )
         2           O0  tau(   2) = (   0.0000000   0.5427791   1.8336449  )
         3           Mn1 tau(   3) = (   0.2500000   0.5427791   2.0703364  )
         4           Mn1 tau(   4) = (   0.0000000   0.0000000   2.0664668  )
         5           O0  tau(   5) = (   0.2500000   0.8684466   2.0675263  )
         6           O0  tau(   6) = (   0.2500000   0.2171117   2.0713959  )
         7           O0  tau(   7) = (   0.0000000   0.5427791   2.2853304  )
         8           O0  tau(   8) = (   0.0000000   0.0000000   2.4130738  )
         9           Mn1 tau(   9) = (   0.2500000   0.0000000   2.6404597  )
        10           Mn1 tau(  10) = (   0.0000000   0.5427791   2.6100556  )
        11           O0  tau(  11) = (   0.2500000   0.7598908   2.6550169  )
        12           O0  tau(  12) = (   0.2500000   0.3256675   2.6553393  )
        13           O0  tau(  13) = (   0.0000000   0.0000000   2.8422786  )
        14           O0  tau(  14) = (   0.5000000   0.0000000   1.7417876  )
        15           O0  tau(  15) = (   0.5000000   0.5427791   1.8324472  )
        16           Mn1 tau(  16) = (   0.7500000   0.5427791   2.0703364  )
        17           Mn1 tau(  17) = (   0.5000000   0.0000000   2.0689544  )
        18           O0  tau(  18) = (   0.7500000   0.8684466   2.0673421  )
        19           O0  tau(  19) = (   0.7500000   0.2171117   2.0716263  )
        20           O0  tau(  20) = (   0.5000000   0.5427791   2.2770384  )
        21           O0  tau(  21) = (   0.5000000   0.0000000   2.4133962  )
        22           Mn1 tau(  22) = (   0.7500000   0.0000000   2.6405058  )
        23           Mn1 tau(  23) = (   0.5000000   0.5427791   2.7093297  )
        24           O0  tau(  24) = (   0.7500000   0.7598908   2.6549708  )
        25           O0  tau(  25) = (   0.7500000   0.3256675   2.6552472  )
        26           O0  tau(  26) = (   0.5000000   0.0000000   2.8420483  )
        27           H2  tau(  27) = (   0.0000300   0.7005108   1.7564369  )
        28           H2  tau(  28) = (   0.5000400   0.7015529   1.7568515  )
        29           H2  tau(  29) = (   0.1610500   0.0407627   1.6853097  )
        30           H2  tau(  30) = (   0.6609300   0.0408604   1.6868759  )
        31           O0  tau(  31) = (   0.5000700   0.5432134   2.9889094  )

     number of k points=    20  Methfessel-Paxton smearing, width (Ry)=  0.0100
                       cart. coord. in units 2pi/alat
        k(    1) = (   0.0000000   0.0000000   0.0000000), wk =   0.0625000
        k(    2) = (   0.0000000   0.2302962   0.0000000), wk =   0.1250000
        k(    3) = (   0.0000000  -0.4605925   0.0000000), wk =   0.0625000
        k(    4) = (   0.2500000   0.0000000   0.0000000), wk =   0.1250000
        k(    5) = (   0.2500000   0.2302962   0.0000000), wk =   0.1250000
        k(    6) = (   0.2500000  -0.4605925   0.0000000), wk =   0.1250000
        k(    7) = (  -0.5000000   0.0000000   0.0000000), wk =   0.0625000
        k(    8) = (  -0.5000000   0.2302962   0.0000000), wk =   0.1250000
        k(    9) = (  -0.5000000  -0.4605925   0.0000000), wk =   0.0625000
        k(   10) = (  -0.2500000   0.2302962   0.0000000), wk =   0.1250000
        k(   11) = (   0.0000000   0.0000000   0.0000000), wk =   0.0625000
        k(   12) = (   0.0000000   0.2302962   0.0000000), wk =   0.1250000
        k(   13) = (   0.0000000  -0.4605925   0.0000000), wk =   0.0625000
        k(   14) = (   0.2500000   0.0000000   0.0000000), wk =   0.1250000
        k(   15) = (   0.2500000   0.2302962   0.0000000), wk =   0.1250000
        k(   16) = (   0.2500000  -0.4605925   0.0000000), wk =   0.1250000
        k(   17) = (  -0.5000000   0.0000000   0.0000000), wk =   0.0625000
        k(   18) = (  -0.5000000   0.2302962   0.0000000), wk =   0.1250000
        k(   19) = (  -0.5000000  -0.4605925   0.0000000), wk =   0.0625000
        k(   20) = (  -0.2500000   0.2302962   0.0000000), wk =   0.1250000

     Dense  grid:  1167509 G-vectors     FFT dimensions: (  80,  90, 360)

     Smooth grid:   211387 G-vectors     FFT dimensions: (  45,  48, 200)

     Largest allocated arrays     est. size (Mb)     dimensions
        Kohn-Sham Wavefunctions        34.96 Mb     (   6641,  345)
        Atomic wavefunctions           18.65 Mb     (   6641,  184)
        NL pseudopotentials            40.43 Mb     (   6641,  399)
        Each V/rho on FFT grid         19.78 Mb     ( 648000,   2)
        Each G-vector array             2.23 Mb     ( 291883)
        G-vector shells                 0.97 Mb     ( 127585)
     Largest temporary arrays     est. size (Mb)     dimensions
        Auxiliary wavefunctions       139.84 Mb     (   6641, 1380)
        Each subspace H/S matrix       29.06 Mb     (1380,1380)
        Each <psi_i|beta_j> matrix      2.10 Mb     (    399,  345)
        Arrays for rho mixing          79.10 Mb     ( 648000,   8)

     Check: negative/imaginary core charge=   -0.000022    0.000000

     Initial potential from superposition of free atoms
     Check: negative starting charge=(component1):   -0.000737
     Check: negative starting charge=(component2):   -0.000364

     starting charge  229.99987, renormalised to  238.00000

     negative rho (up, down):  0.762E-03 0.377E-03
     Number of +U iterations with fixed ns =  0
     Starting occupations:
 --- enter write_ns ---
 LDA+U parameters:
U( 2)     =  3.00000000
alpha( 2) =  0.00000000
atom    3   Tr[ns(na)] (up, down, total) =   5.00000  0.00000  5.00000
   spin  1
    eigenvalues: 
  1.000  1.000  1.000  1.000  1.000
    eigenvectors:
  1.000  0.000  0.000  0.000  0.000
  0.000  1.000  0.000  0.000  0.000
  0.000  0.000  1.000  0.000  0.000
  0.000  0.000  0.000  1.000  0.000
  0.000  0.000  0.000  0.000  1.000
    occupations:
  1.000  0.000  0.000  0.000  0.000
  0.000  1.000  0.000  0.000  0.000
  0.000  0.000  1.000  0.000  0.000
  0.000  0.000  0.000  1.000  0.000
  0.000  0.000  0.000  0.000  1.000
   spin  2
    eigenvalues: 
  0.000  0.000  0.000  0.000  0.000
    eigenvectors:
  1.000  0.000  0.000  0.000  0.000
  0.000  1.000  0.000  0.000  0.000
  0.000  0.000  1.000  0.000  0.000
  0.000  0.000  0.000  1.000  0.000
  0.000  0.000  0.000  0.000  1.000
    occupations:
  0.000  0.000  0.000  0.000  0.000
  0.000  0.000  0.000  0.000  0.000
  0.000  0.000  0.000  0.000  0.000
  0.000  0.000  0.000  0.000  0.000
  0.000  0.000  0.000  0.000  0.000
atomic mag. moment =     5.000000
atom    4   Tr[ns(na)] (up, down, total) =   5.00000  0.00000  5.00000
   spin  1
    eigenvalues: 
  1.000  1.000  1.000  1.000  1.000
    eigenvectors:
  1.000  0.000  0.000  0.000  0.000
  0.000  1.000  0.000  0.000  0.000
  0.000  0.000  1.000  0.000  0.000
  0.000  0.000  0.000  1.000  0.000
  0.000  0.000  0.000  0.000  1.000
    occupations:
  1.000  0.000  0.000  0.000  0.000
  0.000  1.000  0.000  0.000  0.000
  0.000  0.000  1.000  0.000  0.000
  0.000  0.000  0.000  1.000  0.000
  0.000  0.000  0.000  0.000  1.000
   spin  2
    eigenvalues: 
  0.000  0.000  0.000  0.000  0.000
    eigenvectors:
  1.000  0.000  0.000  0.000  0.000
  0.000  1.000  0.000  0.000  0.000
  0.000  0.000  1.000  0.000  0.000
  0.000  0.000  0.000  1.000  0.000
  0.000  0.000  0.000  0.000  1.000
    occupations:
  0.000  0.000  0.000  0.000  0.000
  0.000  0.000  0.000  0.000  0.000
  0.000  0.000  0.000  0.000  0.000
  0.000  0.000  0.000  0.000  0.000
  0.000  0.000  0.000  0.000  0.000
atomic mag. moment =     5.000000
atom    9   Tr[ns(na)] (up, down, total) =   5.00000  0.00000  5.00000
   spin  1
    eigenvalues: 
  1.000  1.000  1.000  1.000  1.000
    eigenvectors:
  1.000  0.000  0.000  0.000  0.000
  0.000  1.000  0.000  0.000  0.000
  0.000  0.000  1.000  0.000  0.000
  0.000  0.000  0.000  1.000  0.000
  0.000  0.000  0.000  0.000  1.000
    occupations:
  1.000  0.000  0.000  0.000  0.000
  0.000  1.000  0.000  0.000  0.000
  0.000  0.000  1.000  0.000  0.000
  0.000  0.000  0.000  1.000  0.000
  0.000  0.000  0.000  0.000  1.000
   spin  2
    eigenvalues: 
  0.000  0.000  0.000  0.000  0.000
    eigenvectors:
  1.000  0.000  0.000  0.000  0.000
  0.000  1.000  0.000  0.000  0.000
  0.000  0.000  1.000  0.000  0.000
  0.000  0.000  0.000  1.000  0.000
  0.000  0.000  0.000  0.000  1.000
    occupations:
  0.000  0.000  0.000  0.000  0.000
  0.000  0.000  0.000  0.000  0.000
  0.000  0.000  0.000  0.000  0.000
  0.000  0.000  0.000  0.000  0.000
  0.000  0.000  0.000  0.000  0.000
atomic mag. moment =     5.000000
atom   10   Tr[ns(na)] (up, down, total) =   5.00000  0.00000  5.00000
   spin  1
    eigenvalues: 
  1.000  1.000  1.000  1.000  1.000
    eigenvectors:
  1.000  0.000  0.000  0.000  0.000
  0.000  1.000  0.000  0.000  0.000
  0.000  0.000  1.000  0.000  0.000
  0.000  0.000  0.000  1.000  0.000
  0.000  0.000  0.000  0.000  1.000
    occupations:
  1.000  0.000  0.000  0.000  0.000
  0.000  1.000  0.000  0.000  0.000
  0.000  0.000  1.000  0.000  0.000
  0.000  0.000  0.000  1.000  0.000
  0.000  0.000  0.000  0.000  1.000
   spin  2
    eigenvalues: 
  0.000  0.000  0.000  0.000  0.000
    eigenvectors:
  1.000  0.000  0.000  0.000  0.000
  0.000  1.000  0.000  0.000  0.000
  0.000  0.000  1.000  0.000  0.000
  0.000  0.000  0.000  1.000  0.000
  0.000  0.000  0.000  0.000  1.000
    occupations:
  0.000  0.000  0.000  0.000  0.000
  0.000  0.000  0.000  0.000  0.000
  0.000  0.000  0.000  0.000  0.000
  0.000  0.000  0.000  0.000  0.000
  0.000  0.000  0.000  0.000  0.000
atomic mag. moment =     5.000000
atom   16   Tr[ns(na)] (up, down, total) =   5.00000  0.00000  5.00000
   spin  1
    eigenvalues: 
  1.000  1.000  1.000  1.000  1.000
    eigenvectors:
  1.000  0.000  0.000  0.000  0.000
  0.000  1.000  0.000  0.000  0.000
  0.000  0.000  1.000  0.000  0.000
  0.000  0.000  0.000  1.000  0.000
  0.000  0.000  0.000  0.000  1.000
    occupations:
  1.000  0.000  0.000  0.000  0.000
  0.000  1.000  0.000  0.000  0.000
  0.000  0.000  1.000  0.000  0.000
  0.000  0.000  0.000  1.000  0.000
  0.000  0.000  0.000  0.000  1.000
   spin  2
    eigenvalues: 
  0.000  0.000  0.000  0.000  0.000
    eigenvectors:
  1.000  0.000  0.000  0.000  0.000
  0.000  1.000  0.000  0.000  0.000
  0.000  0.000  1.000  0.000  0.000
  0.000  0.000  0.000  1.000  0.000
  0.000  0.000  0.000  0.000  1.000
    occupations:
  0.000  0.000  0.000  0.000  0.000
  0.000  0.000  0.000  0.000  0.000
  0.000  0.000  0.000  0.000  0.000
  0.000  0.000  0.000  0.000  0.000
  0.000  0.000  0.000  0.000  0.000
atomic mag. moment =     5.000000
atom   17   Tr[ns(na)] (up, down, total) =   5.00000  0.00000  5.00000
   spin  1
    eigenvalues: 
  1.000  1.000  1.000  1.000  1.000
    eigenvectors:
  1.000  0.000  0.000  0.000  0.000
  0.000  1.000  0.000  0.000  0.000
  0.000  0.000  1.000  0.000  0.000
  0.000  0.000  0.000  1.000  0.000
  0.000  0.000  0.000  0.000  1.000
    occupations:
  1.000  0.000  0.000  0.000  0.000
  0.000  1.000  0.000  0.000  0.000
  0.000  0.000  1.000  0.000  0.000
  0.000  0.000  0.000  1.000  0.000
  0.000  0.000  0.000  0.000  1.000
   spin  2
    eigenvalues: 
  0.000  0.000  0.000  0.000  0.000
    eigenvectors:
  1.000  0.000  0.000  0.000  0.000
  0.000  1.000  0.000  0.000  0.000
  0.000  0.000  1.000  0.000  0.000
  0.000  0.000  0.000  1.000  0.000
  0.000  0.000  0.000  0.000  1.000
    occupations:
  0.000  0.000  0.000  0.000  0.000
  0.000  0.000  0.000  0.000  0.000
  0.000  0.000  0.000  0.000  0.000
  0.000  0.000  0.000  0.000  0.000
  0.000  0.000  0.000  0.000  0.000
atomic mag. moment =     5.000000
atom   22   Tr[ns(na)] (up, down, total) =   5.00000  0.00000  5.00000
   spin  1
    eigenvalues: 
  1.000  1.000  1.000  1.000  1.000
    eigenvectors:
  1.000  0.000  0.000  0.000  0.000
  0.000  1.000  0.000  0.000  0.000
  0.000  0.000  1.000  0.000  0.000
  0.000  0.000  0.000  1.000  0.000
  0.000  0.000  0.000  0.000  1.000
    occupations:
  1.000  0.000  0.000  0.000  0.000
  0.000  1.000  0.000  0.000  0.000
  0.000  0.000  1.000  0.000  0.000
  0.000  0.000  0.000  1.000  0.000
  0.000  0.000  0.000  0.000  1.000
   spin  2
    eigenvalues: 
  0.000  0.000  0.000  0.000  0.000
    eigenvectors:
  1.000  0.000  0.000  0.000  0.000
  0.000  1.000  0.000  0.000  0.000
  0.000  0.000  1.000  0.000  0.000
  0.000  0.000  0.000  1.000  0.000
  0.000  0.000  0.000  0.000  1.000
    occupations:
  0.000  0.000  0.000  0.000  0.000
  0.000  0.000  0.000  0.000  0.000
  0.000  0.000  0.000  0.000  0.000
  0.000  0.000  0.000  0.000  0.000
  0.000  0.000  0.000  0.000  0.000
atomic mag. moment =     5.000000
atom   23   Tr[ns(na)] (up, down, total) =   5.00000  0.00000  5.00000
   spin  1
    eigenvalues: 
  1.000  1.000  1.000  1.000  1.000
    eigenvectors:
  1.000  0.000  0.000  0.000  0.000
  0.000  1.000  0.000  0.000  0.000
  0.000  0.000  1.000  0.000  0.000
  0.000  0.000  0.000  1.000  0.000
  0.000  0.000  0.000  0.000  1.000
    occupations:
  1.000  0.000  0.000  0.000  0.000
  0.000  1.000  0.000  0.000  0.000
  0.000  0.000  1.000  0.000  0.000
  0.000  0.000  0.000  1.000  0.000
  0.000  0.000  0.000  0.000  1.000
   spin  2
    eigenvalues: 
  0.000  0.000  0.000  0.000  0.000
    eigenvectors:
  1.000  0.000  0.000  0.000  0.000
  0.000  1.000  0.000  0.000  0.000
  0.000  0.000  1.000  0.000  0.000
  0.000  0.000  0.000  1.000  0.000
  0.000  0.000  0.000  0.000  1.000
    occupations:
  0.000  0.000  0.000  0.000  0.000
  0.000  0.000  0.000  0.000  0.000
  0.000  0.000  0.000  0.000  0.000
  0.000  0.000  0.000  0.000  0.000
  0.000  0.000  0.000  0.000  0.000
atomic mag. moment =     5.000000
N of occupied +U levels =  40.0000000
 --- exit write_ns ---
 Atomic wfc used for LDA+U Projector are NOT orthogonalized
     Starting wfc are  184 randomized atomic wfcs

     total cpu time spent up to now is      127.7 secs

     per-process dynamical memory:   417.7 Mb

     Self-consistent Calculation

     iteration #  1     ecut=    40.00 Ry     beta=0.70
     Davidson diagonalization with overlap
     ethr =  1.00E-02,  avg # of iterations =  5.6
 --- enter write_ns ---
 LDA+U parameters:
U( 2)     =  3.00000000
alpha( 2) =  0.00000000
atom    3   Tr[ns(na)] (up, down, total) =   4.10308  0.56461  4.66769
   spin  1
    eigenvalues: 
  0.627  0.674  0.846  0.977  0.980
    eigenvectors:
  0.250  0.003  0.011  0.668  0.067
  0.012  0.986  0.000  0.000  0.002
  0.004  0.000  0.966  0.030  0.001
  0.734  0.009  0.017  0.220  0.020
  0.000  0.002  0.006  0.082  0.910
    occupations:
  0.887  0.003  0.024 -0.150 -0.003
  0.003  0.674 -0.003  0.004 -0.013
  0.024 -0.003  0.849  0.001  0.010
 -0.150  0.004  0.001  0.715 -0.001
 -0.003 -0.013  0.010 -0.001  0.978
   spin  2
    eigenvalues: 
  0.058  0.062  0.065  0.184  0.197
    eigenvectors:
  0.375  0.273  0.166  0.025  0.162
  0.000  0.000  0.001  0.889  0.110
  0.487  0.106  0.407  0.000  0.000
  0.089  0.061  0.036  0.085  0.728
  0.049  0.560  0.390  0.001  0.000
    occupations:
  0.086  0.000 -0.002  0.052  0.000
  0.000  0.185  0.000 -0.005  0.003
 -0.002  0.000  0.061  0.002 -0.002
  0.052 -0.005  0.002  0.170 -0.000
  0.000  0.003 -0.002 -0.000  0.063
atomic mag. moment =     3.538473
atom    4   Tr[ns(na)] (up, down, total) =   3.98205  0.57655  4.55860
   spin  1
    eigenvalues: 
  0.567  0.691  0.859  0.886  0.980
    eigenvectors:
  0.000  0.949  0.049  0.001  0.002
  0.000  0.046  0.940  0.014  0.000
  0.000  0.003  0.011  0.982  0.004
  0.000  0.002  0.000  0.004  0.994
  1.000  0.000  0.000  0.000  0.000
    occupations:
  0.699  0.035  0.009  0.013 -0.000
  0.035  0.851 -0.005 -0.004  0.003
  0.009 -0.005  0.886 -0.007  0.000
  0.013 -0.004 -0.007  0.979 -0.000
 -0.000  0.003  0.000 -0.000  0.567
   spin  2
    eigenvalues: 
  0.057  0.064  0.073  0.185  0.198
    eigenvectors:
  0.008  0.001  0.000  0.000  0.991
  0.011  0.826  0.161  0.000  0.002
  0.002  0.159  0.839  0.000  0.000
  0.979  0.014  0.000  0.000  0.007
  0.000  0.000  0.000  1.000  0.000
    occupations:
  0.196  0.006  0.002 -0.012  0.000
  0.006  0.066 -0.003  0.000 -0.001
  0.002 -0.003  0.072  0.000  0.000
 -0.012  0.000  0.000  0.058  0.000
  0.000 -0.001  0.000  0.000  0.185
atomic mag. moment =     3.405504
atom    9   Tr[ns(na)] (up, down, total) =   4.39030  0.62858  5.01889
   spin  1
    eigenvalues: 
  0.694  0.707  0.991  0.994  1.003
    eigenvectors:
  0.080  0.079  0.840  0.000  0.000
  0.496  0.504  0.000  0.000  0.000
  0.000  0.000  0.000  0.110  0.890
  0.423  0.417  0.160  0.000  0.000
  0.000  0.000  0.000  0.890  0.110
    occupations:
  0.945  0.003 -0.000 -0.106  0.000
  0.003  0.701  0.000  0.006  0.000
 -0.000  0.000  1.002 -0.000  0.003
 -0.106  0.006 -0.000  0.747  0.000
  0.000  0.000  0.003  0.000  0.995
   spin  2
    eigenvalues: 
  0.068  0.074  0.078  0.203  0.207
    eigenvectors:
  0.000  0.856  0.000  0.144  0.000
  0.000  0.000  0.000  0.000  1.000
  0.998  0.000  0.002  0.000  0.000
  0.000  0.144  0.000  0.856  0.000
  0.002  0.000  0.998  0.000  0.000
    occupations:
  0.093  0.000  0.000  0.045 -0.000
  0.000  0.207  0.000 -0.000 -0.000
  0.000  0.000  0.068  0.000  0.000
  0.045 -0.000  0.000  0.184 -0.000
 -0.000 -0.000  0.000 -0.000  0.078
atomic mag. moment =     3.761717
atom   10   Tr[ns(na)] (up, down, total) =   4.88156  0.48735  5.36890
   spin  1
    eigenvalues: 
  0.901  0.981  0.996  1.000  1.004
    eigenvectors:
  0.000  0.804  0.195  0.000  0.000
  0.000  0.000  0.000  1.000  0.000
  0.000  0.000  0.000  0.000  1.000
  0.000  0.196  0.804  0.000  0.000
  1.000  0.000  0.000  0.000  0.000
    occupations:
  0.984 -0.000  0.000  0.006  0.000
 -0.000  1.000 -0.000  0.000 -0.000
  0.000 -0.000  1.004 -0.000 -0.000
  0.006  0.000 -0.000  0.993 -0.000
  0.000 -0.000 -0.000 -0.000  0.901
   spin  2
    eigenvalues: 
  0.054  0.058  0.064  0.132  0.179
    eigenvectors:
  0.018  0.000  0.000  0.982  0.000
  0.000  0.000  1.000  0.000  0.000
  0.000  1.000  0.000  0.000  0.000
  0.982  0.000  0.000  0.018  0.000
  0.000  0.000  0.000  0.000  1.000
    occupations:
  0.130  0.000 -0.000 -0.010 -0.000
  0.000  0.064 -0.000 -0.000  0.000
 -0.000 -0.000  0.058 -0.000 -0.000
 -0.010 -0.000 -0.000  0.055  0.000
 -0.000  0.000 -0.000  0.000  0.179
atomic mag. moment =     4.394211
atom   16   Tr[ns(na)] (up, down, total) =   4.10347  0.56461  4.66808
   spin  1
    eigenvalues: 
  0.627  0.674  0.847  0.975  0.981
    eigenvectors:
  0.251  0.002  0.012  0.435  0.300
  0.009  0.989  0.000  0.001  0.001
  0.004  0.000  0.970  0.019  0.007
  0.737  0.006  0.017  0.145  0.094
  0.000  0.002  0.001  0.399  0.598
    occupations:
  0.887 -0.002  0.024 -0.150  0.004
 -0.002  0.674  0.002 -0.004 -0.013
  0.024  0.002  0.850  0.001 -0.003
 -0.150 -0.004  0.001  0.715  0.000
  0.004 -0.013 -0.003  0.000  0.978
   spin  2
    eigenvalues: 
  0.058  0.062  0.065  0.184  0.197
    eigenvectors:
  0.379  0.267  0.168  0.025  0.162
  0.000  0.000  0.001  0.890  0.109
  0.485  0.107  0.408  0.000  0.000
  0.089  0.060  0.037  0.085  0.729
  0.047  0.566  0.387  0.001  0.000
    occupations:
  0.086 -0.000 -0.002  0.052 -0.000
 -0.000  0.185 -0.000  0.005  0.003
 -0.002 -0.000  0.061  0.002  0.002
  0.052  0.005  0.002  0.170  0.000
 -0.000  0.003  0.002  0.000  0.063
atomic mag. moment =     3.538857
atom   17   Tr[ns(na)] (up, down, total) =   3.97768  0.57524  4.55292
   spin  1
    eigenvalues: 
  0.566  0.688  0.860  0.884  0.979
    eigenvectors:
  0.000  0.951  0.046  0.001  0.002
  0.000  0.044  0.942  0.013  0.000
  0.000  0.002  0.011  0.982  0.005
  0.000  0.002  0.000  0.004  0.993
  1.000  0.000  0.000  0.000  0.000
    occupations:
  0.697  0.035  0.009  0.013 -0.000
  0.035  0.853 -0.004 -0.004  0.003
  0.009 -0.004  0.884 -0.007  0.000
  0.013 -0.004 -0.007  0.978 -0.000
 -0.000  0.003  0.000 -0.000  0.566
   spin  2
    eigenvalues: 
  0.056  0.064  0.073  0.184  0.198
    eigenvectors:
  0.008  0.001  0.000  0.000  0.991
  0.010  0.820  0.168  0.000  0.002
  0.002  0.166  0.832  0.000  0.000
  0.979  0.013  0.000  0.000  0.007
  0.000  0.000  0.000  1.000  0.000
    occupations:
  0.197  0.006  0.002 -0.012  0.000
  0.006  0.065 -0.003  0.000 -0.001
  0.002 -0.003  0.071  0.000  0.000
 -0.012  0.000  0.000  0.058  0.000
  0.000 -0.001  0.000  0.000  0.184
atomic mag. moment =     3.402444
atom   22   Tr[ns(na)] (up, down, total) =   4.38938  0.62864  5.01802
   spin  1
    eigenvalues: 
  0.698  0.703  0.991  0.994  1.003
    eigenvectors:
  0.113  0.045  0.842  0.000  0.000
  0.299  0.701  0.000  0.000  0.000
  0.000  0.000  0.000  0.109  0.891
  0.588  0.253  0.158  0.000  0.000
  0.000  0.000  0.000  0.891  0.109
    occupations:
  0.945  0.003 -0.000 -0.106  0.000
  0.003  0.701  0.000  0.001  0.000
 -0.000  0.000  1.002 -0.000 -0.003
 -0.106  0.001 -0.000  0.746  0.000
  0.000  0.000 -0.003  0.000  0.995
   spin  2
    eigenvalues: 
  0.068  0.074  0.078  0.203  0.207
    eigenvectors:
  0.000  0.856  0.000  0.144  0.000
  0.000  0.000  0.000  0.000  1.000
  0.998  0.000  0.002  0.000  0.000
  0.000  0.144  0.000  0.856  0.000
  0.002  0.000  0.998  0.000  0.000
    occupations:
  0.093 -0.000  0.000  0.045  0.000
 -0.000  0.207 -0.000  0.000 -0.000
  0.000 -0.000  0.068  0.000 -0.000
  0.045  0.000  0.000  0.184 -0.000
  0.000 -0.000 -0.000 -0.000  0.078
atomic mag. moment =     3.760735
atom   23   Tr[ns(na)] (up, down, total) =   4.56256  0.69082  5.25338
   spin  1
    eigenvalues: 
  0.698  0.876  0.992  0.994  1.003
    eigenvectors:
  1.000  0.000  0.000  0.000  0.000
  0.000  0.000  0.000  1.000  0.000
  0.000  0.000  0.000  0.000  1.000
  0.000  0.000  1.000  0.000  0.000
  0.000  1.000  0.000  0.000  0.000
    occupations:
  0.698  0.000  0.001  0.005 -0.000
  0.000  0.994  0.000  0.000 -0.000
  0.001  0.000  1.003 -0.000 -0.000
  0.005  0.000 -0.000  0.992 -0.000
 -0.000 -0.000 -0.000 -0.000  0.876
   spin  2
    eigenvalues: 
  0.050  0.117  0.124  0.168  0.233
    eigenvectors:
  0.004  0.000  0.000  0.000  0.996
  0.000  0.000  1.000  0.000  0.000
  0.000  1.000  0.000  0.000  0.000
  0.996  0.000  0.000  0.000  0.004
  0.000  0.000  0.000  1.000  0.000
    occupations:
  0.232 -0.000 -0.000 -0.011 -0.000
 -0.000  0.124 -0.000 -0.000 -0.000
 -0.000 -0.000  0.117  0.000 -0.000
 -0.011 -0.000  0.000  0.051  0.000
 -0.000 -0.000 -0.000  0.000  0.168
atomic mag. moment =     3.871734
N of occupied +U levels =  39.1064849
 --- exit write_ns ---

     negative rho (up, down):  0.112E-02 0.107E-02

     total cpu time spent up to now is      625.2 secs

     total energy              =   -2300.67214859 Ry
     Harris-Foulkes estimate   =   -2317.39162763 Ry
     estimated scf accuracy    <      29.34742888 Ry

     total magnetization       =    22.00 Bohr mag/cell
     absolute magnetization    =    37.94 Bohr mag/cell

     iteration #  2     ecut=    40.00 Ry     beta=0.70
     Davidson diagonalization with overlap
     ethr =  1.00E-02,  avg # of iterations =  5.3

     negative rho (up, down):  0.899E-02 0.286E-02

     total cpu time spent up to now is     1131.2 secs

     total energy              =   -2173.42933366 Ry
     Harris-Foulkes estimate   =   -2557.44403117 Ry
     estimated scf accuracy    <    4775.57525570 Ry

     total magnetization       =    22.00 Bohr mag/cell
     absolute magnetization    =    22.39 Bohr mag/cell

     iteration #  3     ecut=    40.00 Ry     beta=0.70
     Davidson diagonalization with overlap
     ethr =  1.00E-02,  avg # of iterations =  5.5

     negative rho (up, down):  0.873E-02 0.794E-02

     total cpu time spent up to now is     1659.6 secs

     total energy              =   -2307.07450224 Ry
     Harris-Foulkes estimate   =   -2326.15593113 Ry
     estimated scf accuracy    <      94.95652108 Ry

     total magnetization       =    22.00 Bohr mag/cell
     absolute magnetization    =    24.24 Bohr mag/cell

     iteration #  4     ecut=    40.00 Ry     beta=0.70
     Davidson diagonalization with overlap
     ethr =  1.00E-02,  avg # of iterations =  3.1

     negative rho (up, down):  0.576E-02 0.267E-02

     total cpu time spent up to now is     1910.0 secs

     total energy              =   -2315.94374091 Ry
     Harris-Foulkes estimate   =   -2322.12947866 Ry
     estimated scf accuracy    <      29.35127425 Ry

     total magnetization       =    22.00 Bohr mag/cell
     absolute magnetization    =    30.37 Bohr mag/cell

     iteration #  5     ecut=    40.00 Ry     beta=0.70
     Davidson diagonalization with overlap
     ethr =  1.00E-02,  avg # of iterations =  1.1

     negative rho (up, down):  0.663E-02 0.257E-02

     total cpu time spent up to now is     2131.7 secs

     total energy              =   -2317.74545481 Ry
     Harris-Foulkes estimate   =   -2321.27286429 Ry
     estimated scf accuracy    <      16.82588621 Ry

     total magnetization       =    22.00 Bohr mag/cell
     absolute magnetization    =    28.45 Bohr mag/cell

     iteration #  6     ecut=    40.00 Ry     beta=0.70
     Davidson diagonalization with overlap
     ethr =  7.07E-03,  avg # of iterations =  2.5

     negative rho (up, down):  0.479E-02 0.232E-02

     total cpu time spent up to now is     2371.7 secs

     total energy              =   -2318.51870359 Ry
     Harris-Foulkes estimate   =   -2320.51015702 Ry
     estimated scf accuracy    <      14.59289225 Ry

     total magnetization       =    22.00 Bohr mag/cell
     absolute magnetization    =    28.68 Bohr mag/cell

     iteration #  7     ecut=    40.00 Ry     beta=0.70
     Davidson diagonalization with overlap
     ethr =  6.13E-03,  avg # of iterations =  1.0

     negative rho (up, down):  0.497E-02 0.237E-02

     total cpu time spent up to now is     2596.9 secs

     total energy              =   -2319.07201096 Ry
     Harris-Foulkes estimate   =   -2320.12230774 Ry
     estimated scf accuracy    <       6.24504880 Ry

     total magnetization       =    22.00 Bohr mag/cell
     absolute magnetization    =    28.34 Bohr mag/cell

     iteration #  8     ecut=    40.00 Ry     beta=0.70
     Davidson diagonalization with overlap
     ethr =  2.62E-03,  avg # of iterations =  1.0

     negative rho (up, down):  0.584E-02 0.207E-02

     total cpu time spent up to now is     2824.2 secs

     total energy              =   -2319.51515766 Ry
     Harris-Foulkes estimate   =   -2319.83491439 Ry
     estimated scf accuracy    <       1.91118533 Ry

     total magnetization       =    22.00 Bohr mag/cell
     absolute magnetization    =    27.56 Bohr mag/cell

     iteration #  9     ecut=    40.00 Ry     beta=0.70
     Davidson diagonalization with overlap
     ethr =  8.03E-04,  avg # of iterations =  4.6

     negative rho (up, down):  0.502E-02 0.175E-02

     total cpu time spent up to now is     3088.2 secs

     total energy              =   -2319.66264584 Ry
     Harris-Foulkes estimate   =   -2319.75863348 Ry
     estimated scf accuracy    <       1.01480983 Ry

     total magnetization       =    22.00 Bohr mag/cell
     absolute magnetization    =    27.34 Bohr mag/cell

     iteration # 10     ecut=    40.00 Ry     beta=0.70
     Davidson diagonalization with overlap
     ethr =  4.26E-04,  avg # of iterations =  2.9

     negative rho (up, down):  0.365E-02 0.155E-02

     total cpu time spent up to now is     3333.5 secs

     total energy              =   -2319.66534299 Ry
     Harris-Foulkes estimate   =   -2319.70752147 Ry
     estimated scf accuracy    <       0.32129170 Ry

     total magnetization       =    22.00 Bohr mag/cell
     absolute magnetization    =    27.33 Bohr mag/cell

     iteration # 11     ecut=    40.00 Ry     beta=0.70
     Davidson diagonalization with overlap
     ethr =  1.35E-04,  avg # of iterations =  5.0

     negative rho (up, down):  0.208E-02 0.112E-02

     total cpu time spent up to now is     3600.3 secs

     total energy              =   -2319.64553574 Ry
     Harris-Foulkes estimate   =   -2319.71193450 Ry
     estimated scf accuracy    <       0.53507684 Ry

     total magnetization       =    22.00 Bohr mag/cell
     absolute magnetization    =    27.65 Bohr mag/cell

     iteration # 12     ecut=    40.00 Ry     beta=0.70
     Davidson diagonalization with overlap
     ethr =  1.35E-04,  avg # of iterations =  5.9

     negative rho (up, down):  0.288E-02 0.116E-02

     total cpu time spent up to now is     3899.4 secs

     total energy              =   -2319.65055291 Ry
     Harris-Foulkes estimate   =   -2319.72332074 Ry
     estimated scf accuracy    <       0.38428466 Ry

     total magnetization       =    22.00 Bohr mag/cell
     absolute magnetization    =    27.14 Bohr mag/cell

     iteration # 13     ecut=    40.00 Ry     beta=0.70
     Davidson diagonalization with overlap
     ethr =  1.35E-04,  avg # of iterations =  2.8

     negative rho (up, down):  0.258E-02 0.121E-02

     total cpu time spent up to now is     4152.0 secs

     total energy              =   -2319.66358181 Ry
     Harris-Foulkes estimate   =   -2319.71721732 Ry
     estimated scf accuracy    <       0.39609329 Ry

     total magnetization       =    22.00 Bohr mag/cell
     absolute magnetization    =    27.52 Bohr mag/cell

     iteration # 14     ecut=    40.00 Ry     beta=0.70
     Davidson diagonalization with overlap
     ethr =  1.35E-04,  avg # of iterations =  1.1

     negative rho (up, down):  0.243E-02 0.121E-02

     total cpu time spent up to now is     4387.8 secs

     total energy              =   -2319.68117845 Ry
     Harris-Foulkes estimate   =   -2319.70041576 Ry
     estimated scf accuracy    <       0.15056140 Ry

     total magnetization       =    22.00 Bohr mag/cell
     absolute magnetization    =    27.39 Bohr mag/cell

     iteration # 15     ecut=    40.00 Ry     beta=0.70
     Davidson diagonalization with overlap
     ethr =  6.33E-05,  avg # of iterations =  2.1

     negative rho (up, down):  0.219E-02 0.123E-02

     total cpu time spent up to now is     4628.1 secs

     total energy              =   -2319.68831192 Ry
     Harris-Foulkes estimate   =   -2319.69324860 Ry
     estimated scf accuracy    <       0.04708474 Ry

     total magnetization       =    22.00 Bohr mag/cell
     absolute magnetization    =    27.32 Bohr mag/cell

     iteration # 16     ecut=    40.00 Ry     beta=0.70
     Davidson diagonalization with overlap
     ethr =  1.98E-05,  avg # of iterations =  4.0

     negative rho (up, down):  0.203E-02 0.124E-02

     total cpu time spent up to now is     4880.0 secs

     total energy              =   -2319.68916623 Ry
     Harris-Foulkes estimate   =   -2319.69370138 Ry
     estimated scf accuracy    <       0.04060257 Ry

     total magnetization       =    22.00 Bohr mag/cell
     absolute magnetization    =    27.51 Bohr mag/cell

     iteration # 17     ecut=    40.00 Ry     beta=0.70
     Davidson diagonalization with overlap
     ethr =  1.71E-05,  avg # of iterations =  1.0

     negative rho (up, down):  0.195E-02 0.134E-02

     total cpu time spent up to now is     5111.5 secs

     total energy              =   -2319.68873082 Ry
     Harris-Foulkes estimate   =   -2319.69238159 Ry
     estimated scf accuracy    <       0.01111895 Ry

     total magnetization       =    22.00 Bohr mag/cell
     absolute magnetization    =    27.35 Bohr mag/cell

     iteration # 18     ecut=    40.00 Ry     beta=0.70
     Davidson diagonalization with overlap
     ethr =  4.67E-06,  avg # of iterations =  5.5

     negative rho (up, down):  0.230E-02 0.137E-02

     total cpu time spent up to now is     5395.3 secs

     total energy              =   -2319.68274711 Ry
     Harris-Foulkes estimate   =   -2319.70104001 Ry
     estimated scf accuracy    <       0.11864280 Ry

     total magnetization       =    22.00 Bohr mag/cell
     absolute magnetization    =    27.42 Bohr mag/cell

     iteration # 19     ecut=    40.00 Ry     beta=0.70
     Davidson diagonalization with overlap
     ethr =  4.67E-06,  avg # of iterations =  3.5

     negative rho (up, down):  0.192E-02 0.133E-02

     total cpu time spent up to now is     5644.4 secs

     total energy              =   -2319.69125165 Ry
     Harris-Foulkes estimate   =   -2319.69260624 Ry
     estimated scf accuracy    <       0.00927342 Ry

     total magnetization       =    22.00 Bohr mag/cell
     absolute magnetization    =    27.41 Bohr mag/cell

     iteration # 20     ecut=    40.00 Ry     beta=0.70
     Davidson diagonalization with overlap
     ethr =  3.90E-06,  avg # of iterations =  2.3

     negative rho (up, down):  0.198E-02 0.135E-02

     total cpu time spent up to now is     5885.9 secs

     total energy              =   -2319.69165948 Ry
     Harris-Foulkes estimate   =   -2319.69221919 Ry
     estimated scf accuracy    <       0.00399925 Ry

     total magnetization       =    22.00 Bohr mag/cell
     absolute magnetization    =    27.39 Bohr mag/cell

     iteration # 21     ecut=    40.00 Ry     beta=0.70
     Davidson diagonalization with overlap
     ethr =  1.68E-06,  avg # of iterations =  1.1

     negative rho (up, down):  0.207E-02 0.137E-02

     total cpu time spent up to now is     6125.7 secs

     total energy              =   -2319.69190406 Ry
     Harris-Foulkes estimate   =   -2319.69210733 Ry
     estimated scf accuracy    <       0.00325145 Ry

     total magnetization       =    22.00 Bohr mag/cell
     absolute magnetization    =    27.42 Bohr mag/cell

     iteration # 22     ecut=    40.00 Ry     beta=0.70
     Davidson diagonalization with overlap
     ethr =  1.37E-06,  avg # of iterations =  2.1

     negative rho (up, down):  0.210E-02 0.138E-02

     total cpu time spent up to now is     6366.2 secs

     total energy              =   -2319.69186878 Ry
     Harris-Foulkes estimate   =   -2319.69229420 Ry
     estimated scf accuracy    <       0.00255326 Ry

     total magnetization       =    22.00 Bohr mag/cell
     absolute magnetization    =    27.39 Bohr mag/cell

     iteration # 23     ecut=    40.00 Ry     beta=0.70
     Davidson diagonalization with overlap
     ethr =  1.07E-06,  avg # of iterations =  1.0

     negative rho (up, down):  0.211E-02 0.138E-02

     total cpu time spent up to now is     6620.4 secs

     total energy              =   -2319.69204162 Ry
     Harris-Foulkes estimate   =   -2319.69216978 Ry
     estimated scf accuracy    <       0.00119557 Ry

     total magnetization       =    22.00 Bohr mag/cell
     absolute magnetization    =    27.40 Bohr mag/cell

     iteration # 24     ecut=    40.00 Ry     beta=0.70
     Davidson diagonalization with overlap
     ethr =  5.02E-07,  avg # of iterations =  1.1

     negative rho (up, down):  0.205E-02 0.137E-02

     total cpu time spent up to now is     6872.1 secs

     total energy              =   -2319.69195315 Ry
     Harris-Foulkes estimate   =   -2319.69225053 Ry
     estimated scf accuracy    <       0.00162579 Ry

     total magnetization       =    22.00 Bohr mag/cell
     absolute magnetization    =    27.42 Bohr mag/cell

     iteration # 25     ecut=    40.00 Ry     beta=0.70
     Davidson diagonalization with overlap
     ethr =  5.02E-07,  avg # of iterations =  1.1

     negative rho (up, down):  0.203E-02 0.136E-02

     total cpu time spent up to now is     7125.9 secs

     total energy              =   -2319.69198847 Ry
     Harris-Foulkes estimate   =   -2319.69217218 Ry
     estimated scf accuracy    <       0.00121606 Ry

     total magnetization       =    22.00 Bohr mag/cell
     absolute magnetization    =    27.42 Bohr mag/cell

     iteration # 26     ecut=    40.00 Ry     beta=0.70
     Davidson diagonalization with overlap
     ethr =  5.02E-07,  avg # of iterations =  1.0

     negative rho (up, down):  0.209E-02 0.137E-02

     total cpu time spent up to now is     7366.6 secs

     total energy              =   -2319.69189328 Ry
     Harris-Foulkes estimate   =   -2319.69233975 Ry
     estimated scf accuracy    <       0.00528994 Ry

     total magnetization       =    22.00 Bohr mag/cell
     absolute magnetization    =    27.36 Bohr mag/cell

     iteration # 27     ecut=    40.00 Ry     beta=0.70
     Davidson diagonalization with overlap
     ethr =  5.02E-07,  avg # of iterations =  1.1

     negative rho (up, down):  0.208E-02 0.138E-02

     total cpu time spent up to now is     7606.8 secs

     total energy              =   -2319.69211545 Ry
     Harris-Foulkes estimate   =   -2319.69221394 Ry
     estimated scf accuracy    <       0.00056973 Ry

     total magnetization       =    22.00 Bohr mag/cell
     absolute magnetization    =    27.40 Bohr mag/cell

     iteration # 28     ecut=    40.00 Ry     beta=0.70
     Davidson diagonalization with overlap
     ethr =  2.39E-07,  avg # of iterations =  1.0

     negative rho (up, down):  0.208E-02 0.137E-02

     total cpu time spent up to now is     7846.3 secs

     total energy              =   -2319.69215614 Ry
     Harris-Foulkes estimate   =   -2319.69218192 Ry
     estimated scf accuracy    <       0.00020630 Ry

     total magnetization       =    22.00 Bohr mag/cell
     absolute magnetization    =    27.41 Bohr mag/cell

     iteration # 29     ecut=    40.00 Ry     beta=0.70
     Davidson diagonalization with overlap
     ethr =  8.67E-08,  avg # of iterations =  1.0

     negative rho (up, down):  0.207E-02 0.137E-02

     total cpu time spent up to now is     8085.9 secs

     total energy              =   -2319.69212849 Ry
     Harris-Foulkes estimate   =   -2319.69222471 Ry
     estimated scf accuracy    <       0.00044924 Ry

     total magnetization       =    22.00 Bohr mag/cell
     absolute magnetization    =    27.41 Bohr mag/cell

     iteration # 30     ecut=    40.00 Ry     beta=0.70
     Davidson diagonalization with overlap
     ethr =  8.67E-08,  avg # of iterations =  1.0

     negative rho (up, down):  0.207E-02 0.137E-02

     total cpu time spent up to now is     8328.0 secs

     total energy              =   -2319.69213725 Ry
     Harris-Foulkes estimate   =   -2319.69222217 Ry
     estimated scf accuracy    <       0.00066277 Ry

     total magnetization       =    22.00 Bohr mag/cell
     absolute magnetization    =    27.41 Bohr mag/cell

     iteration # 31     ecut=    40.00 Ry     beta=0.70
     Davidson diagonalization with overlap
     ethr =  8.67E-08,  avg # of iterations =  1.1

     negative rho (up, down):  0.207E-02 0.137E-02

     total cpu time spent up to now is     8569.3 secs

     total energy              =   -2319.69213938 Ry
     Harris-Foulkes estimate   =   -2319.69224011 Ry
     estimated scf accuracy    <       0.00089097 Ry

     total magnetization       =    22.00 Bohr mag/cell
     absolute magnetization    =    27.40 Bohr mag/cell

     iteration # 32     ecut=    40.00 Ry     beta=0.70
     Davidson diagonalization with overlap
     ethr =  8.67E-08,  avg # of iterations =  1.0

     negative rho (up, down):  0.207E-02 0.137E-02

     total cpu time spent up to now is     8808.2 secs

     total energy              =   -2319.69217663 Ry
     Harris-Foulkes estimate   =   -2319.69219635 Ry
     estimated scf accuracy    <       0.00011078 Ry

     total magnetization       =    22.00 Bohr mag/cell
     absolute magnetization    =    27.41 Bohr mag/cell

     iteration # 33     ecut=    40.00 Ry     beta=0.70
     Davidson diagonalization with overlap
     ethr =  4.65E-08,  avg # of iterations =  1.0

     negative rho (up, down):  0.207E-02 0.137E-02

     total cpu time spent up to now is     9048.3 secs

     total energy              =   -2319.69217665 Ry
     Harris-Foulkes estimate   =   -2319.69219782 Ry
     estimated scf accuracy    <       0.00018964 Ry

     total magnetization       =    22.00 Bohr mag/cell
     absolute magnetization    =    27.41 Bohr mag/cell

     iteration # 34     ecut=    40.00 Ry     beta=0.70
     Davidson diagonalization with overlap
     ethr =  4.65E-08,  avg # of iterations =  1.1

     negative rho (up, down):  0.207E-02 0.137E-02

     total cpu time spent up to now is     9289.7 secs

     total energy              =   -2319.69219073 Ry
     Harris-Foulkes estimate   =   -2319.69220069 Ry
     estimated scf accuracy    <       0.00007288 Ry

     total magnetization       =    22.00 Bohr mag/cell
     absolute magnetization    =    27.42 Bohr mag/cell

     iteration # 35     ecut=    40.00 Ry     beta=0.70
     Davidson diagonalization with overlap
     ethr =  3.06E-08,  avg # of iterations =  1.0

     negative rho (up, down):  0.207E-02 0.137E-02

     total cpu time spent up to now is     9532.9 secs

     total energy              =   -2319.69220085 Ry
     Harris-Foulkes estimate   =   -2319.69219988 Ry
     estimated scf accuracy    <       0.00005421 Ry

     total magnetization       =    22.00 Bohr mag/cell
     absolute magnetization    =    27.41 Bohr mag/cell

     iteration # 36     ecut=    40.00 Ry     beta=0.70
     Davidson diagonalization with overlap
     ethr =  2.28E-08,  avg # of iterations =  1.5

     negative rho (up, down):  0.207E-02 0.137E-02

     total cpu time spent up to now is     9782.1 secs

     total energy              =   -2319.69219960 Ry
     Harris-Foulkes estimate   =   -2319.69220959 Ry
     estimated scf accuracy    <       0.00008650 Ry

     total magnetization       =    22.00 Bohr mag/cell
     absolute magnetization    =    27.42 Bohr mag/cell

     iteration # 37     ecut=    40.00 Ry     beta=0.70
     Davidson diagonalization with overlap
     ethr =  2.28E-08,  avg # of iterations =  1.0

     negative rho (up, down):  0.207E-02 0.137E-02

     total cpu time spent up to now is    10023.4 secs

     total energy              =   -2319.69219532 Ry
     Harris-Foulkes estimate   =   -2319.69220884 Ry
     estimated scf accuracy    <       0.00005393 Ry

     total magnetization       =    22.00 Bohr mag/cell
     absolute magnetization    =    27.42 Bohr mag/cell

     iteration # 38     ecut=    40.00 Ry     beta=0.70
     Davidson diagonalization with overlap
     ethr =  2.27E-08,  avg # of iterations =  1.0

     negative rho (up, down):  0.207E-02 0.137E-02

     total cpu time spent up to now is    10264.5 secs

     total energy              =   -2319.69220160 Ry
     Harris-Foulkes estimate   =   -2319.69220512 Ry
     estimated scf accuracy    <       0.00006631 Ry

     total magnetization       =    22.00 Bohr mag/cell
     absolute magnetization    =    27.41 Bohr mag/cell

     iteration # 39     ecut=    40.00 Ry     beta=0.70
     Davidson diagonalization with overlap
     ethr =  2.27E-08,  avg # of iterations =  1.5

     negative rho (up, down):  0.207E-02 0.137E-02

     total cpu time spent up to now is    10512.7 secs

     total energy              =   -2319.69220651 Ry
     Harris-Foulkes estimate   =   -2319.69221145 Ry
     estimated scf accuracy    <       0.00005734 Ry

     total magnetization       =    22.00 Bohr mag/cell
     absolute magnetization    =    27.42 Bohr mag/cell

     iteration # 40     ecut=    40.00 Ry     beta=0.70
     Davidson diagonalization with overlap
     ethr =  2.27E-08,  avg # of iterations =  1.0

     negative rho (up, down):  0.207E-02 0.137E-02

     total cpu time spent up to now is    10755.7 secs

     total energy              =   -2319.69220947 Ry
     Harris-Foulkes estimate   =   -2319.69221260 Ry
     estimated scf accuracy    <       0.00003031 Ry

     total magnetization       =    22.00 Bohr mag/cell
     absolute magnetization    =    27.42 Bohr mag/cell

     iteration # 41     ecut=    40.00 Ry     beta=0.70
     Davidson diagonalization with overlap
     ethr =  1.27E-08,  avg # of iterations =  1.3

     negative rho (up, down):  0.207E-02 0.137E-02

     total cpu time spent up to now is    11001.6 secs

     total energy              =   -2319.69220162 Ry
     Harris-Foulkes estimate   =   -2319.69221806 Ry
     estimated scf accuracy    <       0.00009359 Ry

     total magnetization       =    22.00 Bohr mag/cell
     absolute magnetization    =    27.43 Bohr mag/cell

     iteration # 42     ecut=    40.00 Ry     beta=0.70
     Davidson diagonalization with overlap
     ethr =  1.27E-08,  avg # of iterations =  1.4

     negative rho (up, down):  0.207E-02 0.137E-02

     total cpu time spent up to now is    11241.7 secs

     total energy              =   -2319.69220657 Ry
     Harris-Foulkes estimate   =   -2319.69221688 Ry
     estimated scf accuracy    <       0.00013277 Ry

     total magnetization       =    22.00 Bohr mag/cell
     absolute magnetization    =    27.42 Bohr mag/cell

     iteration # 43     ecut=    40.00 Ry     beta=0.70
     Davidson diagonalization with overlap
     ethr =  1.27E-08,  avg # of iterations =  2.0

     negative rho (up, down):  0.207E-02 0.137E-02

     total cpu time spent up to now is    11494.6 secs

     total energy              =   -2319.69221462 Ry
     Harris-Foulkes estimate   =   -2319.69221759 Ry
     estimated scf accuracy    <       0.00001915 Ry

     total magnetization       =    22.00 Bohr mag/cell
     absolute magnetization    =    27.43 Bohr mag/cell

     iteration # 44     ecut=    40.00 Ry     beta=0.70
     Davidson diagonalization with overlap
     ethr =  8.05E-09,  avg # of iterations =  1.0

     negative rho (up, down):  0.207E-02 0.137E-02

     total cpu time spent up to now is    11745.8 secs

     total energy              =   -2319.69220496 Ry
     Harris-Foulkes estimate   =   -2319.69222067 Ry
     estimated scf accuracy    <       0.00006898 Ry

     total magnetization       =    22.00 Bohr mag/cell
     absolute magnetization    =    27.43 Bohr mag/cell

     iteration # 45     ecut=    40.00 Ry     beta=0.70
     Davidson diagonalization with overlap
     ethr =  8.05E-09,  avg # of iterations =  1.9

     negative rho (up, down):  0.207E-02 0.137E-02

     total cpu time spent up to now is    12004.8 secs

     total energy              =   -2319.69220017 Ry
     Harris-Foulkes estimate   =   -2319.69222815 Ry
     estimated scf accuracy    <       0.00022735 Ry

     total magnetization       =    22.00 Bohr mag/cell
     absolute magnetization    =    27.44 Bohr mag/cell

     iteration # 46     ecut=    40.00 Ry     beta=0.70
     Davidson diagonalization with overlap
     ethr =  8.05E-09,  avg # of iterations =  1.6

     negative rho (up, down):  0.207E-02 0.137E-02

     total cpu time spent up to now is    12252.8 secs

     total energy              =   -2319.69221603 Ry
     Harris-Foulkes estimate   =   -2319.69221739 Ry
     estimated scf accuracy    <       0.00001421 Ry

     total magnetization       =    22.00 Bohr mag/cell
     absolute magnetization    =    27.43 Bohr mag/cell

     iteration # 47     ecut=    40.00 Ry     beta=0.70
     Davidson diagonalization with overlap
     ethr =  5.97E-09,  avg # of iterations =  1.5

     negative rho (up, down):  0.207E-02 0.137E-02

     total cpu time spent up to now is    12504.9 secs

     total energy              =   -2319.69221584 Ry
     Harris-Foulkes estimate   =   -2319.69221845 Ry
     estimated scf accuracy    <       0.00001209 Ry

     total magnetization       =    22.00 Bohr mag/cell
     absolute magnetization    =    27.43 Bohr mag/cell

     iteration # 48     ecut=    40.00 Ry     beta=0.70
     Davidson diagonalization with overlap
     ethr =  5.08E-09,  avg # of iterations =  1.0

     negative rho (up, down):  0.207E-02 0.137E-02

     total cpu time spent up to now is    12744.2 secs

     total energy              =   -2319.69221590 Ry
     Harris-Foulkes estimate   =   -2319.69221861 Ry
     estimated scf accuracy    <       0.00002992 Ry

     total magnetization       =    22.00 Bohr mag/cell
     absolute magnetization    =    27.43 Bohr mag/cell

     iteration # 49     ecut=    40.00 Ry     beta=0.70
     Davidson diagonalization with overlap
     ethr =  5.08E-09,  avg # of iterations =  1.0

     negative rho (up, down):  0.207E-02 0.137E-02

     total cpu time spent up to now is    12983.4 secs

     total energy              =   -2319.69221638 Ry
     Harris-Foulkes estimate   =   -2319.69221812 Ry
     estimated scf accuracy    <       0.00000772 Ry

     total magnetization       =    22.00 Bohr mag/cell
     absolute magnetization    =    27.43 Bohr mag/cell

     iteration # 50     ecut=    40.00 Ry     beta=0.70
     Davidson diagonalization with overlap
     ethr =  3.24E-09,  avg # of iterations =  1.0

     negative rho (up, down):  0.207E-02 0.137E-02

     total cpu time spent up to now is    13218.8 secs

     total energy              =   -2319.69221753 Ry
     Harris-Foulkes estimate   =   -2319.69221739 Ry
     estimated scf accuracy    <       0.00000557 Ry

     total magnetization       =    22.00 Bohr mag/cell
     absolute magnetization    =    27.43 Bohr mag/cell

     iteration # 51     ecut=    40.00 Ry     beta=0.70
     Davidson diagonalization with overlap
     ethr =  2.34E-09,  avg # of iterations =  2.0

     negative rho (up, down):  0.207E-02 0.137E-02

     total cpu time spent up to now is    13456.8 secs

     total energy              =   -2319.69221741 Ry
     Harris-Foulkes estimate   =   -2319.69221851 Ry
     estimated scf accuracy    <       0.00000465 Ry

     total magnetization       =    22.00 Bohr mag/cell
     absolute magnetization    =    27.43 Bohr mag/cell

     iteration # 52     ecut=    40.00 Ry     beta=0.70
     Davidson diagonalization with overlap
     ethr =  1.96E-09,  avg # of iterations =  1.3

     negative rho (up, down):  0.207E-02 0.137E-02

     total cpu time spent up to now is    13691.4 secs

     total energy              =   -2319.69221634 Ry
     Harris-Foulkes estimate   =   -2319.69221962 Ry
     estimated scf accuracy    <       0.00003250 Ry

     total magnetization       =    22.00 Bohr mag/cell
     absolute magnetization    =    27.44 Bohr mag/cell

     iteration # 53     ecut=    40.00 Ry     beta=0.70
     Davidson diagonalization with overlap
     ethr =  1.96E-09,  avg # of iterations =  1.0

     negative rho (up, down):  0.207E-02 0.137E-02

     total cpu time spent up to now is    13933.2 secs

     total energy              =   -2319.69221827 Ry
     Harris-Foulkes estimate   =   -2319.69221814 Ry
     estimated scf accuracy    <       0.00000152 Ry

     total magnetization       =    22.00 Bohr mag/cell
     absolute magnetization    =    27.43 Bohr mag/cell

     iteration # 54     ecut=    40.00 Ry     beta=0.70
     Davidson diagonalization with overlap
     ethr =  6.37E-10,  avg # of iterations =  2.0

     negative rho (up, down):  0.207E-02 0.137E-02

     total cpu time spent up to now is    14185.6 secs

     total energy              =   -2319.69221852 Ry
     Harris-Foulkes estimate   =   -2319.69221880 Ry
     estimated scf accuracy    <       0.00000403 Ry

     total magnetization       =    22.00 Bohr mag/cell
     absolute magnetization    =    27.44 Bohr mag/cell

     iteration # 55     ecut=    40.00 Ry     beta=0.70
     Davidson diagonalization with overlap
     ethr =  6.37E-10,  avg # of iterations =  2.0

     negative rho (up, down):  0.207E-02 0.137E-02

     total cpu time spent up to now is    14433.0 secs

     total energy              =   -2319.69221802 Ry
     Harris-Foulkes estimate   =   -2319.69221926 Ry
     estimated scf accuracy    <       0.00000379 Ry

     total magnetization       =    22.00 Bohr mag/cell
     absolute magnetization    =    27.44 Bohr mag/cell

     iteration # 56     ecut=    40.00 Ry     beta=0.70
     Davidson diagonalization with overlap
     ethr =  6.37E-10,  avg # of iterations =  2.0

     negative rho (up, down):  0.207E-02 0.137E-02

     total cpu time spent up to now is    14672.8 secs

     total energy              =   -2319.69221789 Ry
     Harris-Foulkes estimate   =   -2319.69221957 Ry
     estimated scf accuracy    <       0.00001118 Ry

     total magnetization       =    22.00 Bohr mag/cell
     absolute magnetization    =    27.44 Bohr mag/cell

     iteration # 57     ecut=    40.00 Ry     beta=0.70
     Davidson diagonalization with overlap
     ethr =  6.37E-10,  avg # of iterations =  2.0

     negative rho (up, down):  0.207E-02 0.137E-02

     total cpu time spent up to now is    14910.8 secs

     total energy              =   -2319.69221865 Ry
     Harris-Foulkes estimate   =   -2319.69221915 Ry
     estimated scf accuracy    <       0.00000340 Ry

     total magnetization       =    22.00 Bohr mag/cell
     absolute magnetization    =    27.44 Bohr mag/cell

     iteration # 58     ecut=    40.00 Ry     beta=0.70
     Davidson diagonalization with overlap
     ethr =  6.37E-10,  avg # of iterations =  1.8

     negative rho (up, down):  0.207E-02 0.137E-02

     total cpu time spent up to now is    15147.2 secs

     total energy              =   -2319.69221831 Ry
     Harris-Foulkes estimate   =   -2319.69221976 Ry
     estimated scf accuracy    <       0.00001136 Ry

     total magnetization       =    22.00 Bohr mag/cell
     absolute magnetization    =    27.44 Bohr mag/cell

     iteration # 59     ecut=    40.00 Ry     beta=0.70
     Davidson diagonalization with overlap
     ethr =  6.37E-10,  avg # of iterations =  1.1

     negative rho (up, down):  0.207E-02 0.137E-02

     total cpu time spent up to now is    15380.2 secs

     total energy              =   -2319.69221878 Ry
     Harris-Foulkes estimate   =   -2319.69221926 Ry
     estimated scf accuracy    <       0.00000424 Ry

     total magnetization       =    22.00 Bohr mag/cell
     absolute magnetization    =    27.44 Bohr mag/cell

     iteration # 60     ecut=    40.00 Ry     beta=0.70
     Davidson diagonalization with overlap
     ethr =  6.37E-10,  avg # of iterations =  1.0

     negative rho (up, down):  0.207E-02 0.137E-02

     total cpu time spent up to now is    15610.9 secs

     total energy              =   -2319.69221892 Ry
     Harris-Foulkes estimate   =   -2319.69221923 Ry
     estimated scf accuracy    <       0.00000296 Ry

     total magnetization       =    22.00 Bohr mag/cell
     absolute magnetization    =    27.44 Bohr mag/cell

     iteration # 61     ecut=    40.00 Ry     beta=0.70
     Davidson diagonalization with overlap
     ethr =  6.37E-10,  avg # of iterations =  1.5

     negative rho (up, down):  0.207E-02 0.137E-02

     total cpu time spent up to now is    15839.1 secs

     End of self-consistent calculation
 --- enter write_ns ---
 LDA+U parameters:
U( 2)     =  3.00000000
alpha( 2) =  0.00000000
atom    3   Tr[ns(na)] (up, down, total) =   4.23756  1.23273  5.47029
   spin  1
    eigenvalues: 
  0.618  0.631  0.994  0.995  1.000
    eigenvectors:
  0.211  0.023  0.709  0.034  0.023
  0.149  0.848  0.002  0.001  0.000
  0.000  0.000  0.049  0.087  0.863
  0.639  0.128  0.219  0.009  0.004
  0.000  0.001  0.021  0.869  0.110
    occupations:
  0.906 -0.016 -0.004 -0.158 -0.000
 -0.016  0.630 -0.002  0.004 -0.009
 -0.004 -0.002  0.999 -0.005  0.002
 -0.158  0.004 -0.005  0.707  0.000
 -0.000 -0.009  0.002  0.000  0.995
   spin  2
    eigenvalues: 
  0.120  0.150  0.179  0.378  0.406
    eigenvectors:
  0.788  0.000  0.004  0.142  0.066
  0.003  0.002  0.000  0.415  0.580
  0.004  0.170  0.826  0.000  0.000
  0.205  0.000  0.000  0.442  0.353
  0.000  0.828  0.170  0.001  0.001
    occupations:
  0.176  0.007 -0.001  0.108  0.001
  0.007  0.393  0.001 -0.019  0.012
 -0.001  0.001  0.174  0.005 -0.011
  0.108 -0.019  0.005  0.335 -0.002
  0.001  0.012 -0.011 -0.002  0.155
atomic mag. moment =     3.004833
atom    4   Tr[ns(na)] (up, down, total) =   4.22856  1.22897  5.45753
   spin  1
    eigenvalues: 
  0.587  0.642  0.994  1.002  1.002
    eigenvectors:
  0.000  0.998  0.000  0.000  0.001
  0.000  0.001  0.000  0.681  0.318
  0.000  0.000  0.000  0.319  0.681
  0.000  0.000  0.999  0.000  0.000
  1.000  0.000  0.000  0.000  0.000
    occupations:
  0.643 -0.012 -0.004  0.006 -0.000
 -0.012  1.002 -0.000  0.000  0.000
 -0.004 -0.000  1.002  0.000  0.000
  0.006  0.000  0.000  0.994  0.000
 -0.000  0.000  0.000  0.000  0.587
   spin  2
    eigenvalues: 
  0.106  0.149  0.178  0.396  0.400
    eigenvectors:
  0.002  0.004  0.000  0.004  0.990
  0.001  0.912  0.083  0.000  0.004
  0.000  0.082  0.917  0.000  0.000
  0.997  0.001  0.000  0.000  0.002
  0.000  0.000  0.000  0.996  0.004
    occupations:
  0.398  0.016  0.005 -0.014 -0.000
  0.016  0.153 -0.008  0.000 -0.002
  0.005 -0.008  0.176  0.001  0.000
 -0.014  0.000  0.001  0.107 -0.000
 -0.000 -0.002  0.000 -0.000  0.396
atomic mag. moment =     2.999593
atom    9   Tr[ns(na)] (up, down, total) =   4.19870  1.31748  5.51617
   spin  1
    eigenvalues: 
  0.643  0.645  0.946  0.969  0.995
    eigenvectors:
  0.029  0.156  0.000  0.000  0.816
  0.844  0.156  0.000  0.000  0.000
  0.000  0.000  0.003  0.997  0.000
  0.128  0.688  0.000  0.000  0.184
  0.000  0.000  0.997  0.003  0.000
    occupations:
  0.931 -0.000 -0.000 -0.136  0.000
 -0.000  0.643  0.000 -0.001 -0.000
 -0.000  0.000  0.969  0.000 -0.001
 -0.136 -0.001  0.000  0.709  0.000
  0.000 -0.000 -0.001  0.000  0.946
   spin  2
    eigenvalues: 
  0.153  0.168  0.173  0.395  0.430
    eigenvectors:
  0.842  0.000  0.000  0.157  0.000
  0.000  0.000  0.000  0.002  0.998
  0.000  0.907  0.093  0.000  0.000
  0.158  0.000  0.000  0.841  0.002
  0.000  0.093  0.907  0.000  0.000
    occupations:
  0.191 -0.001  0.000  0.088 -0.000
 -0.001  0.430 -0.000 -0.002 -0.000
  0.000 -0.000  0.168 -0.000  0.001
  0.088 -0.002 -0.000  0.357 -0.000
 -0.000 -0.000  0.001 -0.000  0.172
atomic mag. moment =     2.881219
atom   10   Tr[ns(na)] (up, down, total) =   4.42944  0.96299  5.39243
   spin  1
    eigenvalues: 
  0.636  0.807  0.991  0.995  1.001
    eigenvectors:
  0.000  0.984  0.000  0.016  0.000
  0.000  0.000  1.000  0.000  0.000
  0.000  0.000  0.000  0.000  1.000
  0.000  0.016  0.000  0.984  0.000
  1.000  0.000  0.000  0.000  0.000
    occupations:
  0.810  0.000  0.001  0.024 -0.000
  0.000  0.991  0.000 -0.000 -0.000
  0.001  0.000  1.001 -0.000 -0.000
  0.024 -0.000 -0.000  0.992 -0.000
 -0.000 -0.000 -0.000 -0.000  0.636
   spin  2
    eigenvalues: 
  0.091  0.135  0.139  0.241  0.357
    eigenvectors:
  0.014  0.000  0.000  0.986  0.000
  0.000  1.000  0.000  0.000  0.000
  0.000  0.000  1.000  0.000  0.000
  0.986  0.000  0.000  0.014  0.000
  0.000  0.000  0.000  0.000  1.000
    occupations:
  0.239  0.000 -0.000 -0.017 -0.000
  0.000  0.135 -0.000 -0.000  0.000
 -0.000 -0.000  0.139  0.000  0.000
 -0.017 -0.000  0.000  0.093  0.000
 -0.000  0.000  0.000  0.000  0.357
atomic mag. moment =     3.466450
atom   16   Tr[ns(na)] (up, down, total) =   4.23765  1.23268  5.47033
   spin  1
    eigenvalues: 
  0.618  0.631  0.994  0.995  1.000
    eigenvectors:
  0.212  0.023  0.706  0.038  0.022
  0.147  0.850  0.002  0.001  0.000
  0.000  0.000  0.050  0.087  0.863
  0.641  0.127  0.218  0.011  0.004
  0.000  0.001  0.025  0.864  0.111
    occupations:
  0.906  0.016 -0.004 -0.158  0.001
  0.016  0.630  0.001 -0.004 -0.009
 -0.004  0.001  0.999 -0.005 -0.001
 -0.158 -0.004 -0.005  0.707  0.000
  0.001 -0.009 -0.001  0.000  0.995
   spin  2
    eigenvalues: 
  0.120  0.150  0.179  0.378  0.406
    eigenvectors:
  0.789  0.000  0.004  0.142  0.065
  0.003  0.002  0.000  0.414  0.581
  0.004  0.169  0.827  0.000  0.000
  0.205  0.000  0.000  0.442  0.353
  0.000  0.828  0.169  0.001  0.001
    occupations:
  0.176 -0.007 -0.001  0.108 -0.002
 -0.007  0.393 -0.001  0.019  0.012
 -0.001 -0.001  0.174  0.005  0.011
  0.108  0.019  0.005  0.335  0.001
 -0.002  0.012  0.011  0.001  0.155
atomic mag. moment =     3.004976
atom   17   Tr[ns(na)] (up, down, total) =   4.22709  1.22804  5.45512
   spin  1
    eigenvalues: 
  0.588  0.643  0.995  1.000  1.001
    eigenvectors:
  0.000  0.999  0.000  0.000  0.001
  0.000  0.001  0.000  0.018  0.981
  0.000  0.000  0.000  0.981  0.018
  0.000  0.000  0.999  0.000  0.000
  1.000  0.000  0.000  0.000  0.000
    occupations:
  0.644 -0.011 -0.004  0.006 -0.000
 -0.011  1.001  0.000  0.000  0.000
 -0.004  0.000  1.000  0.000  0.000
  0.006  0.000  0.000  0.994  0.000
 -0.000  0.000  0.000  0.000  0.588
   spin  2
    eigenvalues: 
  0.107  0.149  0.178  0.393  0.401
    eigenvectors:
  0.002  0.004  0.000  0.001  0.993
  0.001  0.917  0.078  0.000  0.004
  0.000  0.078  0.922  0.000  0.000
  0.997  0.001  0.000  0.000  0.002
  0.000  0.000  0.000  0.999  0.001
    occupations:
  0.399  0.015  0.005 -0.013 -0.000
  0.015  0.152 -0.007  0.000 -0.001
  0.005 -0.007  0.176  0.001  0.000
 -0.013  0.000  0.001  0.108 -0.000
 -0.000 -0.001  0.000 -0.000  0.393
atomic mag. moment =     2.999051
atom   22   Tr[ns(na)] (up, down, total) =   4.19859  1.31764  5.51623
   spin  1
    eigenvalues: 
  0.642  0.646  0.946  0.969  0.995
    eigenvectors:
  0.061  0.124  0.000  0.000  0.816
  0.670  0.330  0.000  0.000  0.000
  0.000  0.000  0.003  0.997  0.000
  0.270  0.546  0.000  0.000  0.184
  0.000  0.000  0.997  0.003  0.000
    occupations:
  0.931  0.001  0.000 -0.136 -0.000
  0.001  0.643  0.000  0.002 -0.000
  0.000  0.000  0.969  0.000  0.001
 -0.136  0.002  0.000  0.709  0.000
 -0.000 -0.000  0.001  0.000  0.946
   spin  2
    eigenvalues: 
  0.153  0.167  0.173  0.395  0.430
    eigenvectors:
  0.843  0.000  0.000  0.157  0.000
  0.000  0.000  0.000  0.002  0.998
  0.000  0.901  0.099  0.000  0.000
  0.157  0.000  0.000  0.841  0.002
  0.000  0.099  0.901  0.000  0.000
    occupations:
  0.191  0.000  0.000  0.088 -0.000
  0.000  0.430 -0.000  0.001 -0.000
  0.000 -0.000  0.168 -0.000 -0.002
  0.088  0.001 -0.000  0.357  0.000
 -0.000 -0.000 -0.002  0.000  0.172
atomic mag. moment =     2.880954
atom   23   Tr[ns(na)] (up, down, total) =   4.01048  1.61825  5.62872
   spin  1
    eigenvalues: 
  0.627  0.660  0.837  0.890  0.997
    eigenvectors:
  0.000  0.999  0.000  0.000  0.001
  0.000  0.000  0.000  1.000  0.000
  0.000  0.000  1.000  0.000  0.000
  0.000  0.001  0.000  0.000  0.999
  1.000  0.000  0.000  0.000  0.000
    occupations:
  0.660  0.000  0.000  0.010  0.000
  0.000  0.890  0.000  0.000  0.000
  0.000  0.000  0.837 -0.000  0.000
  0.010  0.000 -0.000  0.997  0.000
  0.000  0.000  0.000  0.000  0.627
   spin  2
    eigenvalues: 
  0.103  0.313  0.334  0.398  0.471
    eigenvectors:
  0.001  0.000  0.000  0.000  0.999
  0.000  0.000  1.000  0.000  0.000
  0.000  1.000  0.000  0.000  0.000
  0.999  0.000  0.000  0.000  0.001
  0.000  0.000  0.000  1.000  0.000
    occupations:
  0.470 -0.000 -0.000 -0.012 -0.000
 -0.000  0.334  0.000 -0.000 -0.000
 -0.000  0.000  0.313  0.000 -0.000
 -0.012 -0.000  0.000  0.103 -0.000
 -0.000 -0.000 -0.000 -0.000  0.398
atomic mag. moment =     2.392228
N of occupied +U levels =  43.9068445
 --- exit write_ns ---

 ------ SPIN UP ------------


          k = 0.0000 0.0000 0.0000 ( 26393 PWs)   bands (ev):

   -84.4967 -84.4339 -84.4239 -84.3621 -84.2857 -84.2473 -84.2114 -84.2009
   -53.2318 -53.1995 -53.1969 -53.1774 -53.1300 -53.1110 -53.0875 -53.0842
   -53.0722 -53.0548 -53.0230 -53.0188 -53.0151 -52.9894 -52.9698 -52.9579
   -52.9485 -52.9418 -52.9344 -52.8346 -52.8092 -52.7956 -52.7770 -52.7716
   -22.0197 -21.4639 -21.3070 -21.0802 -20.5943 -20.4255 -20.3066 -20.2419
   -20.0982 -20.0805 -20.0358 -19.9939 -19.8631 -19.8550 -19.6826 -19.5446
   -19.4412 -19.2805 -19.0685 -10.5119 -10.3622 -10.1946  -9.8386  -9.6166
    -9.2992  -9.1758  -9.1577  -8.9754  -8.8975  -8.8297  -8.7995  -8.7258
    -8.5211  -8.4143  -8.3479  -8.1817  -8.0574  -8.0191  -7.9525  -7.8969
    -7.7950  -7.5783  -7.5349  -7.4364  -7.3141  -7.1735  -7.1232  -7.1196
    -6.9850  -6.9605  -6.9223  -6.8321  -6.8194  -6.7553  -6.6476  -6.4598
    -6.1706  -6.1188  -6.1119  -5.9803  -5.8750  -5.8324  -5.7738  -5.6616
    -5.6215  -5.4751  -5.4616  -5.3747  -5.3199  -5.2395  -5.1531  -5.0634
    -5.0550  -4.9970  -4.8323  -4.7663  -4.6434  -4.5623  -4.4038  -4.3020
    -3.9990  -3.8030  -3.6787  -3.5053  -3.4152  -3.3568  -3.2350  -3.1730
    -3.1614  -3.1043  -2.9468  -2.8368  -2.7812  -2.7023  -2.6185  -2.6029
    -2.4580  -2.3947  -2.2777  -2.0754  -1.9655  -1.3201  -1.0166  -0.9948
    -0.9302  -0.6229  -0.4404  -0.4361  -0.1214   0.0462   0.1068   0.1291
     0.4887   0.6354   0.7982   0.8955   3.0121   3.7725   3.8859   4.3854
     4.8187   5.5693   6.0635   6.2219   6.5922   7.0406   7.0811   7.1832
     7.3103   7.6289   7.7341   7.8263   7.9486   8.1880   8.2341   8.2435
     8.3109   8.3846   8.5081   8.5276   8.6333   8.9091   8.9511   8.9995
     9.0348   9.1563   9.3060   9.3519   9.4224   9.4858   9.5801   9.6902
     9.8216   9.9374  10.0189  10.2490  10.2961  10.3184  10.5112  10.5366
    10.6734  10.7340  10.9707  10.9995  11.0498  11.0901  11.2910  11.3577
    11.5361  11.5777  11.6654  11.8153  11.8719  12.0319  12.1465  12.2359
    12.2465  12.2942  12.3300  12.3594  12.4020  12.4425  12.5443  12.5936
    12.6448  12.6972  12.8099  12.8421  12.8566  12.9251  12.9761  13.0833
    13.1590  13.1907  13.2675  13.2756  13.3647  13.4686  13.5482  13.5829
    13.7314  13.8212  13.8458  13.9108  13.9377  13.9516  14.1564  14.1829
    14.2478  14.2748  14.3738  14.4138  14.5912  14.6451  14.7380  14.8141
    14.8838  14.8915  15.1554  15.1840  15.2664  15.3028  15.3365  15.3449
    15.5207  15.7661  15.8031  15.8505  15.9413  16.0750  16.1891  16.3129
    16.3888  16.5393  16.5578  16.6504  16.7106  16.7675  17.0578  17.1399
    17.1754  17.2857  17.4019  17.4791  17.5744  17.6931  17.7268  17.8392
    17.9567  18.1423  18.2011  18.2396  18.2975  18.3707  18.4501  18.6276
    18.7025  18.8300  18.9083  18.9893  19.0196  19.1266  19.2090  19.3465
    19.4710  19.5122  19.5691  19.5736  19.6673  19.7191  19.7672  19.8613
    19.9221  19.9532  20.0288  20.0661  20.1568  20.2513  20.3533  20.3664
    20.4312  20.5703  20.6915  20.7703  20.9408  20.9597  21.1276  21.1784
    21.2713  21.2983  21.3433  21.4146  21.4688  21.4969  21.5926  21.6171
    21.7284  21.8266  22.0347  22.1304  22.2140  22.2376  22.3220  22.3857
    22.3914  22.4231  22.4584  22.5690  22.6073  22.6104  22.6846  22.7896
    22.8598

          k = 0.0000 0.2303 0.0000 ( 26455 PWs)   bands (ev):

   -84.4967 -84.4339 -84.4239 -84.3621 -84.2857 -84.2473 -84.2113 -84.2009
   -53.2319 -53.1997 -53.1968 -53.1775 -53.1300 -53.1121 -53.0875 -53.0833
   -53.0710 -53.0547 -53.0230 -53.0188 -53.0144 -52.9897 -52.9704 -52.9577
   -52.9497 -52.9414 -52.9345 -52.8348 -52.8092 -52.7956 -52.7771 -52.7716
   -21.9506 -21.3530 -21.2986 -21.0949 -20.6318 -20.4123 -20.4091 -20.3294
   -20.2268 -20.1140 -20.0302 -19.9639 -19.8509 -19.8135 -19.6773 -19.5195
   -19.4429 -19.2819 -19.0601 -10.3436 -10.0875 -10.0583 -10.0141  -9.6353
    -9.6156  -9.2115  -9.1024  -8.9900  -8.7663  -8.7549  -8.6436  -8.5212
    -8.3055  -8.2184  -8.1979  -8.0834  -7.9927  -7.9698  -7.9248  -7.8933
    -7.7535  -7.7261  -7.5463  -7.4948  -7.3160  -7.2785  -7.2390  -7.1638
    -7.0949  -6.9378  -6.9075  -6.8511  -6.8302  -6.6654  -6.6298  -6.6028
    -6.5447  -6.5084  -6.4589  -6.3882  -5.9273  -5.7469  -5.6964  -5.6477
    -5.5752  -5.4579  -5.3807  -5.3655  -5.3428  -5.2391  -5.1285  -5.0591
    -4.9781  -4.8948  -4.7165  -4.6057  -4.5323  -4.3999  -4.2978  -4.2596
    -3.9584  -3.8544  -3.6753  -3.6299  -3.6057  -3.4356  -3.4291  -3.3098
    -3.2618  -3.1111  -2.9950  -2.9687  -2.7646  -2.6661  -2.6435  -2.5383
    -2.4028  -2.3348  -2.2873  -2.1052  -2.0643  -1.8762  -1.6713  -0.9040
    -0.8866  -0.7999  -0.2009  -0.0390  -0.0157   0.0883   0.3663   0.5883
     0.6626   0.7141   0.7221   0.8997   3.2842   4.0187   4.1493   4.6112
     5.0264   5.2575   5.7784   6.0077   6.2548   6.3880   6.6728   6.7846
     7.1495   7.3310   7.3990   7.5230   7.9892   8.1063   8.2861   8.4589
     8.4732   8.6130   8.6839   8.7335   8.8602   9.0108   9.0578   9.2092
     9.2450   9.5544   9.6166   9.6552   9.7416   9.8351   9.8697   9.9000
     9.9879  10.1171  10.1586  10.2489  10.3293  10.4786  10.5103  10.5309
    10.6102  10.7266  10.8519  10.8775  10.9483  11.0033  11.0355  11.1142
    11.2372  11.4160  11.4542  11.5331  11.5429  11.5858  11.7260  11.8439
    11.9428  12.0381  12.0853  12.3611  12.3999  12.5610  12.6138  12.6433
    12.7369  12.7828  12.8536  12.9440  13.0576  13.1008  13.1788  13.3133
    13.4077  13.4591  13.5768  13.6362  13.6743  13.7878  13.8306  13.9426
    14.0276  14.1008  14.2377  14.3245  14.3381  14.3491  14.3979  14.4525
    14.5434  14.5835  14.6103  14.7090  14.7396  14.7713  14.9149  15.0053
    15.0653  15.0861  15.2134  15.3355  15.3710  15.4139  15.4595  15.4608
    15.5563  15.6645  15.8475  15.8766  15.9283  16.0290  16.0780  16.1903
    16.2545  16.3290  16.4024  16.5077  16.5877  16.6452  16.7653  16.8421
    16.9728  17.1220  17.1613  17.3030  17.3890  17.4544  17.4872  17.5921
    17.6533  17.7603  17.7912  17.8441  18.0797  18.0934  18.3156  18.4498
    18.5737  18.7337  18.7738  18.8189  18.8795  18.9675  18.9927  19.0975
    19.1881  19.2369  19.3184  19.3745  19.4488  19.4914  19.5256  19.5771
    19.8758  19.9457  20.1040  20.1628  20.2558  20.3032  20.3435  20.3733
    20.5030  20.5158  20.5353  20.6450  20.7009  20.7744  20.8485  20.9805
    21.0200  21.0718  21.0960  21.1592  21.2117  21.3164  21.3624  21.4436
    21.4613  21.5901  21.7124  21.7543  21.8924  21.9136  21.9556  22.0385
    22.2546  22.2718  22.3556  22.4725  22.5148  22.5504  22.6410  22.7097
    22.7522

          k = 0.0000-0.4606 0.0000 ( 26364 PWs)   bands (ev):

   -84.4967 -84.4338 -84.4239 -84.3621 -84.2857 -84.2473 -84.2113 -84.2009
   -53.2318 -53.1996 -53.1965 -53.1774 -53.1300 -53.1129 -53.0875 -53.0823
   -53.0699 -53.0546 -53.0229 -53.0188 -53.0136 -52.9898 -52.9710 -52.9574
   -52.9508 -52.9411 -52.9345 -52.8347 -52.8091 -52.7955 -52.7770 -52.7715
   -21.8691 -21.2983 -21.2103 -21.0498 -20.7889 -20.5976 -20.3873 -20.3530
   -20.2102 -20.1344 -20.0615 -20.0249 -19.8456 -19.7511 -19.6727 -19.4987
   -19.4466 -19.2833 -19.0535 -10.2664 -10.2024  -9.8469  -9.7443  -9.6553
    -9.6475  -9.1958  -9.0161  -8.8657  -8.6180  -8.5912  -8.5725  -8.4608
    -8.3596  -8.1680  -8.1132  -8.0397  -8.0357  -7.9829  -7.9019  -7.8618
    -7.7373  -7.6880  -7.6500  -7.4642  -7.4583  -7.3843  -7.2941  -7.2168
    -7.0233  -6.9972  -6.9029  -6.8818  -6.7936  -6.7308  -6.7123  -6.6925
    -6.6035  -6.5393  -6.4640  -6.4150  -6.3862  -6.2220  -5.6886  -5.6622
    -5.5981  -5.5298  -5.4045  -5.3654  -5.1914  -5.1369  -5.1181  -5.0943
    -4.9610  -4.7588  -4.5898  -4.5535  -4.3859  -4.3450  -4.1475  -4.0030
    -3.8768  -3.8309  -3.7982  -3.7435  -3.6953  -3.6010  -3.4919  -3.3993
    -3.2915  -3.2244  -3.0239  -2.8919  -2.8725  -2.8168  -2.7302  -2.5136
    -2.3808  -2.3075  -2.3006  -2.2234  -2.1964  -2.1842  -2.0687  -0.8384
    -0.8006  -0.3995  -0.1667  -0.0397  -0.0393   0.2079   0.2532   0.4831
     0.7102   0.9012   1.0981   1.1237   3.8364   4.2394   4.6240   4.7532
     4.8502   5.0836   5.3025   5.5431   5.8359   6.1463   6.5152   6.9326
     7.0081   7.1115   7.4531   7.6870   7.7480   7.8556   7.9612   8.1925
     8.6226   8.9786   8.9923   9.0968   9.1933   9.2132   9.2699   9.3227
     9.3286   9.3865   9.5108   9.5519   9.6074   9.7307   9.8095   9.8597
     9.9448   9.9688  10.1110  10.1314  10.1827  10.3316  10.4610  10.6541
    10.6818  10.7137  10.7751  10.8973  11.0068  11.0740  11.2635  11.3154
    11.4147  11.4348  11.6240  11.7241  11.8049  12.0804  12.1766  12.2328
    12.2682  12.3506  12.5197  12.5303  12.5485  12.5689  12.6391  12.7735
    12.8408  12.8914  12.9642  13.0972  13.1014  13.1795  13.1926  13.2356
    13.2974  13.4401  13.4632  13.5463  13.5933  13.6657  13.7404  13.9026
    13.9529  14.0345  14.0352  14.1210  14.2095  14.2603  14.3380  14.4253
    14.4506  14.4841  14.5432  14.5733  14.6451  14.7091  14.7975  14.8333
    14.8963  15.0222  15.1758  15.1892  15.2313  15.5139  15.7715  15.7840
    15.8480  15.9405  15.9772  16.0571  16.1756  16.2182  16.3755  16.4652
    16.6435  16.7229  16.7781  16.8338  16.9741  17.0190  17.1153  17.1603
    17.2664  17.2972  17.4057  17.4615  17.4778  17.5539  17.6770  17.7350
    17.8110  17.8175  17.8918  17.9248  17.9638  18.0413  18.0676  18.1445
    18.3754  18.4184  18.4905  18.5472  18.6034  18.6445  18.6599  18.6728
    18.7033  18.7702  18.7927  18.9238  18.9875  19.1156  19.1620  19.2613
    19.2812  19.5565  19.6022  19.6190  19.6570  19.9401  19.9797  20.0208
    20.1249  20.1413  20.1593  20.1847  20.2264  20.3825  20.4824  20.5420
    20.6604  20.6965  20.8365  20.8841  20.9676  21.0682  21.1076  21.1760
    21.2508  21.3549  21.4141  21.4904  21.5304  21.6406  21.7320  21.8286
    21.8922  21.9837  22.1333  22.3181  22.3626  22.4240  22.4736  22.7068
    22.7639

          k = 0.2500 0.0000 0.0000 ( 26392 PWs)   bands (ev):

   -84.4965 -84.4323 -84.4252 -84.3621 -84.2852 -84.2475 -84.2097 -84.2023
   -53.2163 -53.1968 -53.1898 -53.1773 -53.1439 -53.0980 -53.0950 -53.0824
   -53.0740 -53.0510 -53.0290 -53.0183 -53.0152 -53.0043 -52.9706 -52.9476
   -52.9428 -52.9402 -52.9354 -52.8532 -52.8086 -52.7930 -52.7799 -52.7716
   -21.9029 -21.3912 -21.3356 -20.9960 -20.6965 -20.5439 -20.4313 -20.1781
   -20.0836 -20.0152 -20.0076 -19.9865 -19.8910 -19.8828 -19.6711 -19.5591
   -19.4800 -19.2875 -19.1117 -10.2944 -10.1959 -10.0454  -9.8054  -9.3806
    -9.2077  -9.1613  -9.1258  -9.0562  -9.0002  -8.8713  -8.8305  -8.6417
    -8.6137  -8.4786  -8.3080  -8.2186  -8.0889  -7.9878  -7.9206  -7.8701
    -7.7529  -7.6821  -7.6196  -7.5199  -7.3836  -7.2533  -7.0929  -7.0558
    -6.9801  -6.9574  -6.8964  -6.7986  -6.7634  -6.7142  -6.6813  -6.6217
    -6.4232  -6.4082  -6.2349  -6.2148  -6.0924  -5.9624  -5.8566  -5.8177
    -5.7048  -5.5065  -5.4525  -5.3553  -5.2548  -5.2094  -5.0593  -4.9688
    -4.9120  -4.7395  -4.7064  -4.6629  -4.4807  -4.4310  -4.3073  -4.1765
    -3.9059  -3.8608  -3.7030  -3.4677  -3.4381  -3.2789  -3.2593  -3.1654
    -3.0493  -2.9881  -2.9353  -2.9099  -2.8133  -2.7316  -2.6518  -2.5484
    -2.5301  -2.4442  -2.3765  -2.2840  -2.0007  -1.1466  -0.9651  -0.8920
    -0.8883  -0.6041  -0.4460  -0.4233  -0.2962  -0.1373  -0.0629   0.1687
     0.2055   0.4417   0.5961   0.8377   3.3364   4.0689   4.2131   4.6848
     5.1372   5.4292   5.8178   6.3219   6.3572   6.5993   6.6277   6.9169
     7.2609   7.3557   7.5135   7.6228   7.9296   7.9956   8.0092   8.0945
     8.2568   8.4480   8.5625   8.5831   8.7655   8.8251   9.0163   9.1857
     9.3208   9.4522   9.5602   9.6111   9.6996   9.7421   9.7766   9.9457
    10.0358  10.1036  10.1644  10.2342  10.3494  10.4447  10.5455  10.6188
    10.6828  10.7455  10.8456  10.8999  10.9935  11.0725  11.1126  11.1926
[...]
     9.9248  10.0586  10.2561  10.3485  10.3799  10.4143  10.4484  10.5186
    10.6757  10.7447  10.7873  10.8328  11.0928  11.2642  11.2934  11.3290
    11.3553  11.5450  11.5965  11.8316  11.9528  11.9703  12.0284  12.2875
    12.3409  12.3943  12.5090  12.7242  12.7695  12.8286  12.8992  12.9672
    13.0821  13.0961  13.2827  13.3318  13.3853  13.5263  13.6385  13.7658
    13.7980  13.9392  13.9778  14.0311  14.1230  14.1382  14.1510  14.2115
    14.3240  14.3428  14.4371  14.5544  14.6886  14.7359  14.8385  14.9468
    15.0004  15.0089  15.0361  15.0699  15.1627  15.2166  15.2404  15.3353
    15.4423  15.6349  15.6864  15.8124  15.8747  15.9516  16.0102  16.0381
    16.0823  16.2283  16.3744  16.5931  16.6391  16.7221  16.7732  16.8173
    16.8906  16.9218  17.0544  17.1895  17.2565  17.2695  17.4530  17.5923
    17.6792  17.7383  17.8339  17.8739  17.9762  18.0014  18.0716  18.1131
    18.2296  18.2594  18.3637  18.4196  18.4391  18.4821  18.5031  18.5942
    18.6669  18.8618  18.9002  18.9238  18.9722  19.0032  19.0301  19.1752
    19.1853  19.2265  19.2452  19.3241  19.3810  19.4139  19.4472  19.5732
    19.5804  19.6656  19.8977  19.9613  20.0535  20.1158  20.1286  20.3427
    20.3725  20.3925  20.5162  20.5690  20.5751  20.6441  20.6949  20.7191
    20.7600  20.8064  20.9123  20.9764  21.0017  21.0359  21.0971  21.1058
    21.1726  21.2169  21.2431  21.2847  21.3324  21.4342  21.4539  21.5372
    21.5618  21.6027  21.6723  21.7113  21.7371  21.7917  21.8395  21.8747
    21.9227

          k =-0.5000 0.2303 0.0000 ( 26450 PWs)   bands (ev):

   -81.5728 -80.7047 -80.7047 -80.6920 -80.6917 -80.6515 -80.6231 -79.8663
   -50.6326 -50.2372 -50.1899 -49.5738 -49.5725 -49.5723 -49.5521 -49.5515
   -49.5499 -49.5385 -49.5373 -49.5110 -49.5099 -49.4641 -49.4386 -49.3910
   -49.3902 -49.3336 -49.3331 -49.2578 -49.2270 -48.9788 -48.7804 -48.2983
   -21.5790 -21.5092 -21.0460 -21.0307 -20.7660 -20.7493 -20.4387 -20.4073
   -20.3029 -20.2045 -20.0673 -20.0490 -19.9679 -19.9430 -19.8833 -19.8602
   -19.5809 -19.5668 -19.4504  -9.0728  -9.0589  -8.4438  -8.4289  -8.4059
    -8.3843  -7.9360  -7.8971  -7.7961  -7.6694  -7.6247  -7.4782  -7.3939
    -7.3506  -7.2553  -7.2028  -6.8856  -6.8342  -6.7190  -6.6790  -6.6040
    -6.5375  -6.4762  -6.3586  -6.2335  -6.1926  -6.1266  -6.0644  -6.0369
    -5.9680  -5.9469  -5.7885  -5.6918  -5.6083  -5.5897  -5.5180  -5.4486
    -5.3473  -5.3058  -5.1797  -5.0336  -4.6744  -4.6049  -4.5906  -4.4412
    -4.3810  -4.2251  -4.1242  -4.1013  -3.9230  -3.8983  -3.7275  -3.5976
    -3.5370  -3.4198  -3.1264  -3.0912  -0.4444  -0.3793  -0.3674  -0.2747
    -0.2243  -0.1724  -0.0656   0.0155   0.0411   0.0769   0.1136   0.1641
     0.2349   0.2392   0.3152   0.3628   0.4025   0.4854   0.5083   0.6020
     0.8151   0.8174   0.8874   0.9525   0.9695   0.9991   1.1742   1.3353
     1.3633   1.4015   1.4241   1.4554   1.7299   1.7615   1.9155   1.9227
     2.2977   2.4263   2.5504   2.5712   4.4663   4.4761   5.1837   5.2104
     5.3245   5.5147   5.7618   5.9283   6.1592   6.2636   6.4792   6.6585
     6.9491   7.1426   7.1835   7.3445   7.3604   7.5157   7.6260   7.7707
     7.8112   7.9379   8.2334   8.4187   8.5120   8.6761   8.7062   9.0655
     9.1705   9.3560   9.4085   9.5105   9.6206   9.8039   9.9884  10.3022
    10.3557  10.5493  10.5791  10.7149  10.7975  10.8233  10.9604  11.0001
    11.0729  11.1427  11.2721  11.2890  11.5208  11.6052  11.6657  11.6854
    11.7352  11.9046  11.9654  12.0082  12.1788  12.3164  12.4032  12.4317
    12.5449  12.6514  12.7585  12.8563  12.8780  12.9896  13.1275  13.1769
    13.3689  13.4259  13.4600  13.5177  13.6664  13.6985  13.7470  13.8615
    13.8995  13.9926  14.0631  14.1997  14.2617  14.2796  14.4195  14.4592
    14.4739  14.5414  14.5730  14.5903  14.7092  14.7515  14.8454  14.8791
    14.8927  15.0794  15.0864  15.1831  15.2319  15.3027  15.4311  15.5137
    15.5563  15.6242  15.6997  15.7632  15.8572  15.8781  16.0006  16.0356
    16.0999  16.1711  16.2361  16.2536  16.3076  16.3473  16.4174  16.5606
    16.5810  16.6852  16.7247  16.8050  16.8955  16.9201  16.9532  16.9952
    17.0108  17.1174  17.1924  17.2923  17.3597  17.4116  17.4521  17.5785
    17.6178  17.6818  17.7271  17.7641  17.7975  17.8180  17.9128  18.0159
    18.0894  18.1244  18.2042  18.2313  18.3556  18.3892  18.5446  18.5899
    18.6294  18.7980  18.8373  19.0760  19.1615  19.1851  19.3320  19.3738
    19.4309  19.5598  19.6021  19.6654  19.7154  19.9225  19.9287  20.0267
    20.0488  20.1866  20.2294  20.2399  20.2509  20.2988  20.4225  20.4537
    20.5172  20.5347  20.5821  20.6756  20.6986  20.9564  21.0136  21.1339
    21.1989  21.2954  21.3254  21.4408  21.4907  21.6158  21.6321  21.7450
    21.7705  21.8219  21.8929  21.9830  22.0203  22.1645  22.2060  22.4001
    22.4428

          k =-0.5000-0.4606 0.0000 ( 26416 PWs)   bands (ev):

   -81.5728 -80.7047 -80.7047 -80.6920 -80.6917 -80.6515 -80.6231 -79.8663
   -50.6326 -50.2373 -50.1898 -49.5744 -49.5725 -49.5722 -49.5521 -49.5515
   -49.5508 -49.5386 -49.5376 -49.5081 -49.5071 -49.4661 -49.4399 -49.3910
   -49.3903 -49.3336 -49.3331 -49.2577 -49.2269 -48.9787 -48.7805 -48.2983
   -21.5480 -21.4685 -20.8276 -20.8161 -20.7818 -20.7672 -20.6444 -20.6407
   -20.4144 -20.2770 -20.0840 -20.0824 -19.9547 -19.9300 -19.8502 -19.8167
   -19.5703 -19.5639 -19.4389  -9.0370  -9.0320  -8.0351  -8.0188  -7.9685
    -7.8742  -7.8688  -7.8026  -7.7523  -7.6522  -7.5264  -7.4760  -7.4154
    -7.3103  -7.2241  -7.1966  -7.1467  -6.9388  -6.9191  -6.9124  -6.7143
    -6.6446  -6.5814  -6.4622  -6.4044  -6.3648  -6.3278  -6.3097  -6.1573
    -6.1260  -6.0171  -5.9437  -5.8062  -5.7055  -5.6739  -5.4968  -5.4261
    -5.3286  -5.2991  -5.1359  -4.9721  -4.9317  -4.7158  -4.5499  -4.5352
    -4.3928  -4.2299  -4.0680  -4.0554  -3.9216  -3.7943  -3.7499  -3.5977
    -3.5642  -3.2884  -3.0548  -3.0214  -0.3933  -0.3232  -0.3209  -0.3024
    -0.2387  -0.0496  -0.0380   0.0037   0.0912   0.1326   0.1402   0.2422
     0.2796   0.3218   0.4034   0.4124   0.5032   0.5044   0.5144   0.5886
     0.7879   0.8172   0.8221   0.8697   0.9574   0.9713   1.0742   1.0883
     1.1361   1.2403   1.4129   1.4139   1.6793   1.8380   1.9992   1.9999
     2.5100   2.5367   2.5478   2.6279   4.9375   4.9494   5.3832   5.3881
     5.6806   5.9116   5.9232   6.0056   6.0154   6.2251   6.2309   6.3123
     6.4530   6.6590   6.7022   6.8232   7.0016   7.2119   7.3264   7.4736
     7.7045   7.9600   8.1103   8.2462   8.2933   8.3930   8.6220   8.7726
     8.8847   9.0980   9.2315   9.4188   9.4846   9.7650   9.9690  10.0949
    10.2288  10.4351  10.7350  10.8619  10.9129  11.0152  11.1729  11.3024
    11.3147  11.4194  11.6641  11.8516  12.2499  12.3418  12.3498  12.3973
    12.5072  12.5266  12.5808  12.6886  12.8509  12.9785  12.9909  13.0947
    13.2010  13.2326  13.2926  13.3376  13.5026  13.5906  13.6418  13.6627
    13.6771  13.7350  13.7574  13.8242  13.8562  13.8732  13.9682  13.9836
    14.0424  14.0876  14.1116  14.1542  14.2310  14.2966  14.3131  14.3683
    14.4538  14.5356  14.5991  14.6464  14.7768  14.8356  14.9030  14.9309
    15.0046  15.0140  15.0466  15.0859  15.1744  15.1812  15.2560  15.3191
    15.3216  15.4209  15.4916  15.5232  15.5316  15.5485  15.5920  15.6791
    15.7128  15.7675  15.7768  15.8113  15.8340  15.8861  15.9686  16.0571
    16.0647  16.1248  16.1546  16.1936  16.2811  16.4817  16.5346  16.5636
    16.6162  16.6699  16.7555  16.7756  16.8332  16.9769  17.0125  17.0266
    17.0598  17.0728  17.1553  17.2408  17.3165  17.3273  17.3866  17.5242
    17.7186  17.8806  18.0325  18.1237  18.1425  18.2080  18.2329  18.3062
    18.3335  18.4125  18.4827  18.5059  18.6584  18.7071  18.7524  18.8121
    18.9481  19.1725  19.2779  19.3637  19.3951  19.5057  19.5273  19.6368
    20.1066  20.1773  20.1781  20.3044  20.3605  20.4968  20.5665  20.6687
    20.7318  20.7753  20.8404  20.9445  20.9809  21.1272  21.2933  21.3553
    21.6301  21.6692  21.7705  21.7883  21.8878  21.9036  21.9425  22.1317
    22.1647  22.3444  22.4710  22.5536  22.5876  22.6534  22.6678  22.8199
    22.9163

          k =-0.2500 0.2303 0.0000 ( 26396 PWs)   bands (ev):

   -81.5727 -80.7087 -80.7004 -80.6958 -80.6877 -80.6520 -80.6224 -79.8662
   -50.6326 -50.2384 -50.1899 -49.6144 -49.6027 -49.5866 -49.5762 -49.5685
   -49.5195 -49.5077 -49.5056 -49.5007 -49.4870 -49.4661 -49.4364 -49.3990
   -49.3822 -49.3424 -49.3242 -49.2582 -49.2265 -48.9776 -48.7803 -48.2983
   -21.7879 -21.3441 -21.3090 -21.0084 -20.6842 -20.5726 -20.4672 -20.3822
   -20.2774 -20.1832 -20.1329 -19.9752 -19.9616 -19.9458 -19.9155 -19.7917
   -19.6440 -19.5093 -19.4465  -9.2246  -9.0191  -8.6992  -8.6087  -8.5415
    -8.2409  -8.1200  -8.0266  -7.7301  -7.6686  -7.5221  -7.4317  -7.3801
    -7.3439  -7.2692  -7.1103  -7.0713  -6.8930  -6.8571  -6.7329  -6.6856
    -6.6015  -6.4931  -6.4196  -6.3646  -6.2066  -6.1515  -6.0713  -5.9466
    -5.8958  -5.7948  -5.7319  -5.6378  -5.5647  -5.5014  -5.3929  -5.2554
    -5.1143  -4.9610  -4.8144  -4.7961  -4.7052  -4.6144  -4.5537  -4.5088
    -4.3520  -4.2635  -4.1405  -4.0459  -3.9982  -3.8944  -3.7439  -3.7301
    -3.5442  -3.3991  -3.2376  -2.9566  -0.5385  -0.4759  -0.3264  -0.2757
    -0.2488  -0.2292  -0.1878  -0.0986  -0.0153   0.0363   0.0931   0.1133
     0.1400   0.2554   0.2959   0.3601   0.4357   0.5100   0.5377   0.6839
     0.7631   0.8579   0.8980   0.9380   0.9695   1.0091   1.1026   1.2178
     1.2961   1.3981   1.5948   1.8180   1.8741   1.8971   2.0061   2.1488
     2.2131   2.5042   2.5451   2.6424   3.6477   4.3425   4.5660   5.0033
     5.4243   5.6372   5.7008   6.1874   6.3396   6.5686   6.6003   6.7777
     6.8607   6.9981   7.0915   7.4146   7.5438   7.7934   7.8752   8.0374
     8.3617   8.4337   8.5799   8.6532   8.7749   8.8874   8.9313   9.1143
     9.1869   9.3401   9.4807   9.5381   9.7264   9.8899  10.0093  10.1145
    10.1886  10.2308  10.3475  10.4212  10.5859  10.7044  10.8123  10.9131
    11.0371  11.1186  11.2199  11.2666  11.3599  11.4625  11.5813  11.6209
    11.6829  11.7979  11.8807  11.9189  11.9676  12.1120  12.3111  12.3479
    12.3984  12.5093  12.5568  12.6719  12.7246  12.8447  12.9614  12.9863
    13.0165  13.0862  13.1369  13.2092  13.3098  13.3663  13.4555  13.5122
    13.5784  13.6908  13.7205  13.7640  13.8248  13.9670  14.0001  14.0749
    14.1649  14.2308  14.2718  14.3100  14.3854  14.4218  14.5289  14.6061
    14.6961  14.7612  14.9064  14.9422  15.0053  15.0634  15.0937  15.2325
    15.3410  15.4115  15.5010  15.6015  15.7090  15.8289  15.9734  16.0488
    16.1377  16.1875  16.2711  16.3473  16.4115  16.5198  16.5363  16.5856
    16.6708  16.7378  16.8317  16.9321  17.0036  17.0818  17.1726  17.2461
    17.2967  17.3609  17.4250  17.4973  17.5908  17.6068  17.7293  17.7945
    17.8729  17.9158  17.9426  18.0796  18.1442  18.2150  18.2867  18.3579
    18.4125  18.5391  18.6042  18.6892  18.7637  18.8082  18.9087  19.0114
    19.0847  19.1128  19.1462  19.2352  19.3170  19.3672  19.4543  19.5125
    19.6477  19.7124  19.8230  19.8927  19.9473  20.0005  20.0685  20.1081
    20.1472  20.2499  20.2909  20.3358  20.3939  20.4814  20.5965  20.6921
    20.8283  20.9270  21.0009  21.0420  21.0957  21.1456  21.2130  21.3311
    21.4043  21.4514  21.5238  21.5645  21.6408  21.7033  21.7318  21.8370
    21.9152  22.0034  22.1142  22.1873  22.2651  22.4176  22.4429  22.4996
    22.5725

     the spin up/dw Fermi energies are    -2.4683   -2.0428 ev

!    total energy              =   -2319.70209883 Ry
     Harris-Foulkes estimate   =   -2319.70209883 Ry
     estimated scf accuracy    <          8.2E-09 Ry

     The total energy is the sum of the following terms:

     one-electron contribution =  -26096.78604071 Ry
     hartree contribution      =   13064.56490492 Ry
     xc contribution           =    -348.16396725 Ry
     ewald contribution        =   11059.49195464 Ry
     Hubbard energy            =       1.19107900 Ry
     smearing contrib. (-TS)   =      -0.00002943 Ry

     total magnetization       =    22.00 Bohr mag/cell
     absolute magnetization    =    28.20 Bohr mag/cell

     convergence has been achieved in  17 iterations

     Forces acting on atoms (Ry/au):


     negative rho (up, down):  0.196E-02 0.141E-02
     atom    1 type  1   force =    -0.00555094   -0.01484899    0.00041274
     atom    2 type  1   force =     0.00034573    0.00975628    0.00032910
     atom    3 type  2   force =     0.03368400   -0.00082056   -0.00018075
     atom    4 type  2   force =     0.00689991    0.01124076    0.00008451
     atom    5 type  1   force =     0.00089534    0.01918149    0.00009222
     atom    6 type  1   force =    -0.00451687   -0.02261369   -0.00021449
     atom    7 type  1   force =     0.00005357    0.00040630   -0.00024855
     atom    8 type  1   force =    -0.00117804   -0.00142834   -0.00072967
     atom    9 type  2   force =     0.01566864    0.00033347   -0.00016371
     atom   10 type  2   force =    -0.00000903   -0.00074201    0.00047217
     atom   11 type  1   force =     0.01398425   -0.05686871    0.00026859
     atom   12 type  1   force =     0.01368594    0.05699163    0.00025952
     atom   13 type  1   force =    -0.00037254   -0.00031553    0.00044269
     atom   14 type  1   force =    -0.00577187   -0.01509534    0.00018162
     atom   15 type  1   force =     0.00031202    0.00957640   -0.00008156
     atom   16 type  2   force =    -0.03487527   -0.00087737   -0.00018622
     atom   17 type  2   force =     0.00694177    0.01117629   -0.00003991
     atom   18 type  1   force =     0.00409996    0.01907292    0.00008617
     atom   19 type  1   force =    -0.00064470   -0.02257513   -0.00016455
     atom   20 type  1   force =    -0.00001987   -0.00008555   -0.00056472
     atom   21 type  1   force =    -0.00124773   -0.00132616   -0.00053763
     atom   22 type  2   force =    -0.01425727    0.00047073   -0.00017287
     atom   23 type  2   force =    -0.00008527   -0.00009275   -0.00026922
     atom   24 type  1   force =    -0.01390153   -0.05680466    0.00026261
     atom   25 type  1   force =    -0.01365439    0.05703377    0.00026729
     atom   26 type  1   force =    -0.00033682   -0.00050436    0.00031337
     atom   27 type  3   force =    -0.00000901   -0.00024667    0.00001618
     atom   28 type  3   force =    -0.00000359   -0.00001719   -0.00002190
     atom   29 type  3   force =    -0.00014001   -0.00005814    0.00013297
     atom   30 type  3   force =     0.00000391    0.00005785    0.00032624
     atom   31 type  1   force =    -0.00000029    0.00002326   -0.00037222

     Total force =     0.001721     Total SCF correction =     0.000193
     SCF correction compared to forces is large: reduce conv_thr to get better values

     bfgs converged in  18 scf cycles and  17 bfgs steps
     (criteria: energy < 0.10E-03, force < 0.10E-02)

     End of BFGS Geometry Optimization

     Final energy   =   -2319.7020988262 Ry
Begin final coordinates

ATOMIC_POSITIONS (crystal)
O0       0.000000000   0.000000000   0.375517120    0   0   1
O0       0.000000000   0.500000000   0.395880206    0   0   1
Mn1      0.250000000   0.500000000   0.448056369    0   0   1
Mn1      0.000000000   0.000000000   0.447032889    0   0   1
O0       0.250000000   0.800000000   0.447460864    0   0   1
O0       0.250000000   0.200000000   0.448976781    0   0   1
O0       0.000000000   0.500000000   0.494409912    0   0   1
O0       0.000000000   0.000000000   0.524570702    0   0   1
Mn1      0.250000000   0.000000000   0.573495132    0   0   1
Mn1      0.000000000   0.500000000   0.568425947    0   0   1
O0       0.250000000   0.700000000   0.578705991    0   0   1
O0       0.250000000   0.300000000   0.578922852    0   0   1
O0       0.000000000   0.000000000   0.619605491    0   0   1
O0       0.500000000   0.000000000   0.375864803    0   0   1
O0       0.500000000   0.500000000   0.395873166    0   0   1
Mn1      0.750000000   0.500000000   0.448062441    0   0   1
Mn1      0.500000000   0.000000000   0.447460710    0   0   1
O0       0.750000000   0.800000000   0.447466936    0   0   1
O0       0.750000000   0.200000000   0.448966890    0   0   1
O0       0.500000000   0.500000000   0.494076614    0   0   1
O0       0.500000000   0.000000000   0.524471090    0   0   1
Mn1      0.750000000   0.000000000   0.573507885    0   0   1
Mn1      0.500000000   0.500000000   0.591824964    0   0   1
O0       0.750000000   0.700000000   0.578694201    0   0   1
O0       0.750000000   0.300000000   0.578890467    0   0   1
O0       0.500000000   0.000000000   0.619525812    0   0   1
H2       0.000364263   0.645962152   0.379462082
H2       0.500277291   0.646537718   0.379662442
H2       0.161041551   0.041221907   0.364337324
H2       0.660998110   0.040716794   0.364550659
O0       0.500102712   0.501195212   0.653401257
End final coordinates



     init_run     :    119.83s CPU    123.04s WALL (       1 calls)
     electrons    : 126750.44s CPU 132479.47s WALL (      18 calls)
     update_pot   :    326.22s CPU    336.95s WALL (      17 calls)
     forces       :   3522.66s CPU   3660.04s WALL (      18 calls)

     Called by init_run:
     wfcinit      :     55.26s CPU     57.14s WALL (       1 calls)
     potinit      :      8.37s CPU      9.07s WALL (       1 calls)

     Called by electrons:
     c_bands      :  72585.76s CPU  75879.01s WALL (     527 calls)
     sum_band     :  27990.25s CPU  29284.69s WALL (     527 calls)
     v_of_rho     :   1176.36s CPU   1314.34s WALL (     544 calls)
     newd         :  24956.28s CPU  25119.46s WALL (     544 calls)
     mix_rho      :    206.79s CPU    213.81s WALL (     527 calls)

     Called by c_bands:
     init_us_2    :    144.27s CPU    145.08s WALL (    5545 calls)
     cegterg      :  70639.32s CPU  72628.53s WALL (    2635 calls)

     Called by *egterg:
     h_psi        :  39515.71s CPU  40793.74s WALL (    7035 calls)
     s_psi        :   4288.36s CPU   4335.26s WALL (    7215 calls)
     g_psi        :     93.99s CPU     94.06s WALL (    4395 calls)
     cdiaghg      :   7212.26s CPU   7228.47s WALL (    6940 calls)

     Called by h_psi:
     add_vuspsi   :   4204.18s CPU   4255.68s WALL (    7035 calls)
     vhpsi        :   4095.36s CPU   4175.72s WALL (    7035 calls)

     General routines
     calbec       :  10027.71s CPU  10169.37s WALL (   44810 calls)
     fft          :   1283.83s CPU   1606.78s WALL (   17034 calls)
     ffts         :     14.75s CPU     15.41s WALL (    2142 calls)
     fftw         :  22568.33s CPU  23979.20s WALL ( 4715835 calls)
     interpolate  :    154.97s CPU    157.24s WALL (    2142 calls)
     davcio       :      0.33s CPU     86.50s WALL (    5635 calls)

     Parallel routines
     fft_scatter  :   8353.09s CPU  10045.64s WALL ( 4735011 calls)
     Hubbard U routines
     new_ns       :   1009.33s CPU   1073.09s WALL (     527 calls)
     vhpsi        :   4095.36s CPU   4175.72s WALL (    7035 calls)
     force_hub    :    963.02s CPU    987.98s WALL (      18 calls)

     PWSCF        :     1d   12h33m CPU        1d   14h11m WALL


   This run was terminated on:   0: 3:39   6May2014            

=------------------------------------------------------------------------------=
   JOB DONE.
=------------------------------------------------------------------------------=
---------------------------------------
Running PBS batch system epilogue script
Job id: 340677.audhumbla.fysik.dtu.dk
Username: zhonxu
Groupname: campgst
Jobname: MnO2/Eads-2-layers/O-U-3.0
Sessionid: 24955
Resources limits: neednodes=2:ppn=8:xeon8,nodes=2:ppn=8:xeon8,walltime=48:00:00
Resources used: cput=610:24:40,mem=17359496kb,vmem=21429224kb,walltime=38:11:29
Queuename: verylong
Accounting:
This job has allocated the following 16 nodes:
d065 d065 d065 d065 d065 d065 d065 d065 d004 d004 d004 d004 d004 d004 d004 d004
Finished epilogue job 340677.audhumbla.fysik.dtu.dk for zhonxu
