
     Program PWSCF v.5.0.2 (svn rev. 9656) starts on 22Jun2014 at 19:34:58 

     This program is part of the open-source Quantum ESPRESSO suite
     for quantum simulation of materials; please cite
         "P. Giannozzi et al., J. Phys.:Condens. Matter 21 395502 (2009);
          URL http://www.quantum-espresso.org", 
     in publications or presentations arising from this work. More details at
     http://www.quantum-espresso.org/quote.php

     Parallel version (MPI), running on    32 processors
     K-points division:     npool     =       4
     R & G space division:  proc/nbgrp/npool/nimage =       8

     Current dimensions of program PWSCF are:
     Max number of different atomic species (ntypx) = 10
     Max number of k-points (npk) =  40000
     Max angular momentum in pseudopotentials (lmaxx) =  3
     Reading input from pwscf.in
Warning: card &CELL ignored
Warning: card / ignored

     Subspace diagonalization in iterative solution of the eigenvalue problem:
     a serial algorithm will be used


     Parallelization info
     --------------------
     sticks:   dense  smooth     PW     G-vecs:    dense   smooth      PW
     Min         622     198     56               199218    36067    5410
     Max         623     199     57               199233    36099    5421
     Sum        4979    1589    451              1593815   288631   43339



     bravais-lattice index     =            0
     lattice parameter (alat)  =      10.7336  a.u.
     unit-cell volume          =    8441.1435 (a.u.)^3
     number of atoms/cell      =           51
     number of atomic types    =            3
     number of electrons       =       445.00 (up: 246.00, down: 199.00)
     number of Kohn-Sham states=          643
     kinetic-energy cutoff     =      40.0000  Ry
     charge density cutoff     =     500.0000  Ry
     convergence threshold     =      1.0E-06
     mixing beta               =       0.3000
     number of iterations used =            8  plain     mixing
     Exchange-correlation      = SLA  PW   PBE  PBE ( 1 4 3 4 0)
     EXX-fraction              =        0.00
     nstep                     =           50


     celldm(1)=  10.733644  celldm(2)=   0.000000  celldm(3)=   0.000000
     celldm(4)=   0.000000  celldm(5)=   0.000000  celldm(6)=   0.000000

     crystal axes: (cart. coord. in units of alat)
               a(1) = (   1.000000   0.000000   0.000000 )  
               a(2) = (   0.000000   1.085558   0.000000 )  
               a(3) = (   0.000000   0.000000   6.287913 )  

     reciprocal axes: (cart. coord. in units 2 pi/alat)
               b(1) = (  1.000000  0.000000  0.000000 )  
               b(2) = (  0.000000  0.921185  0.000000 )  
               b(3) = (  0.000000  0.000000  0.159035 )  


     PseudoPot. # 1 for O  read from file:
     /home/camp/zhonxu/pseudo/o_pbe_v1.01.uspp.F.UPF
     MD5 check sum: 2bcb18d16ea4b960afae9ec6d52f22d2
     Pseudo is Ultrasoft + core correction, Zval =  6.0
     Generated by new atomic code, or converted to UPF format
     Using radial grid of  737 points,  5 beta functions with: 
                l(1) =   0
                l(2) =   0
                l(3) =   1
                l(4) =   1
                l(5) =   2
     Q(r) pseudized with  8 coefficients,  rinner =    0.900   0.900   0.900
                                                       0.900   0.900

     PseudoPot. # 2 for Mn read from file:
     /home/camp/zhonxu/pseudo/mn_pbe_v1.uspp.F.UPF
     MD5 check sum: 5fd7c7b5c956fd19902447332617373a
     Pseudo is Ultrasoft + core correction, Zval = 15.0
     Generated by new atomic code, or converted to UPF format
     Using radial grid of  859 points,  6 beta functions with: 
                l(1) =   0
                l(2) =   0
                l(3) =   1
                l(4) =   1
                l(5) =   2
                l(6) =   2
     Q(r) pseudized with  6 coefficients,  rinner =    1.150   1.150   1.150
                                                       1.150   1.150

     PseudoPot. # 3 for H  read from file:
     /home/camp/zhonxu/pseudo/h_pbe_v1.uspp.F.UPF
     MD5 check sum: 3408e3ff4ec8b0a4e358431e7e038a48
     Pseudo is Ultrasoft, Zval =  1.0
     Generated by new atomic code, or converted to UPF format
     Using radial grid of  615 points,  2 beta functions with: 
                l(1) =   0
                l(2) =   0
     Q(r) pseudized with  8 coefficients,  rinner =    0.700

     atomic species   valence    mass     pseudopotential
        O0             6.00    15.99940     O ( 1.00)
        Mn1           15.00    54.93800     Mn( 1.00)
        H2             1.00     1.00794     H ( 1.00)

     Starting magnetic structure 
     atomic species   magnetization
        O0           0.000
        Mn1          0.600
        H2           0.000

      2 Sym. Ops. (no inversion) found



   Cartesian axes

     site n.     atom                  positions (alat units)
         1           O0  tau(   1) = (   0.0000000   0.5427791   2.1126758  )
         2           Mn1 tau(   2) = (   0.2500000   0.5427791   2.3297975  )
         3           Mn1 tau(   3) = (   0.0000000   0.0000000   2.3297975  )
         4           O0  tau(   4) = (   0.2500000   0.8684466   2.3297975  )
         5           O0  tau(   5) = (   0.2500000   0.2171117   2.3297975  )
         6           O0  tau(   6) = (   0.0000000   0.5427791   2.5469191  )
         7           O0  tau(   7) = (   0.0000000   0.0000000   2.6554485  )
         8           Mn1 tau(   8) = (   0.2500000   0.0000000   2.8725701  )
         9           Mn1 tau(   9) = (   0.0000000   0.5427791   2.8725701  )
        10           O0  tau(  10) = (   0.2500000   0.7598908   2.8725701  )
        11           O0  tau(  11) = (   0.2500000   0.3256675   2.8725701  )
        12           O0  tau(  12) = (   0.0000000   0.0000000   3.0896918  )
        13           O0  tau(  13) = (   0.0000000   0.5423992   3.2211720  )
        14           Mn1 tau(  14) = (   0.2541800   0.5418890   3.4380421  )
        15           Mn1 tau(  15) = (   0.0000000  -0.0016718   3.4386709  )
        16           O0  tau(  16) = (   0.2508600   0.8722895   3.4318800  )
        17           O0  tau(  17) = (   0.2501700   0.2116839   3.4357156  )
        18           O0  tau(  18) = (   0.0000000   0.5438430   3.6588736  )
        19           O0  tau(  19) = (   0.0000000  -0.0074144   3.7708614  )
        20           Mn1 tau(  20) = (   0.2497800  -0.0090536   4.0023194  )
        21           Mn1 tau(  21) = (   0.0000000   0.5324012   3.9742753  )
        22           O0  tau(  22) = (   0.2405300   0.7443673   4.0271567  )
        23           O0  tau(  23) = (   0.2475400   0.3255481   4.0306779  )
        24           O0  tau(  24) = (   0.0000000  -0.0063505   4.2011432  )
        25           O0  tau(  25) = (   0.5000000   0.5427791   2.1126758  )
        26           Mn1 tau(  26) = (   0.7500000   0.5427791   2.3297975  )
        27           Mn1 tau(  27) = (   0.5000000   0.0000000   2.3297975  )
        28           O0  tau(  28) = (   0.7500000   0.8684466   2.3297975  )
        29           O0  tau(  29) = (   0.7500000   0.2171117   2.3297975  )
        30           O0  tau(  30) = (   0.5000000   0.5427791   2.5469191  )
        31           O0  tau(  31) = (   0.5000000   0.0000000   2.6554485  )
        32           Mn1 tau(  32) = (   0.7500000   0.0000000   2.8725701  )
        33           Mn1 tau(  33) = (   0.5000000   0.5427791   2.8725701  )
        34           O0  tau(  34) = (   0.7500000   0.7598908   2.8725701  )
        35           O0  tau(  35) = (   0.7500000   0.3256675   2.8725701  )
        36           O0  tau(  36) = (   0.5000000   0.0000000   3.0896918  )
        37           O0  tau(  37) = (   0.5000000   0.5419867   3.2205432  )
        38           Mn1 tau(  38) = (   0.7458200   0.5418890   3.4380421  )
        39           Mn1 tau(  39) = (   0.5000000  -0.0008359   3.4411232  )
        40           O0  tau(  40) = (   0.7491400   0.8722895   3.4318800  )
        41           O0  tau(  41) = (   0.7498300   0.2116839   3.4357156  )
        42           O0  tau(  42) = (   0.5000000   0.5426380   3.6650987  )
        43           O0  tau(  43) = (   0.5000000  -0.0059489   3.7736280  )
        44           Mn1 tau(  44) = (   0.7502200  -0.0090536   4.0023194  )
        45           Mn1 tau(  45) = (   0.5000000   0.5364395   4.0290431  )
        46           O0  tau(  46) = (   0.7594700   0.7443673   4.0271567  )
        47           O0  tau(  47) = (   0.7524600   0.3255481   4.0306779  )
        48           O0  tau(  48) = (   0.5000000  -0.0148070   4.2005773  )
        49           O0  tau(  49) = (   0.5000000   0.5747054   4.3541910  )
        50           O0  tau(  50) = (   0.5000000   0.3654315   4.4920850  )
        51           H2  tau(  51) = (   0.5000000   0.4361990   4.6515464  )

     number of k points=    18  Methfessel-Paxton smearing, width (Ry)=  0.0100
                       cart. coord. in units 2pi/alat
        k(    1) = (   0.0000000   0.0000000   0.0000000), wk =   0.0625000
        k(    2) = (   0.0000000   0.2302962   0.0000000), wk =   0.1250000
        k(    3) = (   0.0000000  -0.4605925   0.0000000), wk =   0.0625000
        k(    4) = (   0.2500000   0.0000000   0.0000000), wk =   0.1250000
        k(    5) = (   0.2500000   0.2302962   0.0000000), wk =   0.2500000
        k(    6) = (   0.2500000  -0.4605925   0.0000000), wk =   0.1250000
        k(    7) = (  -0.5000000   0.0000000   0.0000000), wk =   0.0625000
        k(    8) = (  -0.5000000   0.2302962   0.0000000), wk =   0.1250000
        k(    9) = (  -0.5000000  -0.4605925   0.0000000), wk =   0.0625000
        k(   10) = (   0.0000000   0.0000000   0.0000000), wk =   0.0625000
        k(   11) = (   0.0000000   0.2302962   0.0000000), wk =   0.1250000
        k(   12) = (   0.0000000  -0.4605925   0.0000000), wk =   0.0625000
        k(   13) = (   0.2500000   0.0000000   0.0000000), wk =   0.1250000
        k(   14) = (   0.2500000   0.2302962   0.0000000), wk =   0.2500000
        k(   15) = (   0.2500000  -0.4605925   0.0000000), wk =   0.1250000
        k(   16) = (  -0.5000000   0.0000000   0.0000000), wk =   0.0625000
        k(   17) = (  -0.5000000   0.2302962   0.0000000), wk =   0.1250000
        k(   18) = (  -0.5000000  -0.4605925   0.0000000), wk =   0.0625000

     Dense  grid:  1593815 G-vectors     FFT dimensions: (  80,  90, 486)

     Smooth grid:   288631 G-vectors     FFT dimensions: (  45,  48, 288)

     Largest allocated arrays     est. size (Mb)     dimensions
        Kohn-Sham Wavefunctions        44.69 Mb     (   4555,  643)
        NL pseudopotentials            50.88 Mb     (   4555,  732)
        Each V/rho on FFT grid         13.40 Mb     ( 439200,   2)
        Each G-vector array             1.52 Mb     ( 199231)
        G-vector shells                 0.71 Mb     (  93597)
     Largest temporary arrays     est. size (Mb)     dimensions
        Auxiliary wavefunctions       178.76 Mb     (   4555, 2572)
        Each subspace H/S matrix      100.94 Mb     (2572,2572)
        Each <psi_i|beta_j> matrix      7.18 Mb     (    732,  643)
        Arrays for rho mixing          53.61 Mb     ( 439200,   8)

     Check: negative/imaginary core charge=   -0.000029    0.000000

     Initial potential from superposition of free atoms
     Check: negative starting charge=(component1):   -0.000903
     Check: negative starting charge=(component2):   -0.000287

     starting charge  428.99981, renormalised to  445.00000

     negative rho (up, down):  0.936E-03 0.298E-03
     Starting wfc are  345 randomized atomic wfcs

     total cpu time spent up to now is      160.4 secs

     Self-consistent Calculation

     iteration #  1     ecut=    40.00 Ry     beta=0.30
     Davidson diagonalization with overlap
     ethr =  1.00E-02,  avg # of iterations =  5.8

     negative rho (up, down):  0.824E-03 0.524E-03

     total cpu time spent up to now is     1494.3 secs

     total energy              =   -4189.19480656 Ry
     Harris-Foulkes estimate   =   -4506.52245470 Ry
     estimated scf accuracy    <     649.78474837 Ry

     total magnetization       =    47.00 Bohr mag/cell
     absolute magnetization    =    59.54 Bohr mag/cell

     iteration #  2     ecut=    40.00 Ry     beta=0.30
     Davidson diagonalization with overlap
     ethr =  1.00E-02,  avg # of iterations =  9.0

     negative rho (up, down):  0.246E-01 0.245E-01

     total cpu time spent up to now is     3610.9 secs

     total energy              =   -3547.62357975 Ry
     Harris-Foulkes estimate   =   -7189.46920030 Ry
     estimated scf accuracy    <   78078.02534145 Ry

     total magnetization       =    47.00 Bohr mag/cell
     absolute magnetization    =    47.00 Bohr mag/cell

     iteration #  3     ecut=    40.00 Ry     beta=0.30
     Davidson diagonalization with overlap
     ethr =  1.00E-02,  avg # of iterations =  6.0

     negative rho (up, down):  0.198E-01 0.178E-01

     total cpu time spent up to now is     4982.3 secs

     total energy              =   -4436.80585794 Ry
     Harris-Foulkes estimate   =   -4651.71335919 Ry
     estimated scf accuracy    <    7504.17164295 Ry

     total magnetization       =    47.00 Bohr mag/cell
     absolute magnetization    =    47.38 Bohr mag/cell

     iteration #  4     ecut=    40.00 Ry     beta=0.30
     Davidson diagonalization with overlap
     ethr =  1.00E-02,  avg # of iterations =  5.8

     negative rho (up, down):  0.180E-01 0.141E-01

     total cpu time spent up to now is     5887.4 secs

     total energy              =   -4488.64357157 Ry
     Harris-Foulkes estimate   =   -4516.41074828 Ry
     estimated scf accuracy    <     686.95194261 Ry

     total magnetization       =    47.00 Bohr mag/cell
     absolute magnetization    =    50.22 Bohr mag/cell

     iteration #  5     ecut=    40.00 Ry     beta=0.30
     Davidson diagonalization with overlap
     ethr =  1.00E-02,  avg # of iterations =  2.8

     negative rho (up, down):  0.150E-01 0.117E-01

     total cpu time spent up to now is     6333.9 secs

     total energy              =   -4496.31839606 Ry
     Harris-Foulkes estimate   =   -4506.76205075 Ry
     estimated scf accuracy    <     276.54980792 Ry

     total magnetization       =    47.00 Bohr mag/cell
     absolute magnetization    =    56.68 Bohr mag/cell

     iteration #  6     ecut=    40.00 Ry     beta=0.30
     Davidson diagonalization with overlap
     ethr =  1.00E-02,  avg # of iterations =  2.1

     negative rho (up, down):  0.137E-01 0.946E-02

     total cpu time spent up to now is     6742.9 secs

     total energy              =   -4500.92892943 Ry
     Harris-Foulkes estimate   =   -4503.97837738 Ry
     estimated scf accuracy    <      31.34981408 Ry

     total magnetization       =    47.00 Bohr mag/cell
     absolute magnetization    =    60.45 Bohr mag/cell

     iteration #  7     ecut=    40.00 Ry     beta=0.30
     Davidson diagonalization with overlap
     ethr =  7.04E-03,  avg # of iterations =  1.6

     negative rho (up, down):  0.983E-02 0.673E-02

     total cpu time spent up to now is     7126.9 secs

     total energy              =   -4502.99157838 Ry
     Harris-Foulkes estimate   =   -4502.80413098 Ry
     estimated scf accuracy    <       6.07814044 Ry

     total magnetization       =    47.00 Bohr mag/cell
     absolute magnetization    =    60.62 Bohr mag/cell

     iteration #  8     ecut=    40.00 Ry     beta=0.30
     Davidson diagonalization with overlap
     ethr =  1.37E-03,  avg # of iterations =  4.9

     negative rho (up, down):  0.584E-02 0.424E-02

     total cpu time spent up to now is     7693.0 secs

     total energy              =   -4503.66226467 Ry
     Harris-Foulkes estimate   =   -4503.90040703 Ry
     estimated scf accuracy    <       8.09501082 Ry

     total magnetization       =    47.00 Bohr mag/cell
     absolute magnetization    =    60.23 Bohr mag/cell

     iteration #  9     ecut=    40.00 Ry     beta=0.30
     Davidson diagonalization with overlap
     ethr =  1.37E-03,  avg # of iterations =  3.5

     negative rho (up, down):  0.343E-02 0.260E-02

     total cpu time spent up to now is     8168.5 secs

     total energy              =   -4504.22311624 Ry
     Harris-Foulkes estimate   =   -4504.38720886 Ry
     estimated scf accuracy    <       5.36802811 Ry

     total magnetization       =    47.00 Bohr mag/cell
     absolute magnetization    =    56.99 Bohr mag/cell

     iteration # 10     ecut=    40.00 Ry     beta=0.30
     Davidson diagonalization with overlap
     ethr =  1.21E-03,  avg # of iterations =  3.1

     negative rho (up, down):  0.250E-02 0.193E-02

     total cpu time spent up to now is     8635.8 secs

     total energy              =   -4504.42094495 Ry
     Harris-Foulkes estimate   =   -4504.59169822 Ry
     estimated scf accuracy    <       2.29695227 Ry

     total magnetization       =    47.00 Bohr mag/cell
     absolute magnetization    =    55.02 Bohr mag/cell

     iteration # 11     ecut=    40.00 Ry     beta=0.30
     Davidson diagonalization with overlap
     ethr =  5.16E-04,  avg # of iterations =  5.0

     negative rho (up, down):  0.325E-02 0.201E-02

     total cpu time spent up to now is     9166.2 secs

     total energy              =   -4504.60203667 Ry
     Harris-Foulkes estimate   =   -4504.73305365 Ry
     estimated scf accuracy    <       2.50770570 Ry

     total magnetization       =    47.00 Bohr mag/cell
     absolute magnetization    =    52.69 Bohr mag/cell

     iteration # 12     ecut=    40.00 Ry     beta=0.30
     Davidson diagonalization with overlap
     ethr =  5.16E-04,  avg # of iterations =  2.9

     negative rho (up, down):  0.327E-02 0.205E-02

     total cpu time spent up to now is     9618.1 secs

     total energy              =   -4504.71470130 Ry
     Harris-Foulkes estimate   =   -4504.75097808 Ry
     estimated scf accuracy    <       1.49771474 Ry

     total magnetization       =    47.00 Bohr mag/cell
     absolute magnetization    =    52.37 Bohr mag/cell

     iteration # 13     ecut=    40.00 Ry     beta=0.30
     Davidson diagonalization with overlap
     ethr =  3.37E-04,  avg # of iterations =  4.4

     negative rho (up, down):  0.260E-02 0.182E-02

     total cpu time spent up to now is    10144.9 secs

     total energy              =   -4504.71671720 Ry
     Harris-Foulkes estimate   =   -4504.78568839 Ry
     estimated scf accuracy    <       1.37238951 Ry

     total magnetization       =    47.00 Bohr mag/cell
     absolute magnetization    =    50.57 Bohr mag/cell

     iteration # 14     ecut=    40.00 Ry     beta=0.30
     Davidson diagonalization with overlap
     ethr =  3.08E-04,  avg # of iterations =  1.8

     negative rho (up, down):  0.274E-02 0.177E-02

     total cpu time spent up to now is    10538.6 secs

     total energy              =   -4504.72242341 Ry
     Harris-Foulkes estimate   =   -4504.76503893 Ry
     estimated scf accuracy    <       0.33958965 Ry

     total magnetization       =    47.00 Bohr mag/cell
     absolute magnetization    =    50.97 Bohr mag/cell

     iteration # 15     ecut=    40.00 Ry     beta=0.30
     Davidson diagonalization with overlap
     ethr =  7.63E-05,  avg # of iterations =  5.3

     negative rho (up, down):  0.312E-02 0.177E-02

     total cpu time spent up to now is    11100.5 secs

     total energy              =   -4504.71232560 Ry
     Harris-Foulkes estimate   =   -4504.82269110 Ry
     estimated scf accuracy    <       3.27797308 Ry

     total magnetization       =    47.00 Bohr mag/cell
     absolute magnetization    =    50.91 Bohr mag/cell

     iteration # 16     ecut=    40.00 Ry     beta=0.30
     Davidson diagonalization with overlap
     ethr =  7.63E-05,  avg # of iterations =  4.1

     negative rho (up, down):  0.296E-02 0.161E-02

     total cpu time spent up to now is    11595.1 secs

     total energy              =   -4504.76247818 Ry
     Harris-Foulkes estimate   =   -4504.76399447 Ry
     estimated scf accuracy    <       0.09000873 Ry

     total magnetization       =    47.00 Bohr mag/cell
     absolute magnetization    =    50.57 Bohr mag/cell

     iteration # 17     ecut=    40.00 Ry     beta=0.30
     Davidson diagonalization with overlap
     ethr =  2.02E-05,  avg # of iterations =  2.1

     negative rho (up, down):  0.276E-02 0.170E-02

     total cpu time spent up to now is    12041.9 secs

     total energy              =   -4504.76813406 Ry
     Harris-Foulkes estimate   =   -4504.77532510 Ry
     estimated scf accuracy    <       0.18085039 Ry

     total magnetization       =    47.00 Bohr mag/cell
     absolute magnetization    =    50.54 Bohr mag/cell

     iteration # 18     ecut=    40.00 Ry     beta=0.30
     Davidson diagonalization with overlap
     ethr =  2.02E-05,  avg # of iterations =  1.4

     negative rho (up, down):  0.289E-02 0.172E-02

     total cpu time spent up to now is    12456.2 secs

     total energy              =   -4504.77917334 Ry
     Harris-Foulkes estimate   =   -4504.77968086 Ry
     estimated scf accuracy    <       0.05276174 Ry

     total magnetization       =    47.00 Bohr mag/cell
     absolute magnetization    =    49.72 Bohr mag/cell

     iteration # 19     ecut=    40.00 Ry     beta=0.30
     Davidson diagonalization with overlap
     ethr =  1.19E-05,  avg # of iterations =  4.1

     negative rho (up, down):  0.303E-02 0.175E-02

     total cpu time spent up to now is    12952.1 secs

     total energy              =   -4504.78254884 Ry
     Harris-Foulkes estimate   =   -4504.78426076 Ry
     estimated scf accuracy    <       0.13975273 Ry

     total magnetization       =    47.00 Bohr mag/cell
     absolute magnetization    =    50.30 Bohr mag/cell

     iteration # 20     ecut=    40.00 Ry     beta=0.30
     Davidson diagonalization with overlap
     ethr =  1.19E-05,  avg # of iterations =  1.0

     negative rho (up, down):  0.436E-02 0.240E-02

     total cpu time spent up to now is    13321.7 secs

     total energy              =   -4504.78705051 Ry
     Harris-Foulkes estimate   =   -4504.78677761 Ry
     estimated scf accuracy    <       0.02199993 Ry

     total magnetization       =    47.00 Bohr mag/cell
     absolute magnetization    =    49.47 Bohr mag/cell

     iteration # 21     ecut=    40.00 Ry     beta=0.30
     Davidson diagonalization with overlap
     ethr =  4.94E-06,  avg # of iterations =  2.1

     negative rho (up, down):  0.463E-02 0.250E-02

     total cpu time spent up to now is    13723.0 secs

     total energy              =   -4504.78949496 Ry
     Harris-Foulkes estimate   =   -4504.78892754 Ry
     estimated scf accuracy    <       0.00678694 Ry

     total magnetization       =    47.00 Bohr mag/cell
     absolute magnetization    =    49.28 Bohr mag/cell

     iteration # 22     ecut=    40.00 Ry     beta=0.30
     Davidson diagonalization with overlap
     ethr =  1.53E-06,  avg # of iterations =  5.8

     negative rho (up, down):  0.423E-02 0.225E-02

     total cpu time spent up to now is    14294.1 secs

     total energy              =   -4504.79031599 Ry
     Harris-Foulkes estimate   =   -4504.79014274 Ry
     estimated scf accuracy    <       0.00680990 Ry

     total magnetization       =    47.00 Bohr mag/cell
     absolute magnetization    =    49.24 Bohr mag/cell

     iteration # 23     ecut=    40.00 Ry     beta=0.30
     Davidson diagonalization with overlap
     ethr =  1.53E-06,  avg # of iterations =  1.6

     negative rho (up, down):  0.412E-02 0.219E-02

     total cpu time spent up to now is    14680.6 secs

     total energy              =   -4504.79064845 Ry
     Harris-Foulkes estimate   =   -4504.79082464 Ry
     estimated scf accuracy    <       0.00309988 Ry

     total magnetization       =    47.00 Bohr mag/cell
     absolute magnetization    =    49.16 Bohr mag/cell

     iteration # 24     ecut=    40.00 Ry     beta=0.30
     Davidson diagonalization with overlap
     ethr =  6.97E-07,  avg # of iterations =  1.0

     negative rho (up, down):  0.350E-02 0.184E-02

     total cpu time spent up to now is    15049.0 secs

     total energy              =   -4504.79106002 Ry
     Harris-Foulkes estimate   =   -4504.79097978 Ry
     estimated scf accuracy    <       0.00282757 Ry

     total magnetization       =    47.00 Bohr mag/cell
     absolute magnetization    =    49.05 Bohr mag/cell

     iteration # 25     ecut=    40.00 Ry     beta=0.30
     Davidson diagonalization with overlap
     ethr =  6.35E-07,  avg # of iterations =  2.1

     negative rho (up, down):  0.381E-02 0.200E-02

     total cpu time spent up to now is    15473.0 secs

     total energy              =   -4504.79067333 Ry
     Harris-Foulkes estimate   =   -4504.79106535 Ry
     estimated scf accuracy    <       0.01246656 Ry

     total magnetization       =    47.00 Bohr mag/cell
     absolute magnetization    =    49.05 Bohr mag/cell

     iteration # 26     ecut=    40.00 Ry     beta=0.30
     Davidson diagonalization with overlap
     ethr =  6.35E-07,  avg # of iterations =  1.1

     negative rho (up, down):  0.331E-02 0.173E-02

     total cpu time spent up to now is    15842.9 secs

     total energy              =   -4504.79121439 Ry
     Harris-Foulkes estimate   =   -4504.79129825 Ry
     estimated scf accuracy    <       0.00558319 Ry

     total magnetization       =    47.00 Bohr mag/cell
     absolute magnetization    =    48.99 Bohr mag/cell

     iteration # 27     ecut=    40.00 Ry     beta=0.30
     Davidson diagonalization with overlap
     ethr =  6.35E-07,  avg # of iterations =  1.0

     negative rho (up, down):  0.329E-02 0.173E-02

     total cpu time spent up to now is    16213.6 secs

     total energy              =   -4504.79132926 Ry
     Harris-Foulkes estimate   =   -4504.79136347 Ry
     estimated scf accuracy    <       0.00156052 Ry

     total magnetization       =    47.00 Bohr mag/cell
     absolute magnetization    =    48.94 Bohr mag/cell

     iteration # 28     ecut=    40.00 Ry     beta=0.30
     Davidson diagonalization with overlap
     ethr =  3.51E-07,  avg # of iterations =  1.0

     negative rho (up, down):  0.337E-02 0.176E-02

     total cpu time spent up to now is    16584.7 secs

     total energy              =   -4504.79131364 Ry
     Harris-Foulkes estimate   =   -4504.79136625 Ry
     estimated scf accuracy    <       0.00064073 Ry

     total magnetization       =    47.00 Bohr mag/cell
     absolute magnetization    =    48.95 Bohr mag/cell

     iteration # 29     ecut=    40.00 Ry     beta=0.30
     Davidson diagonalization with overlap
     ethr =  1.44E-07,  avg # of iterations =  1.0

     negative rho (up, down):  0.319E-02 0.167E-02

     total cpu time spent up to now is    16960.7 secs

     total energy              =   -4504.79113113 Ry
     Harris-Foulkes estimate   =   -4504.79113964 Ry
     estimated scf accuracy    <       0.00090778 Ry

     total magnetization       =    47.00 Bohr mag/cell
     absolute magnetization    =    48.98 Bohr mag/cell

     iteration # 30     ecut=    40.00 Ry     beta=0.30
     Davidson diagonalization with overlap
     ethr =  1.44E-07,  avg # of iterations =  1.0

     negative rho (up, down):  0.316E-02 0.166E-02

     total cpu time spent up to now is    17337.1 secs

     total energy              =   -4504.79118139 Ry
     Harris-Foulkes estimate   =   -4504.79117134 Ry
     estimated scf accuracy    <       0.00036800 Ry

     total magnetization       =    47.00 Bohr mag/cell
     absolute magnetization    =    48.92 Bohr mag/cell

     iteration # 31     ecut=    40.00 Ry     beta=0.30
     Davidson diagonalization with overlap
     ethr =  8.27E-08,  avg # of iterations =  1.0

     negative rho (up, down):  0.314E-02 0.165E-02

     total cpu time spent up to now is    17713.1 secs

     total energy              =   -4504.79119401 Ry
     Harris-Foulkes estimate   =   -4504.79118767 Ry
     estimated scf accuracy    <       0.00036190 Ry

     total magnetization       =    47.00 Bohr mag/cell
     absolute magnetization    =    48.91 Bohr mag/cell

     iteration # 32     ecut=    40.00 Ry     beta=0.30
     Davidson diagonalization with overlap
     ethr =  8.13E-08,  avg # of iterations =  1.0

     negative rho (up, down):  0.311E-02 0.163E-02

     total cpu time spent up to now is    18088.8 secs

     total energy              =   -4504.79121308 Ry
     Harris-Foulkes estimate   =   -4504.79119886 Ry
     estimated scf accuracy    <       0.00018823 Ry

     total magnetization       =    47.00 Bohr mag/cell
     absolute magnetization    =    48.90 Bohr mag/cell

     iteration # 33     ecut=    40.00 Ry     beta=0.30
     Davidson diagonalization with overlap
     ethr =  4.23E-08,  avg # of iterations =  1.0

     negative rho (up, down):  0.308E-02 0.162E-02

     total cpu time spent up to now is    18464.8 secs

     total energy              =   -4504.79123021 Ry
     Harris-Foulkes estimate   =   -4504.79122041 Ry
     estimated scf accuracy    <       0.00043790 Ry

     total magnetization       =    47.00 Bohr mag/cell
     absolute magnetization    =    48.89 Bohr mag/cell

     iteration # 34     ecut=    40.00 Ry     beta=0.30
     Davidson diagonalization with overlap
     ethr =  4.23E-08,  avg # of iterations =  1.0

     negative rho (up, down):  0.306E-02 0.161E-02

     total cpu time spent up to now is    18840.9 secs

     total energy              =   -4504.79123388 Ry
     Harris-Foulkes estimate   =   -4504.79123827 Ry
     estimated scf accuracy    <       0.00029651 Ry

     total magnetization       =    47.00 Bohr mag/cell
     absolute magnetization    =    48.88 Bohr mag/cell

     iteration # 35     ecut=    40.00 Ry     beta=0.30
     Davidson diagonalization with overlap
     ethr =  4.23E-08,  avg # of iterations =  1.0

     negative rho (up, down):  0.309E-02 0.162E-02

     total cpu time spent up to now is    19217.5 secs

     total energy              =   -4504.79124117 Ry
     Harris-Foulkes estimate   =   -4504.79124341 Ry
     estimated scf accuracy    <       0.00018911 Ry

     total magnetization       =    47.00 Bohr mag/cell
     absolute magnetization    =    48.87 Bohr mag/cell

     iteration # 36     ecut=    40.00 Ry     beta=0.30
     Davidson diagonalization with overlap
     ethr =  4.23E-08,  avg # of iterations =  1.0

     negative rho (up, down):  0.308E-02 0.162E-02

     total cpu time spent up to now is    19594.0 secs

     total energy              =   -4504.79124642 Ry
     Harris-Foulkes estimate   =   -4504.79124665 Ry
     estimated scf accuracy    <       0.00006359 Ry

     total magnetization       =    47.00 Bohr mag/cell
     absolute magnetization    =    48.88 Bohr mag/cell

     iteration # 37     ecut=    40.00 Ry     beta=0.30
     Davidson diagonalization with overlap
     ethr =  1.43E-08,  avg # of iterations =  1.0

     negative rho (up, down):  0.308E-02 0.162E-02

     total cpu time spent up to now is    19971.1 secs

     total energy              =   -4504.79125073 Ry
     Harris-Foulkes estimate   =   -4504.79125010 Ry
     estimated scf accuracy    <       0.00001584 Ry

     total magnetization       =    47.00 Bohr mag/cell
     absolute magnetization    =    48.87 Bohr mag/cell

     iteration # 38     ecut=    40.00 Ry     beta=0.30
     Davidson diagonalization with overlap
     ethr =  3.56E-09,  avg # of iterations =  1.0

     negative rho (up, down):  0.309E-02 0.162E-02

     total cpu time spent up to now is    20348.1 secs

     total energy              =   -4504.79125291 Ry
     Harris-Foulkes estimate   =   -4504.79125254 Ry
     estimated scf accuracy    <       0.00001662 Ry

     total magnetization       =    47.00 Bohr mag/cell
     absolute magnetization    =    48.87 Bohr mag/cell

     iteration # 39     ecut=    40.00 Ry     beta=0.30
     Davidson diagonalization with overlap
     ethr =  3.56E-09,  avg # of iterations =  1.0

     negative rho (up, down):  0.310E-02 0.163E-02

     total cpu time spent up to now is    20724.3 secs

     total energy              =   -4504.79125621 Ry
     Harris-Foulkes estimate   =   -4504.79125404 Ry
     estimated scf accuracy    <       0.00001526 Ry

     total magnetization       =    47.00 Bohr mag/cell
     absolute magnetization    =    48.87 Bohr mag/cell

     iteration # 40     ecut=    40.00 Ry     beta=0.30
     Davidson diagonalization with overlap
     ethr =  3.43E-09,  avg # of iterations =  1.0

     negative rho (up, down):  0.310E-02 0.163E-02

     total cpu time spent up to now is    21102.4 secs

     total energy              =   -4504.79125656 Ry
     Harris-Foulkes estimate   =   -4504.79125801 Ry
     estimated scf accuracy    <       0.00001666 Ry

     total magnetization       =    47.00 Bohr mag/cell
     absolute magnetization    =    48.87 Bohr mag/cell

     iteration # 41     ecut=    40.00 Ry     beta=0.30
     Davidson diagonalization with overlap
     ethr =  3.43E-09,  avg # of iterations =  1.8

     negative rho (up, down):  0.310E-02 0.163E-02

     total cpu time spent up to now is    21502.0 secs

     total energy              =   -4504.79125862 Ry
     Harris-Foulkes estimate   =   -4504.79125858 Ry
     estimated scf accuracy    <       0.00000651 Ry

     total magnetization       =    47.00 Bohr mag/cell
     absolute magnetization    =    48.87 Bohr mag/cell

     iteration # 42     ecut=    40.00 Ry     beta=0.30
     Davidson diagonalization with overlap
     ethr =  1.46E-09,  avg # of iterations =  1.0

     negative rho (up, down):  0.310E-02 0.163E-02

     total cpu time spent up to now is    21878.6 secs

     total energy              =   -4504.79125895 Ry
     Harris-Foulkes estimate   =   -4504.79125892 Ry
     estimated scf accuracy    <       0.00000629 Ry

     total magnetization       =    47.00 Bohr mag/cell
     absolute magnetization    =    48.88 Bohr mag/cell

     iteration # 43     ecut=    40.00 Ry     beta=0.30
     Davidson diagonalization with overlap
     ethr =  1.41E-09,  avg # of iterations =  1.0

     negative rho (up, down):  0.309E-02 0.163E-02

     total cpu time spent up to now is    22253.2 secs

     total energy              =   -4504.79125896 Ry
     Harris-Foulkes estimate   =   -4504.79125976 Ry
     estimated scf accuracy    <       0.00001139 Ry

     total magnetization       =    47.00 Bohr mag/cell
     absolute magnetization    =    48.88 Bohr mag/cell

     iteration # 44     ecut=    40.00 Ry     beta=0.30
     Davidson diagonalization with overlap
     ethr =  1.41E-09,  avg # of iterations =  1.0

     negative rho (up, down):  0.309E-02 0.163E-02

     total cpu time spent up to now is    22625.4 secs

     total energy              =   -4504.79125942 Ry
     Harris-Foulkes estimate   =   -4504.79125947 Ry
     estimated scf accuracy    <       0.00000150 Ry

     total magnetization       =    47.00 Bohr mag/cell
     absolute magnetization    =    48.88 Bohr mag/cell

     iteration # 45     ecut=    40.00 Ry     beta=0.30
     Davidson diagonalization with overlap
     ethr =  3.36E-10,  avg # of iterations =  1.0

     negative rho (up, down):  0.309E-02 0.162E-02

     total cpu time spent up to now is    22996.3 secs

     total energy              =   -4504.79125953 Ry
     Harris-Foulkes estimate   =   -4504.79125959 Ry
     estimated scf accuracy    <       0.00000820 Ry

     total magnetization       =    47.00 Bohr mag/cell
     absolute magnetization    =    48.88 Bohr mag/cell

     iteration # 46     ecut=    40.00 Ry     beta=0.30
     Davidson diagonalization with overlap
     ethr =  3.36E-10,  avg # of iterations =  1.0

     negative rho (up, down):  0.309E-02 0.162E-02

     total cpu time spent up to now is    23375.5 secs

     total energy              =   -4504.79125970 Ry
     Harris-Foulkes estimate   =   -4504.79125975 Ry
     estimated scf accuracy    <       0.00000270 Ry

     total magnetization       =    47.00 Bohr mag/cell
     absolute magnetization    =    48.88 Bohr mag/cell

     iteration # 47     ecut=    40.00 Ry     beta=0.30
     Davidson diagonalization with overlap
     ethr =  3.36E-10,  avg # of iterations =  1.0

     negative rho (up, down):  0.309E-02 0.162E-02

     total cpu time spent up to now is    23755.9 secs

     total energy              =   -4504.79125981 Ry
     Harris-Foulkes estimate   =   -4504.79125980 Ry
     estimated scf accuracy    <       0.00000120 Ry

     total magnetization       =    47.00 Bohr mag/cell
     absolute magnetization    =    48.88 Bohr mag/cell

     iteration # 48     ecut=    40.00 Ry     beta=0.30
     Davidson diagonalization with overlap
     ethr =  2.69E-10,  avg # of iterations =  1.0

     negative rho (up, down):  0.309E-02 0.162E-02

     total cpu time spent up to now is    24127.7 secs

     End of self-consistent calculation

 ------ SPIN UP ------------


          k = 0.0000 0.0000 0.0000 ( 36065 PWs)   bands (ev):

   -81.9951 -81.9932 -81.9828 -81.9752 -81.9434 -81.9401 -81.9330 -81.9289
   -81.8902 -81.8799 -81.8794 -81.8639 -81.6012 -81.5910 -81.5872 -81.5767
   -50.8299 -50.8230 -50.7799 -50.7684 -50.7236 -50.7074 -50.7015 -50.6699
   -50.6611 -50.6581 -50.6530 -50.6416 -50.6416 -50.6360 -50.6314 -50.6212
   -50.6211 -50.6189 -50.6017 -50.5969 -50.5839 -50.5702 -50.5549 -50.5495
   -50.5467 -50.5437 -50.5429 -50.5414 -50.5411 -50.5225 -50.5087 -50.5042
   -50.4969 -50.4943 -50.4855 -50.4337 -50.3608 -50.3422 -50.3271 -50.3191
   -50.2883 -50.2802 -50.2345 -50.2214 -50.2105 -50.1913 -50.1897 -50.1701
   -22.6577 -19.8939 -19.6385 -19.3334 -19.1750 -18.7573 -18.5700 -18.4305
   -18.3455 -18.3216 -18.2978 -18.2640 -18.1658 -18.1657 -18.1120 -18.0859
   -18.0818 -18.0379 -18.0288 -17.9984 -17.9896 -17.9280 -17.8656 -17.8502
   -17.8225 -17.7924 -17.7187 -17.6060 -17.5249 -17.2261 -17.1146 -16.7862
   -16.6787 -15.8995  -7.9486  -7.8557  -7.8008  -7.6994  -7.6101  -7.2783
    -7.1563  -6.9156  -6.7870  -6.6541  -6.6198  -6.6109  -6.5565  -6.5268
    -6.5167  -6.4533  -6.4287  -6.4091  -6.3601  -6.3380  -6.2788  -6.2347
    -6.2239  -6.1432  -6.1008  -6.0015  -5.9831  -5.9434  -5.9158  -5.8756
    -5.8675  -5.8355  -5.7124  -5.6936  -5.6534  -5.5065  -5.4145  -5.3179
    -5.3062  -5.2639  -5.2637  -5.2457  -5.0396  -4.8358  -4.7758  -4.6930
    -4.6826  -4.6554  -4.5956  -4.5465  -4.4539  -4.4281  -4.3018  -4.2447
    -4.2177  -4.1836  -4.1310  -4.0335  -3.9327  -3.8147  -3.8128  -3.7454
    -3.6861  -3.6739  -3.6082  -3.5398  -3.5327  -3.4987  -3.4571  -3.3904
    -3.3294  -3.2804  -3.2475  -3.2090  -3.1936  -3.1707  -3.0447  -2.9333
    -2.8703  -2.8687  -2.8286  -2.7868  -2.7527  -2.7061  -2.6921  -2.6731
    -2.6405  -2.6058  -2.5791  -2.5492  -2.5471  -2.5253  -2.5235  -2.4375
    -2.4157  -2.3668  -2.3450  -2.3200  -2.1468  -2.1364  -2.0837  -2.0572
    -2.0420  -2.0265  -2.0009  -1.9699  -1.9606  -1.9334  -1.8276  -1.8242
    -1.8204  -1.7388  -1.7166  -1.5377  -1.4886  -1.4818  -1.4656  -1.4495
    -1.2972  -1.2957  -1.1891  -1.0523  -1.0241  -1.0043  -0.9865  -0.9541
    -0.9181  -0.8995  -0.8909  -0.8205  -0.7519  -0.5989  -0.5896  -0.5356
    -0.3869  -0.3828  -0.2735  -0.2483  -0.2082  -0.1215  -0.1002  -0.0449
     0.0007   0.0398   0.1012   0.1262   0.1372   0.2184   0.2288   0.3207
     0.3537   0.3757   0.6321   0.7623   1.0849   1.2919   1.4444   1.6948
     1.8074   1.8489   1.9788   1.9824   1.9936   2.0287   2.1712   2.2338
     2.2650   2.3831   2.4429   2.5493   2.6779   2.7337   2.7596   2.8815
     2.9441   2.9521   3.0403   3.1363   3.2230   3.3522   3.4424   4.3463
     4.9644   5.0869   5.3419   5.6020   6.0676   6.6381   7.1118   7.5359
     8.0064   8.0318   8.1538   8.6014   8.6781   8.9689   9.0994   9.1059
     9.1578   9.1971   9.3077   9.4229   9.6011   9.6229   9.6379   9.8140
     9.8212   9.9138  10.1392  10.1485  10.2493  10.3679  10.4693  10.6023
    10.6821  10.7260  10.7562  11.0180  11.1163  11.1869  11.2538  11.2970
    11.3490  11.4111  11.4943  11.4982  11.5512  11.6309  11.7715  11.7872
    11.8767  11.9263  11.9323  11.9801  12.1227  12.2344  12.3177  12.3833
    12.4736  12.4943  12.5537  12.5747  12.7237  12.7776  12.8459  12.8528
    12.9923  13.0205  13.0722  13.0983  13.2017  13.2507  13.3309  13.3769
    13.3795  13.5158  13.5164  13.6654  13.6681  13.7376  13.7425  13.8569
    13.9097  13.9606  13.9798  14.0208  14.0536  14.1279  14.1639  14.1646
    14.2550  14.3268  14.3646  14.4296  14.4662  14.4835  14.6415  14.6841
    14.6944  14.7130  14.7613  14.8009  14.8498  14.9412  14.9475  15.0383
    15.0624  15.1025  15.1349  15.1866  15.1999  15.2074  15.2378  15.3029
    15.3335  15.3544  15.4021  15.4711  15.5391  15.5988  15.6654  15.7203
    15.7324  15.7706  15.8449  15.9460  15.9489  15.9982  16.0791  16.1784
    16.1904  16.2193  16.2648  16.3767  16.4016  16.4379  16.4515  16.4589
    16.5927  16.6855  16.7353  16.7845  16.8454  16.9206  17.0127  17.0212
    17.0733  17.1953  17.2134  17.3169  17.3553  17.3944  17.4499  17.5284
    17.5590  17.6629  17.6838  17.8104  17.8314  17.9221  17.9887  17.9902
    18.0591  18.0854  18.1119  18.1584  18.1936  18.2784  18.3004  18.4150
    18.5830  18.6102  18.6849  18.8493  18.8599  18.9150  19.0178  19.0647
    19.0976  19.1605  19.1968  19.2555  19.3056  19.3552  19.4177  19.5154
    19.5358  19.6583  19.7800  19.7827  19.8582  19.9656  20.0025  20.0686
    20.2356  20.3510  20.3557  20.4878  20.4948  20.5117  20.5161  20.5658
    20.6187  20.7043  20.7242  20.8382  20.9098  20.9368  21.0152  21.0219
    21.0982  21.1320  21.2119  21.2635  21.2773  21.2807  21.3585  21.3920
    21.4500  21.5000  21.5874  21.7261  21.7402  21.7706  21.7932  21.8102
    21.8578  21.9080  21.9675  22.0627  22.0827  22.1087  22.1547  22.1849
    22.2065  22.3780  22.4317  22.5006  22.6369  22.6768  22.7007  22.7519
    22.8111  22.8170  22.8653  22.9846  22.9864  23.0060  23.0815  23.2091
    23.2373  23.2937  23.3897  23.4555  23.4962  23.5593  23.5640  23.6016
    23.6724  23.7577  23.7912  23.8230  23.8355  23.8898  23.9381  23.9860
    24.0211  24.0302  24.1196  24.1831  24.2497  24.2948  24.2984  24.3166
    24.3918  24.4736  24.5984  24.6330  24.7091  24.7344  24.7887  24.8259
    24.8771  24.9007  24.9092  24.9931  25.0561  25.0707  25.1295  25.1631
    25.1717  25.2125  25.2454  25.3211  25.3328  25.3981  25.4939  25.5300
    25.5376  25.5728  25.5967  25.6228  25.6623  25.6767  25.7637  25.7641
    25.7946  25.8091  25.9060  25.9237  25.9261  26.0086  26.0418  26.0848
    26.0908  26.1328  26.1545  26.2044  26.2499  26.2656  26.3793  26.4017
    26.4240  26.4284  26.4483  26.4992  26.5618  26.5954  26.6110  26.6620
    26.6804  26.7338  26.7562  26.9078  27.0133  27.0218  27.0842  27.0874
    27.1286  27.1897  27.1965  27.2174  27.2981  27.3074  27.3673  27.4233
    27.4764  27.5273  27.5606  27.5715  27.5924  27.6336  27.6880  27.7128
    27.7243  27.7537  27.7640  27.8441  27.8673  27.8719  27.9052  27.9440
    27.9527  27.9616  28.0032

          k = 0.0000 0.2303 0.0000 ( 36087 PWs)   bands (ev):

   -81.9951 -81.9932 -81.9827 -81.9752 -81.9433 -81.9402 -81.9330 -81.9289
   -81.8902 -81.8799 -81.8794 -81.8639 -81.6012 -81.5910 -81.5872 -81.5767
   -50.8299 -50.8232 -50.7801 -50.7685 -50.7239 -50.7074 -50.7014 -50.6701
   -50.6604 -50.6575 -50.6537 -50.6416 -50.6412 -50.6356 -50.6313 -50.6211
   -50.6195 -50.6187 -50.6017 -50.5966 -50.5839 -50.5701 -50.5549 -50.5495
   -50.5486 -50.5436 -50.5428 -50.5416 -50.5407 -50.5225 -50.5085 -50.5051
   -50.4966 -50.4943 -50.4854 -50.4337 -50.3608 -50.3421 -50.3276 -50.3188
   -50.2888 -50.2799 -50.2346 -50.2215 -50.2105 -50.1913 -50.1897 -50.1701
   -22.6573 -19.7646 -19.5130 -19.2125 -19.0726 -18.9532 -18.7458 -18.4249
   -18.3735 -18.3388 -18.3188 -18.3067 -18.2954 -18.2537 -18.1520 -18.1400
   -18.0859 -18.0758 -18.0430 -18.0262 -17.9459 -17.9190 -17.8911 -17.8191
   -17.7522 -17.7293 -17.6843 -17.6048 -17.5279 -17.2273 -17.0899 -16.7725
   -16.6781 -15.8970  -7.6864  -7.6283  -7.5485  -7.5023  -7.3690  -7.2786
    -7.1402  -7.0543  -6.9024  -6.8585  -6.8031  -6.7673  -6.7352  -6.5571
    -6.5274  -6.4446  -6.4198  -6.2999  -6.2819  -6.2649  -6.1870  -6.1474
    -6.1046  -6.0173  -6.0091  -5.9235  -5.8835  -5.8810  -5.8557  -5.8120
    -5.8028  -5.7091  -5.6537  -5.5076  -5.4098  -5.3738  -5.3090  -5.2706
    -5.2584  -5.2174  -5.1889  -5.0317  -4.9922  -4.8636  -4.8498  -4.7953
    -4.7345  -4.6893  -4.6432  -4.6347  -4.5540  -4.5421  -4.4985  -4.4523
    -4.4026  -4.3293  -4.2751  -4.2336  -4.1755  -4.0891  -4.0256  -3.7578
    -3.7358  -3.6695  -3.6468  -3.5902  -3.5570  -3.4984  -3.4802  -3.4297
    -3.3917  -3.3770  -3.3113  -3.2770  -3.2388  -3.2178  -3.1190  -3.0990
    -3.0746  -3.0504  -2.9566  -2.9458  -2.8768  -2.7756  -2.7475  -2.7137
    -2.6721  -2.6424  -2.6033  -2.5450  -2.4906  -2.3975  -2.3858  -2.3742
    -2.3170  -2.2412  -2.2314  -2.1801  -2.1230  -2.0684  -2.0194  -1.9637
    -1.9602  -1.9409  -1.8564  -1.8359  -1.8302  -1.8063  -1.7376  -1.6697
    -1.6511  -1.5597  -1.5418  -1.5402  -1.5008  -1.4742  -1.4598  -1.4378
    -1.4183  -1.4108  -1.3958  -1.3063  -1.2963  -1.2452  -1.1795  -1.1764
    -1.0699  -1.0537  -1.0271  -0.9597  -0.8713  -0.6678  -0.6033  -0.5140
    -0.2994  -0.2120  -0.1583  -0.1193  -0.0857  -0.0833  -0.0702  -0.0546
     0.0065   0.0187   0.0604   0.1160   0.1485   0.1489   0.2981   0.3330
     0.3596   0.5057   0.7602   0.8159   0.8686   0.9286   0.9323   1.0637
     1.2653   1.5577   1.6872   2.1801   2.2634   2.3277   2.4952   2.5411
     2.5882   2.6135   2.6807   2.7962   2.8276   2.8735   2.9232   3.0562
     3.0781   3.1023   3.1486   3.2205   3.2249   3.3358   3.3626   4.5060
     5.1577   5.2305   5.4466   5.8132   6.2742   6.7817   6.9331   7.3360
     7.3831   7.7087   7.8147   8.1076   8.1371   8.4352   8.4712   8.7253
     9.0557   9.3799   9.3835   9.4924   9.6705   9.6736   9.9366  10.0495
    10.2094  10.2839  10.3808  10.4676  10.5065  10.6305  10.6431  10.8256
    10.9178  10.9297  10.9626  11.1760  11.2330  11.2653  11.2914  11.3914
    11.4284  11.4297  11.5537  11.6389  11.7176  11.7763  11.8349  11.8831
    11.9195  11.9957  11.9993  12.0323  12.0787  12.1441  12.2121  12.2249
    12.2899  12.3480  12.3790  12.4648  12.5667  12.5679  12.6170  12.6525
    12.6757  12.8566  12.8707  12.9317  13.0246  13.0648  13.1282  13.1834
    13.2562  13.3633  13.3938  13.5066  13.5762  13.6000  13.6990  13.7272
    13.8289  13.8518  13.8966  14.0220  14.0749  14.1052  14.2419  14.3541
    14.3742  14.4894  14.5490  14.6680  14.7499  14.8377  14.8445  14.8540
    14.9048  14.9700  15.0101  15.1419  15.1949  15.2555  15.2782  15.3078
    15.3351  15.3572  15.3915  15.4287  15.4831  15.4918  15.5535  15.6110
    15.6677  15.7008  15.7651  15.8725  15.8961  15.9106  15.9356  16.0220
    16.0379  16.0682  16.1153  16.1321  16.1649  16.2658  16.2676  16.3550
    16.3639  16.3730  16.4561  16.4781  16.5354  16.5706  16.6234  16.6383
    16.6975  16.8067  16.8446  16.9336  16.9613  16.9791  17.0565  17.0620
    17.1422  17.1669  17.2430  17.2865  17.3110  17.3315  17.4375  17.4493
    17.4646  17.5152  17.5399  17.5862  17.6245  17.7015  17.7288  17.8734
    17.9363  17.9664  18.0101  18.0506  18.0773  18.1118  18.1326  18.2073
    18.2924  18.2933  18.3877  18.4295  18.5001  18.5913  18.6806  18.7541
    18.8987  18.9123  18.9907  19.0756  19.0937  19.1084  19.1590  19.2361
    19.3329  19.4668  19.5675  19.6117  19.6545  19.7359  19.8003  19.8866
    19.9272  19.9947  20.0795  20.1027  20.1828  20.1969  20.2484  20.2922
    20.4421  20.6306  20.7220  20.7507  20.8095  20.8405  20.8629  20.9021
    20.9220  21.0919  21.1533  21.2217  21.2753  21.2819  21.3639  21.4386
    21.4641  21.5293  21.5304  21.6348  21.6483  21.7606  21.7672  21.8059
    21.8635  21.8920  21.9113  21.9694  22.0068  22.0537  22.1105  22.1281
    22.1681  22.2531  22.3190  22.3227  22.3718  22.4220  22.5201  22.5418
    22.6239  22.6421  22.6800  22.7046  22.7477  22.7653  22.8610  22.8686
    22.9579  22.9893  23.0558  23.1033  23.1374  23.1945  23.2893  23.3127
    23.3561  23.4029  23.4150  23.5626  23.6581  23.6738  23.6918  23.7663
    23.8403  23.8498  23.9236  23.9278  24.0434  24.0799  24.1152  24.1295
    24.1789  24.3196  24.3400  24.4081  24.4460  24.5366  24.5782  24.6147
    24.6293  24.6756  24.7684  24.7977  24.8128  24.8560  24.9169  24.9503
    24.9811  25.0121  25.0292  25.0922  25.1816  25.2307  25.2801  25.2873
    25.3160  25.3919  25.4586  25.4602  25.5326  25.5693  25.6049  25.6797
    25.7514  25.7947  25.8754  25.9233  25.9285  25.9731  25.9732  26.0247
    26.0822  26.1157  26.1353  26.1747  26.1849  26.2243  26.2280  26.2972
    26.3505  26.3511  26.3904  26.4058  26.4736  26.5290  26.6161  26.6647
    26.6948  26.7010  26.7533  26.8130  26.8600  26.8976  26.9362  26.9637
    26.9861  27.0127  27.0800  27.1470  27.1710  27.2717  27.3172  27.3726
    27.4378  27.4571  27.5509  27.5570  27.6283  27.6733  27.6890  27.7188
    27.7899  27.7916  27.8438  27.8633  27.9785  28.0050  28.0931  28.1246
    28.1898  28.1949  28.2699

          k = 0.0000-0.4606 0.0000 ( 36028 PWs)   bands (ev):

   -81.9951 -81.9932 -81.9827 -81.9752 -81.9433 -81.9403 -81.9330 -81.9289
   -81.8902 -81.8799 -81.8794 -81.8639 -81.6012 -81.5910 -81.5872 -81.5767
   -50.8299 -50.8232 -50.7801 -50.7685 -50.7240 -50.7073 -50.7013 -50.6700
   -50.6596 -50.6565 -50.6546 -50.6415 -50.6408 -50.6353 -50.6313 -50.6211
   -50.6185 -50.6177 -50.6018 -50.5964 -50.5838 -50.5701 -50.5549 -50.5504
   -50.5494 -50.5436 -50.5426 -50.5418 -50.5404 -50.5225 -50.5083 -50.5060
   -50.4963 -50.4942 -50.4854 -50.4337 -50.3606 -50.3420 -50.3281 -50.3186
   -50.2893 -50.2797 -50.2345 -50.2214 -50.2105 -50.1913 -50.1897 -50.1701
   -22.6569 -19.4633 -19.3771 -19.1937 -19.1754 -18.8795 -18.8176 -18.6609
   -18.6381 -18.4177 -18.3396 -18.3013 -18.2897 -18.2051 -18.1784 -18.1423
   -18.1012 -18.0996 -18.0787 -18.0499 -17.9311 -17.8833 -17.8814 -17.8302
   -17.7048 -17.6850 -17.6643 -17.6095 -17.5348 -17.2284 -17.0670 -16.7600
   -16.6776 -15.8943  -7.6531  -7.3549  -7.2645  -7.1464  -7.1195  -7.0929
    -7.0855  -7.0800  -7.0659  -7.0252  -6.9617  -6.7924  -6.7653  -6.5747
    -6.4089  -6.3894  -6.3479  -6.2471  -6.2446  -6.1824  -6.0986  -6.0735
    -5.9915  -5.8928  -5.8568  -5.8095  -5.7817  -5.7549  -5.7486  -5.7211
    -5.7134  -5.6977  -5.6792  -5.5944  -5.5109  -5.5034  -5.3601  -5.2960
    -5.2572  -5.1679  -5.1189  -5.0880  -5.0757  -4.9858  -4.9424  -4.8877
    -4.8802  -4.7643  -4.7174  -4.6541  -4.6260  -4.5645  -4.4886  -4.4336
    -4.4109  -4.4059  -4.3948  -4.2401  -4.2093  -4.0743  -4.0344  -3.8962
    -3.8716  -3.7919  -3.7174  -3.7122  -3.7036  -3.6814  -3.6659  -3.6153
    -3.6111  -3.5546  -3.4400  -3.3793  -3.3543  -3.1867  -3.1670  -3.1384
    -3.1013  -3.0194  -2.9230  -2.8118  -2.7910  -2.7252  -2.7029  -2.7005
    -2.6662  -2.5972  -2.5875  -2.5130  -2.4766  -2.4365  -2.3915  -2.3699
    -2.3191  -2.2300  -2.0740  -2.0560  -2.0214  -2.0100  -1.9554  -1.9428
    -1.9176  -1.8886  -1.8378  -1.8361  -1.8297  -1.7598  -1.7574  -1.7336
    -1.7197  -1.7076  -1.6656  -1.6114  -1.5923  -1.5339  -1.4800  -1.4610
    -1.4436  -1.3763  -1.3533  -1.3473  -1.3357  -1.3124  -1.0977  -1.0681
    -1.0648  -0.9981  -0.9184  -0.8873  -0.8864  -0.7670  -0.6078  -0.6061
    -0.4943  -0.4658  -0.2709  -0.2605  -0.1124  -0.0972  -0.0141   0.0440
     0.0821   0.1156   0.1570   0.1600   0.1739   0.1883   0.2816   0.3424
     0.3535   0.4018   0.4310   0.5528   0.5679   0.6195   0.9604   1.0198
     1.4570   1.7090   1.8105   2.2770   2.3909   2.4251   2.4556   2.5458
     2.6091   2.6483   2.6686   2.6958   2.6973   2.9229   3.0033   3.1373
     3.1409   3.2263   3.3697   3.4203   3.4841   3.5345   3.6372   4.7424
     5.3062   5.4369   5.8867   6.0796   6.3064   6.4542   6.6893   6.8093
     7.1686   7.2784   7.6309   7.7555   8.1335   8.2493   8.4271   8.8583
     9.0883   9.2321   9.4176   9.5315   9.7283   9.8552   9.9876  10.0025
    10.1213  10.1530  10.3395  10.4553  10.6554  10.7494  10.7909  10.8248
    10.8528  10.9536  11.0464  11.0491  11.0558  11.1435  11.2037  11.2689
    11.3374  11.3720  11.6246  11.6360  11.6618  11.6940  11.7538  11.7955
    11.9105  11.9424  11.9811  12.0412  12.2256  12.2256  12.2431  12.2433
    12.4259  12.5655  12.6004  12.6431  12.6789  12.7385  12.8209  12.8792
    12.8815  12.9869  13.0257  13.1558  13.2157  13.3197  13.3649  13.4365
    13.4427  13.5238  13.6165  13.6909  13.7496  13.8512  13.8956  13.9151
    13.9329  13.9635  13.9911  14.0364  14.1150  14.1357  14.1652  14.3274
    14.3776  14.4549  14.4933  14.5294  14.7084  14.8178  14.8385  14.8936
    14.9043  14.9771  14.9946  15.0648  15.1309  15.1848  15.2095  15.2337
    15.2509  15.3539  15.4390  15.5065  15.5468  15.5669  15.6019  15.7458
    15.7687  15.7971  15.9316  15.9699  15.9897  16.0093  16.0186  16.0526
    16.0686  16.1168  16.1205  16.1501  16.2793  16.3450  16.4063  16.4201
    16.4548  16.5316  16.5509  16.5728  16.6165  16.7093  16.7514  16.7560
    16.7830  16.8153  16.8420  16.9379  16.9862  17.0274  17.0390  17.0457
    17.0736  17.1053  17.1536  17.1740  17.2353  17.3100  17.3379  17.4801
    17.4942  17.5075  17.6837  17.6849  17.7223  17.8994  17.9061  17.9522
    18.0794  18.1546  18.1710  18.2290  18.3550  18.3569  18.5036  18.5145
    18.5814  18.5987  18.6589  18.6782  18.7306  18.7477  18.7950  18.8052
    18.8208  18.9487  18.9706  19.0249  19.0445  19.1163  19.1907  19.2287
    19.2497  19.3053  19.4027  19.4116  19.4997  19.5316  19.6137  19.6210
    19.7581  19.7625  19.8277  19.8890  19.9182  20.0328  20.0583  20.1372
    20.1399  20.1401  20.2274  20.3266  20.3499  20.4052  20.4878  20.5058
    20.5269  20.6198  20.7159  20.8172  20.8791  20.9546  21.0545  21.1054
    21.1612  21.1886  21.2481  21.2597  21.2644  21.3167  21.4001  21.4181
    21.4332  21.5079  21.6622  21.6625  21.7016  21.7149  21.8221  21.8862
    21.9287  21.9942  22.0310  22.1686  22.1978  22.2100  22.3094  22.3344
    22.4124  22.4152  22.5101  22.5497  22.5917  22.6349  22.6400  22.7112
    22.7771  22.7824  22.8272  22.8379  22.9455  23.0378  23.0866  23.1276
    23.2300  23.2436  23.2988  23.3218  23.3426  23.3932  23.4589  23.5029
    23.5074  23.6940  23.6973  23.8450  23.8745  23.9978  24.0327  24.0955
    24.1584  24.1859  24.2663  24.3663  24.3670  24.3976  24.4537  24.5308
    24.5648  24.6425  24.6681  24.7068  24.7461  24.8153  24.8871  24.9141
    24.9652  24.9882  24.9998  25.0338  25.0853  25.0854  25.1096  25.2017
    25.2371  25.2572  25.2821  25.3119  25.3612  25.3769  25.3883  25.5181
    25.5625  25.6525  25.6564  25.7560  25.7725  25.8216  25.8626  26.0149
    26.0216  26.0889  26.1338  26.1763  26.2023  26.2317  26.2928  26.2966
    26.3461  26.3919  26.4225  26.4403  26.4877  26.4927  26.6047  26.6780
    26.6849  26.7215  26.7284  26.7685  26.7728  26.9575  26.9956  27.0417
    27.0758  27.1203  27.2157  27.3186  27.4036  27.4227  27.5377  27.5534
    27.6183  27.6461  27.6938  27.7255  27.8440  27.9152  27.9210  27.9479
    27.9752  27.9883  28.1111  28.1808  28.2396  28.2477  28.3313  28.3924
    28.4525  28.4855  28.5139

          k = 0.2500 0.0000 0.0000 ( 36052 PWs)   bands (ev):

   -81.9944 -81.9917 -81.9842 -81.9759 -81.9420 -81.9387 -81.9344 -81.9303
   -81.8887 -81.8814 -81.8786 -81.8647 -81.5997 -81.5925 -81.5857 -81.5782
   -50.8119 -50.8055 -50.7616 -50.7521 -50.7254 -50.7191 -50.7059 -50.6747
   -50.6702 -50.6587 -50.6530 -50.6403 -50.6386 -50.6384 -50.6327 -50.6242
   -50.6194 -50.6184 -50.6179 -50.6003 -50.5805 -50.5697 -50.5674 -50.5597
   -50.5459 -50.5434 -50.5422 -50.5415 -50.5389 -50.5253 -50.5091 -50.5031
   -50.4980 -50.4929 -50.4867 -50.4337 -50.3425 -50.3259 -50.3246 -50.3203
   -50.2871 -50.2814 -50.2532 -50.2392 -50.2077 -50.1941 -50.1867 -50.1729
   -22.6574 -19.7426 -19.4979 -19.2058 -19.0565 -18.8102 -18.6916 -18.6289
   -18.5117 -18.4527 -18.4196 -18.2211 -18.1455 -18.1186 -18.0614 -18.0579
   -18.0551 -18.0301 -18.0036 -17.9715 -17.9664 -17.9486 -17.8868 -17.8467
   -17.8009 -17.7883 -17.7307 -17.6383 -17.5696 -17.2279 -17.1401 -16.7847
   -16.7100 -15.8979  -7.7507  -7.6958  -7.6770  -7.6331  -7.4539  -7.1135
    -7.0000  -6.8833  -6.7613  -6.7007  -6.6906  -6.5901  -6.5608  -6.5041
    -6.4779  -6.4418  -6.4298  -6.3962  -6.3654  -6.3130  -6.2666  -6.2320
    -6.2079  -6.1966  -6.1778  -6.0914  -6.0620  -6.0440  -5.9913  -5.9702
    -5.9405  -5.9077  -5.7279  -5.7127  -5.6271  -5.4975  -5.4649  -5.3744
    -5.2534  -5.2062  -5.0447  -5.0199  -4.9593  -4.9334  -4.8225  -4.6459
    -4.5302  -4.5056  -4.4652  -4.4494  -4.3996  -4.2931  -4.2582  -4.1758
    -4.1251  -4.0629  -4.0596  -3.9565  -3.9129  -3.9054  -3.8851  -3.8295
    -3.8129  -3.8014  -3.7760  -3.6902  -3.6590  -3.5962  -3.5670  -3.5252
    -3.5135  -3.4966  -3.3942  -3.3560  -3.3171  -3.2702  -3.1886  -3.1660
    -3.1445  -3.0500  -3.0352  -3.0225  -2.9983  -2.9352  -2.9054  -2.8737
    -2.8017  -2.7487  -2.6343  -2.5643  -2.5579  -2.4572  -2.4488  -2.3875
    -2.3783  -2.3116  -2.2643  -2.2198  -2.1542  -2.1188  -2.0910  -2.0284
    -2.0109  -2.0076  -1.9776  -1.9591  -1.9340  -1.8327  -1.7181  -1.6638
    -1.6049  -1.5650  -1.5355  -1.5222  -1.4398  -1.3818  -1.3465  -1.2833
    -1.2469  -1.1921  -1.0591  -1.0159  -0.9291  -0.8900  -0.8787  -0.8315
    -0.7413  -0.6801  -0.6397  -0.6232  -0.6010  -0.5363  -0.5257  -0.5070
    -0.4761  -0.4368  -0.3620  -0.3001  -0.2877  -0.2139  -0.1159  -0.0617
    -0.0322   0.0183   0.0331   0.0873   0.1292   0.1366   0.1614   0.1745
     0.2284   0.5021   0.7979   0.8773   1.2112   1.3965   1.5764   1.8042
     1.8376   1.8836   1.9966   2.0066   2.0369   2.0435   2.1348   2.1503
     2.2305   2.2517   2.3026   2.4204   2.4739   2.4986   2.5823   2.6694
     2.7028   2.7894   2.8405   2.9896   3.0556   3.1298   3.3711   4.5682
     5.2615   5.2838   5.5093   5.8803   6.3607   6.8709   6.9548   7.1761
     7.5410   7.7154   8.0347   8.2196   8.4612   8.5621   8.7134   8.9101
     8.9984   9.2568   9.3475   9.3932   9.4686   9.5277   9.6970   9.7900
     9.8998  10.0265  10.1177  10.4023  10.4966  10.5710  10.7002  10.7897
    10.8544  10.9192  10.9484  11.1695  11.2197  11.3838  11.4343  11.4457
    11.5331  11.5768  11.6628  11.6881  11.7263  11.7530  11.8355  11.8702
    11.8828  11.9580  11.9674  11.9890  12.0082  12.1327  12.1589  12.2171
    12.2888  12.3205  12.4075  12.4829  12.5021  12.6611  12.7160  12.7708
    12.8391  12.8872  12.9588  13.0090  13.0555  13.1343  13.2408  13.3581
    13.3938  13.4284  13.5438  13.5865  13.6195  13.6993  13.7399  13.7542
    13.8376  13.8817  13.9986  14.0645  14.1876  14.2284  14.2840  14.3854
    14.4020  14.4962  14.5635  14.6185  14.6485  14.7211  14.7803  14.8018
    14.8802  14.9038  14.9523  15.0080  15.0785  15.1420  15.1625  15.1983
    15.2745  15.2992  15.3244  15.3500  15.4377  15.4979  15.5186  15.5601
    15.6788  15.7462  15.8287  15.8558  15.9109  15.9480  15.9875  16.0576
    16.1246  16.1402  16.1783  16.2009  16.2703  16.3320  16.3741  16.4236
    16.4747  16.5112  16.6032  16.6308  16.6769  16.7148  16.7341  16.7613
    16.9048  16.9713  16.9940  17.0510  17.1107  17.1498  17.1672  17.1808
    17.3047  17.3396  17.3508  17.4198  17.4413  17.4706  17.4881  17.5600
    17.6683  17.7060  17.7547  17.8350  17.8984  17.9481  17.9854  18.0130
    18.1033  18.1479  18.1758  18.2538  18.3132  18.3586  18.4125  18.4324
    18.4527  18.4967  18.6031  18.6390  18.6894  18.7424  18.8547  18.9091
    18.9573  19.0515  19.1262  19.1736  19.2598  19.2823  19.3435  19.3740
    19.4416  19.4979  19.6339  19.6660  19.6914  19.7981  19.8735  19.9019
    19.9407  20.0142  20.0704  20.1023  20.1296  20.2157  20.2610  20.3122
    20.4605  20.5028  20.5285  20.6275  20.6761  20.7235  20.7995  20.9448
    20.9962  21.0062  21.0680  21.1294  21.1709  21.2023  21.2820  21.3048
    21.3314  21.3845  21.4564  21.4699  21.4916  21.5319  21.5709  21.6122
    21.6983  21.7331  21.8087  21.8251  22.0273  22.0340  22.0507  22.1318
    22.1805  22.2096  22.2635  22.3557  22.4200  22.4273  22.4837  22.6084
    22.6280  22.7231  22.7279  22.7655  22.8372  22.8492  22.9122  22.9205
    23.0166  23.0324  23.1444  23.1743  23.2141  23.2509  23.2599  23.3240
    23.3375  23.3870  23.4623  23.5222  23.5595  23.6023  23.6249  23.6593
    23.6694  23.6773  23.7157  23.7246  23.7695  23.8128  23.8536  23.8820
    23.9196  23.9813  24.0087  24.0370  24.0918  24.1053  24.1493  24.2199
    24.2326  24.2707  24.2974  24.3224  24.4220  24.4936  24.5313  24.5936
    24.6442  24.7217  24.7622  24.7725  24.7939  24.8393  24.8830  24.9521
    25.0033  25.0678  25.0894  25.1377  25.2016  25.2280  25.2961  25.3458
    25.3550  25.4159  25.4678  25.4900  25.5193  25.5655  25.5658  25.6076
    25.6451  25.7111  25.7476  25.8028  25.8556  25.9533  25.9932  26.0742
    26.0927  26.1806  26.1842  26.2226  26.2445  26.3314  26.3645  26.4325
    26.4432  26.5425  26.6435  26.6828  26.7059  26.7448  26.8184  26.8416
    26.9706  26.9933  27.0245  27.0730  27.1078  27.2206  27.2444  27.2845
    27.3740  27.4687  27.5407  27.5454  27.6624  27.6901  27.7016  27.7823
    27.7864  27.8580  27.9436  27.9561  28.0350  28.0562  28.1164  28.1405
    28.1950  28.2342  28.2458

          k = 0.2500 0.2303 0.0000 ( 36026 PWs)   bands (ev):

   -81.9944 -81.9918 -81.9842 -81.9759 -81.9419 -81.9388 -81.9344 -81.9303
   -81.8887 -81.8814 -81.8786 -81.8647 -81.5997 -81.5925 -81.5857 -81.5782
   -50.8120 -50.8056 -50.7618 -50.7521 -50.7254 -50.7191 -50.7061 -50.6742
   -50.6709 -50.6581 -50.6531 -50.6403 -50.6383 -50.6379 -50.6327 -50.6240
   -50.6194 -50.6182 -50.6165 -50.5996 -50.5805 -50.5697 -50.5675 -50.5597
   -50.5474 -50.5434 -50.5422 -50.5415 -50.5389 -50.5253 -50.5088 -50.5038
   -50.4978 -50.4930 -50.4867 -50.4337 -50.3424 -50.3263 -50.3245 -50.3200
   -50.2875 -50.2812 -50.2532 -50.2392 -50.2077 -50.1941 -50.1867 -50.1729
   -22.6570 -19.6191 -19.3786 -19.0906 -18.9556 -18.8522 -18.7440 -18.6805
   -18.5531 -18.4361 -18.3831 -18.3168 -18.3062 -18.2563 -18.1885 -18.1303
   -18.1071 -18.0731 -18.0435 -17.9816 -17.9611 -17.9366 -17.8889 -17.7841
   -17.7536 -17.7241 -17.6986 -17.6334 -17.5620 -17.2272 -17.1186 -16.7733
   -16.7098 -15.8951  -7.6743  -7.4407  -7.3679  -7.3281  -7.1937  -7.1149
    -6.9828  -6.8474  -6.7220  -6.7015  -6.6093  -6.6007  -6.5181  -6.4912
    -6.4815  -6.4468  -6.3758  -6.3538  -6.3337  -6.2951  -6.2855  -6.2014
    -6.1831  -6.1660  -6.1326  -6.1056  -6.0446  -6.0284  -5.9957  -5.9587
    -5.8301  -5.8131  -5.6649  -5.5732  -5.5011  -5.4581  -5.3799  -5.2793
    -5.2533  -5.2102  -5.1730  -5.0203  -4.9377  -4.8499  -4.7397  -4.7289
    -4.6644  -4.5889  -4.5823  -4.4682  -4.4475  -4.4200  -4.3853  -4.3053
    -4.2340  -4.2197  -4.1763  -4.0935  -4.0762  -4.0375  -4.0191  -3.9880
    -3.9159  -3.9059  -3.8925  -3.8773  -3.8472  -3.7837  -3.7248  -3.6767
    -3.6236  -3.6147  -3.5498  -3.4861  -3.4627  -3.4060  -3.3023  -3.2518
    -3.2301  -3.1979  -3.1794  -2.9846  -2.9437  -2.9248  -2.8155  -2.8043
    -2.7883  -2.6548  -2.6106  -2.5737  -2.5414  -2.4750  -2.4313  -2.4244
    -2.3689  -2.3040  -2.2361  -2.2175  -2.1809  -2.0266  -1.9966  -1.9179
    -1.8910  -1.8286  -1.7933  -1.6725  -1.6469  -1.5956  -1.5805  -1.5451
    -1.5066  -1.4966  -1.4298  -1.4129  -1.3840  -1.3670  -1.3286  -1.3026
    -1.2812  -1.2124  -1.1938  -1.1048  -1.0746  -0.9986  -0.9671  -0.9581
    -0.9064  -0.8833  -0.7958  -0.7460  -0.6877  -0.5792  -0.5042  -0.4272
    -0.3343  -0.2960  -0.2948  -0.2560  -0.2299  -0.1985  -0.1822  -0.1262
    -0.1123  -0.0799   0.0207   0.0485   0.0989   0.1267   0.1570   0.2013
     0.4519   0.6212   0.9024   0.9428   1.0092   1.0619   1.0916   1.2108
     1.3341   1.5686   1.7355   2.0335   2.1133   2.1506   2.2164   2.2562
     2.3010   2.4464   2.4868   2.6674   2.7138   2.7698   2.8517   2.8890
     2.8995   3.0085   3.0964   3.1206   3.1502   3.1769   3.3563   4.7017
     5.3612   5.4370   5.6943   6.0946   6.5558   6.9484   7.1094   7.2631
     7.3576   7.6631   7.7835   7.9784   8.0080   8.2435   8.3988   8.4655
     8.7659   8.8470   8.9514   9.1043   9.3527   9.4711   9.6231   9.7792
     9.8733  10.0234  10.1014  10.2643  10.4381  10.5223  10.5983  10.7429
    10.8345  10.8733  10.9674  10.9973  11.1067  11.2460  11.3328  11.3608
    11.4458  11.5697  11.6316  11.6944  11.7308  11.7660  11.8421  11.9066
    11.9624  12.0001  12.2021  12.2425  12.3126  12.3789  12.4410  12.4685
    12.5580  12.5799  12.6259  12.7725  12.8555  12.9605  13.0133  13.0842
    13.1639  13.2284  13.2516  13.3042  13.3713  13.4448  13.5257  13.5871
    13.6814  13.7395  13.8011  13.8563  13.8840  13.9153  13.9725  14.0171
    14.0726  14.1378  14.1657  14.2770  14.3135  14.3805  14.4171  14.4783
    14.6075  14.6344  14.7143  14.7476  14.7982  14.8605  14.8909  14.9224
    14.9580  15.0149  15.0549  15.0792  15.1455  15.2281  15.2646  15.2879
    15.3236  15.3534  15.3759  15.4242  15.4712  15.5270  15.5404  15.5838
    15.6359  15.6760  15.7217  15.7959  15.8643  15.9660  16.0112  16.0422
    16.0676  16.1277  16.1715  16.2243  16.2468  16.2946  16.3361  16.3969
    16.4518  16.5398  16.5669  16.5979  16.6606  16.6883  16.7090  16.7662
    16.8031  16.8921  16.9472  16.9865  17.0274  17.0883  17.1318  17.2049
    17.2361  17.2934  17.3226  17.4031  17.4187  17.4732  17.5276  17.5708
    17.6037  17.6882  17.7306  17.7509  17.8222  17.8972  17.9150  17.9758
    18.0390  18.0904  18.1710  18.2282  18.3262  18.3547  18.4006  18.4398
    18.4871  18.5483  18.5714  18.6006  18.6530  18.7188  18.7910  18.8153
    18.8490  18.9232  18.9966  19.0309  19.0878  19.1312  19.1609  19.2178
    19.2415  19.2853  19.3536  19.4137  19.4777  19.5149  19.5327  19.6076
    19.6302  19.7038  19.7618  19.8452  19.8786  19.9362  20.0531  20.0674
    20.1608  20.1937  20.2369  20.2763  20.3206  20.3690  20.4011  20.4545
    20.4755  20.5689  20.6444  20.7064  20.7740  20.8008  20.8612  20.9166
    20.9741  21.0065  21.0490  21.1043  21.2118  21.3449  21.3766  21.4351
    21.4996  21.5318  21.5477  21.5658  21.6017  21.6930  21.7072  21.7851
    21.8309  21.8820  21.9147  22.0020  22.0118  22.0725  22.1244  22.1658
    22.2222  22.2644  22.3330  22.3822  22.4504  22.4857  22.5330  22.5774
    22.6280  22.7323  22.8153  22.8620  22.8973  22.9563  23.0527  23.1158
    23.1491  23.1762  23.2852  23.3729  23.4108  23.4526  23.4922  23.5123
    23.6115  23.6780  23.7124  23.7767  23.8443  23.9019  23.9996  24.0280
    24.0710  24.1992  24.2301  24.2904  24.3094  24.4024  24.4448  24.5193
    24.5568  24.6240  24.6790  24.7594  24.8015  24.8237  24.8903  24.8986
    24.9308  24.9902  25.0451  25.1279  25.1559  25.1773  25.2402  25.2913
    25.3361  25.3780  25.3948  25.4689  25.4950  25.5457  25.5835  25.6006
    25.6433  25.7171  25.7760  25.8234  25.8338  25.8668  25.9265  25.9694
    25.9915  26.0369  26.0706  26.1305  26.1886  26.2227  26.2414  26.2796
    26.3058  26.3597  26.3940  26.4554  26.4965  26.5172  26.5850  26.6330
    26.6664  26.7163  26.7455  26.8030  26.8294  26.9150  26.9495  26.9980
    27.0539  27.0695  27.0963  27.1887  27.2336  27.2783  27.3287  27.3663
    27.4390  27.4885  27.5473  27.5614  27.6249  27.6556  27.7082  27.7186
    27.7574  27.7978  27.8682  27.8904  27.9559  28.0131  28.0749  28.1229
    28.1509  28.2193  28.2456

          k = 0.2500-0.4606 0.0000 ( 36102 PWs)   bands (ev):

   -81.9944 -81.9918 -81.9842 -81.9759 -81.9418 -81.9389 -81.9344 -81.9303
   -81.8887 -81.8814 -81.8786 -81.8647 -81.5997 -81.5925 -81.5857 -81.5782
   -50.8122 -50.8058 -50.7620 -50.7523 -50.7255 -50.7191 -50.7064 -50.6733
   -50.6719 -50.6575 -50.6533 -50.6403 -50.6380 -50.6375 -50.6327 -50.6240
   -50.6193 -50.6181 -50.6149 -50.5992 -50.5804 -50.5697 -50.5676 -50.5597
   -50.5490 -50.5433 -50.5423 -50.5415 -50.5389 -50.5254 -50.5087 -50.5045
   -50.4978 -50.4929 -50.4867 -50.4337 -50.3424 -50.3266 -50.3245 -50.3200
   -50.2878 -50.2812 -50.2532 -50.2392 -50.2076 -50.1942 -50.1867 -50.1730
   -22.6567 -19.3318 -19.2500 -19.0690 -19.0611 -18.7808 -18.7177 -18.5961
   -18.5930 -18.5500 -18.5369 -18.4362 -18.3550 -18.2805 -18.2623 -18.2218
   -18.2007 -18.1177 -18.1123 -17.9669 -17.9566 -17.8986 -17.8821 -17.7714
   -17.7095 -17.6810 -17.6788 -17.6364 -17.5603 -17.2266 -17.0989 -16.7629
   -16.7095 -15.8922  -7.6492  -7.1807  -7.0992  -6.9083  -6.8718  -6.8657
    -6.8378  -6.8270  -6.7685  -6.7494  -6.6857  -6.5414  -6.5160  -6.5074
    -6.4196  -6.4172  -6.3442  -6.3085  -6.2940  -6.2371  -6.1597  -6.1051
    -6.0969  -6.0909  -6.0842  -6.0663  -6.0506  -5.9899  -5.9565  -5.9305
    -5.7919  -5.7714  -5.5388  -5.4858  -5.4281  -5.3880  -5.3615  -5.3382
    -5.3009  -5.1794  -5.1518  -5.0755  -4.9815  -4.9317  -4.9023  -4.8456
    -4.7173  -4.7047  -4.6842  -4.6501  -4.6226  -4.5904  -4.4996  -4.4452
    -4.4051  -4.3998  -4.3235  -4.2761  -4.2589  -4.2357  -4.1874  -4.1156
    -4.1130  -4.0785  -3.9746  -3.9579  -3.8888  -3.8242  -3.7898  -3.7779
    -3.7269  -3.7014  -3.6546  -3.6165  -3.5510  -3.5226  -3.4491  -3.3622
    -3.2753  -3.1551  -3.1105  -2.9964  -2.9420  -2.8882  -2.8242  -2.7691
    -2.6708  -2.6200  -2.5813  -2.5124  -2.4359  -2.3994  -2.3753  -2.3566
    -2.3256  -2.3029  -2.2729  -2.2254  -2.1144  -1.9805  -1.9228  -1.8502
    -1.7444  -1.7043  -1.6852  -1.6756  -1.6351  -1.6207  -1.5996  -1.5080
    -1.5040  -1.4955  -1.4730  -1.4196  -1.3009  -1.2734  -1.2492  -1.2182
    -1.1816  -1.1464  -1.1261  -1.0781  -1.0067  -0.9762  -0.9625  -0.9314
    -0.8941  -0.8716  -0.8556  -0.7568  -0.6983  -0.6826  -0.6132  -0.5527
    -0.4659  -0.3759  -0.3490  -0.3104  -0.2757  -0.1971  -0.1746  -0.1004
    -0.0313   0.0110   0.0168   0.0225   0.1018   0.1042   0.1816   0.2406
     0.5241   0.5531   0.5827   0.6302   0.6914   0.7669   1.0994   1.1437
     1.5153   1.6695   1.7350   1.9120   1.9338   2.0682   2.1038   2.2513
     2.2880   2.4341   2.4932   2.8515   2.8744   2.8863   2.9628   2.9725
     2.9954   3.1869   3.1912   3.3319   3.4133   3.4404   3.5464   4.8702
     5.4786   5.6697   6.1523   6.3644   6.5826   6.7426   6.9659   7.1004
     7.3601   7.3610   7.4450   7.6193   8.0305   8.2077   8.3856   8.5766
     8.7054   8.8142   8.8634   9.0697   9.2025   9.3005   9.4159   9.4886
     9.6719   9.7032   9.7950   9.9403  10.1826  10.2288  10.3962  10.4439
    10.4925  10.6660  10.7793  10.9511  11.0691  11.1895  11.2846  11.3579
    11.4073  11.5198  11.5352  11.6016  11.7533  11.8698  12.0759  12.1797
    12.2560  12.2796  12.3380  12.4031  12.5088  12.6048  12.9261  12.9696
    13.0315  13.0487  13.1200  13.1766  13.2425  13.2872  13.2917  13.3821
    13.4499  13.5023  13.6064  13.6252  13.7350  13.7856  13.8321  13.8531
    13.9221  13.9454  14.0062  14.1179  14.2176  14.2410  14.2448  14.2608
    14.3049  14.3605  14.4059  14.4226  14.4501  14.5376  14.5534  14.6096
    14.6493  14.7171  14.7393  14.8043  14.8736  14.9628  14.9998  15.0640
    15.1125  15.1820  15.2315  15.2559  15.3350  15.3742  15.4199  15.4557
    15.4711  15.4868  15.5227  15.5444  15.5833  15.6064  15.6648  15.6980
    15.7255  15.7476  15.8114  15.8614  15.8770  15.9347  16.0367  16.0462
    16.0990  16.1567  16.1895  16.2530  16.3238  16.3454  16.3702  16.3845
    16.4360  16.4641  16.4934  16.5278  16.6020  16.6433  16.6738  16.6997
    16.7701  16.8262  16.8519  16.8998  16.9109  16.9222  16.9279  17.0038
    17.0725  17.0928  17.1501  17.1839  17.2135  17.2373  17.2466  17.3251
    17.3553  17.4294  17.4379  17.5051  17.5353  17.5662  17.5927  17.6212
    17.7019  17.7183  17.7545  17.7574  17.8620  17.9984  18.0485  18.1422
    18.1922  18.2167  18.2891  18.3275  18.3494  18.4191  18.5983  18.6162
    18.6321  18.7346  18.7695  18.8092  18.8652  18.9023  18.9799  19.0651
    19.1359  19.2489  19.4009  19.4300  19.4532  19.5401  19.5693  19.6281
    19.7073  19.7940  19.8379  19.8841  19.9726  20.0380  20.0441  20.0512
    20.1376  20.2145  20.2837  20.2897  20.3079  20.3486  20.3871  20.4292
    20.4658  20.5963  20.6221  20.6632  20.6784  20.7299  20.7541  20.8285
    20.8333  20.9342  20.9489  20.9813  21.0148  21.0657  21.1406  21.1864
    21.2298  21.2704  21.2792  21.3492  21.4468  21.4692  21.5204  21.5547
    21.5718  21.6095  21.6537  21.7388  21.7805  21.8830  21.9583  22.0044
    22.0325  22.1322  22.1422  22.2409  22.2835  22.2982  22.3993  22.4363
    22.4561  22.5144  22.5809  22.6123  22.7101  22.7545  22.8157  22.8593
    22.8968  22.9326  23.0261  23.0999  23.1315  23.1920  23.2544  23.2762
    23.4117  23.4465  23.5290  23.5998  23.6606  23.7141  23.7281  23.7766
    23.8807  23.9459  24.0038  24.0782  24.1503  24.2493  24.3481  24.3949
    24.4378  24.5327  24.5623  24.6464  24.6591  24.7083  24.7324  24.7791
    24.8412  24.8874  24.9788  24.9905  25.0179  25.1138  25.1708  25.2270
    25.2432  25.2981  25.3297  25.3385  25.4328  25.4653  25.4934  25.5512
    25.6147  25.6537  25.7413  25.7756  25.8591  25.9073  25.9283  25.9919
    26.0729  26.1356  26.2300  26.3117  26.3603  26.3763  26.4063  26.5135
    26.5500  26.5880  26.6225  26.6802  26.7270  26.7426  26.7999  26.8480
    26.9770  27.0990  27.1208  27.1547  27.2399  27.2877  27.3338  27.4046
    27.4410  27.4839  27.5148  27.5927  27.6791  27.7841  27.8907  27.9120
    27.9325  27.9712  27.9904  28.0440  28.0947  28.1735  28.1855  28.2066
    28.2407  28.3049  28.3390  28.3638  28.4212  28.4485  28.5275  28.5532
    28.6350  28.6359  28.6877

          k =-0.5000 0.0000 0.0000 ( 36178 PWs)   bands (ev):

   -81.9937 -81.9889 -81.9871 -81.9766 -81.9393 -81.9374 -81.9363 -81.9324
   -81.8851 -81.8851 -81.8777 -81.8656 -81.5961 -81.5961 -81.5820 -81.5819
   -50.7696 -50.7692 -50.7681 -50.7557 -50.7220 -50.7178 -50.7166 -50.7018
   -50.6633 -50.6632 -50.6556 -50.6417 -50.6370 -50.6351 -50.6322 -50.6307
   -50.6217 -50.6177 -50.6124 -50.6062 -50.5999 -50.5739 -50.5691 -50.5679
   -50.5444 -50.5437 -50.5433 -50.5414 -50.5321 -50.5321 -50.5096 -50.5006
   -50.5005 -50.4903 -50.4893 -50.4337 -50.3231 -50.3231 -50.2985 -50.2979
   -50.2842 -50.2841 -50.2821 -50.2821 -50.2009 -50.2009 -50.1798 -50.1798
   -22.6572 -19.3372 -19.3346 -19.1637 -19.0809 -18.8853 -18.8595 -18.7643
   -18.7462 -18.4465 -18.4042 -18.3562 -18.1009 -18.0988 -18.0987 -18.0183
   -18.0174 -18.0034 -18.0013 -17.9496 -17.9409 -17.9181 -17.8931 -17.8344
   -17.8255 -17.7643 -17.7551 -17.7008 -17.6178 -17.2045 -17.1877 -16.7636
   -16.7622 -15.8964  -7.6948  -7.2537  -7.2536  -7.2362  -7.2349  -7.1940
    -7.1914  -7.0444  -7.0015  -6.7588  -6.7130  -6.6664  -6.6238  -6.6226
    -6.5597  -6.5049  -6.4785  -6.3992  -6.3947  -6.3319  -6.3176  -6.2454
    -6.2340  -6.2131  -6.1739  -6.1403  -6.1154  -6.1093  -5.9093  -5.8733
    -5.7725  -5.7225  -5.6300  -5.4504  -5.4374  -5.3059  -5.2571  -5.2241
    -5.0914  -5.0459  -4.9837  -4.9581  -4.8670  -4.8513  -4.7175  -4.6971
    -4.6875  -4.6290  -4.5664  -4.5367  -4.5039  -4.4964  -4.4525  -4.4172
    -4.3685  -4.1230  -4.1176  -4.1093  -4.1083  -3.9392  -3.9358  -3.8517
    -3.8093  -3.7677  -3.7469  -3.7022  -3.6773  -3.6444  -3.6210  -3.5719
    -3.5421  -3.5184  -3.5067  -3.4749  -3.4716  -3.4517  -3.4064  -3.3711
    -3.3498  -3.2111  -3.1568  -3.1530  -3.0767  -3.0648  -3.0434  -3.0039
    -2.8722  -2.7262  -2.7203  -2.6035  -2.5816  -2.4868  -2.4578  -2.3596
    -2.3448  -2.3081  -2.2856  -2.2188  -2.1135  -1.9464  -1.9390  -1.9228
    -1.9204  -1.9079  -1.8818  -1.8498  -1.8113  -1.7391  -1.6221  -1.6047
    -1.5369  -1.4069  -1.3439  -1.3182  -1.2790  -1.2687  -1.2486  -1.2357
    -1.2230  -1.1991  -1.1750  -1.1311  -1.1093  -0.9590  -0.6797  -0.6160
    -0.5969  -0.5362  -0.5359  -0.4994  -0.4951  -0.4487  -0.3975  -0.3672
    -0.3524  -0.3298  -0.3102  -0.2973  -0.2592  -0.2453  -0.2155  -0.1714
    -0.1537  -0.1170  -0.0947  -0.0935  -0.0800  -0.0565   0.1257   0.2843
     0.2918   0.6251   1.0011   1.0857   1.2220   1.5282   1.5445   1.8514
     1.8786   1.9627   2.0152   2.0273   2.0293   2.0839   2.0871   2.1063
     2.1626   2.1831   2.2236   2.2435   2.2647   2.2648   2.3383   2.3763
     2.4826   2.5411   2.6046   2.9908   3.0219   3.0638   3.0847   4.8689
     5.6416   5.8804   6.0608   6.0612   6.2846   6.3637   6.7181   6.7552
     7.2047   7.2130   7.7311   7.8265   8.3023   8.5392   8.9254   8.9399
     9.3361   9.5639   9.6124   9.7026   9.7275   9.7775   9.8856  10.1714
    10.2000  10.2053  10.2372  10.2757  10.2926  10.3291  10.3874  10.4886
    10.5265  10.5802  10.6922  10.7745  10.7852  10.9106  10.9643  11.1700
    11.2430  11.3075  11.3927  11.4739  11.5395  11.5819  11.6457  11.7358
    11.9478  12.0125  12.0287  12.1468  12.2260  12.2933  12.4994  12.6054
    12.6139  12.6645  12.6760  12.7393  12.8612  12.9337  12.9977  13.0097
    13.0246  13.1151  13.1604  13.1995  13.2313  13.2549  13.3443  13.3912
    13.4049  13.4710  13.4816  13.5572  13.7092  13.8454  13.8631  13.9326
    14.1300  14.2646  14.2756  14.2833  14.3533  14.4115  14.4386  14.4893
    14.5211  14.6829  14.6983  14.7789  14.7985  14.8701  14.9788  15.0053
    15.0080  15.0928  15.1097  15.2336  15.2752  15.3019  15.3219  15.3437
    15.3558  15.3999  15.4993  15.5440  15.5482  15.6182  15.6570  15.7195
    15.8322  15.9437  15.9736  15.9862  16.0641  16.1739  16.1956  16.2122
    16.2973  16.3931  16.4185  16.5052  16.5227  16.5366  16.6049  16.6171
    16.6391  16.7634  16.7644  16.8647  16.8719  16.9305  16.9464  16.9592
    16.9897  17.0068  17.0559  17.0597  17.1346  17.2278  17.2469  17.2622
    17.3007  17.3043  17.3728  17.3739  17.3851  17.4745  17.4954  17.5293
    17.6504  17.6616  17.7452  17.7606  17.8287  17.8772  17.8922  17.9376
    18.0935  18.0949  18.2277  18.2404  18.3520  18.4194  18.6049  18.6378
    18.7195  18.7199  18.9143  18.9551  19.0507  19.0695  19.0886  19.1137
    19.2263  19.2666  19.3000  19.3665  19.4394  19.4708  19.5055  19.5234
    19.5269  19.5521  19.5776  19.5969  19.6565  19.7006  19.7151  19.7656
    19.8666  19.9099  19.9928  19.9941  20.0107  20.0910  20.1990  20.2364
    20.3613  20.3725  20.3919  20.4360  20.4389  20.5325  20.5764  20.6105
    20.6605  20.7021  20.7726  20.8147  20.8841  20.8940  20.9813  21.0022
    21.0474  21.1070  21.1699  21.1895  21.2588  21.2736  21.3966  21.4091
    21.4527  21.5999  21.6995  21.7097  21.7231  21.7873  21.8367  21.9041
    21.9455  21.9458  21.9632  21.9963  22.0485  22.0872  22.1463  22.1617
    22.2072  22.2699  22.2744  22.2917  22.3706  22.3832  22.5215  22.5453
    22.5684  22.6170  22.6444  22.6990  22.7422  22.7563  22.7987  22.8253
    22.8554  22.9260  22.9393  23.0276  23.0440  23.1573  23.1937  23.2351
    23.2448  23.4002  23.4154  23.4586  23.4861  23.5353  23.5446  23.5496
    23.6001  23.6043  23.6397  23.6787  23.7179  23.7364  23.7620  23.8879
    23.9197  24.0568  24.1093  24.1397  24.1587  24.1801  24.2789  24.2889
    24.3713  24.3892  24.4557  24.5036  24.5324  24.5509  24.5684  24.6174
    24.7029  24.7704  24.8164  24.9254  24.9445  24.9792  25.0199  25.0323
    25.0681  25.1572  25.1747  25.1917  25.2881  25.3157  25.3703  25.4153
    25.4360  25.4414  25.5112  25.5397  25.5959  25.7026  25.7088  25.8572
    25.9583  26.0368  26.0593  26.0821  26.1074  26.1578  26.1723  26.2433
    26.2495  26.2996  26.3195  26.3633  26.5532  26.5672  26.5880  26.6198
    26.6593  26.7073  26.7313  26.8050  26.8894  27.0582  27.0652  27.0732
    27.1002  27.1822  27.2080  27.2871  27.2879  27.3575  27.4837  27.5065
    27.5528  27.5620  27.6681  27.6896  27.7780  27.8319  27.8381  27.8806
    28.0073  28.1141  28.2036

          k =-0.5000 0.2303 0.0000 ( 36078 PWs)   bands (ev):

   -81.9937 -81.9889 -81.9871 -81.9766 -81.9392 -81.9373 -81.9365 -81.9324
[...]
     1.1145   1.1156   1.1194   1.1799   1.1949   1.2113   1.2602   1.3792
     1.4592   1.4609   1.4877   1.5102   1.5501   1.5622   1.5729   1.5898
     1.6625   1.7343   1.7447   1.7761   1.7778   1.7940   1.8352   1.8561
     1.8569   1.8770   1.9191   1.9480   1.9655   1.9780   1.9930   2.0061
     2.0922   2.0948   2.1664   2.2078   2.2127   2.2416   2.2628   2.6572
     2.6603   2.7302   2.7988   2.8060   2.8158   2.9074   2.9119   2.9178
     2.9298   2.9488   3.0047   3.2019   3.2098   3.2329   3.3290   3.7438
     3.8638   3.8888   3.8905   4.1247   4.1338   4.1640   4.2074   4.5319
     4.5712   4.6094   4.6226   4.7373   4.7534   4.7929   4.7980   5.0757
     5.8837   6.7536   6.8705   6.8723   7.0226   7.0395   7.2607   7.3160
     7.4553   7.4627   7.6321   7.6439   7.8395   7.8667   7.9837   8.0073
     8.3214   8.3792   8.4326   8.5497   8.9191   8.9681   9.0133   9.2523
     9.5837   9.6307   9.7465  10.0582  10.3163  10.4115  10.5302  10.6515
    10.8857  10.9457  10.9853  11.0197  11.3032  11.3744  11.4042  11.4765
    11.6018  11.6628  11.6934  11.6955  12.0870  12.2133  12.2945  12.3233
    12.5507  12.5830  12.6105  12.6280  12.9816  13.1823  13.1988  13.2491
    13.6003  13.6976  13.7371  13.8348  13.8586  14.0346  14.1343  14.1476
    14.2597  14.4359  14.4908  14.6284  14.6533  14.7065  14.7995  14.8242
    14.8381  14.8980  14.9227  15.0523  15.0576  15.0916  15.1044  15.1464
    15.1550  15.1824  15.1925  15.2525  15.3003  15.3049  15.3517  15.4056
    15.4337  15.4742  15.4953  15.5224  15.5436  15.5460  15.5770  15.6250
    15.6264  15.6509  15.6878  15.7048  15.7543  15.7972  15.8035  15.8251
    15.8556  15.9284  15.9585  16.0134  16.0497  16.0963  16.0978  16.1386
    16.1460  16.2278  16.2328  16.2872  16.3009  16.3615  16.4111  16.4497
    16.5168  16.5203  16.6024  16.6311  16.6769  16.7278  16.7497  16.7835
    16.8002  16.8045  16.8447  16.8578  16.8752  16.9466  16.9889  17.0317
    17.0652  17.0858  17.1286  17.1396  17.1613  17.1976  17.2028  17.2211
    17.2428  17.2746  17.3263  17.3306  17.3357  17.4040  17.4258  17.4578
    17.5911  17.6587  17.6991  17.7550  17.8019  17.8657  17.8762  17.8900
    17.9178  17.9819  17.9999  18.0196  18.0728  18.1125  18.1935  18.2275
    18.2315  18.2385  18.2989  18.3255  18.4384  18.4937  18.5143  18.5739
    18.6094  18.6279  18.6696  18.7176  18.7833  18.8083  18.8453  18.8941
    18.9409  19.0572  19.0954  19.1170  19.2081  19.2505  19.2809  19.4014
    19.4288  19.4357  19.4669  19.4828  19.5782  19.5900  19.6451  19.6582
    19.7609  19.7679  19.8541  19.9121  20.0348  20.0445  20.1889  20.1892
    20.2521  20.2876  20.3014  20.3703  20.4178  20.4826  20.5100  20.5924
    20.7224  20.7901  20.8424  20.8594  20.8746  20.9011  20.9628  21.1232
    21.1375  21.2453  21.2540  21.3547  21.6415  21.6552  21.6646  21.7853
    21.7970  21.7976  21.8834  22.0156  22.0943  22.1414  22.1625  22.1715
    22.3593  22.4274  22.4685  22.5046  22.5923  22.6576  22.7409  22.8146
    22.8734  23.0015  23.0613  23.2073  23.2326  23.2771  23.3370  23.5378
    23.5645  23.6045  23.6892  23.8558  23.9346  23.9490  23.9933  24.0581
    24.1111  24.1834  24.2093  24.2547  24.3339  24.3832  24.3914  24.4219
    24.4732  24.5036  24.6329  24.6759  24.6865  24.7324  24.7569  24.7883
    24.8163  24.8387  24.8889  25.0014  25.0614  25.0698  25.1814  25.2203
    25.2497  25.2852  25.3239  25.3338  25.3490  25.4367  25.4564  25.5136
    25.6311  25.6884  25.7235  25.7375  25.7663  25.8048  25.8554  25.8951
    25.9717  26.0298  26.0870  26.0884  26.1521  26.2094  26.2124  26.2466
    26.2738  26.3028  26.3883  26.4414  26.4808  26.5744  26.6179  26.6376
    26.7353  26.7363  26.7793  26.8048  26.8684  26.9039  26.9441  26.9535
    26.9759  26.9927  27.0380  27.0734  27.1147  27.1319  27.1368  27.2060
    27.2423  27.2813  27.2890  27.3113  27.3548  27.3738  27.4195  27.5512
    27.5575  27.6294  27.6995  27.7160  27.7215  27.7399  27.8366  27.8949
    27.8973  28.0155  28.0802  28.1411  28.1426  28.1705  28.1892  28.3357
    28.4227  28.4297  28.4724

     the spin up/dw Fermi energies are     0.1365   -0.1601 ev

!    total energy              =   -4504.79590081 Ry
     Harris-Foulkes estimate   =   -4504.79590083 Ry
     estimated scf accuracy    <       0.00000002 Ry

     The total energy is the sum of the following terms:

     one-electron contribution =  -92992.33299622 Ry
     hartree contribution      =   46554.05136617 Ry
     xc contribution           =    -662.83164614 Ry
     ewald contribution        =   42596.31819037 Ry
     smearing contrib. (-TS)   =      -0.00081500 Ry

     total magnetization       =    47.00 Bohr mag/cell
     absolute magnetization    =    48.77 Bohr mag/cell

     convergence has been achieved in  34 iterations

     Forces acting on atoms (Ry/au):


     negative rho (up, down):  0.305E-02 0.164E-02
     atom    1 type  1   force =     0.00000000    0.00002020    0.04924779
     atom    2 type  2   force =    -0.00076181   -0.00003447   -0.08394825
     atom    3 type  2   force =     0.00000000    0.00000543    0.05052876
     atom    4 type  1   force =    -0.00003877    0.05125679   -0.04380033
     atom    5 type  1   force =    -0.00004175   -0.05124374   -0.04379404
     atom    6 type  1   force =     0.00000000    0.00009483    0.00869061
     atom    7 type  1   force =     0.00000000   -0.00003099    0.00640247
     atom    8 type  2   force =     0.00151062   -0.00008949    0.03396667
     atom    9 type  2   force =     0.00000000   -0.00081355    0.01776626
     atom   10 type  1   force =     0.00061476   -0.03277354    0.00502235
     atom   11 type  1   force =     0.00081822    0.03233627    0.00358121
     atom   12 type  1   force =     0.00000000   -0.00075371    0.00703008
     atom   13 type  1   force =     0.00000000    0.00116237    0.00142709
     atom   14 type  2   force =     0.00018320   -0.00007387    0.00106486
     atom   15 type  2   force =     0.00000000   -0.00010362   -0.00014678
     atom   16 type  1   force =    -0.00027527    0.00037390    0.00018625
     atom   17 type  1   force =    -0.00019626   -0.00062042   -0.00167925
     atom   18 type  1   force =     0.00000000   -0.00163917   -0.00166002
     atom   19 type  1   force =     0.00000000    0.00147650    0.00130980
     atom   20 type  2   force =    -0.00052891    0.00019258   -0.00122278
     atom   21 type  2   force =     0.00000000    0.00260465   -0.00222035
     atom   22 type  1   force =     0.00126943    0.00049772   -0.00069160
     atom   23 type  1   force =    -0.00224837   -0.00072092   -0.00036718
     atom   24 type  1   force =     0.00000000    0.00084871    0.00260213
     atom   25 type  1   force =     0.00000000    0.00000177    0.04963263
     atom   26 type  2   force =     0.00076181   -0.00003447   -0.08394825
     atom   27 type  2   force =     0.00000000   -0.00010385    0.05047157
     atom   28 type  1   force =     0.00003877    0.05125679   -0.04380033
     atom   29 type  1   force =     0.00004175   -0.05124374   -0.04379404
     atom   30 type  1   force =     0.00000000    0.00010851    0.01108112
     atom   31 type  1   force =     0.00000000    0.00013651    0.00639981
     atom   32 type  2   force =    -0.00151062   -0.00008949    0.03396667
     atom   33 type  2   force =     0.00000000   -0.00079376    0.00298868
     atom   34 type  1   force =    -0.00061476   -0.03277354    0.00502235
     atom   35 type  1   force =    -0.00081822    0.03233627    0.00358121
     atom   36 type  1   force =     0.00000000   -0.00083603    0.00655997
     atom   37 type  1   force =     0.00000000    0.00068260    0.00225488
     atom   38 type  2   force =    -0.00018320   -0.00007387    0.00106486
     atom   39 type  2   force =     0.00000000   -0.00003711   -0.00183705
     atom   40 type  1   force =     0.00027527    0.00037390    0.00018625
     atom   41 type  1   force =     0.00019626   -0.00062042   -0.00167925
     atom   42 type  1   force =     0.00000000   -0.00093570    0.00268270
     atom   43 type  1   force =     0.00000000    0.00032573   -0.00228496
     atom   44 type  2   force =     0.00052891    0.00019258   -0.00122278
     atom   45 type  2   force =     0.00000000   -0.00286032    0.00270338
     atom   46 type  1   force =    -0.00126943    0.00049772   -0.00069160
     atom   47 type  1   force =     0.00224837   -0.00072092   -0.00036718
     atom   48 type  1   force =     0.00000000   -0.00205061   -0.00304975
     atom   49 type  1   force =     0.00000000    0.00206764    0.00190712
     atom   50 type  1   force =     0.00000000    0.00086599   -0.00397532
     atom   51 type  3   force =     0.00000000    0.00235540   -0.00314848

     Total force =     0.012339     Total SCF correction =     0.000513

     number of scf cycles    =  13
     number of bfgs steps    =  12

     energy   old            =   -4504.7956293118 Ry
     energy   new            =   -4504.7959008130 Ry

     CASE: energy  _new < energy  _old

     new trust radius        =       0.0362283255 bohr
     new conv_thr            =       0.0000000272 Ry


ATOMIC_POSITIONS (crystal)
O0       0.000000000   0.500000000   0.335990000    0   0   0
Mn1      0.250000000   0.500000000   0.370520000    0   0   0
Mn1      0.000000000   0.000000000   0.370520000    0   0   0
O0       0.250000000   0.800000000   0.370520000    0   0   0
O0       0.250000000   0.200000000   0.370520000    0   0   0
O0       0.000000000   0.500000000   0.405050000    0   0   0
O0       0.000000000   0.000000000   0.422310000    0   0   0
Mn1      0.250000000   0.000000000   0.456840000    0   0   0
Mn1      0.000000000   0.500000000   0.456840000    0   0   0
O0       0.250000000   0.700000000   0.456840000    0   0   0
O0       0.250000000   0.300000000   0.456840000    0   0   0
O0       0.000000000   0.000000000   0.491370000    0   0   0
O0       0.000000000   0.496415107   0.511330056
Mn1      0.254818445   0.496596095   0.545662496
Mn1      0.000000000  -0.002752813   0.546646405
O0       0.250154041   0.800691229   0.545896864
O0       0.250692589   0.192643216   0.545615832
O0       0.000000000   0.490819378   0.580232664
O0       0.000000000   0.001724969   0.599487928
Mn1      0.249438069  -0.005466146   0.636286522
Mn1      0.000000000   0.492302188   0.630190822
O0       0.242138848   0.687839503   0.636399343
O0       0.246265791   0.303204318   0.640425960
O0       0.000000000  -0.009353149   0.668008289
O0       0.500000000   0.500000000   0.335990000    0   0   0
Mn1      0.750000000   0.500000000   0.370520000    0   0   0
Mn1      0.500000000   0.000000000   0.370520000    0   0   0
O0       0.750000000   0.800000000   0.370520000    0   0   0
O0       0.750000000   0.200000000   0.370520000    0   0   0
O0       0.500000000   0.500000000   0.405050000    0   0   0
O0       0.500000000   0.000000000   0.422310000    0   0   0
Mn1      0.750000000   0.000000000   0.456840000    0   0   0
Mn1      0.500000000   0.500000000   0.456840000    0   0   0
O0       0.750000000   0.700000000   0.456840000    0   0   0
O0       0.750000000   0.300000000   0.456840000    0   0   0
O0       0.500000000   0.000000000   0.491370000    0   0   0
O0       0.500000000   0.497395200   0.511117110
Mn1      0.745181555   0.496596095   0.545662496
Mn1      0.500000000  -0.002911162   0.547094862
O0       0.749845959   0.800691229   0.545896864
O0       0.749307411   0.192643216   0.545615832
O0       0.500000000   0.494517959   0.581201456
O0       0.500000000   0.001294039   0.599834357
Mn1      0.750561931  -0.005466146   0.636286522
Mn1      0.500000000   0.496192680   0.639456679
O0       0.757861152   0.687839503   0.636399343
O0       0.753734209   0.303204318   0.640425960
O0       0.500000000  -0.015118736   0.667812743
O0       0.500000000   0.533107195   0.690522257
O0       0.500000000   0.339169367   0.712735608
H2       0.500000000   0.405378465   0.737948266


     Check: negative starting charge=(component1):   -0.001146
     NEW-OLD atomic charge density approx. for the potential

     Check: negative/imaginary core charge=   -0.000029    0.000000
     Check: negative starting charge=(component1):   -0.001143

     negative rho (up, down):  0.343E-02 0.329E-02

     total cpu time spent up to now is   165758.0 secs

     Self-consistent Calculation

     iteration #  1     ecut=    40.00 Ry     beta=0.30
     Davidson diagonalization with overlap
     ethr =  1.00E-06,  avg # of iterations =  5.1

     negative rho (up, down):  0.151E-01 0.151E-01

     total cpu time spent up to now is   166871.8 secs

     total energy              =   -4504.58000102 Ry
     Harris-Foulkes estimate   =   -4504.80002367 Ry
     estimated scf accuracy    <       0.44429902 Ry

     total magnetization       =    47.00 Bohr mag/cell
     absolute magnetization    =    49.13 Bohr mag/cell

     iteration #  2     ecut=    40.00 Ry     beta=0.30
     Davidson diagonalization with overlap
     ethr =  9.98E-05,  avg # of iterations =  6.1

     negative rho (up, down):  0.166E-01 0.152E-01

     total cpu time spent up to now is   167536.8 secs

     total energy              =   -4500.27621157 Ry
     Harris-Foulkes estimate   =   -4508.06403421 Ry
     estimated scf accuracy    <     514.23224440 Ry

     total magnetization       =    47.00 Bohr mag/cell
     absolute magnetization    =    47.41 Bohr mag/cell

     iteration #  3     ecut=    40.00 Ry     beta=0.30
     Davidson diagonalization with overlap
     ethr =  9.98E-05,  avg # of iterations =  5.7

     negative rho (up, down):  0.119E-01 0.111E-01

     total cpu time spent up to now is   168193.9 secs

     total energy              =   -4504.72784274 Ry
     Harris-Foulkes estimate   =   -4504.88740326 Ry
     estimated scf accuracy    <       1.83054614 Ry

     total magnetization       =    47.00 Bohr mag/cell
     absolute magnetization    =    48.71 Bohr mag/cell

     iteration #  4     ecut=    40.00 Ry     beta=0.30
     Davidson diagonalization with overlap
     ethr =  9.98E-05,  avg # of iterations =  4.8

     negative rho (up, down):  0.947E-02 0.863E-02

     total cpu time spent up to now is   168720.9 secs

     total energy              =   -4504.78889698 Ry
     Harris-Foulkes estimate   =   -4504.82375119 Ry
     estimated scf accuracy    <       0.31556045 Ry

     total magnetization       =    47.00 Bohr mag/cell
     absolute magnetization    =    48.74 Bohr mag/cell

     iteration #  5     ecut=    40.00 Ry     beta=0.30
     Davidson diagonalization with overlap
     ethr =  7.09E-05,  avg # of iterations =  1.2

     negative rho (up, down):  0.817E-02 0.735E-02

     total cpu time spent up to now is   169105.7 secs

     total energy              =   -4504.79790589 Ry
     Harris-Foulkes estimate   =   -4504.80136934 Ry
     estimated scf accuracy    <       0.05307626 Ry

     total magnetization       =    47.00 Bohr mag/cell
     absolute magnetization    =    48.76 Bohr mag/cell

     iteration #  6     ecut=    40.00 Ry     beta=0.30
     Davidson diagonalization with overlap
     ethr =  1.19E-05,  avg # of iterations =  4.3

     negative rho (up, down):  0.744E-02 0.656E-02

     total cpu time spent up to now is   169591.3 secs

     total energy              =   -4504.79672282 Ry
     Harris-Foulkes estimate   =   -4504.79904705 Ry
     estimated scf accuracy    <       0.04789550 Ry

     total magnetization       =    47.00 Bohr mag/cell
     absolute magnetization    =    48.75 Bohr mag/cell

     iteration #  7     ecut=    40.00 Ry     beta=0.30
     Davidson diagonalization with overlap
     ethr =  1.08E-05,  avg # of iterations =  1.0

     negative rho (up, down):  0.669E-02 0.576E-02

     total cpu time spent up to now is   169961.8 secs

     total energy              =   -4504.79555442 Ry
     Harris-Foulkes estimate   =   -4504.79725742 Ry
     estimated scf accuracy    <       0.02577505 Ry

     total magnetization       =    47.00 Bohr mag/cell
     absolute magnetization    =    48.76 Bohr mag/cell

     iteration #  8     ecut=    40.00 Ry     beta=0.30
     Davidson diagonalization with overlap
     ethr =  5.79E-06,  avg # of iterations =  6.4

     negative rho (up, down):  0.614E-02 0.518E-02

     total cpu time spent up to now is   170562.0 secs

     total energy              =   -4504.79595816 Ry
     Harris-Foulkes estimate   =   -4504.79606612 Ry
     estimated scf accuracy    <       0.00167312 Ry

     total magnetization       =    47.00 Bohr mag/cell
     absolute magnetization    =    48.76 Bohr mag/cell

     iteration #  9     ecut=    40.00 Ry     beta=0.30
     Davidson diagonalization with overlap
     ethr =  3.76E-07,  avg # of iterations =  2.6

     negative rho (up, down):  0.469E-02 0.365E-02

     total cpu time spent up to now is   170983.0 secs

     total energy              =   -4504.79609274 Ry
     Harris-Foulkes estimate   =   -4504.79606447 Ry
     estimated scf accuracy    <       0.00207753 Ry

     total magnetization       =    47.00 Bohr mag/cell
     absolute magnetization    =    48.76 Bohr mag/cell

     iteration # 10     ecut=    40.00 Ry     beta=0.30
     Davidson diagonalization with overlap
     ethr =  3.76E-07,  avg # of iterations =  1.0

     negative rho (up, down):  0.442E-02 0.334E-02

     total cpu time spent up to now is   171354.3 secs

     total energy              =   -4504.79617180 Ry
     Harris-Foulkes estimate   =   -4504.79616235 Ry
     estimated scf accuracy    <       0.00119346 Ry

     total magnetization       =    47.00 Bohr mag/cell
     absolute magnetization    =    48.76 Bohr mag/cell

     iteration # 11     ecut=    40.00 Ry     beta=0.30
     Davidson diagonalization with overlap
     ethr =  2.68E-07,  avg # of iterations =  1.0

     negative rho (up, down):  0.335E-02 0.207E-02

     total cpu time spent up to now is   171724.8 secs

     total energy              =   -4504.79619485 Ry
     Harris-Foulkes estimate   =   -4504.79628917 Ry
     estimated scf accuracy    <       0.00543232 Ry

     total magnetization       =    47.00 Bohr mag/cell
     absolute magnetization    =    48.75 Bohr mag/cell

     iteration # 12     ecut=    40.00 Ry     beta=0.30
     Davidson diagonalization with overlap
     ethr =  2.68E-07,  avg # of iterations =  1.0

     negative rho (up, down):  0.364E-02 0.242E-02

     total cpu time spent up to now is   172095.3 secs

     total energy              =   -4504.79616323 Ry
     Harris-Foulkes estimate   =   -4504.79625721 Ry
     estimated scf accuracy    <       0.00181951 Ry

     total magnetization       =    47.00 Bohr mag/cell
     absolute magnetization    =    48.76 Bohr mag/cell

     iteration # 13     ecut=    40.00 Ry     beta=0.30
     Davidson diagonalization with overlap
     ethr =  2.68E-07,  avg # of iterations =  1.0

     negative rho (up, down):  0.309E-02 0.172E-02

     total cpu time spent up to now is   172465.8 secs

     total energy              =   -4504.79622760 Ry
     Harris-Foulkes estimate   =   -4504.79622737 Ry
     estimated scf accuracy    <       0.00062173 Ry

     total magnetization       =    47.00 Bohr mag/cell
     absolute magnetization    =    48.76 Bohr mag/cell

     iteration # 14     ecut=    40.00 Ry     beta=0.30
     Davidson diagonalization with overlap
     ethr =  1.40E-07,  avg # of iterations =  1.0

     negative rho (up, down):  0.308E-02 0.170E-02

     total cpu time spent up to now is   172836.9 secs

     total energy              =   -4504.79624567 Ry
     Harris-Foulkes estimate   =   -4504.79625612 Ry
     estimated scf accuracy    <       0.00030368 Ry

     total magnetization       =    47.00 Bohr mag/cell
     absolute magnetization    =    48.76 Bohr mag/cell

     iteration # 15     ecut=    40.00 Ry     beta=0.30
     Davidson diagonalization with overlap
