
     Program PWSCF v.5.0.2 (svn rev. 9656) starts on 30Apr2014 at 21:32:21 

     This program is part of the open-source Quantum ESPRESSO suite
     for quantum simulation of materials; please cite
         "P. Giannozzi et al., J. Phys.:Condens. Matter 21 395502 (2009);
          URL http://www.quantum-espresso.org", 
     in publications or presentations arising from this work. More details at
     http://www.quantum-espresso.org/quote.php

     Parallel version (MPI), running on    16 processors
     K-points division:     npool     =       4
     R & G space division:  proc/nbgrp/npool/nimage =       4

     Current dimensions of program PWSCF are:
     Max number of different atomic species (ntypx) = 10
     Max number of k-points (npk) =  40000
     Max angular momentum in pseudopotentials (lmaxx) =  3
     Reading input from pwscf.in
Warning: card &CELL ignored
Warning: card / ignored

     Subspace diagonalization in iterative solution of the eigenvalue problem:
     a serial algorithm will be used


     Parallelization info
     --------------------
     sticks:   dense  smooth     PW     G-vecs:    dense   smooth      PW
     Min        1467     469    131               355494    64365    9519
     Max        1469     470    132               355497    64388    9524
     Sum        5871    1877    527              1421981   257505   38087



     bravais-lattice index     =            0
     lattice parameter (alat)  =      11.1872  a.u.
     unit-cell volume          =    7531.8600 (a.u.)^3
     number of atoms/cell      =           31
     number of atomic types    =            3
     number of electrons       =       222.00
     number of Kohn-Sham states=          333
     kinetic-energy cutoff     =      40.0000  Ry
     charge density cutoff     =     500.0000  Ry
     convergence threshold     =      1.0E-06
     mixing beta               =       0.7000
     number of iterations used =            8  plain     mixing
     Exchange-correlation      = SLA  PW   PBE  PBE ( 1 4 3 4 0)
     EXX-fraction              =        0.00
     nstep                     =           50


     celldm(1)=  11.187179  celldm(2)=   0.000000  celldm(3)=   0.000000
     celldm(4)=   0.000000  celldm(5)=   0.000000  celldm(6)=   0.000000

     crystal axes: (cart. coord. in units of alat)
               a(1) = (   1.000000   0.000000   0.000000 )  
               a(2) = (   0.000000   1.180104   0.000000 )  
               a(3) = (   0.000000   0.000000   4.558482 )  

     reciprocal axes: (cart. coord. in units 2 pi/alat)
               b(1) = (  1.000000  0.000000  0.000000 )  
               b(2) = (  0.000000  0.847383  0.000000 )  
               b(3) = (  0.000000  0.000000  0.219371 )  


     PseudoPot. # 1 for O  read from file:
     /home/camp/zhonxu/pseudo/o_pbe_v1.01.uspp.F.UPF
     MD5 check sum: 2bcb18d16ea4b960afae9ec6d52f22d2
     Pseudo is Ultrasoft + core correction, Zval =  6.0
     Generated by new atomic code, or converted to UPF format
     Using radial grid of  737 points,  5 beta functions with: 
                l(1) =   0
                l(2) =   0
                l(3) =   1
                l(4) =   1
                l(5) =   2
     Q(r) pseudized with  8 coefficients,  rinner =    0.900   0.900   0.900
                                                       0.900   0.900

     PseudoPot. # 2 for Nb read from file:
     /home/camp/zhonxu/pseudo/nb_pbe_v1.uspp.F.UPF
     MD5 check sum: 573aab8a2fa660278ed4a62cd769473f
     Pseudo is Ultrasoft + core correction, Zval = 13.0
     Generated by new atomic code, or converted to UPF format
     Using radial grid of  887 points,  6 beta functions with: 
                l(1) =   0
                l(2) =   0
                l(3) =   1
                l(4) =   1
                l(5) =   2
                l(6) =   2
     Q(r) pseudized with  6 coefficients,  rinner =    1.000   1.000   1.000
                                                       1.000   1.000

     PseudoPot. # 3 for H  read from file:
     /home/camp/zhonxu/pseudo/h_pbe_v1.uspp.F.UPF
     MD5 check sum: 3408e3ff4ec8b0a4e358431e7e038a48
     Pseudo is Ultrasoft, Zval =  1.0
     Generated by new atomic code, or converted to UPF format
     Using radial grid of  615 points,  2 beta functions with: 
                l(1) =   0
                l(2) =   0
     Q(r) pseudized with  8 coefficients,  rinner =    0.700

     atomic species   valence    mass     pseudopotential
        O0             6.00    15.99940     O ( 1.00)
        Nb1           13.00    92.90640     Nb( 1.00)
        H2             1.00     1.00794     H ( 1.00)


     Simplified LDA+U calculation (l_max = 2) with parameters (eV):
     atomic species    L          U    alpha       J0     beta
        Nb1            2     4.0000   0.0000   0.0000   0.0000



     No symmetry found



   Cartesian axes

     site n.     atom                  positions (alat units)
         1           O0  tau(   1) = (   0.0000000   0.0000000   1.6934306  )
         2           O0  tau(   2) = (   0.0000000   0.5900519   1.7719732  )
         3           Nb1 tau(   3) = (   0.2500000   0.5900519   2.0266100  )
         4           Nb1 tau(   4) = (   0.0000000   0.0000000   2.0234647  )
         5           O0  tau(   5) = (   0.2500000   0.9322821   2.0339492  )
         6           O0  tau(   6) = (   0.2500000   0.2478218   2.0339492  )
         7           O0  tau(   7) = (   0.0000000   0.5900519   2.2822497  )
         8           O0  tau(   8) = (   0.0000000   0.0000000   2.3837671  )
         9           Nb1 tau(   9) = (   0.2500000   0.0000000   2.6303810  )
        10           Nb1 tau(  10) = (   0.0000000   0.5900519   2.5986084  )
        11           O0  tau(  11) = (   0.2500000   0.8378738   2.6271901  )
        12           O0  tau(  12) = (   0.2500000   0.3422301   2.6272357  )
        13           O0  tau(  13) = (   0.0000000   0.0000000   2.8322306  )
        14           O0  tau(  14) = (   0.5000000   0.0000000   1.6959377  )
        15           O0  tau(  15) = (   0.5000000   0.5900519   1.7815005  )
        16           Nb1 tau(  16) = (   0.7500000   0.5900519   2.0269291  )
        17           Nb1 tau(  17) = (   0.5000000   0.0000000   2.0281143  )
        18           O0  tau(  18) = (   0.7500000   0.9322821   2.0339492  )
        19           O0  tau(  19) = (   0.7500000   0.2478218   2.0339492  )
        20           O0  tau(  20) = (   0.5000000   0.5900519   2.2572692  )
        21           O0  tau(  21) = (   0.5000000   0.0000000   2.3822628  )
        22           Nb1 tau(  22) = (   0.7500000   0.0000000   2.6309736  )
        23           Nb1 tau(  23) = (   0.5000000   0.5900519   2.6831227  )
        24           O0  tau(  24) = (   0.7500000   0.8378738   2.6265975  )
        25           O0  tau(  25) = (   0.7500000   0.3422301   2.6265975  )
        26           O0  tau(  26) = (   0.5000000   0.0000000   2.8320027  )
        27           H2  tau(  27) = (  -0.0004900   0.5918693   1.6065459  )
        28           H2  tau(  28) = (   0.4994900   0.5917631   1.6163466  )
        29           H2  tau(  29) = (   0.1504600   0.0004366   1.6207228  )
        30           H2  tau(  30) = (   0.6496400   0.0004366   1.6219536  )
        31           O0  tau(  31) = (   0.5000300   0.5900519   2.9731333  )

     number of k points=    10  Methfessel-Paxton smearing, width (Ry)=  0.0100
                       cart. coord. in units 2pi/alat
        k(    1) = (   0.0000000   0.0000000   0.0000000), wk =   0.1250000
        k(    2) = (   0.0000000   0.2118458   0.0000000), wk =   0.2500000
        k(    3) = (   0.0000000  -0.4236915   0.0000000), wk =   0.1250000
        k(    4) = (   0.2500000   0.0000000   0.0000000), wk =   0.2500000
        k(    5) = (   0.2500000   0.2118458   0.0000000), wk =   0.2500000
        k(    6) = (   0.2500000  -0.4236915   0.0000000), wk =   0.2500000
        k(    7) = (  -0.5000000   0.0000000   0.0000000), wk =   0.1250000
        k(    8) = (  -0.5000000   0.2118458   0.0000000), wk =   0.2500000
        k(    9) = (  -0.5000000  -0.4236915   0.0000000), wk =   0.1250000
        k(   10) = (  -0.2500000   0.2118458   0.0000000), wk =   0.2500000

     Dense  grid:  1421981 G-vectors     FFT dimensions: (  80,  96, 375)

     Smooth grid:   257505 G-vectors     FFT dimensions: (  45,  54, 216)

     Largest allocated arrays     est. size (Mb)     dimensions
        Kohn-Sham Wavefunctions        41.09 Mb     (   8086,  333)
        Atomic wavefunctions           22.70 Mb     (   8086,  184)
        NL pseudopotentials            49.23 Mb     (   8086,  399)
        Each V/rho on FFT grid         11.02 Mb     ( 721920)
        Each G-vector array             2.71 Mb     ( 355495)
        G-vector shells                 1.17 Mb     ( 153576)
     Largest temporary arrays     est. size (Mb)     dimensions
        Auxiliary wavefunctions       164.35 Mb     (   8086, 1332)
        Each subspace H/S matrix       27.07 Mb     (1332,1332)
        Each <psi_i|beta_j> matrix      2.03 Mb     (    399,  333)
        Arrays for rho mixing          88.13 Mb     ( 721920,   8)

     Check: negative/imaginary core charge=   -0.000003    0.000000

     Initial potential from superposition of free atoms
     Check: negative starting charge=   -0.003810

     starting charge  221.97807, renormalised to  222.00000

     negative rho (up, down):  0.381E-02 0.000E+00
     Number of +U iterations with fixed ns =  0
     Starting occupations:
 --- enter write_ns ---
 LDA+U parameters:
U( 2)     =  4.00000000
alpha( 2) =  0.00000000
atom    3   Tr[ns(na)] =   3.00000
    eigenvalues: 
  0.300  0.300  0.300  0.300  0.300
    eigenvectors:
  1.000  0.000  0.000  0.000  0.000
  0.000  1.000  0.000  0.000  0.000
  0.000  0.000  1.000  0.000  0.000
  0.000  0.000  0.000  1.000  0.000
  0.000  0.000  0.000  0.000  1.000
    occupations:
  0.300  0.000  0.000  0.000  0.000
  0.000  0.300  0.000  0.000  0.000
  0.000  0.000  0.300  0.000  0.000
  0.000  0.000  0.000  0.300  0.000
  0.000  0.000  0.000  0.000  0.300
atom    4   Tr[ns(na)] =   3.00000
    eigenvalues: 
  0.300  0.300  0.300  0.300  0.300
    eigenvectors:
  1.000  0.000  0.000  0.000  0.000
  0.000  1.000  0.000  0.000  0.000
  0.000  0.000  1.000  0.000  0.000
  0.000  0.000  0.000  1.000  0.000
  0.000  0.000  0.000  0.000  1.000
    occupations:
  0.300  0.000  0.000  0.000  0.000
  0.000  0.300  0.000  0.000  0.000
  0.000  0.000  0.300  0.000  0.000
  0.000  0.000  0.000  0.300  0.000
  0.000  0.000  0.000  0.000  0.300
atom    9   Tr[ns(na)] =   3.00000
    eigenvalues: 
  0.300  0.300  0.300  0.300  0.300
    eigenvectors:
  1.000  0.000  0.000  0.000  0.000
  0.000  1.000  0.000  0.000  0.000
  0.000  0.000  1.000  0.000  0.000
  0.000  0.000  0.000  1.000  0.000
  0.000  0.000  0.000  0.000  1.000
    occupations:
  0.300  0.000  0.000  0.000  0.000
  0.000  0.300  0.000  0.000  0.000
  0.000  0.000  0.300  0.000  0.000
  0.000  0.000  0.000  0.300  0.000
  0.000  0.000  0.000  0.000  0.300
atom   10   Tr[ns(na)] =   3.00000
    eigenvalues: 
  0.300  0.300  0.300  0.300  0.300
    eigenvectors:
  1.000  0.000  0.000  0.000  0.000
  0.000  1.000  0.000  0.000  0.000
  0.000  0.000  1.000  0.000  0.000
  0.000  0.000  0.000  1.000  0.000
  0.000  0.000  0.000  0.000  1.000
    occupations:
  0.300  0.000  0.000  0.000  0.000
  0.000  0.300  0.000  0.000  0.000
  0.000  0.000  0.300  0.000  0.000
  0.000  0.000  0.000  0.300  0.000
  0.000  0.000  0.000  0.000  0.300
atom   16   Tr[ns(na)] =   3.00000
    eigenvalues: 
  0.300  0.300  0.300  0.300  0.300
    eigenvectors:
  1.000  0.000  0.000  0.000  0.000
  0.000  1.000  0.000  0.000  0.000
  0.000  0.000  1.000  0.000  0.000
  0.000  0.000  0.000  1.000  0.000
  0.000  0.000  0.000  0.000  1.000
    occupations:
  0.300  0.000  0.000  0.000  0.000
  0.000  0.300  0.000  0.000  0.000
  0.000  0.000  0.300  0.000  0.000
  0.000  0.000  0.000  0.300  0.000
  0.000  0.000  0.000  0.000  0.300
atom   17   Tr[ns(na)] =   3.00000
    eigenvalues: 
  0.300  0.300  0.300  0.300  0.300
    eigenvectors:
  1.000  0.000  0.000  0.000  0.000
  0.000  1.000  0.000  0.000  0.000
  0.000  0.000  1.000  0.000  0.000
  0.000  0.000  0.000  1.000  0.000
  0.000  0.000  0.000  0.000  1.000
    occupations:
  0.300  0.000  0.000  0.000  0.000
  0.000  0.300  0.000  0.000  0.000
  0.000  0.000  0.300  0.000  0.000
  0.000  0.000  0.000  0.300  0.000
  0.000  0.000  0.000  0.000  0.300
atom   22   Tr[ns(na)] =   3.00000
    eigenvalues: 
  0.300  0.300  0.300  0.300  0.300
    eigenvectors:
  1.000  0.000  0.000  0.000  0.000
  0.000  1.000  0.000  0.000  0.000
  0.000  0.000  1.000  0.000  0.000
  0.000  0.000  0.000  1.000  0.000
  0.000  0.000  0.000  0.000  1.000
    occupations:
  0.300  0.000  0.000  0.000  0.000
  0.000  0.300  0.000  0.000  0.000
  0.000  0.000  0.300  0.000  0.000
  0.000  0.000  0.000  0.300  0.000
  0.000  0.000  0.000  0.000  0.300
atom   23   Tr[ns(na)] =   3.00000
    eigenvalues: 
  0.300  0.300  0.300  0.300  0.300
    eigenvectors:
  1.000  0.000  0.000  0.000  0.000
  0.000  1.000  0.000  0.000  0.000
  0.000  0.000  1.000  0.000  0.000
  0.000  0.000  0.000  1.000  0.000
  0.000  0.000  0.000  0.000  1.000
    occupations:
  0.300  0.000  0.000  0.000  0.000
  0.000  0.300  0.000  0.000  0.000
  0.000  0.000  0.300  0.000  0.000
  0.000  0.000  0.000  0.300  0.000
  0.000  0.000  0.000  0.000  0.300
N of occupied +U levels =  24.0000000
 --- exit write_ns ---
 Atomic wfc used for LDA+U Projector are NOT orthogonalized
     Starting wfc are  184 randomized atomic wfcs

     total cpu time spent up to now is      109.2 secs

     per-process dynamical memory:   403.5 Mb

     Self-consistent Calculation

     iteration #  1     ecut=    40.00 Ry     beta=0.70
     Davidson diagonalization with overlap
     ethr =  1.00E-02,  avg # of iterations =  6.0
 --- enter write_ns ---
 LDA+U parameters:
U( 2)     =  4.00000000
alpha( 2) =  0.00000000
atom    3   Tr[ns(na)] =   3.89975
    eigenvalues: 
  0.247  0.269  0.416  0.447  0.571
    eigenvectors:
  0.000  0.000  0.037  0.507  0.456
  0.000  0.000  0.936  0.064  0.000
  0.123  0.877  0.000  0.000  0.000
  0.000  0.000  0.027  0.429  0.544
  0.877  0.123  0.000  0.000  0.000
    occupations:
  0.502 -0.007  0.000 -0.063 -0.000
 -0.007  0.418 -0.000 -0.004  0.000
  0.000 -0.000  0.267 -0.000 -0.007
 -0.063 -0.004 -0.000  0.514  0.000
 -0.000  0.000 -0.007  0.000  0.250
atom    4   Tr[ns(na)] =   4.03577
    eigenvalues: 
  0.224  0.378  0.419  0.444  0.553
    eigenvectors:
  0.000  0.001  0.000  0.973  0.027
  0.000  0.999  0.000  0.001  0.000
  1.000  0.000  0.000  0.000  0.000
  0.000  0.000  0.000  0.027  0.973
  0.000  0.000  1.000  0.000  0.000
    occupations:
  0.447  0.002  0.000 -0.018  0.000
  0.002  0.378  0.000 -0.002 -0.000
  0.000  0.000  0.224 -0.000  0.001
 -0.018 -0.002 -0.000  0.550  0.000
  0.000 -0.000  0.001  0.000  0.419
atom    9   Tr[ns(na)] =   3.49609
    eigenvalues: 
  0.239  0.271  0.280  0.478  0.480
    eigenvectors:
  0.000  0.881  0.000  0.015  0.104
  0.000  0.000  0.000  0.877  0.123
  1.000  0.000  0.000  0.000  0.000
  0.000  0.119  0.000  0.108  0.773
  0.000  0.000  1.000  0.000  0.000
    occupations:
  0.296 -0.000  0.000  0.067 -0.000
 -0.000  0.478 -0.000 -0.001 -0.000
  0.000 -0.000  0.239  0.000  0.001
  0.067 -0.001  0.000  0.455 -0.000
 -0.000 -0.000  0.001 -0.000  0.280
atom   10   Tr[ns(na)] =   3.46603
    eigenvalues: 
  0.202  0.239  0.369  0.413  0.509
    eigenvectors:
  0.000  0.000  1.000  0.000  0.000
  0.000  1.000  0.000  0.000  0.000
  1.000  0.000  0.000  0.000  0.000
  0.000  0.000  0.000  0.000  1.000
  0.000  0.000  0.000  1.000  0.000
    occupations:
  0.369  0.000  0.000 -0.000 -0.000
  0.000  0.239  0.000  0.001  0.000
  0.000  0.000  0.202 -0.000 -0.000
 -0.000  0.001 -0.000  0.509  0.000
 -0.000  0.000 -0.000  0.000  0.413
atom   16   Tr[ns(na)] =   3.90029
    eigenvalues: 
  0.249  0.268  0.416  0.447  0.570
    eigenvectors:
  0.000  0.000  0.037  0.508  0.455
  0.000  0.000  0.935  0.065  0.000
  0.045  0.955  0.000  0.000  0.000
  0.000  0.000  0.028  0.428  0.545
  0.955  0.045  0.000  0.000  0.000
    occupations:
  0.502  0.007  0.000 -0.062  0.000
  0.007  0.418  0.000  0.004  0.000
  0.000  0.000  0.267 -0.000  0.004
 -0.062  0.004 -0.000  0.513 -0.000
  0.000  0.000  0.004 -0.000  0.250
atom   17   Tr[ns(na)] =   4.02145
    eigenvalues: 
  0.225  0.382  0.420  0.447  0.537
    eigenvectors:
  0.000  0.001  0.000  0.964  0.035
  0.000  0.999  0.000  0.000  0.000
  1.000  0.000  0.000  0.000  0.000
  0.000  0.000  0.000  0.035  0.965
  0.000  0.000  1.000  0.000  0.000
    occupations:
  0.450  0.002  0.000 -0.016  0.000
  0.002  0.382  0.000 -0.002 -0.000
  0.000  0.000  0.225 -0.000  0.001
 -0.016 -0.002 -0.000  0.534  0.000
  0.000 -0.000  0.001  0.000  0.420
atom   22   Tr[ns(na)] =   3.49814
    eigenvalues: 
  0.239  0.272  0.281  0.478  0.480
    eigenvectors:
  0.000  0.882  0.000  0.015  0.103
  0.000  0.000  0.000  0.874  0.126
  1.000  0.000  0.000  0.000  0.000
  0.000  0.118  0.000  0.111  0.771
  0.000  0.000  1.000  0.000  0.000
    occupations:
  0.296  0.000  0.000  0.067 -0.000
  0.000  0.478  0.000  0.001  0.000
  0.000  0.000  0.239 -0.000 -0.001
  0.067  0.001 -0.000  0.455  0.000
 -0.000  0.000 -0.001  0.000  0.281
atom   23   Tr[ns(na)] =   3.97262
    eigenvalues: 
  0.286  0.308  0.391  0.465  0.536
    eigenvectors:
  0.000  0.000  0.000  0.957  0.043
  0.000  1.000  0.000  0.000  0.000
  1.000  0.000  0.000  0.000  0.000
  0.000  0.000  0.000  0.043  0.957
  0.000  0.000  1.000  0.000  0.000
    occupations:
  0.468 -0.000 -0.000 -0.014 -0.000
 -0.000  0.308  0.000 -0.001  0.000
 -0.000  0.000  0.286 -0.000  0.000
 -0.014 -0.001 -0.000  0.533 -0.000
 -0.000  0.000  0.000 -0.000  0.391
N of occupied +U levels =  30.2901387
 --- exit write_ns ---

     negative rho (up, down):  0.338E-02 0.000E+00

     total cpu time spent up to now is      477.4 secs

     total energy              =   -1551.09123975 Ry
     Harris-Foulkes estimate   =   -1563.43357426 Ry
     estimated scf accuracy    <      15.91302722 Ry

     iteration #  2     ecut=    40.00 Ry     beta=0.70
     Davidson diagonalization with overlap
     ethr =  7.17E-03,  avg # of iterations =  2.0

     negative rho (up, down):  0.128E-01 0.000E+00

     total cpu time spent up to now is      677.5 secs

     total energy              =   -1536.17204034 Ry
     Harris-Foulkes estimate   =   -1574.04724810 Ry
     estimated scf accuracy    <     140.50194945 Ry

     iteration #  3     ecut=    40.00 Ry     beta=0.70
     Davidson diagonalization with overlap
     ethr =  7.17E-03,  avg # of iterations =  4.0

     negative rho (up, down):  0.425E-02 0.000E+00

     total cpu time spent up to now is      909.8 secs

     total energy              =   -1528.45146858 Ry
     Harris-Foulkes estimate   =   -1574.78304939 Ry
     estimated scf accuracy    <     795.67619447 Ry

     iteration #  4     ecut=    40.00 Ry     beta=0.70
     Davidson diagonalization with overlap
     ethr =  7.17E-03,  avg # of iterations =  3.9

     negative rho (up, down):  0.198E-02 0.000E+00

     total cpu time spent up to now is     1133.9 secs

     total energy              =   -1558.77256495 Ry
     Harris-Foulkes estimate   =   -1561.16657764 Ry
     estimated scf accuracy    <      15.07563140 Ry

     iteration #  5     ecut=    40.00 Ry     beta=0.70
     Davidson diagonalization with overlap
     ethr =  6.79E-03,  avg # of iterations =  2.1

     negative rho (up, down):  0.193E-02 0.000E+00

     total cpu time spent up to now is     1313.7 secs

     total energy              =   -1559.71330723 Ry
     Harris-Foulkes estimate   =   -1560.20659343 Ry
     estimated scf accuracy    <       2.61162070 Ry

     iteration #  6     ecut=    40.00 Ry     beta=0.70
     Davidson diagonalization with overlap
     ethr =  1.18E-03,  avg # of iterations =  3.2

     negative rho (up, down):  0.183E-02 0.000E+00

     total cpu time spent up to now is     1501.0 secs

     total energy              =   -1559.73982080 Ry
     Harris-Foulkes estimate   =   -1559.93031700 Ry
     estimated scf accuracy    <       1.33475206 Ry

     iteration #  7     ecut=    40.00 Ry     beta=0.70
     Davidson diagonalization with overlap
     ethr =  6.01E-04,  avg # of iterations =  2.6

     negative rho (up, down):  0.170E-02 0.000E+00

     total cpu time spent up to now is     1691.5 secs

     total energy              =   -1559.70115766 Ry
     Harris-Foulkes estimate   =   -1559.82038674 Ry
     estimated scf accuracy    <       0.52242238 Ry

     iteration #  8     ecut=    40.00 Ry     beta=0.70
     Davidson diagonalization with overlap
     ethr =  2.35E-04,  avg # of iterations =  5.0

     negative rho (up, down):  0.239E-02 0.000E+00

     total cpu time spent up to now is     1896.0 secs

     total energy              =   -1559.67542268 Ry
     Harris-Foulkes estimate   =   -1559.75153046 Ry
     estimated scf accuracy    <       0.39800711 Ry

     iteration #  9     ecut=    40.00 Ry     beta=0.70
     Davidson diagonalization with overlap
     ethr =  1.79E-04,  avg # of iterations =  4.3

     negative rho (up, down):  0.372E-02 0.000E+00

     total cpu time spent up to now is     2095.5 secs

     total energy              =   -1559.68570117 Ry
     Harris-Foulkes estimate   =   -1559.71768373 Ry
     estimated scf accuracy    <       0.20046087 Ry

     iteration # 10     ecut=    40.00 Ry     beta=0.70
     Davidson diagonalization with overlap
     ethr =  9.03E-05,  avg # of iterations =  4.1

     negative rho (up, down):  0.313E-02 0.000E+00

     total cpu time spent up to now is     2291.6 secs

     total energy              =   -1559.69974590 Ry
     Harris-Foulkes estimate   =   -1559.70918125 Ry
     estimated scf accuracy    <       0.15089126 Ry

     iteration # 11     ecut=    40.00 Ry     beta=0.70
     Davidson diagonalization with overlap
     ethr =  6.80E-05,  avg # of iterations =  1.0

     negative rho (up, down):  0.229E-02 0.000E+00

     total cpu time spent up to now is     2465.4 secs

     total energy              =   -1559.70020033 Ry
     Harris-Foulkes estimate   =   -1559.70361485 Ry
     estimated scf accuracy    <       0.07095462 Ry

     iteration # 12     ecut=    40.00 Ry     beta=0.70
     Davidson diagonalization with overlap
     ethr =  3.20E-05,  avg # of iterations =  5.3

     negative rho (up, down):  0.198E-02 0.000E+00

     total cpu time spent up to now is     2655.0 secs

     total energy              =   -1559.67495961 Ry
     Harris-Foulkes estimate   =   -1559.70199683 Ry
     estimated scf accuracy    <       0.05749481 Ry

     iteration # 13     ecut=    40.00 Ry     beta=0.70
     Davidson diagonalization with overlap
     ethr =  2.59E-05,  avg # of iterations =  7.4

     negative rho (up, down):  0.217E-02 0.000E+00

     total cpu time spent up to now is     2890.5 secs

     total energy              =   -1559.66941414 Ry
     Harris-Foulkes estimate   =   -1559.72320558 Ry
     estimated scf accuracy    <       0.39331399 Ry

     iteration # 14     ecut=    40.00 Ry     beta=0.70
     Davidson diagonalization with overlap
     ethr =  2.59E-05,  avg # of iterations =  6.6

     negative rho (up, down):  0.224E-02 0.000E+00

     total cpu time spent up to now is     3114.9 secs

     total energy              =   -1559.69307185 Ry
     Harris-Foulkes estimate   =   -1559.69575109 Ry
     estimated scf accuracy    <       0.01197803 Ry

     iteration # 15     ecut=    40.00 Ry     beta=0.70
     Davidson diagonalization with overlap
     ethr =  5.40E-06,  avg # of iterations =  4.0

     negative rho (up, down):  0.246E-02 0.000E+00

     total cpu time spent up to now is     3310.4 secs

     total energy              =   -1559.69387545 Ry
     Harris-Foulkes estimate   =   -1559.69582852 Ry
     estimated scf accuracy    <       0.00817120 Ry

     iteration # 16     ecut=    40.00 Ry     beta=0.70
     Davidson diagonalization with overlap
     ethr =  3.68E-06,  avg # of iterations =  4.6

     negative rho (up, down):  0.272E-02 0.000E+00

     total cpu time spent up to now is     3507.4 secs

     total energy              =   -1559.69467044 Ry
     Harris-Foulkes estimate   =   -1559.69520582 Ry
     estimated scf accuracy    <       0.00205446 Ry

     iteration # 17     ecut=    40.00 Ry     beta=0.70
     Davidson diagonalization with overlap
     ethr =  9.25E-07,  avg # of iterations =  4.1

     negative rho (up, down):  0.313E-02 0.000E+00

     total cpu time spent up to now is     3696.7 secs

     total energy              =   -1559.69489546 Ry
     Harris-Foulkes estimate   =   -1559.69508893 Ry
     estimated scf accuracy    <       0.00058139 Ry

     iteration # 18     ecut=    40.00 Ry     beta=0.70
     Davidson diagonalization with overlap
     ethr =  2.62E-07,  avg # of iterations =  1.1

     negative rho (up, down):  0.351E-02 0.000E+00

     total cpu time spent up to now is     3870.4 secs

     total energy              =   -1559.69494238 Ry
     Harris-Foulkes estimate   =   -1559.69502883 Ry
     estimated scf accuracy    <       0.00060666 Ry

     iteration # 19     ecut=    40.00 Ry     beta=0.70
     Davidson diagonalization with overlap
     ethr =  2.62E-07,  avg # of iterations =  1.0

     negative rho (up, down):  0.353E-02 0.000E+00

     total cpu time spent up to now is     4043.9 secs

     total energy              =   -1559.69495033 Ry
     Harris-Foulkes estimate   =   -1559.69504265 Ry
     estimated scf accuracy    <       0.00032936 Ry

     iteration # 20     ecut=    40.00 Ry     beta=0.70
     Davidson diagonalization with overlap
     ethr =  1.48E-07,  avg # of iterations =  1.6

     negative rho (up, down):  0.349E-02 0.000E+00

     total cpu time spent up to now is     4220.6 secs

     total energy              =   -1559.69499291 Ry
     Harris-Foulkes estimate   =   -1559.69501344 Ry
     estimated scf accuracy    <       0.00008499 Ry

     iteration # 21     ecut=    40.00 Ry     beta=0.70
     Davidson diagonalization with overlap
     ethr =  3.83E-08,  avg # of iterations =  1.0

     negative rho (up, down):  0.354E-02 0.000E+00

     total cpu time spent up to now is     4405.5 secs

     total energy              =   -1559.69500259 Ry
     Harris-Foulkes estimate   =   -1559.69500716 Ry
     estimated scf accuracy    <       0.00004309 Ry

     iteration # 22     ecut=    40.00 Ry     beta=0.70
     Davidson diagonalization with overlap
     ethr =  1.94E-08,  avg # of iterations =  1.0

     negative rho (up, down):  0.362E-02 0.000E+00

     total cpu time spent up to now is     4588.1 secs

     total energy              =   -1559.69500470 Ry
     Harris-Foulkes estimate   =   -1559.69500710 Ry
     estimated scf accuracy    <       0.00001598 Ry

     iteration # 23     ecut=    40.00 Ry     beta=0.70
     Davidson diagonalization with overlap
     ethr =  7.20E-09,  avg # of iterations =  1.1

     negative rho (up, down):  0.355E-02 0.000E+00

     total cpu time spent up to now is     4778.1 secs

     total energy              =   -1559.69500639 Ry
     Harris-Foulkes estimate   =   -1559.69500726 Ry
     estimated scf accuracy    <       0.00000410 Ry

     iteration # 24     ecut=    40.00 Ry     beta=0.70
     Davidson diagonalization with overlap
     ethr =  1.85E-09,  avg # of iterations =  1.0

     negative rho (up, down):  0.352E-02 0.000E+00

     total cpu time spent up to now is     4958.7 secs

     total energy              =   -1559.69500713 Ry
     Harris-Foulkes estimate   =   -1559.69500742 Ry
     estimated scf accuracy    <       0.00000404 Ry

     iteration # 25     ecut=    40.00 Ry     beta=0.70
     Davidson diagonalization with overlap
     ethr =  1.82E-09,  avg # of iterations =  1.1

     negative rho (up, down):  0.352E-02 0.000E+00

     total cpu time spent up to now is     5143.2 secs

     total energy              =   -1559.69500746 Ry
     Harris-Foulkes estimate   =   -1559.69500794 Ry
     estimated scf accuracy    <       0.00000216 Ry

     iteration # 26     ecut=    40.00 Ry     beta=0.70
     Davidson diagonalization with overlap
     ethr =  9.74E-10,  avg # of iterations =  1.0

     negative rho (up, down):  0.351E-02 0.000E+00

     total cpu time spent up to now is     5325.6 secs

     total energy              =   -1559.69500776 Ry
     Harris-Foulkes estimate   =   -1559.69500790 Ry
     estimated scf accuracy    <       0.00000159 Ry

     iteration # 27     ecut=    40.00 Ry     beta=0.70
     Davidson diagonalization with overlap
     ethr =  7.15E-10,  avg # of iterations =  1.0

     negative rho (up, down):  0.350E-02 0.000E+00

     total cpu time spent up to now is     5505.8 secs

     End of self-consistent calculation
 --- enter write_ns ---
 LDA+U parameters:
U( 2)     =  4.00000000
alpha( 2) =  0.00000000
atom    3   Tr[ns(na)] =   5.21521
    eigenvalues: 
  0.367  0.416  0.540  0.592  0.693
    eigenvectors:
  0.000  0.000  0.038  0.377  0.585
  0.000  0.000  0.935  0.063  0.002
  0.298  0.702  0.000  0.000  0.000
  0.000  0.000  0.027  0.560  0.413
  0.702  0.298  0.000  0.000  0.000
    occupations:
  0.649 -0.013  0.000 -0.051 -0.000
 -0.013  0.544 -0.000 -0.006  0.000
  0.000 -0.000  0.401 -0.000 -0.022
 -0.051 -0.006 -0.000  0.632  0.000
 -0.000  0.000 -0.022  0.000  0.381
atom    4   Tr[ns(na)] =   5.22087
    eigenvalues: 
  0.393  0.415  0.556  0.588  0.658
    eigenvectors:
  0.000  0.004  0.000  0.995  0.001
  0.000  0.995  0.000  0.004  0.001
  1.000  0.000  0.000  0.000  0.000
  0.000  0.001  0.000  0.001  0.998
  0.000  0.000  1.000  0.000  0.000
    occupations:
  0.588  0.011  0.000  0.002 -0.000
  0.011  0.416 -0.000 -0.007  0.000
  0.000 -0.000  0.393  0.000  0.001
  0.002 -0.007  0.000  0.658  0.000
 -0.000  0.000  0.001  0.000  0.556
atom    9   Tr[ns(na)] =   5.25389
    eigenvalues: 
  0.450  0.457  0.484  0.617  0.620
    eigenvectors:
  0.000  0.872  0.000  0.105  0.022
  0.000  0.000  0.000  0.171  0.829
  0.769  0.000  0.231  0.000  0.000
  0.000  0.128  0.000  0.724  0.148
  0.231  0.000  0.769  0.000  0.000
    occupations:
  0.477 -0.001 -0.000  0.054 -0.000
 -0.001  0.619 -0.000 -0.001 -0.000
 -0.000 -0.000  0.458  0.000  0.014
  0.054 -0.001  0.000  0.597 -0.000
 -0.000 -0.000  0.014 -0.000  0.476
atom   10   Tr[ns(na)] =   5.06217
    eigenvalues: 
  0.344  0.441  0.512  0.550  0.683
    eigenvectors:
  0.000  0.000  0.980  0.000  0.020
  0.000  1.000  0.000  0.000  0.000
  1.000  0.000  0.000  0.000  0.000
  0.000  0.000  0.020  0.000  0.980
  0.000  0.000  0.000  1.000  0.000
    occupations:
  0.515  0.000  0.000  0.024 -0.000
  0.000  0.441  0.000  0.003  0.000
  0.000  0.000  0.344 -0.000 -0.000
  0.024  0.003 -0.000  0.680  0.000
 -0.000  0.000 -0.000  0.000  0.550
atom   16   Tr[ns(na)] =   5.21566
    eigenvalues: 
  0.370  0.414  0.540  0.592  0.692
    eigenvectors:
  0.000  0.000  0.038  0.377  0.585
  0.000  0.000  0.934  0.064  0.002
  0.267  0.733  0.000  0.000  0.000
  0.000  0.000  0.028  0.559  0.413
  0.733  0.267  0.000  0.000  0.000
    occupations:
  0.649  0.013  0.000 -0.051  0.000
  0.013  0.544  0.000  0.006  0.000
  0.000  0.000  0.402 -0.000  0.020
 -0.051  0.006 -0.000  0.632 -0.000
  0.000  0.000  0.020 -0.000  0.381
atom   17   Tr[ns(na)] =   5.22472
    eigenvalues: 
  0.395  0.414  0.552  0.590  0.661
    eigenvectors:
  0.000  0.004  0.000  0.996  0.000
  0.000  0.995  0.000  0.004  0.001
  1.000  0.000  0.000  0.000  0.000
  0.000  0.001  0.000  0.000  0.999
  0.000  0.000  1.000  0.000  0.000
    occupations:
  0.589  0.011  0.000  0.000 -0.000
  0.011  0.415 -0.000 -0.007 -0.000
  0.000 -0.000  0.395  0.000  0.001
  0.000 -0.007  0.000  0.660  0.000
 -0.000 -0.000  0.001  0.000  0.552
atom   22   Tr[ns(na)] =   5.25479
    eigenvalues: 
  0.450  0.457  0.483  0.617  0.620
    eigenvectors:
  0.000  0.874  0.000  0.105  0.021
  0.000  0.000  0.000  0.161  0.839
  0.773  0.000  0.227  0.000  0.000
  0.000  0.126  0.000  0.734  0.140
  0.227  0.000  0.773  0.000  0.000
    occupations:
  0.477  0.001  0.000  0.053 -0.000
  0.001  0.619  0.000  0.001  0.000
  0.000  0.000  0.458 -0.000 -0.014
  0.053  0.001 -0.000  0.597  0.000
 -0.000  0.000 -0.014  0.000  0.476
atom   23   Tr[ns(na)] =   5.34974
    eigenvalues: 
  0.489  0.513  0.521  0.544  0.609
    eigenvectors:
  0.000  0.000  0.000  0.001  0.999
  0.000  0.000  1.000  0.000  0.000
  1.000  0.000  0.000  0.000  0.000
  0.000  0.000  0.000  0.999  0.001
  0.000  1.000  0.000  0.000  0.000
    occupations:
  0.609 -0.000 -0.000 -0.002 -0.000
 -0.000  0.521 -0.000 -0.000  0.000
 -0.000 -0.000  0.489 -0.000  0.000
 -0.002 -0.000 -0.000  0.544 -0.000
 -0.000  0.000  0.000 -0.000  0.513
N of occupied +U levels =  41.7970609
 --- exit write_ns ---

          k = 0.0000 0.0000 0.0000 ( 32167 PWs)   bands (ev):

   -56.8836 -56.7869 -56.3941 -56.3618 -56.2947 -56.2907 -56.2743 -55.5248
   -33.7611 -33.1037 -32.9654 -32.9558 -32.8799 -32.8700 -32.8403 -32.8383
   -32.7804 -32.7328 -32.7150 -32.6665 -32.6417 -32.4953 -32.3411 -32.3289
   -32.1788 -32.1644 -32.1477 -32.1176 -32.0247 -31.9683 -31.5458 -31.5425
   -21.0515 -20.6265 -19.9610 -19.7017 -19.6978 -19.5714 -19.4911 -19.3375
   -19.2937 -19.0806 -18.8057 -18.7521 -18.6337 -18.3020 -18.2211 -18.1683
   -18.1152 -18.0353 -16.8541  -9.6386  -8.8997  -8.2298  -8.1407  -7.8170
    -7.4197  -6.9809  -6.7816  -6.7230  -6.6718  -6.6553  -6.6061  -6.3923
    -6.3453  -6.2849  -6.1585  -6.0497  -5.9512  -5.7862  -5.6448  -5.6380
    -5.6145  -5.5495  -5.5101  -5.4643  -5.2667  -5.2019  -4.9014  -4.7365
    -4.5946  -4.5700  -4.4123  -4.2186  -4.1978  -4.0872  -4.0820  -4.0716
    -3.8404  -3.8196  -3.7702  -3.7641  -3.6752  -3.6139  -3.4724  -3.4230
    -3.3861  -3.3689  -3.2334  -3.2022  -3.1840  -3.1381  -3.1093  -3.0227
    -2.9491  -2.6589  -2.6467  -2.3091  -1.2140  -0.9120  -0.7381   0.9846
     1.0822   1.1178   1.1716   1.2745   1.3142   1.4437   1.5665   1.6040
     1.8379   2.0089   2.1435   2.2274   2.3524   2.3596   2.4007   2.7266
     2.7415   2.8263   3.0955   3.1574   3.2584   3.8258   3.8853   3.8953
     4.3143   4.4432   4.5229   4.6442   4.7263   5.0227   5.0501   5.2503
     5.5014   5.6293   5.6344   5.6712   5.6979   5.7454   5.7720   5.8528
     6.0521   6.1690   6.3765   6.5125   6.5742   6.6231   6.8229   7.0308
     7.0459   7.3789   7.5294   7.5536   7.7896   7.8002   7.9889   8.0473
     8.1531   8.1838   8.3260   8.4190   8.4838   8.5019   8.7067   8.7470
     8.8136   8.8636   8.9035   8.9309   9.1288   9.2029   9.3578   9.4721
     9.4770   9.5646   9.5952   9.6671   9.7963   9.8003   9.8511   9.8860
     9.9513  10.0627  10.3130  10.3241  10.6044  10.6999  10.8249  10.9032
    10.9870  11.1416  11.1558  11.2043  11.2639  11.2706  11.2827  11.3575
    11.3676  11.4864  11.6261  11.7125  11.7226  11.7819  11.7845  11.9294
    11.9958  11.9995  12.1500  12.1624  12.2289  12.3126  12.4040  12.4509
    12.4708  12.5079  12.5998  12.7101  12.8752  12.8822  12.9484  12.9736
    13.0521  13.1909  13.2419  13.3676  13.5595  13.6504  13.6750  13.6838
    13.8356  13.9023  13.9372  14.0274  14.0583  14.0930  14.1861  14.2047
    14.2610  14.2746  14.6584  14.7571  14.8273  14.8751  15.0257  15.0800
    15.1202  15.1414  15.2747  15.2905  15.3520  15.4269  15.5415  15.5765
    15.6771  15.6884  15.8081  15.8194  15.9784  16.1507  16.1526  16.1646
    16.2899  16.4729  16.4990  16.6987  16.7060  16.7684  16.8214  16.8661
    16.9180  16.9434  17.0156  17.1332  17.1697  17.2909  17.3505  17.3868
    17.4076  17.5410  17.5703  17.5922  17.8696  17.8778  18.1077  18.1580
    18.1730  18.2328  18.2420  18.3142  18.3535  18.3729  18.4397  18.5084
    18.6369  18.7109  18.7349  18.7589  18.8516  18.9312  18.9751  19.0879
    19.1994  19.2587  19.3054  19.3990  19.4380  19.4994  19.5109  19.6110
    19.6440  19.7521  19.8652  19.9047  19.9740  20.0236  20.1047  20.1619
    20.2050  20.2590  20.2628  20.2781  20.3987

          k = 0.0000 0.2118 0.0000 ( 32193 PWs)   bands (ev):

   -56.8809 -56.7873 -56.3914 -56.3587 -56.2926 -56.2895 -56.2751 -55.5234
   -33.7600 -33.1030 -32.9628 -32.9523 -32.8946 -32.8777 -32.8396 -32.8393
   -32.7638 -32.7322 -32.7149 -32.6462 -32.6415 -32.4841 -32.3645 -32.3283
   -32.1873 -32.1656 -32.1477 -32.1172 -32.0239 -31.9692 -31.5490 -31.5420
   -21.0485 -20.6245 -19.9472 -19.6980 -19.5588 -19.5221 -19.4068 -19.3687
   -19.3368 -19.2566 -19.1613 -18.5148 -18.3829 -18.3752 -18.2457 -18.2170
   -18.1085 -18.0356 -16.8537  -9.6369  -8.8952  -8.2285  -7.7565  -7.5333
    -7.3066  -7.1298  -7.0405  -6.9869  -6.8234  -6.7289  -6.7209  -6.6107
    -6.5014  -6.3508  -6.2108  -6.0172  -5.6842  -5.6756  -5.5743  -5.5398
    -5.5141  -5.3427  -5.3101  -5.2836  -5.0865  -5.0597  -4.9365  -4.7441
    -4.7333  -4.7014  -4.5141  -4.4516  -4.3912  -4.1607  -4.1227  -3.9334
    -3.9086  -3.8450  -3.8260  -3.6696  -3.5988  -3.5938  -3.5703  -3.4928
    -3.4591  -3.4286  -3.3170  -3.2733  -3.2432  -3.1773  -3.1164  -3.0375
    -2.9870  -2.7483  -2.7244  -2.4189  -0.9143  -0.7432  -0.3060   0.5249
     0.6973   1.0374   1.0856   1.3013   1.3830   1.8006   1.8788   1.8908
     2.0267   2.1666   2.1696   2.2502   2.2835   2.3717   2.4304   2.7333
     2.7392   2.8653   3.0581   3.2348   3.2450   3.7213   3.8783   4.1064
     4.3352   4.4634   4.4700   4.6960   4.7098   4.8038   4.8620   5.0300
     5.2785   5.3466   5.3756   5.4059   5.4348   5.6807   6.0411   6.2720
     6.2919   6.4577   6.4703   6.5777   6.5785   6.6974   6.7438   6.8490
     6.8753   7.0399   7.1804   7.5378   7.6798   7.7199   7.8035   7.9472
     8.1430   8.3358   8.5281   8.6662   8.6940   8.7227   8.7359   8.9344
     8.9534   9.0645   9.0920   9.2027   9.2909   9.3516   9.3764   9.4636
     9.6146   9.7273   9.7520   9.8126   9.8175   9.9049   9.9807   9.9977
    10.0784  10.1354  10.3307  10.4003  10.4800  10.5715  10.6784  10.7608
    10.7800  10.7889  10.8664  10.9951  11.0451  11.1102  11.1146  11.2949
    11.3391  11.4394  11.5598  11.6426  11.6612  11.8653  11.9145  11.9276
    12.1384  12.2502  12.3012  12.3150  12.4704  12.5672  12.6033  12.6577
    12.6923  12.7193  12.7694  12.8251  12.8932  13.0089  13.0408  13.1960
    13.2512  13.3130  13.4437  13.4517  13.5356  13.5978  13.6330  13.7047
    13.8104  13.8641  13.9064  13.9392  14.0812  14.1126  14.1603  14.1881
    14.3233  14.3700  14.3881  14.3934  14.5311  14.7077  14.7980  14.8068
    14.9177  14.9676  15.1618  15.1767  15.2493  15.2843  15.2975  15.3401
    15.4630  15.5358  15.6833  15.7735  16.0252  16.0612  16.1303  16.1787
    16.2724  16.3099  16.4772  16.4885  16.4936  16.5776  16.6927  16.7258
    16.7461  16.8154  16.9216  17.0215  17.1144  17.2031  17.3001  17.4053
    17.5028  17.6149  17.6824  17.6980  17.7902  17.8444  17.9103  17.9553
    17.9743  18.0668  18.1262  18.2060  18.2468  18.2927  18.3356  18.3752
    18.4354  18.6563  18.6719  18.7082  18.7553  18.8555  18.8596  18.9210
    18.9513  19.0308  19.0799  19.1359  19.1736  19.2174  19.3815  19.4433
    19.5284  19.6597  19.6693  19.6943  19.8204  19.8771  19.9607  20.0349
    20.0797  20.1123  20.1701  20.1808  20.2059

          k = 0.0000-0.4237 0.0000 ( 32162 PWs)   bands (ev):

   -56.8782 -56.7877 -56.3887 -56.3556 -56.2903 -56.2885 -56.2759 -55.5221
   -33.7589 -33.1023 -32.9611 -32.9479 -32.9075 -32.8851 -32.8398 -32.8389
   -32.7452 -32.7312 -32.7149 -32.6415 -32.6280 -32.4734 -32.3901 -32.3278
   -32.1960 -32.1667 -32.1477 -32.1169 -32.0231 -31.9701 -31.5521 -31.5414
   -21.0455 -20.6225 -19.9391 -19.6966 -19.5817 -19.5424 -19.3370 -19.3291
   -19.3288 -19.1912 -18.9530 -18.8782 -18.7611 -18.2142 -18.1670 -18.1037
   -18.0413 -18.0361 -16.8533  -9.6351  -8.8905  -8.2268  -7.5037  -7.3631
    -7.2270  -7.1654  -7.0899  -7.0469  -6.8607  -6.7218  -6.6460  -6.6249
    -6.4749  -6.4530  -6.0157  -6.0006  -5.9419  -5.8706  -5.7250  -5.6867
    -5.5570  -5.4952  -5.2538  -5.1956  -5.0076  -4.9890  -4.9557  -4.7308
    -4.6430  -4.4856  -4.4608  -4.4165  -4.3783  -4.2008  -4.1126  -4.0749
    -3.9986  -3.8309  -3.7681  -3.7547  -3.7236  -3.6957  -3.6809  -3.6310
    -3.5479  -3.3725  -3.2699  -3.2442  -3.1912  -3.1804  -3.0953  -2.9304
    -2.9244  -2.8282  -2.7206  -2.6918  -0.9009  -0.4168   0.0248   0.2522
     0.3404   0.9254   1.0834   1.2797   1.7226   1.9105   1.9934   2.0982
     2.1004   2.1888   2.3053   2.3216   2.3328   2.4749   2.5105   2.7182
     2.7622   2.8893   2.9726   3.3253   3.4042   3.4702   3.5399   4.0812
     4.2201   4.4922   4.5316   4.6211   4.8595   4.8931   4.9957   5.0213
     5.1383   5.2665   5.2881   5.3521   5.5074   5.5315   5.7926   5.8318
     6.1680   6.3136   6.5768   6.6181   6.6511   6.8035   6.8841   6.8857
     6.9618   7.0019   7.1520   7.2713   7.3510   7.9018   7.9255   8.1276
     8.1376   8.1806   8.5930   8.6389   8.6436   8.7846   8.7989   8.8548
     8.9200   9.1143   9.3201   9.3700   9.4757   9.4854   9.5628   9.5642
     9.6218   9.6684   9.7517   9.7770   9.8457   9.9349   9.9799  10.3275
    10.3511  10.3648  10.4248  10.4705  10.5800  10.6929  10.8610  10.8908
    10.9597  11.0327  11.1536  11.1755  11.2320  11.3285  11.3308  11.3760
    11.3897  11.4445  11.4470  11.4974  11.6469  11.6825  11.7156  11.7248
    11.8451  11.9487  12.0836  12.1161  12.1686  12.1811  12.2675  12.2767
    12.5306  12.6597  12.7586  12.8716  12.9385  12.9441  13.0250  13.0800
    13.1387  13.2524  13.2923  13.5234  13.5344  13.6559  13.6900  13.8058
    13.8799  13.9696  13.9892  14.0481  14.0736  14.1699  14.2184  14.4453
    14.5941  14.6563  14.7591  14.7814  14.8718  14.8750  14.9035  14.9234
    14.9673  15.0424  15.1512  15.2447  15.2521  15.4181  15.4372  15.5648
    15.5859  15.6290  15.6778  15.7302  15.7692  15.8978  15.9628  16.0690
    16.1443  16.1748  16.1916  16.2190  16.2712  16.3921  16.5379  16.5886
    16.6846  16.7329  16.7467  16.7526  16.8404  16.8659  16.9093  17.1457
    17.1793  17.2165  17.3677  17.4473  17.5273  17.5399  17.5700  17.6380
    17.7272  17.7475  17.7540  17.9170  17.9769  18.1033  18.1502  18.2433
    18.3224  18.4136  18.4237  18.4703  18.5097  18.5252  18.5745  18.5855
    18.7259  18.8497  18.8540  19.1255  19.1393  19.1703  19.3106  19.4213
    19.4496  19.5526  19.5710  19.5916  19.6350  19.7018  19.7074  19.7135
    19.8505  20.2377  20.2763  20.2833  20.3086

          k = 0.2500 0.0000 0.0000 ( 32181 PWs)   bands (ev):

   -56.8680 -56.7996 -56.3744 -56.3368 -56.2954 -56.2876 -56.2740 -55.5186
   -33.6247 -33.0802 -32.9514 -32.9354 -32.9010 -32.8837 -32.8571 -32.7707
   -32.7614 -32.7480 -32.7210 -32.6808 -32.6463 -32.4307 -32.3200 -32.2991
   -32.2129 -32.1907 -32.1736 -32.1640 -32.1099 -32.0836 -31.6326 -31.5537
   -21.0053 -20.5986 -19.8674 -19.6279 -19.5636 -19.4231 -19.3315 -19.2943
   -19.2678 -18.9651 -18.8847 -18.7632 -18.7147 -18.4266 -18.4141 -18.2584
   -18.2531 -18.1248 -16.8530  -9.5204  -8.9384  -8.0417  -7.8567  -7.6349
    -7.4039  -6.9425  -6.6958  -6.6762  -6.6182  -6.6062  -6.4397  -6.3741
    -6.3462  -6.2768  -6.1987  -6.0952  -6.0066  -5.9560  -5.9047  -5.8089
    -5.7368  -5.4162  -5.2742  -5.1152  -5.0660  -4.9801  -4.9644  -4.7934
    -4.5903  -4.4644  -4.4556  -4.3407  -4.2695  -4.2549  -4.2229  -4.0785
    -3.9742  -3.9259  -3.9027  -3.8018  -3.7482  -3.6985  -3.6609  -3.6051
    -3.5480  -3.4354  -3.3425  -3.2932  -3.2320  -3.1419  -3.1064  -3.0339
    -2.9719  -2.6982  -2.6957  -2.3848  -0.7307  -0.5274  -0.2719   0.8805
     1.0961   1.1726   1.2088   1.2802   1.2900   1.4422   1.5561   1.7245
     1.7287   1.8628   1.9336   2.0358   2.0933   2.2619   2.2958   2.3505
     2.4682   2.7095   2.7302   3.1403   3.1440   3.8049   4.0108   4.0907
     4.2334   4.6809   4.7150   4.8444   4.9669   5.0859   5.2327   5.4537
     5.4771   5.4776   5.5065   5.5314   5.5965   5.6244   5.8242   5.9459
     5.9916   6.0062   6.2850   6.3564   6.5012   6.6530   6.8987   7.0372
     7.2049   7.2640   7.2881   7.3614   7.6946   7.7559   7.7576   7.8240
     7.8528   8.0160   8.0326   8.2767   8.4011   8.5118   8.5358   8.6450
     8.7129   8.9061   9.1255   9.1477   9.1634   9.2451   9.2719   9.4073
     9.4545   9.4934   9.7031   9.8307   9.8711   9.8996   9.9503  10.0416
    10.1179  10.1549  10.2364  10.4709  10.5703  10.6193  10.6224  10.8585
    10.9144  10.9596  11.0510  11.0608  11.0882  11.2316  11.3191  11.4890
    11.5552  11.5979  11.7074  11.7668  11.7709  11.8221  11.8645  11.9653
    12.2311  12.3117  12.3878  12.5032  12.5398  12.5763  12.6307  12.6467
    12.7497  12.9170  13.0965  13.1362  13.2465  13.3089  13.3367  13.4179
    13.4383  13.6498  13.6947  13.7676  13.8001  13.8498  14.0226  14.1014
    14.1332  14.1980  14.2318  14.2751  14.3021  14.3907  14.5416  14.6426
    14.7145  14.7660  14.8222  14.8956  14.9484  14.9841  15.1335  15.1529
    15.3056  15.3336  15.3633  15.4371  15.5471  15.5871  15.6513  15.7639
    15.7956  15.8594  15.8935  15.9318  16.0063  16.1645  16.2491  16.3444
    16.3938  16.4380  16.6121  16.6154  16.7286  16.7736  16.7925  16.8576
    16.9037  16.9099  16.9824  17.0900  17.1359  17.2056  17.2307  17.2834
    17.3752  17.4528  17.5078  17.5512  17.5917  17.7600  17.7827  17.8069
    17.8547  17.9069  18.0324  18.1066  18.1254  18.1864  18.2197  18.3036
    18.3837  18.4892  18.5655  18.6052  18.6905  18.7013  18.7952  18.8030
    18.8605  18.8839  18.9480  18.9706  19.0615  19.0944  19.2319  19.2831
    19.3442  19.3464  19.3849  19.4390  19.5125  19.5347  19.6912  19.7240
    19.7281  19.8027  19.8123  19.9198  19.9460

          k = 0.2500 0.2118 0.0000 ( 32165 PWs)   bands (ev):

   -56.8658 -56.7996 -56.3719 -56.3342 -56.2929 -56.2862 -56.2745 -55.5171
   -33.6237 -33.0795 -32.9490 -32.9333 -32.9008 -32.8877 -32.8571 -32.7940
   -32.7516 -32.7480 -32.7207 -32.6476 -32.6454 -32.4225 -32.3406 -32.2986
   -32.2119 -32.1950 -32.1816 -32.1624 -32.1095 -32.0838 -31.6312 -31.5578
   -21.0029 -20.5966 -19.8589 -19.6260 -19.4327 -19.3471 -19.3314 -19.3084
   -19.2816 -19.1884 -19.1027 -18.5937 -18.4976 -18.4389 -18.4187 -18.3495
   -18.2487 -18.1194 -16.8526  -9.5185  -8.9348  -8.0396  -7.6002  -7.4213
    -7.1959  -7.0398  -6.9909  -6.8513  -6.7225  -6.6811  -6.6352  -6.3918
    -6.3712  -6.3490  -6.1672  -6.0668  -6.0234  -5.9106  -5.8230  -5.5967
    -5.4841  -5.3424  -5.2626  -5.0330  -4.9509  -4.8953  -4.7722  -4.7142
    -4.6496  -4.6147  -4.4786  -4.4661  -4.4254  -4.3659  -4.3182  -4.2732
    -4.1003  -4.0517  -3.9904  -3.8990  -3.8749  -3.7574  -3.6865  -3.6253
    -3.5069  -3.4126  -3.3585  -3.2833  -3.2527  -3.1555  -3.0471  -2.9697
    -2.9377  -2.7731  -2.6874  -2.4321  -0.5751  -0.2835   0.0886   0.6561
     0.6962   1.0521   1.2434   1.3193   1.4363   1.6654   1.7090   1.7886
     1.8678   1.9385   2.0633   2.0857   2.2021   2.2739   2.3639   2.3969
     2.5977   2.6343   2.8201   2.9796   3.2793   3.6662   4.0616   4.1323
     4.3605   4.5357   4.5972   4.6307   4.8900   4.9438   4.9889   5.0945
     5.2105   5.2517   5.4034   5.5734   5.6180   5.7255   5.9537   6.0138
     6.1627   6.1936   6.4910   6.5363   6.5692   6.5946   6.7715   6.8585
     6.8854   7.0563   7.1922   7.2738   7.4327   7.4861   7.7965   7.9203
     8.0046   8.0343   8.1185   8.1858   8.2568   8.5187   8.6372   8.6936
     8.8131   8.8883   9.0103   9.0834   9.1678   9.2647   9.2770   9.4797
     9.5385   9.6009   9.7485   9.8619   9.9098  10.0081  10.0728  10.1537
    10.2608  10.3789  10.5701  10.7227  10.7631  10.9080  10.9694  11.0004
    11.1225  11.1486  11.2155  11.2842  11.4009  11.4416  11.5027  11.5472
    11.6483  11.7577  11.8968  11.9034  12.0067  12.1106  12.1422  12.1998
    12.2695  12.3603  12.3914  12.4708  12.6150  12.6687  12.6970  12.7390
    12.7644  12.8633  12.9561  12.9926  13.0428  13.0954  13.2299  13.2777
    13.3545  13.3937  13.5179  13.6212  13.7075  13.7451  13.7899  13.8557
    13.9210  13.9487  14.0058  14.1261  14.1560  14.2854  14.3819  14.4020
    14.4823  14.5887  14.6643  14.7801  14.9107  14.9248  15.0281  15.1042
    15.1960  15.2558  15.2898  15.3228  15.3868  15.4454  15.5248  15.5720
    15.6512  15.6922  15.7945  15.8667  15.9101  15.9949  16.0378  16.0812
    16.2053  16.2716  16.3623  16.3947  16.4657  16.4926  16.5720  16.6752
    16.7201  16.7721  16.8589  16.9406  17.0165  17.1058  17.1386  17.2130
    17.2837  17.3456  17.3684  17.4247  17.4702  17.5743  17.6170  17.7107
    17.7536  17.8549  17.9499  17.9726  18.0796  18.1403  18.1927  18.3846
    18.3902  18.4328  18.4686  18.5360  18.6167  18.6570  18.6967  18.7782
    18.8575  18.9232  18.9732  19.0854  19.1414  19.1737  19.2271  19.3255
    19.3598  19.3999  19.4905  19.5253  19.5953  19.6468  19.6598  19.6950
    19.7584  19.8823  19.9080  19.9961  20.0677

          k = 0.2500-0.4237 0.0000 ( 32188 PWs)   bands (ev):

   -56.8636 -56.7996 -56.3695 -56.3315 -56.2902 -56.2849 -56.2752 -55.5157
   -33.6228 -33.0789 -32.9471 -32.9310 -32.9006 -32.8914 -32.8571 -32.8113
   -32.7517 -32.7337 -32.7199 -32.6460 -32.6221 -32.4144 -32.3623 -32.2982
   -32.2109 -32.1994 -32.1896 -32.1611 -32.1092 -32.0840 -31.6298 -31.5618
   -21.0005 -20.5947 -19.8533 -19.6238 -19.4808 -19.3469 -19.3311 -19.2807
   -19.2477 -19.0300 -18.9768 -18.8397 -18.8200 -18.4205 -18.3149 -18.2440
   -18.1899 -18.1061 -16.8522  -9.5165  -8.9311  -8.0369  -7.5278  -7.2081
    -7.0586  -7.0525  -6.8823  -6.8406  -6.8251  -6.5805  -6.5579  -6.4779
    -6.4455  -6.3696  -6.3354  -6.2686  -6.0975  -6.0566  -5.6750  -5.6437
    -5.3047  -5.1449  -5.1145  -5.0522  -4.9361  -4.8432  -4.8227  -4.7792
    -4.7063  -4.6461  -4.6000  -4.5424  -4.4418  -4.4113  -4.4091  -4.2916
    -4.2023  -4.1347  -4.0263  -4.0046  -3.9641  -3.8057  -3.7493  -3.6260
    -3.5447  -3.4035  -3.3396  -3.3358  -3.1814  -3.1705  -3.0176  -2.9320
    -2.7680  -2.7656  -2.6363  -2.6010  -0.5659  -0.0014   0.3282   0.4312
     0.4685   0.9973   1.2542   1.4018   1.5479   1.7100   1.7900   1.9829
     2.0257   2.1199   2.1483   2.1803   2.1844   2.3675   2.5064   2.5422
     2.5820   2.6782   2.9106   2.9630   3.4289   3.5112   3.7672   3.9556
     4.0769   4.1837   4.5195   4.6496   4.7757   4.8916   5.0211   5.0526
     5.1656   5.3134   5.5318   5.5851   5.7186   5.7788   5.8774   5.8959
     5.9603   6.1069   6.2803   6.5058   6.5099   6.6234   6.7515   7.0591
     7.1114   7.1574   7.1627   7.2528   7.3584   7.4654   7.6492   7.7563
     7.8360   8.0225   8.2017   8.2355   8.3345   8.3725   8.4322   8.4699
     8.5219   8.8143   8.8400   8.8802   9.0439   9.2782   9.2936   9.5179
     9.7894   9.8793  10.0329  10.1191  10.1850  10.2630  10.4244  10.4464
    10.6501  10.8459  10.8720  10.9478  10.9781  11.2550  11.2694  11.2817
    11.3392  11.4135  11.4394  11.4932  11.5548  11.6028  11.6562  11.7867
    11.8331  11.8462  11.9117  11.9400  12.0003  12.0442  12.1282  12.2213
    12.2339  12.3095  12.4147  12.4247  12.5399  12.5918  12.6746  12.7585
    12.7691  12.8498  12.8922  12.9236  13.0311  13.0485  13.1757  13.2820
    13.3208  13.3590  13.4283  13.5140  13.5393  13.6517  13.6732  13.6781
    13.7332  13.7741  13.8368  13.9312  13.9678  14.0155  14.0276  14.2279
    14.2532  14.3263  14.4250  14.4818  14.5678  14.7223  14.7227  14.8347
    14.9211  15.1020  15.1121  15.1723  15.1812  15.2584  15.3214  15.3993
    15.4457  15.5292  15.6642  15.7142  15.7514  15.8793  16.0278  16.0567
    16.1643  16.2856  16.2898  16.4299  16.4441  16.5184  16.6838  16.6961
    16.7777  16.8239  16.8613  16.8987  17.0149  17.0325  17.1379  17.2041
    17.2234  17.2788  17.4212  17.4310  17.5713  17.5743  17.6193  17.6850
    17.7337  17.8360  17.8957  17.9539  17.9645  18.0978  18.1001  18.1853
    18.3701  18.4033  18.4594  18.4801  18.5123  18.5703  18.6913  18.7395
    18.7444  18.8210  18.8795  18.8857  18.9790  19.0805  19.1248  19.2327
    19.2884  19.3046  19.3316  19.4118  19.4618  19.4857  19.5544  19.6545
    19.6774  19.7524  19.7791  19.8798  19.8991

          k =-0.5000 0.0000 0.0000 ( 32166 PWs)   bands (ev):

   -56.8353 -56.8293 -56.3522 -56.2994 -56.2935 -56.2927 -56.2828 -55.5123
   -33.2912 -33.2759 -32.9767 -32.9563 -32.9267 -32.9207 -32.9140 -32.7193
   -32.7180 -32.7109 -32.6534 -32.5223 -32.4944 -32.4669 -32.4419 -32.3545
   -32.2818 -32.2341 -32.2309 -32.2018 -32.1682 -32.0900 -31.7456 -31.5617
   -20.9593 -20.5702 -19.7325 -19.6719 -19.4034 -19.2147 -19.1964 -19.0777
   -19.0580 -18.9101 -18.8967 -18.7825 -18.7594 -18.6908 -18.6855 -18.5359
   -18.4359 -18.1426 -16.8519  -9.3979  -8.9772  -7.7157  -7.6753  -7.1903
    -7.1150  -7.0902  -6.9596  -6.9287  -6.6654  -6.5913  -6.4706  -6.4659
    -6.3651  -6.3565  -6.2659  -5.7527  -5.6796  -5.6744  -5.6137  -5.5560
    -5.4303  -5.3245  -5.2913  -5.1846  -5.1195  -5.1018  -5.0725  -4.9617
    -4.8468  -4.8132  -4.5089  -4.5045  -4.4709  -4.4188  -4.4077  -4.2423
    -4.1753  -4.0918  -3.9555  -3.8548  -3.8422  -3.7425  -3.6883  -3.6666
    -3.6605  -3.3950  -3.2913  -3.2546  -3.1907  -3.1518  -3.0649  -2.9796
    -2.8406  -2.7365  -2.7351  -2.4978  -0.0748   0.4106   0.4974   0.5497
     0.7808   0.8012   0.9094   1.0019   1.2549   1.2665   1.2811   1.6133
     1.6577   1.6635   1.7723   1.8982   1.9404   1.9624   2.1221   2.5535
     2.6887   2.7647   2.9891   2.9963   3.1479   3.2418   3.6849   4.6419
     4.6529   4.8183   4.8372   5.1183   5.2155   5.3262   5.3536   5.3848
     5.3909   5.4093   5.4349   5.4592   5.4619   5.6149   5.6352   5.7501
     5.7890   6.2022   6.2873   6.3837   6.4264   6.5043   6.6682   6.6942
     6.7800   7.0153   7.3002   7.3216   7.3822   7.5000   7.9784   7.9873
     8.0454   8.0528   8.1312   8.2842   8.4883   8.6009   8.6598   8.6624
     8.6970   8.7507   8.8388   8.9281   8.9696   9.1011   9.1406   9.2247
     9.4207   9.5468   9.6549   9.7078   9.8100   9.8530   9.9459  10.0442
    10.0951  10.1295  10.2999  10.3888  10.4414  10.5392  10.5998  10.7190
    10.8809  11.0231  11.1002  11.2045  11.2593  11.3803  11.3860  11.4025
    11.5487  11.7378  11.9000  12.1715  12.2175  12.3786  12.3897  12.4762
    12.5412  12.6867  12.7067  12.7308  12.7391  12.7639  13.0850  13.0882
    13.1219  13.1785  13.2139  13.2829  13.4409  13.6866  13.7172  13.7329
    13.7897  13.9215  13.9452  14.0394  14.1174  14.1981  14.2670  14.3293
    14.3444  14.4691  14.4902  14.5021  14.5409  14.6581  14.6974  14.7925
    14.8501  14.8532  14.9449  14.9843  15.1488  15.3278  15.3875  15.4845
    15.5901  15.6047  15.6475  15.7724  15.7890  15.8238  15.8954  15.9156
    16.0605  16.0645  16.1291  16.1469  16.1611  16.2309  16.3223  16.3811
    16.4217  16.5403  16.6382  16.7758  16.7940  16.8244  16.8878  16.9042
    16.9645  17.0269  17.0776  17.0928  17.1377  17.1699  17.1895  17.2389
    17.2929  17.3212  17.3554  17.3786  17.5399  17.5576  17.5846  17.6398
    17.6751  17.7414  17.7593  17.8104  17.8521  17.8822  17.9316  17.9560
    17.9642  17.9686  18.0305  18.1681  18.2017  18.2302  18.2391  18.3515
    18.4092  18.4291  18.4563  18.6453  18.6795  18.7195  18.7315  18.8505
    18.9398  18.9582  18.9830  18.9950  19.0682  19.1326  19.1610  19.1982
    19.2143  19.4025  19.4296  19.4609  19.4828

          k =-0.5000 0.2118 0.0000 ( 32144 PWs)   bands (ev):

   -56.8341 -56.8284 -56.3499 -56.2967 -56.2924 -56.2918 -56.2813 -55.5108
   -33.2909 -33.2749 -32.9758 -32.9562 -32.9306 -32.9174 -32.9115 -32.7195
   -32.7178 -32.7097 -32.6531 -32.5155 -32.4905 -32.4584 -32.4422 -32.3492
   -32.2931 -32.2459 -32.2298 -32.2015 -32.1756 -32.0898 -31.7427 -31.5667
   -20.9574 -20.5682 -19.7295 -19.6685 -19.3953 -19.2213 -19.2015 -19.0779
   -19.0440 -18.9110 -18.8975 -18.7850 -18.7652 -18.6700 -18.6667 -18.5123
   -18.4716 -18.1362 -16.8515  -9.3955  -8.9741  -7.7028  -7.6612  -7.1072
    -7.0834  -7.0586  -6.9873  -6.9294  -6.6674  -6.6514  -6.4046  -6.3630
    -6.2211  -6.1924  -6.1599  -5.7535  -5.6698  -5.6469  -5.5838  -5.5753
    -5.4577  -5.4234  -5.3708  -5.3481  -5.3309  -5.2481  -5.1320  -4.9784
    -4.9392  -4.7242  -4.6163  -4.5129  -4.4270  -4.3978  -4.3575  -4.2618
    -4.2228  -4.1383  -4.0867  -4.0151  -3.8604  -3.8305  -3.7868  -3.6100
    -3.5008  -3.4512  -3.3620  -3.2853  -3.2134  -3.1518  -3.0018  -2.9122
    -2.9037  -2.7326  -2.6047  -2.5165  -0.0245   0.5811   0.6274   0.6980
     0.7780   0.9161   0.9706   1.0698   1.1221   1.2932   1.4181   1.6290
     1.7103   1.7904   1.8337   1.8788   2.0701   2.1048   2.2735   2.4237
     2.6999   2.7110   2.7935   3.2335   3.2548   3.3542   3.5903   4.5548
     4.5662   4.6212   4.6492   4.7186   4.7425   5.0488   5.0716   5.2989
     5.3069   5.4467   5.4483   5.5653   5.6094   5.8772   5.8877   5.9812
     5.9964   6.0639   6.0787   6.3730   6.5153   6.5910   6.6066   6.7298
     6.7768   6.9261   7.2858   7.3768   7.3894   7.5158   7.5428   7.5842
     7.6916   7.7823   7.8437   7.8569   8.0873   8.2071   8.5361   8.6793
     8.7988   8.8640   8.9370   8.9630   9.0521   9.0903   9.5618   9.6335
     9.6613   9.8016   9.8829  10.0115  10.1337  10.1886  10.2304  10.2442
    10.3345  10.3985  10.4960  10.5965  10.6393  10.7558  10.8857  10.9044
    11.1537  11.2976  11.3323  11.4741  11.4748  11.5223  11.5871  11.7496
    11.8270  11.8606  12.0851  12.1622  12.2609  12.3879  12.5083  12.5706
    12.6138  12.7649  12.7958  12.8238  12.8716  12.9659  13.1459  13.2278
    13.2771  13.3137  13.3557  13.4167  13.4778  13.5344  13.6036  13.6932
    13.7505  13.7909  13.8664  13.9070  13.9343  13.9706  14.1256  14.1606
    14.1699  14.3087  14.3136  14.4109  14.4425  14.5406  14.5617  14.6448
    14.7245  14.7371  14.8317  14.8693  14.9157  14.9980  15.0370  15.0605
    15.0813  15.1089  15.2549  15.2766  15.3167  15.4303  15.5082  15.5598
    15.6177  15.6460  15.7954  15.8170  15.8542  15.9322  15.9506  15.9566
    16.0209  16.0957  16.1252  16.2483  16.2748  16.3334  16.3613  16.4122
    16.4644  16.6390  16.6958  16.8078  16.8617  16.8633  16.9405  16.9835
    17.1168  17.1334  17.1633  17.3493  17.3655  17.3691  17.5230  17.5453
    17.5945  17.6438  17.7113  17.7404  17.7933  17.8263  17.9253  18.0126
    18.0364  18.1203  18.1677  18.3194  18.4212  18.4726  18.4892  18.6668
    18.6960  18.8344  18.8520  18.8762  18.9220  19.0117  19.0331  19.1665
    19.1775  19.2330  19.2457  19.3818  19.4024  19.4391  19.5381  19.6443
    19.7113  19.7699  19.8338  19.8940  19.9447

          k =-0.5000-0.4237 0.0000 ( 32256 PWs)   bands (ev):

   -56.8331 -56.8273 -56.3475 -56.2929 -56.2927 -56.2907 -56.2799 -55.5092
   -33.2906 -33.2739 -32.9750 -32.9561 -32.9325 -32.9178 -32.9074 -32.7202
   -32.7171 -32.7084 -32.6529 -32.5119 -32.4826 -32.4538 -32.4373 -32.3439
   -32.3059 -32.2579 -32.2294 -32.2012 -32.1829 -32.0897 -31.7399 -31.5718
   -20.9556 -20.5663 -19.7267 -19.6651 -19.3877 -19.2279 -19.2067 -19.0959
   -19.0055 -18.9111 -18.8980 -18.7857 -18.7687 -18.6517 -18.6493 -18.5131
   -18.4903 -18.1295 -16.8510  -9.3932  -8.9711  -7.6911  -7.6478  -7.0521
    -7.0392  -7.0092  -6.9637  -6.8534  -6.6743  -6.6052  -6.4337  -6.3679
    -6.0964  -6.0787  -6.0574  -5.7607  -5.7429  -5.6999  -5.5729  -5.5643
    -5.5273  -5.5047  -5.4858  -5.4228  -5.4011  -5.3786  -5.0094  -4.8699
    -4.8420  -4.6563  -4.5893  -4.5807  -4.5245  -4.5115  -4.4792  -4.3449
    -4.2876  -4.2246  -4.2135  -4.1792  -4.0508  -3.8410  -3.7739  -3.6435
    -3.4215  -3.4210  -3.3801  -3.3264  -3.1985  -3.1848  -2.8764  -2.8526
    -2.7835  -2.7679  -2.5532  -2.5431  -0.0050   0.4878   0.6625   0.8504
     0.8712   0.8988   0.9337   0.9385   1.4068   1.4961   1.6087   1.8209
     1.8378   1.8472   1.9417   1.9654   2.2432   2.2807   2.3039   2.4767
     2.5818   2.6400   2.7723   3.3914   3.3965   3.4827   3.5071   4.0201
     4.0731   4.0853   4.2190   4.5104   4.5272   5.0743   5.1446   5.3123
     5.3567   5.6258   5.6263   5.7130   5.7647   5.8913   5.9032   5.9310
     6.0890   6.3488   6.4290   6.4362   6.4750   6.4839   6.5188   6.5849
     6.6242   6.8254   6.8842   6.9613   7.0841   7.2372   7.2405   7.3511
     7.7484   8.0354   8.0365   8.0870   8.1554   8.2262   8.2960   8.3163
     8.7562   8.8482   9.0457   9.1327   9.1598   9.2586   9.3049   9.3761
     9.4249   9.5212   9.6743   9.7181  10.5020  10.6652  10.7270  10.7891
    10.8134  10.8431  10.8856  10.8972  11.0101  11.1969  11.5868  11.6041
    11.6139  11.7411  11.8188  11.8299  11.8987  11.9925  12.0321  12.0499
    12.1332  12.2127  12.2976  12.4453  12.4646  12.5348  12.5745  12.5965
    12.6045  12.6646  12.6813  12.8115  12.8289  12.9126  13.0131  13.0299
    13.0467  13.1183  13.1669  13.1960  13.3581  13.3996  13.4032  13.4297
    13.4844  13.5074  13.5374  13.5751  13.8277  13.8942  13.9253  13.9291
    14.0468  14.0488  14.0719  14.0748  14.2436  14.2784  14.2959  14.3142
    14.3624  14.6138  14.6376  14.6724  14.6767  14.7054  14.7533  14.7672
    14.7736  14.8629  14.9658  15.0629  15.0953  15.1147  15.2277  15.2545
    15.4403  15.4438  15.4596  15.4963  15.5736  15.6397  15.7193  15.7756
    15.8376  15.8823  15.8860  15.9218  16.0154  16.0482  16.0913  16.0989
    16.3328  16.3639  16.6238  16.6616  16.7457  16.7700  16.8253  16.9257
    17.0205  17.0593  17.1916  17.2897  17.3171  17.4030  17.5157  17.5461
    17.5481  17.5670  17.6273  17.6591  17.7302  17.7812  17.8098  18.0092
    18.0635  18.2282  18.3220  18.3542  18.4076  18.5586  18.6329  18.6420
    18.6495  18.9319  18.9638  18.9901  18.9910  19.1226  19.2300  19.5281
    19.5390  19.5460  19.5661  19.6039  19.6240  19.6648  19.7265  19.8968
    19.9133  19.9368  20.2231  20.2441  20.3270

          k =-0.2500 0.2118 0.0000 ( 32165 PWs)   bands (ev):

   -56.8658 -56.7996 -56.3719 -56.3342 -56.2929 -56.2862 -56.2745 -55.5171
   -33.6237 -33.0795 -32.9490 -32.9333 -32.9008 -32.8877 -32.8571 -32.7940
   -32.7516 -32.7480 -32.7207 -32.6476 -32.6454 -32.4225 -32.3406 -32.2986
   -32.2119 -32.1950 -32.1816 -32.1624 -32.1095 -32.0838 -31.6312 -31.5578
   -21.0029 -20.5966 -19.8589 -19.6260 -19.4327 -19.3471 -19.3314 -19.3084
   -19.2816 -19.1884 -19.1027 -18.5937 -18.4976 -18.4389 -18.4187 -18.3496
   -18.2487 -18.1194 -16.8526  -9.5185  -8.9348  -8.0396  -7.6002  -7.4213
    -7.1959  -7.0398  -6.9909  -6.8512  -6.7226  -6.6812  -6.6352  -6.3917
    -6.3711  -6.3491  -6.1670  -6.0668  -6.0235  -5.9105  -5.8229  -5.5965
    -5.4839  -5.3422  -5.2626  -5.0337  -4.9506  -4.8961  -4.7723  -4.7132
    -4.6496  -4.6148  -4.4787  -4.4659  -4.4259  -4.3659  -4.3179  -4.2737
    -4.1003  -4.0520  -3.9900  -3.8987  -3.8750  -3.7571  -3.6866  -3.6255
    -3.5068  -3.4129  -3.3584  -3.2828  -3.2533  -3.1558  -3.0470  -2.9691
    -2.9375  -2.7733  -2.6876  -2.4323  -0.5750  -0.2835   0.0886   0.6563
     0.6964   1.0521   1.2434   1.3192   1.4361   1.6653   1.7088   1.7885
     1.8678   1.9387   2.0633   2.0856   2.2019   2.2740   2.3639   2.3973
     2.5978   2.6342   2.8201   2.9794   3.2793   3.6662   4.0617   4.1324
     4.3605   4.5357   4.5972   4.6307   4.8901   4.9438   4.9888   5.0945
     5.2105   5.2517   5.4032   5.5734   5.6179   5.7255   5.9536   6.0140
     6.1628   6.1933   6.4908   6.5364   6.5693   6.5946   6.7714   6.8584
     6.8854   7.0563   7.1923   7.2739   7.4324   7.4862   7.7967   7.9204
     8.0045   8.0342   8.1192   8.1861   8.2569   8.5185   8.6364   8.6940
     8.8131   8.8880   9.0107   9.0839   9.1675   9.2655   9.2765   9.4786
     9.5394   9.6000   9.7485   9.8614   9.9104  10.0070  10.0731  10.1540
    10.2614  10.3786  10.5698  10.7227  10.7628  10.9083  10.9692  11.0003
    11.1223  11.1489  11.2154  11.2844  11.4011  11.4410  11.5029  11.5475
    11.6485  11.7580  11.8977  11.9028  12.0067  12.1106  12.1424  12.1997
    12.2699  12.3604  12.3918  12.4712  12.6142  12.6697  12.6971  12.7391
    12.7646  12.8634  12.9563  12.9926  13.0414  13.0953  13.2298  13.2787
    13.3538  13.3936  13.5174  13.6213  13.7071  13.7456  13.7903  13.8556
    13.9209  13.9499  14.0051  14.1255  14.1562  14.2856  14.3816  14.4018
    14.4834  14.5878  14.6647  14.7800  14.9103  14.9253  15.0279  15.1041
    15.1960  15.2558  15.2913  15.3212  15.3870  15.4448  15.5251  15.5711
    15.6516  15.6926  15.7937  15.8670  15.9100  15.9947  16.0374  16.0815
    16.2052  16.2708  16.3624  16.3927  16.4649  16.4939  16.5721  16.6751
    16.7202  16.7722  16.8598  16.9380  17.0166  17.1048  17.1395  17.2146
    17.2839  17.3452  17.3683  17.4243  17.4699  17.5766  17.6191  17.7099
    17.7528  17.8540  17.9499  17.9729  18.0792  18.1404  18.1928  18.3843
    18.3891  18.4323  18.4714  18.5375  18.6156  18.6574  18.6973  18.7773
    18.8568  18.9239  18.9731  19.0857  19.1433  19.1735  19.2265  19.3257
    19.3597  19.4002  19.4902  19.5262  19.5940  19.6475  19.6592  19.6953
    19.7587  19.8815  19.9088  19.9960  20.0676

     the Fermi energy is     0.5021 ev

!    total energy              =   -1559.69500769 Ry
     Harris-Foulkes estimate   =   -1559.69500791 Ry
     estimated scf accuracy    <       0.00000031 Ry

     The total energy is the sum of the following terms:

     one-electron contribution =  -18846.24270734 Ry
     hartree contribution      =    9448.82159938 Ry
     xc contribution           =    -286.86067384 Ry
     ewald contribution        =    8121.76342360 Ry
     Hubbard energy            =       2.82323997 Ry
     smearing contrib. (-TS)   =       0.00011054 Ry

     convergence has been achieved in  27 iterations

     Forces acting on atoms (Ry/au):


     negative rho (up, down):  0.350E-02 0.000E+00
     atom    1 type  1   force =     0.00374213   -0.00005451   -0.00215417
     atom    2 type  1   force =    -0.00036782    0.00030102   -0.01079068
     atom    3 type  2   force =    -0.04821779   -0.00018999    0.00682169
     atom    4 type  2   force =    -0.00406868    0.00003641    0.00489525
     atom    5 type  1   force =    -0.00597440   -0.00709773   -0.00111533
     atom    6 type  1   force =    -0.00600530    0.00709944   -0.00111567
     atom    7 type  1   force =    -0.00020157    0.00002384    0.00272753
     atom    8 type  1   force =     0.00188036    0.00001041    0.00299447
     atom    9 type  2   force =    -0.00083834   -0.00000083   -0.00248189
     atom   10 type  2   force =    -0.00046566   -0.00000540    0.00387066
     atom   11 type  1   force =    -0.01353717   -0.00886483    0.00311707
     atom   12 type  1   force =    -0.01354968    0.00887032    0.00307248
     atom   13 type  1   force =     0.00055859   -0.00000820   -0.00324258
     atom   14 type  1   force =     0.00222937   -0.00006130   -0.00098915
     atom   15 type  1   force =    -0.00006287    0.00011656   -0.00545292
     atom   16 type  2   force =     0.04863720   -0.00018664    0.00618375
     atom   17 type  2   force =    -0.00438120    0.00004524   -0.00205595
     atom   18 type  1   force =     0.00699850   -0.00704079   -0.00106132
     atom   19 type  1   force =     0.00691759    0.00704167   -0.00106043
     atom   20 type  1   force =     0.00009632    0.00006432   -0.00387217
     atom   21 type  1   force =     0.00157643    0.00000721    0.00718542
     atom   22 type  2   force =     0.00065424    0.00000415   -0.00219920
     atom   23 type  2   force =     0.00107608   -0.00000074   -0.00680455
     atom   24 type  1   force =     0.01338281   -0.00863523    0.00268180
     atom   25 type  1   force =     0.01337520    0.00863269    0.00268069
     atom   26 type  1   force =    -0.00006912   -0.00000557   -0.00363796
     atom   27 type  3   force =     0.00000850   -0.00008824    0.00170263
     atom   28 type  3   force =     0.00003916   -0.00003228    0.00261234
     atom   29 type  3   force =    -0.00159997    0.00000545    0.00135237
     atom   30 type  3   force =    -0.00181250    0.00000674    0.00123792
     atom   31 type  1   force =    -0.00002040    0.00000682   -0.00510210

     Total force =     0.022958     Total SCF correction =     0.001627

     BFGS Geometry Optimization

     number of scf cycles    =   1
     number of bfgs steps    =   0

     energy   new            =   -1559.6950076873 Ry

     new trust radius        =       0.0107906768 bohr
     new conv_thr            =       0.0000010000 Ry


ATOMIC_POSITIONS (crystal)
O0       0.000000000   0.000000000   0.371447759    0   0   1
O0       0.000000000   0.500000000   0.388508404    0   0   1
Nb1      0.250000000   0.500000000   0.444713768    0   0   1
Nb1      0.000000000   0.000000000   0.443985992    0   0   1
O0       0.250000000   0.790000000   0.446168129    0   0   1
O0       0.250000000   0.210000000   0.446168123    0   0   1
O0       0.000000000   0.500000000   0.500713485    0   0   1
O0       0.000000000   0.000000000   0.522988719    0   0   1
Nb1      0.250000000   0.000000000   0.576981332    0   0   1
Nb1      0.000000000   0.500000000   0.570135900    0   0   1
O0       0.250000000   0.710000000   0.576391123    0   0   1
O0       0.250000000   0.290000000   0.576400249    0   0   1
O0       0.000000000   0.000000000   0.621246416    0   0   1
O0       0.500000000   0.000000000   0.372020604    0   0   1
O0       0.500000000   0.500000000   0.390703073    0   0   1
Nb1      0.750000000   0.500000000   0.444771258    0   0   1
Nb1      0.500000000   0.000000000   0.444869685    0   0   1
O0       0.750000000   0.790000000   0.446169188    0   0   1
O0       0.750000000   0.210000000   0.446169206    0   0   1
O0       0.500000000   0.500000000   0.495104070    0   0   1
O0       0.500000000   0.000000000   0.522740900    0   0   1
Nb1      0.750000000   0.000000000   0.577116875    0   0   1
Nb1      0.500000000   0.500000000   0.588466568    0   0   1
O0       0.750000000   0.710000000   0.576252588    0   0   1
O0       0.750000000   0.290000000   0.576252566    0   0   1
O0       0.500000000   0.000000000   0.621188663    0   0   1
H2      -0.000489240   0.501533316   0.352463387
H2       0.499493501   0.501447555   0.354631226
H2       0.150316982   0.000370412   0.355566519
H2       0.649477984   0.000370511   0.355834275
O0       0.500028176   0.500000517   0.652119952


     Check: negative starting charge=   -0.003810
     NEW-OLD atomic charge density approx. for the potential

     Check: negative/imaginary core charge=   -0.000003    0.000000
     Check: negative starting charge=   -0.003809

     negative rho (up, down):  0.350E-02 0.000E+00
 Atomic wfc used for LDA+U Projector are NOT orthogonalized

     total cpu time spent up to now is     5720.5 secs

     per-process dynamical memory:   420.6 Mb

     Self-consistent Calculation

     iteration #  1     ecut=    40.00 Ry     beta=0.70
     Davidson diagonalization with overlap
     ethr =  1.00E-06,  avg # of iterations =  3.0
 --- enter write_ns ---
 LDA+U parameters:
U( 2)     =  4.00000000
alpha( 2) =  0.00000000
atom    3   Tr[ns(na)] =   5.21193
    eigenvalues: 
  0.366  0.415  0.539  0.592  0.693
    eigenvectors:
  0.000  0.000  0.036  0.379  0.584
  0.000  0.000  0.936  0.062  0.002
  0.293  0.707  0.000  0.000  0.000
  0.000  0.000  0.027  0.559  0.414
  0.707  0.293  0.000  0.000  0.000
    occupations:
  0.649 -0.013  0.000 -0.051 -0.000
 -0.013  0.543 -0.000 -0.006  0.000
  0.000 -0.000  0.401 -0.000 -0.022
 -0.051 -0.006 -0.000  0.632  0.000
 -0.000  0.000 -0.022  0.000  0.381
atom    4   Tr[ns(na)] =   5.21735
    eigenvalues: 
  0.392  0.415  0.556  0.588  0.658
    eigenvectors:
  0.000  0.004  0.000  0.995  0.001
  0.000  0.995  0.000  0.004  0.001
  1.000  0.000  0.000  0.000  0.000
  0.000  0.001  0.000  0.001  0.998
  0.000  0.000  1.000  0.000  0.000
    occupations:
  0.587  0.011  0.000  0.002 -0.000
  0.011  0.416 -0.000 -0.007  0.000
  0.000 -0.000  0.392  0.000  0.001
  0.002 -0.007  0.000  0.658  0.000
 -0.000  0.000  0.001  0.000  0.556
atom    9   Tr[ns(na)] =   5.25597
    eigenvalues: 
  0.450  0.457  0.484  0.617  0.620
    eigenvectors:
  0.000  0.873  0.000  0.110  0.017
  0.000  0.000  0.000  0.129  0.871
  0.775  0.000  0.225  0.000  0.000
  0.000  0.127  0.000  0.761  0.112
  0.225  0.000  0.775  0.000  0.000
    occupations:
  0.477 -0.001 -0.000  0.054 -0.000
 -0.001  0.620 -0.000 -0.001 -0.000
 -0.000 -0.000  0.458  0.000  0.014
  0.054 -0.001  0.000  0.597 -0.000
 -0.000 -0.000  0.014 -0.000  0.476
atom   10   Tr[ns(na)] =   5.05730
    eigenvalues: 
  0.344  0.439  0.512  0.550  0.683
    eigenvectors:
  0.000  0.000  0.981  0.000  0.019
  0.000  1.000  0.000  0.000  0.000
  1.000  0.000  0.000  0.000  0.000
  0.000  0.000  0.019  0.000  0.981
  0.000  0.000  0.000  1.000  0.000
    occupations:
  0.515  0.000  0.000  0.024 -0.000
  0.000  0.439  0.000  0.003  0.000
  0.000  0.000  0.344 -0.000 -0.000
  0.024  0.003 -0.000  0.680  0.000
 -0.000  0.000 -0.000  0.000  0.550
atom   16   Tr[ns(na)] =   5.21293
    eigenvalues: 
  0.369  0.414  0.539  0.592  0.692
    eigenvectors:
  0.000  0.000  0.037  0.380  0.584
  0.000  0.000  0.936  0.063  0.002
  0.260  0.740  0.000  0.000  0.000
  0.000  0.000  0.028  0.558  0.415
  0.740  0.260  0.000  0.000  0.000
    occupations:
  0.649  0.013  0.000 -0.051  0.000
  0.013  0.543  0.000  0.006  0.000
  0.000  0.000  0.402 -0.000  0.020
 -0.051  0.006 -0.000  0.632 -0.000
  0.000  0.000  0.020 -0.000  0.381
atom   17   Tr[ns(na)] =   5.22274
    eigenvalues: 
  0.394  0.414  0.552  0.589  0.661
    eigenvectors:
  0.000  0.004  0.000  0.996  0.000
  0.000  0.995  0.000  0.004  0.001
  1.000  0.000  0.000  0.000  0.000
  0.000  0.001  0.000  0.000  0.999
  0.000  0.000  1.000  0.000  0.000
    occupations:
  0.589  0.011  0.000  0.000 -0.000
  0.011  0.415 -0.000 -0.007 -0.000
  0.000 -0.000  0.394  0.000  0.001
  0.000 -0.007  0.000  0.661  0.000
 -0.000 -0.000  0.001  0.000  0.552
atom   22   Tr[ns(na)] =   5.25697
    eigenvalues: 
  0.451  0.457  0.483  0.617  0.620
    eigenvectors:
  0.000  0.874  0.000  0.110  0.015
  0.000  0.000  0.000  0.119  0.881
  0.779  0.000  0.221  0.000  0.000
  0.000  0.126  0.000  0.771  0.103
  0.221  0.000  0.779  0.000  0.000
    occupations:
  0.478  0.001  0.000  0.053 -0.000
  0.001  0.620  0.000  0.001  0.000
  0.000  0.000  0.458 -0.000 -0.014
  0.053  0.001 -0.000  0.598  0.000
 -0.000  0.000 -0.014  0.000  0.476
atom   23   Tr[ns(na)] =   5.35098
    eigenvalues: 
  0.488  0.514  0.521  0.544  0.609
    eigenvectors:
  0.000  0.000  0.000  0.001  0.999
  0.000  0.000  1.000  0.000  0.000
  1.000  0.000  0.000  0.000  0.000
  0.000  0.000  0.000  0.999  0.001
  0.000  1.000  0.000  0.000  0.000
    occupations:
  0.609 -0.000 -0.000 -0.002 -0.000
 -0.000  0.521 -0.000 -0.000  0.000
 -0.000 -0.000  0.488 -0.000  0.000
 -0.002 -0.000 -0.000  0.544 -0.000
 -0.000  0.000  0.000 -0.000  0.514
N of occupied +U levels =  41.7861764
 --- exit write_ns ---

     negative rho (up, down):  0.350E-02 0.000E+00

     total cpu time spent up to now is     5963.8 secs

     total energy              =   -1559.69508266 Ry
     Harris-Foulkes estimate   =   -1559.69534037 Ry
     estimated scf accuracy    <       0.00033820 Ry

     iteration #  2     ecut=    40.00 Ry     beta=0.70
     Davidson diagonalization with overlap
     ethr =  1.52E-07,  avg # of iterations =  4.6

     negative rho (up, down):  0.350E-02 0.000E+00

     total cpu time spent up to now is     6174.9 secs

     total energy              =   -1559.69457903 Ry
     Harris-Foulkes estimate   =   -1559.69579050 Ry
     estimated scf accuracy    <       0.00676318 Ry

     iteration #  3     ecut=    40.00 Ry     beta=0.70
     Davidson diagonalization with overlap
     ethr =  1.52E-07,  avg # of iterations =  4.2

     negative rho (up, down):  0.351E-02 0.000E+00

     total cpu time spent up to now is     6379.9 secs

     total energy              =   -1559.69495653 Ry
     Harris-Foulkes estimate   =   -1559.69558472 Ry
     estimated scf accuracy    <       0.00568236 Ry

     iteration #  4     ecut=    40.00 Ry     beta=0.70
     Davidson diagonalization with overlap
     ethr =  1.52E-07,  avg # of iterations =  2.7

     negative rho (up, down):  0.350E-02 0.000E+00

     total cpu time spent up to now is     6573.0 secs

     total energy              =   -1559.69525929 Ry
     Harris-Foulkes estimate   =   -1559.69528986 Ry
     estimated scf accuracy    <       0.00009513 Ry

     iteration #  5     ecut=    40.00 Ry     beta=0.70
     Davidson diagonalization with overlap
     ethr =  4.29E-08,  avg # of iterations =  1.4

     negative rho (up, down):  0.350E-02 0.000E+00

     total cpu time spent up to now is     6755.7 secs

     total energy              =   -1559.69527325 Ry
     Harris-Foulkes estimate   =   -1559.69528330 Ry
     estimated scf accuracy    <       0.00003833 Ry

     iteration #  6     ecut=    40.00 Ry     beta=0.70
     Davidson diagonalization with overlap
     ethr =  1.73E-08,  avg # of iterations =  1.1

     negative rho (up, down):  0.350E-02 0.000E+00

     total cpu time spent up to now is     6936.0 secs

     total energy              =   -1559.69527745 Ry
     Harris-Foulkes estimate   =   -1559.69528021 Ry
     estimated scf accuracy    <       0.00001067 Ry

     iteration #  7     ecut=    40.00 Ry     beta=0.70
     Davidson diagonalization with overlap
     ethr =  4.81E-09,  avg # of iterations =  1.1

     negative rho (up, down):  0.350E-02 0.000E+00

     total cpu time spent up to now is     7117.7 secs

     total energy              =   -1559.69527882 Ry
     Harris-Foulkes estimate   =   -1559.69527948 Ry
     estimated scf accuracy    <       0.00000304 Ry

     iteration #  8     ecut=    40.00 Ry     beta=0.70
     Davidson diagonalization with overlap
     ethr =  1.37E-09,  avg # of iterations =  1.1

     negative rho (up, down):  0.350E-02 0.000E+00

     total cpu time spent up to now is     7289.7 secs

     total energy              =   -1559.69527928 Ry
     Harris-Foulkes estimate   =   -1559.69527949 Ry
     estimated scf accuracy    <       0.00000135 Ry

     iteration #  9     ecut=    40.00 Ry     beta=0.70
     Davidson diagonalization with overlap
     ethr =  6.09E-10,  avg # of iterations =  2.0

     negative rho (up, down):  0.350E-02 0.000E+00

     total cpu time spent up to now is     7464.0 secs

     End of self-consistent calculation
 --- enter write_ns ---
 LDA+U parameters:
U( 2)     =  4.00000000
alpha( 2) =  0.00000000
atom    3   Tr[ns(na)] =   5.21392
    eigenvalues: 
  0.366  0.416  0.539  0.592  0.693
    eigenvectors:
  0.000  0.000  0.037  0.378  0.586
  0.000  0.000  0.936  0.062  0.002
  0.294  0.706  0.000  0.000  0.000
  0.000  0.000  0.027  0.560  0.413
  0.706  0.294  0.000  0.000  0.000
    occupations:
  0.650 -0.013  0.000 -0.051 -0.000
 -0.013  0.543 -0.000 -0.006  0.000
  0.000 -0.000  0.401 -0.000 -0.022
 -0.051 -0.006 -0.000  0.633  0.000
 -0.000  0.000 -0.022  0.000  0.381
atom    4   Tr[ns(na)] =   5.21948
    eigenvalues: 
  0.392  0.415  0.556  0.588  0.658
    eigenvectors:
  0.000  0.004  0.000  0.995  0.001
  0.000  0.995  0.000  0.005  0.001
  1.000  0.000  0.000  0.000  0.000
  0.000  0.001  0.000  0.001  0.998
  0.000  0.000  1.000  0.000  0.000
    occupations:
  0.587  0.011  0.000  0.002 -0.000
  0.011  0.416 -0.000 -0.007  0.000
  0.000 -0.000  0.392  0.000  0.001
  0.002 -0.007  0.000  0.658  0.000
 -0.000  0.000  0.001  0.000  0.556
atom    9   Tr[ns(na)] =   5.25572
    eigenvalues: 
  0.450  0.457  0.483  0.617  0.620
    eigenvectors:
  0.000  0.873  0.000  0.111  0.016
  0.000  0.000  0.000  0.125  0.875
  0.779  0.000  0.221  0.000  0.000
  0.000  0.127  0.000  0.764  0.109
  0.221  0.000  0.779  0.000  0.000
    occupations:
  0.477 -0.001 -0.000  0.054 -0.000
 -0.001  0.620 -0.000 -0.001 -0.000
 -0.000 -0.000  0.457  0.000  0.014
  0.054 -0.001  0.000  0.597 -0.000
 -0.000 -0.000  0.014 -0.000  0.476
atom   10   Tr[ns(na)] =   5.06121
    eigenvalues: 
[...]
     0.8069   0.8070   0.9448   1.0306   1.2458   1.2703   1.2785   1.5974
     1.6431   1.6520   1.7683   1.8882   1.9340   1.9600   2.0949   2.5458
     2.6623   2.7454   2.9937   3.0025   3.1625   3.2526   3.6646   4.6296
     4.6442   4.7932   4.8374   5.1101   5.1968   5.3366   5.3805   5.3827
     5.3913   5.4258   5.4638   5.5062   5.5093   5.6186   5.6381   5.7478
     5.8042   6.2030   6.2927   6.3846   6.4285   6.5509   6.6817   6.7130
     6.7774   7.1021   7.2953   7.3154   7.3744   7.4872   7.9837   7.9938
     8.0521   8.0597   8.1483   8.2874   8.4839   8.5858   8.6614   8.6634
     8.7002   8.7555   8.8477   8.9445   8.9762   9.1081   9.1224   9.2014
     9.4232   9.5592   9.6697   9.6936   9.8204   9.8284   9.9501  10.0482
    10.1019  10.1444  10.2708  10.3885  10.4423  10.5412  10.5986  10.7251
    10.8969  11.0238  11.0947  11.1962  11.2589  11.3807  11.3909  11.4005
    11.5456  11.7328  11.8970  12.1546  12.2319  12.3884  12.3886  12.4757
    12.5441  12.6746  12.6983  12.7228  12.7266  12.7593  13.0705  13.0879
    13.1100  13.1831  13.2302  13.2922  13.4507  13.7071  13.7244  13.7384
    13.7822  13.9287  13.9462  14.0281  14.1223  14.2082  14.2652  14.3224
    14.3359  14.4657  14.4948  14.4990  14.5416  14.6709  14.7172  14.7962
    14.8466  14.8481  14.9550  15.0034  15.1732  15.3160  15.3859  15.4912
    15.5960  15.6072  15.6466  15.7757  15.7865  15.8404  15.8999  15.9282
    16.0645  16.0864  16.1486  16.1535  16.1638  16.2393  16.3301  16.4064
    16.4288  16.5478  16.6375  16.7738  16.7988  16.8293  16.8926  16.9092
    16.9655  17.0248  17.0846  17.0996  17.1502  17.1703  17.1916  17.2722
    17.3044  17.3237  17.3628  17.3835  17.5506  17.5560  17.5855  17.6384
    17.6839  17.7426  17.7554  17.8115  17.8547  17.8826  17.9404  17.9693
    17.9712  17.9842  18.0424  18.1713  18.2009  18.2198  18.2441  18.3610
    18.4128  18.4252  18.4588  18.6377  18.6814  18.7200  18.7338  18.8480
    18.9414  18.9614  18.9823  18.9975  19.0889  19.1420  19.1604  19.2040
    19.2186  19.4005  19.4270  19.4554  19.4719

          k =-0.5000 0.2118 0.0000 ( 32144 PWs)   bands (ev):

   -56.8616 -56.8476 -56.3340 -56.3080 -56.3045 -56.2956 -56.2591 -55.5175
   -33.3127 -33.2990 -33.0023 -32.9861 -32.9544 -32.9434 -32.9328 -32.7278
   -32.7243 -32.6910 -32.6583 -32.5284 -32.4761 -32.4651 -32.4372 -32.3205
   -32.2859 -32.2525 -32.2421 -32.2110 -32.1234 -32.0904 -31.7682 -31.5816
   -20.9528 -20.5159 -19.7130 -19.7017 -19.3972 -19.2307 -19.2095 -19.0750
   -19.0440 -18.9323 -18.9167 -18.8065 -18.7879 -18.6789 -18.6767 -18.5095
   -18.4736 -18.2284 -16.8347  -9.3896  -8.9195  -7.6914  -7.6777  -7.1110
    -7.0912  -7.0675  -7.0010  -6.9343  -6.6869  -6.6734  -6.4022  -6.3788
    -6.2303  -6.1948  -6.1728  -5.7604  -5.6831  -5.6698  -5.5905  -5.5792
    -5.4702  -5.3852  -5.3696  -5.3492  -5.3388  -5.2703  -5.1653  -4.9887
    -4.9603  -4.7443  -4.6411  -4.5231  -4.4322  -4.3854  -4.3494  -4.2693
    -4.2399  -4.1772  -4.0931  -4.0303  -3.8888  -3.8435  -3.7976  -3.6076
    -3.5067  -3.4733  -3.3723  -3.2827  -3.2227  -3.1481  -3.0395  -2.8966
    -2.8924  -2.7503  -2.5685  -2.5063  -0.0693   0.6317   0.6348   0.6971
     0.7477   0.9178   0.9484   1.0684   1.1106   1.2792   1.4492   1.6169
     1.6988   1.7849   1.8251   1.8911   2.0541   2.0941   2.2670   2.4212
     2.6813   2.6892   2.7728   3.2498   3.2692   3.3652   3.5719   4.5528
     4.5613   4.6198   4.6636   4.7389   4.7553   5.0522   5.0574   5.2810
     5.2910   5.4492   5.4559   5.5699   5.6150   5.8869   5.8901   6.0212
     6.0533   6.0649   6.0880   6.3751   6.5154   6.5894   6.6214   6.7388
     6.7795   7.0040   7.2955   7.3775   7.3868   7.5166   7.5411   7.5903
     7.6807   7.7885   7.8602   7.8698   8.0910   8.2152   8.5390   8.6748
     8.7796   8.8738   8.9153   8.9574   9.0522   9.0792   9.5747   9.6425
     9.6704   9.8129   9.8869  10.0232  10.1359  10.1896  10.2300  10.2435
    10.3355  10.4062  10.4915  10.6089  10.6596  10.7598  10.8814  10.8991
    11.1443  11.2987  11.3328  11.4524  11.4683  11.5266  11.5764  11.7509
    11.8384  11.8687  12.0937  12.1703  12.2543  12.3910  12.4949  12.5697
    12.6098  12.7628  12.7872  12.8145  12.8709  12.9514  13.1179  13.2289
    13.2800  13.3270  13.3614  13.4180  13.4749  13.5313  13.6084  13.6898
    13.7494  13.7977  13.8710  13.9088  13.9395  13.9703  14.1314  14.1658
    14.1750  14.3118  14.3255  14.4127  14.4525  14.5391  14.5652  14.6558
    14.7366  14.7463  14.8380  14.8849  14.9286  14.9969  15.0365  15.0628
    15.0842  15.1210  15.2543  15.2889  15.3153  15.4267  15.5037  15.5627
    15.6161  15.6465  15.7967  15.8182  15.8642  15.9358  15.9470  15.9525
    16.0257  16.0988  16.1376  16.2466  16.2723  16.3379  16.3698  16.4204
    16.4630  16.6539  16.6993  16.8126  16.8784  16.8808  16.9495  16.9900
    17.1264  17.1381  17.1626  17.3534  17.3604  17.3733  17.5350  17.5576
    17.6022  17.6535  17.7220  17.7502  17.8047  17.8400  17.9364  18.0079
    18.0371  18.1230  18.1676  18.3372  18.4211  18.4834  18.4940  18.6729
    18.6952  18.8310  18.8649  18.8756  18.9330  19.0094  19.0404  19.1669
    19.1792  19.2372  19.2512  19.3853  19.4066  19.4352  19.5475  19.6570
    19.7097  19.7730  19.8368  19.8900  19.9493

          k =-0.5000-0.4237 0.0000 ( 32256 PWs)   bands (ev):

   -56.8606 -56.8465 -56.3316 -56.3065 -56.3034 -56.2938 -56.2575 -55.5159
   -33.3124 -33.2979 -33.0016 -32.9860 -32.9564 -32.9425 -32.9300 -32.7274
   -32.7228 -32.6906 -32.6580 -32.5267 -32.4671 -32.4632 -32.4298 -32.3156
   -32.2985 -32.2643 -32.2418 -32.2107 -32.1303 -32.0902 -31.7654 -31.5868
   -20.9509 -20.5139 -19.7098 -19.6985 -19.3896 -19.2372 -19.2145 -19.0830
   -19.0226 -18.9328 -18.9182 -18.8060 -18.7908 -18.6613 -18.6595 -18.5015
   -18.4935 -18.2212 -16.8343  -9.3873  -8.9164  -7.6793  -7.6651  -7.0550
    -7.0453  -7.0087  -6.9667  -6.8893  -6.6953  -6.6428  -6.4272  -6.3746
    -6.1168  -6.0811  -6.0563  -5.7790  -5.7497  -5.7347  -5.5877  -5.5738
    -5.5224  -5.4923  -5.4791  -5.4214  -5.3829  -5.3654  -5.0590  -4.8890
    -4.8567  -4.6681  -4.5908  -4.5684  -4.5170  -4.5161  -4.4903  -4.3567
    -4.3498  -4.2637  -4.2547  -4.1766  -4.0712  -3.8344  -3.7833  -3.6256
    -3.4334  -3.4270  -3.4182  -3.3240  -3.2012  -3.1837  -2.8692  -2.8397
    -2.8106  -2.8032  -2.5248  -2.5080  -0.0501   0.5635   0.6658   0.8431
     0.8538   0.8946   0.9168   0.9265   1.3439   1.4902   1.5971   1.8305
     1.8596   1.8625   1.9288   1.9774   2.2354   2.2834   2.2972   2.4773
     2.5669   2.6225   2.7315   3.4030   3.4061   3.4651   3.5190   4.0187
     4.0705   4.1083   4.2499   4.5250   4.5284   5.0466   5.1121   5.3217
     5.3442   5.6219   5.6281   5.7285   5.7637   5.8998   5.9113   5.9202
     6.0719   6.3557   6.4415   6.4434   6.4810   6.5403   6.5827   6.6212
     6.6230   6.8467   6.9043   6.9626   7.0876   7.2504   7.2514   7.3506
     7.7529   8.0343   8.0470   8.0710   8.1589   8.2191   8.2799   8.2841
     8.7717   8.8605   9.0327   9.1414   9.1684   9.2621   9.3048   9.3545
     9.4359   9.5309   9.6947   9.7331  10.5066  10.6638  10.7094  10.7886
    10.8068  10.8358  10.9134  10.9190  11.0226  11.2045  11.6093  11.6112
    11.6169  11.7760  11.8187  11.8296  11.9051  12.0054  12.0227  12.0552
    12.1050  12.1999  12.2820  12.4538  12.4620  12.5166  12.5703  12.5929
    12.6043  12.6717  12.6751  12.7909  12.8221  12.9027  13.0054  13.0109
    13.0404  13.1141  13.1812  13.2021  13.3532  13.3815  13.3953  13.4255
    13.4853  13.5055  13.5354  13.5578  13.8314  13.8914  13.9303  13.9551
    14.0532  14.0595  14.0820  14.0843  14.2541  14.2907  14.3057  14.3286
    14.3983  14.6070  14.6408  14.6712  14.6870  14.7299  14.7575  14.7696
    14.7783  14.8539  14.9681  15.0565  15.0869  15.0984  15.2278  15.2526
    15.4433  15.4471  15.4688  15.5052  15.5927  15.6420  15.7377  15.7766
    15.8345  15.8808  15.8920  15.9158  16.0283  16.0503  16.0949  16.1035
    16.3243  16.3543  16.6397  16.6664  16.7667  16.8046  16.8162  16.9218
    17.0196  17.0671  17.1999  17.2879  17.3201  17.3961  17.5237  17.5447
    17.5604  17.5685  17.6408  17.6670  17.7430  17.7914  17.8169  18.0237
    18.0728  18.2350  18.3337  18.3382  18.4250  18.5734  18.6271  18.6537
    18.6654  18.9258  18.9632  18.9871  18.9902  19.1468  19.2451  19.5407
    19.5412  19.5472  19.5902  19.5936  19.6380  19.6637  19.7216  19.9107
    19.9128  19.9412  20.2297  20.2448  20.3329

          k =-0.2500 0.2118 0.0000 ( 32165 PWs)   bands (ev):

   -56.8901 -56.8223 -56.3594 -56.3476 -56.2928 -56.2863 -56.2629 -55.5255
   -33.6490 -33.1072 -32.9738 -32.9547 -32.9192 -32.9115 -32.8868 -32.7872
   -32.7635 -32.7562 -32.7058 -32.6505 -32.6468 -32.4042 -32.3384 -32.3097
   -32.2230 -32.1964 -32.1500 -32.1305 -32.1114 -32.0975 -31.6421 -31.5713
   -20.9965 -20.5446 -19.8658 -19.6450 -19.4395 -19.3552 -19.3511 -19.3180
   -19.3089 -19.1935 -19.1097 -18.6027 -18.5066 -18.4399 -18.4242 -18.3446
   -18.2587 -18.2100 -16.8363  -9.5083  -8.8865  -8.0458  -7.6086  -7.4380
    -7.2219  -7.0494  -6.9986  -6.8563  -6.7245  -6.7024  -6.6422  -6.4076
    -6.3854  -6.3563  -6.1729  -6.0792  -6.0339  -5.9333  -5.8336  -5.5906
    -5.4966  -5.3376  -5.2668  -5.0457  -4.9593  -4.9112  -4.7739  -4.7018
    -4.6474  -4.6245  -4.4923  -4.4724  -4.4156  -4.3722  -4.3300  -4.2851
    -4.1133  -4.0725  -3.9952  -3.9384  -3.8890  -3.7614  -3.6822  -3.6464
    -3.5224  -3.4289  -3.3720  -3.2855  -3.2592  -3.1662  -3.0445  -2.9903
    -2.9462  -2.7450  -2.6753  -2.4240  -0.6107  -0.2869   0.0703   0.6678
     0.7011   1.0507   1.2477   1.3086   1.4430   1.6685   1.6941   1.7754
     1.8673   1.9353   2.0520   2.0878   2.1970   2.2766   2.3568   2.3931
     2.6050   2.6414   2.7922   2.9586   3.2823   3.6582   4.0658   4.1410
     4.3583   4.5306   4.5991   4.6523   4.9037   4.9370   4.9854   5.0738
     5.2094   5.2584   5.4428   5.5794   5.6236   5.7239   5.9699   6.0284
     6.1580   6.2112   6.5089   6.5514   6.5745   6.6141   6.7889   6.8675
     6.8917   7.0869   7.1979   7.2871   7.4441   7.5017   7.8041   7.9185
     8.0145   8.0379   8.1322   8.1807   8.2441   8.5304   8.6099   8.7027
     8.8184   8.8959   9.0080   9.0825   9.1753   9.2710   9.2841   9.4805
     9.5436   9.5990   9.7477   9.8619   9.8956  10.0134  10.0761  10.1547
    10.2589  10.3812  10.5757  10.7194  10.7577  10.9114  10.9660  11.0032
    11.1221  11.1512  11.2200  11.2778  11.4017  11.4450  11.5127  11.5474
    11.6524  11.7607  11.8969  11.9067  12.0015  12.1102  12.1339  12.2030
    12.2622  12.3441  12.3946  12.4754  12.5991  12.6641  12.6914  12.7361
    12.7729  12.8634  12.9585  12.9837  13.0406  13.0992  13.2372  13.2847
    13.3618  13.3950  13.5177  13.6342  13.7079  13.7550  13.7888  13.8614
    13.9290  13.9516  14.0086  14.1309  14.1554  14.2893  14.3710  14.4020
    14.4655  14.5948  14.6659  14.7779  14.9098  14.9270  15.0411  15.1057
    15.2112  15.2566  15.2920  15.3300  15.3898  15.4527  15.5247  15.5775
    15.6478  15.6954  15.7985  15.8571  15.9099  15.9961  16.0401  16.0810
    16.2016  16.2714  16.3684  16.3987  16.4688  16.4962  16.5767  16.6741
    16.7265  16.7742  16.8597  16.9489  17.0295  17.1128  17.1491  17.2201
    17.2865  17.3487  17.3695  17.4271  17.4778  17.5793  17.6252  17.7132
    17.7574  17.8658  17.9655  17.9797  18.0896  18.1462  18.2070  18.3779
    18.3825  18.4318  18.4721  18.5432  18.6176  18.6643  18.6997  18.7857
    18.8611  18.9158  18.9743  19.0811  19.1459  19.1756  19.2353  19.3403
    19.3607  19.4000  19.4910  19.5174  19.5826  19.6419  19.6618  19.6848
    19.7647  19.8828  19.9078  20.0005  20.0716

     the Fermi energy is     0.5132 ev

!    total energy              =   -1559.69608977 Ry
     Harris-Foulkes estimate   =   -1559.69608977 Ry
     estimated scf accuracy    <          4.0E-09 Ry

     The total energy is the sum of the following terms:

     one-electron contribution =  -18855.78112747 Ry
     hartree contribution      =    9453.55169412 Ry
     xc contribution           =    -286.89046604 Ry
     ewald contribution        =    8126.60434549 Ry
     Hubbard energy            =       2.81901576 Ry
     smearing contrib. (-TS)   =       0.00044836 Ry

     convergence has been achieved in  12 iterations

     Forces acting on atoms (Ry/au):


     negative rho (up, down):  0.351E-02 0.000E+00
     atom    1 type  1   force =     0.00139012   -0.00005076    0.00030225
     atom    2 type  1   force =    -0.00026187    0.00023443   -0.00020805
     atom    3 type  2   force =    -0.05426352   -0.00016771   -0.00059936
     atom    4 type  2   force =    -0.00398568    0.00002751   -0.00047454
     atom    5 type  1   force =    -0.00528467   -0.00840580   -0.00000369
     atom    6 type  1   force =    -0.00532662    0.00841459   -0.00000421
     atom    7 type  1   force =    -0.00040552    0.00002219    0.00059537
     atom    8 type  1   force =     0.00217443    0.00000613   -0.00002260
     atom    9 type  2   force =     0.00201393    0.00000119   -0.00037881
     atom   10 type  2   force =    -0.00077077   -0.00000461   -0.00007103
     atom   11 type  1   force =    -0.01466166   -0.00524718    0.00028199
     atom   12 type  1   force =    -0.01466098    0.00524994    0.00028212
     atom   13 type  1   force =     0.00076720   -0.00000150    0.00006482
     atom   14 type  1   force =     0.00094619   -0.00005759   -0.00016694
     atom   15 type  1   force =    -0.00020790    0.00006974    0.00053294
     atom   16 type  2   force =     0.05490294   -0.00016526   -0.00069034
     atom   17 type  2   force =    -0.00381411    0.00003773    0.00014835
     atom   18 type  1   force =     0.00624551   -0.00824811   -0.00002248
     atom   19 type  1   force =     0.00617103    0.00825642   -0.00002223
     atom   20 type  1   force =     0.00000949    0.00006487    0.00026813
     atom   21 type  1   force =     0.00107607    0.00000339    0.00097006
     atom   22 type  2   force =    -0.00194937    0.00000197    0.00040547
     atom   23 type  2   force =     0.00213625   -0.00000229    0.00009064
     atom   24 type  1   force =     0.01418573   -0.00496147   -0.00064277
     atom   25 type  1   force =     0.01418486    0.00496074   -0.00064229
     atom   26 type  1   force =    -0.00053468    0.00000008    0.00008008
     atom   27 type  3   force =     0.00000990   -0.00005424    0.00063367
     atom   28 type  3   force =    -0.00000199    0.00000576   -0.00026965
     atom   29 type  3   force =    -0.00018459    0.00000618    0.00011117
     atom   30 type  3   force =     0.00006019    0.00000506   -0.00006212
     atom   31 type  1   force =     0.00004010   -0.00000143   -0.00048595

     Total force =     0.002233     Total SCF correction =     0.000124

     bfgs converged in  10 scf cycles and   9 bfgs steps
     (criteria: energy < 0.10E-03, force < 0.10E-02)

     End of BFGS Geometry Optimization

     Final energy   =   -1559.6960897727 Ry
Begin final coordinates

ATOMIC_POSITIONS (crystal)
O0       0.000000000   0.000000000   0.371583906    0   0   1
O0       0.000000000   0.500000000   0.388301436    0   0   1
Nb1      0.250000000   0.500000000   0.444730509    0   0   1
Nb1      0.000000000   0.000000000   0.444107126    0   0   1
O0       0.250000000   0.790000000   0.446149284    0   0   1
O0       0.250000000   0.210000000   0.446148549    0   0   1
O0       0.000000000   0.500000000   0.501110750    0   0   1
O0       0.000000000   0.000000000   0.523056254    0   0   1
Nb1      0.250000000   0.000000000   0.576846014    0   0   1
Nb1      0.000000000   0.500000000   0.570472409    0   0   1
O0       0.250000000   0.710000000   0.577110141    0   0   1
O0       0.250000000   0.290000000   0.577111036    0   0   1
O0       0.000000000   0.000000000   0.621133057    0   0   1
O0       0.500000000   0.000000000   0.371800280    0   0   1
O0       0.500000000   0.500000000   0.390814618    0   0   1
Nb1      0.750000000   0.500000000   0.444759565    0   0   1
Nb1      0.500000000   0.000000000   0.444489470    0   0   1
O0       0.750000000   0.790000000   0.446132120    0   0   1
O0       0.750000000   0.210000000   0.446131966    0   0   1
O0       0.500000000   0.500000000   0.495181463    0   0   1
O0       0.500000000   0.000000000   0.523075314    0   0   1
Nb1      0.750000000   0.000000000   0.577153170    0   0   1
Nb1      0.500000000   0.500000000   0.587258605    0   0   1
O0       0.750000000   0.710000000   0.576738997    0   0   1
O0       0.750000000   0.290000000   0.576739451    0   0   1
O0       0.500000000   0.000000000   0.621057287    0   0   1
H2      -0.000464764   0.501462208   0.352051192
H2       0.499492227   0.501448647   0.354643769
H2       0.150364985   0.000387692   0.355694098
H2       0.650222800   0.000387024   0.355871809
O0       0.500046894   0.500003095   0.650836355
End final coordinates



     init_run     :    106.33s CPU    108.74s WALL (       1 calls)
     electrons    :  26549.75s CPU  27329.76s WALL (      10 calls)
     update_pot   :    196.67s CPU    203.11s WALL (       9 calls)
     forces       :   1340.09s CPU   1360.65s WALL (      10 calls)

     Called by init_run:
     wfcinit      :     36.71s CPU     37.83s WALL (       1 calls)
     potinit      :      7.99s CPU      8.20s WALL (       1 calls)

     Called by electrons:
     c_bands      :  13993.66s CPU  14381.97s WALL (     145 calls)
     sum_band     :   5397.22s CPU   5567.70s WALL (     145 calls)
     v_of_rho     :    159.94s CPU    169.01s WALL (     149 calls)
     newd         :   7378.99s CPU   7476.24s WALL (     149 calls)
     mix_rho      :     28.26s CPU     29.07s WALL (     145 calls)

     Called by c_bands:
     init_us_2    :     40.70s CPU     41.16s WALL (     963 calls)
     cegterg      :  13810.53s CPU  14160.44s WALL (     435 calls)

     Called by *egterg:
     h_psi        :   8063.51s CPU   8252.10s WALL (    1361 calls)
     s_psi        :    859.38s CPU    871.70s WALL (    1421 calls)
     g_psi        :     18.26s CPU     18.35s WALL (     923 calls)
     cdiaghg      :   1237.66s CPU   1244.31s WALL (    1313 calls)

     Called by h_psi:
     add_vuspsi   :    819.92s CPU    832.05s WALL (    1361 calls)
     vhpsi        :    910.52s CPU    921.68s WALL (    1361 calls)

     General routines
     calbec       :   2124.28s CPU   2149.62s WALL (   12082 calls)
     fft          :    240.98s CPU    322.29s WALL (    2487 calls)
     ffts         :      2.78s CPU      2.92s WALL (     294 calls)
     fftw         :   4508.25s CPU   4690.32s WALL (  753841 calls)
     interpolate  :     24.29s CPU     24.87s WALL (     294 calls)
     davcio       :      0.11s CPU     18.96s WALL (     993 calls)

     Parallel routines
     fft_scatter  :   1599.06s CPU   1845.93s WALL (  756622 calls)
     Hubbard U routines
     new_ns       :    195.68s CPU    206.39s WALL (     145 calls)
     vhpsi        :    910.52s CPU    921.68s WALL (    1361 calls)
     force_hub    :    378.76s CPU    386.06s WALL (      10 calls)

     PWSCF        :     7h58m CPU        8h11m WALL


   This run was terminated on:   5:44: 6   1May2014            

=------------------------------------------------------------------------------=
   JOB DONE.
=------------------------------------------------------------------------------=
---------------------------------------
Running PBS batch system epilogue script
Job id: 340577.audhumbla.fysik.dtu.dk
Username: zhonxu
Groupname: campgst
Jobname: NbO2/Eads-2-layers/O-U-4.0
Sessionid: 22376
Resources limits: neednodes=2:ppn=8:xeon8,nodes=2:ppn=8:xeon8,walltime=48:00:00
Resources used: cput=130:42:25,mem=17100792kb,vmem=20655540kb,walltime=08:11:46
Queuename: verylong
Accounting:
This job has allocated the following 16 nodes:
d064 d064 d064 d064 d064 d064 d064 d064 d063 d063 d063 d063 d063 d063 d063 d063
Finished epilogue job 340577.audhumbla.fysik.dtu.dk for zhonxu
