
     Program PWSCF v.5.0.2 (svn rev. 9656) starts on 30Apr2014 at 21:19:16 

     This program is part of the open-source Quantum ESPRESSO suite
     for quantum simulation of materials; please cite
         "P. Giannozzi et al., J. Phys.:Condens. Matter 21 395502 (2009);
          URL http://www.quantum-espresso.org", 
     in publications or presentations arising from this work. More details at
     http://www.quantum-espresso.org/quote.php

     Parallel version (MPI), running on    16 processors
     K-points division:     npool     =       4
     R & G space division:  proc/nbgrp/npool/nimage =       4

     Current dimensions of program PWSCF are:
     Max number of different atomic species (ntypx) = 10
     Max number of k-points (npk) =  40000
     Max angular momentum in pseudopotentials (lmaxx) =  3
     Reading input from pwscf.in
Warning: card &CELL ignored
Warning: card / ignored

     Subspace diagonalization in iterative solution of the eigenvalue problem:
     a serial algorithm will be used


     Parallelization info
     --------------------
     sticks:   dense  smooth     PW     G-vecs:    dense   smooth      PW
     Min        1467     469    131               355494    64365    9519
     Max        1469     470    132               355497    64388    9524
     Sum        5871    1877    527              1421981   257505   38087



     bravais-lattice index     =            0
     lattice parameter (alat)  =      11.1872  a.u.
     unit-cell volume          =    7531.8600 (a.u.)^3
     number of atoms/cell      =           31
     number of atomic types    =            3
     number of electrons       =       222.00
     number of Kohn-Sham states=          333
     kinetic-energy cutoff     =      40.0000  Ry
     charge density cutoff     =     500.0000  Ry
     convergence threshold     =      1.0E-06
     mixing beta               =       0.7000
     number of iterations used =            8  plain     mixing
     Exchange-correlation      = SLA  PW   PBE  PBE ( 1 4 3 4 0)
     EXX-fraction              =        0.00
     nstep                     =           50


     celldm(1)=  11.187179  celldm(2)=   0.000000  celldm(3)=   0.000000
     celldm(4)=   0.000000  celldm(5)=   0.000000  celldm(6)=   0.000000

     crystal axes: (cart. coord. in units of alat)
               a(1) = (   1.000000   0.000000   0.000000 )  
               a(2) = (   0.000000   1.180104   0.000000 )  
               a(3) = (   0.000000   0.000000   4.558482 )  

     reciprocal axes: (cart. coord. in units 2 pi/alat)
               b(1) = (  1.000000  0.000000  0.000000 )  
               b(2) = (  0.000000  0.847383  0.000000 )  
               b(3) = (  0.000000  0.000000  0.219371 )  


     PseudoPot. # 1 for O  read from file:
     /home/camp/zhonxu/pseudo/o_pbe_v1.01.uspp.F.UPF
     MD5 check sum: 2bcb18d16ea4b960afae9ec6d52f22d2
     Pseudo is Ultrasoft + core correction, Zval =  6.0
     Generated by new atomic code, or converted to UPF format
     Using radial grid of  737 points,  5 beta functions with: 
                l(1) =   0
                l(2) =   0
                l(3) =   1
                l(4) =   1
                l(5) =   2
     Q(r) pseudized with  8 coefficients,  rinner =    0.900   0.900   0.900
                                                       0.900   0.900

     PseudoPot. # 2 for Nb read from file:
     /home/camp/zhonxu/pseudo/nb_pbe_v1.uspp.F.UPF
     MD5 check sum: 573aab8a2fa660278ed4a62cd769473f
     Pseudo is Ultrasoft + core correction, Zval = 13.0
     Generated by new atomic code, or converted to UPF format
     Using radial grid of  887 points,  6 beta functions with: 
                l(1) =   0
                l(2) =   0
                l(3) =   1
                l(4) =   1
                l(5) =   2
                l(6) =   2
     Q(r) pseudized with  6 coefficients,  rinner =    1.000   1.000   1.000
                                                       1.000   1.000

     PseudoPot. # 3 for H  read from file:
     /home/camp/zhonxu/pseudo/h_pbe_v1.uspp.F.UPF
     MD5 check sum: 3408e3ff4ec8b0a4e358431e7e038a48
     Pseudo is Ultrasoft, Zval =  1.0
     Generated by new atomic code, or converted to UPF format
     Using radial grid of  615 points,  2 beta functions with: 
                l(1) =   0
                l(2) =   0
     Q(r) pseudized with  8 coefficients,  rinner =    0.700

     atomic species   valence    mass     pseudopotential
        O0             6.00    15.99940     O ( 1.00)
        Nb1           13.00    92.90640     Nb( 1.00)
        H2             1.00     1.00794     H ( 1.00)


     Simplified LDA+U calculation (l_max = 2) with parameters (eV):
     atomic species    L          U    alpha       J0     beta
        Nb1            2     3.0000   0.0000   0.0000   0.0000



     No symmetry found



   Cartesian axes

     site n.     atom                  positions (alat units)
         1           O0  tau(   1) = (   0.0000000   0.0000000   1.6934306  )
         2           O0  tau(   2) = (   0.0000000   0.5900519   1.7719732  )
         3           Nb1 tau(   3) = (   0.2500000   0.5900519   2.0266100  )
         4           Nb1 tau(   4) = (   0.0000000   0.0000000   2.0234647  )
         5           O0  tau(   5) = (   0.2500000   0.9322821   2.0339492  )
         6           O0  tau(   6) = (   0.2500000   0.2478218   2.0339492  )
         7           O0  tau(   7) = (   0.0000000   0.5900519   2.2822497  )
         8           O0  tau(   8) = (   0.0000000   0.0000000   2.3837671  )
         9           Nb1 tau(   9) = (   0.2500000   0.0000000   2.6303810  )
        10           Nb1 tau(  10) = (   0.0000000   0.5900519   2.5986084  )
        11           O0  tau(  11) = (   0.2500000   0.8378738   2.6271901  )
        12           O0  tau(  12) = (   0.2500000   0.3422301   2.6272357  )
        13           O0  tau(  13) = (   0.0000000   0.0000000   2.8322306  )
        14           O0  tau(  14) = (   0.5000000   0.0000000   1.6959377  )
        15           O0  tau(  15) = (   0.5000000   0.5900519   1.7815005  )
        16           Nb1 tau(  16) = (   0.7500000   0.5900519   2.0269291  )
        17           Nb1 tau(  17) = (   0.5000000   0.0000000   2.0281143  )
        18           O0  tau(  18) = (   0.7500000   0.9322821   2.0339492  )
        19           O0  tau(  19) = (   0.7500000   0.2478218   2.0339492  )
        20           O0  tau(  20) = (   0.5000000   0.5900519   2.2572692  )
        21           O0  tau(  21) = (   0.5000000   0.0000000   2.3822628  )
        22           Nb1 tau(  22) = (   0.7500000   0.0000000   2.6309736  )
        23           Nb1 tau(  23) = (   0.5000000   0.5900519   2.6831227  )
        24           O0  tau(  24) = (   0.7500000   0.8378738   2.6265975  )
        25           O0  tau(  25) = (   0.7500000   0.3422301   2.6265975  )
        26           O0  tau(  26) = (   0.5000000   0.0000000   2.8320027  )
        27           H2  tau(  27) = (  -0.0004900   0.5918693   1.6065459  )
        28           H2  tau(  28) = (   0.4994900   0.5917631   1.6163466  )
        29           H2  tau(  29) = (   0.1504600   0.0004366   1.6207228  )
        30           H2  tau(  30) = (   0.6496400   0.0004366   1.6219536  )
        31           O0  tau(  31) = (   0.5000300   0.5900519   2.9731333  )

     number of k points=    10  Methfessel-Paxton smearing, width (Ry)=  0.0100
                       cart. coord. in units 2pi/alat
        k(    1) = (   0.0000000   0.0000000   0.0000000), wk =   0.1250000
        k(    2) = (   0.0000000   0.2118458   0.0000000), wk =   0.2500000
        k(    3) = (   0.0000000  -0.4236915   0.0000000), wk =   0.1250000
        k(    4) = (   0.2500000   0.0000000   0.0000000), wk =   0.2500000
        k(    5) = (   0.2500000   0.2118458   0.0000000), wk =   0.2500000
        k(    6) = (   0.2500000  -0.4236915   0.0000000), wk =   0.2500000
        k(    7) = (  -0.5000000   0.0000000   0.0000000), wk =   0.1250000
        k(    8) = (  -0.5000000   0.2118458   0.0000000), wk =   0.2500000
        k(    9) = (  -0.5000000  -0.4236915   0.0000000), wk =   0.1250000
        k(   10) = (  -0.2500000   0.2118458   0.0000000), wk =   0.2500000

     Dense  grid:  1421981 G-vectors     FFT dimensions: (  80,  96, 375)

     Smooth grid:   257505 G-vectors     FFT dimensions: (  45,  54, 216)

     Largest allocated arrays     est. size (Mb)     dimensions
        Kohn-Sham Wavefunctions        41.09 Mb     (   8086,  333)
        Atomic wavefunctions           22.70 Mb     (   8086,  184)
        NL pseudopotentials            49.23 Mb     (   8086,  399)
        Each V/rho on FFT grid         11.02 Mb     ( 721920)
        Each G-vector array             2.71 Mb     ( 355495)
        G-vector shells                 1.17 Mb     ( 153576)
     Largest temporary arrays     est. size (Mb)     dimensions
        Auxiliary wavefunctions       164.35 Mb     (   8086, 1332)
        Each subspace H/S matrix       27.07 Mb     (1332,1332)
        Each <psi_i|beta_j> matrix      2.03 Mb     (    399,  333)
        Arrays for rho mixing          88.13 Mb     ( 721920,   8)

     Check: negative/imaginary core charge=   -0.000003    0.000000

     Initial potential from superposition of free atoms
     Check: negative starting charge=   -0.003810

     starting charge  221.97807, renormalised to  222.00000

     negative rho (up, down):  0.381E-02 0.000E+00
     Number of +U iterations with fixed ns =  0
     Starting occupations:
 --- enter write_ns ---
 LDA+U parameters:
U( 2)     =  3.00000000
alpha( 2) =  0.00000000
atom    3   Tr[ns(na)] =   3.00000
    eigenvalues: 
  0.300  0.300  0.300  0.300  0.300
    eigenvectors:
  1.000  0.000  0.000  0.000  0.000
  0.000  1.000  0.000  0.000  0.000
  0.000  0.000  1.000  0.000  0.000
  0.000  0.000  0.000  1.000  0.000
  0.000  0.000  0.000  0.000  1.000
    occupations:
  0.300  0.000  0.000  0.000  0.000
  0.000  0.300  0.000  0.000  0.000
  0.000  0.000  0.300  0.000  0.000
  0.000  0.000  0.000  0.300  0.000
  0.000  0.000  0.000  0.000  0.300
atom    4   Tr[ns(na)] =   3.00000
    eigenvalues: 
  0.300  0.300  0.300  0.300  0.300
    eigenvectors:
  1.000  0.000  0.000  0.000  0.000
  0.000  1.000  0.000  0.000  0.000
  0.000  0.000  1.000  0.000  0.000
  0.000  0.000  0.000  1.000  0.000
  0.000  0.000  0.000  0.000  1.000
    occupations:
  0.300  0.000  0.000  0.000  0.000
  0.000  0.300  0.000  0.000  0.000
  0.000  0.000  0.300  0.000  0.000
  0.000  0.000  0.000  0.300  0.000
  0.000  0.000  0.000  0.000  0.300
atom    9   Tr[ns(na)] =   3.00000
    eigenvalues: 
  0.300  0.300  0.300  0.300  0.300
    eigenvectors:
  1.000  0.000  0.000  0.000  0.000
  0.000  1.000  0.000  0.000  0.000
  0.000  0.000  1.000  0.000  0.000
  0.000  0.000  0.000  1.000  0.000
  0.000  0.000  0.000  0.000  1.000
    occupations:
  0.300  0.000  0.000  0.000  0.000
  0.000  0.300  0.000  0.000  0.000
  0.000  0.000  0.300  0.000  0.000
  0.000  0.000  0.000  0.300  0.000
  0.000  0.000  0.000  0.000  0.300
atom   10   Tr[ns(na)] =   3.00000
    eigenvalues: 
  0.300  0.300  0.300  0.300  0.300
    eigenvectors:
  1.000  0.000  0.000  0.000  0.000
  0.000  1.000  0.000  0.000  0.000
  0.000  0.000  1.000  0.000  0.000
  0.000  0.000  0.000  1.000  0.000
  0.000  0.000  0.000  0.000  1.000
    occupations:
  0.300  0.000  0.000  0.000  0.000
  0.000  0.300  0.000  0.000  0.000
  0.000  0.000  0.300  0.000  0.000
  0.000  0.000  0.000  0.300  0.000
  0.000  0.000  0.000  0.000  0.300
atom   16   Tr[ns(na)] =   3.00000
    eigenvalues: 
  0.300  0.300  0.300  0.300  0.300
    eigenvectors:
  1.000  0.000  0.000  0.000  0.000
  0.000  1.000  0.000  0.000  0.000
  0.000  0.000  1.000  0.000  0.000
  0.000  0.000  0.000  1.000  0.000
  0.000  0.000  0.000  0.000  1.000
    occupations:
  0.300  0.000  0.000  0.000  0.000
  0.000  0.300  0.000  0.000  0.000
  0.000  0.000  0.300  0.000  0.000
  0.000  0.000  0.000  0.300  0.000
  0.000  0.000  0.000  0.000  0.300
atom   17   Tr[ns(na)] =   3.00000
    eigenvalues: 
  0.300  0.300  0.300  0.300  0.300
    eigenvectors:
  1.000  0.000  0.000  0.000  0.000
  0.000  1.000  0.000  0.000  0.000
  0.000  0.000  1.000  0.000  0.000
  0.000  0.000  0.000  1.000  0.000
  0.000  0.000  0.000  0.000  1.000
    occupations:
  0.300  0.000  0.000  0.000  0.000
  0.000  0.300  0.000  0.000  0.000
  0.000  0.000  0.300  0.000  0.000
  0.000  0.000  0.000  0.300  0.000
  0.000  0.000  0.000  0.000  0.300
atom   22   Tr[ns(na)] =   3.00000
    eigenvalues: 
  0.300  0.300  0.300  0.300  0.300
    eigenvectors:
  1.000  0.000  0.000  0.000  0.000
  0.000  1.000  0.000  0.000  0.000
  0.000  0.000  1.000  0.000  0.000
  0.000  0.000  0.000  1.000  0.000
  0.000  0.000  0.000  0.000  1.000
    occupations:
  0.300  0.000  0.000  0.000  0.000
  0.000  0.300  0.000  0.000  0.000
  0.000  0.000  0.300  0.000  0.000
  0.000  0.000  0.000  0.300  0.000
  0.000  0.000  0.000  0.000  0.300
atom   23   Tr[ns(na)] =   3.00000
    eigenvalues: 
  0.300  0.300  0.300  0.300  0.300
    eigenvectors:
  1.000  0.000  0.000  0.000  0.000
  0.000  1.000  0.000  0.000  0.000
  0.000  0.000  1.000  0.000  0.000
  0.000  0.000  0.000  1.000  0.000
  0.000  0.000  0.000  0.000  1.000
    occupations:
  0.300  0.000  0.000  0.000  0.000
  0.000  0.300  0.000  0.000  0.000
  0.000  0.000  0.300  0.000  0.000
  0.000  0.000  0.000  0.300  0.000
  0.000  0.000  0.000  0.000  0.300
N of occupied +U levels =  24.0000000
 --- exit write_ns ---
 Atomic wfc used for LDA+U Projector are NOT orthogonalized
     Starting wfc are  184 randomized atomic wfcs

     total cpu time spent up to now is      126.5 secs

     per-process dynamical memory:   403.5 Mb

     Self-consistent Calculation

     iteration #  1     ecut=    40.00 Ry     beta=0.70
     Davidson diagonalization with overlap
     ethr =  1.00E-02,  avg # of iterations =  6.0
 --- enter write_ns ---
 LDA+U parameters:
U( 2)     =  3.00000000
alpha( 2) =  0.00000000
atom    3   Tr[ns(na)] =   3.95214
    eigenvalues: 
  0.254  0.276  0.420  0.453  0.573
    eigenvectors:
  0.000  0.000  0.037  0.497  0.465
  0.000  0.000  0.936  0.064  0.000
  0.137  0.863  0.000  0.000  0.000
  0.000  0.000  0.027  0.438  0.535
  0.863  0.137  0.000  0.000  0.000
    occupations:
  0.507 -0.007  0.000 -0.061 -0.000
 -0.007  0.422 -0.000 -0.004  0.000
  0.000 -0.000  0.273 -0.000 -0.007
 -0.061 -0.004 -0.000  0.516  0.000
 -0.000  0.000 -0.007  0.000  0.257
atom    4   Tr[ns(na)] =   4.08587
    eigenvalues: 
  0.231  0.384  0.424  0.449  0.556
    eigenvectors:
  0.000  0.001  0.000  0.974  0.026
  0.000  0.999  0.000  0.001  0.000
  1.000  0.000  0.000  0.000  0.000
  0.000  0.000  0.000  0.026  0.974
  0.000  0.000  1.000  0.000  0.000
    occupations:
  0.451  0.002  0.000 -0.017  0.000
  0.002  0.384  0.000 -0.002 -0.000
  0.000  0.000  0.231 -0.000  0.001
 -0.017 -0.002 -0.000  0.553  0.000
  0.000 -0.000  0.001  0.000  0.424
atom    9   Tr[ns(na)] =   3.55323
    eigenvalues: 
  0.246  0.277  0.288  0.482  0.484
    eigenvectors:
  0.000  0.881  0.000  0.018  0.101
  0.000  0.000  0.000  0.851  0.149
  0.999  0.000  0.001  0.000  0.000
  0.000  0.119  0.000  0.131  0.750
  0.001  0.000  0.999  0.000  0.000
    occupations:
  0.301 -0.000  0.000  0.067 -0.000
 -0.000  0.483 -0.000 -0.001 -0.000
  0.000 -0.000  0.246  0.000  0.001
  0.067 -0.001  0.000  0.459 -0.000
 -0.000 -0.000  0.001 -0.000  0.288
atom   10   Tr[ns(na)] =   3.51744
    eigenvalues: 
  0.207  0.247  0.374  0.418  0.512
    eigenvectors:
  0.000  0.000  1.000  0.000  0.000
  0.000  1.000  0.000  0.000  0.000
  1.000  0.000  0.000  0.000  0.000
  0.000  0.000  0.000  0.000  1.000
  0.000  0.000  0.000  1.000  0.000
    occupations:
  0.374  0.000  0.000  0.001 -0.000
  0.000  0.247  0.000  0.001  0.000
  0.000  0.000  0.207 -0.000 -0.000
  0.001  0.001 -0.000  0.512  0.000
 -0.000  0.000 -0.000  0.000  0.418
atom   16   Tr[ns(na)] =   3.95281
    eigenvalues: 
  0.257  0.275  0.420  0.453  0.572
    eigenvectors:
  0.000  0.000  0.037  0.498  0.465
  0.000  0.000  0.935  0.064  0.000
  0.051  0.949  0.000  0.000  0.000
  0.000  0.000  0.027  0.438  0.535
  0.949  0.051  0.000  0.000  0.000
    occupations:
  0.507  0.007  0.000 -0.061  0.000
  0.007  0.422  0.000  0.004  0.000
  0.000  0.000  0.274 -0.000  0.004
 -0.061  0.004 -0.000  0.516 -0.000
  0.000  0.000  0.004 -0.000  0.258
atom   17   Tr[ns(na)] =   4.07147
    eigenvalues: 
  0.232  0.388  0.425  0.452  0.540
    eigenvectors:
  0.000  0.001  0.000  0.966  0.034
  0.000  0.999  0.000  0.001  0.000
  1.000  0.000  0.000  0.000  0.000
  0.000  0.000  0.000  0.034  0.966
  0.000  0.000  1.000  0.000  0.000
    occupations:
  0.455  0.002  0.000 -0.016  0.000
  0.002  0.388  0.000 -0.002 -0.000
  0.000  0.000  0.232 -0.000  0.001
 -0.016 -0.002 -0.000  0.537  0.000
  0.000 -0.000  0.001  0.000  0.425
atom   22   Tr[ns(na)] =   3.55531
    eigenvalues: 
  0.246  0.277  0.288  0.482  0.484
    eigenvectors:
  0.000  0.882  0.000  0.018  0.099
  0.000  0.000  0.000  0.848  0.152
  0.999  0.000  0.001  0.000  0.000
  0.000  0.118  0.000  0.134  0.748
  0.001  0.000  0.999  0.000  0.000
    occupations:
  0.301  0.000  0.000  0.067 -0.000
  0.000  0.483 -0.000  0.001  0.000
  0.000 -0.000  0.246  0.000 -0.001
  0.067  0.001  0.000  0.460  0.000
 -0.000  0.000 -0.001  0.000  0.288
atom   23   Tr[ns(na)] =   4.03189
    eigenvalues: 
  0.293  0.316  0.396  0.470  0.541
    eigenvectors:
  0.000  0.000  0.000  0.959  0.041
  0.000  1.000  0.000  0.000  0.000
  1.000  0.000  0.000  0.000  0.000
  0.000  0.000  0.000  0.041  0.959
  0.000  0.000  1.000  0.000  0.000
    occupations:
  0.473 -0.000 -0.000 -0.014 -0.000
 -0.000  0.316  0.000 -0.001  0.000
 -0.000  0.000  0.293 -0.000  0.000
 -0.014 -0.001 -0.000  0.538 -0.000
 -0.000  0.000  0.000 -0.000  0.396
N of occupied +U levels =  30.7201662
 --- exit write_ns ---

     negative rho (up, down):  0.339E-02 0.000E+00

     total cpu time spent up to now is      463.6 secs

     total energy              =   -1552.08619078 Ry
     Harris-Foulkes estimate   =   -1564.14659191 Ry
     estimated scf accuracy    <      15.49943817 Ry

     iteration #  2     ecut=    40.00 Ry     beta=0.70
     Davidson diagonalization with overlap
     ethr =  6.98E-03,  avg # of iterations =  2.0

     negative rho (up, down):  0.126E-01 0.000E+00

     total cpu time spent up to now is      670.5 secs

     total energy              =   -1537.37354100 Ry
     Harris-Foulkes estimate   =   -1574.47053075 Ry
     estimated scf accuracy    <     135.60636706 Ry

     iteration #  3     ecut=    40.00 Ry     beta=0.70
     Davidson diagonalization with overlap
     ethr =  6.98E-03,  avg # of iterations =  4.0

     negative rho (up, down):  0.423E-02 0.000E+00

     total cpu time spent up to now is      904.0 secs

     total energy              =   -1529.98294702 Ry
     Harris-Foulkes estimate   =   -1575.10213495 Ry
     estimated scf accuracy    <     768.35055593 Ry

     iteration #  4     ecut=    40.00 Ry     beta=0.70
     Davidson diagonalization with overlap
     ethr =  6.98E-03,  avg # of iterations =  3.9

     negative rho (up, down):  0.211E-02 0.000E+00

     total cpu time spent up to now is     1137.3 secs

     total energy              =   -1559.54749975 Ry
     Harris-Foulkes estimate   =   -1561.90396551 Ry
     estimated scf accuracy    <      15.24101751 Ry

     iteration #  5     ecut=    40.00 Ry     beta=0.70
     Davidson diagonalization with overlap
     ethr =  6.87E-03,  avg # of iterations =  2.0

     negative rho (up, down):  0.204E-02 0.000E+00

     total cpu time spent up to now is     1331.1 secs

     total energy              =   -1560.45235250 Ry
     Harris-Foulkes estimate   =   -1560.94153360 Ry
     estimated scf accuracy    <       2.66108079 Ry

     iteration #  6     ecut=    40.00 Ry     beta=0.70
     Davidson diagonalization with overlap
     ethr =  1.20E-03,  avg # of iterations =  3.0

     negative rho (up, down):  0.194E-02 0.000E+00

     total cpu time spent up to now is     1526.7 secs

     total energy              =   -1560.47239108 Ry
     Harris-Foulkes estimate   =   -1560.65680279 Ry
     estimated scf accuracy    <       1.33624911 Ry

     iteration #  7     ecut=    40.00 Ry     beta=0.70
     Davidson diagonalization with overlap
     ethr =  6.02E-04,  avg # of iterations =  1.9

     negative rho (up, down):  0.178E-02 0.000E+00

     total cpu time spent up to now is     1719.4 secs

     total energy              =   -1560.42573366 Ry
     Harris-Foulkes estimate   =   -1560.54905253 Ry
     estimated scf accuracy    <       0.57763028 Ry

     iteration #  8     ecut=    40.00 Ry     beta=0.70
     Davidson diagonalization with overlap
     ethr =  2.60E-04,  avg # of iterations =  4.8

     negative rho (up, down):  0.231E-02 0.000E+00

     total cpu time spent up to now is     1925.8 secs

     total energy              =   -1560.38515760 Ry
     Harris-Foulkes estimate   =   -1560.46978143 Ry
     estimated scf accuracy    <       0.38636594 Ry

     iteration #  9     ecut=    40.00 Ry     beta=0.70
     Davidson diagonalization with overlap
     ethr =  1.74E-04,  avg # of iterations =  4.5

     negative rho (up, down):  0.331E-02 0.000E+00

     total cpu time spent up to now is     2132.1 secs

     total energy              =   -1560.39447746 Ry
     Harris-Foulkes estimate   =   -1560.42633427 Ry
     estimated scf accuracy    <       0.16208066 Ry

     iteration # 10     ecut=    40.00 Ry     beta=0.70
     Davidson diagonalization with overlap
     ethr =  7.30E-05,  avg # of iterations =  4.7

     negative rho (up, down):  0.285E-02 0.000E+00

     total cpu time spent up to now is     2333.3 secs

     total energy              =   -1560.40768410 Ry
     Harris-Foulkes estimate   =   -1560.41556009 Ry
     estimated scf accuracy    <       0.12201254 Ry

     iteration # 11     ecut=    40.00 Ry     beta=0.70
     Davidson diagonalization with overlap
     ethr =  5.50E-05,  avg # of iterations =  1.1

     negative rho (up, down):  0.226E-02 0.000E+00

     total cpu time spent up to now is     2518.1 secs

     total energy              =   -1560.40811932 Ry
     Harris-Foulkes estimate   =   -1560.41081820 Ry
     estimated scf accuracy    <       0.06281715 Ry

     iteration # 12     ecut=    40.00 Ry     beta=0.70
     Davidson diagonalization with overlap
     ethr =  2.83E-05,  avg # of iterations =  4.3

     negative rho (up, down):  0.207E-02 0.000E+00

     total cpu time spent up to now is     2732.7 secs

     total energy              =   -1560.38713260 Ry
     Harris-Foulkes estimate   =   -1560.40944265 Ry
     estimated scf accuracy    <       0.04847783 Ry

     iteration # 13     ecut=    40.00 Ry     beta=0.70
     Davidson diagonalization with overlap
     ethr =  2.18E-05,  avg # of iterations =  7.6

     negative rho (up, down):  0.220E-02 0.000E+00

     total cpu time spent up to now is     2969.0 secs

     total energy              =   -1560.38008726 Ry
     Harris-Foulkes estimate   =   -1560.42969090 Ry
     estimated scf accuracy    <       0.37300302 Ry

     iteration # 14     ecut=    40.00 Ry     beta=0.70
     Davidson diagonalization with overlap
     ethr =  2.18E-05,  avg # of iterations =  6.5

     negative rho (up, down):  0.230E-02 0.000E+00

     total cpu time spent up to now is     3189.7 secs

     total energy              =   -1560.40243986 Ry
     Harris-Foulkes estimate   =   -1560.40420263 Ry
     estimated scf accuracy    <       0.00788974 Ry

     iteration # 15     ecut=    40.00 Ry     beta=0.70
     Davidson diagonalization with overlap
     ethr =  3.55E-06,  avg # of iterations =  5.7

     negative rho (up, down):  0.263E-02 0.000E+00

     total cpu time spent up to now is     3403.7 secs

     total energy              =   -1560.40318411 Ry
     Harris-Foulkes estimate   =   -1560.40386738 Ry
     estimated scf accuracy    <       0.00210417 Ry

     iteration # 16     ecut=    40.00 Ry     beta=0.70
     Davidson diagonalization with overlap
     ethr =  9.48E-07,  avg # of iterations =  5.4

     negative rho (up, down):  0.288E-02 0.000E+00

     total cpu time spent up to now is     3612.3 secs

     total energy              =   -1560.40335560 Ry
     Harris-Foulkes estimate   =   -1560.40385549 Ry
     estimated scf accuracy    <       0.00159792 Ry

     iteration # 17     ecut=    40.00 Ry     beta=0.70
     Davidson diagonalization with overlap
     ethr =  7.20E-07,  avg # of iterations =  1.2

     negative rho (up, down):  0.321E-02 0.000E+00

     total cpu time spent up to now is     3806.4 secs

     total energy              =   -1560.40356851 Ry
     Harris-Foulkes estimate   =   -1560.40369737 Ry
     estimated scf accuracy    <       0.00039549 Ry

     iteration # 18     ecut=    40.00 Ry     beta=0.70
     Davidson diagonalization with overlap
     ethr =  1.78E-07,  avg # of iterations =  1.0

     negative rho (up, down):  0.341E-02 0.000E+00

     total cpu time spent up to now is     3991.7 secs

     total energy              =   -1560.40361002 Ry
     Harris-Foulkes estimate   =   -1560.40366524 Ry
     estimated scf accuracy    <       0.00050541 Ry

     iteration # 19     ecut=    40.00 Ry     beta=0.70
     Davidson diagonalization with overlap
     ethr =  1.78E-07,  avg # of iterations =  1.0

     negative rho (up, down):  0.350E-02 0.000E+00

     total cpu time spent up to now is     4174.3 secs

     total energy              =   -1560.40362345 Ry
     Harris-Foulkes estimate   =   -1560.40364743 Ry
     estimated scf accuracy    <       0.00006842 Ry

     iteration # 20     ecut=    40.00 Ry     beta=0.70
     Davidson diagonalization with overlap
     ethr =  3.08E-08,  avg # of iterations =  1.9

     negative rho (up, down):  0.351E-02 0.000E+00

     total cpu time spent up to now is     4373.2 secs

     total energy              =   -1560.40362985 Ry
     Harris-Foulkes estimate   =   -1560.40364935 Ry
     estimated scf accuracy    <       0.00007188 Ry

     iteration # 21     ecut=    40.00 Ry     beta=0.70
     Davidson diagonalization with overlap
     ethr =  3.08E-08,  avg # of iterations =  1.0

     negative rho (up, down):  0.352E-02 0.000E+00

     total cpu time spent up to now is     4568.4 secs

     total energy              =   -1560.40363852 Ry
     Harris-Foulkes estimate   =   -1560.40364104 Ry
     estimated scf accuracy    <       0.00001893 Ry

     iteration # 22     ecut=    40.00 Ry     beta=0.70
     Davidson diagonalization with overlap
     ethr =  8.53E-09,  avg # of iterations =  1.0

     negative rho (up, down):  0.356E-02 0.000E+00

     total cpu time spent up to now is     4753.8 secs

     total energy              =   -1560.40363876 Ry
     Harris-Foulkes estimate   =   -1560.40364070 Ry
     estimated scf accuracy    <       0.00000693 Ry

     iteration # 23     ecut=    40.00 Ry     beta=0.70
     Davidson diagonalization with overlap
     ethr =  3.12E-09,  avg # of iterations =  1.1

     negative rho (up, down):  0.350E-02 0.000E+00

     total cpu time spent up to now is     4947.6 secs

     total energy              =   -1560.40363915 Ry
     Harris-Foulkes estimate   =   -1560.40364083 Ry
     estimated scf accuracy    <       0.00000796 Ry

     iteration # 24     ecut=    40.00 Ry     beta=0.70
     Davidson diagonalization with overlap
     ethr =  3.12E-09,  avg # of iterations =  1.0

     negative rho (up, down):  0.350E-02 0.000E+00

     total cpu time spent up to now is     5135.8 secs

     total energy              =   -1560.40364003 Ry
     Harris-Foulkes estimate   =   -1560.40364023 Ry
     estimated scf accuracy    <       0.00000226 Ry

     iteration # 25     ecut=    40.00 Ry     beta=0.70
     Davidson diagonalization with overlap
     ethr =  1.02E-09,  avg # of iterations =  1.0

     negative rho (up, down):  0.348E-02 0.000E+00

     total cpu time spent up to now is     5328.0 secs

     End of self-consistent calculation
 --- enter write_ns ---
 LDA+U parameters:
U( 2)     =  3.00000000
alpha( 2) =  0.00000000
atom    3   Tr[ns(na)] =   5.22968
    eigenvalues: 
  0.378  0.430  0.538  0.586  0.683
    eigenvectors:
  0.000  0.000  0.046  0.391  0.562
  0.000  0.000  0.921  0.077  0.002
  0.205  0.795  0.000  0.000  0.000
  0.000  0.000  0.033  0.532  0.436
  0.795  0.205  0.000  0.000  0.000
    occupations:
  0.639 -0.013  0.000 -0.050 -0.000
 -0.013  0.542 -0.000 -0.006  0.000
  0.000 -0.000  0.419 -0.000 -0.021
 -0.050 -0.006 -0.000  0.627  0.000
 -0.000  0.000 -0.021  0.000  0.388
atom    4   Tr[ns(na)] =   5.23150
    eigenvalues: 
  0.401  0.438  0.554  0.585  0.637
    eigenvectors:
  0.000  0.005  0.000  0.992  0.003
  0.000  0.994  0.000  0.005  0.001
  1.000  0.000  0.000  0.000  0.000
  0.000  0.001  0.000  0.003  0.996
  0.000  0.000  1.000  0.000  0.000
    occupations:
  0.584  0.010  0.000  0.003 -0.000
  0.010  0.439 -0.000 -0.006  0.000
  0.000 -0.000  0.401  0.000  0.001
  0.003 -0.006  0.000  0.637  0.000
 -0.000  0.000  0.001  0.000  0.554
atom    9   Tr[ns(na)] =   5.26067
    eigenvalues: 
  0.455  0.460  0.488  0.612  0.616
    eigenvectors:
  0.000  0.873  0.000  0.113  0.013
  0.000  0.000  0.000  0.100  0.900
  0.682  0.000  0.318  0.000  0.000
  0.000  0.127  0.000  0.787  0.087
  0.318  0.000  0.682  0.000  0.000
    occupations:
  0.479 -0.001 -0.000  0.051 -0.000
 -0.001  0.615 -0.000 -0.001 -0.000
 -0.000 -0.000  0.465  0.000  0.016
  0.051 -0.001  0.000  0.593 -0.000
 -0.000 -0.000  0.016 -0.000  0.477
atom   10   Tr[ns(na)] =   5.06617
    eigenvalues: 
  0.358  0.465  0.513  0.551  0.647
    eigenvectors:
  0.000  0.000  0.974  0.000  0.026
  0.000  1.000  0.000  0.000  0.000
  1.000  0.000  0.000  0.000  0.000
  0.000  0.000  0.026  0.000  0.974
  0.000  0.000  0.000  1.000  0.000
    occupations:
  0.516  0.000  0.000  0.021 -0.000
  0.000  0.465  0.000  0.003  0.000
  0.000  0.000  0.358 -0.000 -0.000
  0.021  0.003 -0.000  0.643 -0.000
 -0.000  0.000 -0.000 -0.000  0.551
atom   16   Tr[ns(na)] =   5.23075
    eigenvalues: 
  0.381  0.428  0.538  0.586  0.682
    eigenvectors:
  0.000  0.000  0.047  0.391  0.562
  0.000  0.000  0.920  0.078  0.002
  0.164  0.836  0.000  0.000  0.000
  0.000  0.000  0.033  0.530  0.436
  0.836  0.164  0.000  0.000  0.000
    occupations:
  0.638  0.013  0.000 -0.049  0.000
  0.013  0.542  0.000  0.006  0.000
  0.000  0.000  0.421 -0.000  0.018
 -0.049  0.006 -0.000  0.626 -0.000
  0.000  0.000  0.018 -0.000  0.389
atom   17   Tr[ns(na)] =   5.23167
    eigenvalues: 
  0.406  0.438  0.552  0.587  0.634
    eigenvectors:
  0.000  0.005  0.000  0.995  0.001
  0.000  0.994  0.000  0.005  0.001
  1.000  0.000  0.000  0.000  0.000
  0.000  0.001  0.000  0.001  0.998
  0.000  0.000  1.000  0.000  0.000
    occupations:
  0.586  0.010  0.000  0.002 -0.000
  0.010  0.439 -0.000 -0.006 -0.000
  0.000 -0.000  0.406  0.000  0.001
  0.002 -0.006  0.000  0.633  0.000
 -0.000 -0.000  0.001  0.000  0.552
atom   22   Tr[ns(na)] =   5.26154
    eigenvalues: 
  0.455  0.460  0.488  0.613  0.616
    eigenvectors:
  0.000  0.875  0.000  0.113  0.012
  0.000  0.000  0.000  0.088  0.912
  0.682  0.000  0.318  0.000  0.000
  0.000  0.125  0.000  0.798  0.077
  0.318  0.000  0.682  0.000  0.000
    occupations:
  0.479  0.001  0.000  0.051 -0.000
  0.001  0.615 -0.000  0.001  0.000
  0.000 -0.000  0.465  0.000 -0.015
  0.051  0.001  0.000  0.594  0.000
 -0.000  0.000 -0.015  0.000  0.477
atom   23   Tr[ns(na)] =   5.34627
    eigenvalues: 
  0.490  0.512  0.521  0.544  0.606
    eigenvectors:
  0.000  0.000  0.000  0.003  0.997
  0.000  0.000  1.000  0.000  0.000
  1.000  0.000  0.000  0.000  0.000
  0.000  0.000  0.000  0.996  0.003
  0.000  1.000  0.000  0.000  0.000
    occupations:
  0.606 -0.000 -0.000 -0.004 -0.000
 -0.000  0.521 -0.000 -0.000  0.000
 -0.000 -0.000  0.490 -0.000  0.000
 -0.004 -0.000 -0.000  0.545 -0.000
 -0.000  0.000  0.000 -0.000  0.512
N of occupied +U levels =  41.8582561
 --- exit write_ns ---

          k = 0.0000 0.0000 0.0000 ( 32167 PWs)   bands (ev):

   -56.8605 -56.7662 -56.4177 -56.3618 -56.3304 -56.3223 -56.2370 -55.5347
   -33.7475 -33.0782 -32.9596 -32.9521 -32.9267 -32.8536 -32.8317 -32.8161
   -32.7527 -32.7256 -32.6999 -32.6427 -32.6247 -32.5641 -32.3901 -32.3033
   -32.2882 -32.2323 -32.1322 -32.1227 -32.0744 -31.9517 -31.5714 -31.5659
   -21.0508 -20.6020 -19.9609 -19.6842 -19.6338 -19.5777 -19.4498 -19.3207
   -19.3036 -19.0856 -18.8234 -18.7567 -18.6361 -18.3359 -18.2114 -18.2029
   -18.0892 -18.0248 -16.8278  -9.5895  -8.8763  -8.2706  -8.0597  -7.7724
    -7.4178  -6.9548  -6.7611  -6.6934  -6.6762  -6.6539  -6.6154  -6.4868
    -6.3696  -6.2744  -6.1626  -6.1440  -5.9544  -5.7733  -5.6877  -5.6676
    -5.6342  -5.5666  -5.5231  -5.4974  -5.2320  -5.2270  -4.9344  -4.7735
    -4.5993  -4.5987  -4.4237  -4.2625  -4.2522  -4.1149  -4.1086  -4.0697
    -3.8826  -3.8276  -3.7890  -3.7726  -3.7010  -3.6278  -3.4941  -3.4295
    -3.4124  -3.3985  -3.2519  -3.2196  -3.2104  -3.1272  -3.1164  -3.0379
    -2.9741  -2.6694  -2.6663  -2.3328  -1.0870  -0.7734  -0.6497   0.9514
     0.9901   1.0680   1.0713   1.2326   1.2554   1.3477   1.5052   1.5147
     1.7709   1.8983   2.1182   2.1489   2.3153   2.3449   2.4079   2.6868
     2.8717   2.8964   3.0936   3.1805   3.1946   3.8281   3.8567   3.9141
     4.3281   4.4530   4.5392   4.6601   4.7638   5.0276   5.0793   5.2644
     5.5417   5.5881   5.6389   5.6517   5.6703   5.7114   5.7603   5.8894
     6.0632   6.1762   6.3830   6.5158   6.6202   6.6495   6.8285   7.0314
     7.0585   7.3764   7.5317   7.5558   7.7901   7.8017   7.9925   8.0489
     8.1541   8.1689   8.3246   8.4096   8.4785   8.4944   8.7071   8.7524
     8.8133   8.8616   8.8918   8.9325   9.1303   9.1981   9.3566   9.4688
     9.4706   9.5631   9.5911   9.6591   9.7917   9.7950   9.8453   9.8793
     9.9433  10.0621  10.3092  10.3216  10.6044  10.6987  10.8224  10.9021
    10.9827  11.1418  11.1555  11.1929  11.2589  11.2646  11.2838  11.3573
    11.3686  11.4843  11.6209  11.7110  11.7202  11.7836  11.7882  11.9282
    11.9970  12.0020  12.1286  12.1543  12.2275  12.3130  12.4004  12.4490
    12.4723  12.5087  12.5939  12.7094  12.8701  12.8806  12.9490  12.9645
    13.0531  13.1900  13.2406  13.3666  13.5581  13.6468  13.6735  13.6810
    13.8302  13.9000  13.9190  14.0289  14.0539  14.0929  14.1764  14.2029
    14.2604  14.2751  14.6571  14.7533  14.8253  14.8743  15.0205  15.0712
    15.1098  15.1387  15.2693  15.2863  15.3502  15.4242  15.5289  15.5743
    15.6755  15.6859  15.8000  15.8161  15.9774  16.1519  16.1534  16.1645
    16.2884  16.4728  16.4985  16.6973  16.7070  16.7676  16.8179  16.8656
    16.9158  16.9428  17.0174  17.1219  17.1702  17.2918  17.3497  17.3851
    17.4061  17.5416  17.5701  17.5938  17.8688  17.8766  18.1021  18.1500
    18.1708  18.2273  18.2406  18.3155  18.3489  18.3579  18.4378  18.5028
    18.6335  18.7016  18.7261  18.7499  18.8510  18.9207  18.9720  19.0795
    19.1984  19.2582  19.3020  19.3947  19.4315  19.4914  19.5074  19.6033
    19.6372  19.7485  19.8650  19.9022  19.9662  20.0212  20.1005  20.1592
    20.2015  20.2565  20.2578  20.2776  20.3950

          k = 0.0000 0.2118 0.0000 ( 32193 PWs)   bands (ev):

   -56.8588 -56.7665 -56.4159 -56.3607 -56.3292 -56.3200 -56.2376 -55.5337
   -33.7469 -33.0776 -32.9608 -32.9436 -32.9380 -32.8639 -32.8314 -32.8163
   -32.7307 -32.7247 -32.6999 -32.6427 -32.6095 -32.5512 -32.4182 -32.3030
   -32.2972 -32.2328 -32.1319 -32.1225 -32.0742 -31.9521 -31.5708 -31.5690
   -21.0484 -20.6003 -19.9452 -19.6330 -19.5531 -19.5056 -19.3948 -19.3696
   -19.3190 -19.2596 -19.1584 -18.5415 -18.4068 -18.4027 -18.2701 -18.2084
   -18.0829 -18.0259 -16.8275  -9.5882  -8.8724  -8.2701  -7.6848  -7.5048
    -7.2769  -7.1427  -7.0174  -7.0097  -6.8054  -6.7232  -6.6599  -6.6224
    -6.5111  -6.3841  -6.3095  -6.0044  -5.7251  -5.6689  -5.5994  -5.5574
    -5.5405  -5.3741  -5.3333  -5.3186  -5.0972  -5.0590  -4.9714  -4.7848
    -4.7626  -4.7306  -4.5304  -4.4652  -4.4066  -4.1781  -4.1284  -3.9553
    -3.9431  -3.8641  -3.8508  -3.6980  -3.6214  -3.6183  -3.5892  -3.5246
    -3.4805  -3.4389  -3.3339  -3.2692  -3.2506  -3.1911  -3.1271  -3.0384
    -3.0111  -2.7580  -2.7442  -2.4418  -0.7834  -0.6321  -0.2333   0.4258
     0.6209   0.9269   1.0723   1.2238   1.3626   1.7414   1.8112   1.8234
     1.9241   2.0877   2.1175   2.1956   2.2362   2.3591   2.4117   2.7208
     2.8629   2.9277   3.0008   3.2316   3.2619   3.6882   3.8793   4.1170
     4.3510   4.4833   4.4907   4.6961   4.7080   4.8481   4.8701   5.0469
     5.2990   5.3418   5.3590   5.4012   5.4189   5.6870   6.0506   6.2754
     6.2972   6.4592   6.4739   6.5927   6.6242   6.6997   6.7570   6.8558
     6.8766   7.0490   7.1784   7.5346   7.6714   7.7141   7.7927   7.9458
     8.1427   8.3366   8.5235   8.6641   8.6867   8.7196   8.7322   8.9342
     8.9492   9.0641   9.0915   9.2005   9.2892   9.3497   9.3739   9.4605
     9.6127   9.7222   9.7491   9.8123   9.8196   9.9017   9.9768   9.9903
    10.0758  10.1341  10.3297  10.3947  10.4792  10.5731  10.6779  10.7578
    10.7782  10.7855  10.8668  10.9915  11.0403  11.1046  11.1125  11.2924
    11.3397  11.4374  11.5595  11.6385  11.6580  11.8560  11.9130  11.9220
    12.1299  12.2421  12.2930  12.3016  12.4666  12.5653  12.6016  12.6548
    12.6902  12.7118  12.7693  12.8205  12.8881  13.0089  13.0390  13.1951
    13.2490  13.3112  13.4426  13.4533  13.5346  13.5960  13.6267  13.7028
    13.8091  13.8623  13.9076  13.9361  14.0765  14.1120  14.1597  14.1803
    14.3245  14.3684  14.3857  14.3923  14.5267  14.7016  14.7966  14.8049
    14.9188  14.9577  15.1599  15.1742  15.2466  15.2848  15.2964  15.3395
    15.4612  15.5338  15.6830  15.7678  16.0210  16.0587  16.1264  16.1758
    16.2701  16.3079  16.4765  16.4866  16.4928  16.5788  16.6866  16.7236
    16.7452  16.8121  16.9161  17.0166  17.1118  17.1978  17.2977  17.3941
    17.5022  17.6131  17.6818  17.6964  17.7876  17.8420  17.9030  17.9523
    17.9725  18.0660  18.1226  18.1973  18.2457  18.2872  18.3366  18.3756
    18.4333  18.6520  18.6709  18.7080  18.7538  18.8524  18.8539  18.9168
    18.9521  19.0293  19.0801  19.1296  19.1681  19.2135  19.3809  19.4400
    19.5210  19.6573  19.6668  19.6882  19.8160  19.8753  19.9580  20.0303
    20.0768  20.1099  20.1629  20.1761  20.2056

          k = 0.0000-0.4237 0.0000 ( 32162 PWs)   bands (ev):

   -56.8570 -56.7668 -56.4142 -56.3595 -56.3281 -56.3177 -56.2381 -55.5327
   -33.7463 -33.0771 -32.9610 -32.9482 -32.9358 -32.8733 -32.8311 -32.8163
   -32.7251 -32.7024 -32.6998 -32.6427 -32.5953 -32.5392 -32.4511 -32.3065
   -32.3026 -32.2331 -32.1316 -32.1223 -32.0740 -31.9525 -31.5721 -31.5702
   -21.0461 -20.5987 -19.9360 -19.6318 -19.5625 -19.5188 -19.3493 -19.3202
   -19.3188 -19.2005 -18.9756 -18.8868 -18.7671 -18.2062 -18.2002 -18.0782
   -18.0737 -18.0274 -16.8272  -9.5869  -8.8683  -8.2693  -7.4957  -7.3566
    -7.2042  -7.2020  -7.0727  -6.9722  -6.8389  -6.6612  -6.6285  -6.6247
    -6.4908  -6.4594  -6.0390  -6.0035  -5.9457  -5.9007  -5.8010  -5.6779
    -5.5690  -5.5196  -5.2845  -5.2373  -5.0601  -5.0076  -5.0038  -4.7643
    -4.6610  -4.4989  -4.4664  -4.4341  -4.4119  -4.2222  -4.1220  -4.0891
    -4.0167  -3.8457  -3.7926  -3.7755  -3.7497  -3.7327  -3.7172  -3.6543
    -3.5659  -3.3869  -3.2742  -3.2658  -3.1871  -3.1652  -3.1175  -2.9427
    -2.9366  -2.8470  -2.7426  -2.7125  -0.7661  -0.3203   0.0904   0.1301
     0.2746   0.8252   1.0711   1.2120   1.7038   1.8843   1.8853   1.9851
     2.0440   2.1403   2.2377   2.2981   2.3209   2.4085   2.4439   2.7333
     2.8454   2.9484   2.9506   3.3392   3.3989   3.4648   3.5102   4.1037
     4.2215   4.5008   4.5513   4.6342   4.8750   4.9357   4.9896   5.0179
     5.1041   5.2879   5.2897   5.3549   5.5195   5.5269   5.8069   5.8367
     6.1775   6.3283   6.6229   6.6502   6.6562   6.7969   6.8797   6.8836
     6.9566   7.0062   7.1432   7.2805   7.3523   7.8953   7.9225   8.1213
     8.1315   8.1749   8.5866   8.6317   8.6381   8.7706   8.7986   8.8558
     8.9191   9.1149   9.3152   9.3764   9.4701   9.4842   9.5607   9.5665
     9.6168   9.6704   9.7515   9.7729   9.8397   9.9353   9.9817  10.3264
    10.3494  10.3648  10.4218  10.4689  10.5780  10.6931  10.8586  10.8905
    10.9570  11.0316  11.1540  11.1761  11.2252  11.3148  11.3252  11.3626
    11.3879  11.4430  11.4466  11.4913  11.6465  11.6779  11.7112  11.7138
    11.8419  11.9492  12.0816  12.1156  12.1690  12.1808  12.2637  12.2696
    12.5254  12.6552  12.7529  12.8655  12.9295  12.9395  13.0191  13.0803
    13.1390  13.2517  13.2920  13.5223  13.5274  13.6480  13.6890  13.7972
    13.8744  13.9634  13.9878  14.0449  14.0676  14.1709  14.2200  14.4436
    14.5911  14.6495  14.7567  14.7804  14.8659  14.8688  14.9000  14.9242
    14.9661  15.0433  15.1524  15.2436  15.2497  15.4160  15.4343  15.5651
    15.5814  15.6285  15.6784  15.7317  15.7690  15.8971  15.9632  16.0715
    16.1442  16.1773  16.1938  16.2165  16.2678  16.3934  16.5386  16.5817
    16.6775  16.7310  16.7472  16.7482  16.8350  16.8679  16.9065  17.1444
    17.1775  17.2118  17.3667  17.4487  17.5174  17.5371  17.5704  17.6378
    17.7237  17.7465  17.7514  17.9129  17.9687  18.1042  18.1405  18.2399
    18.3138  18.4140  18.4190  18.4703  18.5037  18.5210  18.5738  18.5835
    18.7258  18.8437  18.8512  19.1204  19.1328  19.1690  19.3037  19.4192
    19.4498  19.5476  19.5703  19.5806  19.6351  19.7003  19.7036  19.7127
    19.8507  20.2275  20.2708  20.2788  20.3084

          k = 0.2500 0.0000 0.0000 ( 32181 PWs)   bands (ev):

   -56.8457 -56.7790 -56.4006 -56.3586 -56.3354 -56.3008 -56.2408 -55.5314
   -33.6107 -33.0543 -32.9448 -32.9377 -32.8843 -32.8678 -32.8352 -32.8102
   -32.7357 -32.7318 -32.7134 -32.6487 -32.6412 -32.5016 -32.3703 -32.2838
   -32.2732 -32.2575 -32.2146 -32.1860 -32.1258 -32.0618 -31.6551 -31.5727
   -21.0069 -20.5759 -19.8729 -19.6043 -19.5581 -19.4312 -19.3307 -19.2560
   -19.2254 -18.9745 -18.8882 -18.7650 -18.7342 -18.4440 -18.4039 -18.2908
   -18.2393 -18.0988 -16.8271  -9.4883  -8.9135  -8.0738  -7.7953  -7.5987
    -7.3906  -6.9292  -6.6789  -6.6658  -6.6585  -6.5863  -6.4464  -6.4441
    -6.3576  -6.2799  -6.2713  -6.0730  -6.0569  -5.9477  -5.9364  -5.8108
    -5.7281  -5.4824  -5.2763  -5.1549  -5.1234  -5.0145  -4.9435  -4.7980
    -4.6117  -4.4953  -4.4709  -4.3492  -4.3193  -4.2865  -4.2311  -4.0894
    -4.0102  -3.9388  -3.9034  -3.8326  -3.7573  -3.7024  -3.6793  -3.6058
    -3.5698  -3.4599  -3.3573  -3.3306  -3.2617  -3.1563  -3.1267  -3.0217
    -2.9953  -2.7159  -2.7062  -2.4068  -0.6201  -0.3946  -0.1950   0.7833
     1.0538   1.0779   1.1421   1.2133   1.2545   1.3709   1.4857   1.6609
     1.7686   1.8265   1.8690   2.0720   2.1535   2.1795   2.2963   2.2991
     2.4682   2.6673   2.7164   3.0766   3.1421   3.7703   4.0217   4.0963
     4.2665   4.6898   4.7235   4.8806   4.9819   5.1102   5.2450   5.4392
     5.4735   5.4832   5.5004   5.5053   5.5654   5.6397   5.8632   5.9692
     5.9942   6.0170   6.2952   6.3803   6.5106   6.6717   6.9071   7.0477
     7.2067   7.2686   7.2886   7.3631   7.6845   7.7555   7.7578   7.8262
     7.8519   8.0162   8.0336   8.2810   8.3950   8.5027   8.5344   8.6403
     8.7122   8.8962   9.1217   9.1430   9.1617   9.2384   9.2656   9.4054
     9.4509   9.4902   9.7019   9.8281   9.8649   9.8992   9.9489  10.0412
    10.1162  10.1555  10.2348  10.4703  10.5671  10.6164  10.6204  10.8550
    10.9119  10.9572  11.0510  11.0568  11.0896  11.2306  11.3144  11.4829
    11.5550  11.5946  11.6984  11.7597  11.7653  11.8190  11.8615  11.9650
    12.2286  12.3018  12.3732  12.4971  12.5314  12.5742  12.6285  12.6442
    12.7445  12.9123  13.0917  13.1302  13.2418  13.3055  13.3334  13.4132
    13.4377  13.6454  13.6908  13.7645  13.7986  13.8476  14.0204  14.0971
    14.1325  14.1924  14.2265  14.2679  14.3011  14.3897  14.5338  14.6421
    14.7117  14.7652  14.8204  14.8884  14.9438  14.9837  15.1345  15.1404
    15.3017  15.3287  15.3604  15.4368  15.5449  15.5800  15.6468  15.7629
    15.7911  15.8563  15.8890  15.9226  16.0051  16.1623  16.2479  16.3398
    16.3941  16.4374  16.6110  16.6141  16.7264  16.7728  16.7905  16.8572
    16.8967  16.9097  16.9822  17.0917  17.1366  17.2047  17.2274  17.2830
    17.3724  17.4530  17.5050  17.5479  17.5904  17.7575  17.7831  17.8042
    17.8537  17.9065  18.0324  18.1061  18.1251  18.1845  18.2171  18.3010
    18.3823  18.4872  18.5646  18.6060  18.6888  18.6997  18.7860  18.7971
    18.8569  18.8788  18.9468  18.9639  19.0609  19.0948  19.2302  19.2801
    19.3422  19.3462  19.3854  19.4367  19.5117  19.5340  19.6910  19.7237
    19.7255  19.8001  19.8071  19.9189  19.9457

          k = 0.2500 0.2118 0.0000 ( 32165 PWs)   bands (ev):

   -56.8443 -56.7790 -56.3989 -56.3575 -56.3341 -56.2991 -56.2410 -55.5303
   -33.6101 -33.0539 -32.9466 -32.9303 -32.8843 -32.8732 -32.8383 -32.8233
   -32.7359 -32.7151 -32.7116 -32.6486 -32.6180 -32.4925 -32.3949 -32.2923
   -32.2733 -32.2612 -32.2116 -32.1866 -32.1256 -32.0618 -31.6537 -31.5766
   -21.0051 -20.5743 -19.8636 -19.6026 -19.4437 -19.3466 -19.3201 -19.3007
   -19.2363 -19.1717 -19.1013 -18.6183 -18.5214 -18.4619 -18.4003 -18.3748
   -18.2362 -18.0943 -16.8269  -9.4868  -8.9104  -8.0726  -7.5675  -7.3762
    -7.1742  -7.0312  -7.0067  -6.8410  -6.7234  -6.6755  -6.6314  -6.4024
    -6.3564  -6.3529  -6.2264  -6.0829  -6.0532  -5.9257  -5.8397  -5.6266
    -5.5141  -5.3813  -5.2782  -5.0845  -4.9643  -4.9114  -4.8005  -4.7348
    -4.6710  -4.6255  -4.5013  -4.4860  -4.4422  -4.3861  -4.3471  -4.2950
    -4.1202  -4.0775  -4.0107  -3.9193  -3.8731  -3.7707  -3.6966  -3.6344
    -3.5242  -3.4318  -3.3747  -3.2895  -3.2655  -3.1789  -3.0683  -2.9847
    -2.9492  -2.7868  -2.7016  -2.4512  -0.4461  -0.1870   0.1505   0.5747
     0.6059   0.9497   1.2141   1.2843   1.3674   1.6351   1.6619   1.7424
     1.8461   1.9408   2.0234   2.0970   2.1978   2.2362   2.3193   2.3470
     2.5725   2.6210   2.8174   2.9183   3.2762   3.6352   4.0718   4.1381
     4.3750   4.5489   4.6088   4.6292   4.8924   4.9602   5.0064   5.0912
     5.2029   5.2624   5.4028   5.5917   5.6305   5.7309   5.9630   6.0424
     6.1835   6.2057   6.5027   6.5416   6.5727   6.6008   6.7748   6.8698
     6.8913   7.0610   7.1931   7.2775   7.4309   7.4907   7.7929   7.9183
     8.0029   8.0318   8.1155   8.1779   8.2507   8.5168   8.6314   8.6941
     8.8116   8.8879   9.0036   9.0769   9.1631   9.2605   9.2721   9.4721
     9.5397   9.5967   9.7447   9.8606   9.9047  10.0056  10.0705  10.1493
    10.2585  10.3771  10.5657  10.7183  10.7586  10.9005  10.9666  10.9979
    11.1195  11.1481  11.2130  11.2820  11.3962  11.4402  11.5009  11.5438
    11.6473  11.7584  11.8931  11.8994  12.0046  12.1088  12.1340  12.1973
    12.2626  12.3532  12.3859  12.4664  12.6089  12.6630  12.6912  12.7353
    12.7610  12.8613  12.9547  12.9877  13.0395  13.0940  13.2264  13.2745
    13.3525  13.3865  13.5136  13.6202  13.7044  13.7434  13.7872  13.8518
    13.9164  13.9450  14.0030  14.1263  14.1529  14.2866  14.3758  14.3976
    14.4758  14.5856  14.6606  14.7745  14.9103  14.9231  15.0265  15.1017
    15.1927  15.2534  15.2882  15.3214  15.3854  15.4440  15.5236  15.5705
    15.6442  15.6912  15.7904  15.8619  15.9095  15.9914  16.0350  16.0765
    16.2035  16.2682  16.3606  16.3934  16.4631  16.4925  16.5682  16.6734
    16.7200  16.7707  16.8556  16.9390  17.0138  17.1054  17.1377  17.2121
    17.2816  17.3439  17.3657  17.4222  17.4686  17.5717  17.6143  17.7065
    17.7495  17.8531  17.9481  17.9705  18.0794  18.1403  18.1920  18.3814
    18.3870  18.4325  18.4672  18.5354  18.6159  18.6541  18.6937  18.7748
    18.8562  18.9201  18.9686  19.0823  19.1363  19.1716  19.2231  19.3238
    19.3579  19.3981  19.4890  19.5210  19.5913  19.6453  19.6568  19.6894
    19.7566  19.8818  19.9056  19.9950  20.0669

          k = 0.2500-0.4237 0.0000 ( 32188 PWs)   bands (ev):

   -56.8429 -56.7790 -56.3972 -56.3563 -56.3327 -56.2973 -56.2413 -55.5293
   -33.6096 -33.0534 -32.9473 -32.9242 -32.8843 -32.8781 -32.8460 -32.8288
   -32.7360 -32.7132 -32.6921 -32.6485 -32.5977 -32.4836 -32.4223 -32.3010
   -32.2740 -32.2647 -32.2085 -32.1876 -32.1253 -32.0618 -31.6523 -31.5804
   -21.0033 -20.5727 -19.8574 -19.6007 -19.4682 -19.3641 -19.3090 -19.2442
   -19.2309 -19.0454 -18.9818 -18.8449 -18.8409 -18.3990 -18.3458 -18.2338
   -18.2154 -18.0868 -16.8266  -9.4854  -8.9074  -8.0709  -7.5115  -7.1931
    -7.0523  -7.0393  -6.8789  -6.8732  -6.8002  -6.5592  -6.5438  -6.4735
    -6.4200  -6.3721  -6.3096  -6.2859  -6.1186  -6.0631  -5.7326  -5.6995
    -5.3095  -5.1930  -5.1595  -5.0884  -4.9439  -4.8667  -4.8472  -4.7953
    -4.7340  -4.6759  -4.6152  -4.5741  -4.4705  -4.4291  -4.4257  -4.3177
    -4.2483  -4.1508  -4.0477  -4.0070  -3.9737  -3.7995  -3.7639  -3.6409
    -3.5632  -3.4112  -3.3597  -3.3473  -3.1865  -3.1776  -3.0475  -2.9391
    -2.7883  -2.7860  -2.6477  -2.6183  -0.4347   0.0818   0.3141   0.3314
     0.4606   0.9051   1.2198   1.3492   1.5287   1.6360   1.8164   1.9507
     2.0427   2.0833   2.0998   2.1253   2.1273   2.3837   2.4711   2.4793
     2.5034   2.6785   2.8896   2.9628   3.4234   3.4831   3.7639   3.9712
     4.0755   4.2006   4.5093   4.6326   4.7809   4.9030   5.0571   5.0743
     5.1748   5.3274   5.5377   5.5945   5.7312   5.7931   5.8755   5.9033
     5.9808   6.1171   6.2980   6.5207   6.5253   6.6330   6.7635   7.0616
     7.1198   7.1587   7.1648   7.2503   7.3521   7.4629   7.6505   7.7581
     7.8368   8.0239   8.1994   8.2306   8.3273   8.3702   8.4269   8.4648
     8.5160   8.8074   8.8338   8.8737   9.0414   9.2732   9.2910   9.5078
     9.7860   9.8729  10.0272  10.1125  10.1777  10.2591  10.4194  10.4387
    10.6448  10.8439  10.8684  10.9480  10.9687  11.2519  11.2687  11.2804
    11.3384  11.4136  11.4358  11.4906  11.5515  11.5982  11.6531  11.7836
    11.8288  11.8441  11.9097  11.9333  11.9993  12.0442  12.1226  12.2197
    12.2314  12.3068  12.4144  12.4182  12.5373  12.5922  12.6699  12.7563
    12.7648  12.8434  12.8877  12.9189  13.0277  13.0446  13.1694  13.2813
    13.3208  13.3583  13.4285  13.5135  13.5385  13.6482  13.6715  13.6778
    13.7252  13.7719  13.8370  13.9317  13.9642  14.0108  14.0242  14.2234
    14.2445  14.3251  14.4254  14.4798  14.5687  14.7197  14.7235  14.8336
    14.9210  15.0993  15.1093  15.1699  15.1784  15.2572  15.3187  15.3960
    15.4429  15.5254  15.6633  15.7126  15.7504  15.8734  16.0179  16.0535
    16.1601  16.2820  16.2848  16.4253  16.4424  16.5152  16.6811  16.6921
    16.7747  16.8190  16.8603  16.8917  17.0104  17.0277  17.1352  17.2017
    17.2225  17.2771  17.4192  17.4287  17.5663  17.5697  17.6203  17.6823
    17.7335  17.8338  17.8951  17.9539  17.9626  18.0948  18.1006  18.1845
    18.3700  18.4052  18.4594  18.4774  18.5117  18.5720  18.6905  18.7404
    18.7421  18.8201  18.8778  18.8846  18.9800  19.0802  19.1205  19.2330
    19.2853  19.3051  19.3312  19.4075  19.4613  19.4843  19.5526  19.6519
    19.6733  19.7483  19.7775  19.8745  19.8956

          k =-0.5000 0.0000 0.0000 ( 32166 PWs)   bands (ev):

   -56.8140 -56.8085 -56.3776 -56.3555 -56.3464 -56.2632 -56.2607 -55.5281
   -33.2773 -33.2597 -32.9519 -32.9367 -32.9290 -32.9066 -32.8987 -32.7016
   -32.6854 -32.6830 -32.6585 -32.5376 -32.5151 -32.4877 -32.4299 -32.4273
   -32.3292 -32.3040 -32.2793 -32.2057 -32.1755 -32.1108 -31.7573 -31.5796
   -20.9629 -20.5494 -19.7373 -19.6791 -19.4197 -19.2151 -19.1930 -19.0841
   -19.0599 -18.8586 -18.8465 -18.7570 -18.7335 -18.7097 -18.7062 -18.5565
   -18.4670 -18.1164 -16.8265  -9.3854  -8.9488  -7.7178  -7.6774  -7.1735
    -7.0905  -7.0666  -6.9463  -6.9124  -6.6500  -6.5831  -6.5338  -6.5093
    -6.4013  -6.3654  -6.3011  -5.8454  -5.7655  -5.6650  -5.6120  -5.5296
    -5.4082  -5.3492  -5.3073  -5.1785  -5.1482  -5.1285  -5.1122  -4.9610
    -4.8392  -4.8240  -4.5476  -4.5052  -4.4977  -4.4277  -4.4100  -4.2789
    -4.2161  -4.0837  -3.9952  -3.8898  -3.8616  -3.7534  -3.6973  -3.6847
    -3.6813  -3.4211  -3.3258  -3.2666  -3.2037  -3.1717  -3.0997  -2.9692
    -2.8641  -2.7583  -2.7410  -2.5134   0.0616   0.5016   0.5913   0.6471
     0.6911   0.7791   0.9585   0.9942   1.1917   1.1957   1.2001   1.5263
     1.6049   1.6059   1.6939   1.8451   1.9110   1.9300   2.0949   2.4833
     2.6847   2.6921   2.9091   2.9921   3.1480   3.2461   3.6595   4.6555
     4.6763   4.8477   4.8574   5.1280   5.2346   5.2897   5.3303   5.3732
     5.4077   5.4163   5.4291   5.4927   5.4937   5.6276   5.6508   5.7637
     5.8116   6.2123   6.2967   6.3904   6.4343   6.5063   6.6567   6.6848
     6.7853   7.0339   7.3055   7.3252   7.3829   7.5029   7.9785   7.9878
     8.0455   8.0532   8.1318   8.2816   8.4844   8.5980   8.6612   8.6633
     8.6993   8.7518   8.8374   8.9292   8.9740   9.1050   9.1314   9.2171
     9.4188   9.5463   9.6528   9.7016   9.8051   9.8484   9.9436  10.0403
    10.0927  10.1252  10.2965  10.3861  10.4389  10.5373  10.5936  10.7144
    10.8778  11.0130  11.0922  11.2016  11.2559  11.3783  11.3812  11.3988
    11.5437  11.7313  11.8954  12.1631  12.2097  12.3756  12.3852  12.4685
    12.5390  12.6817  12.6964  12.7134  12.7329  12.7592  13.0803  13.0834
    13.1142  13.1740  13.2121  13.2811  13.4353  13.6848  13.7093  13.7249
    13.7876  13.9201  13.9433  14.0296  14.1148  14.1955  14.2607  14.3199
    14.3414  14.4681  14.4907  14.4963  14.5407  14.6552  14.6945  14.7880
    14.8443  14.8488  14.9408  14.9788  15.1424  15.3273  15.3835  15.4822
    15.5829  15.5970  15.6445  15.7721  15.7850  15.8209  15.8886  15.9114
    16.0559  16.0617  16.1225  16.1422  16.1561  16.2284  16.3211  16.3798
    16.4211  16.5331  16.6335  16.7747  16.7949  16.8240  16.8853  16.9024
    16.9605  17.0243  17.0770  17.0926  17.1382  17.1715  17.1898  17.2392
    17.2927  17.3227  17.3553  17.3816  17.5377  17.5596  17.5878  17.6418
    17.6757  17.7403  17.7584  17.8119  17.8540  17.8830  17.9328  17.9584
    17.9665  17.9700  18.0320  18.1694  18.2008  18.2310  18.2381  18.3503
    18.4098  18.4311  18.4556  18.6454  18.6787  18.7187  18.7316  18.8526
    18.9408  18.9589  18.9836  18.9955  19.0684  19.1343  19.1626  19.1969
    19.2132  19.4044  19.4302  19.4600  19.4833

          k =-0.5000 0.2118 0.0000 ( 32144 PWs)   bands (ev):

   -56.8133 -56.8079 -56.3760 -56.3543 -56.3448 -56.2626 -56.2600 -55.5269
   -33.2771 -33.2592 -32.9508 -32.9386 -32.9289 -32.9033 -32.8982 -32.7019
   -32.6867 -32.6836 -32.6583 -32.5219 -32.5018 -32.4894 -32.4323 -32.4218
   -32.3411 -32.3165 -32.2873 -32.2054 -32.1753 -32.1107 -31.7545 -31.5842
   -20.9616 -20.5479 -19.7345 -19.6757 -19.4127 -19.2194 -19.1971 -19.0781
   -19.0523 -18.8618 -18.8486 -18.7647 -18.7472 -18.6859 -18.6846 -18.5359
   -18.5026 -18.1110 -16.8262  -9.3835  -8.9463  -7.7077  -7.6661  -7.0963
    -7.0727  -7.0549  -6.9840  -6.9124  -6.6585  -6.6452  -6.4150  -6.3670
    -6.2375  -6.2174  -6.1802  -5.8156  -5.6946  -5.6621  -5.6220  -5.5759
    -5.4812  -5.4072  -5.3859  -5.3617  -5.3586  -5.2611  -5.1608  -5.0098
    -4.9715  -4.7560  -4.6237  -4.5250  -4.4450  -4.4252  -4.3810  -4.2804
    -4.2376  -4.1504  -4.1069  -4.0332  -3.8758  -3.8486  -3.8054  -3.6184
    -3.5173  -3.4690  -3.3735  -3.2916  -3.2308  -3.1742  -3.0315  -2.9322
    -2.9097  -2.7536  -2.6130  -2.5321   0.1106   0.5465   0.6286   0.7779
     0.8459   0.9458   0.9552   1.0390   1.0474   1.2473   1.3863   1.5950
     1.6487   1.7424   1.7961   1.8565   2.0051   2.0412   2.2339   2.3489
     2.6235   2.6688   2.7526   3.2252   3.2548   3.3587   3.5661   4.5620
     4.5756   4.6036   4.6521   4.7218   4.7469   5.0625   5.0839   5.3116
     5.3226   5.4551   5.4586   5.6006   5.6393   5.8803   5.8904   5.9914
     5.9998   6.0834   6.0960   6.3811   6.5309   6.5922   6.6080   6.7308
     6.7798   6.9456   7.2888   7.3788   7.3910   7.5158   7.5437   7.5854
     7.6902   7.7812   7.8373   7.8504   8.0860   8.2051   8.5310   8.6752
     8.7945   8.8627   8.9247   8.9586   9.0507   9.0793   9.5580   9.6321
     9.6574   9.7946   9.8813  10.0077  10.1313  10.1881  10.2248  10.2411
    10.3305  10.3964  10.4938  10.5928  10.6367  10.7575  10.8831  10.9017
    11.1475  11.2930  11.3264  11.4697  11.4712  11.5153  11.5831  11.7471
    11.8229  11.8581  12.0802  12.1566  12.2569  12.3814  12.5003  12.5665
    12.6067  12.7599  12.7863  12.8170  12.8669  12.9604  13.1377  13.2224
    13.2708  13.3103  13.3510  13.4107  13.4733  13.5277  13.5979  13.6863
    13.7449  13.7883  13.8616  13.9024  13.9297  13.9672  14.1172  14.1585
    14.1687  14.3061  14.3119  14.4087  14.4400  14.5393  14.5639  14.6396
    14.7217  14.7352  14.8277  14.8662  14.9132  14.9992  15.0376  15.0595
    15.0814  15.1087  15.2548  15.2771  15.3180  15.4295  15.5073  15.5570
    15.6162  15.6451  15.7938  15.8170  15.8547  15.9313  15.9486  15.9553
    16.0196  16.0947  16.1243  16.2478  16.2714  16.3316  16.3591  16.4091
    16.4651  16.6351  16.6950  16.8061  16.8579  16.8592  16.9369  16.9801
    17.1153  17.1318  17.1618  17.3467  17.3649  17.3677  17.5215  17.5424
    17.5928  17.6406  17.7089  17.7386  17.7914  17.8243  17.9215  18.0116
    18.0352  18.1202  18.1664  18.3172  18.4204  18.4712  18.4867  18.6658
    18.6949  18.8348  18.8510  18.8764  18.9227  19.0106  19.0329  19.1652
    19.1760  19.2340  19.2464  19.3808  19.4013  19.4356  19.5354  19.6383
    19.7096  19.7686  19.8344  19.8909  19.9414

          k =-0.5000-0.4237 0.0000 ( 32256 PWs)   bands (ev):

   -56.8127 -56.8072 -56.3744 -56.3532 -56.3432 -56.2619 -56.2593 -55.5258
   -33.2769 -33.2587 -32.9493 -32.9406 -32.9288 -32.9037 -32.8943 -32.7022
   -32.6885 -32.6832 -32.6581 -32.5046 -32.4913 -32.4863 -32.4352 -32.4161
   -32.3550 -32.3308 -32.2953 -32.2051 -32.1751 -32.1107 -31.7518 -31.5889
   -20.9603 -20.5464 -19.7317 -19.6724 -19.4061 -19.2239 -19.2013 -19.0947
   -19.0160 -18.8643 -18.8501 -18.7678 -18.7539 -18.6690 -18.6674 -18.5439
   -18.5168 -18.1055 -16.8260  -9.3818  -8.9439  -7.6985  -7.6555  -7.0445
    -7.0318  -7.0101  -6.9566  -6.8377  -6.6679  -6.6069  -6.4503  -6.3327
    -6.1198  -6.0989  -6.0691  -5.7868  -5.7619  -5.7347  -5.5923  -5.5766
    -5.5654  -5.5218  -5.4581  -5.4468  -5.4041  -5.3995  -5.0482  -4.8946
    -4.8646  -4.6679  -4.6285  -4.6143  -4.5567  -4.5534  -4.5070  -4.3744
    -4.2837  -4.2517  -4.2239  -4.2043  -4.0726  -3.8336  -3.7900  -3.6561
    -3.4349  -3.4306  -3.3848  -3.3403  -3.2057  -3.2045  -2.8839  -2.8794
    -2.8101  -2.7860  -2.5679  -2.5513   0.1316   0.4410   0.6115   0.8077
     0.8861   0.8932   0.9721   1.0053   1.4050   1.4438   1.5809   1.7837
     1.8198   1.8286   1.8934   1.9597   2.1339   2.2082   2.2476   2.4232
     2.5171   2.5433   2.7758   3.3911   3.3923   3.4601   3.5134   4.0309
     4.0604   4.0696   4.2253   4.5126   4.5258   5.0923   5.1597   5.3431
     5.3888   5.6345   5.6429   5.7432   5.7865   5.8936   5.9156   5.9361
     6.1057   6.3456   6.4321   6.4439   6.4842   6.4914   6.5315   6.5901
     6.6412   6.8302   6.8919   6.9645   7.0839   7.2363   7.2444   7.3473
     7.7478   8.0356   8.0360   8.0780   8.1532   8.2204   8.2895   8.3083
     8.7508   8.8385   9.0364   9.1245   9.1467   9.2505   9.3011   9.3723
     9.4245   9.5143   9.6671   9.7138  10.4961  10.6554  10.7197  10.7833
    10.8063  10.8383  10.8809  10.8933  11.0057  11.1918  11.5880  11.6011
    11.6105  11.7396  11.8165  11.8287  11.8985  11.9909  12.0249  12.0457
    12.1260  12.2088  12.2915  12.4453  12.4629  12.5331  12.5733  12.5898
    12.6008  12.6662  12.6789  12.8066  12.8244  12.9114  13.0079  13.0262
    13.0393  13.1167  13.1620  13.1899  13.3568  13.3932  13.3998  13.4247
    13.4807  13.5051  13.5336  13.5697  13.8275  13.8919  13.9184  13.9293
    14.0439  14.0465  14.0690  14.0710  14.2421  14.2779  14.2902  14.3068
    14.3594  14.6131  14.6357  14.6698  14.6754  14.7035  14.7531  14.7664
    14.7751  14.8613  14.9667  15.0607  15.0961  15.1125  15.2283  15.2556
    15.4404  15.4434  15.4604  15.4958  15.5738  15.6393  15.7183  15.7736
    15.8365  15.8816  15.8837  15.9195  16.0101  16.0481  16.0913  16.0993
    16.3305  16.3633  16.6225  16.6611  16.7416  16.7656  16.8199  16.9210
    17.0197  17.0599  17.1887  17.2866  17.3141  17.3988  17.5137  17.5433
    17.5447  17.5655  17.6257  17.6572  17.7276  17.7762  17.8059  18.0031
    18.0612  18.2254  18.3176  18.3527  18.4065  18.5601  18.6285  18.6356
    18.6462  18.9287  18.9617  18.9884  18.9891  19.1221  19.2266  19.5259
    19.5312  19.5383  19.5627  19.6030  19.6226  19.6626  19.7242  19.8930
    19.9103  19.9338  20.2193  20.2400  20.3240

          k =-0.2500 0.2118 0.0000 ( 32165 PWs)   bands (ev):

   -56.8443 -56.7790 -56.3989 -56.3575 -56.3341 -56.2991 -56.2410 -55.5303
   -33.6101 -33.0539 -32.9466 -32.9303 -32.8843 -32.8732 -32.8383 -32.8233
   -32.7359 -32.7151 -32.7116 -32.6486 -32.6180 -32.4925 -32.3949 -32.2923
   -32.2733 -32.2612 -32.2116 -32.1866 -32.1256 -32.0618 -31.6537 -31.5766
   -21.0051 -20.5743 -19.8636 -19.6026 -19.4437 -19.3466 -19.3201 -19.3007
   -19.2363 -19.1717 -19.1013 -18.6183 -18.5214 -18.4619 -18.4003 -18.3748
   -18.2362 -18.0943 -16.8269  -9.4868  -8.9105  -8.0726  -7.5675  -7.3762
    -7.1743  -7.0312  -7.0066  -6.8409  -6.7234  -6.6756  -6.6314  -6.4025
    -6.3563  -6.3529  -6.2262  -6.0829  -6.0533  -5.9257  -5.8396  -5.6265
    -5.5139  -5.3812  -5.2783  -5.0851  -4.9645  -4.9118  -4.8007  -4.7337
    -4.6712  -4.6255  -4.5013  -4.4857  -4.4427  -4.3862  -4.3468  -4.2955
    -4.1201  -4.0779  -4.0103  -3.9191  -3.8730  -3.7705  -3.6967  -3.6345
    -3.5241  -3.4321  -3.3746  -3.2888  -3.2662  -3.1792  -3.0682  -2.9840
    -2.9491  -2.7870  -2.7018  -2.4514  -0.4461  -0.1871   0.1505   0.5752
     0.6058   0.9496   1.2142   1.2842   1.3671   1.6349   1.6618   1.7422
     1.8465   1.9409   2.0234   2.0969   2.1979   2.2362   2.3196   2.3471
     2.5726   2.6210   2.8174   2.9180   3.2762   3.6352   4.0718   4.1382
     4.3750   4.5489   4.6088   4.6292   4.8925   4.9602   5.0062   5.0912
     5.2029   5.2624   5.4026   5.5918   5.6305   5.7309   5.9629   6.0425
     6.1836   6.2054   6.5024   6.5417   6.5729   6.6008   6.7748   6.8696
     6.8913   7.0610   7.1932   7.2776   7.4306   7.4908   7.7931   7.9184
     8.0028   8.0317   8.1162   8.1782   8.2509   8.5166   8.6306   8.6944
     8.8116   8.8876   9.0040   9.0773   9.1629   9.2615   9.2713   9.4711
     9.5406   9.5957   9.7446   9.8601   9.9053  10.0044  10.0708  10.1496
    10.2592  10.3768  10.5654  10.7183  10.7584  10.9008  10.9665  10.9978
    11.1193  11.1483  11.2129  11.2822  11.3963  11.4395  11.5011  11.5441
    11.6475  11.7587  11.8945  11.8984  12.0046  12.1088  12.1342  12.1972
    12.2629  12.3533  12.3863  12.4667  12.6081  12.6640  12.6913  12.7353
    12.7612  12.8614  12.9549  12.9877  13.0381  13.0939  13.2262  13.2755
    13.3518  13.3865  13.5130  13.6203  13.7041  13.7439  13.7876  13.8517
    13.9163  13.9462  14.0023  14.1257  14.1531  14.2868  14.3755  14.3973
    14.4769  14.5848  14.6610  14.7743  14.9098  14.9236  15.0263  15.1017
    15.1928  15.2533  15.2897  15.3198  15.3856  15.4434  15.5239  15.5696
    15.6446  15.6916  15.7896  15.8622  15.9094  15.9911  16.0345  16.0768
    16.2034  16.2674  16.3606  16.3913  16.4624  16.4936  16.5684  16.6733
    16.7201  16.7708  16.8565  16.9364  17.0139  17.1044  17.1385  17.2137
    17.2817  17.3438  17.3655  17.4219  17.4684  17.5739  17.6164  17.7057
    17.7488  17.8522  17.9482  17.9709  18.0790  18.1403  18.1921  18.3811
    18.3859  18.4321  18.4700  18.5368  18.6148  18.6545  18.6944  18.7739
    18.8555  18.9207  18.9685  19.0826  19.1382  19.1715  19.2225  19.3240
    19.3578  19.3985  19.4886  19.5219  19.5900  19.6459  19.6562  19.6897
    19.7569  19.8809  19.9065  19.9949  20.0668

     the Fermi energy is     0.4752 ev

!    total energy              =   -1560.40364011 Ry
     Harris-Foulkes estimate   =   -1560.40364018 Ry
     estimated scf accuracy    <       0.00000011 Ry

     The total energy is the sum of the following terms:

     one-electron contribution =  -18846.04090183 Ry
     hartree contribution      =    9448.57701067 Ry
     xc contribution           =    -286.83640974 Ry
     ewald contribution        =    8121.76342360 Ry
     Hubbard energy            =       2.13295552 Ry
     smearing contrib. (-TS)   =       0.00028167 Ry

     convergence has been achieved in  25 iterations

     Forces acting on atoms (Ry/au):


     negative rho (up, down):  0.348E-02 0.000E+00
     atom    1 type  1   force =     0.00289236   -0.00004952   -0.00061141
     atom    2 type  1   force =    -0.00037789    0.00030432   -0.00843443
     atom    3 type  2   force =    -0.04456001   -0.00021170    0.00524227
     atom    4 type  2   force =    -0.00424687    0.00004690    0.00451302
     atom    5 type  1   force =    -0.00546441   -0.00637431   -0.00110494
     atom    6 type  1   force =    -0.00547899    0.00636171   -0.00110540
     atom    7 type  1   force =    -0.00009104    0.00002808    0.00411601
     atom    8 type  1   force =     0.00196238    0.00001034    0.00131119
     atom    9 type  2   force =    -0.00193397   -0.00000093   -0.00066373
     atom   10 type  2   force =    -0.00039256   -0.00000544    0.00327982
     atom   11 type  1   force =    -0.01673798   -0.01354691    0.00143242
     atom   12 type  1   force =    -0.01675040    0.01355338    0.00138867
     atom   13 type  1   force =     0.00059663   -0.00000863   -0.00292659
     atom   14 type  1   force =     0.00136809   -0.00005791    0.00046972
     atom   15 type  1   force =    -0.00022844    0.00013340   -0.00330721
     atom   16 type  2   force =     0.04498944   -0.00020602    0.00468776
     atom   17 type  2   force =    -0.00434937    0.00005701   -0.00049754
     atom   18 type  1   force =     0.00663688   -0.00619268   -0.00106304
     atom   19 type  1   force =     0.00652621    0.00617852   -0.00106334
     atom   20 type  1   force =     0.00016490    0.00008053   -0.00358727
     atom   21 type  1   force =     0.00165925    0.00000730    0.00295889
     atom   22 type  2   force =     0.00161108    0.00000703   -0.00026266
     atom   23 type  2   force =     0.00100225   -0.00000035   -0.00318944
     atom   24 type  1   force =     0.01661902   -0.01338453    0.00096749
     atom   25 type  1   force =     0.01661043    0.01337859    0.00096562
     atom   26 type  1   force =    -0.00004470   -0.00000558   -0.00301690
     atom   27 type  3   force =     0.00000516   -0.00008277    0.00068502
     atom   28 type  3   force =     0.00003144   -0.00003658    0.00166426
     atom   29 type  3   force =    -0.00091455    0.00000424    0.00062409
     atom   30 type  3   force =    -0.00107379    0.00000574    0.00050476
     atom   31 type  1   force =    -0.00003057    0.00000679   -0.00397712

     Total force =     0.016260     Total SCF correction =     0.000542

     BFGS Geometry Optimization

     number of scf cycles    =   1
     number of bfgs steps    =   0

     energy   new            =   -1560.4036401127 Ry

     new trust radius        =       0.0084344270 bohr
     new conv_thr            =       0.0000010000 Ry


ATOMIC_POSITIONS (crystal)
O0       0.000000000   0.000000000   0.371478011    0   0   1
O0       0.000000000   0.500000000   0.388554608    0   0   1
Nb1      0.250000000   0.500000000   0.444682797    0   0   1
Nb1      0.000000000   0.000000000   0.443978497    0   0   1
O0       0.250000000   0.790000000   0.446168333    0   0   1
O0       0.250000000   0.210000000   0.446168324    0   0   1
O0       0.000000000   0.500000000   0.500740712    0   0   1
O0       0.000000000   0.000000000   0.522955711    0   0   1
Nb1      0.250000000   0.000000000   0.577016985    0   0   1
Nb1      0.000000000   0.500000000   0.570124315    0   0   1
O0       0.250000000   0.710000000   0.576358089    0   0   1
O0       0.250000000   0.290000000   0.576367231    0   0   1
O0       0.000000000   0.000000000   0.621252612    0   0   1
O0       0.500000000   0.000000000   0.372049211    0   0   1
O0       0.500000000   0.500000000   0.390745148    0   0   1
Nb1      0.750000000   0.500000000   0.444741923    0   0   1
Nb1      0.500000000   0.000000000   0.444900244    0   0   1
O0       0.750000000   0.790000000   0.446169155    0   0   1
O0       0.750000000   0.210000000   0.446169149    0   0   1
O0       0.500000000   0.500000000   0.495109657    0   0   1
O0       0.500000000   0.000000000   0.522658021    0   0   1
Nb1      0.750000000   0.000000000   0.577154850    0   0   1
Nb1      0.500000000   0.500000000   0.588537458    0   0   1
O0       0.750000000   0.710000000   0.576218972    0   0   1
O0       0.750000000   0.290000000   0.576218935    0   0   1
O0       0.500000000   0.000000000   0.621200841    0   0   1
H2      -0.000489539   0.501533731   0.352443433
H2       0.499492810   0.501447229   0.354612635
H2       0.150378250   0.000370321   0.355552238
H2       0.649544016   0.000370435   0.355819898
O0       0.500027268   0.500000514   0.652142012


     Check: negative starting charge=   -0.003810
     NEW-OLD atomic charge density approx. for the potential

     Check: negative/imaginary core charge=   -0.000003    0.000000
     Check: negative starting charge=   -0.003809

     negative rho (up, down):  0.348E-02 0.000E+00
 Atomic wfc used for LDA+U Projector are NOT orthogonalized

     total cpu time spent up to now is     5566.9 secs

     per-process dynamical memory:   420.6 Mb

     Self-consistent Calculation

     iteration #  1     ecut=    40.00 Ry     beta=0.70
     Davidson diagonalization with overlap
     ethr =  1.00E-06,  avg # of iterations =  3.0
 --- enter write_ns ---
 LDA+U parameters:
U( 2)     =  3.00000000
alpha( 2) =  0.00000000
atom    3   Tr[ns(na)] =   5.22806
    eigenvalues: 
  0.377  0.430  0.537  0.586  0.684
    eigenvectors:
  0.000  0.000  0.045  0.393  0.562
  0.000  0.000  0.922  0.076  0.002
  0.205  0.795  0.000  0.000  0.000
  0.000  0.000  0.033  0.531  0.436
  0.795  0.205  0.000  0.000  0.000
    occupations:
  0.639 -0.013  0.000 -0.050 -0.000
 -0.013  0.541 -0.000 -0.006  0.000
  0.000 -0.000  0.419 -0.000 -0.021
 -0.050 -0.006 -0.000  0.627  0.000
 -0.000  0.000 -0.021  0.000  0.388
atom    4   Tr[ns(na)] =   5.22921
    eigenvalues: 
  0.401  0.438  0.554  0.585  0.637
    eigenvectors:
  0.000  0.005  0.000  0.992  0.003
  0.000  0.994  0.000  0.005  0.001
  1.000  0.000  0.000  0.000  0.000
  0.000  0.001  0.000  0.003  0.996
  0.000  0.000  1.000  0.000  0.000
    occupations:
  0.584  0.010  0.000  0.003 -0.000
  0.010  0.438 -0.000 -0.006  0.000
  0.000 -0.000  0.401  0.000  0.001
  0.003 -0.006  0.000  0.637  0.000
 -0.000  0.000  0.001  0.000  0.554
atom    9   Tr[ns(na)] =   5.26192
    eigenvalues: 
  0.455  0.460  0.488  0.613  0.616
    eigenvectors:
  0.000  0.874  0.000  0.115  0.011
  0.000  0.000  0.000  0.086  0.914
  0.684  0.000  0.316  0.000  0.000
  0.000  0.126  0.000  0.799  0.075
  0.316  0.000  0.684  0.000  0.000
    occupations:
  0.479 -0.001 -0.000  0.051 -0.000
 -0.001  0.616 -0.000 -0.001 -0.000
 -0.000 -0.000  0.465  0.000  0.016
  0.051 -0.001  0.000  0.594 -0.000
 -0.000 -0.000  0.016 -0.000  0.477
atom   10   Tr[ns(na)] =   5.06763
    eigenvalues: 
  0.358  0.465  0.513  0.551  0.648
    eigenvectors:
  0.000  0.000  0.974  0.000  0.026
  0.000  1.000  0.000  0.000  0.000
  1.000  0.000  0.000  0.000  0.000
  0.000  0.000  0.026  0.000  0.974
  0.000  0.000  0.000  1.000  0.000
    occupations:
  0.516  0.000  0.000  0.021 -0.000
  0.000  0.465  0.000  0.003  0.000
  0.000  0.000  0.358 -0.000 -0.000
  0.021  0.003 -0.000  0.644 -0.000
 -0.000  0.000 -0.000 -0.000  0.551
atom   16   Tr[ns(na)] =   5.22652
    eigenvalues: 
  0.380  0.428  0.537  0.586  0.682
    eigenvectors:
  0.000  0.000  0.046  0.394  0.560
  0.000  0.000  0.921  0.078  0.002
  0.165  0.835  0.000  0.000  0.000
  0.000  0.000  0.033  0.529  0.438
  0.835  0.165  0.000  0.000  0.000
    occupations:
  0.638  0.013  0.000 -0.050  0.000
  0.013  0.541  0.000  0.006  0.000
  0.000  0.000  0.420 -0.000  0.018
 -0.050  0.006 -0.000  0.626 -0.000
  0.000  0.000  0.018 -0.000  0.388
atom   17   Tr[ns(na)] =   5.23076
    eigenvalues: 
  0.405  0.438  0.552  0.587  0.634
    eigenvectors:
  0.000  0.005  0.000  0.995  0.001
  0.000  0.994  0.000  0.005  0.001
  1.000  0.000  0.000  0.000  0.000
  0.000  0.001  0.000  0.001  0.998
  0.000  0.000  1.000  0.000  0.000
    occupations:
  0.586  0.010  0.000  0.002 -0.000
  0.010  0.439 -0.000 -0.006 -0.000
  0.000 -0.000  0.405  0.000  0.001
  0.002 -0.006  0.000  0.634  0.000
 -0.000 -0.000  0.001  0.000  0.552
atom   22   Tr[ns(na)] =   5.26290
    eigenvalues: 
  0.455  0.460  0.488  0.613  0.616
    eigenvectors:
  0.000  0.876  0.000  0.115  0.010
  0.000  0.000  0.000  0.076  0.924
  0.684  0.000  0.316  0.000  0.000
  0.000  0.124  0.000  0.810  0.066
  0.316  0.000  0.684  0.000  0.000
    occupations:
  0.479  0.001  0.000  0.050 -0.000
  0.001  0.616 -0.000  0.001  0.000
  0.000 -0.000  0.465  0.000 -0.015
  0.050  0.001  0.000  0.594  0.000
 -0.000  0.000 -0.015  0.000  0.477
atom   23   Tr[ns(na)] =   5.34850
    eigenvalues: 
  0.491  0.512  0.521  0.545  0.606
    eigenvectors:
  0.000  0.000  0.000  0.003  0.997
  0.000  0.000  1.000  0.000  0.000
  1.000  0.000  0.000  0.000  0.000
  0.000  0.000  0.000  0.996  0.003
  0.000  1.000  0.000  0.000  0.000
    occupations:
  0.606 -0.000 -0.000 -0.003 -0.000
 -0.000  0.521 -0.000 -0.001  0.000
 -0.000 -0.000  0.491 -0.000  0.000
 -0.003 -0.001 -0.000  0.545 -0.000
 -0.000  0.000  0.000 -0.000  0.512
N of occupied +U levels =  41.8555087
 --- exit write_ns ---

     Threshold (ethr) on eigenvalues was too large:
     Diagonalizing with lowered threshold

     Davidson diagonalization with overlap
     ethr =  6.59E-08,  avg # of iterations =  1.3

     negative rho (up, down):  0.348E-02 0.000E+00

     total cpu time spent up to now is     5953.9 secs

     total energy              =   -1560.40369783 Ry
     Harris-Foulkes estimate   =   -1560.40380912 Ry
     estimated scf accuracy    <       0.00014749 Ry

     iteration #  2     ecut=    40.00 Ry     beta=0.70
     Davidson diagonalization with overlap
     ethr =  6.64E-08,  avg # of iterations =  3.3

     negative rho (up, down):  0.349E-02 0.000E+00

     total cpu time spent up to now is     6164.6 secs

     total energy              =   -1560.40359844 Ry
     Harris-Foulkes estimate   =   -1560.40391473 Ry
     estimated scf accuracy    <       0.00109584 Ry

     iteration #  3     ecut=    40.00 Ry     beta=0.70
     Davidson diagonalization with overlap
     ethr =  6.64E-08,  avg # of iterations =  3.1

     negative rho (up, down):  0.349E-02 0.000E+00

     total cpu time spent up to now is     6378.6 secs

     total energy              =   -1560.40361794 Ry
     Harris-Foulkes estimate   =   -1560.40391819 Ry
     estimated scf accuracy    <       0.00320557 Ry

     iteration #  4     ecut=    40.00 Ry     beta=0.70
     Davidson diagonalization with overlap
     ethr =  6.64E-08,  avg # of iterations =  1.7

     negative rho (up, down):  0.349E-02 0.000E+00

     total cpu time spent up to now is     6568.2 secs

     total energy              =   -1560.40376877 Ry
     Harris-Foulkes estimate   =   -1560.40378358 Ry
     estimated scf accuracy    <       0.00006444 Ry

     iteration #  5     ecut=    40.00 Ry     beta=0.70
     Davidson diagonalization with overlap
     ethr =  2.90E-08,  avg # of iterations =  1.0

     negative rho (up, down):  0.348E-02 0.000E+00

     total cpu time spent up to now is     6760.9 secs

     total energy              =   -1560.40377498 Ry
     Harris-Foulkes estimate   =   -1560.40377996 Ry
     estimated scf accuracy    <       0.00001713 Ry

     iteration #  6     ecut=    40.00 Ry     beta=0.70
     Davidson diagonalization with overlap
     ethr =  7.71E-09,  avg # of iterations =  1.1

     negative rho (up, down):  0.348E-02 0.000E+00

     total cpu time spent up to now is     6945.0 secs

     total energy              =   -1560.40377708 Ry
     Harris-Foulkes estimate   =   -1560.40377814 Ry
     estimated scf accuracy    <       0.00000332 Ry

     iteration #  7     ecut=    40.00 Ry     beta=0.70
     Davidson diagonalization with overlap
     ethr =  1.50E-09,  avg # of iterations =  1.0

     negative rho (up, down):  0.348E-02 0.000E+00

     total cpu time spent up to now is     7131.7 secs

     End of self-consistent calculation
 --- enter write_ns ---
 LDA+U parameters:
U( 2)     =  3.00000000
alpha( 2) =  0.00000000
atom    3   Tr[ns(na)] =   5.22853
    eigenvalues: 
  0.377  0.430  0.537  0.586  0.684
    eigenvectors:
  0.000  0.000  0.046  0.392  0.563
  0.000  0.000  0.922  0.076  0.002
  0.206  0.794  0.000  0.000  0.000
  0.000  0.000  0.033  0.532  0.435
  0.794  0.206  0.000  0.000  0.000
    occupations:
  0.639 -0.013  0.000 -0.050 -0.000
 -0.013  0.541 -0.000 -0.006  0.000
  0.000 -0.000  0.419 -0.000 -0.021
 -0.050 -0.006 -0.000  0.627  0.000
 -0.000  0.000 -0.021  0.000  0.388
atom    4   Tr[ns(na)] =   5.22994
    eigenvalues: 
  0.401  0.438  0.554  0.585  0.637
    eigenvectors:
  0.000  0.005  0.000  0.992  0.003
  0.000  0.994  0.000  0.005  0.001
  1.000  0.000  0.000  0.000  0.000
  0.000  0.001  0.000  0.003  0.996
  0.000  0.000  1.000  0.000  0.000
    occupations:
  0.584  0.010  0.000  0.003 -0.000
  0.010  0.438 -0.000 -0.006  0.000
  0.000 -0.000  0.401  0.000  0.001
  0.003 -0.006  0.000  0.637  0.000
 -0.000  0.000  0.001  0.000  0.554
atom    9   Tr[ns(na)] =   5.26169
    eigenvalues: 
  0.455  0.460  0.488  0.613  0.616
    eigenvectors:
  0.000  0.874  0.000  0.115  0.011
  0.000  0.000  0.000  0.085  0.915
  0.683  0.000  0.317  0.000  0.000
  0.000  0.126  0.000  0.800  0.074
  0.317  0.000  0.683  0.000  0.000
    occupations:
  0.479 -0.001 -0.000  0.051 -0.000
 -0.001  0.616 -0.000 -0.001 -0.000
 -0.000 -0.000  0.465  0.000  0.015
  0.051 -0.001  0.000  0.594 -0.000
 -0.000 -0.000  0.015 -0.000  0.477
atom   10   Tr[ns(na)] =   5.06694
    eigenvalues: 
  0.358  0.465  0.513  0.551  0.648
    eigenvectors:
  0.000  0.000  0.974  0.000  0.025
  0.000  1.000  0.000  0.000  0.000
  1.000  0.000  0.000  0.000  0.000
  0.000  0.000  0.025  0.000  0.974
  0.000  0.000  0.000  1.000  0.000
    occupations:
  0.516  0.000  0.000  0.021 -0.000
  0.000  0.465  0.000  0.003  0.000
  0.000  0.000  0.358 -0.000 -0.000
  0.021  0.003 -0.000  0.644 -0.000
 -0.000  0.000 -0.000 -0.000  0.551
atom   16   Tr[ns(na)] =   5.23013
    eigenvalues: 
  0.380  0.428  0.537  0.586  0.683
    eigenvectors:
  0.000  0.000  0.046  0.392  0.562
  0.000  0.000  0.921  0.078  0.002
  0.165  0.835  0.000  0.000  0.000
  0.000  0.000  0.033  0.531  0.436
  0.835  0.165  0.000  0.000  0.000
    occupations:
  0.638  0.013  0.000 -0.050  0.000
  0.013  0.541  0.000  0.006  0.000
  0.000  0.000  0.420 -0.000  0.018
 -0.050  0.006 -0.000  0.627 -0.000
  0.000  0.000  0.018 -0.000  0.388
atom   17   Tr[ns(na)] =   5.23157
    eigenvalues: 
  0.406  0.438  0.552  0.587  0.634
    eigenvectors:
  0.000  0.005  0.000  0.995  0.001
  0.000  0.994  0.000  0.005  0.001
  1.000  0.000  0.000  0.000  0.000
  0.000  0.001  0.000  0.001  0.998
  0.000  0.000  1.000  0.000  0.000
    occupations:
  0.586  0.010  0.000  0.002 -0.000
  0.010  0.439 -0.000 -0.006 -0.000
  0.000 -0.000  0.406  0.000  0.001
  0.002 -0.006  0.000  0.634  0.000
 -0.000 -0.000  0.001  0.000  0.552
atom   22   Tr[ns(na)] =   5.26263
    eigenvalues: 
  0.455  0.460  0.488  0.613  0.616
[...]
     1.5959   1.5980   1.6938   1.8516   1.9172   1.9405   2.0908   2.4833
     2.6771   2.6861   2.9074   3.0023   3.1622   3.2584   3.6576   4.6470
     4.6761   4.8501   4.8618   5.1212   5.2274   5.3028   5.3542   5.3850
     5.4202   5.4386   5.4547   5.5015   5.5206   5.6296   5.6519   5.7630
     5.8225   6.2092   6.2997   6.3932   6.4424   6.5358   6.6693   6.7016
     6.7903   7.0823   7.3057   7.3289   7.3788   7.5006   7.9822   7.9938
     8.0500   8.0586   8.1323   8.2811   8.4886   8.5920   8.6597   8.6617
     8.7010   8.7545   8.8441   8.9333   8.9736   9.1046   9.1263   9.2089
     9.4202   9.5512   9.6623   9.6931   9.8138   9.8361   9.9492  10.0449
    10.0960  10.1336  10.2779  10.3904  10.4463  10.5422  10.6020  10.7227
    10.8880  11.0148  11.0938  11.2016  11.2578  11.3774  11.3881  11.4009
    11.5456  11.7355  11.8925  12.1622  12.2183  12.3823  12.3872  12.4737
    12.5395  12.6791  12.6984  12.7113  12.7283  12.7585  13.0805  13.0853
    13.1134  13.1804  13.2213  13.2888  13.4452  13.6931  13.7219  13.7360
    13.7850  13.9261  13.9456  14.0293  14.1160  14.2023  14.2655  14.3218
    14.3396  14.4667  14.4916  14.4957  14.5408  14.6618  14.7113  14.7893
    14.8461  14.8468  14.9497  14.9917  15.1580  15.3218  15.3844  15.4871
    15.5878  15.6010  15.6469  15.7724  15.7882  15.8230  15.8990  15.9170
    16.0599  16.0794  16.1331  16.1515  16.1611  16.2316  16.3272  16.3913
    16.4248  16.5414  16.6341  16.7722  16.7970  16.8284  16.8883  16.9038
    16.9627  17.0239  17.0824  17.0988  17.1447  17.1704  17.1912  17.2531
    17.2982  17.3210  17.3566  17.3792  17.5443  17.5551  17.5844  17.6398
    17.6786  17.7429  17.7589  17.8102  17.8552  17.8802  17.9342  17.9640
    17.9680  17.9741  18.0372  18.1691  18.1999  18.2261  18.2402  18.3590
    18.4071  18.4256  18.4592  18.6401  18.6791  18.7205  18.7341  18.8505
    18.9396  18.9592  18.9821  18.9964  19.0745  19.1383  19.1625  19.2027
    19.2182  19.4029  19.4271  19.4530  19.4784

          k =-0.5000 0.2118 0.0000 ( 32144 PWs)   bands (ev):

   -56.8197 -56.8064 -56.3686 -56.3476 -56.3379 -56.2685 -56.2641 -55.5165
   -33.2842 -33.2671 -32.9562 -32.9423 -32.9346 -32.9091 -32.8968 -32.6943
   -32.6899 -32.6856 -32.6555 -32.5176 -32.4934 -32.4913 -32.4277 -32.4142
   -32.3367 -32.3114 -32.2734 -32.2107 -32.1758 -32.1042 -31.7533 -31.5779
   -20.9550 -20.4901 -19.7213 -19.6839 -19.3831 -19.2190 -19.1925 -19.0780
   -19.0516 -18.8786 -18.8587 -18.7782 -18.7583 -18.6883 -18.6863 -18.5361
   -18.5036 -18.1621 -16.8143  -9.3745  -8.8860  -7.7055  -7.6733  -7.0868
    -7.0738  -7.0510  -6.9912  -6.9012  -6.6709  -6.6565  -6.4054  -6.3681
    -6.2411  -6.2093  -6.1852  -5.8163  -5.7000  -5.6777  -5.6223  -5.5706
    -5.4883  -5.3830  -5.3727  -5.3590  -5.3454  -5.2698  -5.1773  -5.0072
    -4.9803  -4.7663  -4.6261  -4.5238  -4.4411  -4.4093  -4.3804  -4.2772
    -4.2427  -4.1672  -4.1154  -4.0377  -3.8895  -3.8483  -3.8076  -3.6105
    -3.5178  -3.4787  -3.3794  -3.2926  -3.2289  -3.1658  -3.0407  -2.9162
    -2.8989  -2.7568  -2.5973  -2.5295   0.0752   0.5700   0.6379   0.7825
     0.8427   0.9368   0.9539   1.0448   1.0492   1.2396   1.3960   1.5903
     1.6479   1.7396   1.7960   1.8683   2.0093   2.0479   2.2360   2.3502
     2.6254   2.6672   2.7313   3.2367   3.2686   3.3717   3.5652   4.5664
     4.5761   4.6172   4.6512   4.7489   4.7557   5.0740   5.0866   5.2971
     5.3116   5.4604   5.4671   5.6069   5.6459   5.8899   5.8912   6.0148
     6.0466   6.0860   6.1002   6.3781   6.5319   6.5961   6.6162   6.7361
     6.7832   6.9887   7.2950   7.3776   7.3903   7.5194   7.5413   7.5898
     7.6910   7.7826   7.8518   7.8635   8.0903   8.2088   8.5312   8.6804
     8.7845   8.8686   8.9193   8.9579   9.0565   9.0749   9.5684   9.6391
     9.6657   9.8063   9.8790  10.0159  10.1314  10.1888  10.2290  10.2429
    10.3323  10.4017  10.4949  10.6012  10.6472  10.7577  10.8853  10.9016
    11.1446  11.2954  11.3304  11.4633  11.4682  11.5226  11.5846  11.7507
    11.8287  11.8657  12.0847  12.1644  12.2539  12.3837  12.4965  12.5664
    12.6109  12.7615  12.7887  12.8173  12.8654  12.9567  13.1302  13.2276
    13.2717  13.3179  13.3561  13.4144  13.4749  13.5266  13.6015  13.6894
    13.7469  13.7955  13.8671  13.9057  13.9355  13.9688  14.1216  14.1637
    14.1724  14.3101  14.3195  14.4089  14.4445  14.5407  14.5651  14.6452
    14.7304  14.7363  14.8303  14.8745  14.9219  14.9974  15.0382  15.0636
    15.0828  15.1148  15.2557  15.2828  15.3145  15.4275  15.5055  15.5619
    15.6181  15.6455  15.7973  15.8184  15.8585  15.9339  15.9504  15.9536
    16.0246  16.0975  16.1306  16.2486  16.2710  16.3358  16.3647  16.4144
    16.4647  16.6418  16.6960  16.8102  16.8660  16.8697  16.9407  16.9821
    17.1204  17.1355  17.1632  17.3496  17.3617  17.3673  17.5309  17.5494
    17.5997  17.6475  17.7147  17.7430  17.7973  17.8307  17.9292  18.0085
    18.0352  18.1232  18.1679  18.3252  18.4229  18.4780  18.4908  18.6700
    18.6959  18.8315  18.8564  18.8725  18.9260  19.0097  19.0371  19.1673
    19.1755  19.2350  19.2480  19.3828  19.4032  19.4337  19.5366  19.6468
    19.7092  19.7689  19.8346  19.8875  19.9455

          k =-0.5000-0.4237 0.0000 ( 32256 PWs)   bands (ev):

   -56.8190 -56.8058 -56.3670 -56.3465 -56.3363 -56.2678 -56.2634 -55.5154
   -33.2840 -33.2666 -32.9549 -32.9439 -32.9346 -32.9082 -32.8943 -32.6950
   -32.6907 -32.6850 -32.6553 -32.5006 -32.4936 -32.4787 -32.4306 -32.4086
   -32.3503 -32.3253 -32.2813 -32.2104 -32.1756 -32.1041 -31.7506 -31.5827
   -20.9536 -20.4885 -19.7184 -19.6807 -19.3759 -19.2236 -19.1966 -19.0911
   -19.0231 -18.8810 -18.8606 -18.7803 -18.7643 -18.6729 -18.6694 -18.5383
   -18.5197 -18.1563 -16.8140  -9.3727  -8.8837  -7.6959  -7.6628  -7.0415
    -7.0323  -6.9838  -6.9619  -6.8553  -6.6800  -6.6261  -6.4406  -6.3346
    -6.1312  -6.0831  -6.0604  -5.7946  -5.7671  -5.7472  -5.5920  -5.5782
    -5.5623  -5.5137  -5.4558  -5.4468  -5.4040  -5.3468  -5.0698  -4.9017
    -4.8688  -4.6567  -4.6293  -4.6029  -4.5594  -4.5486  -4.5090  -4.3711
    -4.3271  -4.2588  -4.2467  -4.1998  -4.0784  -3.8376  -3.7898  -3.6304
    -3.4374  -3.4329  -3.4048  -3.3389  -3.2022  -3.1991  -2.8757  -2.8623
    -2.8131  -2.8019  -2.5559  -2.5370   0.0954   0.4657   0.6217   0.8114
     0.8753   0.8976   0.9731   1.0109   1.3812   1.4457   1.5775   1.7945
     1.8194   1.8434   1.8926   1.9688   2.1282   2.2194   2.2550   2.4288
     2.5218   2.5364   2.7519   3.3986   3.4057   3.4594   3.5267   4.0306
     4.0754   4.0760   4.2533   4.5285   4.5336   5.0714   5.1345   5.3633
     5.3958   5.6309   5.6465   5.7542   5.7911   5.9030   5.9191   5.9381
     6.0945   6.3530   6.4432   6.4499   6.4829   6.5442   6.5646   6.5894
     6.6474   6.8325   6.9005   6.9629   7.0881   7.2456   7.2493   7.3487
     7.7524   8.0337   8.0419   8.0772   8.1574   8.2227   8.2871   8.2968
     8.7689   8.8577   9.0279   9.1330   9.1586   9.2620   9.2997   9.3596
     9.4352   9.5240   9.6840   9.7236  10.4992  10.6649  10.7166  10.7825
    10.8068  10.8389  10.8924  10.9098  11.0165  11.1997  11.5945  11.6072
    11.6146  11.7529  11.8162  11.8283  11.9050  11.9988  12.0267  12.0481
    12.1096  12.2056  12.2860  12.4526  12.4656  12.5228  12.5720  12.5918
    12.6007  12.6660  12.6771  12.8033  12.8214  12.9067  13.0068  13.0214
    13.0327  13.1152  13.1716  13.1955  13.3532  13.3844  13.3948  13.4258
    13.4815  13.5065  13.5355  13.5589  13.8276  13.8899  13.9272  13.9405
    14.0492  14.0560  14.0785  14.0819  14.2460  14.2808  14.3049  14.3203
    14.3760  14.6120  14.6374  14.6723  14.6820  14.7167  14.7545  14.7693
    14.7715  14.8596  14.9667  15.0589  15.0909  15.1080  15.2256  15.2532
    15.4390  15.4433  15.4647  15.4958  15.5865  15.6423  15.7292  15.7766
    15.8379  15.8817  15.8860  15.9183  16.0208  16.0470  16.0928  16.0983
    16.3260  16.3581  16.6274  16.6608  16.7557  16.7829  16.8246  16.9256
    17.0184  17.0681  17.1953  17.2881  17.3189  17.3966  17.5203  17.5419
    17.5556  17.5647  17.6314  17.6591  17.7355  17.7827  17.8105  18.0091
    18.0679  18.2302  18.3235  18.3435  18.4145  18.5702  18.6305  18.6428
    18.6545  18.9230  18.9601  18.9855  18.9860  19.1336  19.2363  19.5348
    19.5401  19.5420  19.5790  19.5991  19.6321  19.6584  19.7238  19.9034
    19.9100  19.9388  20.2244  20.2456  20.3260

          k =-0.2500 0.2118 0.0000 ( 32165 PWs)   bands (ev):

   -56.8474 -56.7808 -56.3917 -56.3509 -56.3270 -56.3041 -56.2462 -55.5203
   -33.6193 -33.0601 -32.9493 -32.9332 -32.8873 -32.8748 -32.8428 -32.8202
   -32.7347 -32.7171 -32.7058 -32.6448 -32.6209 -32.4892 -32.3906 -32.2787
   -32.2755 -32.2563 -32.2046 -32.1865 -32.1180 -32.0649 -31.6480 -31.5699
   -20.9960 -20.5167 -19.8605 -19.6077 -19.4339 -19.3381 -19.3276 -19.2938
   -19.2492 -19.1748 -19.1059 -18.6172 -18.5204 -18.4594 -18.4122 -18.3722
   -18.2460 -18.1451 -16.8150  -9.4742  -8.8545  -8.0681  -7.5780  -7.3811
    -7.1823  -7.0346  -7.0056  -6.8249  -6.7199  -6.6855  -6.6307  -6.3913
    -6.3711  -6.3604  -6.2253  -6.0894  -6.0560  -5.9365  -5.8316  -5.6186
    -5.5161  -5.3789  -5.2745  -5.0816  -4.9548  -4.9211  -4.8002  -4.7237
    -4.6607  -4.6257  -4.5038  -4.4866  -4.4344  -4.3910  -4.3504  -4.2981
    -4.1229  -4.0883  -4.0111  -3.9332  -3.8787  -3.7663  -3.6873  -3.6408
    -3.5272  -3.4355  -3.3809  -3.2901  -3.2681  -3.1819  -3.0595  -2.9902
    -2.9468  -2.7712  -2.6935  -2.4469  -0.4654  -0.1831   0.1469   0.5771
     0.6117   0.9489   1.2220   1.2823   1.3723   1.6357   1.6642   1.7402
     1.8485   1.9438   2.0259   2.1023   2.1991   2.2391   2.3179   2.3564
     2.5806   2.6336   2.8032   2.9133   3.2829   3.6386   4.0770   4.1478
     4.3812   4.5476   4.6167   4.6464   4.9100   4.9587   5.0161   5.0787
     5.2057   5.2670   5.4266   5.5952   5.6340   5.7344   5.9720   6.0540
     6.1873   6.2157   6.5137   6.5507   6.5775   6.6128   6.7897   6.8786
     6.8991   7.0786   7.1965   7.2909   7.4381   7.4946   7.8012   7.9206
     8.0105   8.0364   8.1281   8.1801   8.2492   8.5221   8.6231   8.6995
     8.8138   8.8930   9.0089   9.0811   9.1668   9.2635   9.2779   9.4791
     9.5417   9.5997   9.7434   9.8603   9.8989  10.0089  10.0732  10.1517
    10.2590  10.3763  10.5705  10.7202  10.7589  10.9059  10.9672  10.9995
    11.1190  11.1463  11.2160  11.2787  11.4000  11.4422  11.5074  11.5454
    11.6486  11.7591  11.8981  11.9047  12.0022  12.1106  12.1362  12.2012
    12.2634  12.3450  12.3906  12.4726  12.6001  12.6667  12.6902  12.7348
    12.7671  12.8619  12.9592  12.9851  13.0408  13.0957  13.2299  13.2805
    13.3560  13.3913  13.5181  13.6280  13.7039  13.7506  13.7892  13.8549
    13.9252  13.9488  14.0046  14.1292  14.1521  14.2890  14.3768  14.3984
    14.4739  14.5872  14.6629  14.7746  14.9092  14.9233  15.0331  15.1039
    15.2019  15.2540  15.2906  15.3247  15.3874  15.4479  15.5239  15.5733
    15.6422  15.6945  15.7956  15.8602  15.9088  15.9968  16.0369  16.0829
    16.2011  16.2678  16.3644  16.3951  16.4643  16.4937  16.5717  16.6733
    16.7220  16.7734  16.8582  16.9417  17.0231  17.1084  17.1428  17.2146
    17.2843  17.3463  17.3667  17.4237  17.4714  17.5793  17.6204  17.7093
    17.7538  17.8585  17.9571  17.9741  18.0818  18.1424  18.1977  18.3793
    18.3835  18.4309  18.4702  18.5394  18.6152  18.6583  18.6966  18.7814
    18.8575  18.9181  18.9739  19.0777  19.1386  19.1713  19.2295  19.3321
    19.3595  19.3967  19.4894  19.5192  19.5868  19.6433  19.6598  19.6866
    19.7602  19.8814  19.9077  19.9990  20.0686

     the Fermi energy is     0.4824 ev

!    total energy              =   -1560.40410525 Ry
     Harris-Foulkes estimate   =   -1560.40410526 Ry
     estimated scf accuracy    <          8.9E-09 Ry

     The total energy is the sum of the following terms:

     one-electron contribution =  -18855.98490857 Ry
     hartree contribution      =    9453.57102561 Ry
     xc contribution           =    -286.85603888 Ry
     ewald contribution        =    8126.73342104 Ry
     Hubbard energy            =       2.13209535 Ry
     smearing contrib. (-TS)   =       0.00030020 Ry

     convergence has been achieved in  10 iterations

     Forces acting on atoms (Ry/au):


     negative rho (up, down):  0.348E-02 0.000E+00
     atom    1 type  1   force =     0.00105093   -0.00004724   -0.00043113
     atom    2 type  1   force =    -0.00032298    0.00025081    0.00051233
     atom    3 type  2   force =    -0.05055476   -0.00019228    0.00021399
     atom    4 type  2   force =    -0.00444356    0.00003611    0.00047438
     atom    5 type  1   force =    -0.00518472   -0.00724075    0.00007483
     atom    6 type  1   force =    -0.00521018    0.00723744    0.00007385
     atom    7 type  1   force =    -0.00037114    0.00002582   -0.00056931
     atom    8 type  1   force =     0.00232225    0.00000612    0.00090836
     atom    9 type  2   force =     0.00000841    0.00000078   -0.00035021
     atom   10 type  2   force =    -0.00090212   -0.00000454   -0.00064602
     atom   11 type  1   force =    -0.01795864   -0.01155421    0.00034547
     atom   12 type  1   force =    -0.01795897    0.01155852    0.00034477
     atom   13 type  1   force =     0.00088493   -0.00000211   -0.00017902
     atom   14 type  1   force =     0.00059903   -0.00005422    0.00013457
     atom   15 type  1   force =    -0.00030911    0.00010253    0.00034918
     atom   16 type  2   force =     0.05121980   -0.00018726    0.00022849
     atom   17 type  2   force =    -0.00415967    0.00004745   -0.00064023
     atom   18 type  1   force =     0.00635609   -0.00702877    0.00007254
     atom   19 type  1   force =     0.00625272    0.00702391    0.00007234
     atom   20 type  1   force =     0.00009438    0.00008023   -0.00002048
     atom   21 type  1   force =     0.00135861    0.00000354    0.00079773
     atom   22 type  2   force =    -0.00017144    0.00000428    0.00051822
     atom   23 type  2   force =     0.00215326   -0.00000141   -0.00034581
     atom   24 type  1   force =     0.01761062   -0.01130352   -0.00061665
     atom   25 type  1   force =     0.01760774    0.01129981   -0.00061510
     atom   26 type  1   force =    -0.00057505    0.00000018   -0.00021239
     atom   27 type  3   force =     0.00001203   -0.00005778    0.00013031
     atom   28 type  3   force =    -0.00000803   -0.00001139   -0.00027579
     atom   29 type  3   force =     0.00053207    0.00000594   -0.00004831
     atom   30 type  3   force =     0.00009017    0.00000405    0.00008401
     atom   31 type  1   force =    -0.00002267   -0.00000203   -0.00038492

     Total force =     0.002383     Total SCF correction =     0.000265
     SCF correction compared to forces is large: reduce conv_thr to get better values

     bfgs converged in   8 scf cycles and   7 bfgs steps
     (criteria: energy < 0.10E-03, force < 0.10E-02)

     End of BFGS Geometry Optimization

     Final energy   =   -1560.4041052534 Ry
Begin final coordinates

ATOMIC_POSITIONS (crystal)
O0       0.000000000   0.000000000   0.371753693    0   0   1
O0       0.000000000   0.500000000   0.388303969    0   0   1
Nb1      0.250000000   0.500000000   0.444691161    0   0   1
Nb1      0.000000000   0.000000000   0.444170439    0   0   1
O0       0.250000000   0.790000000   0.446124851    0   0   1
O0       0.250000000   0.210000000   0.446124357    0   0   1
O0       0.000000000   0.500000000   0.501215836    0   0   1
O0       0.000000000   0.000000000   0.522900520    0   0   1
Nb1      0.250000000   0.000000000   0.576864488    0   0   1
Nb1      0.000000000   0.500000000   0.570576258    0   0   1
O0       0.250000000   0.710000000   0.576685548    0   0   1
O0       0.250000000   0.290000000   0.576686885    0   0   1
O0       0.000000000   0.000000000   0.621128703    0   0   1
O0       0.500000000   0.000000000   0.372060616    0   0   1
O0       0.500000000   0.500000000   0.390856204    0   0   1
Nb1      0.750000000   0.500000000   0.444720220    0   0   1
Nb1      0.500000000   0.000000000   0.444820607    0   0   1
O0       0.750000000   0.790000000   0.446116715    0   0   1
O0       0.750000000   0.210000000   0.446116472    0   0   1
O0       0.500000000   0.500000000   0.495103256    0   0   1
O0       0.500000000   0.000000000   0.522735096    0   0   1
Nb1      0.750000000   0.000000000   0.577161130    0   0   1
Nb1      0.500000000   0.500000000   0.587873384    0   0   1
O0       0.750000000   0.710000000   0.576359765    0   0   1
O0       0.750000000   0.290000000   0.576359848    0   0   1
O0       0.500000000   0.000000000   0.621067968    0   0   1
H2      -0.000477228   0.501473927   0.352043995
H2       0.499492583   0.501426809   0.354666266
H2       0.149972554   0.000377939   0.355682435
H2       0.649622992   0.000378928   0.355860783
O0       0.499986401   0.500003708   0.651458533
End final coordinates



     init_run     :    105.31s CPU    107.42s WALL (       1 calls)
     electrons    :  19296.71s CPU  20724.92s WALL (       8 calls)
     update_pot   :    139.70s CPU    153.22s WALL (       7 calls)
     forces       :   1071.01s CPU   1127.05s WALL (       8 calls)

     Called by init_run:
     wfcinit      :     35.47s CPU     36.37s WALL (       1 calls)
     potinit      :      7.44s CPU      7.63s WALL (       1 calls)

     Called by electrons:
     c_bands      :   9652.04s CPU   9961.00s WALL (     106 calls)
     sum_band     :   3855.71s CPU   4069.70s WALL (     106 calls)
     v_of_rho     :    116.90s CPU    129.73s WALL (     107 calls)
     newd         :   5067.28s CPU   5090.68s WALL (     107 calls)
     mix_rho      :     18.78s CPU     19.41s WALL (     106 calls)

     Called by c_bands:
     init_us_2    :     26.62s CPU     26.83s WALL (     711 calls)
     cegterg      :   9527.50s CPU   9811.32s WALL (     318 calls)

     Called by *egterg:
     h_psi        :   5620.06s CPU   5792.15s WALL (    1001 calls)
     s_psi        :    586.83s CPU    595.87s WALL (    1049 calls)
     g_psi        :     12.28s CPU     12.30s WALL (     680 calls)
     cdiaghg      :    841.29s CPU    843.44s WALL (     956 calls)

     Called by h_psi:
     add_vuspsi   :    560.20s CPU    569.54s WALL (    1001 calls)
     vhpsi        :    608.79s CPU    616.07s WALL (    1001 calls)

     General routines
     calbec       :   1457.59s CPU   1474.31s WALL (    9430 calls)
     fft          :    142.24s CPU    173.89s WALL (    1803 calls)
     ffts         :      1.97s CPU      2.02s WALL (     213 calls)
     fftw         :   3149.26s CPU   3356.14s WALL (  553150 calls)
     interpolate  :     16.95s CPU     17.23s WALL (     213 calls)
     davcio       :      0.06s CPU     11.21s WALL (     735 calls)

     Parallel routines
     fft_scatter  :   1198.12s CPU   1429.38s WALL (  555166 calls)
     Hubbard U routines
     new_ns       :    130.42s CPU    137.45s WALL (     106 calls)
     vhpsi        :    608.79s CPU    616.07s WALL (    1001 calls)
     force_hub    :    286.98s CPU    292.16s WALL (       8 calls)

     PWSCF        :     5h49m CPU        6h14m WALL


   This run was terminated on:   3:34:15   1May2014            

=------------------------------------------------------------------------------=
   JOB DONE.
=------------------------------------------------------------------------------=
---------------------------------------
Running PBS batch system epilogue script
Job id: 340575.audhumbla.fysik.dtu.dk
Username: zhonxu
Groupname: campgst
Jobname: NbO2/Eads-2-layers/O-U-3.0
Sessionid: 13716
Resources limits: neednodes=2:ppn=8:xeon8,nodes=2:ppn=8:xeon8,walltime=48:00:00
Resources used: cput=99:54:40,mem=17070972kb,vmem=20741952kb,walltime=06:15:01
Queuename: verylong
Accounting:
This job has allocated the following 16 nodes:
a129 a129 a129 a129 a129 a129 a129 a129 a117 a117 a117 a117 a117 a117 a117 a117
Finished epilogue job 340575.audhumbla.fysik.dtu.dk for zhonxu
