
     Program PWSCF v.5.0.2 (svn rev. 9656) starts on 27Apr2014 at  1:22:43 

     This program is part of the open-source Quantum ESPRESSO suite
     for quantum simulation of materials; please cite
         "P. Giannozzi et al., J. Phys.:Condens. Matter 21 395502 (2009);
          URL http://www.quantum-espresso.org", 
     in publications or presentations arising from this work. More details at
     http://www.quantum-espresso.org/quote.php

     Parallel version (MPI), running on    16 processors
     K-points division:     npool     =       4
     R & G space division:  proc/nbgrp/npool/nimage =       4

     Current dimensions of program PWSCF are:
     Max number of different atomic species (ntypx) = 10
     Max number of k-points (npk) =  40000
     Max angular momentum in pseudopotentials (lmaxx) =  3
     Reading input from pwscf.in
Warning: card &CELL ignored
Warning: card / ignored

     Subspace diagonalization in iterative solution of the eigenvalue problem:
     a serial algorithm will be used


     Parallelization info
     --------------------
     sticks:   dense  smooth     PW     G-vecs:    dense   smooth      PW
     Min        1419     456    126               336167    60843    9016
     Max        1420     457    127               336172    60875    9024
     Sum        5677    1827    505              1344679   243423   36075



     bravais-lattice index     =            0
     lattice parameter (alat)  =      11.7919  a.u.
     unit-cell volume          =    7123.6633 (a.u.)^3
     number of atoms/cell      =           31
     number of atomic types    =            3
     number of electrons       =       246.00
     number of Kohn-Sham states=          357
     kinetic-energy cutoff     =      40.0000  Ry
     charge density cutoff     =     500.0000  Ry
     convergence threshold     =      1.0E-06
     mixing beta               =       0.7000
     number of iterations used =            8  plain     mixing
     Exchange-correlation      = SLA  PW   PBE  PBE ( 1 4 3 4 0)
     EXX-fraction              =        0.00
     nstep                     =           50


     celldm(1)=  11.791891  celldm(2)=   0.000000  celldm(3)=   0.000000
     celldm(4)=   0.000000  celldm(5)=   0.000000  celldm(6)=   0.000000

     crystal axes: (cart. coord. in units of alat)
               a(1) = (   1.000000   0.000000   0.000000 )  
               a(2) = (   0.000000   1.026665   0.000000 )  
               a(3) = (   0.000000   0.000000   4.231793 )  

     reciprocal axes: (cart. coord. in units 2 pi/alat)
               b(1) = (  1.000000  0.000000  0.000000 )  
               b(2) = (  0.000000  0.974028  0.000000 )  
               b(3) = (  0.000000  0.000000  0.236306 )  


     PseudoPot. # 1 for O  read from file:
     /home/camp/zhonxu/pseudo/o_pbe_v1.01.uspp.F.UPF
     MD5 check sum: 2bcb18d16ea4b960afae9ec6d52f22d2
     Pseudo is Ultrasoft + core correction, Zval =  6.0
     Generated by new atomic code, or converted to UPF format
     Using radial grid of  737 points,  5 beta functions with: 
                l(1) =   0
                l(2) =   0
                l(3) =   1
                l(4) =   1
                l(5) =   2
     Q(r) pseudized with  8 coefficients,  rinner =    0.900   0.900   0.900
                                                       0.900   0.900

     PseudoPot. # 2 for Ru read from file:
     /home/camp/zhonxu/pseudo/ru_pbe_v1.uspp.F.UPF
     MD5 check sum: df00be1c11b23341d9806d8f1dfa10cf
     Pseudo is Ultrasoft + core correction, Zval = 16.0
     Generated by new atomic code, or converted to UPF format
     Using radial grid of  967 points,  6 beta functions with: 
                l(1) =   0
                l(2) =   0
                l(3) =   1
                l(4) =   1
                l(5) =   2
                l(6) =   2
     Q(r) pseudized with  8 coefficients,  rinner =    1.300   1.300   1.300
                                                       1.300   1.300

     PseudoPot. # 3 for H  read from file:
     /home/camp/zhonxu/pseudo/h_pbe_v1.uspp.F.UPF
     MD5 check sum: 3408e3ff4ec8b0a4e358431e7e038a48
     Pseudo is Ultrasoft, Zval =  1.0
     Generated by new atomic code, or converted to UPF format
     Using radial grid of  615 points,  2 beta functions with: 
                l(1) =   0
                l(2) =   0
     Q(r) pseudized with  8 coefficients,  rinner =    0.700

     atomic species   valence    mass     pseudopotential
        O0             6.00    15.99940     O ( 1.00)
        Ru1           16.00   101.07000     Ru( 1.00)
        H2             1.00     1.00794     H ( 1.00)


     Simplified LDA+U calculation (l_max = 2) with parameters (eV):
     atomic species    L          U    alpha       J0     beta
        Ru1            2     6.5000   0.0000   0.0000   0.0000



     No symmetry found



   Cartesian axes

     site n.     atom                  positions (alat units)
         1           O0  tau(   1) = (   0.0000000   0.0000000   1.6006333  )
         2           O0  tau(   2) = (   0.0000000   0.5133323   1.7090519  )
         3           Ru1 tau(   3) = (   0.2500000   0.5133323   1.9249579  )
         4           Ru1 tau(   4) = (   0.0000000   0.0000000   1.9138706  )
         5           O0  tau(   5) = (   0.2500000   0.8315984   1.9151825  )
         6           O0  tau(   6) = (   0.2500000   0.1950663   1.9148016  )
         7           O0  tau(   7) = (   0.0000000   0.5133323   2.1086177  )
         8           O0  tau(   8) = (   0.0000000   0.0000000   2.2256691  )
         9           Ru1 tau(   9) = (   0.2500000   0.0000000   2.4381898  )
        10           Ru1 tau(  10) = (   0.0000000   0.5133323   2.4080594  )
        11           O0  tau(  11) = (   0.2500000   0.7083986   2.4344235  )
        12           O0  tau(  12) = (   0.2500000   0.3182660   2.4336618  )
        13           O0  tau(  13) = (   0.0000000   0.0000000   2.6157981  )
        14           O0  tau(  14) = (   0.5000000   0.0000000   1.6005064  )
        15           O0  tau(  15) = (   0.5000000   0.5133323   1.7116333  )
        16           Ru1 tau(  16) = (   0.7500000   0.5133323   1.9249156  )
        17           Ru1 tau(  17) = (   0.5000000   0.0000000   1.9130666  )
        18           O0  tau(  18) = (   0.7500000   0.8315984   1.9150979  )
        19           O0  tau(  19) = (   0.7500000   0.1950663   1.9148440  )
        20           O0  tau(  20) = (   0.5000000   0.5133323   2.1279570  )
        21           O0  tau(  21) = (   0.5000000   0.0000000   2.2254152  )
        22           Ru1 tau(  22) = (   0.7500000   0.0000000   2.4382321  )
        23           Ru1 tau(  23) = (   0.5000000   0.5133323   2.4678123  )
        24           O0  tau(  24) = (   0.7500000   0.7083986   2.4345927  )
        25           O0  tau(  25) = (   0.7500000   0.3182660   2.4334925  )
        26           O0  tau(  26) = (   0.5000000   0.0000000   2.6078847  )
        27           H2  tau(  27) = (  -0.0002600   0.6438727   1.6192532  )
        28           H2  tau(  28) = (   0.4995800   0.6393041   1.6156985  )
        29           H2  tau(  29) = (   0.1450800   0.0331921   1.5470588  )
        30           H2  tau(  30) = (   0.6459600   0.0301326   1.5471435  )
        31           O0  tau(  31) = (   0.5000500   0.5106527   2.7413977  )

     number of k points=    10  Methfessel-Paxton smearing, width (Ry)=  0.0100
                       cart. coord. in units 2pi/alat
        k(    1) = (   0.0000000   0.0000000   0.0000000), wk =   0.1250000
        k(    2) = (   0.0000000   0.2435070   0.0000000), wk =   0.2500000
        k(    3) = (   0.0000000  -0.4870139   0.0000000), wk =   0.1250000
        k(    4) = (   0.2500000   0.0000000   0.0000000), wk =   0.2500000
        k(    5) = (   0.2500000   0.2435070   0.0000000), wk =   0.2500000
        k(    6) = (   0.2500000  -0.4870139   0.0000000), wk =   0.2500000
        k(    7) = (  -0.5000000   0.0000000   0.0000000), wk =   0.1250000
        k(    8) = (  -0.5000000   0.2435070   0.0000000), wk =   0.2500000
        k(    9) = (  -0.5000000  -0.4870139   0.0000000), wk =   0.1250000
        k(   10) = (  -0.2500000   0.2435070   0.0000000), wk =   0.2500000

     Dense  grid:  1344679 G-vectors     FFT dimensions: (  90,  90, 360)

     Smooth grid:   243423 G-vectors     FFT dimensions: (  48,  50, 216)

     Largest allocated arrays     est. size (Mb)     dimensions
        Kohn-Sham Wavefunctions        41.57 Mb     (   7632,  357)
        Atomic wavefunctions           21.43 Mb     (   7632,  184)
        NL pseudopotentials            46.47 Mb     (   7632,  399)
        Each V/rho on FFT grid         11.12 Mb     ( 729000)
        Each G-vector array             2.56 Mb     ( 336169)
        G-vector shells                 1.12 Mb     ( 146910)
     Largest temporary arrays     est. size (Mb)     dimensions
        Auxiliary wavefunctions       166.30 Mb     (   7632, 1428)
        Each subspace H/S matrix       31.12 Mb     (1428,1428)
        Each <psi_i|beta_j> matrix      2.17 Mb     (    399,  357)
        Arrays for rho mixing          88.99 Mb     ( 729000,   8)

     Check: negative/imaginary core charge=   -0.000003    0.000000

     Initial potential from superposition of free atoms
     Check: negative starting charge=   -0.520948

     starting charge  237.99981, renormalised to  246.00000

     negative rho (up, down):  0.538E+00 0.000E+00
     Number of +U iterations with fixed ns =  0
     Starting occupations:
 --- enter write_ns ---
 LDA+U parameters:
U( 2)     =  6.50000000
alpha( 2) =  0.00000000
atom    3   Tr[ns(na)] =   6.00000
    eigenvalues: 
  0.600  0.600  0.600  0.600  0.600
    eigenvectors:
  1.000  0.000  0.000  0.000  0.000
  0.000  1.000  0.000  0.000  0.000
  0.000  0.000  1.000  0.000  0.000
  0.000  0.000  0.000  1.000  0.000
  0.000  0.000  0.000  0.000  1.000
    occupations:
  0.600  0.000  0.000  0.000  0.000
  0.000  0.600  0.000  0.000  0.000
  0.000  0.000  0.600  0.000  0.000
  0.000  0.000  0.000  0.600  0.000
  0.000  0.000  0.000  0.000  0.600
atom    4   Tr[ns(na)] =   6.00000
    eigenvalues: 
  0.600  0.600  0.600  0.600  0.600
    eigenvectors:
  1.000  0.000  0.000  0.000  0.000
  0.000  1.000  0.000  0.000  0.000
  0.000  0.000  1.000  0.000  0.000
  0.000  0.000  0.000  1.000  0.000
  0.000  0.000  0.000  0.000  1.000
    occupations:
  0.600  0.000  0.000  0.000  0.000
  0.000  0.600  0.000  0.000  0.000
  0.000  0.000  0.600  0.000  0.000
  0.000  0.000  0.000  0.600  0.000
  0.000  0.000  0.000  0.000  0.600
atom    9   Tr[ns(na)] =   6.00000
    eigenvalues: 
  0.600  0.600  0.600  0.600  0.600
    eigenvectors:
  1.000  0.000  0.000  0.000  0.000
  0.000  1.000  0.000  0.000  0.000
  0.000  0.000  1.000  0.000  0.000
  0.000  0.000  0.000  1.000  0.000
  0.000  0.000  0.000  0.000  1.000
    occupations:
  0.600  0.000  0.000  0.000  0.000
  0.000  0.600  0.000  0.000  0.000
  0.000  0.000  0.600  0.000  0.000
  0.000  0.000  0.000  0.600  0.000
  0.000  0.000  0.000  0.000  0.600
atom   10   Tr[ns(na)] =   6.00000
    eigenvalues: 
  0.600  0.600  0.600  0.600  0.600
    eigenvectors:
  1.000  0.000  0.000  0.000  0.000
  0.000  1.000  0.000  0.000  0.000
  0.000  0.000  1.000  0.000  0.000
  0.000  0.000  0.000  1.000  0.000
  0.000  0.000  0.000  0.000  1.000
    occupations:
  0.600  0.000  0.000  0.000  0.000
  0.000  0.600  0.000  0.000  0.000
  0.000  0.000  0.600  0.000  0.000
  0.000  0.000  0.000  0.600  0.000
  0.000  0.000  0.000  0.000  0.600
atom   16   Tr[ns(na)] =   6.00000
    eigenvalues: 
  0.600  0.600  0.600  0.600  0.600
    eigenvectors:
  1.000  0.000  0.000  0.000  0.000
  0.000  1.000  0.000  0.000  0.000
  0.000  0.000  1.000  0.000  0.000
  0.000  0.000  0.000  1.000  0.000
  0.000  0.000  0.000  0.000  1.000
    occupations:
  0.600  0.000  0.000  0.000  0.000
  0.000  0.600  0.000  0.000  0.000
  0.000  0.000  0.600  0.000  0.000
  0.000  0.000  0.000  0.600  0.000
  0.000  0.000  0.000  0.000  0.600
atom   17   Tr[ns(na)] =   6.00000
    eigenvalues: 
  0.600  0.600  0.600  0.600  0.600
    eigenvectors:
  1.000  0.000  0.000  0.000  0.000
  0.000  1.000  0.000  0.000  0.000
  0.000  0.000  1.000  0.000  0.000
  0.000  0.000  0.000  1.000  0.000
  0.000  0.000  0.000  0.000  1.000
    occupations:
  0.600  0.000  0.000  0.000  0.000
  0.000  0.600  0.000  0.000  0.000
  0.000  0.000  0.600  0.000  0.000
  0.000  0.000  0.000  0.600  0.000
  0.000  0.000  0.000  0.000  0.600
atom   22   Tr[ns(na)] =   6.00000
    eigenvalues: 
  0.600  0.600  0.600  0.600  0.600
    eigenvectors:
  1.000  0.000  0.000  0.000  0.000
  0.000  1.000  0.000  0.000  0.000
  0.000  0.000  1.000  0.000  0.000
  0.000  0.000  0.000  1.000  0.000
  0.000  0.000  0.000  0.000  1.000
    occupations:
  0.600  0.000  0.000  0.000  0.000
  0.000  0.600  0.000  0.000  0.000
  0.000  0.000  0.600  0.000  0.000
  0.000  0.000  0.000  0.600  0.000
  0.000  0.000  0.000  0.000  0.600
atom   23   Tr[ns(na)] =   6.00000
    eigenvalues: 
  0.600  0.600  0.600  0.600  0.600
    eigenvectors:
  1.000  0.000  0.000  0.000  0.000
  0.000  1.000  0.000  0.000  0.000
  0.000  0.000  1.000  0.000  0.000
  0.000  0.000  0.000  1.000  0.000
  0.000  0.000  0.000  0.000  1.000
    occupations:
  0.600  0.000  0.000  0.000  0.000
  0.000  0.600  0.000  0.000  0.000
  0.000  0.000  0.600  0.000  0.000
  0.000  0.000  0.000  0.600  0.000
  0.000  0.000  0.000  0.000  0.600
N of occupied +U levels =  48.0000000
 --- exit write_ns ---
 Atomic wfc used for LDA+U Projector are NOT orthogonalized
     Starting wfc are  184 randomized atomic wfcs

     total cpu time spent up to now is      107.8 secs

     per-process dynamical memory:   399.4 Mb

     Self-consistent Calculation

     iteration #  1     ecut=    40.00 Ry     beta=0.70
     Davidson diagonalization with overlap
     ethr =  1.00E-02,  avg # of iterations =  6.0
 --- enter write_ns ---
 LDA+U parameters:
U( 2)     =  6.50000000
alpha( 2) =  0.00000000
atom    3   Tr[ns(na)] =   4.60644
    eigenvalues: 
  0.401  0.427  0.431  0.471  0.574
    eigenvectors:
  0.047  0.045  0.282  0.335  0.291
  0.600  0.398  0.000  0.001  0.000
  0.026  0.034  0.008  0.289  0.643
  0.149  0.230  0.550  0.025  0.046
  0.177  0.294  0.161  0.349  0.020
    occupations:
  0.484 -0.006  0.051 -0.017  0.028
 -0.006  0.411  0.003  0.008  0.007
  0.051  0.003  0.533 -0.023  0.001
 -0.017  0.008 -0.023  0.433 -0.014
  0.028  0.007  0.001 -0.014  0.441
atom    4   Tr[ns(na)] =   3.82771
    eigenvalues: 
  0.320  0.332  0.378  0.420  0.465
    eigenvectors:
  0.005  0.007  0.009  0.000  0.980
  0.224  0.726  0.042  0.000  0.007
  0.768  0.230  0.002  0.000  0.001
  0.003  0.037  0.947  0.000  0.013
  0.000  0.000  0.000  1.000  0.000
    occupations:
  0.462  0.012  0.004  0.011  0.000
  0.012  0.332 -0.005 -0.008 -0.001
  0.004 -0.005  0.323  0.002  0.001
  0.011 -0.008  0.002  0.377  0.000
  0.000 -0.001  0.001  0.000  0.420
atom    9   Tr[ns(na)] =   7.54680
    eigenvalues: 
  0.441  0.466  0.944  0.960  0.962
    eigenvectors:
  0.004  0.128  0.000  0.868  0.001
  0.985  0.014  0.000  0.000  0.000
  0.000  0.000  0.005  0.001  0.994
  0.011  0.858  0.000  0.131  0.000
  0.000  0.000  0.995  0.000  0.005
    occupations:
  0.895 -0.009  0.000 -0.167  0.000
 -0.009  0.442  0.000  0.001 -0.000
  0.000  0.000  0.962  0.001  0.001
 -0.167  0.001  0.001  0.530 -0.000
  0.000 -0.000  0.001 -0.000  0.944
atom   10   Tr[ns(na)] =   7.87690
    eigenvalues: 
  0.440  0.622  0.945  0.964  0.967
    eigenvectors:
  0.000  0.979  0.000  0.021  0.000
  0.000  0.000  0.000  0.000  1.000
  0.000  0.000  1.000  0.000  0.000
  0.000  0.021  0.000  0.979  0.000
  1.000  0.000  0.000  0.000  0.000
    occupations:
  0.629 -0.000  0.001  0.049  0.000
 -0.000  0.967 -0.000 -0.000  0.001
  0.001 -0.000  0.945  0.000 -0.000
  0.049 -0.000  0.000  0.957  0.000
  0.000  0.001 -0.000  0.000  0.440
atom   16   Tr[ns(na)] =   4.60497
    eigenvalues: 
  0.401  0.427  0.431  0.467  0.576
    eigenvectors:
  0.043  0.023  0.293  0.353  0.288
  0.620  0.373  0.005  0.002  0.000
  0.019  0.020  0.005  0.322  0.633
  0.147  0.311  0.472  0.024  0.046
  0.170  0.273  0.226  0.299  0.033
    occupations:
  0.484  0.006  0.050 -0.017 -0.029
  0.006  0.411 -0.003 -0.008  0.007
  0.050 -0.003  0.534 -0.023 -0.008
 -0.017 -0.008 -0.023  0.433  0.014
 -0.029  0.007 -0.008  0.014  0.441
atom   17   Tr[ns(na)] =   3.73830
    eigenvalues: 
  0.315  0.328  0.347  0.416  0.464
    eigenvectors:
  0.002  0.009  0.000  0.000  0.989
  0.081  0.647  0.264  0.000  0.008
  0.916  0.053  0.030  0.000  0.001
  0.001  0.291  0.706  0.000  0.002
  0.000  0.000  0.000  1.000  0.000
    occupations:
  0.462  0.012  0.004  0.006  0.000
  0.012  0.333 -0.005 -0.008 -0.001
  0.004 -0.005  0.317  0.003  0.001
  0.006 -0.008  0.003  0.342  0.000
  0.000 -0.001  0.001  0.000  0.416
atom   22   Tr[ns(na)] =   7.54649
    eigenvalues: 
  0.441  0.466  0.944  0.960  0.962
    eigenvectors:
  0.003  0.128  0.000  0.869  0.000
  0.987  0.013  0.000  0.000  0.000
  0.000  0.000  0.005  0.000  0.995
  0.010  0.859  0.000  0.131  0.000
  0.000  0.000  0.995  0.000  0.005
    occupations:
  0.896  0.009  0.000 -0.167  0.000
  0.009  0.442 -0.001 -0.001 -0.000
  0.000 -0.001  0.962  0.001 -0.001
 -0.167 -0.001  0.001  0.530 -0.000
  0.000 -0.000 -0.001 -0.000  0.944
atom   23   Tr[ns(na)] =   7.38731
    eigenvalues: 
  0.419  0.516  0.888  0.915  0.956
    eigenvectors:
  0.000  0.991  0.000  0.000  0.009
  0.000  0.000  0.000  1.000  0.000
  0.000  0.000  1.000  0.000  0.000
  0.000  0.009  0.000  0.000  0.991
  1.000  0.000  0.000  0.000  0.000
    occupations:
  0.519  0.000 -0.004  0.041 -0.000
  0.000  0.915  0.000  0.000 -0.000
 -0.004  0.000  0.888 -0.001 -0.000
  0.041  0.000 -0.001  0.952  0.000
 -0.000 -0.000 -0.000  0.000  0.419
N of occupied +U levels =  47.1349237
 --- exit write_ns ---

     negative rho (up, down):  0.622E+00 0.000E+00

     total cpu time spent up to now is      472.8 secs

     total energy              =   -2115.83676608 Ry
     Harris-Foulkes estimate   =   -2163.08378194 Ry
     estimated scf accuracy    <      54.94580077 Ry

     iteration #  2     ecut=    40.00 Ry     beta=0.70
     Davidson diagonalization with overlap
     ethr =  1.00E-02,  avg # of iterations =  6.0

     negative rho (up, down):  0.604E+00 0.000E+00

     total cpu time spent up to now is      828.8 secs

     total energy              =   -1912.54739869 Ry
     Harris-Foulkes estimate   =   -2544.53550540 Ry
     estimated scf accuracy    <    6499.42008869 Ry

     iteration #  3     ecut=    40.00 Ry     beta=0.70
     Davidson diagonalization with overlap
     ethr =  1.00E-02,  avg # of iterations =  6.0

     negative rho (up, down):  0.569E+00 0.000E+00

     total cpu time spent up to now is     1226.7 secs

     total energy              =   -2141.97025613 Ry
     Harris-Foulkes estimate   =   -2197.02702270 Ry
     estimated scf accuracy    <     250.84650228 Ry

     iteration #  4     ecut=    40.00 Ry     beta=0.70
     Davidson diagonalization with overlap
     ethr =  1.00E-02,  avg # of iterations =  5.0

     negative rho (up, down):  0.553E+00 0.000E+00

     total cpu time spent up to now is     1459.9 secs

     total energy              =   -2154.79919446 Ry
     Harris-Foulkes estimate   =   -2165.95006397 Ry
     estimated scf accuracy    <      51.39007078 Ry

     iteration #  5     ecut=    40.00 Ry     beta=0.70
     Davidson diagonalization with overlap
     ethr =  1.00E-02,  avg # of iterations =  2.1

     negative rho (up, down):  0.556E+00 0.000E+00

     total cpu time spent up to now is     1644.6 secs

     total energy              =   -2160.52803538 Ry
     Harris-Foulkes estimate   =   -2161.53438619 Ry
     estimated scf accuracy    <      46.33941577 Ry

     iteration #  6     ecut=    40.00 Ry     beta=0.70
     Davidson diagonalization with overlap
     ethr =  1.00E-02,  avg # of iterations =  1.1

     negative rho (up, down):  0.559E+00 0.000E+00

     total cpu time spent up to now is     1822.8 secs

     total energy              =   -2160.41637046 Ry
     Harris-Foulkes estimate   =   -2160.66362338 Ry
     estimated scf accuracy    <      31.11308204 Ry

     iteration #  7     ecut=    40.00 Ry     beta=0.70
     Davidson diagonalization with overlap
     ethr =  1.00E-02,  avg # of iterations =  1.0

     negative rho (up, down):  0.565E+00 0.000E+00

     total cpu time spent up to now is     2000.5 secs

     total energy              =   -2159.97912103 Ry
     Harris-Foulkes estimate   =   -2160.46952466 Ry
     estimated scf accuracy    <      21.71882531 Ry

     iteration #  8     ecut=    40.00 Ry     beta=0.70
     Davidson diagonalization with overlap
     ethr =  8.83E-03,  avg # of iterations =  1.0

     negative rho (up, down):  0.568E+00 0.000E+00

     total cpu time spent up to now is     2178.4 secs

     total energy              =   -2159.84458692 Ry
     Harris-Foulkes estimate   =   -2160.33728616 Ry
     estimated scf accuracy    <      10.52050456 Ry

     iteration #  9     ecut=    40.00 Ry     beta=0.70
     Davidson diagonalization with overlap
     ethr =  4.28E-03,  avg # of iterations =  1.1

     negative rho (up, down):  0.570E+00 0.000E+00

     total cpu time spent up to now is     2357.4 secs

     total energy              =   -2159.94525895 Ry
     Harris-Foulkes estimate   =   -2160.18339484 Ry
     estimated scf accuracy    <       5.81996559 Ry

     iteration # 10     ecut=    40.00 Ry     beta=0.70
     Davidson diagonalization with overlap
     ethr =  2.37E-03,  avg # of iterations =  2.6

     negative rho (up, down):  0.575E+00 0.000E+00

     total cpu time spent up to now is     2542.2 secs

     total energy              =   -2159.79046436 Ry
     Harris-Foulkes estimate   =   -2160.26192571 Ry
     estimated scf accuracy    <       5.41832210 Ry

     iteration # 11     ecut=    40.00 Ry     beta=0.70
     Davidson diagonalization with overlap
     ethr =  2.20E-03,  avg # of iterations =  3.2

     negative rho (up, down):  0.574E+00 0.000E+00

     total cpu time spent up to now is     2730.2 secs

     total energy              =   -2159.97447189 Ry
     Harris-Foulkes estimate   =   -2160.09437462 Ry
     estimated scf accuracy    <       0.76024633 Ry

     iteration # 12     ecut=    40.00 Ry     beta=0.70
     Davidson diagonalization with overlap
     ethr =  3.09E-04,  avg # of iterations =  5.6

     negative rho (up, down):  0.572E+00 0.000E+00

     total cpu time spent up to now is     2942.4 secs

     total energy              =   -2159.96885079 Ry
     Harris-Foulkes estimate   =   -2160.09082542 Ry
     estimated scf accuracy    <       0.84149791 Ry

     iteration # 13     ecut=    40.00 Ry     beta=0.70
     Davidson diagonalization with overlap
     ethr =  3.09E-04,  avg # of iterations =  3.4

     negative rho (up, down):  0.571E+00 0.000E+00

     total cpu time spent up to now is     3124.8 secs

     total energy              =   -2159.94728231 Ry
     Harris-Foulkes estimate   =   -2160.13142108 Ry
     estimated scf accuracy    <       1.14547142 Ry

     iteration # 14     ecut=    40.00 Ry     beta=0.70
     Davidson diagonalization with overlap
     ethr =  3.09E-04,  avg # of iterations =  3.4

     negative rho (up, down):  0.571E+00 0.000E+00

     total cpu time spent up to now is     3305.0 secs

     total energy              =   -2159.99027998 Ry
     Harris-Foulkes estimate   =   -2160.08697743 Ry
     estimated scf accuracy    <       0.51562639 Ry

     iteration # 15     ecut=    40.00 Ry     beta=0.70
     Davidson diagonalization with overlap
     ethr =  2.10E-04,  avg # of iterations =  1.0

     negative rho (up, down):  0.571E+00 0.000E+00

     total cpu time spent up to now is     3473.8 secs

     total energy              =   -2160.03297922 Ry
     Harris-Foulkes estimate   =   -2160.04720732 Ry
     estimated scf accuracy    <       0.09174742 Ry

     iteration # 16     ecut=    40.00 Ry     beta=0.70
     Davidson diagonalization with overlap
     ethr =  3.73E-05,  avg # of iterations =  3.4

     negative rho (up, down):  0.571E+00 0.000E+00

     total cpu time spent up to now is     3655.6 secs

     total energy              =   -2160.03411158 Ry
     Harris-Foulkes estimate   =   -2160.05002019 Ry
     estimated scf accuracy    <       0.19397031 Ry

     iteration # 17     ecut=    40.00 Ry     beta=0.70
     Davidson diagonalization with overlap
     ethr =  3.73E-05,  avg # of iterations =  2.0

     negative rho (up, down):  0.571E+00 0.000E+00

     total cpu time spent up to now is     3830.7 secs

     total energy              =   -2160.03934637 Ry
     Harris-Foulkes estimate   =   -2160.04838922 Ry
     estimated scf accuracy    <       0.06963811 Ry

     iteration # 18     ecut=    40.00 Ry     beta=0.70
     Davidson diagonalization with overlap
     ethr =  2.83E-05,  avg # of iterations =  1.2

     negative rho (up, down):  0.570E+00 0.000E+00

     total cpu time spent up to now is     4000.0 secs

     total energy              =   -2160.04355879 Ry
     Harris-Foulkes estimate   =   -2160.04638372 Ry
     estimated scf accuracy    <       0.01725346 Ry

     iteration # 19     ecut=    40.00 Ry     beta=0.70
     Davidson diagonalization with overlap
     ethr =  7.01E-06,  avg # of iterations =  4.6

     negative rho (up, down):  0.571E+00 0.000E+00

     total cpu time spent up to now is     4179.7 secs

     total energy              =   -2160.04093358 Ry
     Harris-Foulkes estimate   =   -2160.04972726 Ry
     estimated scf accuracy    <       0.04621361 Ry

     iteration # 20     ecut=    40.00 Ry     beta=0.70
     Davidson diagonalization with overlap
     ethr =  7.01E-06,  avg # of iterations =  4.0

     negative rho (up, down):  0.570E+00 0.000E+00

     total cpu time spent up to now is     4364.6 secs

     total energy              =   -2160.03842642 Ry
     Harris-Foulkes estimate   =   -2160.05328004 Ry
     estimated scf accuracy    <       0.12741461 Ry

     iteration # 21     ecut=    40.00 Ry     beta=0.70
     Davidson diagonalization with overlap
     ethr =  7.01E-06,  avg # of iterations =  2.5

     negative rho (up, down):  0.571E+00 0.000E+00

     total cpu time spent up to now is     4539.2 secs

     total energy              =   -2160.04445065 Ry
     Harris-Foulkes estimate   =   -2160.04912133 Ry
     estimated scf accuracy    <       0.06637599 Ry

     iteration # 22     ecut=    40.00 Ry     beta=0.70
     Davidson diagonalization with overlap
     ethr =  7.01E-06,  avg # of iterations =  1.0

     negative rho (up, down):  0.571E+00 0.000E+00

     total cpu time spent up to now is     4707.3 secs

     total energy              =   -2160.04598324 Ry
     Harris-Foulkes estimate   =   -2160.04761016 Ry
     estimated scf accuracy    <       0.01543231 Ry

     iteration # 23     ecut=    40.00 Ry     beta=0.70
     Davidson diagonalization with overlap
     ethr =  6.27E-06,  avg # of iterations =  1.0

     negative rho (up, down):  0.571E+00 0.000E+00

     total cpu time spent up to now is     4875.2 secs

     total energy              =   -2160.04633905 Ry
     Harris-Foulkes estimate   =   -2160.04710030 Ry
     estimated scf accuracy    <       0.00744141 Ry

     iteration # 24     ecut=    40.00 Ry     beta=0.70
     Davidson diagonalization with overlap
     ethr =  3.02E-06,  avg # of iterations =  2.2

     negative rho (up, down):  0.571E+00 0.000E+00

     total cpu time spent up to now is     5046.6 secs

     total energy              =   -2160.04443497 Ry
     Harris-Foulkes estimate   =   -2160.04845694 Ry
     estimated scf accuracy    <       0.02607282 Ry

     iteration # 25     ecut=    40.00 Ry     beta=0.70
     Davidson diagonalization with overlap
     ethr =  3.02E-06,  avg # of iterations =  4.5

     negative rho (up, down):  0.571E+00 0.000E+00

     total cpu time spent up to now is     5224.2 secs

     total energy              =   -2160.04579113 Ry
     Harris-Foulkes estimate   =   -2160.04815245 Ry
     estimated scf accuracy    <       0.01836923 Ry

     iteration # 26     ecut=    40.00 Ry     beta=0.70
     Davidson diagonalization with overlap
     ethr =  3.02E-06,  avg # of iterations =  1.0

     negative rho (up, down):  0.571E+00 0.000E+00

     total cpu time spent up to now is     5393.4 secs

     total energy              =   -2160.04674331 Ry
     Harris-Foulkes estimate   =   -2160.04771291 Ry
     estimated scf accuracy    <       0.00967628 Ry

     iteration # 27     ecut=    40.00 Ry     beta=0.70
     Davidson diagonalization with overlap
     ethr =  3.02E-06,  avg # of iterations =  1.0

     negative rho (up, down):  0.571E+00 0.000E+00

     total cpu time spent up to now is     5562.7 secs

     total energy              =   -2160.04703774 Ry
     Harris-Foulkes estimate   =   -2160.04747760 Ry
     estimated scf accuracy    <       0.00662569 Ry

     iteration # 28     ecut=    40.00 Ry     beta=0.70
     Davidson diagonalization with overlap
     ethr =  2.69E-06,  avg # of iterations =  1.6

     negative rho (up, down):  0.571E+00 0.000E+00

     total cpu time spent up to now is     5732.9 secs

     total energy              =   -2160.04726507 Ry
     Harris-Foulkes estimate   =   -2160.04733993 Ry
     estimated scf accuracy    <       0.00241732 Ry

     iteration # 29     ecut=    40.00 Ry     beta=0.70
     Davidson diagonalization with overlap
     ethr =  9.83E-07,  avg # of iterations =  1.0

     negative rho (up, down):  0.571E+00 0.000E+00

     total cpu time spent up to now is     5901.7 secs

     total energy              =   -2160.04729832 Ry
     Harris-Foulkes estimate   =   -2160.04761590 Ry
     estimated scf accuracy    <       0.00318495 Ry

     iteration # 30     ecut=    40.00 Ry     beta=0.70
     Davidson diagonalization with overlap
     ethr =  9.83E-07,  avg # of iterations =  1.0

     negative rho (up, down):  0.571E+00 0.000E+00

     total cpu time spent up to now is     6070.8 secs

     total energy              =   -2160.04680259 Ry
     Harris-Foulkes estimate   =   -2160.04765300 Ry
     estimated scf accuracy    <       0.00341080 Ry

     iteration # 31     ecut=    40.00 Ry     beta=0.70
     Davidson diagonalization with overlap
     ethr =  9.83E-07,  avg # of iterations =  3.6

     negative rho (up, down):  0.571E+00 0.000E+00

     total cpu time spent up to now is     6256.5 secs

     total energy              =   -2160.04423367 Ry
     Harris-Foulkes estimate   =   -2160.05024445 Ry
     estimated scf accuracy    <       0.07684442 Ry

     iteration # 32     ecut=    40.00 Ry     beta=0.70
     Davidson diagonalization with overlap
     ethr =  9.83E-07,  avg # of iterations =  3.8

     negative rho (up, down):  0.571E+00 0.000E+00

     total cpu time spent up to now is     6437.9 secs

     total energy              =   -2160.04719382 Ry
     Harris-Foulkes estimate   =   -2160.04778425 Ry
     estimated scf accuracy    <       0.00917729 Ry

     iteration # 33     ecut=    40.00 Ry     beta=0.70
     Davidson diagonalization with overlap
     ethr =  9.83E-07,  avg # of iterations =  1.0

     negative rho (up, down):  0.571E+00 0.000E+00

     total cpu time spent up to now is     6604.0 secs

     total energy              =   -2160.04740405 Ry
     Harris-Foulkes estimate   =   -2160.04755550 Ry
     estimated scf accuracy    <       0.00202177 Ry

     iteration # 34     ecut=    40.00 Ry     beta=0.70
     Davidson diagonalization with overlap
     ethr =  8.22E-07,  avg # of iterations =  1.2

     negative rho (up, down):  0.571E+00 0.000E+00

     total cpu time spent up to now is     6770.6 secs

     total energy              =   -2160.04700926 Ry
     Harris-Foulkes estimate   =   -2160.04819414 Ry
     estimated scf accuracy    <       0.01036581 Ry

     iteration # 35     ecut=    40.00 Ry     beta=0.70
     Davidson diagonalization with overlap
     ethr =  8.22E-07,  avg # of iterations =  1.0

     negative rho (up, down):  0.571E+00 0.000E+00

     total cpu time spent up to now is     6937.7 secs

     total energy              =   -2160.04756616 Ry
     Harris-Foulkes estimate   =   -2160.04766640 Ry
     estimated scf accuracy    <       0.00090508 Ry

     iteration # 36     ecut=    40.00 Ry     beta=0.70
     Davidson diagonalization with overlap
     ethr =  3.68E-07,  avg # of iterations =  1.2

     negative rho (up, down):  0.571E+00 0.000E+00

     total cpu time spent up to now is     7102.3 secs

     total energy              =   -2160.04724949 Ry
     Harris-Foulkes estimate   =   -2160.04788730 Ry
     estimated scf accuracy    <       0.00607363 Ry

     iteration # 37     ecut=    40.00 Ry     beta=0.70
     Davidson diagonalization with overlap
     ethr =  3.68E-07,  avg # of iterations =  1.2

     negative rho (up, down):  0.571E+00 0.000E+00

     total cpu time spent up to now is     7269.5 secs

     total energy              =   -2160.04737073 Ry
     Harris-Foulkes estimate   =   -2160.04779465 Ry
     estimated scf accuracy    <       0.00329140 Ry

     iteration # 38     ecut=    40.00 Ry     beta=0.70
     Davidson diagonalization with overlap
     ethr =  3.68E-07,  avg # of iterations =  1.0

     negative rho (up, down):  0.571E+00 0.000E+00

     total cpu time spent up to now is     7438.0 secs

     total energy              =   -2160.04761421 Ry
     Harris-Foulkes estimate   =   -2160.04765797 Ry
     estimated scf accuracy    <       0.00112518 Ry

     iteration # 39     ecut=    40.00 Ry     beta=0.70
     Davidson diagonalization with overlap
     ethr =  3.68E-07,  avg # of iterations =  1.0

     negative rho (up, down):  0.571E+00 0.000E+00

     total cpu time spent up to now is     7606.6 secs

     total energy              =   -2160.04764001 Ry
     Harris-Foulkes estimate   =   -2160.04767427 Ry
     estimated scf accuracy    <       0.00068738 Ry

     iteration # 40     ecut=    40.00 Ry     beta=0.70
     Davidson diagonalization with overlap
     ethr =  2.79E-07,  avg # of iterations =  1.0

     negative rho (up, down):  0.571E+00 0.000E+00

     total cpu time spent up to now is     7776.5 secs

     total energy              =   -2160.04765595 Ry
     Harris-Foulkes estimate   =   -2160.04769570 Ry
     estimated scf accuracy    <       0.00046424 Ry

     iteration # 41     ecut=    40.00 Ry     beta=0.70
     Davidson diagonalization with overlap
     ethr =  1.89E-07,  avg # of iterations =  1.0

     negative rho (up, down):  0.571E+00 0.000E+00

     total cpu time spent up to now is     7946.1 secs

     total energy              =   -2160.04760002 Ry
     Harris-Foulkes estimate   =   -2160.04776372 Ry
     estimated scf accuracy    <       0.00104744 Ry

     iteration # 42     ecut=    40.00 Ry     beta=0.70
     Davidson diagonalization with overlap
     ethr =  1.89E-07,  avg # of iterations =  1.1

     negative rho (up, down):  0.571E+00 0.000E+00

     total cpu time spent up to now is     8116.5 secs

     total energy              =   -2160.04738913 Ry
     Harris-Foulkes estimate   =   -2160.04792180 Ry
     estimated scf accuracy    <       0.00565187 Ry

     iteration # 43     ecut=    40.00 Ry     beta=0.70
     Davidson diagonalization with overlap
     ethr =  1.89E-07,  avg # of iterations =  1.1

     negative rho (up, down):  0.571E+00 0.000E+00

     total cpu time spent up to now is     8284.6 secs

     total energy              =   -2160.04755585 Ry
     Harris-Foulkes estimate   =   -2160.04779481 Ry
     estimated scf accuracy    <       0.00144280 Ry

     iteration # 44     ecut=    40.00 Ry     beta=0.70
     Davidson diagonalization with overlap
     ethr =  1.89E-07,  avg # of iterations =  1.2

     negative rho (up, down):  0.571E+00 0.000E+00

     total cpu time spent up to now is     8455.7 secs

     total energy              =   -2160.04766724 Ry
     Harris-Foulkes estimate   =   -2160.04771575 Ry
     estimated scf accuracy    <       0.00046125 Ry

     iteration # 45     ecut=    40.00 Ry     beta=0.70
     Davidson diagonalization with overlap
     ethr =  1.88E-07,  avg # of iterations =  1.0

     negative rho (up, down):  0.571E+00 0.000E+00

     total cpu time spent up to now is     8623.5 secs

     total energy              =   -2160.04769170 Ry
     Harris-Foulkes estimate   =   -2160.04769551 Ry
     estimated scf accuracy    <       0.00021953 Ry

     iteration # 46     ecut=    40.00 Ry     beta=0.70
     Davidson diagonalization with overlap
     ethr =  8.92E-08,  avg # of iterations =  1.0

     negative rho (up, down):  0.571E+00 0.000E+00

     total cpu time spent up to now is     8795.2 secs

     total energy              =   -2160.04769934 Ry
     Harris-Foulkes estimate   =   -2160.04770971 Ry
     estimated scf accuracy    <       0.00009599 Ry

     iteration # 47     ecut=    40.00 Ry     beta=0.70
     Davidson diagonalization with overlap
     ethr =  3.90E-08,  avg # of iterations =  1.0

     negative rho (up, down):  0.571E+00 0.000E+00

     total cpu time spent up to now is     8964.7 secs

     total energy              =   -2160.04768583 Ry
     Harris-Foulkes estimate   =   -2160.04771305 Ry
     estimated scf accuracy    <       0.00015215 Ry

     iteration # 48     ecut=    40.00 Ry     beta=0.70
     Davidson diagonalization with overlap
     ethr =  3.90E-08,  avg # of iterations =  2.0

     negative rho (up, down):  0.571E+00 0.000E+00

     total cpu time spent up to now is     9140.2 secs

     total energy              =   -2160.04764210 Ry
     Harris-Foulkes estimate   =   -2160.04776684 Ry
     estimated scf accuracy    <       0.00093530 Ry

     iteration # 49     ecut=    40.00 Ry     beta=0.70
     Davidson diagonalization with overlap
     ethr =  3.90E-08,  avg # of iterations =  1.3

     negative rho (up, down):  0.571E+00 0.000E+00

     total cpu time spent up to now is     9310.1 secs

     total energy              =   -2160.04770091 Ry
     Harris-Foulkes estimate   =   -2160.04771304 Ry
     estimated scf accuracy    <       0.00010871 Ry

     iteration # 50     ecut=    40.00 Ry     beta=0.70
     Davidson diagonalization with overlap
     ethr =  3.90E-08,  avg # of iterations =  1.0

     negative rho (up, down):  0.571E+00 0.000E+00

     total cpu time spent up to now is     9477.8 secs

     total energy              =   -2160.04770653 Ry
     Harris-Foulkes estimate   =   -2160.04770938 Ry
     estimated scf accuracy    <       0.00004240 Ry

     iteration # 51     ecut=    40.00 Ry     beta=0.70
     Davidson diagonalization with overlap
     ethr =  1.72E-08,  avg # of iterations =  1.0

     negative rho (up, down):  0.571E+00 0.000E+00

     total cpu time spent up to now is     9647.7 secs

     total energy              =   -2160.04770970 Ry
     Harris-Foulkes estimate   =   -2160.04771386 Ry
     estimated scf accuracy    <       0.00003492 Ry

     iteration # 52     ecut=    40.00 Ry     beta=0.70
     Davidson diagonalization with overlap
     ethr =  1.42E-08,  avg # of iterations =  1.0

     negative rho (up, down):  0.571E+00 0.000E+00

     total cpu time spent up to now is     9815.6 secs

     total energy              =   -2160.04771185 Ry
     Harris-Foulkes estimate   =   -2160.04771305 Ry
     estimated scf accuracy    <       0.00002552 Ry

     iteration # 53     ecut=    40.00 Ry     beta=0.70
     Davidson diagonalization with overlap
     ethr =  1.04E-08,  avg # of iterations =  1.0

     negative rho (up, down):  0.571E+00 0.000E+00

     total cpu time spent up to now is     9984.3 secs

     total energy              =   -2160.04771144 Ry
     Harris-Foulkes estimate   =   -2160.04771409 Ry
     estimated scf accuracy    <       0.00000902 Ry

     iteration # 54     ecut=    40.00 Ry     beta=0.70
     Davidson diagonalization with overlap
     ethr =  3.67E-09,  avg # of iterations =  1.4

     negative rho (up, down):  0.571E+00 0.000E+00

     total cpu time spent up to now is    10155.0 secs

     total energy              =   -2160.04771108 Ry
     Harris-Foulkes estimate   =   -2160.04771761 Ry
     estimated scf accuracy    <       0.00005413 Ry

     iteration # 55     ecut=    40.00 Ry     beta=0.70
     Davidson diagonalization with overlap
     ethr =  3.67E-09,  avg # of iterations =  2.0

     negative rho (up, down):  0.571E+00 0.000E+00

     total cpu time spent up to now is    10334.3 secs

     total energy              =   -2160.04770640 Ry
     Harris-Foulkes estimate   =   -2160.04772140 Ry
     estimated scf accuracy    <       0.00015206 Ry

     iteration # 56     ecut=    40.00 Ry     beta=0.70
     Davidson diagonalization with overlap
     ethr =  3.67E-09,  avg # of iterations =  1.0

     negative rho (up, down):  0.571E+00 0.000E+00

     total cpu time spent up to now is    10502.7 secs

     total energy              =   -2160.04771374 Ry
     Harris-Foulkes estimate   =   -2160.04771431 Ry
     estimated scf accuracy    <       0.00000803 Ry

     iteration # 57     ecut=    40.00 Ry     beta=0.70
     Davidson diagonalization with overlap
     ethr =  3.27E-09,  avg # of iterations =  1.0

     negative rho (up, down):  0.571E+00 0.000E+00

     total cpu time spent up to now is    10671.0 secs

     total energy              =   -2160.04771424 Ry
     Harris-Foulkes estimate   =   -2160.04771445 Ry
     estimated scf accuracy    <       0.00000311 Ry

     iteration # 58     ecut=    40.00 Ry     beta=0.70
     Davidson diagonalization with overlap
     ethr =  1.27E-09,  avg # of iterations =  1.0

     negative rho (up, down):  0.571E+00 0.000E+00

     total cpu time spent up to now is    10837.8 secs

     total energy              =   -2160.04771417 Ry
     Harris-Foulkes estimate   =   -2160.04771482 Ry
     estimated scf accuracy    <       0.00000562 Ry

     iteration # 59     ecut=    40.00 Ry     beta=0.70
     Davidson diagonalization with overlap
     ethr =  1.27E-09,  avg # of iterations =  1.8

     negative rho (up, down):  0.571E+00 0.000E+00

     total cpu time spent up to now is    11006.3 secs

     total energy              =   -2160.04771338 Ry
     Harris-Foulkes estimate   =   -2160.04771569 Ry
     estimated scf accuracy    <       0.00001701 Ry

     iteration # 60     ecut=    40.00 Ry     beta=0.70
     Davidson diagonalization with overlap
     ethr =  1.27E-09,  avg # of iterations =  1.1

     negative rho (up, down):  0.571E+00 0.000E+00

     total cpu time spent up to now is    11186.3 secs

     total energy              =   -2160.04771433 Ry
     Harris-Foulkes estimate   =   -2160.04771494 Ry
     estimated scf accuracy    <       0.00000465 Ry

     iteration # 61     ecut=    40.00 Ry     beta=0.70
     Davidson diagonalization with overlap
     ethr =  1.27E-09,  avg # of iterations =  1.0

     negative rho (up, down):  0.571E+00 0.000E+00

     total cpu time spent up to now is    11364.4 secs

     total energy              =   -2160.04771455 Ry
     Harris-Foulkes estimate   =   -2160.04771480 Ry
     estimated scf accuracy    <       0.00000239 Ry

     iteration # 62     ecut=    40.00 Ry     beta=0.70
     Davidson diagonalization with overlap
     ethr =  9.72E-10,  avg # of iterations =  1.0

     negative rho (up, down):  0.571E+00 0.000E+00

     total cpu time spent up to now is    11543.2 secs

     total energy              =   -2160.04771474 Ry
     Harris-Foulkes estimate   =   -2160.04771478 Ry
     estimated scf accuracy    <       0.00000138 Ry

     iteration # 63     ecut=    40.00 Ry     beta=0.70
     Davidson diagonalization with overlap
     ethr =  5.63E-10,  avg # of iterations =  1.0

     negative rho (up, down):  0.571E+00 0.000E+00

     total cpu time spent up to now is    11723.4 secs

     End of self-consistent calculation
 --- enter write_ns ---
 LDA+U parameters:
U( 2)     =  6.50000000
alpha( 2) =  0.00000000
atom    3   Tr[ns(na)] =   7.23456
    eigenvalues: 
  0.516  0.558  0.633  0.927  0.984
    eigenvectors:
  0.000  0.163  0.003  0.000  0.834
  0.998  0.001  0.000  0.000  0.000
  0.000  0.016  0.968  0.002  0.013
  0.002  0.819  0.027  0.000  0.152
  0.000  0.000  0.002  0.998  0.000
    occupations:
  0.913  0.008  0.041 -0.153  0.002
  0.008  0.517  0.003 -0.005 -0.007
  0.041  0.003  0.637 -0.007 -0.012
 -0.153 -0.005 -0.007  0.625  0.000
  0.002 -0.007 -0.012  0.000  0.926
atom    4   Tr[ns(na)] =   7.25350
    eigenvalues: 
  0.548  0.599  0.620  0.873  0.986
    eigenvectors:
  0.006  0.978  0.000  0.000  0.016
  0.000  0.000  0.044  0.956  0.000
  0.000  0.000  0.956  0.044  0.000
  0.000  0.016  0.000  0.000  0.984
  0.994  0.006  0.000  0.000  0.000
    occupations:
  0.605 -0.002 -0.000  0.049  0.004
 -0.002  0.862  0.052 -0.001 -0.001
 -0.000  0.052  0.631  0.003  0.001
  0.049 -0.001  0.003  0.980  0.000
  0.004 -0.001  0.001  0.000  0.549
atom    9   Tr[ns(na)] =   7.30598
    eigenvalues: 
  0.561  0.580  0.804  0.842  0.867
    eigenvectors:
  0.000  0.168  0.016  0.637  0.179
  0.993  0.007  0.000  0.000  0.000
  0.000  0.000  0.981  0.016  0.004
  0.007  0.825  0.003  0.128  0.037
  0.000  0.000  0.000  0.220  0.780
    occupations:
  0.801 -0.003 -0.005 -0.099  0.009
 -0.003  0.561  0.003  0.003  0.001
 -0.005  0.003  0.805  0.002 -0.001
 -0.099  0.003  0.002  0.625 -0.005
  0.009  0.001 -0.001 -0.005  0.861
atom   10   Tr[ns(na)] =   7.29439
    eigenvalues: 
  0.486  0.514  0.772  0.900  0.975
    eigenvectors:
  0.985  0.000  0.000  0.000  0.015
  0.000  0.000  0.000  1.000  0.000
  0.000  0.000  1.000  0.000  0.000
  0.015  0.000  0.000  0.000  0.985
  0.000  1.000  0.000  0.000  0.000
    occupations:
  0.494  0.000  0.001  0.059  0.000
  0.000  0.900  0.002  0.000  0.001
  0.001  0.002  0.772  0.000  0.000
  0.059  0.000  0.000  0.967  0.000
  0.000  0.001  0.000  0.000  0.514
atom   16   Tr[ns(na)] =   7.23410
    eigenvalues: 
  0.517  0.558  0.632  0.927  0.984
    eigenvectors:
  0.000  0.163  0.003  0.000  0.834
  0.998  0.001  0.000  0.000  0.000
  0.000  0.019  0.965  0.003  0.013
  0.001  0.817  0.030  0.000  0.152
  0.000  0.000  0.003  0.997  0.000
    occupations:
  0.913 -0.008  0.041 -0.153 -0.002
 -0.008  0.517 -0.003  0.005 -0.007
  0.041 -0.003  0.636 -0.007  0.016
 -0.153  0.005 -0.007  0.625 -0.001
 -0.002 -0.007  0.016 -0.001  0.926
atom   17   Tr[ns(na)] =   7.25900
    eigenvalues: 
  0.545  0.600  0.637  0.862  0.986
    eigenvectors:
  0.004  0.981  0.000  0.000  0.015
  0.000  0.000  0.031  0.969  0.000
  0.000  0.000  0.969  0.031  0.000
  0.000  0.015  0.000  0.000  0.985
  0.996  0.004  0.000  0.000  0.000
    occupations:
  0.605 -0.002 -0.000  0.047  0.003
 -0.002  0.855  0.039 -0.001 -0.002
 -0.000  0.039  0.644  0.001  0.001
  0.047 -0.001  0.001  0.980 -0.000
  0.003 -0.002  0.001 -0.000  0.545
atom   22   Tr[ns(na)] =   7.30645
    eigenvalues: 
  0.560  0.580  0.797  0.846  0.870
    eigenvectors:
  0.000  0.167  0.032  0.531  0.270
  0.998  0.001  0.000  0.000  0.000
  0.000  0.000  0.958  0.034  0.008
  0.002  0.831  0.009  0.104  0.055
  0.000  0.000  0.001  0.331  0.668
    occupations:
  0.806  0.005  0.011 -0.101  0.010
  0.005  0.561  0.003 -0.003 -0.002
  0.011  0.003  0.799 -0.002  0.000
 -0.101 -0.003 -0.002  0.625 -0.006
  0.010 -0.002  0.000 -0.006  0.862
atom   23   Tr[ns(na)] =   7.26424
    eigenvalues: 
  0.578  0.664  0.666  0.736  0.988
    eigenvectors:
  0.000  0.277  0.715  0.000  0.008
  0.000  0.000  0.000  1.000  0.000
  0.000  0.720  0.279  0.000  0.000
  0.000  0.003  0.005  0.000  0.992
  1.000  0.000  0.000  0.000  0.000
    occupations:
  0.668 -0.000 -0.001  0.029 -0.000
 -0.000  0.736 -0.000  0.000  0.001
 -0.001 -0.000  0.664  0.002 -0.000
  0.029  0.000  0.002  0.985 -0.000
 -0.000  0.001 -0.000 -0.000  0.578
N of occupied +U levels =  58.1522275
 --- exit write_ns ---

          k = 0.0000 0.0000 0.0000 ( 30363 PWs)   bands (ev):

   -74.8233 -73.9018 -73.8794 -73.8667 -73.8519 -73.5731 -73.5630 -73.3865
   -45.3720 -44.6139 -44.5148 -44.2060 -44.1518 -44.1002 -43.9148 -43.9114
   -43.8681 -43.8607 -43.8548 -43.8270 -43.8206 -43.8026 -43.7969 -43.7519
   -43.6861 -43.6302 -43.5996 -43.5490 -43.3739 -43.3441 -43.2429 -43.2048
   -21.0875 -20.7192 -20.6257 -20.3586 -20.2847 -20.2602 -20.0386 -20.0063
   -19.7706 -19.7286 -19.6945 -19.6753 -19.6659 -19.6150 -19.3882 -19.1516
   -19.0886 -19.0631 -18.9664 -10.2241 -10.0903  -9.7174  -9.2479  -9.0711
    -8.9653  -8.8467  -8.6252  -8.2897  -8.2035  -7.9878  -7.9597  -7.9284
    -7.8698  -7.8080  -7.7337  -7.5509  -7.4709  -7.3517  -7.2867  -7.2512
    -7.0111  -6.6559  -6.5974  -6.5885  -6.1343  -5.9532  -5.8816  -5.8420
    -5.6380  -5.5823  -5.5662  -5.5061  -5.4744  -5.1651  -5.1188  -5.0660
    -5.0458  -4.9186  -4.8210  -4.7679  -4.5254  -4.4153  -4.3874  -4.2938
    -4.2404  -4.2191  -4.1147  -4.0426  -3.9678  -3.9339  -3.8524  -3.8078
    -3.7748  -3.7574  -3.7333  -3.6601  -3.5927  -3.5528  -3.4051  -3.3417
    -3.3200  -3.1496  -3.0290  -2.9322  -2.8119  -2.4240  -2.2867  -2.0186
    -1.9948  -1.7292  -1.5996  -1.4986  -1.4279  -1.1400  -0.9096  -0.7646
    -0.6837  -0.5311  -0.2385   0.1941   0.7292   1.4621   1.5995   1.9064
     2.0679   2.3559   2.4709   2.4785   2.7167   3.2202   3.2664   3.3719
     3.5154   3.7636   3.7684   3.8796   4.0597   4.2397   4.3052   4.7913
     5.2022   6.0026   6.1826   6.3071   6.5216   6.8678   7.1284   7.3181
     7.5231   7.6729   7.8310   7.9023   7.9164   7.9918   8.0159   8.1298
     8.2190   8.2502   8.3302   8.4334   8.5565   8.6237   8.6819   8.8051
     8.8666   9.1148   9.1515   9.2226   9.2572   9.3758   9.4275   9.5238
     9.7000   9.8012   9.8525   9.8953   9.9439  10.0137  10.1044  10.2645
    10.5998  10.7330  10.7484  11.0035  11.0820  11.1512  11.1722  11.2535
    11.2965  11.3162  11.4613  11.4730  11.6133  11.6494  11.7073  11.7539
    11.7642  11.8156  11.8716  12.0445  12.0531  12.1024  12.2059  12.2183
    12.2589  12.3912  12.4378  12.4968  12.5636  12.5939  12.6900  12.7116
    12.7677  12.7918  12.8795  12.9727  13.0188  13.0722  13.1861  13.2612
    13.3485  13.3644  13.4510  13.6514  13.8049  13.8644  13.8928  13.9700
    14.0488  14.1383  14.2405  14.2782  14.3080  14.5169  14.5937  14.6178
    14.6865  14.8539  14.9280  15.0734  15.1077  15.2579  15.4108  15.4514
    15.5091  15.5923  15.7929  15.8098  15.9398  15.9677  16.0491  16.0927
    16.2676  16.3048  16.4203  16.5511  16.6110  16.7451  16.8833  16.9172
    17.1280  17.1838  17.2485  17.2817  17.3264  17.3942  17.4810  17.5454
    17.7561  17.8925  17.9301  17.9378  18.0510  18.1294  18.3096  18.4096
    18.4750  18.5605  18.5842  18.6236  18.6984  18.7904  18.8061  18.8386
    18.8647  18.8906  18.8987  18.9673  19.0504  19.1457  19.1891  19.2590
    19.2936  19.3418  19.3841  19.4030  19.5720  19.6402  19.6489  19.6995
    19.7788  19.8109  19.9895  20.0479  20.0848  20.1125  20.1400  20.2057
    20.2369  20.3336  20.3607  20.4234  20.4657  20.5574  20.6509  20.7171
    20.7599  20.8013  20.8741  20.9056  21.0358  21.0737  21.2054  21.2246
    21.3068  21.3637  21.4736  21.4981  21.6158  21.6755  21.7087  21.7589
    21.7969  21.8235  21.8882  22.0317  22.1689  22.2039  22.2672  22.3136
    22.3440  22.3978  22.4274  22.5013  22.5280

          k = 0.0000 0.2435 0.0000 ( 30432 PWs)   bands (ev):

   -74.8234 -73.9019 -73.8790 -73.8668 -73.8522 -73.5727 -73.5630 -73.3866
   -45.3720 -44.6141 -44.5142 -44.2060 -44.1518 -44.0997 -43.9129 -43.9110
   -43.8683 -43.8608 -43.8512 -43.8270 -43.8219 -43.8086 -43.7971 -43.7522
   -43.6844 -43.6303 -43.5994 -43.5494 -43.3733 -43.3437 -43.2432 -43.2048
   -21.0376 -20.6735 -20.5367 -20.3580 -20.2707 -20.2481 -20.0361 -20.0107
   -19.9384 -19.9341 -19.6755 -19.6330 -19.5027 -19.4581 -19.3865 -19.2987
   -19.2537 -19.0547 -18.9675  -9.9838  -9.7671  -9.6130  -9.3950  -9.2497
    -9.1414  -8.9647  -8.8840  -8.1146  -8.0421  -7.9060  -7.8746  -7.7965
    -7.7212  -7.6315  -7.5485  -7.4825  -7.3661  -7.3242  -7.2375  -6.9964
    -6.8838  -6.6356  -6.6145  -6.5214  -6.3042  -6.1413  -5.8753  -5.8464
    -5.7530  -5.6602  -5.6029  -5.5660  -5.5192  -5.3806  -5.3436  -5.2810
    -5.2332  -5.2010  -5.0175  -4.9432  -4.7520  -4.6756  -4.6130  -4.5087
    -4.4095  -4.2164  -4.1868  -4.1224  -3.9822  -3.9544  -3.9036  -3.8379
    -3.7517  -3.6293  -3.5883  -3.4590  -3.3591  -3.1764  -3.1732  -3.0700
    -3.0106  -2.9448  -2.8732  -2.8428  -2.7701  -2.7227  -2.4176  -2.3426
    -2.2252  -1.7235  -1.6629  -1.6013  -1.5107  -0.9705  -0.7740  -0.6247
    -0.5329  -0.4228  -0.3679  -0.0204   0.9380   1.2385   1.4755   1.5209
     1.8453   2.3288   2.6802   3.1470   3.2358   3.3192   3.5075   3.5168
     3.5758   3.6811   3.6882   3.8305   3.9901   4.4085   4.4970   4.9946
     5.3378   5.4907   6.1640   6.2811   6.4186   6.5259   6.6664   6.8087
     7.0025   7.2998   7.5581   7.7478   7.9398   8.0043   8.0783   8.1640
     8.1947   8.3427   8.3717   8.4725   8.6712   8.8202   8.9045   9.0375
     9.1976   9.2235   9.3175   9.4288   9.5491   9.6196   9.6355   9.7118
     9.8645   9.8691  10.0161  10.0587  10.0880  10.1205  10.1293  10.2651
    10.3642  10.3979  10.4494  10.5659  10.6389  10.7028  10.8760  11.0162
    11.0859  11.1980  11.2563  11.3530  11.3747  11.4500  11.5380  11.5546
    11.5831  11.6967  11.9261  11.9847  12.0674  12.2847  12.4497  12.5323
    12.6029  12.6344  12.6914  12.7244  12.7280  12.8910  12.9512  13.1182
    13.1690  13.2513  13.3161  13.3914  13.4543  13.5268  13.6817  13.7222
    13.7502  13.7738  13.9081  14.0099  14.0246  14.1163  14.1673  14.2271
    14.3270  14.3833  14.4666  14.4903  14.6298  14.6783  14.6930  14.7652
    14.8686  14.9457  14.9858  15.0807  15.1787  15.2051  15.3423  15.4456
    15.5854  15.5968  15.6860  15.7363  15.8797  15.9185  15.9762  16.0381
    16.1007  16.2063  16.2967  16.3661  16.4549  16.4738  16.6164  16.6565
    16.7407  16.8477  16.8774  16.9354  17.0671  17.1860  17.2464  17.3005
    17.4015  17.4468  17.5747  17.6191  17.6944  17.7433  18.0049  18.1016
    18.1478  18.2000  18.2471  18.3673  18.4855  18.5209  18.5303  18.7494
    18.7811  18.8141  18.8835  18.9310  18.9602  18.9966  19.0603  19.1042
    19.1262  19.2144  19.3009  19.3594  19.3970  19.4731  19.5395  19.5780
    19.6224  19.7002  19.8033  19.8414  19.8509  19.9600  19.9866  20.0305
    20.0570  20.1676  20.2057  20.2323  20.2990  20.3390  20.3989  20.4618
    20.4670  20.5127  20.5969  20.6215  20.7813  20.8558  20.8983  20.9718
    21.0705  21.0971  21.1320  21.1600  21.2303  21.2629  21.2891  21.3449
    21.3717  21.4481  21.5264  21.6076  21.6646  21.7340  21.7893  21.8096
    21.8631  21.9837  22.0338  22.0566  22.1384

          k = 0.0000-0.4870 0.0000 ( 30448 PWs)   bands (ev):

   -74.8235 -73.9020 -73.8786 -73.8668 -73.8523 -73.5723 -73.5631 -73.3867
   -45.3721 -44.6143 -44.5136 -44.2060 -44.1518 -44.0993 -43.9122 -43.9097
   -43.8684 -43.8609 -43.8380 -43.8348 -43.8270 -43.8121 -43.7972 -43.7524
   -43.6827 -43.6304 -43.5992 -43.5497 -43.3727 -43.3433 -43.2435 -43.2049
   -20.9888 -20.6387 -20.3656 -20.3567 -20.3000 -20.2218 -20.0367 -20.0219
   -20.0183 -20.0061 -19.6742 -19.6381 -19.4606 -19.4546 -19.4140 -19.3848
   -19.3545 -19.0473 -18.9742  -9.8583  -9.6243  -9.4381  -9.3524  -9.3040
    -9.2534  -8.9633  -8.9243  -8.0144  -7.8880  -7.7644  -7.6907  -7.6445
    -7.6212  -7.5602  -7.5442  -7.3673  -7.3183  -7.2867  -7.1796  -7.0946
    -6.9534  -6.6670  -6.5130  -6.3486  -6.2878  -6.2491  -6.2164  -6.0533
    -5.8805  -5.8136  -5.8020  -5.6675  -5.6190  -5.5678  -5.5145  -5.4010
    -5.2791  -5.1898  -4.9970  -4.9604  -4.9167  -4.8536  -4.6973  -4.4834
    -4.2858  -4.2477  -4.1965  -4.1360  -3.9892  -3.9152  -3.8877  -3.8604
    -3.7821  -3.6265  -3.4810  -3.4568  -3.4547  -3.3351  -3.2911  -3.0867
    -3.0217  -2.9530  -2.7773  -2.7370  -2.6003  -2.4868  -2.3920  -2.3740
    -2.2763  -1.6494  -1.6023  -1.5991  -1.3331  -1.0895  -0.9940  -0.5681
    -0.4364  -0.4107  -0.2136  -0.1902   0.8592   1.1056   1.1354   1.5153
     2.1079   2.4878   2.8874   3.2075   3.3289   3.3738   3.4541   3.5041
     3.6227   3.7552   3.9468   4.0474   4.1300   4.5267   5.0174   5.1264
     5.2073   5.3101   5.6578   5.7700   6.1486   6.2984   6.8218   6.8689
     7.0647   7.1287   7.2660   7.3152   7.4637   7.9593   8.1900   8.3171
     8.4892   8.5836   8.5979   8.6350   8.8685   8.9729   8.9913   9.0068
     9.0577   9.1016   9.2363   9.3076   9.3303   9.4285   9.5638   9.6102
     9.6328   9.7033   9.8240   9.8347  10.0267  10.0731  10.1673  10.1907
    10.2222  10.3759  10.4368  10.7677  10.8933  10.9681  11.0240  11.0875
    11.2500  11.3413  11.4229  11.6330  11.6841  11.7106  11.7478  11.8566
    11.9403  12.0400  12.1892  12.2243  12.2402  12.2667  12.4329  12.4670
    12.6380  12.6529  12.7249  12.7974  12.8868  12.9740  13.0690  13.1943
    13.2461  13.2705  13.3081  13.3780  13.5397  13.5512  13.6137  13.6233
    13.7659  13.8487  13.8840  13.9310  14.0471  14.1380  14.3426  14.4206
    14.4786  14.5641  14.6299  14.7122  14.8162  14.8566  14.8714  15.0563
    15.1439  15.2831  15.3443  15.4678  15.4999  15.6203  15.6597  15.6918
    15.7123  15.8926  15.9683  16.0264  16.0877  16.1075  16.1562  16.1697
    16.2659  16.2714  16.4078  16.4139  16.4892  16.5164  16.5311  16.5973
    16.6027  16.6168  16.6646  16.7744  16.8711  16.9739  16.9933  17.0029
    17.0831  17.3018  17.3343  17.3882  17.4640  17.4729  17.6020  17.7058
    17.7274  17.8332  17.8759  18.0466  18.1053  18.1177  18.2404  18.2986
    18.3104  18.3767  18.4243  18.4798  18.5221  18.5603  18.5932  18.6148
    18.6831  18.7343  18.8347  18.9398  18.9820  19.0042  19.0117  19.0558
    19.2433  19.3740  19.4451  19.5820  19.7220  19.7328  19.8455  19.9601
    19.9960  20.0553  20.1323  20.2758  20.3447  20.3970  20.4689  20.4713
    20.5230  20.5717  20.5821  20.6095  20.6353  20.6879  20.7119  20.7353
    20.7651  20.8107  20.8474  20.8991  20.9687  20.9974  21.0313  21.0507
    21.0957  21.2394  21.2716  21.2780  21.4015  21.5245  21.5464  21.5957
    21.6426  21.6598  21.7211  21.7473  21.7843

          k = 0.2500 0.0000 0.0000 ( 30394 PWs)   bands (ev):

   -74.8225 -73.9004 -73.8768 -73.8677 -73.8512 -73.5706 -73.5634 -73.3855
   -45.3721 -44.6129 -44.5148 -44.2056 -44.1517 -44.0744 -43.9385 -43.9113
   -43.8709 -43.8615 -43.8509 -43.8234 -43.8217 -43.8029 -43.8002 -43.7515
   -43.6731 -43.6260 -43.6039 -43.5748 -43.3526 -43.3487 -43.2430 -43.2322
   -20.9783 -20.5976 -20.5261 -20.3925 -20.2811 -20.1882 -20.0565 -19.9871
   -19.8931 -19.7983 -19.6771 -19.6400 -19.5950 -19.5879 -19.4890 -19.2376
   -19.1785 -19.1393 -18.9877  -9.9357  -9.8242  -9.4869  -9.0504  -8.9708
    -8.8595  -8.6839  -8.5211  -8.3159  -8.2660  -8.1512  -8.0705  -8.0014
    -7.9951  -7.7751  -7.7346  -7.6307  -7.5326  -7.3889  -7.2741  -7.1127
    -7.0119  -6.7495  -6.6721  -6.5128  -6.2919  -6.1582  -6.0840  -5.9720
    -5.9501  -5.6613  -5.6175  -5.5233  -5.4576  -5.4086  -5.3675  -5.2512
    -5.1408  -5.0621  -4.9691  -4.9293  -4.7093  -4.6479  -4.5992  -4.5508
    -4.3486  -4.2908  -4.2439  -4.1892  -4.1503  -4.0358  -3.9306  -3.8061
    -3.6830  -3.5896  -3.5054  -3.4286  -3.3495  -3.3092  -3.2782  -3.1085
    -2.9230  -2.7207  -2.7070  -2.5040  -2.4451  -2.3755  -2.3527  -1.9605
    -1.9052  -1.6264  -1.5389  -1.3791  -1.3280  -1.2451  -0.9246  -0.8471
    -0.7695  -0.6417  -0.3918   0.0592   0.8657   1.6558   1.6944   2.0119
     2.1569   2.3868   2.4814   2.5199   2.7765   2.9127   3.2396   3.3560
     3.4723   3.5024   3.5383   3.5983   4.0683   4.4621   4.5531   5.0493
     5.4177   5.4826   6.1933   6.3607   6.4496   6.5342   6.5971   6.9003
     7.2667   7.3802   7.6042   7.7355   7.8576   7.8861   8.0822   8.1591
     8.2784   8.3819   8.4771   8.5703   8.6271   8.6866   8.8962   9.0576
     9.1644   9.1991   9.3292   9.4314   9.4438   9.5585   9.6919   9.7227
     9.8440   9.9244   9.9652  10.0480  10.1125  10.1564  10.1784  10.3005
    10.3246  10.4390  10.5393  10.5892  10.7014  10.7933  10.9760  11.0242
    11.1578  11.2471  11.3172  11.3664  11.4641  11.4842  11.6157  11.6612
    11.7107  11.7524  11.9247  11.9719  12.0159  12.1589  12.2196  12.3138
    12.4837  12.5815  12.6385  12.6644  12.7562  12.7704  12.9332  12.9713
    13.0914  13.2062  13.2336  13.3031  13.5103  13.5613  13.6932  13.7685
    13.8211  13.8773  13.9231  14.0127  14.1456  14.1808  14.2433  14.3005
    14.3304  14.3609  14.4027  14.4912  14.5647  14.6367  14.7296  14.7928
    14.8192  15.0058  15.1074  15.1450  15.2085  15.3088  15.4934  15.5232
    15.6038  15.7188  15.7934  15.8174  15.9118  15.9558  16.0356  16.0985
    16.1243  16.1644  16.2611  16.3254  16.4479  16.5014  16.5652  16.7120
    16.7511  16.7975  16.9293  16.9553  16.9916  17.0460  17.2669  17.3039
    17.3951  17.4427  17.5395  17.5725  17.6075  17.6721  17.7360  17.8693
    18.0398  18.1577  18.2002  18.3148  18.3427  18.4406  18.5293  18.5696
    18.7486  18.8330  18.8975  19.0423  19.0783  19.1225  19.1923  19.2506
    19.2779  19.3425  19.3910  19.4225  19.4610  19.5253  19.5587  19.5946
    19.6251  19.7120  19.7761  19.7998  19.8428  19.9114  19.9670  20.0158
    20.0557  20.1051  20.1682  20.2326  20.2531  20.3553  20.4175  20.5582
    20.6309  20.6720  20.6933  20.7181  20.7736  20.8236  20.8489  20.8741
    20.9295  20.9363  21.0367  21.0785  21.1633  21.2095  21.2545  21.2762
    21.3481  21.4326  21.4670  21.5512  21.5769  21.6249  21.6608  21.7383
    21.7897  21.8074  21.9147  21.9351  22.0392

          k = 0.2500 0.2435 0.0000 ( 30434 PWs)   bands (ev):

   -74.8226 -73.9006 -73.8765 -73.8677 -73.8513 -73.5703 -73.5634 -73.3856
   -45.3721 -44.6131 -44.5142 -44.2056 -44.1517 -44.0740 -43.9386 -43.9080
   -43.8709 -43.8618 -43.8456 -43.8254 -43.8234 -43.8081 -43.8016 -43.7516
   -43.6709 -43.6260 -43.6036 -43.5757 -43.3521 -43.3483 -43.2434 -43.2322
   -20.9389 -20.5542 -20.4450 -20.3821 -20.2698 -20.1627 -20.0587 -19.9852
   -19.9256 -19.8796 -19.6848 -19.6089 -19.5731 -19.5326 -19.4889 -19.3743
   -19.3329 -19.1349 -18.9865  -9.7185  -9.5273  -9.3578  -9.2061  -9.0348
    -8.8918  -8.8590  -8.7029  -8.1849  -8.0804  -8.0493  -7.9459  -7.9001
    -7.8479  -7.7434  -7.6879  -7.5263  -7.4176  -7.3811  -7.1365  -7.0159
    -6.8692  -6.6097  -6.5724  -6.4538  -6.4083  -6.2755  -6.1670  -6.1018
    -6.0440  -6.0180  -5.8709  -5.7224  -5.6046  -5.5192  -5.4243  -5.3924
    -5.2973  -5.2639  -5.2068  -5.0619  -4.9198  -4.7619  -4.7135  -4.6006
    -4.4937  -4.3583  -4.3229  -4.2560  -4.1095  -3.9383  -3.8768  -3.8129
    -3.6018  -3.4695  -3.4515  -3.3542  -3.2129  -3.0893  -2.8926  -2.8498
    -2.7484  -2.6765  -2.6375  -2.5597  -2.4503  -2.3955  -2.3357  -2.2447
    -2.0898  -1.6506  -1.6222  -1.4300  -1.3591  -0.9918  -0.8693  -0.7456
    -0.6644  -0.5587  -0.5165  -0.1307   1.0313   1.3658   1.6640   1.7298
     1.9324   2.3533   2.5952   2.8809   3.0615   3.1553   3.1823   3.3298
     3.3768   3.5548   3.6932   3.8553   4.0213   4.6703   4.7667   5.2456
     5.5465   5.6026   5.7745   6.3402   6.5174   6.5966   6.6663   6.7373
     6.8202   6.9872   7.0678   7.2824   7.5428   7.7495   7.8726   7.9973
     8.2235   8.3013   8.3574   8.4713   8.5046   8.5957   8.7304   8.7638
     8.9710   9.1614   9.2534   9.3739   9.5083   9.5923   9.7943   9.8409
    10.0016  10.0987  10.1249  10.1661  10.2945  10.3649  10.3973  10.4617
    10.5667  10.6627  10.7209  10.9251  10.9522  11.1060  11.1923  11.2580
    11.3948  11.5090  11.5252  11.5984  11.6706  11.7771  11.8132  11.8498
    11.9569  12.0058  12.1025  12.1688  12.2375  12.3395  12.4615  12.5244
    12.6084  12.6452  12.7140  12.7523  12.7912  12.8327  12.9528  13.0260
    13.0961  13.1725  13.2691  13.3830  13.4263  13.5115  13.6186  13.6569
    13.7848  13.8757  13.9750  14.0642  14.1530  14.2464  14.2711  14.3649
    14.4538  14.4885  14.5611  14.6153  14.6446  14.8064  14.8954  14.9597
    15.0302  15.0956  15.1355  15.2757  15.3328  15.4322  15.5305  15.5725
    15.6648  15.7296  15.8018  15.8500  15.9141  15.9411  15.9929  16.0730
    16.1475  16.1974  16.3010  16.3078  16.4011  16.4587  16.5435  16.6319
    16.6857  16.7456  16.7860  16.8369  16.9085  16.9580  17.0059  17.0939
    17.1715  17.2291  17.3166  17.3791  17.4305  17.4624  17.5173  17.6237
    17.6954  17.7476  17.8499  17.8798  17.9439  17.9792  18.0311  18.0485
    18.2106  18.2472  18.2848  18.3315  18.4497  18.5332  18.5694  18.6432
    18.7023  18.8317  18.8721  18.8884  19.0076  19.0905  19.1569  19.2059
    19.2719  19.3581  19.4463  19.4800  19.5281  19.6552  19.7461  19.7707
    19.8622  19.9096  19.9815  20.0520  20.0858  20.1984  20.3214  20.4033
    20.4739  20.5385  20.6572  20.7490  20.7721  20.8019  20.8684  20.9253
    20.9857  21.0500  21.1500  21.2167  21.2586  21.3093  21.3652  21.4122
    21.5315  21.5554  21.6156  21.6587  21.6947  21.8099  21.8404  21.9150
    21.9716  22.0045  22.0260  22.0999  22.1479

          k = 0.2500-0.4870 0.0000 ( 30468 PWs)   bands (ev):

   -74.8227 -73.9007 -73.8762 -73.8676 -73.8515 -73.5700 -73.5634 -73.3857
   -45.3722 -44.6132 -44.5136 -44.2057 -44.1517 -44.0736 -43.9385 -43.9057
   -43.8711 -43.8620 -43.8364 -43.8315 -43.8235 -43.8135 -43.8018 -43.7517
   -43.6708 -43.6262 -43.6035 -43.5752 -43.3516 -43.3479 -43.2437 -43.2322
   -20.9015 -20.5147 -20.3880 -20.3343 -20.1786 -20.1704 -20.0634 -19.9624
   -19.9522 -19.9425 -19.6875 -19.6141 -19.5422 -19.5373 -19.5345 -19.4838
   -19.4757 -19.1323 -18.9882  -9.6166  -9.3738  -9.1744  -9.1268  -9.0595
    -9.0241  -8.8511  -8.7075  -8.0465  -7.9735  -7.9020  -7.8022  -7.7644
    -7.6596  -7.5206  -7.4922  -7.4590  -7.3866  -7.2370  -7.1554  -7.0865
    -7.0059  -6.7760  -6.6515  -6.6093  -6.4866  -6.4451  -6.2377  -6.1907
    -6.1592  -6.1220  -5.9796  -5.9177  -5.8042  -5.7563  -5.5438  -5.4524
    -5.4024  -5.3347  -5.2783  -5.1773  -5.0115  -4.9383  -4.8443  -4.6479
    -4.5891  -4.3077  -4.2092  -4.1130  -4.0335  -3.9155  -3.8272  -3.6165
    -3.5822  -3.5279  -3.3930  -3.3035  -3.1347  -3.0573  -2.9677  -2.9226
    -2.9008  -2.7320  -2.6552  -2.5589  -2.4100  -2.3387  -2.1837  -2.0680
    -1.9622  -1.6562  -1.4815  -1.3933  -1.2673  -1.1463  -0.9826  -0.7299
    -0.5436  -0.5104  -0.3905  -0.3390   0.9849   1.1612   1.3084   1.7340
     2.1442   2.4943   2.7099   2.7607   2.9549   3.0912   3.2487   3.4533
     3.5034   3.6908   3.8264   3.9519   4.3863   4.7824   5.2440   5.3731
     5.4489   5.5643   5.8965   5.9137   6.0297   6.3944   6.4958   6.5730
     7.0103   7.2423   7.2709   7.3519   7.3771   7.4268   7.4764   7.6008
     7.7655   7.9160   8.1759   8.3427   8.4522   8.4929   8.5592   8.7109
     8.9244   9.0021   9.1377   9.2316   9.3081   9.3445   9.7155   9.9227
     9.9497  10.1757  10.2456  10.3321  10.4120  10.5071  10.6376  10.7581
    10.8962  11.0896  11.1372  11.3436  11.3820  11.4407  11.4840  11.5365
    11.5740  11.6983  11.7665  11.9094  11.9187  11.9475  11.9988  12.1114
    12.2445  12.3146  12.3489  12.4173  12.4516  12.5197  12.6394  12.6948
    12.7271  12.8201  12.8624  12.9218  12.9601  13.0495  13.1392  13.2273
    13.3444  13.3894  13.4195  13.4879  13.5808  13.6516  13.6740  13.7384
    13.8727  13.8810  13.9400  14.0238  14.1267  14.2021  14.2639  14.3080
    14.3945  14.5417  14.5714  14.5916  14.6284  14.7658  14.8238  14.8738
    14.9009  14.9490  14.9832  15.0605  15.2272  15.2515  15.2927  15.3928
    15.4249  15.4658  15.5275  15.6119  15.6481  15.8200  15.9285  15.9996
    16.0436  16.1524  16.1930  16.2612  16.2793  16.3543  16.4394  16.4560
    16.5517  16.6008  16.6382  16.6812  16.7472  16.8303  16.8933  17.0336
    17.0695  17.1128  17.2034  17.2628  17.2958  17.3588  17.4309  17.4891
    17.5207  17.5544  17.6402  17.7078  17.7424  17.8173  17.9747  18.1320
    18.2122  18.2681  18.3032  18.3450  18.4030  18.4408  18.5015  18.5439
    18.5643  18.6594  18.7177  18.7839  18.8619  18.8831  18.9057  18.9842
    19.0637  19.0940  19.1679  19.2330  19.3158  19.3933  19.4217  19.5912
    19.6796  19.7006  19.7703  19.8261  19.8697  19.9179  19.9841  20.0023
    20.0583  20.0791  20.1253  20.2780  20.3113  20.5063  20.5482  20.7105
    20.7672  20.8091  20.8706  20.9508  21.0533  21.0725  21.0938  21.1705
    21.2480  21.2906  21.3861  21.5240  21.6304  21.6564  21.8286  21.8671
    21.9748  22.0493  22.1125  22.1367  22.2399

          k =-0.5000 0.0000 0.0000 ( 30480 PWs)   bands (ev):

   -74.8217 -73.8991 -73.8728 -73.8701 -73.8504 -73.5665 -73.5655 -73.3844
   -45.3722 -44.6119 -44.5148 -44.2053 -44.1519 -44.0143 -44.0013 -43.9081
   -43.8718 -43.8622 -43.8478 -43.8220 -43.8168 -43.8096 -43.7998 -43.7510
   -43.6374 -43.6251 -43.6175 -43.6109 -43.3548 -43.2996 -43.2901 -43.2432
   -20.8032 -20.5602 -20.3704 -20.3404 -20.2691 -20.1779 -20.1223 -19.9855
   -19.9773 -19.8409 -19.7421 -19.6840 -19.4668 -19.4616 -19.4342 -19.4016
   -19.3673 -19.2638 -19.0047  -9.2633  -9.2492  -9.0692  -9.0290  -8.9699
    -8.9221  -8.7007  -8.6431  -8.5666  -8.4232  -8.3023  -8.2639  -8.0288
    -7.9821  -7.9645  -7.7936  -7.5497  -7.5171  -7.2812  -7.0944  -6.8726
    -6.8396  -6.8163  -6.6584  -6.5750  -6.4548  -6.3146  -6.2203  -6.1990
    -6.1327  -5.9885  -5.8438  -5.7899  -5.5800  -5.5084  -5.4542  -5.3591
    -5.3275  -5.2881  -5.2373  -5.1825  -4.9246  -4.7372  -4.7089  -4.6311
    -4.4064  -4.3253  -4.1626  -4.1615  -4.0661  -3.8677  -3.7147  -3.6774
    -3.6381  -3.5544  -3.4525  -3.4383  -3.2982  -3.0904  -3.0544  -3.0263
    -2.9611  -2.5751  -2.4752  -2.4038  -2.1095  -2.0604  -1.9352  -1.8491
    -1.7687  -1.7017  -1.4193  -1.3741  -1.2543  -1.2464  -1.1236  -1.0424
    -0.7523  -0.7477  -0.3038  -0.2910   1.0029   1.8976   2.0837   2.1825
     2.2041   2.3565   2.4015   2.5524   2.6549   2.8734   2.9011   2.9260
     3.1250   3.3907   3.6272   3.7456   4.3919   4.4073   5.1072   5.1958
     5.2624   5.3824   5.7201   5.8439   6.2077   6.3049   6.7810   6.8983
     7.1371   7.3144   7.3499   7.4761   7.9994   8.0549   8.1487   8.1952
     8.4320   8.4482   8.7167   8.7765   8.7985   8.8571   8.8735   8.9286
     8.9597   9.0493   9.2616   9.3185   9.3884   9.4741   9.4931   9.5605
     9.6296   9.8329  10.0152  10.1075  10.1733  10.1987  10.2178  10.3795
    10.4065  10.4178  10.5421  10.6775  10.7319  10.7609  10.8673  10.9639
    11.1159  11.1541  11.2414  11.4745  11.7120  11.7215  11.8259  11.9982
    12.0539  12.1093  12.1377  12.2774  12.3472  12.4774  12.5671  12.5993
    12.6431  12.7330  12.7523  12.7635  12.7996  12.8309  13.0399  13.0703
    13.1807  13.2208  13.3181  13.3502  13.6031  13.6702  13.7409  13.7705
    13.9329  13.9537  14.0415  14.0699  14.2174  14.3385  14.3859  14.5317
    14.6001  14.6196  14.6543  14.7118  14.7873  14.7940  14.9173  14.9621
    15.0004  15.0833  15.2337  15.2904  15.3029  15.3635  15.4126  15.4895
    15.5681  15.7777  15.9466  15.9482  16.0272  16.0742  16.3038  16.3341
    16.4289  16.4352  16.4977  16.5145  16.5637  16.6007  16.6041  16.6910
    16.7105  16.7308  16.7894  16.7943  16.8795  16.9135  16.9439  16.9940
    17.0089  17.0505  17.0828  17.2297  17.2721  17.3955  17.4383  17.6297
    17.7267  17.7841  17.8074  17.8507  18.0220  18.0440  18.1380  18.2195
    18.3020  18.3658  18.5549  18.5948  18.6106  18.7079  18.7224  18.8611
    18.9019  18.9592  19.0948  19.1721  19.2876  19.3690  19.3914  19.4202
    19.4493  19.4761  19.5420  19.6283  19.6541  19.6808  19.7096  19.8295
    19.8367  19.8653  19.9912  19.9996  20.0666  20.0942  20.1049  20.2145
    20.3156  20.3668  20.4259  20.4397  20.4677  20.5487  20.5665  20.5969
    20.6531  20.6817  20.8024  20.8587  20.8803  20.9768  21.1383  21.1705
    21.2309  21.2469  21.3483  21.4617  21.4829  21.5143  21.5600  21.6042
    21.6394  21.6530  21.6648  21.6872  21.7832

          k =-0.5000 0.2435 0.0000 ( 30444 PWs)   bands (ev):

   -74.8218 -73.8992 -73.8726 -73.8700 -73.8505 -73.5664 -73.5654 -73.3846
   -45.3722 -44.6120 -44.5141 -44.2053 -44.1519 -44.0140 -44.0011 -43.9050
   -43.8718 -43.8626 -43.8411 -43.8274 -43.8168 -43.8097 -43.8047 -43.7511
   -43.6372 -43.6249 -43.6175 -43.6106 -43.3544 -43.2993 -43.2898 -43.2435
   -20.7854 -20.5339 -20.3509 -20.2842 -20.2504 -20.1160 -20.0532 -19.9536
   -19.9303 -19.8416 -19.7504 -19.6886 -19.5578 -19.5405 -19.5143 -19.4854
   -19.4614 -19.2611 -19.0030  -9.2108  -9.0368  -9.0032  -8.8667  -8.7306
    -8.7011  -8.6852  -8.6202  -8.4598  -8.4470  -8.2633  -8.2422  -8.1032
    -8.0216  -7.9283  -7.8059  -7.4773  -7.3531  -7.1843  -7.0181  -6.8961
    -6.8636  -6.7992  -6.6900  -6.6466  -6.6086  -6.5571  -6.4565  -6.3276
    -6.0747  -6.0420  -5.9561  -5.8209  -5.7943  -5.6118  -5.5471  -5.4124
    -5.3355  -5.2961  -5.1965  -5.1599  -5.1134  -5.0402  -4.8549  -4.7129
    -4.6470  -4.6017  -4.3732  -4.2729  -4.1357  -3.9894  -3.7065  -3.6341
    -3.4954  -3.4050  -3.3668  -3.3279  -3.0723  -2.9341  -2.7600  -2.6419
    -2.5683  -2.5239  -2.4925  -2.4808  -2.1807  -2.1558  -2.0474  -1.9806
    -1.6595  -1.6351  -1.4968  -1.4061  -1.2157  -1.1095  -0.9982  -0.9411
    -0.8114  -0.7781  -0.4346  -0.3835   1.1173   1.6660   2.0010   2.1484
     2.1965   2.2996   2.3359   2.4401   2.4624   2.8661   2.9073   3.2063
     3.2716   3.4331   3.7436   3.9085   4.5764   4.6024   5.2922   5.4197
     5.4696   5.6015   5.9017   6.0042   6.1979   6.2506   6.5059   6.6530
     6.9356   7.2164   7.2304   7.3283   7.3601   7.4680   7.5136   7.6856
     7.7533   7.8465   8.1792   8.3392   8.4544   8.6066   8.6489   8.8625
     8.9547   9.1031   9.1689   9.2381   9.3143   9.4147   9.8732  10.1072
    10.1882  10.2759  10.2958  10.3988  10.4268  10.5732  10.6023  10.6686
    10.7460  10.8224  10.9729  10.9982  11.2464  11.2693  11.3102  11.3837
    11.4671  11.5062  11.6440  11.8181  11.9722  12.0074  12.0860  12.1716
    12.2546  12.3119  12.3338  12.4777  12.5265  12.5384  12.6120  12.6927
    12.7949  12.8560  12.9044  12.9487  13.0476  13.0745  13.2688  13.3213
    13.3743  13.4105  13.4440  13.5047  13.6751  13.7472  13.8289  13.9465
    13.9805  14.0639  14.0914  14.1652  14.2710  14.3077  14.3910  14.4136
    14.5695  14.5969  14.6183  14.7125  14.7496  14.8383  14.8759  14.9026
    14.9821  15.0150  15.1000  15.1453  15.1802  15.2674  15.3107  15.3375
    15.3800  15.4343  15.5947  15.6208  15.6609  15.6759  15.7189  15.8065
    15.8538  15.8894  15.9878  16.0860  16.1670  16.2081  16.3453  16.4062
    16.4473  16.5529  16.6004  16.6330  16.6920  16.7237  16.7873  16.8089
    16.8354  16.9318  17.0576  17.1295  17.2099  17.2571  17.3409  17.3937
    17.4516  17.5297  17.5883  17.6059  17.7790  17.9036  17.9454  17.9827
    18.0647  18.1123  18.2318  18.3327  18.3753  18.3887  18.5443  18.5680
    18.6505  18.7754  18.8206  18.8817  18.9052  18.9516  19.0169  19.0842
    19.0927  19.1156  19.1698  19.3273  19.4110  19.5090  19.5496  19.5985
    19.6498  19.6833  19.7790  19.8274  19.8624  20.0297  20.1004  20.1106
    20.1651  20.2113  20.3340  20.3649  20.3824  20.6222  20.6804  20.7302
    20.7858  20.8626  20.9111  20.9980  21.0274  21.1810  21.2267  21.3369
    21.4002  21.5060  21.5475  21.6213  21.6741  21.8016  21.8214  21.8904
    21.9041  22.0100  22.1565  22.1839  22.2770

          k =-0.5000-0.4870 0.0000 ( 30440 PWs)   bands (ev):

   -74.8220 -73.8994 -73.8725 -73.8698 -73.8507 -73.5662 -73.5652 -73.3847
   -45.3723 -44.6122 -44.5135 -44.2054 -44.1519 -44.0137 -44.0010 -43.9016
   -43.8719 -43.8629 -43.8350 -43.8277 -43.8172 -43.8143 -43.8095 -43.7511
   -43.6370 -43.6247 -43.6174 -43.6106 -43.3540 -43.2991 -43.2895 -43.2439
   -20.7679 -20.5092 -20.3310 -20.2386 -20.2296 -19.9593 -19.9511 -19.9027
   -19.8165 -19.7919 -19.7770 -19.7468 -19.7229 -19.6701 -19.6574 -19.6550
   -19.4601 -19.2602 -19.0027  -9.2003  -9.0385  -8.8279  -8.7926  -8.6773
    -8.6633  -8.6309  -8.5471  -8.2806  -8.0615  -8.0306  -7.8989  -7.8691
    -7.7555  -7.6260  -7.5996  -7.5664  -7.5046  -7.4408  -7.4144  -7.2701
    -7.0781  -6.9806  -6.8623  -6.7765  -6.6654  -6.6118  -6.5790  -6.3348
    -6.3057  -6.0163  -5.9645  -5.7490  -5.7096  -5.6951  -5.6332  -5.6229
    -5.5789  -5.4432  -5.4267  -5.3509  -5.2467  -5.1412  -4.9780  -4.5688
    -4.5253  -4.4792  -4.4292  -4.2950  -4.1437  -4.0690  -3.7049  -3.6059
    -3.4875  -3.3691  -3.1756  -3.1671  -2.9575  -2.9033  -2.8487  -2.7117
    -2.6821  -2.5351  -2.3519  -2.2499  -2.2206  -2.0700  -1.9820  -1.9047
    -1.5918  -1.5440  -1.4799  -1.4533  -1.2024  -1.0322  -0.9302  -0.8122
    -0.7593  -0.6637  -0.5939  -0.5720   1.2182   1.2774   1.8381   1.9035
     2.0173   2.3067   2.3524   2.3969   2.4770   3.0134   3.0778   3.1604
     3.5618   3.6538   3.7438   3.8608   4.9771   5.0140   5.4595   5.4720
     5.6843   6.0767   6.0860   6.1330   6.1381   6.2408   6.2716   6.3335
     6.5682   6.7075   6.7314   6.8270   7.0704   7.2262   7.2934   7.4068
     7.7360   7.9908   8.0399   8.1324   8.1894   8.2760   8.3035   8.4258
     8.8571   9.1151   9.1272   9.2473   9.2691   9.5496   9.6520   9.6855
     9.8535   9.9073  10.5228  10.6112  10.6239  10.9288  10.9420  11.0162
    11.0388  11.1036  11.4629  11.5909  11.8655  11.8793  11.9167  11.9797
    12.0531  12.0660  12.0836  12.2112  12.4704  12.5675  12.5995  12.6261
    12.6834  12.7937  12.8139  12.9686  13.0814  13.1613  13.2012  13.2461
    13.3094  13.3318  13.3404  13.3623  13.4059  13.4298  13.4972  13.5219
    13.5658  13.5833  13.6617  13.7436  13.7600  13.7714  13.7854  13.8166
    13.8463  13.8807  13.8931  13.9208  14.0061  14.0472  14.1301  14.2015
    14.2395  14.2469  14.2664  14.2940  14.4006  14.4253  14.5046  14.5511
    14.6062  14.6475  14.6959  14.7085  14.8479  14.9079  14.9973  15.0636
    15.1440  15.1640  15.2519  15.3029  15.3276  15.3883  15.4581  15.4853
    15.5189  15.5651  15.6039  15.6727  15.8248  15.9011  15.9552  16.0158
    16.0265  16.1123  16.2212  16.3427  16.4301  16.5077  16.5261  16.5694
    16.7819  16.8094  16.8373  16.8514  16.9736  17.0192  17.1455  17.1680
    17.2361  17.2845  17.3366  17.3862  17.4124  17.5510  17.5768  17.6582
    17.7206  17.7594  17.8688  17.9683  18.2301  18.3788  18.4004  18.4786
    18.5791  18.6790  18.7583  18.7636  18.8274  18.8827  18.8954  19.0302
    19.0367  19.2550  19.4163  19.4976  19.5235  19.5398  19.6685  19.7476
    19.7944  19.9246  20.0919  20.3557  20.3813  20.4667  20.4861  20.5962
    20.6844  20.7323  20.8149  20.8655  20.9203  20.9433  20.9904  21.0472
    21.0616  21.1338  21.2127  21.2834  21.3055  21.3222  21.3470  21.4052
    21.5328  21.5525  21.5762  21.5920  21.6125  21.6603  21.7235  21.7461
    21.7662  21.7926  21.8449  21.9514  22.0949

          k =-0.2500 0.2435 0.0000 ( 30434 PWs)   bands (ev):

   -74.8226 -73.9006 -73.8765 -73.8677 -73.8513 -73.5703 -73.5634 -73.3856
   -45.3721 -44.6131 -44.5142 -44.2056 -44.1517 -44.0740 -43.9384 -43.9089
   -43.8710 -43.8618 -43.8473 -43.8237 -43.8230 -43.8061 -43.8015 -43.7516
   -43.6731 -43.6263 -43.6039 -43.5743 -43.3521 -43.3484 -43.2434 -43.2322
   -20.9390 -20.5542 -20.4439 -20.3816 -20.2697 -20.1612 -20.0575 -19.9850
   -19.9267 -19.8888 -19.6845 -19.6058 -19.5726 -19.5285 -19.4888 -19.3752
   -19.3340 -19.1348 -18.9866  -9.7157  -9.5276  -9.3603  -9.2073  -9.0230
    -8.9200  -8.8583  -8.6841  -8.1837  -8.1301  -8.0088  -7.9710  -7.9077
    -7.8197  -7.7637  -7.6715  -7.5325  -7.4071  -7.3777  -7.1235  -7.0230
    -6.8585  -6.6070  -6.5457  -6.4546  -6.4044  -6.3175  -6.1110  -6.0879
    -6.0482  -6.0018  -5.8638  -5.7555  -5.6320  -5.5233  -5.4645  -5.3982
    -5.3201  -5.2686  -5.1944  -5.0903  -4.8869  -4.7680  -4.7069  -4.6030
    -4.4818  -4.3616  -4.3133  -4.2253  -4.1164  -3.9661  -3.9014  -3.7760
    -3.6084  -3.4961  -3.4232  -3.3040  -3.2162  -3.0878  -2.8993  -2.8653
[...]
     7.1493   7.3249   7.3708   7.5257   7.9932   8.0290   8.1684   8.1907
     8.3956   8.4888   8.7078   8.7676   8.7777   8.8281   8.8569   8.9293
     8.9524   9.0351   9.2397   9.3039   9.3573   9.4561   9.5177   9.6191
     9.6418   9.8485   9.9992  10.0915  10.1502  10.1988  10.2155  10.3740
    10.4294  10.4453  10.5511  10.6960  10.7599  10.7722  10.8882  11.0091
    11.1087  11.1593  11.2256  11.4716  11.7148  11.7622  11.8268  12.0080
    12.1005  12.1333  12.1958  12.3345  12.4135  12.5307  12.6002  12.6639
    12.7031  12.7511  12.7567  12.7947  12.8113  12.8427  13.0389  13.0786
    13.1724  13.2162  13.3236  13.3668  13.5990  13.6712  13.7507  13.8161
    13.8885  13.9715  14.0580  14.0765  14.2419  14.3602  14.4825  14.6086
    14.6266  14.6581  14.7441  14.7676  14.8001  14.8782  14.9497  15.0020
    15.0388  15.1556  15.2719  15.3126  15.3379  15.3621  15.4456  15.5312
    15.6867  15.8702  15.9655  16.0087  16.0439  16.0967  16.3042  16.3284
    16.4413  16.4474  16.4797  16.5303  16.5637  16.5750  16.6041  16.6724
    16.6994  16.7406  16.7806  16.7937  16.8787  16.9264  16.9447  16.9931
    17.0326  17.0486  17.0971  17.2284  17.2824  17.3727  17.4517  17.6410
    17.7190  17.7615  17.7857  17.8509  18.0040  18.0524  18.1111  18.2080
    18.2960  18.3190  18.5277  18.5689  18.6501  18.6931  18.7276  18.8475
    18.9168  18.9403  19.0988  19.1641  19.2846  19.3555  19.3901  19.4040
    19.4501  19.4736  19.5466  19.6271  19.6623  19.6840  19.6979  19.8127
    19.8400  19.8586  19.9763  19.9833  20.0561  20.0836  20.0992  20.2106
    20.2856  20.3334  20.4105  20.4368  20.4460  20.5237  20.5482  20.6057
    20.6347  20.6975  20.8154  20.8744  20.8962  20.9694  21.1111  21.1583
    21.2378  21.2662  21.3418  21.4461  21.4642  21.4955  21.5520  21.5856
    21.6328  21.6610  21.6873  21.7095  21.7661

          k =-0.5000 0.2435 0.0000 ( 30444 PWs)   bands (ev):

   -74.8188 -74.4550 -73.8007 -73.7660 -73.5946 -73.4356 -73.4307 -73.4287
   -45.4049 -44.8028 -44.6254 -44.6182 -44.4791 -44.1316 -44.0956 -43.9698
   -43.8465 -43.8375 -43.8238 -43.7552 -43.6822 -43.6731 -43.5657 -43.5172
   -43.5155 -43.5064 -43.4986 -43.4684 -43.3326 -43.3197 -43.1361 -43.1262
   -20.6356 -20.5483 -20.3069 -20.2393 -20.2158 -20.0418 -19.9638 -19.8735
   -19.8332 -19.7871 -19.7316 -19.6885 -19.4619 -19.4486 -19.4145 -19.3974
   -19.3746 -19.3435 -18.8659  -9.0954  -9.0159  -8.9765  -8.8902  -8.7556
    -8.6280  -8.5971  -8.5643  -8.4253  -8.3542  -8.2736  -8.1907  -8.1046
    -8.0129  -7.8896  -7.7822  -7.5227  -7.3820  -7.2514  -7.1246  -6.9478
    -6.8363  -6.7423  -6.7075  -6.5684  -6.5454  -6.4595  -6.3542  -6.2893
    -6.1571  -5.9790  -5.7977  -5.7682  -5.7391  -5.5313  -5.4301  -5.3617
    -5.2556  -5.1834  -5.1340  -5.0532  -5.0091  -4.9921  -4.7573  -4.6211
    -4.5709  -4.4815  -4.2775  -4.2299  -4.0819  -3.8596  -3.6491  -3.5877
    -3.4546  -3.3417  -3.3033  -3.2545  -3.0057  -2.9219  -2.7652  -2.5889
    -2.5477  -2.4481  -2.3939  -2.3715  -2.1705  -2.1095  -2.0231  -1.9283
    -1.7843  -1.6850  -1.4647  -1.1803  -1.0249  -0.8974  -0.8456  -0.7291
    -0.6859  -0.6364  -0.3055  -0.2359   1.2154   1.5804   1.8779   2.1202
     2.2625   2.3291   2.4367   2.4791   2.6219   2.9453   3.0335   3.3134
     3.3912   3.5755   3.8730   4.0956   4.5660   4.6050   5.2737   5.3939
     5.4523   5.5908   5.8870   5.9903   6.2050   6.2473   6.5049   6.6570
     6.9138   7.1940   7.2172   7.3084   7.3580   7.4745   7.5479   7.7183
     7.7600   7.8367   8.1895   8.3471   8.4831   8.6085   8.6659   8.8680
     8.9722   9.1287   9.1901   9.2798   9.3268   9.4067   9.8752  10.1119
    10.2056  10.2980  10.3287  10.3842  10.4426  10.5508  10.6271  10.6865
    10.7527  10.8162  10.9648  10.9959  11.2666  11.2764  11.3132  11.4160
    11.4603  11.5172  11.6406  11.8249  12.0159  12.0325  12.1386  12.1931
    12.2943  12.3232  12.3987  12.4768  12.5471  12.5818  12.6434  12.7426
    12.8382  12.8747  12.9107  12.9712  13.0404  13.0837  13.2590  13.3290
    13.3839  13.4209  13.4548  13.4870  13.6959  13.7488  13.8344  13.9341
    14.0091  14.0870  14.1218  14.1887  14.2860  14.3460  14.4053  14.4390
    14.6031  14.6304  14.6520  14.7323  14.7844  14.8459  14.9229  14.9762
    14.9949  15.0434  15.1201  15.1746  15.1994  15.2496  15.3303  15.3795
    15.4045  15.4398  15.6079  15.6379  15.6743  15.7007  15.7602  15.8289
    15.8775  15.9497  16.0288  16.1403  16.1504  16.2242  16.3334  16.4042
    16.4369  16.5389  16.6012  16.6511  16.6832  16.7138  16.7767  16.8035
    16.8473  16.9303  17.0485  17.1367  17.2153  17.2692  17.3289  17.3949
    17.4681  17.5361  17.5538  17.6096  17.7656  17.8925  17.9392  17.9823
    18.0604  18.1041  18.2316  18.3296  18.3780  18.3916  18.5217  18.5542
    18.6257  18.7639  18.8111  18.8722  18.9013  18.9593  19.0226  19.0677
    19.0933  19.1078  19.1870  19.3153  19.4272  19.5015  19.5346  19.5971
    19.6574  19.6738  19.7681  19.8405  19.8658  20.0290  20.0739  20.1130
    20.1738  20.2298  20.3272  20.3699  20.3951  20.6320  20.6812  20.7260
    20.7991  20.8690  20.9173  21.0251  21.0398  21.1942  21.2465  21.3351
    21.4008  21.4900  21.5547  21.6179  21.6667  21.7377  21.8614  21.8962
    21.9607  22.0560  22.1596  22.2021  22.2690

          k =-0.5000-0.4870 0.0000 ( 30440 PWs)   bands (ev):

   -74.8189 -74.4549 -73.8009 -73.7662 -73.5944 -73.4357 -73.4305 -73.4286
   -45.4050 -44.8026 -44.6254 -44.6184 -44.4782 -44.1316 -44.0956 -43.9701
   -43.8465 -43.8377 -43.8215 -43.7509 -43.6854 -43.6777 -43.5657 -43.5173
   -43.5157 -43.5052 -43.4982 -43.4683 -43.3323 -43.3200 -43.1358 -43.1259
   -20.6136 -20.5324 -20.2960 -20.2159 -20.2004 -19.8936 -19.8881 -19.8524
   -19.7087 -19.6922 -19.6801 -19.6716 -19.6136 -19.6013 -19.5920 -19.5631
   -19.4315 -19.3482 -18.8652  -9.0816  -9.0107  -8.8950  -8.8135  -8.7098
    -8.5879  -8.5777  -8.4715  -8.1894  -8.1259  -8.0044  -7.9357  -7.8260
    -7.7667  -7.5293  -7.4936  -7.4892  -7.4565  -7.3690  -7.3086  -7.2688
    -7.1069  -7.0746  -6.9716  -6.8054  -6.7047  -6.6545  -6.4245  -6.2876
    -6.2751  -5.9632  -5.8708  -5.7142  -5.6341  -5.6188  -5.5471  -5.5222
    -5.4516  -5.3478  -5.3405  -5.2784  -5.1524  -5.0437  -4.8502  -4.5734
    -4.4443  -4.3680  -4.3410  -4.2368  -4.0696  -3.9524  -3.6311  -3.5737
    -3.3664  -3.2972  -3.1195  -3.0981  -2.9657  -2.8712  -2.7936  -2.7013
    -2.6674  -2.4333  -2.3504  -2.2078  -2.1509  -1.9849  -1.9494  -1.8581
    -1.7870  -1.6803  -1.3071  -1.1521  -0.9317  -0.8728  -0.7510  -0.6721
    -0.6112  -0.5456  -0.4803  -0.4297   1.2847   1.3213   1.7431   1.9559
     2.0056   2.1479   2.3933   2.4955   2.6435   3.1448   3.2554   3.3091
     3.6388   3.8128   3.8529   3.9806   4.9358   4.9999   5.4695   5.4895
     5.6907   6.0400   6.0621   6.1083   6.1158   6.2128   6.2617   6.3235
     6.5483   6.6946   6.7070   6.8141   7.0692   7.2414   7.2822   7.4061
     7.7375   8.0139   8.0435   8.1564   8.1957   8.3324   8.3707   8.4981
     8.9216   9.1314   9.1691   9.2311   9.2754   9.5793   9.6600   9.7211
     9.8475   9.9168  10.5379  10.6046  10.6700  10.9471  10.9815  11.0198
    11.0881  11.1462  11.4700  11.6599  11.8495  11.9259  11.9920  12.0113
    12.0724  12.0943  12.1276  12.2163  12.4664  12.5404  12.5823  12.6568
    12.7202  12.8042  12.8770  13.0291  13.0573  13.1529  13.2274  13.2516
    13.3191  13.3215  13.3308  13.3880  13.4235  13.4471  13.5057  13.5545
    13.5702  13.5815  13.6425  13.7374  13.7480  13.7749  13.7862  13.8090
    13.8429  13.8691  13.8989  13.9173  14.0332  14.0650  14.1660  14.2094
    14.2343  14.2462  14.2662  14.3181  14.4137  14.4683  14.4950  14.5515
    14.6031  14.6473  14.6825  14.7817  14.8542  14.9190  15.0136  15.0683
    15.1377  15.1822  15.2488  15.2849  15.3445  15.3680  15.4456  15.4781
    15.5260  15.5464  15.6154  15.7088  15.8332  15.8881  15.9804  15.9979
    16.0365  16.1401  16.2370  16.3568  16.4370  16.5155  16.5636  16.7035
    16.7644  16.8049  16.8323  16.9567  16.9891  17.0249  17.1355  17.1712
    17.2488  17.2600  17.3567  17.4087  17.4449  17.5679  17.6028  17.6739
    17.6949  17.7552  17.8553  17.9447  18.2418  18.3740  18.4362  18.4930
    18.5873  18.6764  18.7285  18.7881  18.8163  18.8916  18.9379  19.0039
    19.0469  19.2343  19.3695  19.4454  19.5151  19.5845  19.6595  19.7351
    19.7897  19.9315  20.0991  20.3467  20.3843  20.4698  20.5030  20.6384
    20.7034  20.7618  20.8179  20.8906  20.9419  20.9547  21.0084  21.0389
    21.0565  21.1499  21.2285  21.2597  21.2945  21.3197  21.3376  21.4314
    21.5191  21.5306  21.5579  21.5815  21.5923  21.6706  21.7438  21.7625
    21.7745  21.8063  21.8588  21.9816  22.0878

          k =-0.2500 0.2435 0.0000 ( 30434 PWs)   bands (ev):

   -74.8196 -74.4560 -73.8021 -73.7667 -73.5949 -73.4367 -73.4340 -73.4274
   -45.4048 -44.8038 -44.6255 -44.6191 -44.4791 -44.1319 -44.0949 -43.9697
   -43.8466 -43.8372 -43.8259 -43.7574 -43.6821 -43.6718 -43.5710 -43.5616
   -43.5160 -43.4923 -43.4654 -43.4520 -43.3273 -43.3194 -43.1865 -43.0706
   -20.8244 -20.4987 -20.3889 -20.3515 -20.2058 -20.0926 -20.0435 -19.9471
   -19.8365 -19.7742 -19.7208 -19.5613 -19.4784 -19.4626 -19.4075 -19.2634
   -19.2196 -19.1953 -18.8537  -9.6168  -9.4805  -9.2483  -9.1157  -9.0943
    -8.9672  -8.8607  -8.6675  -8.1436  -8.0945  -8.0083  -7.9492  -7.8684
    -7.7806  -7.7110  -7.6575  -7.5375  -7.4325  -7.3802  -7.1412  -6.9546
    -6.7584  -6.6263  -6.5583  -6.4612  -6.3137  -6.2781  -6.1095  -6.0419
    -6.0101  -5.9241  -5.8221  -5.6734  -5.5669  -5.4895  -5.3893  -5.3418
    -5.2556  -5.2141  -5.0935  -5.0420  -4.7748  -4.7047  -4.6663  -4.5277
    -4.4077  -4.2889  -4.2490  -4.1434  -4.0224  -3.8808  -3.8131  -3.7279
    -3.5357  -3.4590  -3.3722  -3.2326  -3.1440  -2.9948  -2.9189  -2.8017
    -2.6987  -2.6384  -2.5495  -2.5384  -2.4324  -2.3199  -2.2879  -2.1838
    -1.9402  -1.6773  -1.5325  -1.2869  -0.9867  -0.8680  -0.7896  -0.6715
    -0.5295  -0.4586  -0.3433  -0.0104   1.1227   1.3077   1.5420   1.7765
     2.0291   2.4893   2.6716   2.8595   3.1182   3.2080   3.3324   3.4017
     3.5385   3.5918   3.8163   3.8674   4.2017   4.6518   4.7563   5.2371
     5.5599   5.6119   5.7677   6.3297   6.4989   6.5744   6.6444   6.7183
     6.8613   6.9455   7.0489   7.2751   7.5520   7.7746   7.8927   7.9832
     8.2293   8.3246   8.3429   8.4995   8.5552   8.6085   8.7199   8.8001
     8.9615   9.1754   9.2743   9.4002   9.5313   9.6019   9.8032   9.8801
    10.0183  10.0886  10.1367  10.1510  10.2770  10.3295  10.4038  10.4860
    10.5829  10.6609  10.7335  10.9322  10.9405  11.1218  11.2118  11.3082
    11.4168  11.5108  11.5777  11.5999  11.6688  11.8145  11.8374  11.8863
    11.9701  12.0404  12.1092  12.1921  12.2653  12.3467  12.4752  12.5503
    12.6000  12.6653  12.7475  12.7627  12.8294  12.8825  12.9641  13.0247
    13.1089  13.2051  13.3130  13.3680  13.4594  13.5153  13.6211  13.6850
    13.8139  13.8553  13.9855  14.0395  14.1532  14.2336  14.2972  14.3590
    14.4506  14.5438  14.5761  14.6383  14.7347  14.8682  14.8980  14.9888
    15.0592  15.1506  15.2119  15.3004  15.3753  15.4297  15.5456  15.6011
    15.6906  15.7385  15.7997  15.8388  15.9095  15.9688  16.0166  16.0752
    16.1020  16.1808  16.2909  16.3248  16.3494  16.4365  16.5496  16.6411
    16.6849  16.7369  16.7688  16.8416  16.9033  16.9544  16.9840  17.1153
    17.1917  17.2421  17.3400  17.4032  17.4424  17.4835  17.5340  17.6348
    17.6897  17.7371  17.8333  17.8900  17.9437  17.9842  18.0309  18.0859
    18.1956  18.2424  18.2887  18.3362  18.4258  18.5448  18.6225  18.6725
    18.7109  18.8101  18.8638  18.9165  19.0269  19.1094  19.1788  19.2037
    19.2991  19.3652  19.4776  19.5119  19.5522  19.6652  19.7456  19.7982
    19.8630  19.9409  19.9820  20.0232  20.1885  20.2486  20.3237  20.3885
    20.5042  20.5810  20.6738  20.7131  20.7960  20.8362  20.8914  20.9254
    20.9871  21.0517  21.1292  21.2072  21.2643  21.3199  21.3537  21.4242
    21.5055  21.5583  21.5891  21.7031  21.7099  21.7688  21.8306  21.9221
    21.9853  22.0166  22.0555  22.1062  22.1800

     the Fermi energy is    -1.3620 ev

!    total energy              =   -2160.06462313 Ry
     Harris-Foulkes estimate   =   -2160.06462314 Ry
     estimated scf accuracy    <          8.6E-09 Ry

     The total energy is the sum of the following terms:

     one-electron contribution =  -25122.77037414 Ry
     hartree contribution      =   12585.40532499 Ry
     xc contribution           =    -337.90909038 Ry
     ewald contribution        =   10712.00407468 Ry
     Hubbard energy            =       3.20543239 Ry
     smearing contrib. (-TS)   =       0.00000933 Ry

     convergence has been achieved in  17 iterations

     Forces acting on atoms (Ry/au):


     negative rho (up, down):  0.573E+00 0.000E+00
     atom    1 type  1   force =    -0.00563134   -0.00688555    0.00036226
     atom    2 type  1   force =    -0.00001049    0.00113628    0.00005467
     atom    3 type  2   force =     0.02744769    0.00219099    0.00050492
     atom    4 type  2   force =     0.00766426    0.00518794   -0.00003975
     atom    5 type  1   force =    -0.00172619   -0.05111271    0.00023215
     atom    6 type  1   force =     0.00674204    0.05364575    0.00009440
     atom    7 type  1   force =     0.00367770   -0.00243833   -0.00018236
     atom    8 type  1   force =     0.03166736   -0.00085384   -0.00071795
     atom    9 type  2   force =    -0.00186396    0.00111288   -0.00001536
     atom   10 type  2   force =     0.00247733   -0.00245832    0.00018967
     atom   11 type  1   force =     0.00173969   -0.00952672   -0.00039425
     atom   12 type  1   force =     0.00019162    0.00926181   -0.00030793
     atom   13 type  1   force =     0.03903484   -0.00048224    0.00008772
     atom   14 type  1   force =    -0.00440145   -0.00682062    0.00050504
     atom   15 type  1   force =    -0.00012267    0.00087275    0.00026494
     atom   16 type  2   force =    -0.02895703    0.00832445    0.00050293
     atom   17 type  2   force =     0.00267543    0.00536078    0.00008600
     atom   18 type  1   force =    -0.00519692   -0.05341194    0.00023430
     atom   19 type  1   force =     0.00446141    0.04976739    0.00020497
     atom   20 type  1   force =    -0.00333785   -0.00279976   -0.00028870
     atom   21 type  1   force =    -0.03885518   -0.00105854   -0.00038875
     atom   22 type  2   force =    -0.01944478    0.00162621   -0.00052227
     atom   23 type  2   force =    -0.01131352    0.00132373    0.00007296
     atom   24 type  1   force =     0.00586277    0.03795400   -0.00006272
     atom   25 type  1   force =     0.00795264   -0.03887316   -0.00007641
     atom   26 type  1   force =    -0.02024146   -0.00006135    0.00016057
     atom   27 type  3   force =     0.00000136   -0.00002049   -0.00011392
     atom   28 type  3   force =     0.00000267   -0.00035425   -0.00015294
     atom   29 type  3   force =    -0.00027566   -0.00034166   -0.00024644
     atom   30 type  3   force =    -0.00032583   -0.00027844   -0.00022048
     atom   31 type  1   force =     0.00010553    0.00001295    0.00017275

     Total force =     0.001793     Total SCF correction =     0.000392
     SCF correction compared to forces is large: reduce conv_thr to get better values

     bfgs converged in  21 scf cycles and  20 bfgs steps
     (criteria: energy < 0.10E-03, force < 0.10E-02)

     End of BFGS Geometry Optimization

     Final energy   =   -2160.0646231287 Ry
Begin final coordinates

ATOMIC_POSITIONS (crystal)
O0       0.000000000   0.000000000   0.379389714    0   0   1
O0       0.000000000   0.500000000   0.403203291    0   0   1
Ru1      0.250000000   0.500000000   0.454235026    0   0   1
Ru1      0.000000000   0.000000000   0.452503962    0   0   1
O0       0.250000000   0.810000000   0.452846067    0   0   1
O0       0.250000000   0.190000000   0.452648189    0   0   1
O0       0.000000000   0.500000000   0.499876149    0   0   1
O0       0.000000000   0.000000000   0.525316585    0   0   1
Ru1      0.250000000   0.000000000   0.580386269    0   0   1
Ru1      0.000000000   0.500000000   0.569344486    0   0   1
O0       0.250000000   0.690000000   0.578195392    0   0   1
O0       0.250000000   0.310000000   0.578083381    0   0   1
O0       0.000000000   0.000000000   0.617227713    0   0   1
O0       0.500000000   0.000000000   0.379248688    0   0   1
O0       0.500000000   0.500000000   0.404443069    0   0   1
Ru1      0.750000000   0.500000000   0.454179152    0   0   1
Ru1      0.500000000   0.000000000   0.452441259    0   0   1
O0       0.750000000   0.810000000   0.452848896    0   0   1
O0       0.750000000   0.190000000   0.452732959    0   0   1
O0       0.500000000   0.500000000   0.504535519    0   0   1
O0       0.500000000   0.000000000   0.524995993    0   0   1
Ru1      0.750000000   0.000000000   0.572145693    0   0   1
Ru1      0.500000000   0.500000000   0.581596311    0   0   1
O0       0.750000000   0.690000000   0.572586775    0   0   1
O0       0.750000000   0.310000000   0.572311883    0   0   1
O0       0.500000000   0.000000000   0.616377139    0   0   1
H2      -0.000415615   0.625565710   0.381660344
H2       0.499286388   0.617217463   0.380320074
H2       0.146508335   0.029255418   0.366988033
H2       0.646953502   0.025377011   0.366681771
O0       0.521376309   0.496982350   0.645620218
End final coordinates



     init_run     :    104.73s CPU    107.08s WALL (       1 calls)
     electrons    : 126547.12s CPU 129686.34s WALL (      21 calls)
     update_pot   :    399.51s CPU    409.22s WALL (      20 calls)
     forces       :   2605.60s CPU   2634.97s WALL (      21 calls)

     Called by init_run:
     wfcinit      :     36.99s CPU     38.55s WALL (       1 calls)
     potinit      :      7.70s CPU      8.05s WALL (       1 calls)

     Called by electrons:
     c_bands      :  67161.99s CPU  68716.56s WALL (     730 calls)
     sum_band     :  25072.90s CPU  25670.68s WALL (     730 calls)
     v_of_rho     :    814.14s CPU    866.41s WALL (     748 calls)
     newd         :  33721.13s CPU  33936.09s WALL (     748 calls)
     mix_rho      :    158.02s CPU    160.92s WALL (     730 calls)

     Called by c_bands:
     init_us_2    :    180.02s CPU    181.17s WALL (    4572 calls)
     cegterg      :  66363.63s CPU  67785.87s WALL (    2190 calls)

     Called by *egterg:
     h_psi        :  39110.83s CPU  39832.07s WALL (    5505 calls)
     s_psi        :   3836.29s CPU   3879.98s WALL (    5631 calls)
     g_psi        :     83.18s CPU     83.33s WALL (    3312 calls)
     cdiaghg      :   5381.53s CPU   5396.42s WALL (    5433 calls)

     Called by h_psi:
     add_vuspsi   :   3776.40s CPU   3823.23s WALL (    5505 calls)
     vhpsi        :   4297.39s CPU   4329.04s WALL (    5505 calls)

     General routines
     calbec       :   8881.90s CPU   8953.57s WALL (   33219 calls)
     fft          :    990.93s CPU   1161.75s WALL (   12147 calls)
     ffts         :     12.93s CPU     13.23s WALL (    1478 calls)
     fftw         :  21461.89s CPU  22242.01s WALL ( 4021342 calls)
     interpolate  :    125.11s CPU    126.60s WALL (    1478 calls)
     davcio       :      0.30s CPU     79.36s WALL (    4635 calls)

     Parallel routines
     fft_scatter  :   7790.47s CPU   8681.85s WALL ( 4034967 calls)
     Hubbard U routines
     new_ns       :    919.69s CPU    994.43s WALL (     730 calls)
     vhpsi        :   4297.39s CPU   4329.04s WALL (    5505 calls)
     force_hub    :    763.40s CPU    777.63s WALL (      21 calls)

     PWSCF        :     1d   12h18m CPU        1d   13h11m WALL


   This run was terminated on:  14:34: 7  28Apr2014            

=------------------------------------------------------------------------------=
   JOB DONE.
=------------------------------------------------------------------------------=
