
     Program PWSCF v.5.0.2 (svn rev. 9656) starts on 28Mar2014 at  5:53:59 

     This program is part of the open-source Quantum ESPRESSO suite
     for quantum simulation of materials; please cite
         "P. Giannozzi et al., J. Phys.:Condens. Matter 21 395502 (2009);
          URL http://www.quantum-espresso.org", 
     in publications or presentations arising from this work. More details at
     http://www.quantum-espresso.org/quote.php

     Parallel version (MPI), running on    32 processors
     R & G space division:  proc/nbgrp/npool/nimage =      32

     Current dimensions of program PWSCF are:
     Max number of different atomic species (ntypx) = 10
     Max number of k-points (npk) =  40000
     Max angular momentum in pseudopotentials (lmaxx) =  3
     Reading input from pwscf.in
Warning: card &CELL ignored
Warning: card / ignored

     Subspace diagonalization in iterative solution of the eigenvalue problem:
     a serial algorithm will be used


     Parallelization info
     --------------------
     sticks:   dense  smooth     PW     G-vecs:    dense   smooth      PW
     Min         181      58     16                58637    10600    1562
     Max         182      59     17                58652    10655    1580
     Sum        5803    1869    517              1876595   339995   50245



     bravais-lattice index     =            0
     lattice parameter (alat)  =      12.0187  a.u.
     unit-cell volume          =    9939.8055 (a.u.)^3
     number of atoms/cell      =           49
     number of atomic types    =            2
     number of electrons       =       438.00
     number of Kohn-Sham states=          657
     kinetic-energy cutoff     =      40.0000  Ry
     charge density cutoff     =     500.0000  Ry
     convergence threshold     =      1.0E-06
     mixing beta               =       0.3000
     number of iterations used =            8  plain     mixing
     Exchange-correlation      = SLA  PW   PBE  PBE ( 1 4 3 4 0)
     EXX-fraction              =        0.00
     nstep                     =           50


     celldm(1)=  12.018658  celldm(2)=   0.000000  celldm(3)=   0.000000
     celldm(4)=   0.000000  celldm(5)=   0.000000  celldm(6)=   0.000000

     crystal axes: (cart. coord. in units of alat)
               a(1) = (   1.000000   0.000000   0.000000 )  
               a(2) = (   0.000000   1.009517   0.000000 )  
               a(3) = (   0.000000   0.000000   5.671477 )  

     reciprocal axes: (cart. coord. in units 2 pi/alat)
               b(1) = (  1.000000  0.000000  0.000000 )  
               b(2) = (  0.000000  0.990572  0.000000 )  
               b(3) = (  0.000000  0.000000  0.176321 )  


     PseudoPot. # 1 for O  read from file:
     /home/camp/zhonxu/pseudo/o_pbe_v1.01.uspp.F.UPF
     MD5 check sum: 2bcb18d16ea4b960afae9ec6d52f22d2
     Pseudo is Ultrasoft + core correction, Zval =  6.0
     Generated by new atomic code, or converted to UPF format
     Using radial grid of  737 points,  5 beta functions with: 
                l(1) =   0
                l(2) =   0
                l(3) =   1
                l(4) =   1
                l(5) =   2
     Q(r) pseudized with  8 coefficients,  rinner =    0.900   0.900   0.900
                                                       0.900   0.900

     PseudoPot. # 2 for Ir read from file:
     /home/camp/zhonxu/pseudo/ir_pbe_v1.uspp.F.UPF
     MD5 check sum: abf987a9674477536ede83817f8f8b70
     Pseudo is Ultrasoft + core correction, Zval = 15.0
     Generated by new atomic code, or converted to UPF format
     Using radial grid of  983 points,  7 beta functions with: 
                l(1) =   0
                l(2) =   0
                l(3) =   1
                l(4) =   1
                l(5) =   1
                l(6) =   2
                l(7) =   2
     Q(r) pseudized with  8 coefficients,  rinner =    1.350   1.350   1.350
                                                       1.350   1.350

     atomic species   valence    mass     pseudopotential
        O0             6.00    15.99940     O ( 1.00)
        Ir1           15.00   192.22000     Ir( 1.00)

      4 Sym. Ops. (no inversion) found



   Cartesian axes

     site n.     atom                  positions (alat units)
         1           O0  tau(   1) = (   0.0000000   0.5047586   1.8867871  )
         2           Ir1 tau(   2) = (   0.2500000   0.5047586   2.0785964  )
         3           Ir1 tau(   3) = (   0.0000000   0.0000000   2.0785964  )
         4           O0  tau(   4) = (   0.2500000   0.8177090   2.0785964  )
         5           O0  tau(   5) = (   0.2500000   0.1918083   2.0785964  )
         6           O0  tau(   6) = (   0.0000000   0.5047586   2.2704058  )
         7           O0  tau(   7) = (   0.0000000   0.0000000   2.3915485  )
         8           Ir1 tau(   8) = (   0.2500000   0.0000000   2.5833579  )
         9           Ir1 tau(   9) = (   0.0000000   0.5047586   2.5833579  )
        10           O0  tau(  10) = (   0.2500000   0.6965669   2.5833579  )
        11           O0  tau(  11) = (   0.2500000   0.3129503   2.5833579  )
        12           O0  tau(  12) = (   0.0000000   0.0000000   2.7751673  )
        13           O0  tau(  13) = (   0.0000000   0.5047586   2.8930773  )
        14           Ir1 tau(  14) = (   0.2500000   0.5047586   3.0864747  )
        15           Ir1 tau(  15) = (   0.0000000   0.0000000   3.0901611  )
        16           O0  tau(  16) = (   0.2500000   0.8161846   3.0894805  )
        17           O0  tau(  17) = (   0.2500000   0.1933326   3.0894805  )
        18           O0  tau(  18) = (   0.0000000   0.5047586   3.2780572  )
        19           O0  tau(  19) = (   0.0000000   0.0000000   3.4018655  )
        20           Ir1 tau(  20) = (   0.2500000   0.0000000   3.5996299  )
        21           Ir1 tau(  21) = (   0.0000000   0.5047586   3.5839199  )
        22           O0  tau(  22) = (   0.2500000   0.6968899   3.6045641  )
        23           O0  tau(  23) = (   0.2500000   0.3126273   3.6045641  )
        24           O0  tau(  24) = (   0.0000000   0.0000000   3.7852574  )
        25           O0  tau(  25) = (   0.5000000   0.5047586   1.8867871  )
        26           Ir1 tau(  26) = (   0.7500000   0.5047586   2.0785964  )
        27           Ir1 tau(  27) = (   0.5000000   0.0000000   2.0785964  )
        28           O0  tau(  28) = (   0.7500000   0.8177090   2.0785964  )
        29           O0  tau(  29) = (   0.7500000   0.1918083   2.0785964  )
        30           O0  tau(  30) = (   0.5000000   0.5047586   2.2704058  )
        31           O0  tau(  31) = (   0.5000000   0.0000000   2.3915485  )
        32           Ir1 tau(  32) = (   0.7500000   0.0000000   2.5833579  )
        33           Ir1 tau(  33) = (   0.5000000   0.5047586   2.5833579  )
        34           O0  tau(  34) = (   0.7500000   0.6965669   2.5833579  )
        35           O0  tau(  35) = (   0.7500000   0.3129503   2.5833579  )
        36           O0  tau(  36) = (   0.5000000   0.0000000   2.7751673  )
        37           O0  tau(  37) = (   0.5000000   0.5047586   2.8930773  )
        38           Ir1 tau(  38) = (   0.7500000   0.5047586   3.0864747  )
        39           Ir1 tau(  39) = (   0.5000000   0.0000000   3.0901611  )
        40           O0  tau(  40) = (   0.7500000   0.8161846   3.0894805  )
        41           O0  tau(  41) = (   0.7500000   0.1933326   3.0894805  )
        42           O0  tau(  42) = (   0.5000000   0.5047586   3.2780572  )
        43           O0  tau(  43) = (   0.5000000   0.0000000   3.4018655  )
        44           Ir1 tau(  44) = (   0.7500000   0.0000000   3.5996299  )
        45           Ir1 tau(  45) = (   0.5000000   0.5047586   3.5839199  )
        46           O0  tau(  46) = (   0.7500000   0.6968899   3.6045641  )
        47           O0  tau(  47) = (   0.7500000   0.3126273   3.6045641  )
        48           O0  tau(  48) = (   0.5000000   0.0000000   3.7852574  )
        49           O0  tau(  49) = (   0.5000000   0.5047586   3.7538374  )

     number of k points=     9  Methfessel-Paxton smearing, width (Ry)=  0.0100
                       cart. coord. in units 2pi/alat
        k(    1) = (   0.0000000   0.0000000   0.0000000), wk =   0.1250000
        k(    2) = (   0.0000000   0.2476431   0.0000000), wk =   0.2500000
        k(    3) = (   0.0000000  -0.4952862   0.0000000), wk =   0.1250000
        k(    4) = (   0.2500000   0.0000000   0.0000000), wk =   0.2500000
        k(    5) = (   0.2500000   0.2476431   0.0000000), wk =   0.5000000
        k(    6) = (   0.2500000  -0.4952862   0.0000000), wk =   0.2500000
        k(    7) = (  -0.5000000   0.0000000   0.0000000), wk =   0.1250000
        k(    8) = (  -0.5000000   0.2476431   0.0000000), wk =   0.2500000
        k(    9) = (  -0.5000000  -0.4952862   0.0000000), wk =   0.1250000

     Dense  grid:  1876595 G-vectors     FFT dimensions: (  90,  90, 486)

     Smooth grid:   339995 G-vectors     FFT dimensions: (  50,  50, 288)

     Largest allocated arrays     est. size (Mb)     dimensions
        Kohn-Sham Wavefunctions        13.57 Mb     (   1354,  657)
        NL pseudopotentials            15.81 Mb     (   1354,  765)
        Each V/rho on FFT grid          1.98 Mb     ( 129600)
        Each G-vector array             0.45 Mb     (  58643)
        G-vector shells                 0.22 Mb     (  29022)
     Largest temporary arrays     est. size (Mb)     dimensions
        Auxiliary wavefunctions        54.30 Mb     (   1354, 2628)
        Each subspace H/S matrix      105.38 Mb     (2628,2628)
        Each <psi_i|beta_j> matrix      7.67 Mb     (    765,  657)
        Arrays for rho mixing          15.82 Mb     ( 129600,   8)

     Check: negative/imaginary core charge=   -0.000003    0.000000

     Initial potential from superposition of free atoms
     Check: negative starting charge=   -6.657176

     starting charge  429.99945, renormalised to  438.00000

     negative rho (up, down):  0.678E+01 0.000E+00
     Starting wfc are  324 randomized atomic wfcs

     total cpu time spent up to now is       89.7 secs

     Self-consistent Calculation

     iteration #  1     ecut=    40.00 Ry     beta=0.30
     Davidson diagonalization with overlap
     ethr =  1.00E-02,  avg # of iterations =  8.6

     negative rho (up, down):  0.638E+01 0.000E+00

     total cpu time spent up to now is     1539.5 secs

     total energy              =   -3975.54094185 Ry
     Harris-Foulkes estimate   =   -4049.43976337 Ry
     estimated scf accuracy    <     149.46945403 Ry

     iteration #  2     ecut=    40.00 Ry     beta=0.30
     Davidson diagonalization with overlap
     ethr =  1.00E-02,  avg # of iterations =  5.9

     negative rho (up, down):  0.630E+01 0.000E+00

     total cpu time spent up to now is     2555.4 secs

     total energy              =   -3651.67026056 Ry
     Harris-Foulkes estimate   =   -4683.46471107 Ry
     estimated scf accuracy    <   32255.33622705 Ry

     iteration #  3     ecut=    40.00 Ry     beta=0.30
     Davidson diagonalization with overlap
     ethr =  1.00E-02,  avg # of iterations =  6.4

     negative rho (up, down):  0.634E+01 0.000E+00

     total cpu time spent up to now is     3827.2 secs

     total energy              =   -4012.60832186 Ry
     Harris-Foulkes estimate   =   -4054.91051801 Ry
     estimated scf accuracy    <     843.65573027 Ry

     iteration #  4     ecut=    40.00 Ry     beta=0.30
     Davidson diagonalization with overlap
     ethr =  1.00E-02,  avg # of iterations =  4.4

     negative rho (up, down):  0.638E+01 0.000E+00

     total cpu time spent up to now is     4420.7 secs

     total energy              =   -4028.12632894 Ry
     Harris-Foulkes estimate   =   -4050.80142926 Ry
     estimated scf accuracy    <     360.71524623 Ry

     iteration #  5     ecut=    40.00 Ry     beta=0.30
     Davidson diagonalization with overlap
     ethr =  1.00E-02,  avg # of iterations =  2.6

     negative rho (up, down):  0.634E+01 0.000E+00

     total cpu time spent up to now is     4769.8 secs

     total energy              =   -4037.78986543 Ry
     Harris-Foulkes estimate   =   -4040.37070713 Ry
     estimated scf accuracy    <      62.41357682 Ry

     iteration #  6     ecut=    40.00 Ry     beta=0.30
     Davidson diagonalization with overlap
     ethr =  1.00E-02,  avg # of iterations =  1.0

     negative rho (up, down):  0.633E+01 0.000E+00

     total cpu time spent up to now is     5010.2 secs

     total energy              =   -4038.98081315 Ry
     Harris-Foulkes estimate   =   -4039.36193838 Ry
     estimated scf accuracy    <       7.37789633 Ry

     iteration #  7     ecut=    40.00 Ry     beta=0.30
     Davidson diagonalization with overlap
     ethr =  1.68E-03,  avg # of iterations =  3.0

     negative rho (up, down):  0.631E+01 0.000E+00

     total cpu time spent up to now is     5372.7 secs

     total energy              =   -4038.96030319 Ry
     Harris-Foulkes estimate   =   -4039.13169309 Ry
     estimated scf accuracy    <       1.48692401 Ry

     iteration #  8     ecut=    40.00 Ry     beta=0.30
     Davidson diagonalization with overlap
     ethr =  3.39E-04,  avg # of iterations =  5.3

     negative rho (up, down):  0.630E+01 0.000E+00

     total cpu time spent up to now is     5935.2 secs

     total energy              =   -4038.89539570 Ry
     Harris-Foulkes estimate   =   -4039.07391180 Ry
     estimated scf accuracy    <       1.21399570 Ry

     iteration #  9     ecut=    40.00 Ry     beta=0.30
     Davidson diagonalization with overlap
     ethr =  2.77E-04,  avg # of iterations =  1.1

     negative rho (up, down):  0.628E+01 0.000E+00

     total cpu time spent up to now is     6179.1 secs

     total energy              =   -4038.89995133 Ry
     Harris-Foulkes estimate   =   -4039.02616290 Ry
     estimated scf accuracy    <       1.02240813 Ry

     iteration # 10     ecut=    40.00 Ry     beta=0.30
     Davidson diagonalization with overlap
     ethr =  2.33E-04,  avg # of iterations =  1.0

     negative rho (up, down):  0.627E+01 0.000E+00

     total cpu time spent up to now is     6419.2 secs

     total energy              =   -4038.90343586 Ry
     Harris-Foulkes estimate   =   -4039.00782030 Ry
     estimated scf accuracy    <       1.80409983 Ry

     iteration # 11     ecut=    40.00 Ry     beta=0.30
     Davidson diagonalization with overlap
     ethr =  2.33E-04,  avg # of iterations =  5.2

     negative rho (up, down):  0.626E+01 0.000E+00

     total cpu time spent up to now is     6922.3 secs

     total energy              =   -4038.93733763 Ry
     Harris-Foulkes estimate   =   -4038.95891978 Ry
     estimated scf accuracy    <       0.26226904 Ry

     iteration # 12     ecut=    40.00 Ry     beta=0.30
     Davidson diagonalization with overlap
     ethr =  5.99E-05,  avg # of iterations =  6.7

     negative rho (up, down):  0.626E+01 0.000E+00

     total cpu time spent up to now is     7563.9 secs

     total energy              =   -4038.94319862 Ry
     Harris-Foulkes estimate   =   -4038.95474524 Ry
     estimated scf accuracy    <       0.21513397 Ry

     iteration # 13     ecut=    40.00 Ry     beta=0.30
     Davidson diagonalization with overlap
     ethr =  4.91E-05,  avg # of iterations =  1.0

     negative rho (up, down):  0.626E+01 0.000E+00

     total cpu time spent up to now is     7802.0 secs

     total energy              =   -4038.94813851 Ry
     Harris-Foulkes estimate   =   -4038.94991670 Ry
     estimated scf accuracy    <       0.01664460 Ry

     iteration # 14     ecut=    40.00 Ry     beta=0.30
     Davidson diagonalization with overlap
     ethr =  3.80E-06,  avg # of iterations =  6.4

     negative rho (up, down):  0.626E+01 0.000E+00

     total cpu time spent up to now is     8425.0 secs

     total energy              =   -4038.94808633 Ry
     Harris-Foulkes estimate   =   -4038.95002742 Ry
     estimated scf accuracy    <       0.03758325 Ry

     iteration # 15     ecut=    40.00 Ry     beta=0.30
     Davidson diagonalization with overlap
     ethr =  3.80E-06,  avg # of iterations =  4.4

     negative rho (up, down):  0.626E+01 0.000E+00

     total cpu time spent up to now is     8885.1 secs

     total energy              =   -4038.94875017 Ry
     Harris-Foulkes estimate   =   -4038.94962755 Ry
     estimated scf accuracy    <       0.00722071 Ry

     iteration # 16     ecut=    40.00 Ry     beta=0.30
     Davidson diagonalization with overlap
     ethr =  1.65E-06,  avg # of iterations =  4.6

     negative rho (up, down):  0.627E+01 0.000E+00

     total cpu time spent up to now is     9364.3 secs

     total energy              =   -4038.94914431 Ry
     Harris-Foulkes estimate   =   -4038.94937461 Ry
     estimated scf accuracy    <       0.00211980 Ry

     iteration # 17     ecut=    40.00 Ry     beta=0.30
     Davidson diagonalization with overlap
     ethr =  4.84E-07,  avg # of iterations =  1.4

     negative rho (up, down):  0.627E+01 0.000E+00

     total cpu time spent up to now is     9629.7 secs

     total energy              =   -4038.94903349 Ry
     Harris-Foulkes estimate   =   -4038.94957731 Ry
     estimated scf accuracy    <       0.01517497 Ry

     iteration # 18     ecut=    40.00 Ry     beta=0.30
     Davidson diagonalization with overlap
     ethr =  4.84E-07,  avg # of iterations =  2.0

     negative rho (up, down):  0.627E+01 0.000E+00

     total cpu time spent up to now is     9929.5 secs

     total energy              =   -4038.94929751 Ry
     Harris-Foulkes estimate   =   -4038.94939183 Ry
     estimated scf accuracy    <       0.00141829 Ry

     iteration # 19     ecut=    40.00 Ry     beta=0.30
     Davidson diagonalization with overlap
     ethr =  3.24E-07,  avg # of iterations =  1.0

     negative rho (up, down):  0.627E+01 0.000E+00

     total cpu time spent up to now is    10169.2 secs

     total energy              =   -4038.94931209 Ry
     Harris-Foulkes estimate   =   -4038.94939396 Ry
     estimated scf accuracy    <       0.00085984 Ry

     iteration # 20     ecut=    40.00 Ry     beta=0.30
     Davidson diagonalization with overlap
     ethr =  1.96E-07,  avg # of iterations =  1.0

     negative rho (up, down):  0.627E+01 0.000E+00

     total cpu time spent up to now is    10407.8 secs

     total energy              =   -4038.94934850 Ry
     Harris-Foulkes estimate   =   -4038.94937003 Ry
     estimated scf accuracy    <       0.00039420 Ry

     iteration # 21     ecut=    40.00 Ry     beta=0.30
     Davidson diagonalization with overlap
     ethr =  9.00E-08,  avg # of iterations =  1.0

     negative rho (up, down):  0.627E+01 0.000E+00

     total cpu time spent up to now is    10644.8 secs

     total energy              =   -4038.94934963 Ry
     Harris-Foulkes estimate   =   -4038.94937400 Ry
     estimated scf accuracy    <       0.00080348 Ry

     iteration # 22     ecut=    40.00 Ry     beta=0.30
     Davidson diagonalization with overlap
     ethr =  9.00E-08,  avg # of iterations =  1.0

     negative rho (up, down):  0.627E+01 0.000E+00

     total cpu time spent up to now is    10882.7 secs

     total energy              =   -4038.94935831 Ry
     Harris-Foulkes estimate   =   -4038.94936399 Ry
     estimated scf accuracy    <       0.00005484 Ry

     iteration # 23     ecut=    40.00 Ry     beta=0.30
     Davidson diagonalization with overlap
     ethr =  1.25E-08,  avg # of iterations =  1.0

     negative rho (up, down):  0.627E+01 0.000E+00

     total cpu time spent up to now is    11120.0 secs

     total energy              =   -4038.94935797 Ry
     Harris-Foulkes estimate   =   -4038.94936561 Ry
     estimated scf accuracy    <       0.00014581 Ry

     iteration # 24     ecut=    40.00 Ry     beta=0.30
     Davidson diagonalization with overlap
     ethr =  1.25E-08,  avg # of iterations =  1.0

     negative rho (up, down):  0.627E+01 0.000E+00

     total cpu time spent up to now is    11357.4 secs

     total energy              =   -4038.94936107 Ry
     Harris-Foulkes estimate   =   -4038.94936289 Ry
     estimated scf accuracy    <       0.00001565 Ry

     iteration # 25     ecut=    40.00 Ry     beta=0.30
     Davidson diagonalization with overlap
     ethr =  3.57E-09,  avg # of iterations =  1.0

     negative rho (up, down):  0.627E+01 0.000E+00

     total cpu time spent up to now is    11597.8 secs

     total energy              =   -4038.94936146 Ry
     Harris-Foulkes estimate   =   -4038.94936219 Ry
     estimated scf accuracy    <       0.00000822 Ry

     iteration # 26     ecut=    40.00 Ry     beta=0.30
     Davidson diagonalization with overlap
     ethr =  1.88E-09,  avg # of iterations =  1.0

     negative rho (up, down):  0.627E+01 0.000E+00

     total cpu time spent up to now is    11835.0 secs

     total energy              =   -4038.94936154 Ry
     Harris-Foulkes estimate   =   -4038.94936198 Ry
     estimated scf accuracy    <       0.00000303 Ry

     iteration # 27     ecut=    40.00 Ry     beta=0.30
     Davidson diagonalization with overlap
     ethr =  6.92E-10,  avg # of iterations =  1.0

     negative rho (up, down):  0.627E+01 0.000E+00

     total cpu time spent up to now is    12074.1 secs

     total energy              =   -4038.94936152 Ry
     Harris-Foulkes estimate   =   -4038.94936189 Ry
     estimated scf accuracy    <       0.00000475 Ry

     iteration # 28     ecut=    40.00 Ry     beta=0.30
     Davidson diagonalization with overlap
     ethr =  6.92E-10,  avg # of iterations =  1.0

     negative rho (up, down):  0.627E+01 0.000E+00

     total cpu time spent up to now is    12313.4 secs

     total energy              =   -4038.94936158 Ry
     Harris-Foulkes estimate   =   -4038.94936182 Ry
     estimated scf accuracy    <       0.00000553 Ry

     iteration # 29     ecut=    40.00 Ry     beta=0.30
     Davidson diagonalization with overlap
     ethr =  6.92E-10,  avg # of iterations =  1.0

     negative rho (up, down):  0.627E+01 0.000E+00

     total cpu time spent up to now is    12554.0 secs

     total energy              =   -4038.94936158 Ry
     Harris-Foulkes estimate   =   -4038.94936179 Ry
     estimated scf accuracy    <       0.00000199 Ry

     iteration # 30     ecut=    40.00 Ry     beta=0.30
     Davidson diagonalization with overlap
     ethr =  4.54E-10,  avg # of iterations =  1.0

     negative rho (up, down):  0.627E+01 0.000E+00

     total cpu time spent up to now is    12791.1 secs

     total energy              =   -4038.94936165 Ry
     Harris-Foulkes estimate   =   -4038.94936175 Ry
     estimated scf accuracy    <       0.00000173 Ry

     iteration # 31     ecut=    40.00 Ry     beta=0.30
     Davidson diagonalization with overlap
     ethr =  3.95E-10,  avg # of iterations =  1.0

     negative rho (up, down):  0.627E+01 0.000E+00

     total cpu time spent up to now is    13030.2 secs

     total energy              =   -4038.94936164 Ry
     Harris-Foulkes estimate   =   -4038.94936174 Ry
     estimated scf accuracy    <       0.00000297 Ry

     iteration # 32     ecut=    40.00 Ry     beta=0.30
     Davidson diagonalization with overlap
     ethr =  3.95E-10,  avg # of iterations =  1.0

     negative rho (up, down):  0.627E+01 0.000E+00

     total cpu time spent up to now is    13267.0 secs

     End of self-consistent calculation

          k = 0.0000 0.0000 0.0000 ( 42445 PWs)   bands (ev):

   -63.0415 -53.7490 -53.5495 -49.0972 -49.0893 -49.0766 -49.0651 -49.0496
   -49.0417 -49.0372 -49.0302 -49.0212 -49.0179 -49.0156 -49.0125 -48.9948
   -48.9846 -48.9689 -48.9599 -48.9470 -48.9321 -48.9254 -48.9185 -48.8806
   -48.8656 -48.8573 -48.8565 -48.8252 -48.8122 -48.8008 -48.7895 -48.7826
   -48.7744 -48.7661 -48.7573 -48.7550 -48.6778 -48.6717 -48.6700 -48.5715
   -48.5570 -48.5253 -48.5165 -48.4405 -48.4257 -48.4125 -48.3974 -48.2543
   -22.5899 -19.6691 -19.5452 -19.2868 -19.0714 -18.9443 -18.7001 -18.6054
   -18.4181 -18.4097 -18.3921 -18.2873 -18.2811 -18.2530 -18.2343 -18.2172
   -18.1908 -18.1450 -18.0989 -18.0520 -18.0213 -17.9051 -17.8545 -17.7973
   -17.7891 -17.7423 -17.5986 -17.5456 -17.4970 -17.3768 -17.1938 -16.5501
   -16.4419 -16.2626 -16.2261 -12.6286  -8.7044  -8.1726  -8.1485  -8.0820
    -7.7565  -7.7046  -7.6776  -7.0122  -6.9385  -6.7880  -6.7378  -6.5974
    -6.5899  -6.5881  -6.5792  -6.5787  -6.5454  -6.5023  -6.4989  -6.4304
    -6.4244  -6.4202  -6.3940  -6.2879  -6.2062  -6.1273  -6.1186  -6.0837
    -6.0459  -5.9171  -5.8617  -5.8511  -5.8337  -5.8009  -5.6455  -5.5691
    -5.4953  -5.1366  -5.1311  -4.8445  -4.7862  -4.7303  -4.3950  -4.2956
    -4.2645  -4.2224  -4.1794  -4.1745  -4.0916  -4.0618  -3.8863  -3.8798
    -3.8059  -3.7435  -3.7297  -3.6818  -3.6587  -3.6121  -3.5957  -3.5877
    -3.5000  -3.4535  -3.3144  -3.2551  -3.2215  -3.1817  -3.1142  -3.0454
    -3.0075  -2.9776  -2.9479  -2.9094  -2.9083  -2.9010  -2.7803  -2.7250
    -2.7176  -2.5727  -2.5510  -2.4128  -2.2554  -2.2294  -2.0987  -2.0411
    -2.0010  -1.9579  -1.9385  -1.9273  -1.9072  -1.8334  -1.6248  -1.6030
    -1.5638  -1.2612  -1.2045  -1.1015  -1.0846  -1.0831  -1.0760  -1.0489
    -1.0227  -0.9743  -0.8514  -0.8147  -0.7064  -0.6883  -0.6235  -0.5890
    -0.5693  -0.5324  -0.4938  -0.4571  -0.4359  -0.3544  -0.3535  -0.2635
    -0.1623  -0.1533  -0.1399  -0.1364   0.0667   0.1462   0.2910   0.3866
     0.4546   0.5597   0.5638   0.5697   0.6631   0.7552   0.9047   1.1025
     1.1948   1.3209   1.4197   1.4298   1.4667   1.5607   1.6417   1.6946
     1.8163   1.9353   2.0269   2.0738   2.1425   2.3923   2.5809   2.7462
     2.8782   2.9673   3.2523   3.3067   3.5246   3.5480   3.5864   3.7562
     3.8407   3.8421   3.9024   4.0974   4.3623   4.4396   4.4459   4.7145
     4.9750   5.0818   5.1660   5.1757   5.3075   5.3787   5.4028   5.4387
     5.6265   5.8168   5.8307   5.8415   5.9777   6.1509   6.3577   6.4963
     6.5850   6.9798   7.1021   7.6161   7.9790   8.2504   8.2859   8.7030
     9.1321   9.1576   9.1816   9.2813   9.3715   9.4611   9.4814   9.6094
     9.7097   9.8712   9.9235   9.9472   9.9769  10.0126  10.0320  10.0388
    10.1128  10.1314  10.1473  10.2237  10.2803  10.2965  10.3353  10.3659
    10.4406  10.4740  10.5616  10.6069  10.6124  10.6586  10.6995  10.7236
    10.7496  10.7675  10.8618  10.8623  10.8723  10.8787  10.8877  10.9085
    10.9453  10.9456  10.9481  10.9617  11.0395  11.0401  11.1307  11.1360
    11.1503  11.1747  11.1771  11.2028  11.2518  11.2573  11.3577  11.3844
    11.4089  11.4565  11.5335  11.6328  11.6740  11.8774  12.1070  12.1762
    12.1853  12.2372  12.2821  12.3265  12.3612  12.4060  12.4926  12.4989
    12.5926  12.7149  12.8181  12.8392  12.9265  12.9384  13.0565  13.0588
    13.1040  13.1059  13.1196  13.2207  13.2858  13.4264  13.5796  13.5945
    13.6007  13.6335  13.6409  13.6414  13.7156  13.7232  13.8093  13.8350
    13.8495  13.8802  13.9037  13.9486  13.9850  14.0302  14.0436  14.0538
    14.1121  14.1421  14.1840  14.1882  14.2249  14.2321  14.3049  14.3366
    14.3444  14.5402  14.5962  14.6772  14.7342  14.8127  14.8933  14.9715
    15.0149  15.0335  15.0733  15.1182  15.1310  15.1863  15.2686  15.2722
    15.3096  15.5031  15.6409  15.6721  15.6932  15.8074  15.8803  16.0357
    16.0810  16.1226  16.2040  16.2078  16.2483  16.3104  16.4723  16.5273
    16.5493  16.5855  16.6030  16.6905  16.7698  16.7993  16.9923  17.0230
    17.0676  17.1383  17.2939  17.3112  17.3529  17.3737  17.4485  17.4646
    17.4703  17.5322  17.6540  17.7309  17.7474  17.7587  17.8244  17.8474
    17.8802  17.9863  17.9883  18.2056  18.2673  18.2971  18.5027  18.5672
    18.6826  18.6885  18.7011  18.7061  18.7760  18.8438  18.8972  18.9851
    19.0820  19.1217  19.1793  19.2340  19.2447  19.3599  19.4088  19.4561
    19.5566  19.5596  19.5839  19.5910  19.6926  19.7719  19.8033  19.8308
    19.9960  20.0381  20.0481  20.0602  20.1811  20.2637  20.2873  20.4268
    20.5268  20.6015  20.6865  20.6956  20.7015  20.7194  20.8050  20.8567
    20.8642  20.8912  20.9042  20.9618  20.9804  21.0565  21.0789  21.1695
    21.2009  21.2197  21.2291  21.3288  21.3439  21.3569  21.3850  21.4350
    21.4703  21.5089  21.5410  21.5670  21.5680  21.6185  21.6340  21.6659
    21.7541  21.8074  21.8431  22.0068  22.0347  22.0386  22.0587  22.0798
    22.0865  22.2056  22.2303  22.2372  22.2485  22.2840  22.2917  22.3079
    22.4269  22.5369  22.5860  22.6006  22.6507  22.6772  22.6933  22.7510
    22.7792  22.7794  22.9094  22.9673  22.9726  22.9977  23.0123  23.0214
    23.0607  23.2329  23.2564  23.2638  23.2672  23.3175  23.3814  23.4988
    23.5550  23.6488  23.6582  23.6927  23.7176  23.7614  23.8004  23.8395
    23.8659  23.8828  23.9581  23.9789  24.0088  24.0799  24.1256  24.1918
    24.2643  24.2882  24.3383  24.4128  24.4211  24.4339  24.4483  24.4809
    24.5325  24.5589  24.5761  24.5908  24.6186  24.6425  24.6938  24.7184
    24.7230  24.7478  24.7654  24.8063  24.8432  24.8450  24.8579  24.9057
    24.9211  24.9517  24.9961  24.9999  25.0323  25.0346  25.0775  25.0790
    25.1145  25.2155  25.2179  25.2290  25.2758  25.3084  25.3673  25.3953
    25.4356  25.4754  25.4825  25.4952  25.5187  25.5692  25.5761  25.5774
    25.6618  25.6835  25.7297  25.7417  25.7589  25.7765  25.7801  25.7907
    25.8054  25.8733  25.9179  25.9610  25.9943  26.0136  26.0592  26.1550
    26.1821  26.2203  26.2397  26.2575  26.3007  26.3029  26.3693  26.3887
    26.4396  26.4476  26.6469  26.6522  26.6990  26.7011  26.7389  26.7585
    26.7683  26.7843  26.8542  26.8934  26.9433  26.9605  27.0156  27.0245
    27.0346

          k = 0.0000 0.2476 0.0000 ( 42440 PWs)   bands (ev):

   -63.0415 -53.7490 -53.5495 -49.0974 -49.0907 -49.0766 -49.0651 -49.0507
   -49.0417 -49.0369 -49.0307 -49.0201 -49.0180 -49.0156 -49.0112 -48.9941
   -48.9853 -48.9677 -48.9588 -48.9467 -48.9320 -48.9256 -48.9188 -48.8806
   -48.8656 -48.8573 -48.8565 -48.8264 -48.8121 -48.8009 -48.7905 -48.7826
   -48.7740 -48.7663 -48.7573 -48.7550 -48.6778 -48.6717 -48.6700 -48.5715
   -48.5570 -48.5251 -48.5165 -48.4406 -48.4257 -48.4129 -48.3973 -48.2545
   -22.5897 -19.5498 -19.4312 -19.1869 -18.9823 -18.9436 -18.7195 -18.6840
   -18.4097 -18.3923 -18.3791 -18.3581 -18.3565 -18.3328 -18.3168 -18.2741
   -18.2551 -18.1618 -17.9743 -17.9646 -17.9463 -17.9288 -17.8589 -17.8011
   -17.7874 -17.7745 -17.7128 -17.6865 -17.6304 -17.3591 -17.2137 -16.5442
   -16.4378 -16.2620 -16.2220 -12.6067  -8.3096  -7.7884  -7.7858  -7.7182
    -7.6684  -7.6324  -7.5777  -7.0774  -6.9527  -6.9113  -6.9058  -6.8423
    -6.6720  -6.6147  -6.5727  -6.5149  -6.5058  -6.4821  -6.4622  -6.4409
    -6.4366  -6.4294  -6.3502  -6.3423  -6.3342  -6.2848  -6.1253  -5.9771
    -5.9076  -5.8503  -5.8448  -5.8349  -5.4777  -5.3968  -5.2245  -5.1569
    -5.0595  -5.0592  -4.9465  -4.7426  -4.7034  -4.6398  -4.5865  -4.5469
    -4.3544  -4.3495  -4.3326  -4.3137  -4.2671  -4.2370  -4.2164  -4.2005
    -4.1663  -4.0695  -4.0403  -3.9037  -3.8199  -3.7549  -3.6866  -3.5698
    -3.5305  -3.4660  -3.4513  -3.3818  -3.3208  -3.2713  -3.2540  -3.1746
    -3.1671  -3.1354  -3.1074  -3.0187  -2.9844  -2.9253  -2.8848  -2.8274
    -2.6980  -2.5839  -2.5111  -2.4322  -2.3489  -2.3423  -2.3138  -2.2022
    -2.1536  -2.0613  -1.9261  -1.8955  -1.8527  -1.8270  -1.8084  -1.7695
    -1.5986  -1.3706  -1.3385  -1.2459  -1.1912  -0.8145  -0.7183  -0.7162
    -0.6869  -0.6327  -0.6097  -0.5733  -0.5245  -0.5189  -0.4951  -0.4882
    -0.4464  -0.4329  -0.4209  -0.4111  -0.3753  -0.2984  -0.2783  -0.2725
    -0.2199  -0.2059  -0.2007  -0.1502  -0.1362  -0.1317  -0.1307  -0.0363
     0.0487   0.4165   0.5709   0.6766   0.7594   1.0674   1.1949   1.2498
     1.3517   1.4033   1.4640   1.4962   1.5222   1.5878   1.6356   1.6365
     1.7526   1.8053   1.8718   1.9542   2.0182   2.2077   2.5747   2.7454
     2.8728   2.9265   2.9652   2.9730   3.1532   3.3116   3.8152   3.8573
     3.9035   4.2173   4.3377   4.4755   4.8536   5.0447   5.0781   5.1140
     5.1173   5.1839   5.2639   5.2685   5.3001   5.3400   5.3629   5.3792
     5.5840   5.8324   5.8427   5.9031   5.9524   6.3186   6.3430   6.6095
     6.7838   7.0576   7.2720   7.6655   7.9305   8.0498   8.2528   8.4211
     8.4321   8.4809   8.7316   8.8303   8.9405   9.2030   9.2449   9.2927
     9.2980   9.4576   9.4753   9.6537   9.7286  10.0315  10.0820  10.1237
    10.2346  10.2820  10.3134  10.4354  10.4673  10.5475  10.5550  10.5978
    10.6493  10.6616  10.7305  10.7329  10.7808  10.8611  10.8617  10.8725
    10.8741  10.8788  10.8877  10.8924  10.9087  10.9445  10.9454  10.9937
    11.0026  11.0383  11.0398  11.0676  11.1132  11.1353  11.1369  11.1768
    11.1773  11.2395  11.2689  11.3098  11.3209  11.3844  11.4645  11.4995
    11.5350  11.6314  11.6705  11.7763  11.8175  11.8703  11.9797  11.9840
    12.0800  12.0820  12.1044  12.2302  12.2827  12.3265  12.3624  12.3673
    12.4323  12.4364  12.5204  12.5304  12.6649  12.7270  12.8332  12.8930
    12.9206  13.0689  13.0810  13.1265  13.1295  13.1974  13.2283  13.4323
    13.4984  13.5839  13.6106  13.6690  13.7266  13.7284  13.8249  13.9044
    13.9554  13.9669  13.9791  14.0309  14.1658  14.2082  14.2302  14.2846
    14.3474  14.3666  14.4398  14.5107  14.5379  14.6445  14.7800  14.8630
    14.8855  14.9599  14.9760  15.0200  15.0743  15.1134  15.1188  15.2137
    15.2759  15.3616  15.3971  15.4814  15.4983  15.6192  15.6818  15.6958
    15.7352  15.8179  15.8509  15.8637  15.9869  16.0609  16.1122  16.1156
    16.2176  16.2576  16.3050  16.3629  16.4250  16.4559  16.5248  16.6032
    16.6105  16.6786  16.7269  16.7444  16.8359  16.9603  16.9924  17.0202
    17.0844  17.1064  17.2220  17.4242  17.4870  17.5281  17.5882  17.6016
    17.6017  17.6750  17.6914  17.7548  17.8441  17.9005  17.9210  17.9604
    17.9710  17.9861  18.0211  18.0798  18.1380  18.1599  18.2525  18.3350
    18.3936  18.4657  18.5032  18.5743  18.5998  18.6619  18.6819  18.7960
    18.8015  18.8945  18.9082  18.9875  19.0113  19.0827  19.1474  19.2024
    19.2217  19.2404  19.2852  19.3283  19.3529  19.4016  19.4220  19.5328
    19.6075  19.6529  19.7026  19.7672  19.7883  19.8502  19.8786  19.9963
    20.1051  20.1795  20.2815  20.2941  20.3430  20.4173  20.5106  20.5302
    20.5539  20.6731  20.7092  20.7823  20.9087  20.9199  20.9596  20.9804
    21.0495  21.0807  21.1098  21.2036  21.2312  21.2802  21.3029  21.3211
    21.3537  21.3594  21.3957  21.4327  21.4654  21.4775  21.4937  21.5205
    21.5474  21.5955  21.6270  21.6708  21.6804  21.7060  21.7317  21.7807
    21.9092  21.9271  22.0125  22.0291  22.0439  22.0981  22.1021  22.1239
    22.1601  22.1863  22.2749  22.2983  22.3292  22.3861  22.4597  22.4706
    22.5403  22.5828  22.6251  22.6463  22.7446  22.7534  22.8501  22.8655
    22.9107  22.9938  22.9990  23.0178  23.0229  23.0958  23.1527  23.1926
    23.2303  23.2545  23.2769  23.2857  23.3215  23.3809  23.4155  23.4516
    23.4815  23.5152  23.5418  23.6557  23.7066  23.7150  23.7620  23.7841
    23.8267  23.8539  23.9182  23.9288  23.9611  24.0219  24.0407  24.1103
    24.1654  24.2259  24.2566  24.2955  24.2987  24.3923  24.4283  24.4363
    24.5113  24.5645  24.6275  24.6598  24.6675  24.7319  24.7663  24.8463
    24.8652  24.9187  24.9732  25.0188  25.0653  25.0683  25.0922  25.1492
    25.1520  25.2254  25.2592  25.2647  25.3623  25.4161  25.5203  25.5408
    25.5883  25.6225  25.6447  25.7582  25.7595  25.8042  25.8214  25.8624
    25.8745  25.8964  25.9546  25.9641  25.9661  25.9996  26.0572  26.1158
    26.1801  26.2373  26.2735  26.2820  26.3267  26.3987  26.4563  26.5128
    26.5615  26.6147  26.6661  26.6670  26.7504  26.7701  26.8687  26.8844
    26.8885  26.9501  26.9800  26.9923  27.0311  27.0586  27.0734  27.0837
    27.0947  27.1302  27.1597  27.2285  27.3325  27.3431  27.3526  27.3768
    27.3815

          k = 0.0000-0.4953 0.0000 ( 42460 PWs)   bands (ev):

   -63.0415 -53.7489 -53.5495 -49.0975 -49.0920 -49.0766 -49.0651 -49.0519
   -49.0417 -49.0365 -49.0311 -49.0190 -49.0181 -49.0156 -49.0099 -48.9932
   -48.9862 -48.9664 -48.9578 -48.9464 -48.9319 -48.9257 -48.9190 -48.8806
   -48.8656 -48.8574 -48.8565 -48.8275 -48.8120 -48.8009 -48.7914 -48.7826
   -48.7736 -48.7664 -48.7572 -48.7550 -48.6778 -48.6717 -48.6701 -48.5715
   -48.5570 -48.5250 -48.5165 -48.4406 -48.4257 -48.4133 -48.3973 -48.2546
   -22.5895 -19.3599 -19.2446 -19.2000 -18.9011 -18.8728 -18.7384 -18.6918
   -18.5097 -18.4301 -18.4215 -18.4172 -18.4062 -18.3918 -18.3833 -18.3036
   -18.2388 -18.1842 -18.0064 -17.9004 -17.8942 -17.8779 -17.8711 -17.8662
   -17.8642 -17.8022 -17.8016 -17.7370 -17.7238 -17.3412 -17.2290 -16.5385
   -16.4344 -16.2614 -16.2187 -12.5875  -7.8452  -7.8072  -7.7683  -7.7039
    -7.1813  -7.0966  -7.0963  -6.9315  -6.9128  -6.8948  -6.8892  -6.8765
    -6.7919  -6.5818  -6.5759  -6.4502  -6.4468  -6.4235  -6.3608  -6.3506
    -6.3283  -6.3279  -6.2840  -6.2747  -6.2733  -6.2108  -6.1860  -6.1691
    -5.8469  -5.8366  -5.8358  -5.4024  -5.3909  -5.3570  -5.3428  -5.2571
    -5.2366  -5.2310  -5.1883  -5.1390  -4.8300  -4.8109  -4.8068  -4.5357
    -4.5084  -4.3957  -4.3742  -4.3699  -4.3339  -4.2542  -4.2266  -4.1672
    -4.1631  -4.0726  -4.0533  -3.9926  -3.9783  -3.8456  -3.8268  -3.8095
    -3.7963  -3.7045  -3.6741  -3.5937  -3.4893  -3.4093  -3.3915  -3.3807
    -3.3376  -3.3114  -3.2675  -3.1546  -3.0871  -2.8834  -2.7883  -2.7505
    -2.7122  -2.3925  -2.3644  -2.3590  -2.2668  -2.2486  -2.2209  -2.1841
    -2.0293  -2.0206  -1.9115  -1.8888  -1.8771  -1.8213  -1.7843  -1.7291
    -1.6628  -1.6055  -1.4891  -1.4561  -1.2760  -1.1896  -1.0500  -0.8762
    -0.8065  -0.7977  -0.7037  -0.6511  -0.5506  -0.5468  -0.4863  -0.4687
    -0.4554  -0.3596  -0.3322  -0.2606  -0.2427  -0.1899  -0.1851  -0.1387
    -0.1311  -0.0789  -0.0074   0.0025   0.0297   0.0554   0.0815   0.1268
     0.3827   0.4847   0.5918   0.6514   0.7373   0.8894   0.9219   1.1348
     1.2812   1.3737   1.3836   1.3992   1.4970   1.6064   1.6423   1.8564
     1.8837   1.8955   1.9186   1.9915   2.0091   2.0130   2.3118   2.3501
     2.5752   2.7793   2.9800   2.9871   3.1232   3.8584   3.8766   3.8785
     3.9345   4.2523   4.8217   4.9037   4.9055   4.9381   5.0843   5.1006
     5.1432   5.3557   5.4022   5.4403   5.5385   5.6133   5.7229   5.7355
     5.8195   5.8341   5.8437   5.8761   6.2141   6.3174   6.6549   6.9185
     7.2156   7.2894   7.2919   7.5316   7.5732   7.6045   7.7875   7.9901
     8.0403   8.1615   8.4145   8.5601   8.6911   8.7003   8.8944   9.0144
     9.3658   9.4306   9.4732   9.5515   9.7148   9.7784  10.0377  10.3276
    10.3987  10.3993  10.4664  10.4998  10.5666  10.6202  10.6366  10.6389
    10.7450  10.7540  10.8608  10.8610  10.8722  10.8733  10.8789  10.8824
    10.8894  10.9092  10.9181  10.9442  10.9451  10.9724  10.9835  11.0397
    11.0399  11.0813  11.1349  11.1356  11.1369  11.1525  11.1766  11.1771
    11.2514  11.2541  11.2943  11.3040  11.3481  11.3563  11.3830  11.4364
    11.4478  11.5154  11.5632  11.6899  11.7536  11.8038  11.8128  11.8714
    11.9478  11.9646  12.0121  12.0439  12.0633  12.1620  12.1862  12.1980
    12.2224  12.5023  12.6063  12.6159  12.7101  12.7304  12.7305  12.9065
    13.0442  13.0474  13.1159  13.2849  13.3649  13.4181  13.5568  13.6380
    13.7553  13.7786  13.8082  13.8606  13.8739  13.9321  14.0336  14.0411
    14.0979  14.1943  14.2982  14.4075  14.4628  14.4909  14.5060  14.5284
    14.5402  14.6267  14.6913  14.7207  14.7913  14.7963  14.8284  14.8662
    14.8871  14.9398  14.9450  15.0713  15.0918  15.1527  15.1642  15.1726
    15.3547  15.4431  15.6058  15.6133  15.6626  15.7238  15.7461  15.8544
    15.9234  15.9714  16.0342  16.0822  16.0991  16.1591  16.2934  16.3759
    16.3938  16.4230  16.4721  16.4945  16.5203  16.5407  16.5489  16.6845
    16.7202  16.9021  16.9082  16.9204  16.9804  17.1328  17.2425  17.3318
    17.3588  17.3967  17.4287  17.5334  17.5861  17.6357  17.6427  17.6600
    17.7061  17.7405  17.8070  17.8441  17.8601  17.9153  18.0702  18.1138
    18.1428  18.1552  18.2052  18.2528  18.2767  18.3429  18.4177  18.4378
    18.4627  18.4662  18.4866  18.4884  18.5516  18.5590  18.5684  18.5759
    18.6192  18.6537  18.6609  18.7536  18.7924  18.8273  18.9324  18.9551
    18.9816  18.9860  19.0408  19.0989  19.1687  19.2031  19.2582  19.3279
    19.3561  19.3908  19.4130  19.4419  19.4550  19.5211  19.5533  19.7296
    19.8153  19.8511  19.8818  19.8990  19.9217  19.9336  19.9682  19.9894
    20.0266  20.0383  20.0555  20.1552  20.2818  20.2843  20.5609  20.6032
    20.6228  20.6566  20.6627  20.8180  20.8237  20.8278  20.8493  20.9213
    20.9534  20.9888  21.1400  21.1619  21.2305  21.2425  21.3111  21.3179
    21.4091  21.4656  21.5005  21.5325  21.5850  21.6245  21.6511  21.6758
    21.7828  21.8532  21.9070  21.9193  22.0142  22.0148  22.0248  22.0663
    22.0926  22.1031  22.1520  22.1698  22.1955  22.2088  22.2308  22.3038
    22.3235  22.3327  22.3784  22.4612  22.4630  22.4919  22.5430  22.5936
    22.6511  22.7339  22.7605  22.7691  22.8244  22.8349  22.8401  22.9162
    22.9215  22.9603  22.9958  23.0310  23.0729  23.0951  23.1234  23.1383
    23.1849  23.3145  23.3372  23.3578  23.4375  23.4862  23.5321  23.5730
    23.6328  23.6466  23.6936  23.7027  23.7217  23.8563  23.8607  23.8791
    23.9008  23.9372  23.9952  24.0666  24.0839  24.0933  24.1870  24.2247
    24.4100  24.4395  24.4670  24.5722  24.6809  24.7586  24.7712  24.8636
    24.9002  24.9125  24.9448  25.0296  25.0682  25.0746  25.0964  25.1048
    25.1287  25.1719  25.2110  25.2344  25.3059  25.3399  25.4261  25.5510
    25.5716  25.5970  25.6121  25.6436  25.7758  25.8002  25.8064  26.0283
    26.0314  26.0784  26.0946  26.1465  26.1939  26.2640  26.3348  26.3489
    26.3894  26.4411  26.4651  26.5236  26.5539  26.6103  26.6106  26.7030
    26.8099  26.8366  26.8739  26.9006  26.9242  26.9728  27.0194  27.0268
    27.0537  27.0701  27.0883  27.1830  27.1839  27.2533  27.2537  27.2753
    27.3070  27.3877  27.3884  27.4194  27.4216  27.5403  27.6044  27.7143
    27.7598

          k = 0.2500 0.0000 0.0000 ( 42464 PWs)   bands (ev):

   -63.0415 -53.7488 -53.5495 -49.0826 -49.0760 -49.0743 -49.0652 -49.0415
   -49.0362 -49.0352 -49.0312 -49.0200 -49.0162 -49.0138 -49.0094 -49.0036
   -48.9999 -48.9675 -48.9616 -48.9612 -48.9331 -48.9312 -48.9264 -48.8784
   -48.8678 -48.8428 -48.8418 -48.8234 -48.8141 -48.7983 -48.7887 -48.7855
   -48.7721 -48.7700 -48.7670 -48.7593 -48.6854 -48.6769 -48.6726 -48.5694
   -48.5592 -48.5256 -48.5165 -48.4384 -48.4279 -48.4104 -48.3995 -48.2543
   -22.5893 -19.5321 -19.4104 -19.1655 -18.9536 -18.8469 -18.7619 -18.6268
   -18.6089 -18.4966 -18.3749 -18.3452 -18.3075 -18.2847 -18.2068 -18.1807
   -18.1591 -18.1439 -18.0289 -17.9815 -17.9753 -17.9486 -17.8929 -17.8314
   -17.8204 -17.7906 -17.6753 -17.6235 -17.5781 -17.3862 -17.2087 -16.5947
   -16.4864 -16.3019 -16.2699 -12.6138  -8.5241  -7.9887  -7.9750  -7.9067
    -7.6213  -7.5908  -7.5344  -7.2040  -6.9723  -6.9580  -6.8876  -6.8302
    -6.6971  -6.6118  -6.5792  -6.5552  -6.5543  -6.4692  -6.4364  -6.3870
    -6.3726  -6.3495  -6.3115  -6.2675  -6.2346  -6.2305  -6.0316  -6.0292
    -5.9110  -5.7545  -5.7347  -5.6737  -5.5924  -5.5438  -5.5128  -5.5010
    -5.3704  -5.2257  -5.0109  -4.9401  -4.7655  -4.6003  -4.5572  -4.4754
    -4.4337  -4.3791  -4.2602  -4.1526  -4.1517  -4.1244  -4.1009  -3.9466
    -3.8794  -3.8507  -3.7226  -3.6780  -3.6243  -3.6182  -3.5988  -3.5630
    -3.5619  -3.5007  -3.4640  -3.4343  -3.3818  -3.3358  -3.2767  -3.1964
    -3.1861  -3.0968  -3.0214  -3.0099  -2.9755  -2.8985  -2.8728  -2.8602
    -2.7482  -2.7433  -2.6861  -2.6379  -2.5934  -2.5330  -2.5241  -2.4623
    -2.4134  -2.2930  -2.2198  -2.0837  -1.8564  -1.8046  -1.7508  -1.6304
    -1.5728  -1.5216  -1.4126  -1.2914  -1.0730  -0.8983  -0.8139  -0.7528
    -0.7129  -0.6531  -0.6117  -0.5540  -0.5181  -0.5152  -0.4558  -0.4239
    -0.3969  -0.3399  -0.3289  -0.2699  -0.2380  -0.1723  -0.1162  -0.0964
    -0.0675  -0.0320   0.1409   0.2867   0.3691   0.3970   0.4065   0.4791
     0.5497   0.6110   0.7169   0.8422   0.8932   0.9304   0.9914   1.0097
     1.0926   1.1516   1.1933   1.3945   1.5102   1.6283   1.6523   1.6533
     1.6893   1.6993   1.8651   1.9520   2.2211   2.2692   2.4964   3.0131
     3.0803   3.1700   3.2071   3.5503   3.7170   3.7417   3.8026   3.9439
     3.9527   3.9936   4.0230   4.0980   4.3152   4.4294   4.4565   4.5035
     4.7037   4.7038   4.9937   5.0172   5.0416   5.2250   5.2307   5.2490
     5.2802   5.3406   5.6361   5.9341   6.0612   6.4082   6.4881   6.6413
     6.8410   7.1508   7.3076   7.6397   7.7021   7.7718   8.2470   8.3516
     8.4481   8.7004   8.9355   9.0829   9.1458   9.3447   9.3559   9.5255
     9.5552   9.6427   9.7352   9.8437  10.0386  10.0539  10.1711  10.1748
    10.2449  10.3035  10.3064  10.3156  10.3501  10.4158  10.4593  10.4741
    10.5521  10.6496  10.6906  10.7513  10.8595  10.8598  10.8618  10.8723
    10.8780  10.8874  10.9069  10.9233  10.9373  10.9457  10.9612  11.0057
    11.0395  11.0402  11.0500  11.0857  11.1361  11.1365  11.1769  11.1774
    11.2337  11.3456  11.3618  11.3793  11.3950  11.4255  11.5254  11.5958
    11.6116  11.6772  11.7787  11.8314  11.8816  11.9628  11.9798  12.0718
    12.0791  12.0810  12.1581  12.2566  12.3541  12.4048  12.4074  12.4728
    12.4731  12.5043  12.5669  12.5818  12.6120  12.6194  12.8151  12.9186
    12.9612  13.0433  13.0812  13.1372  13.1412  13.2231  13.2784  13.3016
    13.3250  13.3325  13.4792  13.5599  13.6119  13.6615  13.7347  13.7867
    13.7960  13.9185  13.9901  14.0049  14.0506  14.1463  14.1917  14.2430
    14.3065  14.3203  14.3299  14.3528  14.3677  14.4224  14.6192  14.6895
    14.7652  14.8462  14.9709  15.0167  15.0768  15.1618  15.2142  15.2310
    15.2650  15.3172  15.4633  15.5159  15.5222  15.5832  15.5988  15.7270
    15.7892  15.8297  15.9474  15.9686  15.9763  16.0324  16.0839  16.1162
    16.2026  16.2587  16.2853  16.3947  16.4085  16.4442  16.4770  16.4814
    16.5040  16.5439  16.5467  16.6348  16.7142  16.8326  16.9027  16.9581
    17.0477  17.0818  17.1200  17.1823  17.1849  17.2317  17.2652  17.3132
    17.3392  17.3803  17.3968  17.4843  17.5051  17.6394  17.6402  17.7498
    17.8254  17.8691  17.9020  17.9138  17.9859  18.0088  18.0934  18.1339
    18.2000  18.2037  18.2503  18.3193  18.3951  18.5182  18.6004  18.6395
    18.6769  18.8320  18.8513  18.8879  19.1267  19.1564  19.1910  19.2241
    19.2388  19.3529  19.4008  19.4587  19.5347  19.6464  19.6947  19.7641
    19.8336  19.8747  19.9480  19.9641  20.1929  20.1950  20.3025  20.3106
    20.3743  20.4874  20.5364  20.5875  20.6521  20.6892  20.7652  20.7853
    20.8277  20.8657  20.8977  20.9180  20.9754  21.0468  21.1043  21.1308
    21.1851  21.2332  21.2870  21.3048  21.3853  21.4042  21.4205  21.4480
    21.4636  21.5140  21.5632  21.5725  21.5777  21.6154  21.7706  21.8134
    21.8615  21.8912  21.8929  21.9212  21.9325  21.9456  21.9735  22.0075
    22.0304  22.0568  22.1014  22.1164  22.1593  22.1667  22.2754  22.3537
    22.3901  22.4291  22.4803  22.5018  22.5203  22.5536  22.5580  22.5869
    22.6026  22.6778  22.6791  22.7296  22.7396  22.8318  22.8321  22.8790
    22.9002  22.9071  22.9894  23.0006  23.0358  23.0417  23.0858  23.1418
    23.1489  23.1540  23.2138  23.2340  23.2535  23.3438  23.3676  23.3735
    23.4332  23.4782  23.4915  23.5422  23.6023  23.6537  23.7530  23.7851
    23.8004  23.8841  23.9077  23.9479  23.9856  24.0034  24.0035  24.0922
    24.1266  24.1510  24.1785  24.2198  24.3300  24.3789  24.4117  24.4803
    24.4888  24.5099  24.5491  24.5575  24.6070  24.6251  24.7654  24.7698
    24.8460  24.8517  24.9286  24.9648  24.9873  25.0390  25.1037  25.1258
    25.1633  25.1988  25.2861  25.3297  25.3625  25.4163  25.4906  25.4997
    25.5227  25.6151  25.7223  25.7384  25.7525  25.7728  25.7818  25.8150
    25.8423  25.8757  25.9108  25.9747  25.9883  26.0217  26.1069  26.1209
    26.1823  26.2318  26.2564  26.2622  26.2705  26.3859  26.4198  26.5043
    26.5331  26.5838  26.5908  26.6580  26.7164  26.7192  26.7966  26.8228
    26.8404  26.8955  26.9226  26.9369  26.9734  27.0111  27.0882  27.0953
    27.1624  27.1687  27.2240  27.2629  27.2776  27.2997  27.3214  27.3697
    27.4193

          k = 0.2500 0.2476 0.0000 ( 42453 PWs)   bands (ev):

   -63.0415 -53.7488 -53.5495 -49.0826 -49.0760 -49.0758 -49.0653 -49.0415
   -49.0364 -49.0359 -49.0315 -49.0199 -49.0162 -49.0122 -49.0086 -49.0037
   -48.9998 -48.9687 -48.9606 -48.9585 -48.9333 -48.9311 -48.9265 -48.8784
   -48.8678 -48.8428 -48.8418 -48.8243 -48.8141 -48.7984 -48.7895 -48.7855
   -48.7721 -48.7700 -48.7673 -48.7590 -48.6854 -48.6769 -48.6726 -48.5694
   -48.5592 -48.5255 -48.5165 -48.4384 -48.4279 -48.4107 -48.3995 -48.2545
   -22.5892 -19.4158 -19.3006 -19.0730 -18.8685 -18.8312 -18.7348 -18.6348
   -18.5778 -18.4822 -18.3922 -18.3635 -18.3250 -18.3032 -18.2909 -18.2481
   -18.1997 -18.1788 -18.0201 -18.0119 -17.9800 -17.9636 -17.8961 -17.8456
   -17.8241 -17.8106 -17.7785 -17.7561 -17.6975 -17.3734 -17.2242 -16.5892
   -16.4838 -16.3019 -16.2666 -12.5883  -8.1536  -7.7530  -7.6120  -7.5477
    -7.5124  -7.4796  -7.4260  -6.9598  -6.8648  -6.8453  -6.8189  -6.7558
    -6.6851  -6.6371  -6.6100  -6.5711  -6.4670  -6.4591  -6.4441  -6.3924
    -6.3840  -6.3781  -6.3465  -6.3142  -6.2656  -6.2090  -6.0678  -5.9492
    -5.8584  -5.7091  -5.6555  -5.5920  -5.5122  -5.4831  -5.4276  -5.3117
    -5.2072  -5.1968  -5.1299  -5.0026  -4.8174  -4.6648  -4.5995  -4.5271
    -4.4964  -4.4599  -4.3944  -4.3174  -4.2730  -4.2167  -4.1484  -4.1258
    -4.1169  -4.0454  -4.0166  -3.9826  -3.8797  -3.8652  -3.8355  -3.8080
    -3.7725  -3.6948  -3.6515  -3.5364  -3.5085  -3.4660  -3.4219  -3.3273
    -3.2691  -3.2236  -3.1798  -3.1493  -3.0737  -3.0268  -2.9780  -2.9573
    -2.8981  -2.7649  -2.6828  -2.5691  -2.4974  -2.4220  -2.3935  -2.3217
    -2.3134  -2.2714  -2.2391  -1.9551  -1.8128  -1.7454  -1.7052  -1.5944
    -1.5582  -1.5135  -1.4968  -1.3707  -1.2655  -0.8485  -0.6935  -0.6230
    -0.5744  -0.5067  -0.4764  -0.4423  -0.4308  -0.4044  -0.3820  -0.3240
    -0.2799  -0.2576  -0.2338  -0.2103  -0.1545  -0.1117  -0.0970  -0.0812
    -0.0087  -0.0039   0.0527   0.0928   0.2186   0.2526   0.3315   0.3895
     0.4243   0.5805   0.7728   0.9166   0.9988   1.0385   1.0626   1.1592
     1.2144   1.3051   1.3399   1.4089   1.4304   1.5032   1.5566   1.6436
     1.7085   1.7521   1.8096   1.8566   1.8926   2.0841   2.6195   2.9564
     3.0199   3.1094   3.1497   3.1807   3.2321   3.4311   3.9243   3.9748
     4.0184   4.1307   4.2617   4.3866   4.5674   4.6115   4.7334   4.7952
     4.8366   4.9402   5.0525   5.1281   5.1732   5.2252   5.3124   5.3511
     5.3618   5.4423   5.7695   5.9547   6.1105   6.3940   6.6133   6.8445
     7.0680   7.2746   7.4764   7.7335   7.8154   7.9357   8.1410   8.3144
     8.4728   8.6184   8.6640   8.7170   8.8984   8.9778   9.0931   9.2170
     9.2806   9.3244   9.4712   9.5364   9.5868   9.6508   9.7809   9.8239
     9.9297  10.0641  10.2207  10.2696  10.3517  10.3842  10.4127  10.4418
    10.5439  10.5593  10.6135  10.7435  10.8606  10.8609  10.8724  10.8787
    10.8879  10.8902  10.9087  10.9348  10.9447  10.9516  11.0397  11.0398
    11.0545  11.0669  11.1281  11.1352  11.1374  11.1768  11.1771  11.2114
    11.2416  11.2472  11.2872  11.3833  11.4606  11.5430  11.6274  11.6875
    11.6961  11.7168  11.7788  11.8775  11.8930  11.9229  12.1311  12.2017
    12.2955  12.3103  12.3609  12.3868  12.4213  12.4775  12.5234  12.5511
    12.5935  12.6424  12.7176  12.7896  12.8335  12.8998  12.9374  13.0392
    13.0717  13.1980  13.2343  13.3360  13.4482  13.4963  13.5848  13.6333
    13.6691  13.7553  13.7873  13.8223  13.8806  13.9017  13.9793  14.0428
    14.0695  14.1271  14.1985  14.2446  14.3037  14.3430  14.3847  14.3941
    14.4599  14.5647  14.5945  14.5969  14.6387  14.7012  14.7269  14.7880
    14.8287  14.9325  14.9839  15.1129  15.1463  15.2116  15.2413  15.3536
    15.3814  15.4134  15.4432  15.4763  15.4927  15.5152  15.5415  15.6001
    15.6136  15.6964  15.7416  15.8081  15.8659  15.9464  16.0002  16.0189
    16.0449  16.0926  16.2595  16.3324  16.4433  16.4644  16.4984  16.5762
    16.6364  16.7109  16.7278  16.7899  16.8417  16.8498  16.9432  17.0934
    17.1894  17.2512  17.3202  17.4076  17.4488  17.4936  17.5181  17.5492
    17.6426  17.6644  17.7034  17.7255  17.7607  17.7731  17.8277  17.8477
    17.9584  17.9731  17.9758  18.0073  18.0549  18.0605  18.1411  18.1542
    18.1792  18.2380  18.2631  18.3747  18.4336  18.4530  18.4872  18.5617
    18.5916  18.6208  18.7146  18.7648  18.8293  18.8812  18.9542  19.0394
    19.0621  19.1342  19.2342  19.3041  19.3129  19.3639  19.4010  19.4251
    19.4644  19.4945  19.5783  19.5971  19.6308  19.6506  19.7434  19.7691
    19.8467  19.8606  19.9208  19.9378  19.9780  20.0091  20.0418  20.1737
    20.2698  20.3007  20.3424  20.3570  20.4170  20.4546  20.5081  20.5145
    20.5382  20.6242  20.6655  20.6842  20.7249  20.8066  20.9496  20.9895
    21.0349  21.0928  21.1497  21.1684  21.1881  21.2161  21.2232  21.3889
    21.4186  21.4555  21.5004  21.5414  21.5816  21.6607  21.6817  21.7051
    21.7899  21.8239  21.8443  21.9150  21.9987  22.0252  22.0620  22.1039
    22.1529  22.1959  22.2909  22.3152  22.3924  22.4699  22.5220  22.5821
    22.5922  22.6251  22.6715  22.7076  22.8129  22.8346  22.8872  22.9311
    23.0100  23.0310  23.0939  23.1162  23.1787  23.2222  23.2518  23.2911
    23.3097  23.3467  23.3566  23.3761  23.4517  23.4679  23.5233  23.5393
    23.5564  23.6115  23.6406  23.7012  23.7161  23.7542  23.8529  23.8713
    23.9257  23.9574  24.0268  24.0439  24.1175  24.1717  24.2320  24.2416
    24.3184  24.3781  24.4088  24.4776  24.5070  24.5306  24.5617  24.5993
    24.6362  24.6431  24.7138  24.7602  24.8407  24.9124  24.9532  24.9674
    25.0079  25.0464  25.0705  25.1172  25.1663  25.2104  25.2433  25.2612
    25.3205  25.3449  25.3788  25.4409  25.4627  25.5404  25.5694  25.5838
    25.6150  25.6677  25.6722  25.7648  25.7937  25.8379  25.8682  25.8858
    25.9041  26.0036  26.0388  26.1056  26.1297  26.1447  26.1768  26.2056
    26.2262  26.2659  26.2859  26.3057  26.3172  26.3816  26.4862  26.5144
    26.5474  26.5548  26.6646  26.7186  26.7284  26.7785  26.7937  26.8156
    26.8911  26.8973  26.9510  26.9871  27.0123  27.0719  27.0931  27.1356
    27.1464  27.1886  27.2239  27.2610  27.2808  27.3195  27.3534  27.4070
    27.4137

          k = 0.2500-0.4953 0.0000 ( 42460 PWs)   bands (ev):

   -63.0415 -53.7488 -53.5495 -49.0825 -49.0773 -49.0760 -49.0653 -49.0415
   -49.0375 -49.0357 -49.0318 -49.0198 -49.0162 -49.0107 -49.0081 -49.0038
   -48.9995 -48.9694 -48.9593 -48.9565 -48.9336 -48.9309 -48.9266 -48.8784
   -48.8678 -48.8429 -48.8418 -48.8253 -48.8142 -48.7985 -48.7903 -48.7854
   -48.7720 -48.7700 -48.7676 -48.7586 -48.6854 -48.6769 -48.6726 -48.5694
   -48.5592 -48.5253 -48.5165 -48.4384 -48.4279 -48.4110 -48.3996 -48.2546
   -22.5889 -19.2288 -19.1178 -19.0825 -18.7884 -18.7741 -18.6857 -18.5811
   -18.5206 -18.4946 -18.4703 -18.4326 -18.3798 -18.3367 -18.3367 -18.3224
   -18.2488 -18.2314 -18.0208 -17.9981 -17.9873 -17.9737 -17.9654 -17.9428
   -17.9154 -17.8272 -17.8222 -17.7926 -17.7727 -17.3614 -17.2369 -16.5841
   -16.4815 -16.3020 -16.2638 -12.5649  -7.8398  -7.6208  -7.5956  -7.5018
    -6.9981  -6.8016  -6.7875  -6.7647  -6.7268  -6.6942  -6.6632  -6.6182
    -6.5643  -6.5587  -6.5315  -6.5011  -6.4792  -6.4748  -6.4390  -6.3942
    -6.3821  -6.3771  -6.3492  -6.3401  -6.3206  -6.2707  -6.1760  -6.0112
    -5.8891  -5.6197  -5.5468  -5.5211  -5.4522  -5.3792  -5.2901  -5.2000
    -5.1993  -5.1487  -5.0479  -4.9571  -4.9464  -4.9288  -4.9240  -4.9125
    -4.9051  -4.7942  -4.6975  -4.6428  -4.6037  -4.5952  -4.4648  -4.4353
    -4.3621  -4.1718  -4.1530  -4.1000  -4.0945  -4.0075  -3.9964  -3.8932
    -3.8054  -3.7595  -3.7419  -3.6935  -3.6528  -3.5740  -3.5659  -3.4284
    -3.4186  -3.3198  -3.2665  -3.2629  -3.1856  -3.0529  -2.9652  -2.9031
    -2.8163  -2.7054  -2.6647  -2.3938  -2.3909  -2.2659  -2.2388  -2.1495
    -2.0755  -2.0371  -1.9312  -1.8210  -1.7775  -1.7735  -1.7099  -1.6881
    -1.6438  -1.5371  -1.4949  -1.3908  -1.3761  -1.0335  -0.9636  -0.8405
    -0.8261  -0.6107  -0.4791  -0.4602  -0.4209  -0.4187  -0.3474  -0.3307
    -0.2845  -0.2028  -0.1361  -0.1259  -0.1088  -0.0898  -0.0251   0.0969
     0.1225   0.2751   0.3478   0.3529   0.3813   0.4014   0.4075   0.4781
     0.5598   0.5691   0.6794   0.8533   0.9558   0.9657   1.0063   1.1411
     1.1714   1.2162   1.3274   1.3504   1.4611   1.5403   1.5651   1.6335
     1.6837   1.7130   1.7290   1.8887   1.9804   2.0191   2.5174   2.5569
     2.7666   2.7896   3.0442   3.1596   3.2177   3.8425   3.9340   3.9745
     3.9906   4.0190   4.2246   4.2667   4.4266   4.7095   4.7548   5.0391
     5.1274   5.1382   5.1985   5.2731   5.3366   5.5269   5.5481   5.6202
     5.6361   5.6491   5.7573   5.8474   6.4254   6.4905   6.7956   7.1752
     7.4527   7.5371   7.5903   7.7976   7.8194   7.8347   7.9461   8.0665
     8.1085   8.2727   8.4245   8.4785   8.6614   8.9392   9.0163   9.0971
     9.1894   9.2000   9.3350   9.3805   9.4375   9.6221   9.6658   9.7431
     9.7462   9.8724   9.9197   9.9790  10.0065  10.0721  10.1917  10.2462
    10.3350  10.3568  10.5970  10.7582  10.7809  10.8179  10.8572  10.8612
    10.8659  10.8723  10.8777  10.8882  10.9021  10.9092  10.9319  10.9449
    10.9455  11.0068  11.0398  11.0401  11.1355  11.1358  11.1772  11.1776
    11.3836  11.4084  11.5659  11.5746  11.5812  11.6270  11.6872  11.7287
    11.7291  11.7666  11.8133  11.9875  12.0030  12.0285  12.0419  12.2122
    12.2173  12.3933  12.4147  12.4734  12.5208  12.5303  12.6183  12.7248
    12.7662  13.0080  13.0325  13.0860  13.0910  13.1155  13.2457  13.3221
    13.3778  13.3788  13.4839  13.5816  13.7080  13.7120  13.7456  13.7501
    13.8411  13.9734  14.0180  14.0409  14.1187  14.1556  14.1840  14.2035
    14.2629  14.2863  14.4065  14.4334  14.5149  14.6175  14.6659  14.7052
    14.7294  14.8337  14.8353  14.8683  14.8876  14.9362  14.9575  15.0445
    15.0659  15.1046  15.1262  15.1665  15.2152  15.2800  15.3659  15.3708
    15.4351  15.4675  15.5904  15.6515  15.7196  15.7300  15.8142  15.8382
    15.8888  15.9245  15.9515  16.0430  16.0835  16.0858  16.1241  16.1429
    16.1964  16.2484  16.2595  16.4635  16.4926  16.5503  16.5854  16.5861
    16.5986  16.6533  16.7086  16.8195  16.8380  16.8662  16.9124  16.9540
    16.9747  16.9905  17.0890  17.1247  17.1414  17.2342  17.2549  17.3186
    17.3254  17.4083  17.4507  17.4726  17.5123  17.5474  17.6225  17.6507
    17.7013  17.7473  17.8004  17.9529  17.9641  17.9683  17.9949  18.0042
    18.0296  18.1444  18.1919  18.3497  18.3596  18.4148  18.4780  18.4884
    18.5459  18.6282  18.6802  18.6851  18.7345  18.7540  18.8227  18.8243
    18.8652  18.9090  18.9506  19.0150  19.0180  19.1233  19.1627  19.2048
    19.2242  19.3444  19.3702  19.3866  19.3923  19.4760  19.5489  19.5636
    19.6036  19.8427  19.8749  19.9250  19.9612  19.9753  20.0695  20.1085
    20.1344  20.1549  20.1740  20.1850  20.2058  20.3205  20.3337  20.3530
    20.3737  20.4173  20.4262  20.5577  20.5911  20.6269  20.6387  20.6592
    20.7048  20.8282  20.8836  20.9213  20.9365  20.9563  21.0419  21.0826
    21.1028  21.1778  21.2093  21.2523  21.2645  21.2766  21.3672  21.3789
    21.4726  21.5092  21.5828  21.7201  21.7248  21.7495  21.7816  21.8246
    21.8374  21.9481  21.9614  22.0334  22.0773  22.0951  22.1282  22.1530
    22.1656  22.2937  22.3246  22.4188  22.4514  22.5004  22.5760  22.6608
    22.6985  22.7344  22.7737  22.8185  22.8744  22.9072  22.9528  23.0144
    23.0537  23.1755  23.2157  23.2446  23.2677  23.3654  23.4662  23.4843
    23.4973  23.5630  23.6087  23.6208  23.6818  23.7155  23.7850  23.8772
    23.9046  23.9075  23.9846  24.0318  24.1618  24.1696  24.2301  24.2663
    24.2906  24.3847  24.4012  24.5398  24.5653  24.6167  24.6200  24.6726
    24.7816  24.7968  24.8783  24.9137  24.9403  25.0090  25.1567  25.1607
    25.1793  25.2328  25.2464  25.3330  25.3408  25.4174  25.4332  25.4656
    25.5134  25.5449  25.6574  25.6655  25.7372  25.7598  25.7751  25.7817
    25.8488  25.8722  25.9086  25.9376  25.9699  25.9799  25.9973  26.0471
    26.0908  26.1084  26.1630  26.1678  26.2397  26.2678  26.2824  26.2919
    26.3397  26.3726  26.4153  26.4463  26.4932  26.5629  26.5654  26.5997
    26.6704  26.6842  26.7142  26.7218  26.7713  26.7976  26.8240  26.8708
    26.8906  26.8991  26.9360  26.9693  27.0137  27.0433  27.0620  27.0839
    27.1827  27.1843  27.2186  27.2439  27.2455  27.2718  27.3217  27.3359
    27.3399

          k =-0.5000 0.0000 0.0000 ( 42508 PWs)   bands (ev):

   -63.0415 -53.7486 -53.5495 -49.0754 -49.0656 -49.0489 -49.0475 -49.0417
   -49.0385 -49.0337 -49.0337 -49.0322 -49.0169 -49.0169 -49.0156 -49.0076
   -48.9895 -48.9688 -48.9680 -48.9645 -48.9643 -48.9289 -48.9286 -48.8731
   -48.8731 -48.8197 -48.8178 -48.8076 -48.8076 -48.8063 -48.8058 -48.7922
   -48.7920 -48.7877 -48.7680 -48.7229 -48.7222 -48.6749 -48.6746 -48.5643
   -48.5643 -48.5260 -48.5165 -48.4332 -48.4331 -48.4061 -48.4038 -48.2543
   -22.5887 -19.2280 -19.1582 -19.0699 -19.0113 -18.8478 -18.8293 -18.6641
   -18.6524 -18.5866 -18.5364 -18.4310 -18.3431 -18.2011 -18.1312 -18.1215
   -18.1180 -18.1177 -18.0866 -17.9407 -17.9039 -17.8713 -17.8555 -17.8553
   -17.8398 -17.8062 -17.8062 -17.7676 -17.7675 -17.3940 -17.2225 -16.6376
   -16.5352 -16.3288 -16.3279 -12.5998  -8.1996  -7.6666  -7.5220  -7.5186
    -7.5170  -7.4992  -7.4970  -7.4358  -7.4356  -7.2473  -7.1723  -7.1420
    -7.0411  -6.5681  -6.5359  -6.5145  -6.5016  -6.4640  -6.4270  -6.3242
    -6.2565  -6.2493  -6.1884  -6.1397  -6.1033  -6.0851  -5.9186  -5.8949
    -5.7228  -5.6519  -5.6279  -5.5610  -5.4812  -5.4193  -5.1761  -5.1440
    -5.1264  -5.0533  -4.9379  -4.8399  -4.8195  -4.8142  -4.7318  -4.7113
    -4.6927  -4.6886  -4.5622  -4.5315  -4.2723  -4.1671  -4.1640  -4.1426
    -4.0285  -3.8939  -3.8224  -3.7629  -3.7588  -3.6923  -3.6038  -3.6015
    -3.5485  -3.4902  -3.4821  -3.4314  -3.3832  -3.3365  -3.3363  -3.3237
    -3.3100  -3.2390  -3.1722  -3.1569  -3.1003  -3.0185  -2.9887  -2.9696
    -2.9467  -2.9330  -2.9236  -2.8013  -2.7805  -2.7440  -2.7079  -2.6963
    -2.6781  -2.4034  -2.3460  -1.8911  -1.8624  -1.8307  -1.8087  -1.6263
    -1.6225  -1.5928  -1.5464  -1.2381  -1.2213  -0.9077  -0.8272  -0.6679
    -0.5139  -0.4817  -0.4792  -0.4723  -0.4598  -0.3692  -0.3654  -0.2885
    -0.2866  -0.1845  -0.1781  -0.1730  -0.0379   0.0882   0.1885   0.1902
     0.3148   0.3340   0.4061   0.4538   0.5197   0.5431   0.6295   0.6981
     0.7671   0.7794   0.9037   0.9076   0.9225   0.9339   1.0185   1.0407
     1.0860   1.1027   1.1184   1.2014   1.2537   1.4335   1.5420   1.6446
     1.7122   1.8048   1.8059   1.8075   1.8513   2.4484   2.5124   3.1365
     3.3228   3.4355   3.6239   3.7752   3.8904   3.9464   3.9590   4.1486
     4.1765   4.2662   4.2731   4.2972   4.3004   4.3377   4.3380   4.3718
     4.4303   4.4917   4.4943   4.4947   4.5013   4.5443   4.5717   5.1596
     5.1744   5.5337   5.6074   5.9229   6.6014   6.6316   6.8096   6.8099
     6.9826   7.2307   7.2844   7.5106   7.5907   7.6878   7.8403   7.9331
     8.0438   8.2169   8.4452   8.7513   8.8249   8.9571   9.0866   9.4566
     9.8053   9.8173   9.8551   9.9534   9.9894  10.1510  10.2658  10.2664
    10.2986  10.4977  10.4985  10.6735  10.7650  10.7755  10.7903  10.8487
    10.8494  10.8671  10.8689  10.8727  10.8786  10.8878  10.9087  10.9170
    10.9347  10.9361  10.9455  10.9492  10.9558  10.9887  11.0174  11.0323
    11.0404  11.0406  11.1200  11.1363  11.1366  11.1700  11.1771  11.1775
    11.2308  11.3472  11.3614  11.3842  11.3936  11.4091  11.4326  11.4470
    11.4829  11.4972  11.5739  11.5855  11.7615  11.7751  11.8027  11.8609
    11.9585  12.0026  12.1045  12.1396  12.1600  12.2225  12.3847  12.4085
    12.4522  12.4880  12.5880  12.6539  12.8138  12.8142  12.8778  12.8882
    13.0085  13.0627  13.1477  13.1769  13.2065  13.2465  13.4704  13.5039
    13.5081  13.5355  13.5507  13.6302  13.7792  13.8381  13.8888  13.9440
    13.9673  14.0375  14.0429  14.1552  14.3839  14.4350  14.4376  14.4608
    14.6137  14.6215  14.7050  14.7133  14.7872  14.7978  14.8006  14.8758
    14.9019  14.9174  15.0818  15.1741  15.2233  15.2418  15.3015  15.3430
    15.3476  15.3961  15.4944  15.5005  15.5188  15.6265  15.7167  15.7784
    15.7841  15.8255  15.8331  15.8893  15.8965  15.9005  15.9265  15.9558
    15.9934  16.0234  16.0888  16.1434  16.2237  16.2451  16.2522  16.2721
    16.3067  16.3109  16.3140  16.4010  16.5697  16.6229  16.7238  16.7608
    16.8301  16.9942  17.0635  17.0769  17.0799  17.2202  17.2399  17.3531
    17.3843  17.4492  17.6532  17.8045  17.8189  17.8959  17.9413  17.9544
    18.0328  18.0422  18.1399  18.1649  18.2143  18.2319  18.3180  18.3229
    18.3289  18.3768  18.3889  18.4517  18.4806  18.5188  18.5457  18.6618
    18.6680  18.7530  18.7698  18.8263  18.8336  18.8466  18.8930  19.0478
    19.0531  19.1533  19.2022  19.2856  19.2903  19.3425  19.4068  19.5849
    19.6238  19.6652  19.7442  19.8429  19.8901  19.8910  19.9340  20.0047
    20.0651  20.0682  20.0958  20.0993  20.1600  20.2082  20.2540  20.2942
    20.3280  20.5912  20.6212  20.7245  20.7752  20.9069  20.9194  20.9851
    21.0058  21.0798  21.0835  21.1090  21.1564  21.1609  21.1703  21.2181
    21.2652  21.2868  21.3589  21.3952  21.4690  21.5555  21.6506  21.6814
    21.7277  21.7412  21.7668  21.7902  21.8037  21.8322  21.8522  21.8700
    21.9641  21.9797  22.0287  22.0343  22.0562  22.1142  22.1212  22.1412
    22.1588  22.2678  22.2715  22.3268  22.3533  22.3898  22.4289  22.4830
    22.5208  22.5648  22.6146  22.6879  22.6991  22.7254  22.7576  22.7608
    22.7616  22.7679  22.8185  22.8342  22.9209  23.0357  23.0693  23.0833
    23.0868  23.1254  23.1444  23.2272  23.2531  23.2598  23.3077  23.3165
    23.3844  23.4187  23.4226  23.4283  23.4855  23.5088  23.5409  23.5730
    23.5936  23.7130  23.7687  23.7881  23.8028  23.8066  23.8097  23.9228
    23.9304  23.9360  24.0109  24.0194  24.1710  24.1982  24.2429  24.3721
    24.4203  24.4507  24.4930  24.6074  24.7133  24.7239  24.7292  24.8055
    24.8196  24.8287  24.8304  24.9253  24.9634  24.9853  25.0816  25.0864
    25.1014  25.1981  25.2252  25.2974  25.3548  25.3854  25.4102  25.4794
    25.5004  25.6500  25.6846  25.8016  25.8110  25.9417  25.9614  25.9847
    26.0173  26.1090  26.1558  26.1898  26.1956  26.2383  26.3596  26.3888
    26.4038  26.4167  26.4657  26.4659  26.4785  26.4896  26.5050  26.5663
    26.6102  26.6575  26.6615  26.6791  26.6967  26.6982  26.7119  26.7842
    26.8184  26.8201  26.8290  26.8576  26.8954  26.9585  26.9794  27.0285
    27.0472  27.0790  27.1365  27.1714  27.1991  27.2064  27.3138  27.4034
    27.4114

          k =-0.5000 0.2476 0.0000 ( 42480 PWs)   bands (ev):

   -63.0415 -53.7486 -53.5495 -49.0754 -49.0656 -49.0488 -49.0474 -49.0437
   -49.0385 -49.0351 -49.0337 -49.0337 -49.0156 -49.0145 -49.0136 -49.0087
   -48.9913 -48.9690 -48.9682 -48.9626 -48.9618 -48.9288 -48.9288 -48.8731
   -48.8731 -48.8202 -48.8183 -48.8076 -48.8076 -48.8063 -48.8058 -48.7924
   -48.7921 -48.7881 -48.7685 -48.7227 -48.7220 -48.6749 -48.6746 -48.5643
   -48.5643 -48.5258 -48.5165 -48.4332 -48.4331 -48.4063 -48.4039 -48.2545
   -22.5885 -19.1136 -19.0745 -18.9816 -18.9185 -18.7817 -18.7454 -18.5969
   -18.5755 -18.5464 -18.5451 -18.4444 -18.3484 -18.3334 -18.2920 -18.1314
   -18.1272 -18.1031 -18.0946 -17.9850 -17.9632 -17.9427 -17.9373 -17.9256
   -17.9180 -17.8803 -17.8591 -17.8304 -17.8112 -17.3857 -17.2341 -16.6313
   -16.5347 -16.3276 -16.3267 -12.5702  -7.8376  -7.8319  -7.2463  -7.1702
    -7.1478  -7.1409  -7.1392  -7.1269  -7.1221  -7.0602  -7.0579  -7.0456
    -6.9088  -6.5750  -6.5552  -6.5139  -6.5002  -6.3298  -6.3239  -6.2386
    -6.1880  -6.1832  -6.1493  -6.1097  -6.0474  -6.0062  -5.9771  -5.9620
    -5.7538  -5.7018  -5.6713  -5.6277  -5.4869  -5.3394  -5.3050  -5.2902
    -5.2297  -5.2021  -5.1965  -5.1587  -5.1233  -5.0775  -4.9155  -4.8769
    -4.8502  -4.8476  -4.6615  -4.6009  -4.3039  -4.2201  -4.1915  -4.1045
    -4.1008  -4.0548  -3.9251  -3.9104  -3.8381  -3.7990  -3.7797  -3.7792
    -3.6994  -3.6983  -3.6797  -3.6416  -3.6390  -3.6263  -3.5866  -3.5407
    -3.5074  -3.4248  -3.4099  -3.2036  -3.1755  -3.1297  -3.0696  -3.0321
    -2.9317  -2.8538  -2.7718  -2.7336  -2.7079  -2.6793  -2.5499  -2.5306
    -2.4258  -2.3803  -2.1180  -1.9085  -1.8799  -1.8633  -1.7971  -1.5908
    -1.5596  -1.4812  -1.4646  -1.3796  -1.3667  -0.9297  -0.9126  -0.7440
    -0.6015  -0.3554  -0.3426  -0.2944  -0.1783  -0.1448  -0.1183  -0.1060
    -0.0497  -0.0332   0.0122   0.0172   0.0555   0.1046   0.1914   0.1973
     0.2336   0.2351   0.2795   0.4178   0.6185   0.6393   0.6720   0.6911
     0.7495   0.7631   0.9115   0.9239   0.9584   0.9636   1.0561   1.1007
     1.1249   1.1336   1.1614   1.1747   1.2754   1.2769   1.4344   1.4594
     1.6161   1.6214   1.7800   1.9596   1.9607   2.0096   2.6626   3.0213
     3.4617   3.5186   3.5939   3.6334   3.6399   3.6743   3.6815   3.8213
     3.8234   3.8385   3.8495   4.3033   4.3380   4.3972   4.4638   4.5467
     4.5511   4.6928   4.7222   4.8679   4.8733   4.9939   4.9943   5.2842
     5.2917   5.6557   5.7124   5.9188   6.7222   6.8307   6.8877   6.8878
     6.9971   7.4414   7.5023   7.7172   7.7993   7.9444   8.0755   8.1124
     8.2384   8.4062   8.5921   8.6829   8.7896   8.8712   8.9832   9.1228
     9.2643   9.2788   9.3496   9.3541   9.4399   9.6474   9.6898   9.7038
     9.8056   9.8317  10.0014  10.0789  10.1662  10.2252  10.2346  10.2790
    10.4045  10.5794  10.6935  10.8023  10.8612  10.8612  10.8727  10.8785
    10.8878  10.9077  10.9166  10.9198  10.9452  10.9453  11.0092  11.0398
    11.0402  11.1076  11.1358  11.1360  11.1772  11.1778  11.3296  11.3624
    11.3835  11.3901  11.4469  11.4773  11.5740  11.7084  11.7116  11.7255
    11.7860  11.8230  11.8637  11.9502  11.9531  12.0148  12.2079  12.2997
    12.3584  12.3859  12.4032  12.4668  12.5654  12.7893  12.8640  12.8867
    12.9288  12.9654  13.0347  13.0424  13.0932  13.1278  13.1693  13.2095
    13.2772  13.2804  13.3270  13.3398  13.3913  13.4031  13.5241  13.5790
    13.6933  13.7545  13.7577  13.8563  13.8881  13.9935  14.1441  14.2230
    14.2430  14.3043  14.3956  14.4141  14.4195  14.4537  14.5185  14.6931
    14.7746  14.8036  14.9165  14.9310  15.0371  15.0660  15.0700  15.1378
    15.1584  15.1823  15.3147  15.3393  15.3963  15.4149  15.4311  15.4858
    15.5530  15.5798  15.5818  15.5925  15.6035  15.6522  15.6762  15.7664
    15.8429  15.8509  15.8621  15.8624  15.9441  16.0260  16.0311  16.1113
    16.2217  16.2324  16.2984  16.3156  16.3226  16.3336  16.3468  16.3515
    16.4360  16.4389  16.4742  16.5583  16.5749  16.5849  16.6180  16.6930
    16.7560  16.7646  16.8041  16.9083  16.9316  16.9430  17.0674  17.1371
    17.1559  17.2401  17.3317  17.3349  17.4015  17.4678  17.5008  17.5290
    17.5991  17.6350  17.6416  17.6576  17.7076  17.8102  17.8674  18.1619
    18.1626  18.3040  18.3137  18.3667  18.4275  18.4396  18.5201  18.5645
    18.5743  18.6042  18.6206  18.7100  18.7178  18.7481  18.7763  18.8198
    18.8411  19.0114  19.0323  19.0345  19.0821  19.1845  19.2375  19.3750
    19.3863  19.4279  19.4576  19.5456  19.6150  19.6630  19.7403  19.7870
    19.8106  19.8628  19.9143  19.9332  19.9407  19.9860  20.0255  20.0922
    20.1046  20.1375  20.1589  20.3039  20.3161  20.3611  20.3864  20.4567
    20.5550  20.5596  20.6155  20.6182  20.6855  20.7135  20.7281  20.8475
    20.8847  20.9002  21.0506  21.0773  21.0952  21.1425  21.1437  21.1648
    21.2586  21.3137  21.3302  21.3923  21.4204  21.5400  21.5628  21.5952
    21.6135  21.6374  21.6757  21.7410  21.8781  21.9139  21.9298  21.9702
    21.9749  22.0323  22.1647  22.1983  22.1997  22.3124  22.3232  22.4428
    22.4948  22.4974  22.5671  22.6426  22.7243  22.7445  22.7941  22.8499
    22.8715  22.9109  22.9263  23.0245  23.0802  23.1703  23.1908  23.2087
    23.2656  23.2836  23.3304  23.3952  23.4339  23.4531  23.5207  23.5230
    23.5373  23.5622  23.7103  23.7173  23.7375  23.8732  23.8786  23.9262
    23.9450  24.0655  24.0734  24.0805  24.1222  24.1695  24.2571  24.2935
    24.3680  24.3740  24.4029  24.4077  24.4266  24.4845  24.5794  24.7330
    24.7500  24.7689  24.9229  24.9633  25.0184  25.0344  25.0838  25.0852
    25.1348  25.1543  25.2139  25.2469  25.2756  25.3317  25.3751  25.4444
    25.4606  25.5176  25.5499  25.5608  25.5906  25.7213  25.7455  25.7893
    25.8329  25.8351  25.8620  25.8925  25.9042  25.9403  25.9714  25.9817
    26.0440  26.0472  26.0810  26.0875  26.1050  26.2021  26.2207  26.2377
    26.2430  26.3087  26.3123  26.3520  26.3962  26.4090  26.4296  26.4466
    26.4784  26.5202  26.5217  26.5555  26.5679  26.6592  26.6942  26.7117
    26.7273  26.7610  26.7621  26.8806  26.8984  26.9054  26.9427  26.9802
    27.0111  27.0323  27.0587  27.1065  27.1522  27.1700  27.2107  27.2297
    27.2759

          k =-0.5000-0.4953 0.0000 ( 42596 PWs)   bands (ev):

   -63.0415 -53.7487 -53.5495 -49.0754 -49.0656 -49.0487 -49.0467 -49.0461
   -49.0382 -49.0377 -49.0337 -49.0337 -49.0156 -49.0123 -49.0109 -49.0097
   -48.9928 -48.9691 -48.9685 -48.9609 -48.9596 -48.9290 -48.9286 -48.8731
   -48.8731 -48.8207 -48.8188 -48.8076 -48.8076 -48.8063 -48.8058 -48.7926
   -48.7921 -48.7885 -48.7690 -48.7226 -48.7219 -48.6749 -48.6746 -48.5643
   -48.5643 -48.5257 -48.5165 -48.4332 -48.4331 -48.4065 -48.4041 -48.2547
   -22.5888 -18.9473 -18.9180 -18.8080 -18.7974 -18.7684 -18.6750 -18.6195
   -18.5816 -18.5297 -18.4586 -18.4448 -18.4280 -18.2869 -18.2861 -18.2400
   -18.2333 -18.1654 -18.1057 -18.1056 -18.1015 -18.0687 -18.0353 -18.0209
   -18.0153 -17.8844 -17.8539 -17.8487 -17.8322 -17.3788 -17.2446 -16.6251
   -16.5343 -16.3266 -16.3257 -12.5445  -7.8315  -7.2448  -7.2440  -7.1631
    -7.1386  -7.0580  -6.5679  -6.5510  -6.5306  -6.5169  -6.4893  -6.4876
    -6.4797  -6.4793  -6.4475  -6.3781  -6.3769  -6.2145  -6.1497  -6.1340
    -6.1199  -6.1128  -6.0807  -6.0751  -6.0471  -6.0415  -5.9750  -5.9749
    -5.9263  -5.8990  -5.8946  -5.8946  -5.8814  -5.7542  -5.7132  -5.7112
    -5.5795  -5.5795  -5.4549  -5.3263  -4.9680  -4.9673  -4.9425  -4.9248
    -4.7203  -4.6586  -4.6332  -4.6291  -4.6143  -4.5857  -4.4342  -4.4067
    -4.4043  -4.3844  -4.2491  -4.2468  -4.2015  -4.1545  -4.1202  -4.0544
    -4.0506  -3.9997  -3.9059  -3.8569  -3.7435  -3.7383  -3.7277  -3.7030
    -3.6871  -3.5715  -3.5223  -3.2475  -3.2454  -3.1849  -3.1567  -2.8788
    -2.7579  -2.5323  -2.5072  -2.4738  -2.4285  -2.3507  -2.2939  -2.2678
    -2.2199  -2.0047  -1.9937  -1.9758  -1.9631  -1.8125  -1.8115  -1.7050
    -1.6972  -1.5009  -1.4870  -1.4088  -1.3561  -0.7433  -0.7247  -0.6884
    -0.6488  -0.4159  -0.4090  -0.3202  -0.3045  -0.2993  -0.2773  -0.2223
    -0.0326  -0.0172   0.0075   0.1503   0.2108   0.3318   0.3375   0.3578
     0.4014   0.4369   0.4548   0.4552   0.6679   0.7492   0.8005   0.8058
     0.8146   0.8362   0.9540   0.9559   0.9561   0.9591   1.0496   1.1322
     1.1600   1.1730   1.2083   1.3075   1.3194   1.3432   1.3531   1.3726
     1.3963   1.4597   1.4630   1.8001   2.0347   2.0354   2.7505   2.8875
     3.2150   3.2252   3.2278   3.2448   3.4288   3.4314   3.5651   3.6323
     3.6349   3.6384   3.8790   4.4120   4.4284   4.4289   4.4975   4.7161
     4.7610   4.7880   4.8170   5.2184   5.2812   5.3380   5.3790   5.5171
     5.5780   5.6415   5.6660   5.8622   6.9333   6.9641   7.0150   7.0150
     7.2403   7.8536   7.8680   8.0815   8.1589   8.2341   8.2405   8.2763
     8.3164   8.4706   8.4978   8.5120   8.6016   8.6990   8.7238   8.7438
     8.8778   8.9841   9.0081   9.0457   9.1650   9.1652   9.2157   9.2686
     9.4748   9.6967   9.7203   9.7726   9.8456   9.9091   9.9094   9.9372
    10.2228  10.5328  10.5737  10.5800  10.6766  10.6924  10.7450  10.7758
    10.8613  10.8613  10.8727  10.8788  10.8880  10.9087  10.9449  10.9452
    11.0399  11.0399  11.0686  11.1357  11.1358  11.1767  11.1771  11.3806
    11.3957  11.4165  11.4172  11.5378  11.6005  11.6162  11.6523  11.9980
    12.1243  12.1337  12.1347  12.1669  12.1920  12.2184  12.2910  12.3201
    12.3723  12.4054  12.4384  12.6440  12.7629  12.7812  12.8899  13.0144
    13.0452  13.0664  13.1445  13.2336  13.2590  13.4437  13.4617  13.5527
    13.6376  13.7653  13.8744  13.9104  13.9699  14.0672  14.1167  14.1249
    14.3499  14.3748  14.4142  14.4305  14.5516  14.5874  14.5906  14.6561
    14.6752  14.7156  14.7465  14.7613  14.8229  14.8328  14.8781  15.0322
    15.2362  15.2402  15.3327  15.3353  15.3409  15.3439  15.4318  15.4481
    15.4532  15.4693  15.4980  15.5167  15.5238  15.5248  15.5347  15.5915
    15.6071  15.6285  15.6356  15.6398  15.7789  15.7964  15.7975  15.8070
    15.8466  15.8724  15.8830  15.9012  15.9367  15.9375  15.9382  15.9734
    16.0000  16.0574  16.0749  16.1076  16.2073  16.2540  16.2756  16.3446
    16.3551  16.3883  16.3893  16.3910  16.4796  16.5038  16.5177  16.5651
    16.6000  16.6086  16.6124  16.7003  16.7800  16.7899  16.8955  16.9107
    16.9436  17.0333  17.0920  17.1645  17.2984  17.3072  17.3328  17.3438
    17.4324  17.4351  17.4564  17.4569  17.5206  17.5571  17.5937  17.7514
    17.8000  17.8636  17.9143  17.9286  17.9314  17.9786  18.0206  18.0679
    18.1385  18.1915  18.2090  18.2458  18.2732  18.2876  18.3199  18.3880
    18.5243  18.5270  18.5673  18.6427  18.6541  18.6980  18.7187  18.7995
    18.8258  18.8675  18.9182  19.0611  19.0991  19.1019  19.1461  19.1893
    19.2717  19.4038  19.4176  19.6602  19.6687  19.7340  19.7892  19.7955
    19.9494  19.9958  20.0269  20.1167  20.1181  20.1376  20.2117  20.2151
    20.3379  20.4133  20.4833  20.4962  20.5048  20.5309  20.5314  20.6875
    20.7176  20.7239  20.8572  21.2483  21.2571  21.2941  21.3585  21.4525
    21.6573  21.6980  21.7174  21.7390  21.7575  21.8219  21.8404  21.8448
    21.8449  21.8587  21.9130  21.9833  22.0279  22.0529  22.0819  22.1947
    22.2809  22.4486  22.4588  22.4804  22.6572  22.6845  22.7092  22.7106
    22.7544  22.7740  22.8010  22.8664  22.9015  22.9304  22.9310  22.9439
    22.9523  22.9637  23.0267  23.0734  23.1469  23.1857  23.2217  23.2622
    23.2843  23.2990  23.3400  23.3615  23.4532  23.4663  23.4830  23.5076
    23.5106  23.5136  23.5325  23.6055  23.6258  23.6916  23.7033  23.7540
    23.7698  23.8171  23.9284  24.0207  24.0320  24.0810  24.1683  24.1783
    24.1889  24.2140  24.2360  24.2508  24.3231  24.3575  24.3756  24.3810
    24.4066  24.4120  24.4371  24.5040  24.5202  24.5676  24.6297  24.6628
    24.7169  24.7568  24.7600  24.7689  24.8613  24.8843  24.8857  25.0620
    25.0915  25.0934  25.1665  25.2556  25.3032  25.3205  25.4313  25.4916
    25.5491  25.5980  25.6157  25.6324  25.6474  25.6787  25.6791  25.7853
    25.7960  25.8422  25.8858  25.8891  25.8992  26.0090  26.0224  26.0691
    26.1323  26.1578  26.1668  26.2710  26.3112  26.3881  26.4293  26.4295
    26.4962  26.5296  26.7268  26.7467  26.7733  26.8147  26.8448  26.8495
    26.9217  26.9293  26.9565  26.9645  26.9920  27.0580  27.0781  27.1437
    27.1658  27.2085  27.2122  27.2291  27.3429  27.3756  27.4600  27.4903
    27.5618

     the Fermi energy is     1.3365 ev

!    total energy              =   -4038.94936126 Ry
     Harris-Foulkes estimate   =   -4038.94936171 Ry
     estimated scf accuracy    <       0.00000052 Ry

     The total energy is the sum of the following terms:

     one-electron contribution =  -79041.66216613 Ry
     hartree contribution      =   39622.09034059 Ry
     xc contribution           =   -1113.18376600 Ry
     ewald contribution        =   36493.80578049 Ry
[...]
     4.6575   4.9636   5.0159   5.4123   6.2634   6.2638   6.8696   7.2239
     7.4197   7.5643   7.5783   7.9105   7.9331   7.9427   8.1957   8.2484
     8.3000   8.4866   8.5357   8.6974   8.8404   9.0151   9.0794   9.1141
     9.1241   9.2969   9.3160   9.4649   9.5405   9.5619   9.6497   9.7183
     9.7286   9.7348   9.8580   9.8964  10.0895  10.0971  10.1695  10.1696
    10.1760  10.1963  10.2099  10.2215  10.2240  10.2250  10.2282  10.2346
    10.2373  10.3274  10.3275  10.3498  10.3499  10.4417  10.4974  10.5000
    10.5012  10.5825  10.6180  10.6693  10.7551  10.8385  10.8656  11.0026
    11.0227  11.0428  11.0750  11.0808  11.1162  11.2779  11.2822  11.3153
    11.3862  11.5636  11.6645  11.7320  11.7568  11.8143  11.8174  11.9284
    12.2296  12.2397  12.2750  12.3069  12.3975  12.4956  12.5488  12.5618
    12.7180  12.7971  12.8004  12.8594  12.8670  12.9245  13.0088  13.0462
    13.1285  13.2189  13.2564  13.2887  13.3316  13.4156  13.4959  13.5939
    13.6423  13.6703  13.8342  13.8679  13.9535  13.9707  13.9780  14.0354
    14.0901  14.1490  14.2451  14.3278  14.4754  14.4997  14.5283  14.5377
    14.6272  14.6960  14.7522  14.8205  14.8824  14.9117  14.9614  14.9879
    15.0642  15.1191  15.1474  15.1699  15.1789  15.2505  15.2622  15.2967
    15.3471  15.3556  15.3880  15.4322  15.4821  15.5448  15.5839  15.5844
    15.6053  15.6282  15.6330  15.6767  15.6917  15.7163  15.7250  15.7317
    15.7420  15.8066  15.8589  15.9015  15.9268  15.9470  16.1600  16.1805
    16.2898  16.2988  16.3600  16.3887  16.5039  16.5411  16.5601  16.6906
    16.8055  16.8769  16.9041  16.9882  17.0894  17.1125  17.1457  17.1843
    17.2307  17.3240  17.3391  17.3610  17.4377  17.4442  17.5170  17.5644
    17.6210  17.6760  17.7068  17.7539  17.7857  17.8260  17.8459  17.8817
    18.1650  18.3977  18.4194  18.4755  18.5134  18.5637  18.5840  18.6021
    18.6378  18.6468  18.6798  18.6969  18.7684  18.7919  18.8170  18.8529
    18.9603  18.9666  19.0361  19.0421  19.0596  19.1291  19.1537  19.2114
    19.2475  19.2888  19.4669  19.4827  19.5193  19.5510  19.6163  19.6601
    19.7262  19.7953  19.8254  19.8829  19.9372  19.9484  19.9791  20.0006
    20.1336  20.1421  20.2044  20.2995  20.3180  20.3759  20.4978  20.5049
    20.5359  20.5563  20.5940  20.7770  20.7792  20.7983  20.8415  20.8451
    20.8630  20.9217  20.9556  21.0138  21.0752  21.1363  21.1831  21.1930
    21.2233  21.2541  21.2641  21.3343  21.3883  21.4384  21.4792  21.5647
    21.5815  21.6589  21.6934  21.7018  21.7135  21.7925  21.8540  21.9376
    21.9676  22.0265  22.0725  22.1204  22.1416  22.2686  22.3045  22.3171
    22.3419  22.4802  22.5366  22.5450  22.5662  22.7310  22.7375  22.7453
    22.7615  22.7734  22.7915  22.7923  22.8710  22.8904  22.9050  22.9418
    22.9790  23.0202  23.0981  23.1420  23.2034  23.2854  23.3228  23.3555
    23.3841  23.4954  23.5309  23.5920  23.6443  23.7374  23.7527  23.8394
    23.8537  23.9040  23.9055  23.9733  23.9964  24.0576  24.0679  24.0734
    24.1219  24.2217  24.2994  24.4157  24.4235  24.4792  24.4883  24.5230
    24.5645  24.6358  24.6544  24.6634  24.8555  24.9191  24.9364  24.9466
    25.0330  25.0920  25.1527  25.1764  25.1952  25.2622  25.2900  25.3541
    25.4429  25.5146  25.5594  25.5711  25.5893  25.6027  25.6705  25.6898
    25.7179  25.7633  25.8286  25.8598  25.8819  25.8949  25.9127  25.9305
    25.9376  25.9507  25.9977  26.0331  26.0359  26.1276  26.1487  26.1658
    26.1962  26.2216  26.2424  26.2860  26.2971  26.3218  26.3383  26.3686
    26.3938  26.4326  26.4415  26.4685  26.4714  26.5869  26.6057  26.6116
    26.6324  26.6469  26.7115  26.7598  26.7638  26.7648  26.8228  26.8604
    26.8631  26.9137  26.9320  27.0020  27.0214  27.0423  27.0907  27.1529
    27.1806

          k =-0.5000-0.4953 0.0000 ( 42596 PWs)   bands (ev):

   -50.6112 -50.2877 -50.2431 -49.7514 -49.7449 -49.7445 -49.7357 -49.7354
   -49.7258 -49.7258 -49.7222 -49.7154 -49.7143 -49.7135 -49.7130 -49.7012
   -49.7006 -49.6870 -49.6860 -49.6746 -49.6744 -49.6739 -49.6597 -49.5644
   -49.5643 -49.5354 -49.5352 -49.5025 -49.4981 -49.4981 -49.4922 -49.4915
   -49.4691 -49.4530 -49.4470 -49.4016 -49.4010 -49.3982 -49.3834 -49.3556
   -49.3498 -49.2674 -49.2672 -49.2510 -49.2510 -49.0837 -49.0788 -49.0693
   -19.6000 -19.5484 -19.4829 -19.4818 -19.2497 -19.2243 -19.1707 -19.1702
   -18.9731 -18.9711 -18.9556 -18.9260 -18.9064 -18.8962 -18.8496 -18.8428
   -18.8232 -18.8205 -18.7870 -18.7794 -18.7498 -18.7035 -18.6914 -18.6682
   -18.5383 -18.5151 -18.4539 -18.4536 -17.2108 -17.1432 -17.0187 -17.0049
   -16.7933  -7.9473  -7.9169  -7.8290  -7.8194  -7.2949  -7.2889  -7.2098
    -7.1950  -7.1739  -7.1726  -7.1688  -7.1598  -7.1517  -7.0571  -7.0567
    -6.9749  -6.8198  -6.8104  -6.7862  -6.7777  -6.7617  -6.7598  -6.7269
    -6.7257  -6.7167  -6.6524  -6.6523  -6.6296  -6.6006  -6.5774  -6.5736
    -6.5632  -6.4720  -6.4331  -6.3896  -6.3862  -6.3185  -6.3093  -6.2541
    -6.2515  -5.6902  -5.6386  -5.6348  -5.5710  -5.3529  -5.3222  -5.2973
    -5.2928  -5.2593  -5.1174  -5.0831  -5.0630  -5.0527  -4.9689  -4.9655
    -4.9395  -4.8966  -4.8850  -4.8770  -4.8498  -4.6569  -4.6535  -4.6246
    -4.5968  -4.5224  -4.4967  -4.4111  -4.4058  -4.3896  -4.3284  -4.3246
    -4.3177  -4.0000  -3.9254  -3.8791  -3.8596  -3.3350  -3.2531  -3.2464
    -3.1462  -3.0105  -2.9832  -2.9684  -2.9103  -2.8616  -2.7586  -2.6639
    -2.6615  -2.6449  -2.6220  -2.4945  -2.4765  -2.4434  -2.3903  -2.3022
    -2.1652  -2.1006  -1.7503  -1.5841  -1.4074  -1.3953  -1.3335  -1.2612
    -1.0809  -1.0726  -0.9911  -0.9815  -0.9727  -0.9398  -0.8207  -0.7915
    -0.6997  -0.6919  -0.6763  -0.6145  -0.4103  -0.3372  -0.3272  -0.2972
    -0.2838  -0.2235  -0.2227  -0.0137   0.0752   0.0956   0.1177   0.1324
     0.2061   0.2179   0.2713   0.2760   0.2957   0.3750   0.4436   0.4759
     0.4862   0.5002   0.5084   0.6192   0.6227   0.6468   0.6715   0.6775
     0.6918   0.7317   0.8572   0.9312   1.3539   1.3622   1.7798   2.3072
     2.5328   2.5347   2.5459   2.5570   2.7483   2.7522   2.7702   2.9496
     2.9569   2.9577   3.0309   3.6715   3.7534   3.7580   3.7936   4.0604
     4.0920   4.1074   4.1448   4.5942   4.6024   4.6263   4.6736   4.9175
     4.9538   4.9622   4.9733   5.1821   6.3830   6.3833   7.1195   7.8236
     7.8306   8.0559   8.0642   8.0939   8.1985   8.2182   8.2210   8.4055
     8.4651   8.4979   8.5909   8.5937   8.6624   8.6645   8.6645   8.7355
     9.0012   9.0061   9.0162   9.0555   9.0610   9.1041   9.1589   9.3019
     9.5619   9.6127   9.6537   9.6599   9.7475   9.7676   9.8067   9.8765
    10.0126  10.1699  10.1699  10.1964  10.2226  10.2240  10.2241  10.2279
    10.2342  10.3126  10.3147  10.3276  10.3279  10.3497  10.3498  10.4155
    10.4974  10.4986  10.5020  10.5459  10.6256  10.6681  10.7198  10.8693
    11.0124  11.0307  11.1846  11.4165  11.4229  11.4272  11.4739  11.5815
    11.5876  11.5957  11.5997  11.6389  11.7437  11.7440  11.7947  11.9240
    12.1036  12.1054  12.1142  12.1605  12.2777  12.2907  12.5744  12.6580
    12.8112  12.8128  12.8604  13.2266  13.2315  13.2660  13.4381  13.4410
    13.5401  13.5500  13.5606  13.6210  13.7182  13.7939  13.8954  13.9151
    13.9408  13.9819  14.0713  14.1882  14.2526  14.3940  14.4003  14.4678
    14.4765  14.5541  14.5854  14.5943  14.6175  14.7707  14.8348  14.8534
    14.8813  14.9283  15.0181  15.0523  15.1098  15.2095  15.2419  15.2485
    15.4154  15.4910  15.5216  15.5404  15.5431  15.6396  15.6405  15.6407
    15.6507  15.6661  15.6864  15.7228  15.7939  15.8008  15.8238  15.9047
    15.9109  15.9296  15.9634  16.0142  16.0156  16.0334  16.0599  16.0809
    16.0872  16.1051  16.1530  16.1697  16.1923  16.2081  16.2392  16.3221
    16.3497  16.3629  16.3981  16.5544  16.5547  16.5715  16.5913  16.6256
    16.7141  16.7210  16.7305  16.7457  16.7598  16.7683  16.8667  16.8864
    16.9151  16.9776  16.9800  17.0650  17.1639  17.1943  17.2151  17.2176
    17.4674  17.5131  17.5134  17.5153  17.5668  17.5805  17.5923  17.5962
    17.6888  17.7241  17.7250  17.7273  17.8293  17.8489  17.8636  17.9103
    17.9174  17.9319  17.9381  18.0704  18.0721  18.0729  18.1290  18.2410
    18.4304  18.4657  18.4800  18.5183  18.6920  18.7112  18.7902  18.8150
    18.9375  18.9501  18.9562  18.9577  19.0187  19.0206  19.0286  19.1266
    19.2570  19.3476  19.3572  19.3828  19.7498  19.7960  19.9035  19.9052
    19.9276  19.9755  19.9776  20.0421  20.0657  20.1111  20.1939  20.2649
    20.2953  20.3027  20.3077  20.3617  20.5510  20.5717  20.6485  20.6523
    20.6905  20.7785  20.7996  21.2368  21.3044  21.3310  21.3471  21.3480
    21.3535  21.3751  21.4488  21.5023  21.6192  21.6616  21.6825  21.7851
    21.8111  21.8274  21.8303  21.8345  21.8573  21.9097  21.9314  22.1651
    22.2200  22.2438  22.2816  22.4094  22.6116  22.6191  22.6574  22.6798
    22.6990  22.7013  22.7047  22.7390  22.7474  22.8357  22.9406  22.9477
    22.9578  22.9764  23.0417  23.0667  23.1004  23.1294  23.1474  23.1611
    23.2130  23.2366  23.2736  23.3238  23.3275  23.3647  23.3707  23.4421
    23.4496  23.4899  23.4963  23.6474  23.6537  23.6564  23.6760  23.7743
    23.8055  23.8134  23.8263  23.8934  23.9300  23.9424  23.9652  23.9708
    24.0359  24.0704  24.0881  24.0889  24.1089  24.1209  24.1853  24.2496
    24.3374  24.3445  24.3530  24.3991  24.4335  24.4472  24.4714  24.4829
    24.6755  24.6855  24.6901  24.7671  24.7786  24.8512  24.9031  24.9205
    24.9722  25.0349  25.0972  25.1590  25.2092  25.2333  25.3121  25.4034
    25.4158  25.4996  25.5272  25.5303  25.5674  25.5802  25.6261  25.6651
    25.6851  25.6929  25.7470  25.7488  25.7667  25.7853  25.8450  25.8514
    26.0136  26.0263  26.0279  26.0731  26.1638  26.2332  26.2829  26.3256
    26.3729  26.4070  26.4321  26.5086  26.5986  26.6037  26.6044  26.6464
    26.7059  26.7119  26.7583  26.8111  26.9412  26.9476  26.9881  27.0155
    27.0216  27.0469  27.0921  27.2232  27.2532  27.2632  27.2697  27.4097
    27.5267

     the Fermi energy is     0.6599 ev

!    total energy              =   -4041.78095871 Ry
     Harris-Foulkes estimate   =   -4041.78095871 Ry
     estimated scf accuracy    <          6.4E-09 Ry

     The total energy is the sum of the following terms:

     one-electron contribution =  -78634.35726674 Ry
     hartree contribution      =   39411.79948939 Ry
     xc contribution           =   -1111.33279539 Ry
     ewald contribution        =   36292.10938907 Ry
     smearing contrib. (-TS)   =       0.00022495 Ry

     convergence has been achieved in  12 iterations

     Forces acting on atoms (Ry/au):


     negative rho (up, down):  0.624E+01 0.000E+00
     atom    1 type  1   force =     0.00000000    0.00000000    0.02583437
     atom    2 type  2   force =    -0.00064085    0.00000000   -0.03758042
     atom    3 type  2   force =     0.00000000    0.00000000    0.06761910
     atom    4 type  1   force =     0.00015554   -0.01229828   -0.02624342
     atom    5 type  1   force =     0.00015554    0.01229828   -0.02624342
     atom    6 type  1   force =     0.00000000    0.00000000    0.01726174
     atom    7 type  1   force =     0.00000000    0.00000000   -0.01530488
     atom    8 type  2   force =     0.00084735    0.00000000   -0.01129175
     atom    9 type  2   force =     0.00000000    0.00000000   -0.02094631
     atom   10 type  1   force =    -0.00049713    0.01165068   -0.00228325
     atom   11 type  1   force =    -0.00049713   -0.01165068   -0.00228325
     atom   12 type  1   force =     0.00000000    0.00000000    0.02628336
     atom   13 type  1   force =     0.00000000    0.00000000    0.01101535
     atom   14 type  2   force =     0.01849057    0.00000000   -0.00957334
     atom   15 type  2   force =     0.00000000    0.00000000    0.00051875
     atom   16 type  1   force =    -0.00029316    0.00028145   -0.00058307
     atom   17 type  1   force =    -0.00029316   -0.00028145   -0.00058307
     atom   18 type  1   force =     0.00000000    0.00000000    0.00343418
     atom   19 type  1   force =     0.00000000    0.00000000    0.00340303
     atom   20 type  2   force =     0.00792966    0.00000000    0.00693020
     atom   21 type  2   force =     0.00000000    0.00000000    0.01539827
     atom   22 type  1   force =    -0.01650123    0.00935531   -0.03661121
     atom   23 type  1   force =    -0.01650123   -0.00935531   -0.03661121
     atom   24 type  1   force =     0.00000000    0.00000000   -0.00348629
     atom   25 type  1   force =     0.00000000    0.00000000    0.02634493
     atom   26 type  2   force =     0.00064085    0.00000000   -0.03758042
     atom   27 type  2   force =     0.00000000    0.00000000    0.06787367
     atom   28 type  1   force =    -0.00015554   -0.01229828   -0.02624342
     atom   29 type  1   force =    -0.00015554    0.01229828   -0.02624342
     atom   30 type  1   force =     0.00000000    0.00000000    0.02070530
     atom   31 type  1   force =     0.00000000    0.00000000   -0.01740201
     atom   32 type  2   force =    -0.00084735    0.00000000   -0.01129175
     atom   33 type  2   force =     0.00000000    0.00000000   -0.01680437
     atom   34 type  1   force =     0.00049713    0.01165068   -0.00228325
     atom   35 type  1   force =     0.00049713   -0.01165068   -0.00228325
     atom   36 type  1   force =     0.00000000    0.00000000    0.02582987
     atom   37 type  1   force =     0.00000000    0.00000000   -0.00252558
     atom   38 type  2   force =    -0.01849057    0.00000000   -0.00957334
     atom   39 type  2   force =     0.00000000    0.00000000   -0.00052611
     atom   40 type  1   force =     0.00029316    0.00028145   -0.00058307
     atom   41 type  1   force =     0.00029316   -0.00028145   -0.00058307
     atom   42 type  1   force =     0.00000000    0.00000000   -0.01297978
     atom   43 type  1   force =     0.00000000    0.00000000   -0.00163907
     atom   44 type  2   force =    -0.00792966    0.00000000    0.00693020
     atom   45 type  2   force =     0.00000000    0.00000000    0.15440979
     atom   46 type  1   force =     0.01650123    0.00935531   -0.03661121
     atom   47 type  1   force =     0.01650123   -0.00935531   -0.03661121
     atom   48 type  1   force =     0.00000000    0.00000000   -0.00846955
     atom   49 type  1   force =     0.00000000    0.00000000    0.00006663

     Total force =     0.000067     Total SCF correction =     0.000043
     SCF correction compared to forces is large: reduce conv_thr to get better values

     bfgs converged in   9 scf cycles and   8 bfgs steps
     (criteria: energy < 0.10E-03, force < 0.10E-02)

     End of BFGS Geometry Optimization

     Final energy   =   -4041.7809587098 Ry
Begin final coordinates

ATOMIC_POSITIONS (crystal)
O0       0.000000000   0.500000000   0.332680000    0   0   0
Ir1      0.250000000   0.500000000   0.366500000    0   0   0
Ir1      0.000000000   0.000000000   0.366500000    0   0   0
O0       0.250000000   0.810000000   0.366500000    0   0   0
O0       0.250000000   0.190000000   0.366500000    0   0   0
O0       0.000000000   0.500000000   0.400320000    0   0   0
O0       0.000000000   0.000000000   0.421680000    0   0   0
Ir1      0.250000000   0.000000000   0.455500000    0   0   0
Ir1      0.000000000   0.500000000   0.455500000    0   0   0
O0       0.250000000   0.690000000   0.455500000    0   0   0
O0       0.250000000   0.310000000   0.455500000    0   0   0
O0       0.000000000   0.000000000   0.489320000    0   0   0
O0       0.000000000   0.500000000   0.510110000    0   0   0
Ir1      0.250000000   0.500000000   0.544210000    0   0   0
Ir1      0.000000000   0.000000000   0.544860000    0   0   0
O0       0.250000000   0.808490000   0.544740000    0   0   0
O0       0.250000000   0.191510000   0.544740000    0   0   0
O0       0.000000000   0.500000000   0.577990000    0   0   0
O0       0.000000000   0.000000000   0.599820000    0   0   0
Ir1      0.250000000   0.000000000   0.634690000    0   0   0
Ir1      0.000000000   0.500000000   0.631920000    0   0   0
O0       0.250000000   0.690320000   0.635560000    0   0   0
O0       0.250000000   0.309680000   0.635560000    0   0   0
O0       0.000000000   0.000000000   0.667420000    0   0   0
O0       0.500000000   0.500000000   0.332680000    0   0   0
Ir1      0.750000000   0.500000000   0.366500000    0   0   0
Ir1      0.500000000   0.000000000   0.366500000    0   0   0
O0       0.750000000   0.810000000   0.366500000    0   0   0
O0       0.750000000   0.190000000   0.366500000    0   0   0
O0       0.500000000   0.500000000   0.400320000    0   0   0
O0       0.500000000   0.000000000   0.421680000    0   0   0
Ir1      0.750000000   0.000000000   0.455500000    0   0   0
Ir1      0.500000000   0.500000000   0.455500000    0   0   0
O0       0.750000000   0.690000000   0.455500000    0   0   0
O0       0.750000000   0.310000000   0.455500000    0   0   0
O0       0.500000000   0.000000000   0.489320000    0   0   0
O0       0.500000000   0.500000000   0.510110000    0   0   0
Ir1      0.750000000   0.500000000   0.544210000    0   0   0
Ir1      0.500000000   0.000000000   0.544860000    0   0   0
O0       0.750000000   0.808490000   0.544740000    0   0   0
O0       0.750000000   0.191510000   0.544740000    0   0   0
O0       0.500000000   0.500000000   0.577990000    0   0   0
O0       0.500000000   0.000000000   0.599820000    0   0   0
Ir1      0.750000000   0.000000000   0.634690000    0   0   0
Ir1      0.500000000   0.500000000   0.631920000    0   0   0
O0       0.750000000   0.690320000   0.635560000    0   0   0
O0       0.750000000   0.309680000   0.635560000    0   0   0
O0       0.500000000   0.000000000   0.667420000    0   0   0
O0       0.500000000   0.500000000   0.681459588
End final coordinates



     init_run     :     80.39s CPU     89.01s WALL (       1 calls)
     electrons    :  65767.55s CPU  68406.85s WALL (       9 calls)
     update_pot   :     42.40s CPU     47.25s WALL (       8 calls)
     forces       :    440.73s CPU    445.82s WALL (       9 calls)

     Called by init_run:
     wfcinit      :     64.96s CPU     67.27s WALL (       1 calls)
     potinit      :      2.83s CPU      3.06s WALL (       1 calls)

     Called by electrons:
     c_bands      :  59720.65s CPU  61094.83s WALL (     194 calls)
     sum_band     :   3751.89s CPU   3962.51s WALL (     194 calls)
     v_of_rho     :    296.03s CPU    329.33s WALL (     202 calls)
     newd         :   1872.34s CPU   2865.25s WALL (     202 calls)
     mix_rho      :     84.49s CPU     88.69s WALL (     194 calls)

     Called by c_bands:
     init_us_2    :     21.41s CPU     22.61s WALL (    3582 calls)
     cegterg      :  59589.55s CPU  60958.65s WALL (    1746 calls)

     Called by *egterg:
     h_psi        :  10677.80s CPU  11348.05s WALL (    5529 calls)
     s_psi        :   2464.73s CPU   2496.60s WALL (    5529 calls)
     g_psi        :     18.64s CPU     18.70s WALL (    3774 calls)
     cdiaghg      :  34290.58s CPU  34646.31s WALL (    5439 calls)

     Called by h_psi:
     add_vuspsi   :   2467.02s CPU   2502.16s WALL (    5529 calls)

     General routines
     calbec       :   3836.91s CPU   3872.48s WALL (    7356 calls)
     fft          :    552.80s CPU    611.20s WALL (    3307 calls)
     ffts         :     31.75s CPU     32.27s WALL (     396 calls)
     fftw         :   5104.27s CPU   5889.75s WALL ( 6008300 calls)
     interpolate  :     91.74s CPU    100.53s WALL (     396 calls)

     Parallel routines
     fft_scatter  :   2626.84s CPU   3164.87s WALL ( 6012003 calls)

     PWSCF        :    18h26m CPU       19h11m WALL


   This run was terminated on:   1: 5:48  29Mar2014            

=------------------------------------------------------------------------------=
   JOB DONE.
=------------------------------------------------------------------------------=
