ScientificPython/2.8-dl160g6-numpy-1.7.1-1(15):ERROR:151: Module 'ScientificPython/2.8-dl160g6-numpy-1.7.1-1' depends on one of the module(s) 'numpy/1.7.1-dl160g6-gfortran-internal-1'
ScientificPython/2.8-dl160g6-numpy-1.7.1-1(15):ERROR:102: Tcl command execution failed: prereq numpy/1.7.1-dl160g6-gfortran-internal-1


     Program PWSCF v.5.0.2 (svn rev. 9656) starts on 17May2014 at  7:58:42 

     This program is part of the open-source Quantum ESPRESSO suite
     for quantum simulation of materials; please cite
         "P. Giannozzi et al., J. Phys.:Condens. Matter 21 395502 (2009);
          URL http://www.quantum-espresso.org", 
     in publications or presentations arising from this work. More details at
     http://www.quantum-espresso.org/quote.php

     Parallel version (MPI), running on    16 processors
     K-points division:     npool     =       4
     R & G space division:  proc/nbgrp/npool/nimage =       4

     Current dimensions of program PWSCF are:
     Max number of different atomic species (ntypx) = 10
     Max number of k-points (npk) =  40000
     Max angular momentum in pseudopotentials (lmaxx) =  3
     Reading input from pwscf.in
Warning: card &CELL ignored
Warning: card / ignored

     Subspace diagonalization in iterative solution of the eigenvalue problem:
     a serial algorithm will be used


     Parallelization info
     --------------------
     sticks:   dense  smooth     PW     G-vecs:    dense   smooth      PW
     Min        1333     428    119               322637    58444    8739
     Max        1334     429    120               322642    58462    8748
     Sum        5335    1713    477              1290557   233813   34969



     bravais-lattice index     =            0
     lattice parameter (alat)  =      10.1289  a.u.
     unit-cell volume          =    6836.7721 (a.u.)^3
     number of atoms/cell      =           30
     number of atomic types    =            3
     number of electrons       =       232.00
     number of Kohn-Sham states=          348
     kinetic-energy cutoff     =      40.0000  Ry
     charge density cutoff     =     500.0000  Ry
     convergence threshold     =      1.0E-06
     mixing beta               =       0.3000
     number of iterations used =            8  plain     mixing
     Exchange-correlation      = SLA  PW   PBE  PBE ( 1 4 3 4 0)
     EXX-fraction              =        0.00
     nstep                     =           50


     celldm(1)=  10.128932  celldm(2)=   0.000000  celldm(3)=   0.000000
     celldm(4)=   0.000000  celldm(5)=   0.000000  celldm(6)=   0.000000

     crystal axes: (cart. coord. in units of alat)
               a(1) = (   1.000000   0.000000   0.000000 )  
               a(2) = (   0.000000   1.306037   0.000000 )  
               a(3) = (   0.000000   0.000000   5.037380 )  

     reciprocal axes: (cart. coord. in units 2 pi/alat)
               b(1) = (  1.000000  0.000000  0.000000 )  
               b(2) = (  0.000000  0.765675  0.000000 )  
               b(3) = (  0.000000  0.000000  0.198516 )  


     PseudoPot. # 1 for O  read from file:
     /home/camp/zhonxu/pseudo/o_pbe_v1.01.uspp.F.UPF
     MD5 check sum: 2bcb18d16ea4b960afae9ec6d52f22d2
     Pseudo is Ultrasoft + core correction, Zval =  6.0
     Generated by new atomic code, or converted to UPF format
     Using radial grid of  737 points,  5 beta functions with: 
                l(1) =   0
                l(2) =   0
                l(3) =   1
                l(4) =   1
                l(5) =   2
     Q(r) pseudized with  8 coefficients,  rinner =    0.900   0.900   0.900
                                                       0.900   0.900

     PseudoPot. # 2 for Re read from file:
     /home/camp/zhonxu/pseudo/re_pbe_v1.uspp.F.UPF
     MD5 check sum: 6f5a5dcaf9c96c20d0ffdde0de57afc6
     Pseudo is Ultrasoft + core correction, Zval = 15.0
     Generated by new atomic code, or converted to UPF format
     Using radial grid of  981 points,  8 beta functions with: 
                l(1) =   0
                l(2) =   0
                l(3) =   1
                l(4) =   1
                l(5) =   2
                l(6) =   2
                l(7) =   3
                l(8) =   3
     Q(r) pseudized with  8 coefficients,  rinner =    1.000   1.000   1.000
                                                       1.000   1.000   1.000
                                                       1.000

     PseudoPot. # 3 for H  read from file:
     /home/camp/zhonxu/pseudo/h_pbe_v1.uspp.F.UPF
     MD5 check sum: 3408e3ff4ec8b0a4e358431e7e038a48
     Pseudo is Ultrasoft, Zval =  1.0
     Generated by new atomic code, or converted to UPF format
     Using radial grid of  615 points,  2 beta functions with: 
                l(1) =   0
                l(2) =   0
     Q(r) pseudized with  8 coefficients,  rinner =    0.700

     atomic species   valence    mass     pseudopotential
        O0             6.00    15.99940     O ( 1.00)
        Re1           15.00   186.20700     Re( 1.00)
        H2             1.00     1.00794     H ( 1.00)


     Simplified LDA+U calculation (l_max = 2) with parameters (eV):
     atomic species    L          U    alpha       J0     beta
        Re1            2     8.0000   0.0000   0.0000   0.0000



     No symmetry found



   Cartesian axes

     site n.     atom                  positions (alat units)
         1           O0  tau(   1) = (   0.0000000   0.0000000   1.8688176  )
         2           O0  tau(   2) = (   0.0000000   0.6530184   1.9243296  )
         3           Re1 tau(   3) = (   0.2500000   0.6530184   2.2228951  )
         4           Re1 tau(   4) = (   0.0000000   0.0000000   2.2352367  )
         5           O0  tau(   5) = (   0.2500000   1.0187087   2.2249100  )
         6           O0  tau(   6) = (   0.2500000   0.2873281   2.2250611  )
         7           O0  tau(   7) = (   0.0000000   0.6530184   2.5071041  )
         8           O0  tau(   8) = (   0.0000000   0.0000000   2.5966183  )
         9           Re1 tau(   9) = (   0.2500000   0.0000000   2.8989619  )
        10           Re1 tau(  10) = (   0.0000000   0.6530184   2.8608793  )
        11           O0  tau(  11) = (   0.2500000   0.9403465   2.8908013  )
        12           O0  tau(  12) = (   0.2500000   0.3656903   2.8907005  )
        13           O0  tau(  13) = (   0.0000000   0.0000000   3.1620138  )
        14           O0  tau(  14) = (   0.5000000   0.0000000   1.8688176  )
        15           O0  tau(  15) = (   0.5000000   0.6530184   1.9243296  )
        16           Re1 tau(  16) = (   0.7500000   0.6530184   2.2228951  )
        17           Re1 tau(  17) = (   0.5000000   0.0000000   2.2352367  )
        18           O0  tau(  18) = (   0.7500000   1.0187087   2.2249604  )
        19           O0  tau(  19) = (   0.7500000   0.2873281   2.2250611  )
        20           O0  tau(  20) = (   0.5000000   0.6530184   2.5071041  )
        21           O0  tau(  21) = (   0.5000000   0.0000000   2.5966183  )
        22           Re1 tau(  22) = (   0.7500000   0.0000000   2.8989619  )
        23           Re1 tau(  23) = (   0.5000000   0.6530184   2.8609296  )
        24           O0  tau(  24) = (   0.7500000   0.9403465   2.8908013  )
        25           O0  tau(  25) = (   0.7500000   0.3656903   2.8907005  )
        26           O0  tau(  26) = (   0.5000000   0.0000000   3.1620138  )
        27           H2  tau(  27) = (  -0.0003800   0.8172395   1.8403061  )
        28           H2  tau(  28) = (   0.4996200   0.8172395   1.8403061  )
        29           H2  tau(  29) = (   0.1698700   0.0284977   1.7974380  )
        30           H2  tau(  30) = (   0.6698800   0.0284977   1.7974380  )

     number of k points=    10  Methfessel-Paxton smearing, width (Ry)=  0.0100
                       cart. coord. in units 2pi/alat
        k(    1) = (   0.0000000   0.0000000   0.0000000), wk =   0.1250000
        k(    2) = (   0.0000000   0.1914188   0.0000000), wk =   0.2500000
        k(    3) = (   0.0000000  -0.3828376   0.0000000), wk =   0.1250000
        k(    4) = (   0.2500000   0.0000000   0.0000000), wk =   0.2500000
        k(    5) = (   0.2500000   0.1914188   0.0000000), wk =   0.2500000
        k(    6) = (   0.2500000  -0.3828376   0.0000000), wk =   0.2500000
        k(    7) = (  -0.5000000   0.0000000   0.0000000), wk =   0.1250000
        k(    8) = (  -0.5000000   0.1914188   0.0000000), wk =   0.2500000
        k(    9) = (  -0.5000000  -0.3828376   0.0000000), wk =   0.1250000
        k(   10) = (  -0.2500000   0.1914188   0.0000000), wk =   0.2500000

     Dense  grid:  1290557 G-vectors     FFT dimensions: (  75,  96, 375)

     Smooth grid:   233813 G-vectors     FFT dimensions: (  45,  54, 216)

     Largest allocated arrays     est. size (Mb)     dimensions
        Kohn-Sham Wavefunctions        39.11 Mb     (   7365,  348)
        Atomic wavefunctions           20.23 Mb     (   7365,  180)
        NL pseudopotentials            55.97 Mb     (   7365,  498)
        Each V/rho on FFT grid         10.33 Mb     ( 676800)
        Each G-vector array             2.46 Mb     ( 322642)
        G-vector shells                 1.07 Mb     ( 139625)
     Largest temporary arrays     est. size (Mb)     dimensions
        Auxiliary wavefunctions       156.43 Mb     (   7365, 1392)
        Each subspace H/S matrix       29.57 Mb     (1392,1392)
        Each <psi_i|beta_j> matrix      2.64 Mb     (    498,  348)
        Arrays for rho mixing          82.62 Mb     ( 676800,   8)

     Check: negative/imaginary core charge=   -0.000003    0.000000

     Initial potential from superposition of free atoms
     Check: negative starting charge=   -0.237311

     starting charge  227.99958, renormalised to  232.00000

     negative rho (up, down):  0.241E+00 0.000E+00
     Number of +U iterations with fixed ns =  0
     Starting occupations:
 --- enter write_ns ---
 LDA+U parameters:
U( 2)     =  8.00000000
alpha( 2) =  0.00000000
atom    3   Tr[ns(na)] =   5.00000
    eigenvalues: 
  0.500  0.500  0.500  0.500  0.500
    eigenvectors:
  1.000  0.000  0.000  0.000  0.000
  0.000  1.000  0.000  0.000  0.000
  0.000  0.000  1.000  0.000  0.000
  0.000  0.000  0.000  1.000  0.000
  0.000  0.000  0.000  0.000  1.000
    occupations:
  0.500  0.000  0.000  0.000  0.000
  0.000  0.500  0.000  0.000  0.000
  0.000  0.000  0.500  0.000  0.000
  0.000  0.000  0.000  0.500  0.000
  0.000  0.000  0.000  0.000  0.500
atom    4   Tr[ns(na)] =   5.00000
    eigenvalues: 
  0.500  0.500  0.500  0.500  0.500
    eigenvectors:
  1.000  0.000  0.000  0.000  0.000
  0.000  1.000  0.000  0.000  0.000
  0.000  0.000  1.000  0.000  0.000
  0.000  0.000  0.000  1.000  0.000
  0.000  0.000  0.000  0.000  1.000
    occupations:
  0.500  0.000  0.000  0.000  0.000
  0.000  0.500  0.000  0.000  0.000
  0.000  0.000  0.500  0.000  0.000
  0.000  0.000  0.000  0.500  0.000
  0.000  0.000  0.000  0.000  0.500
atom    9   Tr[ns(na)] =   5.00000
    eigenvalues: 
  0.500  0.500  0.500  0.500  0.500
    eigenvectors:
  1.000  0.000  0.000  0.000  0.000
  0.000  1.000  0.000  0.000  0.000
  0.000  0.000  1.000  0.000  0.000
  0.000  0.000  0.000  1.000  0.000
  0.000  0.000  0.000  0.000  1.000
    occupations:
  0.500  0.000  0.000  0.000  0.000
  0.000  0.500  0.000  0.000  0.000
  0.000  0.000  0.500  0.000  0.000
  0.000  0.000  0.000  0.500  0.000
  0.000  0.000  0.000  0.000  0.500
atom   10   Tr[ns(na)] =   5.00000
    eigenvalues: 
  0.500  0.500  0.500  0.500  0.500
    eigenvectors:
  1.000  0.000  0.000  0.000  0.000
  0.000  1.000  0.000  0.000  0.000
  0.000  0.000  1.000  0.000  0.000
  0.000  0.000  0.000  1.000  0.000
  0.000  0.000  0.000  0.000  1.000
    occupations:
  0.500  0.000  0.000  0.000  0.000
  0.000  0.500  0.000  0.000  0.000
  0.000  0.000  0.500  0.000  0.000
  0.000  0.000  0.000  0.500  0.000
  0.000  0.000  0.000  0.000  0.500
atom   16   Tr[ns(na)] =   5.00000
    eigenvalues: 
  0.500  0.500  0.500  0.500  0.500
    eigenvectors:
  1.000  0.000  0.000  0.000  0.000
  0.000  1.000  0.000  0.000  0.000
  0.000  0.000  1.000  0.000  0.000
  0.000  0.000  0.000  1.000  0.000
  0.000  0.000  0.000  0.000  1.000
    occupations:
  0.500  0.000  0.000  0.000  0.000
  0.000  0.500  0.000  0.000  0.000
  0.000  0.000  0.500  0.000  0.000
  0.000  0.000  0.000  0.500  0.000
  0.000  0.000  0.000  0.000  0.500
atom   17   Tr[ns(na)] =   5.00000
    eigenvalues: 
  0.500  0.500  0.500  0.500  0.500
    eigenvectors:
  1.000  0.000  0.000  0.000  0.000
  0.000  1.000  0.000  0.000  0.000
  0.000  0.000  1.000  0.000  0.000
  0.000  0.000  0.000  1.000  0.000
  0.000  0.000  0.000  0.000  1.000
    occupations:
  0.500  0.000  0.000  0.000  0.000
  0.000  0.500  0.000  0.000  0.000
  0.000  0.000  0.500  0.000  0.000
  0.000  0.000  0.000  0.500  0.000
  0.000  0.000  0.000  0.000  0.500
atom   22   Tr[ns(na)] =   5.00000
    eigenvalues: 
  0.500  0.500  0.500  0.500  0.500
    eigenvectors:
  1.000  0.000  0.000  0.000  0.000
  0.000  1.000  0.000  0.000  0.000
  0.000  0.000  1.000  0.000  0.000
  0.000  0.000  0.000  1.000  0.000
  0.000  0.000  0.000  0.000  1.000
    occupations:
  0.500  0.000  0.000  0.000  0.000
  0.000  0.500  0.000  0.000  0.000
  0.000  0.000  0.500  0.000  0.000
  0.000  0.000  0.000  0.500  0.000
  0.000  0.000  0.000  0.000  0.500
atom   23   Tr[ns(na)] =   5.00000
    eigenvalues: 
  0.500  0.500  0.500  0.500  0.500
    eigenvectors:
  1.000  0.000  0.000  0.000  0.000
  0.000  1.000  0.000  0.000  0.000
  0.000  0.000  1.000  0.000  0.000
  0.000  0.000  0.000  1.000  0.000
  0.000  0.000  0.000  0.000  1.000
    occupations:
  0.500  0.000  0.000  0.000  0.000
  0.000  0.500  0.000  0.000  0.000
  0.000  0.000  0.500  0.000  0.000
  0.000  0.000  0.000  0.500  0.000
  0.000  0.000  0.000  0.000  0.500
N of occupied +U levels =  40.0000000
 --- exit write_ns ---
 Atomic wfc used for LDA+U Projector are NOT orthogonalized
     Starting wfc are  180 randomized atomic wfcs

     total cpu time spent up to now is      138.7 secs

     per-process dynamical memory:   413.0 Mb

     Self-consistent Calculation

     iteration #  1     ecut=    40.00 Ry     beta=0.30
     Davidson diagonalization with overlap
     ethr =  1.00E-02,  avg # of iterations =  5.7
 --- enter write_ns ---
 LDA+U parameters:
U( 2)     =  8.00000000
alpha( 2) =  0.00000000
atom    3   Tr[ns(na)] =   4.93051
    eigenvalues: 
  0.345  0.457  0.493  0.503  0.668
    eigenvectors:
  0.003  0.000  0.502  0.000  0.495
  0.000  0.996  0.000  0.004  0.000
  0.997  0.000  0.001  0.000  0.002
  0.000  0.000  0.497  0.000  0.503
  0.000  0.004  0.000  0.996  0.000
    occupations:
  0.579  0.000  0.013 -0.087  0.000
  0.000  0.457 -0.000 -0.000  0.003
  0.013 -0.000  0.345 -0.006 -0.000
 -0.087 -0.000 -0.006  0.581 -0.000
  0.000  0.003 -0.000 -0.000  0.503
atom    4   Tr[ns(na)] =   5.01473
    eigenvalues: 
  0.334  0.453  0.508  0.521  0.692
    eigenvectors:
  0.000  0.000  0.806  0.150  0.044
  0.000  0.000  0.158  0.842  0.000
  1.000  0.000  0.000  0.000  0.000
  0.000  0.000  0.036  0.008  0.956
  0.000  1.000  0.000  0.000  0.000
    occupations:
  0.518  0.005  0.002 -0.037  0.000
  0.005  0.519  0.000 -0.000 -0.000
  0.002  0.000  0.334 -0.001  0.000
 -0.037 -0.000 -0.001  0.684  0.000
  0.000 -0.000  0.000  0.000  0.453
atom    9   Tr[ns(na)] =   6.36076
    eigenvalues: 
  0.506  0.507  0.632  0.741  0.794
    eigenvectors:
  0.028  0.341  0.000  0.631  0.000
  0.924  0.076  0.000  0.000  0.000
  0.000  0.000  1.000  0.000  0.000
  0.048  0.584  0.000  0.369  0.000
  0.000  0.000  0.000  0.000  1.000
    occupations:
  0.654  0.000 -0.000 -0.113  0.000
  0.000  0.506 -0.000  0.000 -0.000
 -0.000 -0.000  0.632  0.000 -0.000
 -0.113  0.000  0.000  0.593 -0.000
  0.000 -0.000 -0.000 -0.000  0.794
atom   10   Tr[ns(na)] =   6.64020
    eigenvalues: 
  0.476  0.478  0.732  0.806  0.828
    eigenvectors:
  0.000  0.977  0.023  0.000  0.000
  0.000  0.000  0.000  1.000  0.000
  0.000  0.000  0.000  0.000  1.000
  0.000  0.023  0.977  0.000  0.000
  1.000  0.000  0.000  0.000  0.000
    occupations:
  0.484 -0.000  0.000 -0.038  0.000
 -0.000  0.806  0.000  0.000 -0.000
  0.000  0.000  0.828 -0.000  0.000
 -0.038  0.000 -0.000  0.726  0.000
  0.000 -0.000  0.000  0.000  0.476
atom   16   Tr[ns(na)] =   4.93049
    eigenvalues: 
  0.345  0.457  0.493  0.503  0.668
    eigenvectors:
  0.003  0.000  0.502  0.000  0.495
  0.000  0.996  0.000  0.004  0.000
  0.997  0.000  0.001  0.000  0.002
  0.000  0.000  0.497  0.000  0.503
  0.000  0.004  0.000  0.996  0.000
    occupations:
  0.579  0.000  0.013 -0.087  0.000
  0.000  0.457 -0.000  0.000  0.003
  0.013 -0.000  0.345 -0.006 -0.000
 -0.087  0.000 -0.006  0.581 -0.000
  0.000  0.003 -0.000 -0.000  0.503
atom   17   Tr[ns(na)] =   5.01478
    eigenvalues: 
  0.334  0.453  0.508  0.521  0.692
    eigenvectors:
  0.000  0.000  0.806  0.150  0.044
  0.000  0.000  0.158  0.842  0.000
  1.000  0.000  0.000  0.000  0.000
  0.000  0.000  0.036  0.008  0.956
  0.000  1.000  0.000  0.000  0.000
    occupations:
  0.518  0.005  0.002 -0.037  0.000
  0.005  0.519  0.001 -0.000 -0.000
  0.002  0.001  0.334 -0.001  0.000
 -0.037 -0.000 -0.001  0.684  0.000
  0.000 -0.000  0.000  0.000  0.453
atom   22   Tr[ns(na)] =   6.36076
    eigenvalues: 
  0.506  0.507  0.632  0.741  0.794
    eigenvectors:
  0.028  0.340  0.000  0.631  0.000
  0.924  0.076  0.000  0.000  0.000
  0.000  0.000  1.000  0.000  0.000
  0.048  0.583  0.000  0.369  0.000
  0.000  0.000  0.000  0.000  1.000
    occupations:
  0.654  0.000 -0.000 -0.113  0.000
  0.000  0.506 -0.000  0.000 -0.000
 -0.000 -0.000  0.632  0.000  0.000
 -0.113  0.000  0.000  0.593 -0.000
  0.000 -0.000  0.000 -0.000  0.794
atom   23   Tr[ns(na)] =   6.64060
    eigenvalues: 
  0.476  0.478  0.732  0.806  0.828
    eigenvectors:
  0.000  0.977  0.023  0.000  0.000
  0.000  0.000  0.000  1.000  0.000
  0.000  0.000  0.000  0.000  1.000
  0.000  0.023  0.977  0.000  0.000
  1.000  0.000  0.000  0.000  0.000
    occupations:
  0.484 -0.000  0.000 -0.038  0.000
 -0.000  0.806  0.000  0.000 -0.000
  0.000  0.000  0.828 -0.000  0.000
 -0.038  0.000 -0.000  0.726  0.000
  0.000 -0.000  0.000  0.000  0.476
N of occupied +U levels =  45.8928358
 --- exit write_ns ---

     negative rho (up, down):  0.258E+00 0.000E+00

     total cpu time spent up to now is      514.7 secs

     total energy              =   -2132.00373807 Ry
     Harris-Foulkes estimate   =   -2138.93570133 Ry
     estimated scf accuracy    <      15.76369147 Ry

     iteration #  2     ecut=    40.00 Ry     beta=0.30
     Davidson diagonalization with overlap
     ethr =  6.79E-03,  avg # of iterations =  4.0

     negative rho (up, down):  0.255E+00 0.000E+00

     total cpu time spent up to now is      775.3 secs

     total energy              =   -2112.36716309 Ry
     Harris-Foulkes estimate   =   -2158.80779603 Ry
     estimated scf accuracy    <     696.60437769 Ry

     iteration #  3     ecut=    40.00 Ry     beta=0.30
     Davidson diagonalization with overlap
     ethr =  6.79E-03,  avg # of iterations =  3.9

     negative rho (up, down):  0.246E+00 0.000E+00

     total cpu time spent up to now is     1027.1 secs

     total energy              =   -2137.53808404 Ry
     Harris-Foulkes estimate   =   -2138.27500249 Ry
     estimated scf accuracy    <      12.84079784 Ry

     iteration #  4     ecut=    40.00 Ry     beta=0.30
     Davidson diagonalization with overlap
     ethr =  5.53E-03,  avg # of iterations =  1.1

     negative rho (up, down):  0.247E+00 0.000E+00

     total cpu time spent up to now is     1240.5 secs

     total energy              =   -2137.82774996 Ry
     Harris-Foulkes estimate   =   -2137.92319184 Ry
     estimated scf accuracy    <       1.56657613 Ry

     iteration #  5     ecut=    40.00 Ry     beta=0.30
     Davidson diagonalization with overlap
     ethr =  6.75E-04,  avg # of iterations =  4.1

     negative rho (up, down):  0.247E+00 0.000E+00

     total cpu time spent up to now is     1477.9 secs

     total energy              =   -2137.86434547 Ry
     Harris-Foulkes estimate   =   -2137.86963131 Ry
     estimated scf accuracy    <       0.73981180 Ry

     iteration #  6     ecut=    40.00 Ry     beta=0.30
     Davidson diagonalization with overlap
     ethr =  3.19E-04,  avg # of iterations =  3.5

     negative rho (up, down):  0.242E+00 0.000E+00

     total cpu time spent up to now is     1703.9 secs

     total energy              =   -2137.90703864 Ry
     Harris-Foulkes estimate   =   -2137.87832540 Ry
     estimated scf accuracy    <       0.49173380 Ry

     iteration #  7     ecut=    40.00 Ry     beta=0.30
     Davidson diagonalization with overlap
     ethr =  2.12E-04,  avg # of iterations =  5.0

     negative rho (up, down):  0.235E+00 0.000E+00

     total cpu time spent up to now is     1948.1 secs

     total energy              =   -2137.98104551 Ry
     Harris-Foulkes estimate   =   -2137.93394707 Ry
     estimated scf accuracy    <       0.20578912 Ry

     iteration #  8     ecut=    40.00 Ry     beta=0.30
     Davidson diagonalization with overlap
     ethr =  8.87E-05,  avg # of iterations =  5.1

     negative rho (up, down):  0.233E+00 0.000E+00

     total cpu time spent up to now is     2184.0 secs

     total energy              =   -2138.00855318 Ry
     Harris-Foulkes estimate   =   -2137.99660659 Ry
     estimated scf accuracy    <       0.06310359 Ry

     iteration #  9     ecut=    40.00 Ry     beta=0.30
     Davidson diagonalization with overlap
     ethr =  2.72E-05,  avg # of iterations =  4.7

     negative rho (up, down):  0.233E+00 0.000E+00

     total cpu time spent up to now is     2439.6 secs

     total energy              =   -2138.01538523 Ry
     Harris-Foulkes estimate   =   -2138.01442873 Ry
     estimated scf accuracy    <       0.03008970 Ry

     iteration # 10     ecut=    40.00 Ry     beta=0.30
     Davidson diagonalization with overlap
     ethr =  1.30E-05,  avg # of iterations =  2.5

     negative rho (up, down):  0.232E+00 0.000E+00

     total cpu time spent up to now is     2673.5 secs

     total energy              =   -2138.01773044 Ry
     Harris-Foulkes estimate   =   -2138.01743310 Ry
     estimated scf accuracy    <       0.01383607 Ry

     iteration # 11     ecut=    40.00 Ry     beta=0.30
     Davidson diagonalization with overlap
     ethr =  5.96E-06,  avg # of iterations =  3.2

     negative rho (up, down):  0.231E+00 0.000E+00

     total cpu time spent up to now is     2901.7 secs

     total energy              =   -2138.01918851 Ry
     Harris-Foulkes estimate   =   -2138.01859222 Ry
     estimated scf accuracy    <       0.00422248 Ry

     iteration # 12     ecut=    40.00 Ry     beta=0.30
     Davidson diagonalization with overlap
     ethr =  1.82E-06,  avg # of iterations =  4.9

     negative rho (up, down):  0.230E+00 0.000E+00

     total cpu time spent up to now is     3145.3 secs

     total energy              =   -2138.02052738 Ry
     Harris-Foulkes estimate   =   -2138.01968771 Ry
     estimated scf accuracy    <       0.00352936 Ry

     iteration # 13     ecut=    40.00 Ry     beta=0.30
     Davidson diagonalization with overlap
     ethr =  1.52E-06,  avg # of iterations =  1.0

     negative rho (up, down):  0.231E+00 0.000E+00

     total cpu time spent up to now is     3362.3 secs

     total energy              =   -2138.01947069 Ry
     Harris-Foulkes estimate   =   -2138.02088232 Ry
     estimated scf accuracy    <       0.00343019 Ry

     iteration # 14     ecut=    40.00 Ry     beta=0.30
     Davidson diagonalization with overlap
     ethr =  1.48E-06,  avg # of iterations =  1.0

     negative rho (up, down):  0.230E+00 0.000E+00

     total cpu time spent up to now is     3579.8 secs

     total energy              =   -2138.01749341 Ry
     Harris-Foulkes estimate   =   -2138.01976690 Ry
     estimated scf accuracy    <       0.00275843 Ry

     iteration # 15     ecut=    40.00 Ry     beta=0.30
     Davidson diagonalization with overlap
     ethr =  1.19E-06,  avg # of iterations =  1.4

     negative rho (up, down):  0.231E+00 0.000E+00

     total cpu time spent up to now is     3807.5 secs

     total energy              =   -2138.01674372 Ry
     Harris-Foulkes estimate   =   -2138.01835901 Ry
     estimated scf accuracy    <       0.00413581 Ry

     iteration # 16     ecut=    40.00 Ry     beta=0.30
     Davidson diagonalization with overlap
     ethr =  1.19E-06,  avg # of iterations =  1.4

     negative rho (up, down):  0.231E+00 0.000E+00

     total cpu time spent up to now is     4030.2 secs

     total energy              =   -2138.01415409 Ry
     Harris-Foulkes estimate   =   -2138.01726917 Ry
     estimated scf accuracy    <       0.00361089 Ry

     iteration # 17     ecut=    40.00 Ry     beta=0.30
     Davidson diagonalization with overlap
     ethr =  1.19E-06,  avg # of iterations =  2.0

     negative rho (up, down):  0.231E+00 0.000E+00

     total cpu time spent up to now is     4263.1 secs

     total energy              =   -2138.01514562 Ry
     Harris-Foulkes estimate   =   -2138.01550854 Ry
     estimated scf accuracy    <       0.00193508 Ry

     iteration # 18     ecut=    40.00 Ry     beta=0.30
     Davidson diagonalization with overlap
     ethr =  8.34E-07,  avg # of iterations =  1.0

     negative rho (up, down):  0.231E+00 0.000E+00

     total cpu time spent up to now is     4490.8 secs

     total energy              =   -2138.01572865 Ry
     Harris-Foulkes estimate   =   -2138.01519355 Ry
     estimated scf accuracy    <       0.00200475 Ry

     iteration # 19     ecut=    40.00 Ry     beta=0.30
     Davidson diagonalization with overlap
     ethr =  8.34E-07,  avg # of iterations =  1.0

     negative rho (up, down):  0.231E+00 0.000E+00

     total cpu time spent up to now is     4727.7 secs

     total energy              =   -2138.01521773 Ry
     Harris-Foulkes estimate   =   -2138.01602410 Ry
     estimated scf accuracy    <       0.00207002 Ry

     iteration # 20     ecut=    40.00 Ry     beta=0.30
     Davidson diagonalization with overlap
     ethr =  8.34E-07,  avg # of iterations =  1.0

     negative rho (up, down):  0.231E+00 0.000E+00

     total cpu time spent up to now is     4954.1 secs

     total energy              =   -2138.01525883 Ry
     Harris-Foulkes estimate   =   -2138.01535785 Ry
     estimated scf accuracy    <       0.00201668 Ry

     iteration # 21     ecut=    40.00 Ry     beta=0.30
     Davidson diagonalization with overlap
     ethr =  8.34E-07,  avg # of iterations =  1.0

     negative rho (up, down):  0.231E+00 0.000E+00

     total cpu time spent up to now is     5174.7 secs

     total energy              =   -2138.01546901 Ry
     Harris-Foulkes estimate   =   -2138.01526368 Ry
     estimated scf accuracy    <       0.00200576 Ry

     iteration # 22     ecut=    40.00 Ry     beta=0.30
     Davidson diagonalization with overlap
     ethr =  8.34E-07,  avg # of iterations =  1.0

     negative rho (up, down):  0.230E+00 0.000E+00

     total cpu time spent up to now is     5406.4 secs

     total energy              =   -2138.01600962 Ry
     Harris-Foulkes estimate   =   -2138.01548923 Ry
     estimated scf accuracy    <       0.00191663 Ry

     iteration # 23     ecut=    40.00 Ry     beta=0.30
     Davidson diagonalization with overlap
     ethr =  8.26E-07,  avg # of iterations =  1.3

     negative rho (up, down):  0.230E+00 0.000E+00

     total cpu time spent up to now is     5631.5 secs

     total energy              =   -2138.01612844 Ry
     Harris-Foulkes estimate   =   -2138.01622656 Ry
     estimated scf accuracy    <       0.00247811 Ry

     iteration # 24     ecut=    40.00 Ry     beta=0.30
     Davidson diagonalization with overlap
     ethr =  8.26E-07,  avg # of iterations =  1.0

     negative rho (up, down):  0.230E+00 0.000E+00

     total cpu time spent up to now is     5857.7 secs

     total energy              =   -2138.01583100 Ry
     Harris-Foulkes estimate   =   -2138.01624781 Ry
     estimated scf accuracy    <       0.00210354 Ry

     iteration # 25     ecut=    40.00 Ry     beta=0.30
     Davidson diagonalization with overlap
     ethr =  8.26E-07,  avg # of iterations =  1.0

     negative rho (up, down):  0.230E+00 0.000E+00

     total cpu time spent up to now is     6084.2 secs

     total energy              =   -2138.01303538 Ry
     Harris-Foulkes estimate   =   -2138.01630475 Ry
     estimated scf accuracy    <       0.00150857 Ry

     iteration # 26     ecut=    40.00 Ry     beta=0.30
     Davidson diagonalization with overlap
     ethr =  6.50E-07,  avg # of iterations =  2.0

     negative rho (up, down):  0.230E+00 0.000E+00

     total cpu time spent up to now is     6317.0 secs

     total energy              =   -2138.01451329 Ry
     Harris-Foulkes estimate   =   -2138.01495419 Ry
     estimated scf accuracy    <       0.00200682 Ry

     iteration # 27     ecut=    40.00 Ry     beta=0.30
     Davidson diagonalization with overlap
     ethr =  6.50E-07,  avg # of iterations =  1.0

     negative rho (up, down):  0.230E+00 0.000E+00

     total cpu time spent up to now is     6543.2 secs

     total energy              =   -2138.01499791 Ry
     Harris-Foulkes estimate   =   -2138.01459325 Ry
     estimated scf accuracy    <       0.00166187 Ry

     iteration # 28     ecut=    40.00 Ry     beta=0.30
     Davidson diagonalization with overlap
     ethr =  6.50E-07,  avg # of iterations =  2.0

     negative rho (up, down):  0.230E+00 0.000E+00

     total cpu time spent up to now is     6779.5 secs

     total energy              =   -2138.01519520 Ry
     Harris-Foulkes estimate   =   -2138.01560124 Ry
     estimated scf accuracy    <       0.00097970 Ry

     iteration # 29     ecut=    40.00 Ry     beta=0.30
     Davidson diagonalization with overlap
     ethr =  4.22E-07,  avg # of iterations =  2.0

     negative rho (up, down):  0.230E+00 0.000E+00

     total cpu time spent up to now is     7013.6 secs

     total energy              =   -2138.01810661 Ry
     Harris-Foulkes estimate   =   -2138.01757757 Ry
     estimated scf accuracy    <       0.00145676 Ry

     iteration # 30     ecut=    40.00 Ry     beta=0.30
     Davidson diagonalization with overlap
     ethr =  4.22E-07,  avg # of iterations =  2.0

     negative rho (up, down):  0.230E+00 0.000E+00

     total cpu time spent up to now is     7245.4 secs

     total energy              =   -2138.01002656 Ry
     Harris-Foulkes estimate   =   -2138.01888826 Ry
     estimated scf accuracy    <       0.00230119 Ry

     iteration # 31     ecut=    40.00 Ry     beta=0.30
     Davidson diagonalization with overlap
     ethr =  4.22E-07,  avg # of iterations =  2.0

     negative rho (up, down):  0.231E+00 0.000E+00

     total cpu time spent up to now is     7484.1 secs

     total energy              =   -2138.01237433 Ry
     Harris-Foulkes estimate   =   -2138.01576620 Ry
     estimated scf accuracy    <       0.00149737 Ry

     iteration # 32     ecut=    40.00 Ry     beta=0.30
     Davidson diagonalization with overlap
     ethr =  4.22E-07,  avg # of iterations =  2.0

     negative rho (up, down):  0.231E+00 0.000E+00

     total cpu time spent up to now is     7720.9 secs

     total energy              =   -2138.01257515 Ry
     Harris-Foulkes estimate   =   -2138.01404659 Ry
     estimated scf accuracy    <       0.00355147 Ry

     iteration # 33     ecut=    40.00 Ry     beta=0.30
     Davidson diagonalization with overlap
     ethr =  4.22E-07,  avg # of iterations =  2.0

     negative rho (up, down):  0.230E+00 0.000E+00

     total cpu time spent up to now is     7952.9 secs

     total energy              =   -2138.01362969 Ry
     Harris-Foulkes estimate   =   -2138.01288793 Ry
     estimated scf accuracy    <       0.00507188 Ry

     iteration # 34     ecut=    40.00 Ry     beta=0.30
     Davidson diagonalization with overlap
     ethr =  4.22E-07,  avg # of iterations =  2.0

     negative rho (up, down):  0.230E+00 0.000E+00

     total cpu time spent up to now is     8190.1 secs

     total energy              =   -2138.01461323 Ry
     Harris-Foulkes estimate   =   -2138.01523567 Ry
     estimated scf accuracy    <       0.00307867 Ry

     iteration # 35     ecut=    40.00 Ry     beta=0.30
     Davidson diagonalization with overlap
     ethr =  4.22E-07,  avg # of iterations =  1.0

     negative rho (up, down):  0.230E+00 0.000E+00

     total cpu time spent up to now is     8419.0 secs

     total energy              =   -2138.01457274 Ry
     Harris-Foulkes estimate   =   -2138.01477538 Ry
     estimated scf accuracy    <       0.00213252 Ry

     iteration # 36     ecut=    40.00 Ry     beta=0.30
     Davidson diagonalization with overlap
     ethr =  4.22E-07,  avg # of iterations =  1.0

     negative rho (up, down):  0.230E+00 0.000E+00

     total cpu time spent up to now is     8651.8 secs

     total energy              =   -2138.01498790 Ry
     Harris-Foulkes estimate   =   -2138.01467664 Ry
     estimated scf accuracy    <       0.00215506 Ry

     iteration # 37     ecut=    40.00 Ry     beta=0.30
     Davidson diagonalization with overlap
     ethr =  4.22E-07,  avg # of iterations =  1.0

     negative rho (up, down):  0.230E+00 0.000E+00

     total cpu time spent up to now is     8879.5 secs

     total energy              =   -2138.01528789 Ry
     Harris-Foulkes estimate   =   -2138.01517702 Ry
     estimated scf accuracy    <       0.00127076 Ry

     iteration # 38     ecut=    40.00 Ry     beta=0.30
     Davidson diagonalization with overlap
     ethr =  4.22E-07,  avg # of iterations =  1.0

     negative rho (up, down):  0.230E+00 0.000E+00

     total cpu time spent up to now is     9096.4 secs

     total energy              =   -2138.01545013 Ry
     Harris-Foulkes estimate   =   -2138.01530699 Ry
     estimated scf accuracy    <       0.00124138 Ry

     iteration # 39     ecut=    40.00 Ry     beta=0.30
     Davidson diagonalization with overlap
     ethr =  4.22E-07,  avg # of iterations =  2.0

     negative rho (up, down):  0.230E+00 0.000E+00

     total cpu time spent up to now is     9325.8 secs

     total energy              =   -2138.01694435 Ry
     Harris-Foulkes estimate   =   -2138.01667147 Ry
     estimated scf accuracy    <       0.00241746 Ry

     iteration # 40     ecut=    40.00 Ry     beta=0.30
     Davidson diagonalization with overlap
     ethr =  4.22E-07,  avg # of iterations =  2.0

     negative rho (up, down):  0.230E+00 0.000E+00

     total cpu time spent up to now is     9549.0 secs

     total energy              =   -2138.01782580 Ry
     Harris-Foulkes estimate   =   -2138.01770535 Ry
     estimated scf accuracy    <       0.00242917 Ry

     iteration # 41     ecut=    40.00 Ry     beta=0.30
     Davidson diagonalization with overlap
     ethr =  4.22E-07,  avg # of iterations =  1.0

     negative rho (up, down):  0.230E+00 0.000E+00

     total cpu time spent up to now is     9762.5 secs

     total energy              =   -2138.01729057 Ry
     Harris-Foulkes estimate   =   -2138.01784746 Ry
     estimated scf accuracy    <       0.00227258 Ry

     iteration # 42     ecut=    40.00 Ry     beta=0.30
     Davidson diagonalization with overlap
     ethr =  4.22E-07,  avg # of iterations =  1.0

     negative rho (up, down):  0.232E+00 0.000E+00

     total cpu time spent up to now is     9977.6 secs

     total energy              =   -2137.97376991 Ry
     Harris-Foulkes estimate   =   -2138.01740014 Ry
     estimated scf accuracy    <       0.00230554 Ry

     iteration # 43     ecut=    40.00 Ry     beta=0.30
     Davidson diagonalization with overlap
     ethr =  4.22E-07,  avg # of iterations =  4.2

     negative rho (up, down):  0.230E+00 0.000E+00

     total cpu time spent up to now is    10232.7 secs

     total energy              =   -2137.99556987 Ry
     Harris-Foulkes estimate   =   -2138.00465732 Ry
     estimated scf accuracy    <       0.01247750 Ry

     iteration # 44     ecut=    40.00 Ry     beta=0.30
     Davidson diagonalization with overlap
     ethr =  4.22E-07,  avg # of iterations =  3.9

     negative rho (up, down):  0.230E+00 0.000E+00

     total cpu time spent up to now is    10483.4 secs

     total energy              =   -2138.01540178 Ry
     Harris-Foulkes estimate   =   -2138.01706018 Ry
     estimated scf accuracy    <       0.00178953 Ry

     iteration # 45     ecut=    40.00 Ry     beta=0.30
     Davidson diagonalization with overlap
     ethr =  4.22E-07,  avg # of iterations =  2.0

     negative rho (up, down):  0.231E+00 0.000E+00

     total cpu time spent up to now is    10705.8 secs

     total energy              =   -2138.01556880 Ry
     Harris-Foulkes estimate   =   -2138.01608412 Ry
     estimated scf accuracy    <       0.00113704 Ry

     iteration # 46     ecut=    40.00 Ry     beta=0.30
     Davidson diagonalization with overlap
     ethr =  4.22E-07,  avg # of iterations =  1.0

     negative rho (up, down):  0.231E+00 0.000E+00

     total cpu time spent up to now is    10936.1 secs

     total energy              =   -2138.01570863 Ry
     Harris-Foulkes estimate   =   -2138.01570644 Ry
     estimated scf accuracy    <       0.00115757 Ry

     iteration # 47     ecut=    40.00 Ry     beta=0.30
     Davidson diagonalization with overlap
     ethr =  4.22E-07,  avg # of iterations =  1.0

     negative rho (up, down):  0.230E+00 0.000E+00

     total cpu time spent up to now is    11157.0 secs

     total energy              =   -2138.01604906 Ry
     Harris-Foulkes estimate   =   -2138.01571289 Ry
     estimated scf accuracy    <       0.00110365 Ry

     iteration # 48     ecut=    40.00 Ry     beta=0.30
     Davidson diagonalization with overlap
     ethr =  4.22E-07,  avg # of iterations =  2.0

     negative rho (up, down):  0.231E+00 0.000E+00

     total cpu time spent up to now is    11382.3 secs

     total energy              =   -2138.01635810 Ry
     Harris-Foulkes estimate   =   -2138.01653100 Ry
     estimated scf accuracy    <       0.00117698 Ry

     iteration # 49     ecut=    40.00 Ry     beta=0.30
     Davidson diagonalization with overlap
     ethr =  4.22E-07,  avg # of iterations =  1.0

     negative rho (up, down):  0.230E+00 0.000E+00

     total cpu time spent up to now is    11614.4 secs

     total energy              =   -2138.01675335 Ry
     Harris-Foulkes estimate   =   -2138.01638435 Ry
     estimated scf accuracy    <       0.00115255 Ry

     iteration # 50     ecut=    40.00 Ry     beta=0.30
     Davidson diagonalization with overlap
     ethr =  4.22E-07,  avg # of iterations =  2.0

     negative rho (up, down):  0.230E+00 0.000E+00

     total cpu time spent up to now is    11848.2 secs

     total energy              =   -2138.01750331 Ry
     Harris-Foulkes estimate   =   -2138.01725803 Ry
     estimated scf accuracy    <       0.00179125 Ry

     iteration # 51     ecut=    40.00 Ry     beta=0.30
     Davidson diagonalization with overlap
     ethr =  4.22E-07,  avg # of iterations =  1.0

     negative rho (up, down):  0.230E+00 0.000E+00

     total cpu time spent up to now is    12076.1 secs

     total energy              =   -2138.01708785 Ry
     Harris-Foulkes estimate   =   -2138.01755197 Ry
     estimated scf accuracy    <       0.00197248 Ry

     iteration # 52     ecut=    40.00 Ry     beta=0.30
     Davidson diagonalization with overlap
     ethr =  4.22E-07,  avg # of iterations =  1.0

     negative rho (up, down):  0.231E+00 0.000E+00

     total cpu time spent up to now is    12304.0 secs

     total energy              =   -2137.99283334 Ry
     Harris-Foulkes estimate   =   -2138.01716915 Ry
     estimated scf accuracy    <       0.00182647 Ry

     iteration # 53     ecut=    40.00 Ry     beta=0.30
     Davidson diagonalization with overlap
     ethr =  4.22E-07,  avg # of iterations =  3.0

     negative rho (up, down):  0.230E+00 0.000E+00

     total cpu time spent up to now is    12555.9 secs

     total energy              =   -2138.00561072 Ry
     Harris-Foulkes estimate   =   -2138.00970823 Ry
     estimated scf accuracy    <       0.00675970 Ry

     iteration # 54     ecut=    40.00 Ry     beta=0.30
     Davidson diagonalization with overlap
     ethr =  4.22E-07,  avg # of iterations =  3.0

     negative rho (up, down):  0.231E+00 0.000E+00

     total cpu time spent up to now is    12807.3 secs

     total energy              =   -2138.01668150 Ry
     Harris-Foulkes estimate   =   -2138.01681300 Ry
     estimated scf accuracy    <       0.00133805 Ry

     iteration # 55     ecut=    40.00 Ry     beta=0.30
     Davidson diagonalization with overlap
     ethr =  4.22E-07,  avg # of iterations =  1.0

     negative rho (up, down):  0.231E+00 0.000E+00

     total cpu time spent up to now is    13035.7 secs

     total energy              =   -2138.01619017 Ry
     Harris-Foulkes estimate   =   -2138.01673637 Ry
     estimated scf accuracy    <       0.00150017 Ry

     iteration # 56     ecut=    40.00 Ry     beta=0.30
     Davidson diagonalization with overlap
     ethr =  4.22E-07,  avg # of iterations =  1.0

     negative rho (up, down):  0.231E+00 0.000E+00

     total cpu time spent up to now is    13263.6 secs

     total energy              =   -2138.01292563 Ry
     Harris-Foulkes estimate   =   -2138.01632506 Ry
     estimated scf accuracy    <       0.00123157 Ry

     iteration # 57     ecut=    40.00 Ry     beta=0.30
     Davidson diagonalization with overlap
     ethr =  4.22E-07,  avg # of iterations =  2.0

     negative rho (up, down):  0.231E+00 0.000E+00

     total cpu time spent up to now is    13499.0 secs

     total energy              =   -2138.01516303 Ry
     Harris-Foulkes estimate   =   -2138.01467733 Ry
     estimated scf accuracy    <       0.00207547 Ry

     iteration # 58     ecut=    40.00 Ry     beta=0.30
     Davidson diagonalization with overlap
     ethr =  4.22E-07,  avg # of iterations =  2.0

     negative rho (up, down):  0.231E+00 0.000E+00

     total cpu time spent up to now is    13732.5 secs

     total energy              =   -2138.01548261 Ry
     Harris-Foulkes estimate   =   -2138.01597826 Ry
     estimated scf accuracy    <       0.00145719 Ry

     iteration # 59     ecut=    40.00 Ry     beta=0.30
     Davidson diagonalization with overlap
     ethr =  4.22E-07,  avg # of iterations =  1.0

     negative rho (up, down):  0.231E+00 0.000E+00

     total cpu time spent up to now is    13960.7 secs

     total energy              =   -2138.01449864 Ry
     Harris-Foulkes estimate   =   -2138.01558218 Ry
     estimated scf accuracy    <       0.00153086 Ry

     iteration # 60     ecut=    40.00 Ry     beta=0.30
     Davidson diagonalization with overlap
     ethr =  4.22E-07,  avg # of iterations =  2.0

     negative rho (up, down):  0.230E+00 0.000E+00

     total cpu time spent up to now is    14197.8 secs

     total energy              =   -2138.01833366 Ry
     Harris-Foulkes estimate   =   -2138.01805722 Ry
     estimated scf accuracy    <       0.00205681 Ry

     iteration # 61     ecut=    40.00 Ry     beta=0.30
     Davidson diagonalization with overlap
     ethr =  4.22E-07,  avg # of iterations =  2.0

     negative rho (up, down):  0.230E+00 0.000E+00

     total cpu time spent up to now is    14431.5 secs

     total energy              =   -2138.01863806 Ry
     Harris-Foulkes estimate   =   -2138.01882590 Ry
     estimated scf accuracy    <       0.00223672 Ry

     iteration # 62     ecut=    40.00 Ry     beta=0.30
     Davidson diagonalization with overlap
     ethr =  4.22E-07,  avg # of iterations =  1.0

     negative rho (up, down):  0.231E+00 0.000E+00

     total cpu time spent up to now is    14661.4 secs

     total energy              =   -2138.00887618 Ry
     Harris-Foulkes estimate   =   -2138.01872578 Ry
     estimated scf accuracy    <       0.00211900 Ry

     iteration # 63     ecut=    40.00 Ry     beta=0.30
     Davidson diagonalization with overlap
     ethr =  4.22E-07,  avg # of iterations =  2.0

     negative rho (up, down):  0.231E+00 0.000E+00

     total cpu time spent up to now is    14900.5 secs

     total energy              =   -2138.01540773 Ry
     Harris-Foulkes estimate   =   -2138.01545923 Ry
     estimated scf accuracy    <       0.00170126 Ry

     iteration # 64     ecut=    40.00 Ry     beta=0.30
     Davidson diagonalization with overlap
     ethr =  4.22E-07,  avg # of iterations =  1.0

     negative rho (up, down):  0.231E+00 0.000E+00

     total cpu time spent up to now is    15127.9 secs

     total energy              =   -2138.01089340 Ry
     Harris-Foulkes estimate   =   -2138.01553206 Ry
     estimated scf accuracy    <       0.00119716 Ry

     iteration # 65     ecut=    40.00 Ry     beta=0.30
     Davidson diagonalization with overlap
     ethr =  4.22E-07,  avg # of iterations =  2.0

     negative rho (up, down):  0.231E+00 0.000E+00

     total cpu time spent up to now is    15365.8 secs

     total energy              =   -2138.00497242 Ry
     Harris-Foulkes estimate   =   -2138.01318030 Ry
     estimated scf accuracy    <       0.00301046 Ry

     iteration # 66     ecut=    40.00 Ry     beta=0.30
     Davidson diagonalization with overlap
     ethr =  4.22E-07,  avg # of iterations =  2.0

     negative rho (up, down):  0.230E+00 0.000E+00

     total cpu time spent up to now is    15604.0 secs

     total energy              =   -2138.00759004 Ry
     Harris-Foulkes estimate   =   -2138.00766631 Ry
     estimated scf accuracy    <       0.01015626 Ry

     iteration # 67     ecut=    40.00 Ry     beta=0.30
     Davidson diagonalization with overlap
     ethr =  4.22E-07,  avg # of iterations =  2.0

     negative rho (up, down):  0.231E+00 0.000E+00

     total cpu time spent up to now is    15845.4 secs

     total energy              =   -2138.01462108 Ry
     Harris-Foulkes estimate   =   -2138.01525010 Ry
     estimated scf accuracy    <       0.00503081 Ry

     iteration # 68     ecut=    40.00 Ry     beta=0.30
     Davidson diagonalization with overlap
     ethr =  4.22E-07,  avg # of iterations =  1.0

     negative rho (up, down):  0.230E+00 0.000E+00

     total cpu time spent up to now is    16066.2 secs

     total energy              =   -2138.01547785 Ry
     Harris-Foulkes estimate   =   -2138.01520929 Ry
     estimated scf accuracy    <       0.00129558 Ry

     iteration # 69     ecut=    40.00 Ry     beta=0.30
     Davidson diagonalization with overlap
     ethr =  4.22E-07,  avg # of iterations =  1.0

     negative rho (up, down):  0.230E+00 0.000E+00

     total cpu time spent up to now is    16287.2 secs

     total energy              =   -2138.01566045 Ry
     Harris-Foulkes estimate   =   -2138.01555084 Ry
     estimated scf accuracy    <       0.00113223 Ry

     iteration # 70     ecut=    40.00 Ry     beta=0.30
     Davidson diagonalization with overlap
     ethr =  4.22E-07,  avg # of iterations =  2.0

     negative rho (up, down):  0.230E+00 0.000E+00

     total cpu time spent up to now is    16526.5 secs

     total energy              =   -2138.01704214 Ry
     Harris-Foulkes estimate   =   -2138.01670343 Ry
     estimated scf accuracy    <       0.00147051 Ry

     iteration # 71     ecut=    40.00 Ry     beta=0.30
     Davidson diagonalization with overlap
     ethr =  4.22E-07,  avg # of iterations =  1.0

     negative rho (up, down):  0.230E+00 0.000E+00

     total cpu time spent up to now is    16756.6 secs

     total energy              =   -2138.01752536 Ry
     Harris-Foulkes estimate   =   -2138.01719840 Ry
     estimated scf accuracy    <       0.00154316 Ry

     iteration # 72     ecut=    40.00 Ry     beta=0.30
     Davidson diagonalization with overlap
     ethr =  4.22E-07,  avg # of iterations =  1.0

     negative rho (up, down):  0.230E+00 0.000E+00

     total cpu time spent up to now is    16987.8 secs

     total energy              =   -2138.01760335 Ry
     Harris-Foulkes estimate   =   -2138.01764070 Ry
     estimated scf accuracy    <       0.00184492 Ry

     iteration # 73     ecut=    40.00 Ry     beta=0.30
     Davidson diagonalization with overlap
     ethr =  4.22E-07,  avg # of iterations =  1.0

     negative rho (up, down):  0.230E+00 0.000E+00

     total cpu time spent up to now is    17210.4 secs

     total energy              =   -2138.01756279 Ry
     Harris-Foulkes estimate   =   -2138.01760466 Ry
     estimated scf accuracy    <       0.00187086 Ry

     iteration # 74     ecut=    40.00 Ry     beta=0.30
     Davidson diagonalization with overlap
     ethr =  4.22E-07,  avg # of iterations =  1.0

     negative rho (up, down):  0.230E+00 0.000E+00

     total cpu time spent up to now is    17435.9 secs

     total energy              =   -2138.01759408 Ry
     Harris-Foulkes estimate   =   -2138.01756525 Ry
     estimated scf accuracy    <       0.00180646 Ry

     iteration # 75     ecut=    40.00 Ry     beta=0.30
     Davidson diagonalization with overlap
     ethr =  4.22E-07,  avg # of iterations =  1.0

     negative rho (up, down):  0.231E+00 0.000E+00

     total cpu time spent up to now is    17651.2 secs

     total energy              =   -2138.00875646 Ry
     Harris-Foulkes estimate   =   -2138.01759709 Ry
     estimated scf accuracy    <       0.00185640 Ry

     iteration # 76     ecut=    40.00 Ry     beta=0.30
     Davidson diagonalization with overlap
     ethr =  4.22E-07,  avg # of iterations =  2.0

     negative rho (up, down):  0.231E+00 0.000E+00

     total cpu time spent up to now is    17883.0 secs

     total energy              =   -2138.00765760 Ry
     Harris-Foulkes estimate   =   -2138.01467544 Ry
     estimated scf accuracy    <       0.00169914 Ry

     iteration # 77     ecut=    40.00 Ry     beta=0.30
     Davidson diagonalization with overlap
     ethr =  4.22E-07,  avg # of iterations =  2.3

     negative rho (up, down):  0.230E+00 0.000E+00

     total cpu time spent up to now is    18139.1 secs

     total energy              =   -2137.98519786 Ry
     Harris-Foulkes estimate   =   -2138.01090616 Ry
     estimated scf accuracy    <       0.00590743 Ry

     iteration # 78     ecut=    40.00 Ry     beta=0.30
     Davidson diagonalization with overlap
     ethr =  4.22E-07,  avg # of iterations =  3.3

     negative rho (up, down):  0.230E+00 0.000E+00

     total cpu time spent up to now is    18407.3 secs

     total energy              =   -2138.02162084 Ry
     Harris-Foulkes estimate   =   -2138.02073318 Ry
     estimated scf accuracy    <       0.00738454 Ry

     iteration # 79     ecut=    40.00 Ry     beta=0.30
     Davidson diagonalization with overlap
     ethr =  4.22E-07,  avg # of iterations =  2.0

     negative rho (up, down):  0.230E+00 0.000E+00

     total cpu time spent up to now is    18636.4 secs

     total energy              =   -2138.02025805 Ry
     Harris-Foulkes estimate   =   -2138.02264796 Ry
     estimated scf accuracy    <       0.01406493 Ry

     iteration # 80     ecut=    40.00 Ry     beta=0.30
     Davidson diagonalization with overlap
     ethr =  4.22E-07,  avg # of iterations =  2.0

     negative rho (up, down):  0.230E+00 0.000E+00

     total cpu time spent up to now is    18865.0 secs

     total energy              =   -2138.01628651 Ry
     Harris-Foulkes estimate   =   -2138.02098364 Ry
     estimated scf accuracy    <       0.01083614 Ry

     iteration # 81     ecut=    40.00 Ry     beta=0.30
     Davidson diagonalization with overlap
     ethr =  4.22E-07,  avg # of iterations =  2.0

     negative rho (up, down):  0.231E+00 0.000E+00

     total cpu time spent up to now is    19092.9 secs

     total energy              =   -2138.01661294 Ry
     Harris-Foulkes estimate   =   -2138.01886173 Ry
     estimated scf accuracy    <       0.00210181 Ry

     iteration # 82     ecut=    40.00 Ry     beta=0.30
     Davidson diagonalization with overlap
     ethr =  4.22E-07,  avg # of iterations =  2.0

     negative rho (up, down):  0.231E+00 0.000E+00

     total cpu time spent up to now is    19318.9 secs

     total energy              =   -2138.01547826 Ry
     Harris-Foulkes estimate   =   -2138.01750428 Ry
     estimated scf accuracy    <       0.00135186 Ry

     iteration # 83     ecut=    40.00 Ry     beta=0.30
     Davidson diagonalization with overlap
     ethr =  4.22E-07,  avg # of iterations =  2.0

     negative rho (up, down):  0.231E+00 0.000E+00

     total cpu time spent up to now is    19556.6 secs

     total energy              =   -2138.01468740 Ry
     Harris-Foulkes estimate   =   -2138.01631853 Ry
     estimated scf accuracy    <       0.00120929 Ry

     iteration # 84     ecut=    40.00 Ry     beta=0.30
     Davidson diagonalization with overlap
     ethr =  4.22E-07,  avg # of iterations =  2.0

     negative rho (up, down):  0.231E+00 0.000E+00

     total cpu time spent up to now is    19790.0 secs

     total energy              =   -2138.01359610 Ry
     Harris-Foulkes estimate   =   -2138.01535586 Ry
     estimated scf accuracy    <       0.00144040 Ry

     iteration # 85     ecut=    40.00 Ry     beta=0.30
     Davidson diagonalization with overlap
     ethr =  4.22E-07,  avg # of iterations =  2.0

     negative rho (up, down):  0.231E+00 0.000E+00

     total cpu time spent up to now is    20023.0 secs

     total energy              =   -2138.00803430 Ry
     Harris-Foulkes estimate   =   -2138.01430382 Ry
     estimated scf accuracy    <       0.00219954 Ry

     iteration # 86     ecut=    40.00 Ry     beta=0.30
     Davidson diagonalization with overlap
     ethr =  4.22E-07,  avg # of iterations =  2.3

     negative rho (up, down):  0.231E+00 0.000E+00

     total cpu time spent up to now is    20261.5 secs

     total energy              =   -2138.00878231 Ry
     Harris-Foulkes estimate   =   -2138.01043968 Ry
     estimated scf accuracy    <       0.00582351 Ry

     iteration # 87     ecut=    40.00 Ry     beta=0.30
     Davidson diagonalization with overlap
     ethr =  4.22E-07,  avg # of iterations =  1.0

     negative rho (up, down):  0.231E+00 0.000E+00

     total cpu time spent up to now is    20491.2 secs

     total energy              =   -2138.01018757 Ry
     Harris-Foulkes estimate   =   -2138.00893402 Ry
     estimated scf accuracy    <       0.00745897 Ry

     iteration # 88     ecut=    40.00 Ry     beta=0.30
     Davidson diagonalization with overlap
     ethr =  4.22E-07,  avg # of iterations =  2.0

     negative rho (up, down):  0.230E+00 0.000E+00

     total cpu time spent up to now is    20728.4 secs

     total energy              =   -2138.01520952 Ry
     Harris-Foulkes estimate   =   -2138.01499332 Ry
     estimated scf accuracy    <       0.00128583 Ry

     iteration # 89     ecut=    40.00 Ry     beta=0.30
     Davidson diagonalization with overlap
     ethr =  4.22E-07,  avg # of iterations =  2.0

     negative rho (up, down):  0.230E+00 0.000E+00

     total cpu time spent up to now is    20954.4 secs

     total energy              =   -2138.01650594 Ry
     Harris-Foulkes estimate   =   -2138.01618946 Ry
     estimated scf accuracy    <       0.00122070 Ry

     iteration # 90     ecut=    40.00 Ry     beta=0.30
     Davidson diagonalization with overlap
     ethr =  4.22E-07,  avg # of iterations =  2.0

     negative rho (up, down):  0.230E+00 0.000E+00

     total cpu time spent up to now is    21175.7 secs

     total energy              =   -2138.01699843 Ry
     Harris-Foulkes estimate   =   -2138.01701121 Ry
     estimated scf accuracy    <       0.00174257 Ry

     iteration # 91     ecut=    40.00 Ry     beta=0.30
     Davidson diagonalization with overlap
     ethr =  4.22E-07,  avg # of iterations =  1.0

     negative rho (up, down):  0.230E+00 0.000E+00

     total cpu time spent up to now is    21407.6 secs

     total energy              =   -2138.01685542 Ry
     Harris-Foulkes estimate   =   -2138.01700125 Ry
     estimated scf accuracy    <       0.00181849 Ry

     iteration # 92     ecut=    40.00 Ry     beta=0.30
     Davidson diagonalization with overlap
     ethr =  4.22E-07,  avg # of iterations =  1.0

     negative rho (up, down):  0.230E+00 0.000E+00

     total cpu time spent up to now is    21635.7 secs

     total energy              =   -2138.01648771 Ry
     Harris-Foulkes estimate   =   -2138.01686698 Ry
     estimated scf accuracy    <       0.00171355 Ry

     iteration # 93     ecut=    40.00 Ry     beta=0.30
     Davidson diagonalization with overlap
     ethr =  4.22E-07,  avg # of iterations =  1.0

     negative rho (up, down):  0.231E+00 0.000E+00

     total cpu time spent up to now is    21863.9 secs

     total energy              =   -2138.00646475 Ry
     Harris-Foulkes estimate   =   -2138.01656107 Ry
     estimated scf accuracy    <       0.00155888 Ry

     iteration # 94     ecut=    40.00 Ry     beta=0.30
     Davidson diagonalization with overlap
     ethr =  4.22E-07,  avg # of iterations =  2.0

     negative rho (up, down):  0.231E+00 0.000E+00

     total cpu time spent up to now is    22108.6 secs

     total energy              =   -2138.01186035 Ry
     Harris-Foulkes estimate   =   -2138.01311641 Ry
     estimated scf accuracy    <       0.00301479 Ry

     iteration # 95     ecut=    40.00 Ry     beta=0.30
     Davidson diagonalization with overlap
     ethr =  4.22E-07,  avg # of iterations =  1.0

     negative rho (up, down):  0.231E+00 0.000E+00

     total cpu time spent up to now is    22341.8 secs

     total energy              =   -2138.00714825 Ry
     Harris-Foulkes estimate   =   -2138.01206362 Ry
     estimated scf accuracy    <       0.00472029 Ry

     iteration # 96     ecut=    40.00 Ry     beta=0.30
     Davidson diagonalization with overlap
     ethr =  4.22E-07,  avg # of iterations =  2.0

     negative rho (up, down):  0.231E+00 0.000E+00

     total cpu time spent up to now is    22576.5 secs

     total energy              =   -2138.00959957 Ry
     Harris-Foulkes estimate   =   -2138.00829737 Ry
     estimated scf accuracy    <       0.00982787 Ry

     iteration # 97     ecut=    40.00 Ry     beta=0.30
     Davidson diagonalization with overlap
     ethr =  4.22E-07,  avg # of iterations =  2.0

     negative rho (up, down):  0.230E+00 0.000E+00

     total cpu time spent up to now is    22819.4 secs

     total energy              =   -2138.01507032 Ry
     Harris-Foulkes estimate   =   -2138.01462146 Ry
     estimated scf accuracy    <       0.00164568 Ry

     iteration # 98     ecut=    40.00 Ry     beta=0.30
     Davidson diagonalization with overlap
     ethr =  4.22E-07,  avg # of iterations =  1.0

     negative rho (up, down):  0.231E+00 0.000E+00

     total cpu time spent up to now is    23048.5 secs

     total energy              =   -2138.00009039 Ry
     Harris-Foulkes estimate   =   -2138.01529592 Ry
     estimated scf accuracy    <       0.00181514 Ry

     iteration # 99     ecut=    40.00 Ry     beta=0.30
     Davidson diagonalization with overlap
     ethr =  4.22E-07,  avg # of iterations =  2.5

     negative rho (up, down):  0.231E+00 0.000E+00

     total cpu time spent up to now is    23292.3 secs

     total energy              =   -2138.01090342 Ry
     Harris-Foulkes estimate   =   -2138.00821605 Ry
     estimated scf accuracy    <       0.01118753 Ry

     iteration #100     ecut=    40.00 Ry     beta=0.30
     Davidson diagonalization with overlap
     ethr =  4.22E-07,  avg # of iterations =  2.0

     negative rho (up, down):  0.231E+00 0.000E+00

     total cpu time spent up to now is    23529.5 secs

     total energy              =   -2138.01171814 Ry
     Harris-Foulkes estimate   =   -2138.01231057 Ry
     estimated scf accuracy    <       0.00528575 Ry

     End of self-consistent calculation

     convergence NOT achieved after 100 iterations: stopping

     init_run     :    135.41s CPU    137.00s WALL (       1 calls)
     electrons    :  22838.50s CPU  23390.77s WALL (       1 calls)

     Called by init_run:
     wfcinit      :     34.46s CPU     35.01s WALL (       1 calls)
     potinit      :      7.01s CPU      7.12s WALL (       1 calls)

     Called by electrons:
     c_bands      :   9218.99s CPU   9518.65s WALL (     100 calls)
     sum_band     :   5107.94s CPU   5230.06s WALL (     100 calls)
     v_of_rho     :     96.15s CPU    102.15s WALL (     101 calls)
     newd         :   8396.04s CPU   8432.70s WALL (     101 calls)
     mix_rho      :     20.66s CPU     21.18s WALL (     100 calls)

     Called by c_bands:
     init_us_2    :     25.30s CPU     25.66s WALL (     606 calls)
     cegterg      :   9023.39s CPU   9291.83s WALL (     300 calls)

     Called by *egterg:
     h_psi        :   5362.42s CPU   5540.17s WALL (     899 calls)
     s_psi        :    602.86s CPU    610.15s WALL (     902 calls)
     g_psi        :     10.76s CPU     10.77s WALL (     596 calls)
     cdiaghg      :    800.13s CPU    802.06s WALL (     896 calls)

     Called by h_psi:
     add_vuspsi   :    601.99s CPU    609.96s WALL (     899 calls)
     vhpsi        :    528.67s CPU    538.19s WALL (     899 calls)

     General routines
     calbec       :   1230.83s CPU   1252.58s WALL (    2401 calls)
     fft          :    132.07s CPU    172.13s WALL (    1614 calls)
     ffts         :      1.68s CPU      1.72s WALL (     201 calls)
     fftw         :   3044.27s CPU   3221.20s WALL (  540390 calls)
     interpolate  :     14.41s CPU     14.64s WALL (     201 calls)
     davcio       :      0.05s CPU     14.07s WALL (     612 calls)

     Parallel routines
     fft_scatter  :   1149.49s CPU   1360.01s WALL (  542205 calls)
     Hubbard U routines
     new_ns       :    115.79s CPU    122.81s WALL (     100 calls)
     vhpsi        :    528.67s CPU    538.19s WALL (     899 calls)

     PWSCF        :     6h22m CPU        6h32m WALL


   This run was terminated on:  14:31: 1  17May2014            

=------------------------------------------------------------------------------=
   JOB DONE.
=------------------------------------------------------------------------------=
STOP 1
STOP 1
STOP 1
STOP 1
STOP 1
STOP 1
STOP 1
STOP 1
STOP 1
STOP 1
STOP 1
STOP 1
STOP 1
STOP 1
STOP 1
STOP 1
--------------------------------------------------------------------------
mpirun noticed that the job aborted, but has no info as to the process
that caused that situation.
--------------------------------------------------------------------------
---------------------------------------
Running PBS batch system epilogue script
Job id: 361773.audhumbla.fysik.dtu.dk
Username: zhonxu
Groupname: campgst
Jobname: ReO2/Eads-2-layers/bare-U-8.0
Sessionid: 10355
Resources limits: neednodes=2:ppn=8:xeon8,nodes=2:ppn=8:xeon8,walltime=48:00:00
Resources used: cput=104:29:29,mem=16725848kb,vmem=20394908kb,walltime=06:32:22
Queuename: verylong
Accounting:
This job has allocated the following 16 nodes:
c011 c011 c011 c011 c011 c011 c011 c011 c008 c008 c008 c008 c008 c008 c008 c008
Finished epilogue job 361773.audhumbla.fysik.dtu.dk for zhonxu
